FOO
135168
    1MOL0     O    1   5.070   9.454   3.797  0.3787  0.0080 -0.5608
    1MOL0     C    2   5.016   9.414   3.696 -0.9579 -0.2014  0.3272
    1MOL0     O    3   5.082   9.385   3.579  0.4698 -0.1915 -0.5385
    1MOL0     C    4   5.214   9.370   3.581 -0.5458  0.9203 -0.9381
    1MOL0     C    5   5.274   9.239   3.592 -0.5623  0.8290 -0.5469
    1MOL0     C    6   5.417   9.232   3.566  0.2655  0.2052  0.3903
    1MOL0     C    7   5.492   9.345   3.519  1.0269  0.6557 -0.8703
    1MOL0     O    8   5.623   9.344   3.498 -0.2463 -0.6801 -0.2027
    1MOL0     C    9   5.686   9.229   3.426  0.7286  0.4251  0.8828
    1MOL0     C   10   5.802   9.278   3.355  0.3950 -0.0989  0.2586
    1MOL0     C   11   5.885   9.164   3.292  0.1907 -0.5624  0.0532
    1MOL0     C   12   5.965   9.216   3.172 -0.7413  0.2460  0.2544
    1MOL0     C   13   6.025   9.100   3.096  0.6849  0.3498  0.2882
    1MOL0     C   14   6.094   9.157   2.964 -1.0016  0.5564 -0.2928
    1MOL0     C   15   6.176   9.041   2.901  0.0721  0.7442 -0.3924
    1MOL0     C   16   6.101   8.933   2.843  0.0161  0.6604 -0.5188
    1MOL0     N   17   6.013   8.984   2.737  0.1317 -0.0461  0.7583
    1MOL0     C   18   6.045   9.003   2.607 -0.1851 -0.4031 -0.1864
    1MOL0     C   19   5.929   9.023   2.535 -0.3201 -0.6622  0.2984
    1MOL0     C   20   5.916   9.026   2.382 -0.5813  0.6506 -0.8543
    1MOL0     C   21   5.954   8.883   2.330  0.2833  0.2809  0.2066
    1MOL0     C   22   5.988   8.855   2.178  0.7907  0.0977 -0.2296
    1MOL0     C   23   5.867   8.826   2.075  0.1917  0.1347  0.0958
    1MOL0     O   24   5.912   8.890   1.952 -0.2812 -0.4098 -0.0711
    1MOL0     C   25   5.881   8.826   1.829  0.1326  0.2387 -0.2871
    1MOL0     C   26   5.950   8.855   1.707 -0.8502 -0.7111 -0.2161
    1MOL0     C   27   5.907   8.797   1.586 -0.3544 -0.3367  1.2992
    1MOL0     C   28   5.785   8.728   1.568 -0.0244 -0.4052 -0.2821
    1MOL0     C   29   5.754   8.666   1.443  0.4364  0.2715  0.0636
    1MOL0     O   30   5.650   8.575   1.465  0.6813  0.1053  0.2429
    1MOL0     C   31   5.593   8.511   1.356 -0.3875  0.0765 -0.5772
    1MOL0     C   32   5.555   8.379   1.377  0.0964 -0.2506 -0.1797
    1MOL0     C   33   5.465   8.328   1.283 -0.2567  0.6732 -0.5034
    1MOL0     C   34   5.394   8.407   1.202 -0.8938 -0.6520  0.7565
    1MOL0     O   35   5.306   8.337   1.142 -0.2792  0.7557  0.0969
    1MOL0     C   36   5.288   8.349   1.004  0.3011  0.0938  0.5444
    1MOL0     C   37   5.178   8.257   0.958  1.2275  0.5032  0.5164
    1MOL0     C   38   5.200   8.104   0.994 -0.3660 -0.0791 -0.0772
    1MOL0     C   39   5.337   8.051   0.974 -0.5025 -0.6767  0.4807
    1MOL0     C   40   5.347   7.903   1.016 -0.4051 -1.5632  0.5252
    1MOL0     C   41   5.347   7.901   1.169  0.3633  0.1590  0.0765
    1MOL0     C   42   5.365   7.758   1.227 -0.2738 -1.0964  0.3260
    1MOL0     C   43   5.345   7.740   1.374 -0.0749  0.3548 -0.7508
    1MOL0    Cl   44   5.410   7.582   1.426 -0.4146 -0.4844  0.7430
    1MOL0     C   45   5.433   8.529   1.166  0.1806 -0.0327 -0.4868
    1MOL0     C   46   5.535   8.581   1.247  0.3017  1.1401 -0.2275
    1MOL0     O   47   5.822   8.676   1.343 -0.8180  0.3915  0.8826
    1MOL0     C   48   5.711   8.712   1.693 -0.1021  0.5809  0.2709
    1MOL0     C   49   5.764   8.754   1.817 -0.0502 -0.1068 -0.1090
    1MOL0     N   50   5.831   9.036   2.642 -0.5665 -0.1900  0.8787
    1MOL0     N   51   5.882   9.008   2.757  0.6071 -0.4872  0.0801
    1MOL0     C   52   5.420   9.459   3.522  0.1508 -0.4032  0.1928
    1MOL0     C   53   5.290   9.482   3.556  0.4626 -1.3128 -0.2638
    1MOL0     C   54   4.869   9.392   3.703  0.6099  0.4160  0.8704
    1MOL0     C   55   4.782   9.466   3.778  0.4487 -0.3950  0.3298
    1MOL0     C   56   4.645   9.445   3.784  0.7344  0.7560 -0.2149
    1MOL0     C   57   4.584   9.340   3.710  0.3666 -0.8739  0.5795
    1MOL0     O   58   4.455   9.315   3.699  0.6093  0.5188 -0.4696
    1MOL0     C   59   4.356   9.368   3.788  0.5666  0.3272 -0.0244
    1MOL0     C   60   4.385   9.319   3.934  0.2486 -0.9028 -0.1796
    1MOL0     C   61   4.280   9.373   4.033  0.2772  0.8102  0.1915
    1MOL0     C   62   4.322   9.345   4.180  0.0879  0.1638  0.4226
    1MOL0     C   63   4.204   9.364   4.260 -0.4041  0.0287  0.2618
    1MOL0     C   64   4.096   9.382   4.311  0.0645 -0.1414  0.8108
    1MOL0     C   65   4.675   9.261   3.634 -0.3459 -0.5865  0.2187
    1MOL0     C   66   4.821   9.283   3.637  0.5472  0.2916 -0.1633
    1MOL0     H   67   5.217   9.146   3.587  0.5337  0.0973  0.1834
    1MOL0     H   68   5.474   9.140   3.568 -0.8302 -0.4781  0.4203
    1MOL0     H   69   5.613   9.182   3.359  0.0088  0.0213  1.9331
    1MOL0     H   70   5.723   9.148   3.489 -0.4480  0.0805  1.1604
    1MOL0     H   71   5.859   9.341   3.424 -1.9983  0.8979  1.4340
    1MOL0     H   72   5.771   9.337   3.268  1.3061 -0.3450 -0.2484
    1MOL0     H   73   5.815   9.084   3.266 -0.2794 -0.2472  0.3102
    1MOL0     H   74   5.949   9.113   3.364 -1.3659 -3.7574 -0.6591
    1MOL0     H   75   5.895   9.277   3.114 -3.4879 -3.3055 -0.5427
    1MOL0     H   76   6.036   9.283   3.220  0.4676 -1.8373  1.5035
    1MOL0     H   77   5.935   9.040   3.079 -0.9103  2.9002 -0.8322
    1MOL0     H   78   6.088   9.040   3.164 -0.4108 -0.9820  0.1788
    1MOL0     H   79   6.157   9.236   3.005  1.1512  0.0028 -2.2920
    1MOL0     H   80   6.019   9.206   2.901 -1.1983  1.1138  0.3610
    1MOL0     H   81   6.233   9.083   2.817  0.0460  0.0248 -0.7752
    1MOL0     H   82   6.238   8.999   2.980 -2.9429 -1.0943  1.1583
    1MOL0     H   83   6.035   8.908   2.927  1.7561 -0.1408  0.6693
    1MOL0     H   84   6.166   8.848   2.821  2.1818  1.6946  1.4910
    1MOL0     H   85   6.145   8.993   2.567  1.0457  1.1332  2.2587
    1MOL0     H   86   5.985   9.095   2.332 -1.4678 -0.4145 -3.8014
    1MOL0     H   87   5.812   9.049   2.356 -0.5115 -0.5152 -2.3148
    1MOL0     H   88   5.885   8.807   2.367  1.0999 -0.6199 -0.0783
    1MOL0     H   89   6.047   8.857   2.381  0.3094  0.6534  0.3480
    1MOL0     H   90   6.043   8.940   2.137  0.5124  1.2970  1.7569
    1MOL0     H   91   6.041   8.759   2.180 -1.0675 -0.9972 -0.5093
    1MOL0     H   92   5.776   8.878   2.108  1.3524 -0.1422  4.3788
    1MOL0     H   93   5.842   8.720   2.060 -0.4404  0.6807 -3.5405
    1MOL0     H   94   6.032   8.923   1.729 -1.6719  0.2096  0.1157
    1MOL0     H   95   5.972   8.802   1.499 -2.2284 -0.6513 -0.1740
    1MOL0     H   96   5.586   8.335   1.471  2.0442 -3.1108 -2.0074
    1MOL0     H   97   5.439   8.224   1.304  3.6425 -0.2554  0.6498
    1MOL0     H   98   5.379   8.337   0.946 -0.8800 -1.9343 -0.9985
    1MOL0     H   99   5.249   8.449   0.979  3.2533  1.0316 -0.7682
    1MOL0     H  100   5.177   8.263   0.849 -0.5777 -2.1486  0.2814
    1MOL0     H  101   5.080   8.296   0.987  1.4124 -0.2903  2.3786
    1MOL0     H  102   5.127   8.042   0.942  2.8125 -2.2223 -2.3860
    1MOL0     H  103   5.186   8.109   1.102  0.7584  1.7431  0.0349
    1MOL0     H  104   5.360   8.060   0.868 -1.9244 -1.4874  0.0675
    1MOL0     H  105   5.413   8.110   1.025 -0.4787  1.2849 -1.6595
    1MOL0     H  106   5.439   7.871   0.966 -0.6746  0.6710 -1.5910
    1MOL0     H  107   5.278   7.838   0.962  2.2962 -2.8053 -1.7118
    1MOL0     H  108   5.250   7.930   1.210 -0.5378 -3.0019  0.4873
    1MOL0     H  109   5.429   7.962   1.208  0.0143 -0.4410  1.8573
    1MOL0     H  110   5.311   7.675   1.180 -0.9747 -1.6379  2.0245
    1MOL0     H  111   5.469   7.742   1.199  0.1714  0.7784  0.8054
    1MOL0     H  112   5.236   7.739   1.384  0.0641 -1.3383  1.7333
    1MOL0     H  113   5.388   7.814   1.442  1.3666 -2.1109  1.2430
    1MOL0     H  114   5.370   8.579   1.093 -2.1505 -0.6744  0.9714
    1MOL0     H  115   5.564   8.685   1.241  0.7344  1.1727  1.7474
    1MOL0     H  116   5.616   8.659   1.693  0.6119 -0.8034 -0.9971
    1MOL0     H  117   5.696   8.736   1.900  0.7798  1.7580  1.0309
    1MOL0     H  118   5.462   9.552   3.486 -0.2186  0.4446  1.8719
    1MOL0     H  119   5.249   9.582   3.551  0.3758 -1.3600 -0.4701
    1MOL0     H  120   4.825   9.538   3.848 -2.7184 -0.0546  2.1064
    1MOL0     H  121   4.592   9.511   3.852 -0.6931  0.9956 -1.5111
    1MOL0     H  122   4.259   9.320   3.767  0.2174 -0.2575  2.6515
    1MOL0     H  123   4.362   9.477   3.781  2.1328  0.2518 -0.0116
    1MOL0     H  124   4.383   9.210   3.935 -1.3807 -0.8886  0.8886
    1MOL0     H  125   4.482   9.346   3.978  0.7269 -4.1731  1.0234
    1MOL0     H  126   4.182   9.335   4.004  2.0700 -2.3221 -2.3412
    1MOL0     H  127   4.280   9.483   4.031 -0.7002  0.9197  2.5615
    1MOL0     H  128   4.356   9.241   4.187 -2.1580 -0.7069 -0.6578
    1MOL0     H  129   4.403   9.413   4.208 -0.7664  1.2668  0.2848
    1MOL0     H  130   3.997   9.395   4.348 -1.2001 -0.3516 -2.2218
    1MOL0     H  131   4.638   9.186   3.566 -1.8648 -0.6605  1.1062
    1MOL0     H  132   4.877   9.214   3.575  0.7873  0.3689 -0.0339
    2MOL0     O  133   5.276   5.434   7.290 -0.3260  0.6175 -0.1004
    2MOL0     C  134   5.274   5.540   7.230 -0.4986 -0.0409  0.2893
    2MOL0     O  135   5.167   5.621   7.211  0.3984  0.3424 -0.1809
    2MOL0     C  136   5.040   5.604   7.261 -0.3371 -0.0594  1.6466
    2MOL0     C  137   5.000   5.508   7.349  1.1869 -0.1564  0.3717
    2MOL0     C  138   4.866   5.523   7.403 -0.7068 -0.3762  0.4540
    2MOL0     C  139   4.785   5.633   7.364 -0.4728  0.4283 -1.8192
    2MOL0     O  140   4.655   5.652   7.411 -0.4313  0.0423 -0.1180
    2MOL0     C  141   4.585   5.565   7.497  0.1051 -0.5504 -0.0260
    2MOL0     C  142   4.456   5.639   7.545 -0.7061 -0.0801  0.2080
    2MOL0     C  143   4.365   5.690   7.431 -0.3577  0.4943  0.3709
    2MOL0     C  144   4.294   5.818   7.461 -0.6308  0.2648  0.0088
    2MOL0     C  145   4.228   5.882   7.335  0.0265  0.3856  0.1326
    2MOL0     C  146   4.159   6.008   7.378 -0.3364 -0.0338 -0.2543
    2MOL0     C  147   4.103   6.087   7.260 -0.1779 -1.1871 -0.5039
    2MOL0     C  148   4.221   6.164   7.180 -0.5353 -0.0546  0.3379
    2MOL0     N  149   4.294   6.249   7.270 -0.5524 -0.8012  0.1009
    2MOL0     C  150   4.432   6.272   7.284  0.2674  0.3776 -0.9941
    2MOL0     C  151   4.440   6.348   7.391 -0.4705  0.2591 -0.4003
    2MOL0     C  152   4.568   6.379   7.460 -0.3768  0.1673  0.0638
    2MOL0     C  153   4.615   6.520   7.424 -0.8734 -0.4151 -0.5034
    2MOL0     C  154   4.549   6.632   7.508  0.1807  0.2266 -0.0398
    2MOL0     C  155   4.555   6.774   7.441 -0.4789  0.6643 -0.2909
    2MOL0     O  156   4.510   6.871   7.526 -0.3105 -0.2399 -0.0272
    2MOL0     C  157   4.380   6.875   7.567 -0.5260 -0.5451  0.2372
    2MOL0     C  158   4.273   6.803   7.504  0.4127 -0.5048 -0.3831
    2MOL0     C  159   4.143   6.806   7.553  0.4633  0.1343 -0.9571
    2MOL0     C  160   4.123   6.865   7.680 -1.1162  0.5621 -0.2909
    2MOL0     C  161   3.986   6.890   7.738 -0.3697 -0.7431  0.1553
    2MOL0     O  162   3.886   6.879   7.654 -0.0213  0.0775 -0.2703
    2MOL0     C  163   3.759   6.900   7.698  0.8701 -0.2726  0.0397
    2MOL0     C  164   3.714   7.020   7.761 -0.6504  1.0334 -0.5123
    2MOL0     C  165   3.581   7.038   7.785 -0.8922 -0.2905  0.7880
    2MOL0     C  166   3.489   6.938   7.758 -0.2494 -0.6238  0.8989
    2MOL0     O  167   3.353   6.954   7.770 -0.4650  0.2606  0.2988
    2MOL0     C  168   3.320   7.005   7.895  0.4017 -0.2609 -0.1644
    2MOL0     C  169   3.169   6.980   7.915  1.3141  1.0405  0.8629
    2MOL0     C  170   3.084   7.069   7.818 -0.2748 -0.0205 -0.2114
    2MOL0     C  171   2.932   7.045   7.845 -1.0064 -0.2716 -0.3091
    2MOL0     C  172   2.850   7.141   7.758  0.8234  0.3981 -0.3057
    2MOL0     C  173   2.701   7.121   7.758 -0.1904 -0.7694 -1.0553
    2MOL0     C  174   2.617   7.236   7.700 -1.2401  0.2519 -0.6342
    2MOL0     C  175   2.652   7.282   7.562  0.2372 -0.0991 -1.0291
    2MOL0    Cl  176   2.674   7.162   7.442 -0.2080  0.0721  0.2284
    2MOL0     C  177   3.527   6.825   7.681 -0.2473 -0.2088  0.0309
    2MOL0     C  178   3.664   6.807   7.653  0.2783  0.2111 -0.2795
    2MOL0     O  179   3.983   6.926   7.856 -0.0833 -0.0486  0.6115
    2MOL0     C  180   4.229   6.922   7.748 -0.5856 -0.9426 -0.4293
    2MOL0     C  181   4.350   6.939   7.690  0.1327  0.4255 -0.1906
    2MOL0     N  182   4.316   6.391   7.437 -0.5325 -0.2970  0.6455
    2MOL0     N  183   4.229   6.339   7.355 -0.0797 -1.2580  0.3578
    2MOL0     C  184   4.829   5.721   7.271  0.2566 -0.1421 -0.7670
    2MOL0     C  185   4.959   5.720   7.231 -0.5423  0.1935  0.5560
    2MOL0     C  186   5.391   5.565   7.142 -0.4000  0.7551  0.7524
    2MOL0     C  187   5.368   5.596   7.000 -0.0772 -0.0352  0.2162
    2MOL0     C  188   5.467   5.634   6.913 -0.1917  0.0291 -0.0583
    2MOL0     C  189   5.602   5.628   6.947 -0.0307 -0.5109  0.0486
    2MOL0     O  190   5.709   5.654   6.860  0.9153  0.4064  0.1717
    2MOL0     C  191   5.676   5.681   6.727 -0.7756 -0.2297  0.8499
    2MOL0     C  192   5.793   5.668   6.630  0.3387 -0.2286 -0.0799
    2MOL0     C  193   5.753   5.732   6.489 -0.0274  0.3378  0.2091
    2MOL0     C  194   5.877   5.762   6.407 -0.3092  0.8860 -0.7194
    2MOL0     C  195   5.844   5.826   6.284 -0.3260  0.5685  0.5202
    2MOL0     C  196   5.802   5.883   6.184  1.3952  0.2394 -0.4366
    2MOL0     C  197   5.630   5.605   7.085  0.2026 -0.3049  0.3608
    2MOL0     C  198   5.531   5.576   7.176 -0.2176  0.0312  0.0859
    2MOL0     H  199   5.060   5.429   7.392 -1.4871 -3.6741 -1.7541
    2MOL0     H  200   4.831   5.466   7.489 -1.2420 -0.0430  0.4633
    2MOL0     H  201   4.648   5.543   7.584  0.4685 -0.3912 -0.2472
    2MOL0     H  202   4.565   5.471   7.445 -0.0536  0.1210 -1.2189
    2MOL0     H  203   4.488   5.720   7.613 -1.7763  0.9513 -0.4832
    2MOL0     H  204   4.408   5.550   7.586  0.6474  0.1511  2.5143
    2MOL0     H  205   4.288   5.613   7.417 -0.5150  1.0692 -2.6982
    2MOL0     H  206   4.412   5.721   7.337  0.8193  0.9596  1.1000
    2MOL0     H  207   4.228   5.795   7.544 -0.9525  2.4200  0.4230
    2MOL0     H  208   4.375   5.882   7.498  0.5963 -1.7427  0.9595
    2MOL0     H  209   4.160   5.809   7.289 -0.2779  1.2662 -0.8393
    2MOL0     H  210   4.305   5.900   7.260  0.4310 -0.1073  0.4272
    2MOL0     H  211   4.232   6.067   7.433  1.4052 -0.7781 -1.6815
    2MOL0     H  212   4.076   5.991   7.448 -2.3068 -1.3260 -2.7219
    2MOL0     H  213   4.047   6.018   7.197 -1.5262  0.1482 -0.8221
    2MOL0     H  214   4.032   6.159   7.302  1.8976 -0.0081  1.1447
    2MOL0     H  215   4.175   6.219   7.098  1.1802  0.6861 -0.1724
    2MOL0     H  216   4.286   6.089   7.134 -0.5996  0.4521 -0.5999
    2MOL0     H  217   4.517   6.231   7.230  0.1845  0.8168 -1.4646
    2MOL0     H  218   4.649   6.308   7.440 -0.4304  0.7863 -2.8405
    2MOL0     H  219   4.551   6.370   7.568 -3.8289 -3.1290 -0.5404
    2MOL0     H  220   4.583   6.533   7.320 -3.5451  1.9860  0.5128
    2MOL0     H  221   4.723   6.527   7.444 -1.4913  0.5104  3.1054
    2MOL0     H  222   4.446   6.605   7.528  0.0772 -0.9887 -1.9495
    2MOL0     H  223   4.611   6.622   7.598 -1.2804 -1.9195  0.7918
    2MOL0     H  224   4.498   6.770   7.348 -2.1415 -4.5548  0.6258
    2MOL0     H  225   4.662   6.798   7.434 -0.4043  0.7088  0.9023
    2MOL0     H  226   4.288   6.757   7.407 -0.8106  0.1067 -0.8902
    2MOL0     H  227   4.060   6.757   7.501 -1.1156 -0.2455  1.7453
    2MOL0     H  228   3.783   7.101   7.781 -0.3536  1.5901 -3.3131
    2MOL0     H  229   3.536   7.124   7.833  0.2789 -0.8793  3.1093
    2MOL0     H  230   3.348   7.110   7.910  1.3568 -0.6677  1.0448
    2MOL0     H  231   3.379   6.964   7.977  2.5921  0.7110 -1.1807
    2MOL0     H  232   3.142   7.015   8.014  0.2314 -1.6555  1.6205
    2MOL0     H  233   3.145   6.873   7.913 -0.0229  1.3164  1.3753
    2MOL0     H  234   3.110   7.053   7.714 -3.5251 -2.7919 -0.7541
    2MOL0     H  235   3.101   7.174   7.846  1.8295 -0.3048 -0.3200
    2MOL0     H  236   2.921   6.938   7.824  0.2153 -0.3278 -0.7300
    2MOL0     H  237   2.912   7.065   7.951 -0.7913  2.5779 -0.7335
    2MOL0     H  238   2.879   7.134   7.653 -0.6570  1.5013 -0.8197
    2MOL0     H  239   2.861   7.245   7.791 -1.9645  1.5201 -2.5154
    2MOL0     H  240   2.672   7.106   7.863 -3.3533  0.3030 -1.6544
    2MOL0     H  241   2.665   7.032   7.706 -0.6609 -0.4836 -1.2361
    2MOL0     H  242   2.513   7.215   7.727 -1.6844  0.3046 -2.2149
    2MOL0     H  243   2.633   7.326   7.760 -0.1742  0.9660 -1.9365
    2MOL0     H  244   2.752   7.324   7.561  0.5840 -0.5824  2.1616
    2MOL0     H  245   2.584   7.362   7.531 -1.2152 -1.5729 -1.8656
    2MOL0     H  246   3.463   6.745   7.645  1.6942 -2.2911  0.9765
    2MOL0     H  247   3.693   6.726   7.587 -0.3554 -0.0572 -0.2369
    2MOL0     H  248   4.224   6.983   7.838  0.7331 -0.9774 -0.3157
    2MOL0     H  249   4.431   6.994   7.735  1.6375 -0.3617 -1.7832
    2MOL0     H  250   4.764   5.805   7.250 -0.0132  0.8639  3.2470
    2MOL0     H  251   4.998   5.809   7.183 -1.4485  0.3998  0.1996
    2MOL0     H  252   5.263   5.606   6.974  0.1943  0.6062 -0.6446
    2MOL0     H  253   5.426   5.673   6.820  0.0078 -1.9740 -1.0389
    2MOL0     H  254   5.637   5.783   6.732  0.0455  0.4069 -2.8285
    2MOL0     H  255   5.590   5.623   6.692 -1.1578  1.2002 -0.7067
    2MOL0     H  256   5.874   5.727   6.674 -0.6767  2.2544 -1.3755
    2MOL0     H  257   5.814   5.561   6.619 -0.9766 -0.6550  1.2478
    2MOL0     H  258   5.696   5.825   6.503  2.6453  2.0973  0.1291
    2MOL0     H  259   5.688   5.659   6.439  1.8594 -0.1696 -1.6609
    2MOL0     H  260   5.950   5.821   6.463  0.6560 -0.6684 -0.2851
    2MOL0     H  261   5.935   5.672   6.382  0.2701  1.0695 -0.0615
    2MOL0     H  262   5.766   5.943   6.103 -1.6546 -1.1390 -0.2349
    2MOL0     H  263   5.729   5.626   7.121  0.1349  0.6479  0.0263
    2MOL0     H  264   5.534   5.563   7.284  0.5567  0.6542  0.1490
    3MOL0     O  265   0.343   5.361   6.806  0.1552  0.5980  0.7561
    3MOL0     C  266   0.312   5.383   6.681  0.1919 -0.9837 -0.5721
    3MOL0     O  267   0.392   5.434   6.589 -0.1056  0.1215  0.0531
    3MOL0     C  268   0.529   5.440   6.621 -0.3835  0.3916  0.6631
    3MOL0     C  269   0.607   5.336   6.676 -0.6211 -0.1804 -0.5224
    3MOL0     C  270   0.747   5.344   6.687  0.4514 -0.4658 -0.3123
    3MOL0     C  271   0.815   5.451   6.630  0.3823  0.8515 -0.5567
    3MOL0     O  272   0.953   5.461   6.612 -1.2723  0.2893  0.2161
    3MOL0     C  273   1.022   5.340   6.643 -0.0072  0.0206  0.0376
    3MOL0     C  274   1.079   5.340   6.781 -0.2016  0.2076  0.5329
    3MOL0     C  275   1.181   5.452   6.798 -0.5580 -0.2476 -0.1674
    3MOL0     C  276   1.222   5.475   6.946  0.3173 -0.0401  0.1903
    3MOL0     C  277   1.351   5.531   6.978 -0.9556 -0.1870 -0.8164
    3MOL0     C  278   1.368   5.682   6.954  1.1797 -0.3415 -0.0056
    3MOL0     C  279   1.510   5.747   6.988 -0.3528 -0.7688  0.4321
    3MOL0     C  280   1.611   5.707   6.890 -0.3348 -0.9006 -0.4075
    3MOL0     N  281   1.719   5.812   6.877 -0.9739  0.2331  0.2902
    3MOL0     C  282   1.775   5.905   6.960  0.6122  0.8308  0.1187
    3MOL0     C  283   1.884   5.959   6.906  0.4050  0.0576  1.7650
    3MOL0     C  284   1.974   6.055   6.972 -0.4752 -0.6766 -0.4781
    3MOL0     C  285   2.012   6.182   6.894  0.5406 -1.1146 -1.7687
    3MOL0     C  286   2.100   6.289   6.967  0.4844  0.2134 -0.3512
    3MOL0     C  287   2.235   6.231   7.005 -1.2005 -0.7287 -0.1741
    3MOL0     O  288   2.311   6.332   7.074  0.0130 -0.0636 -0.2413
    3MOL0     C  289   2.442   6.349   7.027  0.6968  0.4969  0.4570
    3MOL0     C  290   2.461   6.388   6.898  1.4538  0.5405  1.5850
    3MOL0     C  291   2.579   6.438   6.846 -0.6405  1.2482  0.8839
    3MOL0     C  292   2.689   6.431   6.933  0.4313 -0.4410  0.8075
    3MOL0     C  293   2.818   6.499   6.893  0.0743 -0.0506 -0.3051
    3MOL0     O  294   2.817   6.547   6.757  0.5188  0.0033 -0.0010
    3MOL0     C  295   2.920   6.618   6.695 -0.6623  0.0431 -2.2631
    3MOL0     C  296   3.055   6.558   6.715 -0.0056 -0.0012 -0.0050
    3MOL0     C  297   3.159   6.625   6.650  0.4365 -0.2386  0.1223
    3MOL0     C  298   3.136   6.728   6.568  1.0582 -1.3985  0.7624
    3MOL0     O  299   3.228   6.757   6.478 -0.9570 -0.1482  0.4936
    3MOL0     C  300   3.250   6.899   6.464 -0.1527 -0.1028 -0.2034
    3MOL0     C  301   3.389   6.910   6.423 -0.9663  0.5455  0.2966
    3MOL0     C  302   3.432   7.062   6.399 -0.0861  1.2197  0.0379
    3MOL0     C  303   3.572   7.069   6.334  0.0912  0.5113  0.6116
    3MOL0     C  304   3.619   7.204   6.375 -0.5701  0.7345  0.3829
    3MOL0     C  305   3.766   7.233   6.311  1.1347 -0.0483  0.4678
    3MOL0     C  306   3.814   7.362   6.363 -0.3396  0.6302 -0.4794
    3MOL0     C  307   3.909   7.444   6.272 -0.1671  0.5529  0.4679
    3MOL0    Cl  308   4.048   7.340   6.224  0.3515 -0.2073 -0.1672
    3MOL0     C  309   3.010   6.791   6.559  0.4739 -0.7033 -0.9324
    3MOL0     C  310   2.904   6.739   6.619  0.4970  0.1436 -0.8632
    3MOL0     O  311   2.911   6.515   6.974  0.9969  0.2913  0.2904
    3MOL0     C  312   2.679   6.372   7.054 -0.2822  0.4124 -0.1256
    3MOL0     C  313   2.555   6.330   7.103  0.5052 -0.6607 -0.0444
    3MOL0     N  314   1.895   5.884   6.786 -1.1381  0.3776 -0.6149
    3MOL0     N  315   1.808   5.798   6.778  0.3729 -0.3073  0.0095
    3MOL0     C  316   0.744   5.542   6.551 -0.1716 -0.0800 -0.2029
    3MOL0     C  317   0.602   5.543   6.558  0.2377 -0.1206 -0.1204
    3MOL0     C  318   0.166   5.385   6.649 -0.0295  0.1640 -0.2420
    3MOL0     C  319   0.122   5.423   6.520  0.4638 -0.1412 -1.0509
    3MOL0     C  320  -0.010   5.416   6.488  0.5907  0.3188  0.5418
    3MOL0     C  321  -0.104   5.373   6.575 -0.3047 -1.4141  0.0619
    3MOL0     O  322  -0.238   5.385   6.533 -0.2142  0.4260 -0.4673
    3MOL0     C  323  -0.340   5.375   6.633  0.6571 -0.7801 -0.0848
    3MOL0     C  324  -0.468   5.437   6.573 -0.6115  0.0772  0.1156
    3MOL0     C  325  -0.597   5.373   6.633 -0.5393  0.0080  0.1797
    3MOL0     C  326  -0.716   5.459   6.588  0.0419  0.3125  0.2130
    3MOL0     C  327  -0.822   5.452   6.685  0.2365  0.8326 -0.1376
    3MOL0     C  328  -0.933   5.444   6.739 -0.5130 -0.0696 -0.2157
    3MOL0     C  329  -0.066   5.332   6.708 -0.5452  0.4222 -0.8462
    3MOL0     C  330   0.074   5.339   6.736  0.0993  0.1836 -0.4233
    3MOL0     H  331   0.569   5.242   6.714 -1.5990  0.7662  0.9591
    3MOL0     H  332   0.801   5.273   6.749  1.5467 -1.3135 -2.1536
    3MOL0     H  333   1.100   5.326   6.568 -1.5899 -2.1533 -1.3505
    3MOL0     H  334   0.959   5.251   6.626 -1.7647  0.9231  1.5292
    3MOL0     H  335   1.130   5.244   6.795 -1.2989 -0.3337  0.9917
    3MOL0     H  336   0.996   5.341   6.853 -0.9351  1.2572 -0.2886
    3MOL0     H  337   1.135   5.544   6.760  0.2475  0.4470  0.4989
    3MOL0     H  338   1.275   5.447   6.742  0.4637 -2.5810  1.6341
    3MOL0     H  339   1.146   5.539   6.993 -2.2219 -0.1917 -3.2753
    3MOL0     H  340   1.212   5.374   6.987 -1.1299 -0.4959 -1.1770
    3MOL0     H  341   1.434   5.477   6.932  0.8682  1.0692  0.8130
    3MOL0     H  342   1.365   5.517   7.085  0.4757 -0.8299 -1.0647
    3MOL0     H  343   1.301   5.738   7.020 -1.4362  0.0806 -2.8120
    3MOL0     H  344   1.330   5.702   6.853  2.8824  1.2833 -0.3654
    3MOL0     H  345   1.491   5.853   6.973  0.0862 -0.8645 -0.8652
    3MOL0     H  346   1.538   5.730   7.093  1.4515 -1.0968 -0.0788
    3MOL0     H  347   1.582   5.680   6.788  1.5110  0.5053 -1.3552
    3MOL0     H  348   1.651   5.618   6.941  1.7332  0.3721  0.3247
    3MOL0     H  349   1.746   5.938   7.059  1.0046  4.3167 -0.7899
    3MOL0     H  350   2.065   5.994   6.978  0.3544  0.6269  2.1238
    3MOL0     H  351   1.942   6.082   7.073 -0.7530 -1.3077 -0.3984
    3MOL0     H  352   1.918   6.235   6.874  1.7337  1.2620 -1.5285
    3MOL0     H  353   2.056   6.142   6.802  1.7694  0.5784 -1.9714
    3MOL0     H  354   2.121   6.380   6.909 -0.5919  0.2370 -0.7295
    3MOL0     H  355   2.046   6.316   7.058  0.7765  3.1289 -0.9447
    3MOL0     H  356   2.283   6.188   6.916 -1.3453 -0.1066 -0.5568
    3MOL0     H  357   2.226   6.150   7.079 -1.2611  1.0267  1.8429
    3MOL0     H  358   2.372   6.418   6.843  0.7915 -0.4750  2.0686
    3MOL0     H  359   2.589   6.489   6.751  0.9373 -0.7405 -0.0794
    3MOL0     H  360   3.076   6.467   6.769 -2.7519 -0.5266  0.2832
    3MOL0     H  361   3.252   6.570   6.639  0.3494 -0.0671 -1.7712
    3MOL0     H  362   3.235   6.959   6.554  0.2674  1.3962 -1.0891
    3MOL0     H  363   3.185   6.939   6.386 -0.2042  0.1576 -0.0308
    3MOL0     H  364   3.419   6.859   6.331  2.2201  1.6044  0.6135
    3MOL0     H  365   3.449   6.861   6.501 -0.6980 -0.3097 -0.4385
    3MOL0     H  366   3.434   7.109   6.498 -0.7113  0.1303  0.5885
    3MOL0     H  367   3.365   7.117   6.332  0.9033  1.4942 -0.7537
    3MOL0     H  368   3.633   6.990   6.379  1.3429  3.3508  4.4357
    3MOL0     H  369   3.570   7.049   6.226  1.5525 -0.2089  0.6969
    3MOL0     H  370   3.642   7.202   6.482  3.4991  0.4535 -0.3496
    3MOL0     H  371   3.550   7.285   6.348  0.2459  2.3294  2.7468
    3MOL0     H  372   3.763   7.229   6.202 -0.2268  2.5710  0.3211
    3MOL0     H  373   3.839   7.158   6.341 -1.7828 -2.8028  1.1746
    3MOL0     H  374   3.725   7.426   6.363  0.4557  1.7442 -0.1614
    3MOL0     H  375   3.854   7.337   6.462 -2.2025 -3.0782 -0.4578
    3MOL0     H  376   3.941   7.522   6.342  1.0662  0.2316  0.2781
    3MOL0     H  377   3.847   7.478   6.188 -1.4402 -1.7597  0.3832
    3MOL0     H  378   3.006   6.891   6.515  0.7926  1.3705  3.2266
    3MOL0     H  379   2.809   6.791   6.608 -0.3010 -1.2690 -1.0006
    3MOL0     H  380   2.760   6.366   7.127 -0.0148 -1.3331 -0.5152
    3MOL0     H  381   2.566   6.306   7.209 -0.4318 -1.0038 -0.0113
    3MOL0     H  382   0.788   5.617   6.485 -1.0396 -1.2742 -2.2392
    3MOL0     H  383   0.537   5.618   6.516  0.0526 -0.5689 -0.6524
    3MOL0     H  384   0.181   5.465   6.439  0.5521 -0.5714 -1.2154
    3MOL0     H  385  -0.040   5.449   6.389  2.0664  0.6632  0.1745
    3MOL0     H  386  -0.315   5.429   6.724  0.1717  0.2845 -0.5730
    3MOL0     H  387  -0.350   5.270   6.664 -2.6207 -0.9439 -1.2822
    3MOL0     H  388  -0.461   5.546   6.584 -1.2311  0.4271 -2.3479
    3MOL0     H  389  -0.473   5.410   6.467 -2.6716  0.0196  0.1884
    3MOL0     H  390  -0.604   5.368   6.742 -0.3250 -0.1445  0.1854
    3MOL0     H  391  -0.597   5.270   6.596  4.7250 -0.1091 -0.2083
    3MOL0     H  392  -0.675   5.560   6.582 -0.1170  0.4450  1.1305
    3MOL0     H  393  -0.754   5.425   6.491  1.8409 -2.0950  0.2701
    3MOL0     H  394  -1.034   5.428   6.774 -1.5038  4.3399 -0.3838
    3MOL0     H  395  -0.126   5.297   6.791 -0.2259 -2.9046 -1.8952
    3MOL0     H  396   0.107   5.291   6.827 -0.8523 -1.6160 -0.9846
    4MOL0     O  397   9.420   5.066   3.877  0.0947 -0.0383 -0.0190
    4MOL0     C  398   9.300   5.049   3.891  0.7265 -0.1082 -0.1388
    4MOL0     O  399   9.238   4.925   3.907 -0.0249 -0.9043 -0.0024
    4MOL0     C  400   9.300   4.816   3.885 -1.5889  0.5336  0.4334
    4MOL0     C  401   9.364   4.791   3.757 -1.0087 -0.9385 -0.1714
    4MOL0     C  402   9.425   4.664   3.727  0.3466 -0.1346 -0.1106
    4MOL0     C  403   9.405   4.558   3.816 -0.0673  0.0326 -0.6373
    4MOL0     O  404   9.455   4.441   3.790  0.5356  0.0252  0.3368
    4MOL0     C  405   9.376   4.363   3.692  0.3264 -0.0284 -0.8157
    4MOL0     C  406   9.407   4.221   3.714 -0.1804  0.8345  1.0905
    4MOL0     C  407   9.560   4.183   3.708 -0.3253 -0.0173 -0.5034
    4MOL0     C  408   9.617   4.224   3.565  0.6301  0.1028 -0.2091
    4MOL0     C  409   9.771   4.190   3.548 -0.0657 -1.2888  0.0763
    4MOL0     C  410   9.826   4.237   3.414  0.6489 -0.2750  0.8105
    4MOL0     C  411   9.976   4.258   3.430 -0.0256 -0.1107 -0.7643
    4MOL0     C  412  10.027   4.238   3.282 -0.2379  0.0015 -0.3649
    4MOL0     N  413  10.075   4.103   3.253 -0.3363 -0.0953  0.1146
    4MOL0     C  414  10.181   4.042   3.309 -0.0393  0.7462 -0.4112
    4MOL0     C  415  10.197   3.921   3.249 -0.3125  0.7514  0.3630
    4MOL0     C  416  10.300   3.809   3.266  0.4325  0.2550 -0.5677
    4MOL0     C  417  10.419   3.829   3.181  0.0359  0.6352  0.6473
    4MOL0     C  418  10.530   3.716   3.196  0.0767  0.0896 -0.3231
    4MOL0     C  419  10.650   3.765   3.112 -0.9255 -0.1910 -0.8666
    4MOL0     O  420  10.702   3.879   3.166 -0.3774 -0.1770  0.3936
    4MOL0     C  421  10.830   3.895   3.163 -0.3719 -0.4370 -0.2769
    4MOL0     C  422  10.896   3.886   3.279 -0.0645 -0.6540 -0.6724
    4MOL0     C  423  11.038   3.878   3.289 -0.2985  0.7835 -1.0684
    4MOL0     C  424  11.119   3.910   3.181 -0.2188 -0.2136  0.4369
    4MOL0     C  425  11.272   3.914   3.177  0.0741 -0.4263 -1.3660
    4MOL0     O  426  11.338   3.991   3.088  0.6177 -0.6487 -0.0144
    4MOL0     C  427  11.468   4.044   3.095 -0.5677  0.1781  1.1714
    4MOL0     C  428  11.579   4.021   3.179  0.1699  0.3301  0.1718
    4MOL0     C  429  11.698   4.088   3.159  0.4318 -0.0432  1.7369
    4MOL0     C  430  11.718   4.171   3.044 -0.5224 -0.5228 -0.3339
    4MOL0     O  431  11.829   4.243   3.015 -0.5386  0.3693 -0.9082
    4MOL0     C  432  11.948   4.231   3.105 -0.0655 -0.3831  0.9568
    4MOL0     C  433  11.936   4.335   3.220 -0.2410  0.6968 -0.6511
    4MOL0     C  434  12.052   4.338   3.325  1.1275  0.5910  0.1025
    4MOL0     C  435  12.186   4.334   3.269  0.6065  0.0609 -0.3300
    4MOL0     C  436  12.296   4.324   3.381  0.1492 -0.8062  0.2370
    4MOL0     C  437  12.426   4.332   3.318 -0.8465  0.2373  0.1658
    4MOL0     C  438  12.535   4.318   3.417 -1.0922  0.4872  0.3061
    4MOL0     C  439  12.601   4.451   3.452 -0.1868  1.1283  0.2038
    4MOL0    Cl  440  12.716   4.477   3.311 -0.0628  0.3180 -0.0288
    4MOL0     C  441  11.605   4.199   2.964  0.3225 -0.7489 -0.0547
    4MOL0     C  442  11.489   4.129   2.994  0.0663  0.2272  1.1415
    4MOL0     O  443  11.330   3.850   3.271  0.1142  0.0532  0.1430
    4MOL0     C  444  11.051   3.912   3.063  1.1000 -0.4444  0.3894
    4MOL0     C  445  10.910   3.911   3.049  0.6872  0.1331 -0.0447
    4MOL0     N  446  10.089   3.900   3.163 -0.3500  0.0779  0.1093
    4MOL0     N  447  10.018   4.014   3.163  0.0385 -0.1456 -0.0177
    4MOL0     C  448   9.338   4.574   3.934 -0.2961  0.4617 -0.0104
    4MOL0     C  449   9.293   4.704   3.968  0.4365  0.1662  1.0246
    4MOL0     C  450   9.211   5.163   3.907 -0.5540 -0.7956  0.3687
    4MOL0     C  451   9.239   5.282   3.827  0.3775  0.0078 -0.6855
    4MOL0     C  452   9.139   5.384   3.820  0.2455 -0.0719  0.7875
    4MOL0     C  453   9.028   5.389   3.902  0.6329 -0.0723  1.0058
    4MOL0     O  454   8.942   5.497   3.914  0.1892  0.4050 -0.0830
    4MOL0     C  455   8.928   5.574   3.789 -0.6528 -0.3016  0.0925
    4MOL0     C  456   9.013   5.699   3.778 -0.1419 -1.4174 -0.4392
    4MOL0     C  457   8.965   5.836   3.837  0.5925 -0.6242  0.2901
    4MOL0     C  458   8.959   5.833   3.986  0.3863  1.0743  0.0822
    4MOL0     C  459   8.933   5.968   4.027 -0.5716 -0.0397  0.6496
    4MOL0     C  460   8.922   6.087   4.064  0.2887 -0.4977  0.1273
    4MOL0     C  461   9.004   5.276   3.980 -0.8318  0.2134 -0.2432
    4MOL0     C  462   9.089   5.167   3.976  0.4159  0.8373 -0.8176
    4MOL0     H  463   9.361   4.860   3.674  0.1193 -0.5654  0.0854
    4MOL0     H  464   9.478   4.634   3.637  2.2108 -0.6447  1.1008
    4MOL0     H  465   9.408   4.393   3.592  0.3232 -0.2372 -0.8799
    4MOL0     H  466   9.269   4.380   3.707  0.3453  1.4443 -2.0074
    4MOL0     H  467   9.356   4.156   3.642  2.4996 -0.7468  0.4472
    4MOL0     H  468   9.374   4.192   3.813 -0.4412  0.3789  0.8700
    4MOL0     H  469   9.567   4.075   3.724 -1.0564 -0.2485 -1.5639
    4MOL0     H  470   9.623   4.238   3.777  0.8625  0.7598 -2.1256
    4MOL0     H  471   9.551   4.173   3.495  0.7751 -2.8927  1.6534
    4MOL0     H  472   9.619   4.330   3.539  3.0967  0.8693  2.4503
    4MOL0     H  473   9.786   4.082   3.559  0.9018 -1.3594 -1.6033
    4MOL0     H  474   9.837   4.249   3.612 -0.8858 -0.8322  0.5036
    4MOL0     H  475   9.770   4.323   3.376  2.5735 -0.2622 -2.3508
    4MOL0     H  476   9.795   4.159   3.345 -0.5787  0.2053  0.7900
    4MOL0     H  477  10.012   4.346   3.484  1.3107 -0.0926 -1.6403
    4MOL0     H  478  10.002   4.174   3.495 -0.6918  0.2754  0.0154
    4MOL0     H  479  10.103   4.311   3.254 -0.7390 -0.2518 -2.5828
    4MOL0     H  480   9.947   4.269   3.213  0.6740  0.0401 -1.4335
    4MOL0     H  481  10.243   4.075   3.392  1.8807 -1.3771 -0.8791
    4MOL0     H  482  10.249   3.715   3.246 -3.3605  1.9645  0.1200
    4MOL0     H  483  10.322   3.810   3.373  1.5402 -1.7979 -0.7297
    4MOL0     H  484  10.463   3.927   3.202 -1.2456  1.4193 -0.2011
    4MOL0     H  485  10.389   3.835   3.076  0.0634 -0.8982  0.5406
    4MOL0     H  486  10.550   3.694   3.301 -1.7444 -3.0261 -0.5191
    4MOL0     H  487  10.488   3.621   3.164 -1.2394  0.8231 -0.8371
    4MOL0     H  488  10.616   3.768   3.008 -2.3641  2.8527 -0.3963
    4MOL0     H  489  10.721   3.681   3.121  0.5061  0.7794 -2.3838
    4MOL0     H  490  10.836   3.901   3.368  0.6073  3.2146 -0.6806
    4MOL0     H  491  11.082   3.870   3.388  1.1389  3.8091 -1.3459
    4MOL0     H  492  11.568   3.942   3.252  2.8985 -1.3584 -1.0894
    4MOL0     H  493  11.776   4.074   3.233  1.4138  0.3203  0.8005
    4MOL0     H  494  12.047   4.246   3.060  0.1149 -1.3010  1.0299
    4MOL0     H  495  11.956   4.131   3.150  1.4784 -0.8500 -0.2851
    4MOL0     H  496  11.839   4.317   3.268 -0.0546 -2.6727 -1.2911
    4MOL0     H  497  11.933   4.436   3.178  3.0371 -0.3057 -3.8211
    4MOL0     H  498  12.041   4.251   3.390 -3.7239  2.8662  2.9199
    4MOL0     H  499  12.046   4.423   3.393 -2.2448 -0.2418  1.0238
    4MOL0     H  500  12.203   4.254   3.197  0.2839 -0.3807  0.0824
    4MOL0     H  501  12.186   4.425   3.208 -1.2085  1.0845  1.0818
    4MOL0     H  502  12.274   4.231   3.433 -2.4752  0.7198  2.0882
    4MOL0     H  503  12.292   4.408   3.450  3.2149  0.7460 -1.2551
    4MOL0     H  504  12.428   4.429   3.268  0.4360 -0.3944 -1.0834
    4MOL0     H  505  12.434   4.255   3.240 -0.2048 -1.4836  1.8552
    4MOL0     H  506  12.501   4.266   3.507  1.2805 -1.8294  0.0061
    4MOL0     H  507  12.617   4.255   3.380 -1.0935 -0.3909  1.7427
    4MOL0     H  508  12.657   4.447   3.545  0.4962  0.1644 -0.2325
    4MOL0     H  509  12.527   4.532   3.450 -0.7124  0.7481 -3.2496
    4MOL0     H  510  11.621   4.256   2.873  1.1037 -0.2156  0.4065
    4MOL0     H  511  11.405   4.138   2.927  0.4059  0.4957  0.7402
    4MOL0     H  512  11.107   3.921   2.971  3.4270 -1.9869  1.5382
    4MOL0     H  513  10.871   3.910   2.948 -1.3570 -0.9067  0.7032
    4MOL0     H  514   9.344   4.489   4.002 -0.6827  1.2628  1.0444
    4MOL0     H  515   9.215   4.697   4.043 -1.0765  2.8701 -0.1296
    4MOL0     H  516   9.327   5.291   3.764  0.0992  3.2268 -0.7922
    4MOL0     H  517   9.164   5.461   3.747 -0.5104  0.9491  1.5754
    4MOL0     H  518   8.826   5.608   3.773  0.1337  2.2059  0.0287
    4MOL0     H  519   8.955   5.511   3.703 -0.5307 -0.6192  0.3623
    4MOL0     H  520   9.104   5.657   3.823 -1.0168 -2.3167  0.5412
    4MOL0     H  521   9.025   5.729   3.674  0.8848  2.8881  0.7030
    4MOL0     H  522   8.865   5.855   3.797  0.7184 -3.1308 -1.4122
    4MOL0     H  523   9.029   5.917   3.800  2.6658 -2.0880  0.4445
    4MOL0     H  524   8.883   5.760   4.015 -0.1707  1.9839  0.9880
    4MOL0     H  525   9.057   5.796   4.018  0.9868  2.1474 -0.4538
    4MOL0     H  526   8.920   6.189   4.094 -1.1952 -0.4306 -0.1403
    4MOL0     H  527   8.921   5.285   4.049 -3.4499 -0.1201 -3.1338
    4MOL0     H  528   9.067   5.079   4.035  1.1963  1.0179 -0.2503
    5MOL0     O  529   5.260   1.191   0.056  0.2789  0.1307  0.1421
    5MOL0     C  530   5.281   1.284  -0.019 -0.0735  0.0470  0.3052
    5MOL0     O  531   5.188   1.343  -0.102 -0.8761 -0.2529 -0.0200
    5MOL0     C  532   5.065   1.308  -0.077  0.4294 -0.8452 -0.4703
    5MOL0     C  533   4.999   1.355   0.032 -0.2242 -0.0271 -0.3228
    5MOL0     C  534   4.871   1.314   0.060  0.4645 -0.3125  0.6640
    5MOL0     C  535   4.805   1.220  -0.020  0.5631  0.5875 -0.0400
    5MOL0     O  536   4.683   1.162   0.015  0.1801 -0.5439  0.0080
    5MOL0     C  537   4.650   1.165   0.155 -0.0620 -0.0016  1.0480
    5MOL0     C  538   4.532   1.074   0.168  0.6622 -0.3449 -0.0891
    5MOL0     C  539   4.406   1.117   0.083 -0.0375 -0.3266  0.4140
    5MOL0     C  540   4.271   1.088   0.159  1.1698  0.1729 -1.1087
    5MOL0     C  541   4.154   1.120   0.068 -0.0980  0.1548  0.1296
    5MOL0     C  542   4.015   1.154   0.134  0.5278 -0.2457 -0.2466
    5MOL0     C  543   3.917   1.036   0.166 -0.0821 -0.2920 -0.8913
    5MOL0     C  544   3.778   1.092   0.179  0.8235  0.2776 -0.1065
    5MOL0     N  545   3.710   1.148   0.052  0.4398 -0.5665  0.1476
    5MOL0     C  546   3.692   1.071  -0.063  1.0837  0.7898  0.3208
    5MOL0     C  547   3.611   1.140  -0.144 -0.1244  0.0476  0.0689
    5MOL0     C  548   3.577   1.092  -0.277 -0.1661 -0.1664  0.4760
    5MOL0     C  549   3.430   1.046  -0.275 -0.2643  0.3121  0.8260
    5MOL0     C  550   3.409   0.904  -0.232 -0.2770 -0.0631 -0.0774
    5MOL0     C  551   3.258   0.880  -0.201 -0.3253 -0.1238  0.1065
    5MOL0     O  552   3.234   0.733  -0.185  0.3122  0.0428 -0.4643
    5MOL0     C  553   3.100   0.695  -0.197 -0.2666  1.1621 -0.0220
    5MOL0     C  554   3.087   0.560  -0.210  0.6702  0.2340 -0.0162
    5MOL0     C  555   2.961   0.489  -0.210 -0.0709  0.0325  0.2443
    5MOL0     C  556   2.847   0.567  -0.210  0.2695 -0.2625  0.1347
    5MOL0     C  557   2.718   0.502  -0.202  0.1762  0.9466 -0.2593
    5MOL0     O  558   2.715   0.379  -0.163  0.1205 -0.2851  0.3100
    5MOL0     C  559   2.589   0.334  -0.157  0.9043 -0.1493 -0.4622
    5MOL0     C  560   2.529   0.264  -0.271 -0.9237  0.0178 -0.0569
    5MOL0     C  561   2.404   0.198  -0.257 -0.7488  0.3523  0.2454
    5MOL0     C  562   2.327   0.216  -0.133  0.1849  0.5644  0.6427
    5MOL0     O  563   2.213   0.155  -0.118  0.7602  0.8092 -0.5887
    5MOL0     C  564   2.222   0.011  -0.101  1.1131 -0.8303 -0.1312
    5MOL0     C  565   2.086  -0.044  -0.141  1.1325  0.5712  0.0445
    5MOL0     C  566   2.049  -0.031  -0.292 -0.9792  0.0170 -0.2641
    5MOL0     C  567   1.893  -0.032  -0.315 -0.0101  0.0874  0.6172
    5MOL0     C  568   1.849  -0.029  -0.454 -0.0482  1.0849  0.8500
    5MOL0     C  569   1.872   0.094  -0.527  0.9351 -0.1395 -0.2564
    5MOL0     C  570   1.764   0.100  -0.639 -0.2758  0.0918  0.2284
    5MOL0     C  571   1.780  -0.009  -0.750 -0.5754  0.4391 -0.5272
    5MOL0    Cl  572   1.663   0.048  -0.877 -0.1715 -0.7221 -0.5767
    5MOL0     C  573   2.376   0.310  -0.036  0.1331  0.6045 -0.2190
    5MOL0     C  574   2.498   0.359  -0.043  0.0847 -0.4746  0.6881
    5MOL0     O  575   2.622   0.569  -0.223  0.3232 -0.0510 -0.0006
    5MOL0     C  576   2.865   0.713  -0.209 -0.8934  0.5448  0.1192
    5MOL0     C  577   2.991   0.773  -0.206  0.2441  0.0163  0.9625
    5MOL0     N  578   3.592   1.265  -0.093  1.3640 -0.6141 -0.1867
    5MOL0     N  579   3.649   1.273   0.034 -0.1269  1.2446  0.9783
    5MOL0     C  580   4.873   1.178  -0.133  0.5420  0.2338  0.1638
    5MOL0     C  581   4.998   1.229  -0.169 -0.7211 -0.9103  0.4723
    5MOL0     C  582   5.419   1.317  -0.014 -0.3712 -0.2699 -1.0405
    5MOL0     C  583   5.523   1.239   0.047  0.5858  0.0916 -0.4127
    5MOL0     C  584   5.651   1.282   0.052 -0.1922 -0.6278  0.1456
    5MOL0     C  585   5.691   1.408   0.010  0.5547 -0.4594  0.1893
    5MOL0     O  586   5.818   1.451   0.014 -0.2996  0.0214 -0.0705
    5MOL0     C  587   5.924   1.371   0.073  0.3153  0.4067  0.7055
    5MOL0     C  588   6.045   1.461   0.066  0.2253 -0.1290 -0.0242
    5MOL0     C  589   6.033   1.569   0.174 -1.0067  0.0142 -0.1444
    5MOL0     C  590   6.151   1.669   0.181 -0.6738 -0.6049 -0.6348
    5MOL0     C  591   6.125   1.777   0.274  0.4105  0.6730  0.2992
    5MOL0     C  592   6.098   1.867   0.343  1.1472  0.2471  0.5824
    5MOL0     C  593   5.596   1.480  -0.059 -0.0700 -0.5215 -0.5428
    5MOL0     C  594   5.470   1.436  -0.067 -0.2211 -0.7305 -1.6913
    5MOL0     H  595   5.059   1.415   0.100 -0.5113 -2.2853  2.0601
    5MOL0     H  596   4.815   1.332   0.151 -1.3815  0.5797 -0.5903
    5MOL0     H  597   4.632   1.267   0.190 -1.5402  0.9588 -2.1576
    5MOL0     H  598   4.734   1.116   0.205  0.3171  0.0033  0.4185
    5MOL0     H  599   4.498   1.080   0.272  0.0562  0.2483 -0.3143
    5MOL0     H  600   4.554   0.969   0.146  0.4739  0.3002 -4.0327
    5MOL0     H  601   4.406   1.087  -0.022 -1.0068  0.1399  0.2654
    5MOL0     H  602   4.421   1.225   0.072  2.0744 -0.6837 -0.8129
    5MOL0     H  603   4.257   0.983   0.185 -0.4371  0.4408 -0.7997
    5MOL0     H  604   4.262   1.146   0.251 -1.2942 -0.1414 -1.0705
    5MOL0     H  605   4.132   1.032   0.007  0.0265 -0.9999  1.7092
    5MOL0     H  606   4.189   1.195  -0.004 -1.5873  1.5245  0.7841
    5MOL0     H  607   3.955   1.224   0.076 -3.7044 -0.8153  2.9563
    5MOL0     H  608   4.042   1.210   0.224  0.2933  1.0176 -0.9391
    5MOL0     H  609   3.929   0.950   0.098  2.5360  0.2010 -1.1556
    5MOL0     H  610   3.938   1.004   0.268 -3.8573 -0.3717  0.0253
    5MOL0     H  611   3.780   1.174   0.251 -0.0008 -0.2666  0.5528
    5MOL0     H  612   3.711   1.015   0.218  3.6407 -3.0866 -1.4227
    5MOL0     H  613   3.731   0.972  -0.082 -0.0077  0.1709  1.1909
    5MOL0     H  614   3.646   1.011  -0.303 -1.4684 -1.5807  1.2731
    5MOL0     H  615   3.585   1.178  -0.344  2.6912  1.0791  2.2429
    5MOL0     H  616   3.384   1.059  -0.373  0.7120  3.7333  0.7089
    5MOL0     H  617   3.387   1.115  -0.202  1.0402 -2.9677  5.1323
    5MOL0     H  618   3.441   0.837  -0.312  3.3536  0.6800  0.5883
    5MOL0     H  619   3.465   0.872  -0.143  2.2969  1.8816 -0.8819
    5MOL0     H  620   3.193   0.917  -0.280  3.1167  0.0881 -2.9064
    5MOL0     H  621   3.236   0.936  -0.109  0.0765 -0.3692  0.3561
    5MOL0     H  622   3.173   0.494  -0.213  2.1076  1.9027  1.8291
    5MOL0     H  623   2.960   0.382  -0.222 -0.1240  0.2301 -2.1290
    5MOL0     H  624   2.593   0.254  -0.358  0.7339 -1.6600  1.2568
    5MOL0     H  625   2.365   0.150  -0.347  3.4833  0.4543 -1.8942
    5MOL0     H  626   2.246  -0.019   0.002 -0.6173 -0.1591  0.5037
    5MOL0     H  627   2.293  -0.032  -0.172  2.3509 -0.6436  0.9612
    5MOL0     H  628   2.006   0.006  -0.087  2.6158  0.4671  2.4768
    5MOL0     H  629   2.091  -0.151  -0.117  2.6390  0.8514  1.1317
    5MOL0     H  630   2.111  -0.102  -0.348 -2.2272 -0.1421 -1.4759
    5MOL0     H  631   2.087   0.069  -0.317 -1.9619 -0.1553 -2.7076
    5MOL0     H  632   1.846  -0.115  -0.262 -2.4677  2.2163  2.0040
    5MOL0     H  633   1.856   0.056  -0.260  0.4181  2.5962 -2.7519
    5MOL0     H  634   1.742  -0.050  -0.450 -0.1006  1.1554  0.0339
    5MOL0     H  635   1.897  -0.116  -0.499 -0.8702 -0.5307  2.9259
    5MOL0     H  636   1.973   0.106  -0.566  0.0633 -1.9336 -3.3881
    5MOL0     H  637   1.852   0.181  -0.463 -0.3095  0.2503 -1.1354
    5MOL0     H  638   1.661   0.090  -0.603 -0.3832 -1.7413 -0.4806
    5MOL0     H  639   1.767   0.196  -0.692 -0.7568 -0.2671 -0.4605
    5MOL0     H  640   1.771  -0.112  -0.715  2.9897 -0.0490 -0.6293
    5MOL0     H  641   1.880   0.007  -0.791  0.8963  0.8120  2.8624
    5MOL0     H  642   2.320   0.325   0.056 -1.3088  0.1397 -0.9927
    5MOL0     H  643   2.540   0.417   0.039 -1.0944 -0.7963  1.5403
    5MOL0     H  644   2.767   0.761  -0.205 -2.4693 -2.2310 -1.9832
    5MOL0     H  645   2.990   0.881  -0.202 -3.5273  0.3578 -2.4751
    5MOL0     H  646   4.819   1.105  -0.192  1.1582 -0.0771 -0.0212
    5MOL0     H  647   5.051   1.193  -0.256 -0.4235 -0.6666  0.5504
    5MOL0     H  648   5.494   1.139   0.077 -1.2769  0.7552  0.1471
    5MOL0     H  649   5.709   1.200   0.095 -1.3361 -2.0906 -0.9938
    5MOL0     H  650   5.943   1.275   0.023  2.1451  0.6666  0.8252
    5MOL0     H  651   5.887   1.344   0.172 -1.4760  1.7387  0.4612
    5MOL0     H  652   6.132   1.396   0.079  0.7581 -0.3393 -3.5518
    5MOL0     H  653   6.061   1.505  -0.033 -2.2392 -0.7110 -0.7554
    5MOL0     H  654   6.029   1.523   0.274  0.6244 -2.6312 -1.1727
    5MOL0     H  655   5.943   1.626   0.151 -0.4502 -0.0341 -2.7693
    5MOL0     H  656   6.242   1.615   0.211 -0.5455 -0.9123 -1.5421
    5MOL0     H  657   6.169   1.715   0.083 -2.2932  0.6810 -0.3645
    5MOL0     H  658   6.071   1.943   0.414  0.7377 -0.6139  1.3862
    5MOL0     H  659   5.625   1.575  -0.102 -1.8378  0.0265 -0.5662
    5MOL0     H  660   5.402   1.505  -0.116  1.1408  0.8044 -1.4983
    6MOL0     O  661   8.155   6.787   2.613  0.0857 -0.4598 -0.1877
    6MOL0     C  662   8.205   6.759   2.720  0.5867  0.1836  0.9308
    6MOL0     O  663   8.175   6.645   2.789  0.5882 -0.4271 -0.2713
    6MOL0     C  664   8.063   6.573   2.766  0.4997  0.1928  0.6597
    6MOL0     C  665   7.940   6.644   2.781 -0.0462  0.4972 -0.0247
    6MOL0     C  666   7.823   6.571   2.748  0.8482  1.4054 -0.4449
    6MOL0     C  667   7.831   6.433   2.716 -0.3643 -0.1478 -0.0737
    6MOL0     O  668   7.729   6.349   2.693  0.7397 -0.2561  0.0026
    6MOL0     C  669   7.708   6.239   2.788  0.5236 -0.2662  0.2707
    6MOL0     C  670   7.611   6.139   2.741  0.4654  0.3081 -0.4085
    6MOL0     C  671   7.662   6.067   2.622 -0.2497  0.2922 -0.6368
    6MOL0     C  672   7.546   5.976   2.571 -0.0520 -0.5928 -0.4947
    6MOL0     C  673   7.566   5.945   2.426  0.1095  0.8825  0.4089
    6MOL0     C  674   7.447   5.853   2.382  0.3976  1.1650 -1.1037
    6MOL0     C  675   7.314   5.926   2.386 -0.2848 -1.1564  0.1805
    6MOL0     C  676   7.220   5.883   2.274 -0.4655 -0.4725  0.0439
    6MOL0     N  677   7.081   5.924   2.288  0.3795 -0.3963 -0.1779
    6MOL0     C  678   7.038   6.053   2.266  0.5649 -0.3661  0.2003
    6MOL0     C  679   6.904   6.044   2.265 -0.0630  0.2765 -0.0861
    6MOL0     C  680   6.816   6.162   2.231 -0.2412 -0.6034 -0.0224
    6MOL0     C  681   6.674   6.113   2.183  0.3051  0.1271 -0.3581
    6MOL0     C  682   6.549   6.087   2.275 -0.0653  0.7542 -0.0632
    6MOL0     C  683   6.488   6.211   2.331 -0.7987  0.2171  0.2445
    6MOL0     O  684   6.408   6.182   2.439 -0.0131 -0.1211 -0.2923
    6MOL0     C  685   6.274   6.164   2.418  0.9155 -0.8134  0.2654
    6MOL0     C  686   6.204   6.169   2.294  1.5318 -0.5178  0.0435
    6MOL0     C  687   6.065   6.142   2.281 -0.4106  0.6642 -0.5909
    6MOL0     C  688   5.985   6.125   2.398 -0.0458 -0.3278  0.4585
    6MOL0     C  689   5.835   6.107   2.392  0.4813 -0.7240  0.3966
    6MOL0     O  690   5.776   6.097   2.276  1.4289  0.4333 -0.7092
    6MOL0     C  691   5.639   6.112   2.270 -0.2598 -0.6129 -0.1416
    6MOL0     C  692   5.555   6.020   2.329  0.7565 -0.2704  0.6875
    6MOL0     C  693   5.416   6.037   2.310 -0.2108 -0.2829 -0.4058
    6MOL0     C  694   5.366   6.145   2.233 -0.3935 -0.3724 -0.9383
    6MOL0     O  695   5.235   6.168   2.211  0.3274  0.1955 -1.1180
    6MOL0     C  696   5.144   6.058   2.238  0.5063  1.1515  0.4877
    6MOL0     C  697   5.002   6.106   2.197  0.3595 -0.5049 -0.7737
    6MOL0     C  698   4.953   6.222   2.290 -0.1599  0.4857  0.4580
    6MOL0     C  699   4.899   6.174   2.428  0.8914 -0.5196  0.2088
    6MOL0     C  700   4.828   6.285   2.501  1.8133 -0.2613 -0.3416
    6MOL0     C  701   4.756   6.234   2.630  0.5706 -0.0969  0.2396
    6MOL0     C  702   4.630   6.150   2.599  0.1902  0.7103 -0.4475
    6MOL0     C  703   4.570   6.093   2.732 -1.2863  0.0706 -1.2653
    6MOL0    Cl  704   4.442   5.964   2.709 -0.1851 -0.1668 -0.1435
    6MOL0     C  705   5.456   6.230   2.168 -0.0054  0.5382 -0.0899
    6MOL0     C  706   5.594   6.218   2.191 -0.7291 -0.2334 -0.0586
    6MOL0     O  707   5.780   6.080   2.501 -0.5973 -0.6274  0.6910
    6MOL0     C  708   6.048   6.132   2.521  0.0105 -0.1916  0.3663
    6MOL0     C  709   6.186   6.142   2.529  0.4641 -0.4892  0.2074
    6MOL0     N  710   6.868   5.917   2.294 -0.0701  0.0310  0.3471
    6MOL0     N  711   6.975   5.840   2.303 -0.4312 -0.1339  0.0326
    6MOL0     C  712   7.956   6.378   2.692  0.1632 -0.4878 -0.6089
    6MOL0     C  713   8.072   6.443   2.721 -0.4026  0.0131 -0.2852
    6MOL0     C  714   8.305   6.849   2.776 -0.4246 -1.1466 -0.4494
    6MOL0     C  715   8.354   6.968   2.715 -0.6173 -0.1097 -0.1666
    6MOL0     C  716   8.442   7.045   2.782  0.4509  0.0031  0.6575
    6MOL0     C  717   8.509   7.002   2.904  1.1608  0.7592 -0.0429
    6MOL0     O  718   8.613   7.074   2.959  0.7491  0.1163 -0.3632
    6MOL0     C  719   8.723   7.127   2.882  0.6162 -0.4097 -0.2791
    6MOL0     C  720   8.826   7.217   2.949 -0.4198 -0.3116 -0.3424
    6MOL0     C  721   8.763   7.362   2.966 -0.7901  0.8667 -0.4382
    6MOL0     C  722   8.849   7.464   2.894  0.3004 -0.2050  0.9826
    6MOL0     C  723   8.983   7.456   2.942 -1.5048 -0.0335  1.7818
    6MOL0     C  724   9.087   7.448   3.007  0.8653 -0.2983 -1.2137
    6MOL0     C  725   8.457   6.883   2.963 -0.7061 -0.8173  0.7189
    6MOL0     C  726   8.364   6.807   2.899  0.3604 -0.0538  0.3743
    6MOL0     H  727   7.944   6.751   2.797 -1.0343  0.4021  0.9486
    6MOL0     H  728   7.728   6.622   2.759 -0.6912 -1.4116  0.3478
    6MOL0     H  729   7.675   6.276   2.885 -2.5298 -1.7490 -0.0607
    6MOL0     H  730   7.802   6.184   2.797  2.2035  1.8303 -2.6665
    6MOL0     H  731   7.515   6.189   2.724  0.3152  0.9447  1.9304
    6MOL0     H  732   7.585   6.067   2.819  1.1920  1.0922  0.5701
    6MOL0     H  733   7.749   6.006   2.649 -1.1327 -1.5104 -1.6517
    6MOL0     H  734   7.695   6.129   2.538  0.3223 -1.1312 -1.5134
    6MOL0     H  735   7.544   5.894   2.642  0.6779 -0.1721  0.0258
    6MOL0     H  736   7.444   6.015   2.582 -0.2615 -1.0464 -0.7942
    6MOL0     H  737   7.661   5.892   2.417 -0.9348 -1.3940  1.9321
    6MOL0     H  738   7.581   6.028   2.357 -0.7176 -1.0167 -2.2267
    6MOL0     H  739   7.442   5.765   2.446  1.8441  2.1664  0.4994
    6MOL0     H  740   7.454   5.820   2.278 -0.7071  0.5921 -1.0080
    6MOL0     H  741   7.256   5.920   2.479 -1.4424  3.0609 -0.0814
    6MOL0     H  742   7.342   6.031   2.375  5.6934 -2.0649  2.6894
    6MOL0     H  743   7.228   5.775   2.263  0.2890 -0.3705 -0.4592
    6MOL0     H  744   7.258   5.918   2.178 -0.6023 -0.9801 -0.1965
    6MOL0     H  745   7.107   6.135   2.247  1.2180 -1.1404 -0.9268
    6MOL0     H  746   6.867   6.213   2.149 -0.5918 -0.4524 -0.1463
    6MOL0     H  747   6.820   6.223   2.321  0.2300 -0.6176 -0.0336
    6MOL0     H  748   6.695   6.019   2.130 -1.1181 -0.9408  0.8989
    6MOL0     H  749   6.648   6.188   2.107  3.6976  0.8863 -0.9493
    6MOL0     H  750   6.474   6.025   2.226  0.7679 -0.0782 -0.3078
    6MOL0     H  751   6.587   6.030   2.361  0.0189  0.1353 -0.5083
    6MOL0     H  752   6.455   6.278   2.251  4.1401  1.5830 -0.9900
    6MOL0     H  753   6.569   6.258   2.387  1.0793 -0.6682 -1.6171
    6MOL0     H  754   6.246   6.198   2.198 -1.9811  1.9815 -0.9376
    6MOL0     H  755   6.026   6.132   2.180 -0.8689  3.1203 -0.7192
    6MOL0     H  756   5.589   5.945   2.399 -1.7013  1.0418  3.5513
    6MOL0     H  757   5.354   5.961   2.358  1.4865 -1.5491 -0.1342
    6MOL0     H  758   5.135   6.035   2.345 -3.1553 -1.8326 -0.2412
    6MOL0     H  759   5.155   5.971   2.173 -0.2716  1.5579 -0.1967
    6MOL0     H  760   4.924   6.032   2.182 -2.5156  2.4608 -1.6881
    6MOL0     H  761   5.025   6.154   2.101  3.2972 -0.2725 -0.0642
    6MOL0     H  762   4.874   6.278   2.238 -0.0076 -1.3250 -1.8690
    6MOL0     H  763   5.035   6.294   2.297  1.6648 -0.7819 -4.2178
    6MOL0     H  764   4.831   6.090   2.410  1.2820 -0.5010 -1.5330
    6MOL0     H  765   4.981   6.137   2.490  0.8568  0.8025  1.0847
    6MOL0     H  766   4.755   6.326   2.432 -0.0040 -0.6066  1.3035
    6MOL0     H  767   4.906   6.361   2.507  1.9252 -0.0560 -3.1307
    6MOL0     H  768   4.726   6.325   2.683 -0.6621  0.2612 -1.0275
    6MOL0     H  769   4.829   6.171   2.681 -0.6024 -3.5414 -2.0488
    6MOL0     H  770   4.552   6.218   2.563 -0.8216  2.5943  4.4664
    6MOL0     H  771   4.636   6.065   2.531 -1.6268  1.3814 -1.5217
    6MOL0     H  772   4.535   6.172   2.799 -1.6372 -0.4702 -0.8059
    6MOL0     H  773   4.657   6.045   2.776 -0.0337  0.6792 -2.9570
    6MOL0     H  774   5.425   6.307   2.097 -0.2009  0.1975 -0.3786
    6MOL0     H  775   5.657   6.279   2.127 -0.4237  1.7473  2.0110
    6MOL0     H  776   5.993   6.130   2.615 -1.4322  1.3229 -0.4092
    6MOL0     H  777   6.227   6.152   2.629  0.3150  1.3261  0.1170
    6MOL0     H  778   7.957   6.272   2.665 -0.9321 -0.6206 -0.1862
    6MOL0     H  779   8.166   6.392   2.705 -1.2395 -0.7165 -3.5814
    6MOL0     H  780   8.316   6.999   2.618  2.9250 -0.6633 -1.8734
    6MOL0     H  781   8.470   7.139   2.735  0.4919 -1.8187 -3.3127
    6MOL0     H  782   8.672   7.184   2.804  0.5293  0.6748  0.5589
    6MOL0     H  783   8.779   7.047   2.832  1.1426  1.5517 -3.0717
    6MOL0     H  784   8.840   7.165   3.044 -0.8158 -3.1637 -1.7318
    6MOL0     H  785   8.925   7.211   2.903 -0.7937  2.9123 -1.8497
    6MOL0     H  786   8.751   7.394   3.070  0.9357  1.4080 -0.3862
    6MOL0     H  787   8.658   7.364   2.936 -0.3600  5.1068 -2.3582
    6MOL0     H  788   8.848   7.471   2.785  1.1373 -1.5821  0.8674
    6MOL0     H  789   8.815   7.564   2.924  0.9575  0.5683 -0.7137
    6MOL0     H  790   9.181   7.432   3.055 -0.7840 -1.9294  1.7952
    6MOL0     H  791   8.507   6.851   3.054 -0.5912 -0.9637  0.6044
    6MOL0     H  792   8.332   6.715   2.947 -0.3970  1.6481  3.3501
    7MOL0     O  793   6.724   3.917   8.940 -0.3614  0.6377 -0.4942
    7MOL0     C  794   6.787   3.810   8.943 -0.4030 -0.7589 -0.1369
    7MOL0     O  795   6.730   3.685   8.925 -0.0904 -0.5585  0.1505
    7MOL0     C  796   6.597   3.677   8.915  0.2448 -0.1830 -0.3465
    7MOL0     C  797   6.546   3.637   8.790 -0.1190  0.7932 -0.6161
    7MOL0     C  798   6.410   3.634   8.775 -0.1008  0.5751 -0.1251
    7MOL0     C  799   6.325   3.660   8.881  0.4911  0.6584 -0.3362
    7MOL0     O  800   6.189   3.654   8.857 -0.7398  0.0226 -0.4965
    7MOL0     C  801   6.141   3.525   8.830  1.3753  1.6063  0.1240
    7MOL0     C  802   5.984   3.551   8.777 -0.5972 -0.5692 -0.0112
    7MOL0     C  803   5.911   3.424   8.742 -0.8369 -0.8167  0.2646
    7MOL0     C  804   5.764   3.453   8.703 -0.9273 -0.1122  0.3924
    7MOL0     C  805   5.662   3.362   8.768 -0.1742  0.0340  0.0308
    7MOL0     C  806   5.520   3.409   8.735  0.2552 -0.6647  0.9533
    7MOL0     C  807   5.410   3.355   8.820  0.1413  1.1036 -0.5875
    7MOL0     C  808   5.386   3.200   8.792 -0.0368  0.2777 -0.2435
    7MOL0     N  809   5.343   3.176   8.649 -0.1106  0.3596  1.0428
    7MOL0     C  810   5.217   3.135   8.616 -1.0570  0.6245  0.0750
    7MOL0     C  811   5.229   3.094   8.482 -0.1315 -0.0521 -1.0070
    7MOL0     C  812   5.129   3.023   8.398  0.3506  0.5551 -0.3697
    7MOL0     C  813   5.052   3.135   8.330 -0.5120 -0.8211 -0.4808
    7MOL0     C  814   4.916   3.097   8.263 -0.6864 -0.2705  0.1725
    7MOL0     C  815   4.812   3.047   8.370  0.3306 -0.7452 -0.1510
    7MOL0     O  816   4.700   2.999   8.294 -0.0979  0.1184  0.8499
    7MOL0     C  817   4.585   2.946   8.345  0.3088  0.1445  0.0912
    7MOL0     C  818   4.571   2.913   8.476 -0.0314  0.5558  0.5934
    7MOL0     C  819   4.444   2.896   8.520  0.0204  1.0207 -0.4998
    7MOL0     C  820   4.333   2.864   8.436  0.9524  0.4645 -0.7128
    7MOL0     C  821   4.207   2.818   8.479 -0.4809 -0.3054 -0.3784
    7MOL0     O  822   4.170   2.818   8.610 -1.0359  0.6158  0.3837
    7MOL0     C  823   4.072   2.729   8.653 -0.3314  0.4158 -0.5842
    7MOL0     C  824   4.093   2.672   8.776  0.5645  0.2593 -0.4438
    7MOL0     C  825   3.996   2.580   8.829  0.2137 -1.2378 -0.2113
    7MOL0     C  826   3.876   2.561   8.769  0.1473 -0.0747  0.0174
    7MOL0     O  827   3.779   2.472   8.816  0.0894  0.4311 -0.9435
    7MOL0     C  828   3.801   2.376   8.915 -0.8974  0.3566 -0.2310
    7MOL0     C  829   3.690   2.277   8.923  0.5385 -0.2564  0.5478
    7MOL0     C  830   3.552   2.351   8.940  1.2133 -0.5724  0.5013
    7MOL0     C  831   3.438   2.269   9.008 -0.8778 -0.5415  0.9119
    7MOL0     C  832   3.327   2.358   9.077  0.3114 -0.3915  0.1815
    7MOL0     C  833   3.225   2.427   8.972 -0.5290  0.5457  0.0044
    7MOL0     C  834   3.133   2.306   8.926 -0.5263  0.2999  0.3535
    7MOL0     C  835   2.993   2.354   8.883  0.2605 -1.0066 -0.8693
    7MOL0    Cl  836   2.907   2.439   9.021 -0.4068 -0.0932  0.1536
    7MOL0     C  837   3.845   2.630   8.654  0.2696 -0.5183 -0.4860
    7MOL0     C  838   3.942   2.719   8.607  1.3457 -0.5605  1.0321
    7MOL0     O  839   4.141   2.763   8.395 -0.1364 -0.5509 -0.3513
    7MOL0     C  840   4.344   2.894   8.300  0.3208 -0.0865 -0.7287
    7MOL0     C  841   4.473   2.933   8.254  1.0027  0.6712 -0.0562
    7MOL0     N  842   5.367   3.103   8.446  0.3212 -0.5122 -0.4492
    7MOL0     N  843   5.431   3.153   8.546  0.5073  0.6102  0.9116
    7MOL0     C  844   6.372   3.701   9.003  0.5183  0.1318  0.2041
    7MOL0     C  845   6.511   3.706   9.020 -0.2188  0.1366 -0.5506
    7MOL0     C  846   6.929   3.822   8.940  0.5528 -0.1855  0.4564
    7MOL0     C  847   7.000   3.940   8.926  1.1044 -0.5954 -0.5868
    7MOL0     C  848   7.140   3.942   8.927  1.2333  0.5618  0.5810
    7MOL0     C  849   7.218   3.831   8.937  0.4713  0.3701 -0.3837
    7MOL0     O  850   7.358   3.852   8.933 -0.1582  0.3094 -0.0500
    7MOL0     C  851   7.449   3.739   8.919  0.4391 -0.6086  0.3665
    7MOL0     C  852   7.424   3.684   8.779  0.5592  0.1952  0.2726
    7MOL0     C  853   7.514   3.561   8.749  0.0422 -1.1164 -0.0684
    7MOL0     C  854   7.524   3.508   8.599 -0.1141  0.2819  0.6004
    7MOL0     C  855   7.563   3.367   8.605 -0.3644  0.8126  0.2222
    7MOL0     C  856   7.601   3.248   8.618 -0.1892 -0.6751 -0.0043
    7MOL0     C  857   7.147   3.714   8.957  0.3557  0.9627 -0.0014
    7MOL0     C  858   7.008   3.704   8.962  0.0740  0.0947 -0.0849
    7MOL0     H  859   6.610   3.597   8.712  1.5732 -0.3882  1.2979
    7MOL0     H  860   6.372   3.590   8.684  2.3103 -1.7538 -0.1194
    7MOL0     H  861   6.144   3.468   8.923  0.6008 -2.8149 -2.2743
    7MOL0     H  862   6.204   3.479   8.753  0.2799 -0.9130  0.6329
    7MOL0     H  863   5.993   3.621   8.693  1.4072 -0.8156 -0.0704
    7MOL0     H  864   5.928   3.598   8.859  0.6779  0.4551  0.3251
    7MOL0     H  865   5.907   3.366   8.835  1.3983 -2.2543 -0.4498
    7MOL0     H  866   5.962   3.374   8.659 -2.1462  0.9450 -1.7090
    7MOL0     H  867   5.740   3.550   8.749  2.2511 -0.4548  3.1345
    7MOL0     H  868   5.751   3.449   8.595 -0.2849 -1.5269  0.3479
    7MOL0     H  869   5.655   3.361   8.877 -2.9545 -1.9055 -0.0626
    7MOL0     H  870   5.676   3.258   8.736 -2.8031  0.1525 -1.7771
    7MOL0     H  871   5.499   3.386   8.630 -2.0019  0.2381  1.1528
    7MOL0     H  872   5.516   3.518   8.730 -0.4832 -0.5822  2.5657
    7MOL0     H  873   5.430   3.376   8.926 -0.1405  0.5071 -0.4136
    7MOL0     H  874   5.316   3.410   8.809  1.2733  3.4150  0.6235
    7MOL0     H  875   5.303   3.163   8.855 -1.8854  0.2980 -2.5337
    7MOL0     H  876   5.471   3.134   8.812 -1.2135 -1.5585 -1.0544
    7MOL0     H  877   5.125   3.128   8.674 -0.4844 -2.9844  0.8207
    7MOL0     H  878   5.062   2.962   8.458 -1.0541  0.3363 -2.0840
    7MOL0     H  879   5.197   2.965   8.334 -1.3936 -0.9553 -0.9251
    7MOL0     H  880   5.116   3.177   8.252 -1.0779 -2.0611 -1.6549
    7MOL0     H  881   5.018   3.208   8.404 -3.2242 -0.7545 -1.6547
    7MOL0     H  882   4.880   3.176   8.196 -0.2060  0.8058  1.1489
    7MOL0     H  883   4.943   3.018   8.192  2.4342  2.5508 -2.1067
    7MOL0     H  884   4.783   3.135   8.428 -0.6874  0.6029 -2.5662
    7MOL0     H  885   4.852   2.974   8.441 -1.2371  0.7108  2.3377
    7MOL0     H  886   4.653   2.904   8.546 -0.8032 -2.9079  1.2363
    7MOL0     H  887   4.425   2.866   8.623  0.2372 -1.6710 -1.1650
    7MOL0     H  888   4.184   2.659   8.834 -0.0787  0.2430  0.5925
    7MOL0     H  889   4.015   2.543   8.930 -0.7831  1.9144  1.2612
    7MOL0     H  890   3.803   2.426   9.012  0.1387 -0.4994  0.2065
    7MOL0     H  891   3.900   2.331   8.903 -0.4124  1.1730  0.6063
    7MOL0     H  892   3.704   2.214   9.011  0.0742  2.1773  2.4799
    7MOL0     H  893   3.689   2.213   8.834 -2.6968  1.9645 -1.2495
    7MOL0     H  894   3.512   2.402   8.852 -0.2460  1.3425  2.1823
    7MOL0     H  895   3.566   2.431   9.012  0.3381 -0.5755  0.6834
    7MOL0     H  896   3.395   2.196   8.939 -1.0441 -2.4790  2.9607
    7MOL0     H  897   3.486   2.208   9.085  0.6706  1.2727  1.4507
    7MOL0     H  898   3.371   2.437   9.138 -0.0177  0.0464 -0.1402
    7MOL0     H  899   3.278   2.291   9.148 -0.0928 -0.9195 -0.5843
    7MOL0     H  900   3.287   2.470   8.893 -0.1535  0.7690  0.4148
    7MOL0     H  901   3.166   2.502   9.027 -0.2119  1.3022 -0.6774
    7MOL0     H  902   3.184   2.250   8.847  1.2634  1.2848  0.7543
    7MOL0     H  903   3.121   2.232   9.007 -0.0356 -1.3329 -1.0024
    7MOL0     H  904   2.926   2.270   8.862  1.5905 -1.6350 -2.8984
    7MOL0     H  905   3.006   2.417   8.794 -0.3889  1.5839  0.7467
    7MOL0     H  906   3.742   2.619   8.621 -1.1614  0.5063  3.2085
    7MOL0     H  907   3.909   2.764   8.514  2.8887 -2.5521 -0.5637
    7MOL0     H  908   4.263   2.874   8.230  0.7637 -1.4092 -0.8849
    7MOL0     H  909   4.495   2.935   8.148  1.3080 -2.0955 -0.1334
    7MOL0     H  910   6.305   3.745   9.077  0.8262 -0.9514  1.1551
    7MOL0     H  911   6.553   3.740   9.114 -2.8019  0.1855  0.6799
    7MOL0     H  912   6.952   4.035   8.907  2.3911  0.2818  0.4322
    7MOL0     H  913   7.185   4.041   8.927 -0.0874  1.2130 -0.7007
    7MOL0     H  914   7.426   3.653   8.982 -1.3405 -1.1087 -0.8936
    7MOL0     H  915   7.549   3.783   8.922 -1.0341  3.1646 -0.1907
    7MOL0     H  916   7.326   3.638   8.766  1.6341 -2.6147  1.4244
    7MOL0     H  917   7.445   3.766   8.710 -2.5941  0.6594 -0.2588
    7MOL0     H  918   7.462   3.486   8.810 -0.3021 -0.5756  0.3152
    7MOL0     H  919   7.615   3.575   8.788 -0.5553 -1.7853  1.8390
    7MOL0     H  920   7.428   3.518   8.547  0.5143 -2.7263 -1.3546
    7MOL0     H  921   7.596   3.573   8.549  0.4139 -0.6102  0.1879
    7MOL0     H  922   7.622   3.149   8.655 -3.1512 -1.7289 -0.8665
    7MOL0     H  923   7.204   3.623   8.976 -0.5554  0.5129  0.6472
    7MOL0     H  924   6.959   3.610   8.984 -0.3764  0.0478 -1.2138
    8MOL0     O  925   0.803   9.691   2.684  0.0563  0.3825 -0.2219
    8MOL0     C  926   0.841   9.659   2.797 -0.2948  0.2906  0.6473
    8MOL0     O  927   0.952   9.712   2.859  0.2581  0.9366 -0.1201
    8MOL0     C  928   1.038   9.784   2.789 -0.0174 -0.5553  0.2688
    8MOL0     C  929   1.119   9.733   2.694 -0.8387  0.6419  1.2634
    8MOL0     C  930   1.210   9.810   2.617 -0.7845 -0.9558 -0.3164
    8MOL0     C  931   1.220   9.947   2.642  0.1370 -0.7701 -0.5937
    8MOL0     O  932   1.317  10.009   2.578 -0.2285  0.5656  0.8743
    8MOL0     C  933   1.270  10.149   2.541  0.1494  0.4675 -0.7618
    8MOL0     C  934   1.144  10.141   2.444 -0.2018  0.4101  0.4178
    8MOL0     C  935   1.177  10.079   2.305  0.2946 -0.7040  0.9941
    8MOL0     C  936   1.103  10.167   2.191  0.1615  0.0023  0.2373
    8MOL0     C  937   1.152  10.141   2.046  0.4214 -0.1396  0.0689
    8MOL0     C  938   1.094  10.222   1.933  0.1054  0.5810  0.3154
    8MOL0     C  939   1.175  10.200   1.807 -0.1087 -0.2661 -0.3838
    8MOL0     C  940   1.092  10.243   1.683 -0.5349  1.4964  0.1467
    8MOL0     N  941   0.963  10.178   1.653 -0.0428  0.6167 -0.2202
    8MOL0     C  942   0.925  10.039   1.652  0.7832 -0.1109 -0.8137
    8MOL0     C  943   0.789  10.032   1.651 -0.0917 -0.9831 -0.3939
    8MOL0     C  944   0.702   9.908   1.675 -0.1578  0.2160 -0.2495
    8MOL0     C  945   0.680   9.892   1.826 -0.6131  0.0131 -0.2365
    8MOL0     C  946   0.795   9.817   1.895 -0.0968  0.4496  1.1567
    8MOL0     C  947   0.747   9.801   2.047  0.5913  0.3473 -0.4031
    8MOL0     O  948   0.605   9.760   2.065 -0.9028 -0.2227  0.0327
    8MOL0     C  949   0.576   9.680   2.169 -0.4824 -0.1863 -0.3674
    8MOL0     C  950   0.437   9.676   2.190 -0.3950 -0.1594  0.7051
    8MOL0     C  951   0.378   9.600   2.291  0.8879  0.4757  0.2710
    8MOL0     C  952   0.454   9.545   2.386 -0.0723  0.2293  0.2899
    8MOL0     C  953   0.387   9.488   2.504  0.1691 -0.7393 -0.2343
    8MOL0     O  954   0.248   9.510   2.515 -0.5278 -0.5738  0.6517
    8MOL0     C  955   0.186   9.449   2.623  0.8384 -1.1716  0.2974
    8MOL0     C  956   0.181   9.503   2.751 -0.1549 -0.6008 -0.9251
    8MOL0     C  957   0.137   9.426   2.856  0.1526 -0.4404  0.2410
    8MOL0     C  958   0.100   9.294   2.833 -0.0872 -0.0361 -0.9036
    8MOL0     O  959   0.059   9.231   2.945  0.3847 -0.1432 -0.8798
    8MOL0     C  960  -0.043   9.124   2.949  0.1065  0.1110  0.3083
    8MOL0     C  961  -0.061   9.087   3.099  0.9179 -0.1314 -1.3131
    8MOL0     C  962  -0.137   9.202   3.180  0.7573 -0.0617 -0.5391
    8MOL0     C  963  -0.041   9.313   3.230 -0.0223 -0.9031  0.1398
    8MOL0     C  964  -0.131   9.410   3.308  0.1518 -0.2940  0.3301
    8MOL0     C  965  -0.086   9.562   3.281 -0.5608 -0.2320  0.3851
    8MOL0     C  966  -0.201   9.656   3.315  0.5851 -0.2544 -0.2134
    8MOL0     C  967  -0.237   9.649   3.456  0.2552  0.9093 -0.4923
    8MOL0    Cl  968  -0.374   9.769   3.464 -0.1711  0.3898  0.3069
    8MOL0     C  969   0.103   9.244   2.699 -0.9684 -0.2895  0.2225
    8MOL0     C  970   0.140   9.325   2.596  0.5148  0.7284 -0.6197
    8MOL0     O  971   0.447   9.435   2.597  0.4843 -0.2069 -0.0584
    8MOL0     C  972   0.601   9.557   2.377 -0.9032  0.3635  0.2276
    8MOL0     C  973   0.659   9.631   2.274  0.4482  0.7423  0.5602
    8MOL0     N  974   0.738  10.165   1.650 -0.6546 -0.0295 -0.1475
    8MOL0     N  975   0.842  10.244   1.659  0.0825  0.4566 -0.2360
    8MOL0     C  976   1.143  10.000   2.754 -0.4271 -0.1467 -1.2429
    8MOL0     C  977   1.055   9.913   2.825  0.1921 -0.0707 -0.3244
    8MOL0     C  978   0.740   9.584   2.881 -0.2251  0.2294 -0.0120
    8MOL0     C  979   0.785   9.540   3.010 -0.3281 -0.1936 -0.0898
    8MOL0     C  980   0.706   9.456   3.084 -0.7472  0.0920 -0.0811
    8MOL0     C  981   0.587   9.408   3.038  0.4347  0.7363  0.0317
    8MOL0     O  982   0.534   9.301   3.110 -0.0808 -0.1744  0.5808
    8MOL0     C  983   0.400   9.257   3.090 -0.4389  0.5488  0.0113
    8MOL0     C  984   0.373   9.149   3.196 -0.0459 -0.0302  0.5240
    8MOL0     C  985   0.426   9.013   3.145  0.0277 -0.3710 -0.0311
    8MOL0     C  986   0.432   8.894   3.250 -0.2108 -0.2781  0.4204
    8MOL0     C  987   0.294   8.874   3.322  0.1000 -0.6599 -0.4164
    8MOL0     C  988   0.203   8.836   3.389  1.0709 -0.6548  0.2283
    8MOL0     C  989   0.537   9.458   2.920  0.4909  0.2942  0.7925
    8MOL0     C  990   0.610   9.546   2.842 -0.0599 -0.5016  0.2809
    8MOL0     H  991   1.123   9.628   2.666  0.9545  0.7473  0.9786
    8MOL0     H  992   1.275   9.775   2.538 -0.8907 -1.8611 -0.0070
    8MOL0     H  993   1.352  10.201   2.490  2.5050 -0.7152  1.5673
    8MOL0     H  994   1.252  10.211   2.629 -1.3483 -0.2010 -0.5618
    8MOL0     H  995   1.094  10.237   2.433 -0.2183  0.0594 -4.6475
    8MOL0     H  996   1.065  10.077   2.485  0.6316 -0.3043  0.9559
    8MOL0     H  997   1.156   9.972   2.306 -1.4948 -0.4062 -0.1019
    8MOL0     H  998   1.282  10.093   2.280 -0.5128  0.5685 -2.2329
    8MOL0     H  999   0.996  10.154   2.205  0.1672 -0.4554 -0.1285
    8MOL0     H 1000   1.126  10.271   2.219 -0.9099  0.2576  0.2086
    8MOL0     H 1001   1.117  10.041   2.019  0.1587 -0.2104  0.6614
    8MOL0     H 1002   1.260  10.152   2.040  0.1848  2.2585 -0.6117
    8MOL0     H 1003   1.084  10.330   1.947 -1.1800  0.6847 -1.0982
    8MOL0     H 1004   0.990  10.191   1.918  0.5187  0.4693 -3.1300
    8MOL0     H 1005   1.261  10.266   1.822 -1.7280  1.9377 -0.3815
    8MOL0     H 1006   1.201  10.094   1.803  1.6007  0.1349 -0.6389
    8MOL0     H 1007   1.167  10.231   1.605  2.1291  1.8631  2.5087
    8MOL0     H 1008   1.084  10.352   1.695 -2.9299  1.1147  3.3600
    8MOL0     H 1009   0.984   9.948   1.659 -0.5258 -0.9385 -0.1342
    8MOL0     H 1010   0.746   9.814   1.643 -0.7295  0.5518 -2.1034
    8MOL0     H 1011   0.605   9.922   1.626 -2.1567 -1.2978  2.9730
    8MOL0     H 1012   0.597   9.822   1.816  0.0015 -0.8760  0.6678
    8MOL0     H 1013   0.649   9.980   1.884  0.2980  1.1200 -1.3817
    8MOL0     H 1014   0.792   9.715   1.854 -3.0404  0.4232  1.1680
    8MOL0     H 1015   0.892   9.864   1.881 -2.0169  3.6872 -4.6889
    8MOL0     H 1016   0.744   9.899   2.094 -0.0547 -0.3671  1.1130
    8MOL0     H 1017   0.822   9.743   2.103  0.2372 -1.0471 -1.3150
    8MOL0     H 1018   0.374   9.738   2.126 -0.0679  0.8601  1.3410
    8MOL0     H 1019   0.269   9.593   2.289  0.7085  2.4204  1.0017
    8MOL0     H 1020   0.211   9.604   2.776 -2.2462  0.4027 -2.1974
    8MOL0     H 1021   0.148   9.472   2.953  1.6643  0.2990 -0.2383
    8MOL0     H 1022  -0.021   9.039   2.884  0.2408  3.2127 -4.1391
    8MOL0     H 1023  -0.136   9.168   2.913  0.8302  2.5729  1.1771
    8MOL0     H 1024   0.031   9.071   3.155 -0.2319  2.1370  1.4507
    8MOL0     H 1025  -0.123   8.997   3.098  0.1227  0.3573  0.5230
    8MOL0     H 1026  -0.170   9.149   3.270  0.0721 -1.0578 -1.3542
    8MOL0     H 1027  -0.225   9.236   3.126  0.8161 -1.3356 -1.4971
    8MOL0     H 1028   0.036   9.274   3.298  0.7382  0.2496 -0.0263
    8MOL0     H 1029   0.014   9.360   3.148  1.8388 -0.3565  1.6193
    8MOL0     H 1030  -0.138   9.384   3.413 -0.2398 -0.8136  0.1787
    8MOL0     H 1031  -0.235   9.403   3.274  0.0818  4.3300 -1.0610
    8MOL0     H 1032  -0.057   9.579   3.177  3.3354 -2.0714  1.0222
    8MOL0     H 1033   0.001   9.581   3.344  0.0034  1.4297 -0.8242
    8MOL0     H 1034  -0.170   9.757   3.287 -0.3946 -0.2503 -1.3593
    8MOL0     H 1035  -0.290   9.640   3.253 -1.4335  0.7372  2.2560
    8MOL0     H 1036  -0.145   9.679   3.506  0.1407  3.0211 -1.4309
    8MOL0     H 1037  -0.265   9.549   3.490 -1.1474  1.0265 -1.2176
    8MOL0     H 1038   0.057   9.148   2.677  0.6344 -0.6335 -1.9703
    8MOL0     H 1039   0.148   9.299   2.491  2.0361  0.2668 -0.4082
    8MOL0     H 1040   0.658   9.513   2.459  1.0024  2.3525  0.0633
    8MOL0     H 1041   0.767   9.625   2.263  0.5469  2.8580  0.0777
    8MOL0     H 1042   1.161  10.101   2.791  1.0130 -1.1953  1.1075
    8MOL0     H 1043   0.998   9.946   2.912  2.3387  0.3985  0.9833
    8MOL0     H 1044   0.881   9.570   3.052 -0.6139  1.5508 -0.5858
    8MOL0     H 1045   0.745   9.404   3.171 -1.5282 -4.6320 -2.2872
    8MOL0     H 1046   0.382   9.216   2.990 -2.1057 -2.3582  1.3886
    8MOL0     H 1047   0.333   9.343   3.105 -1.1247  0.2821 -1.3154
    8MOL0     H 1048   0.407   9.185   3.294  0.5116 -1.7743  1.0036
    8MOL0     H 1049   0.264   9.145   3.205  0.0714 -1.0707  1.7732
    8MOL0     H 1050   0.521   9.031   3.093  0.3374 -1.3387  0.1710
    8MOL0     H 1051   0.357   8.970   3.071  0.4368  1.6826 -1.7122
    8MOL0     H 1052   0.470   8.806   3.197 -2.1711 -0.3528 -0.9676
    8MOL0     H 1053   0.504   8.913   3.329  0.1916  1.0550 -0.2239
    8MOL0     H 1054   0.112   8.795   3.428 -0.4444  1.7855 -0.5252
    8MOL0     H 1055   0.439   9.425   2.888  0.6307 -2.0765  2.5545
    8MOL0     H 1056   0.555   9.584   2.757 -0.5324 -0.7393  0.4749
    9MOL0     O 1057   5.048   6.935   8.774  0.6452 -0.2007  0.2321
    9MOL0     C 1058   5.047   6.832   8.839 -0.4851 -0.0716  0.2992
    9MOL0     O 1059   4.942   6.779   8.907  0.8413  0.0500 -0.5612
    9MOL0     C 1060   4.824   6.845   8.918  0.5448 -0.0224 -0.1989
    9MOL0     C 1061   4.774   6.863   9.043 -0.2064 -0.8069 -0.2126
    9MOL0     C 1062   4.660   6.947   9.059 -0.4161  0.3008 -0.1871
    9MOL0     C 1063   4.581   6.991   8.948  0.2651  0.2634 -0.2230
    9MOL0     O 1064   4.462   7.055   8.963 -0.1139 -0.4963 -0.8832
    9MOL0     C 1065   4.353   6.961   9.000  0.0282  0.7943  0.5930
    9MOL0     C 1066   4.235   7.036   9.053 -0.2864  0.2465 -0.2451
    9MOL0     C 1067   4.143   7.106   8.951  0.2222  0.2470 -0.3172
    9MOL0     C 1068   4.048   7.202   9.005  0.5725 -0.3008  0.7923
    9MOL0     C 1069   4.047   7.344   8.934  0.2330  0.1044 -0.0991
    9MOL0     C 1070   3.982   7.440   9.037 -0.0485  0.3461 -0.2152
    9MOL0     C 1071   3.954   7.577   8.982  0.0553  0.4385  1.1130
    9MOL0     C 1072   3.911   7.690   9.074 -0.7095 -0.0633  0.5049
    9MOL0     N 1073   3.779   7.674   9.099  0.1287  0.1738  0.7243
    9MOL0     C 1074   3.676   7.699   9.010 -1.0351 -0.0090  0.1096
    9MOL0     C 1075   3.569   7.672   9.075  0.3921  0.2027  0.5561
    9MOL0     C 1076   3.423   7.701   9.032  1.3616 -0.1225  0.5002
    9MOL0     C 1077   3.370   7.670   8.884 -0.2365  0.8910 -0.4814
    9MOL0     C 1078   3.220   7.673   8.881  0.1316  0.1328 -0.6019
    9MOL0     C 1079   3.174   7.716   8.750  0.7075  0.6200  0.7805
    9MOL0     O 1080   3.044   7.778   8.753  0.8338  0.5430  0.9087
    9MOL0     C 1081   2.929   7.709   8.772 -0.2015  0.7685 -1.1254
    9MOL0     C 1082   2.810   7.766   8.789  0.4631  0.3492 -0.6927
    9MOL0     C 1083   2.688   7.697   8.801  0.8901  0.1089  0.1208
    9MOL0     C 1084   2.686   7.555   8.808  1.0894  0.2773  0.9591
    9MOL0     C 1085   2.567   7.472   8.848  0.4169  0.5519  0.8990
    9MOL0     O 1086   2.463   7.532   8.905 -0.3284  1.0133 -0.5098
    9MOL0     C 1087   2.371   7.445   8.953  0.6420 -1.0268  0.2165
    9MOL0     C 1088   2.394   7.356   9.058 -0.1611 -0.2957 -0.3096
    9MOL0     C 1089   2.281   7.283   9.103 -0.0284 -1.0241 -0.4237
    9MOL0     C 1090   2.156   7.284   9.042 -0.0914 -0.2496 -0.5242
    9MOL0     O 1091   2.053   7.210   9.098  0.3526  0.0290  0.5285
    9MOL0     C 1092   1.951   7.167   9.005  0.2758 -0.4784 -0.1070
    9MOL0     C 1093   1.817   7.101   9.064 -0.2373  0.4194 -0.3746
    9MOL0     C 1094   1.843   6.945   9.100 -0.3014  0.1767  0.5345
    9MOL0     C 1095   1.863   6.859   8.976 -0.6236  0.7837 -0.1836
    9MOL0     C 1096   1.841   6.705   8.978  0.8935 -0.9408 -0.3223
    9MOL0     C 1097   1.947   6.631   8.902 -0.4165  0.5235  0.0630
    9MOL0     C 1098   1.934   6.482   8.933 -0.1744  0.0168 -1.1737
    9MOL0     C 1099   1.816   6.416   8.867 -0.7521  1.3014 -0.1678
    9MOL0    Cl 1100   1.650   6.442   8.907 -0.5178  0.2175 -0.0335
    9MOL0     C 1101   2.138   7.379   8.934  0.5529  0.2750 -0.9059
    9MOL0     C 1102   2.244   7.454   8.889 -0.4860  0.2071 -0.9469
    9MOL0     O 1103   2.573   7.352   8.828 -0.1956  0.2559  0.4639
    9MOL0     C 1104   2.798   7.491   8.777 -0.1251  0.2491  0.9220
    9MOL0     C 1105   2.922   7.563   8.764  0.7637  0.1314  0.0084
    9MOL0     N 1106   3.601   7.627   9.197  0.0467  0.2669 -0.1301
    9MOL0     N 1107   3.727   7.635   9.213  0.0792  0.3987 -0.2216
    9MOL0     C 1108   4.629   6.958   8.815  0.7254 -0.5813 -0.5271
    9MOL0     C 1109   4.753   6.890   8.805  1.2298  0.1244  0.7553
    9MOL0     C 1110   5.185   6.774   8.847  0.1576 -0.1560  0.1372
    9MOL0     C 1111   5.206   6.667   8.937  0.3344  0.3089  0.3340
    9MOL0     C 1112   5.330   6.611   8.956  0.2285  0.2027 -0.5281
    9MOL0     C 1113   5.441   6.642   8.873  0.4266  0.7062  0.4899
    9MOL0     O 1114   5.565   6.570   8.889 -0.3167 -0.1191 -0.3998
    9MOL0     C 1115   5.678   6.614   8.819 -0.0200 -0.4952 -0.2926
    9MOL0     C 1116   5.806   6.521   8.823 -0.2963 -0.3285  0.1481
    9MOL0     C 1117   5.909   6.566   8.706 -0.0387 -0.5010 -0.2921
    9MOL0     C 1118   5.989   6.695   8.753  0.3913  0.4208  0.8810
    9MOL0     C 1119   6.111   6.668   8.829 -0.9123 -0.1152 -0.0411
    9MOL0     C 1120   6.209   6.651   8.898 -0.9445 -0.2669 -0.3400
    9MOL0     C 1121   5.416   6.749   8.785  0.3284 -0.5510  0.1134
    9MOL0     C 1122   5.291   6.811   8.773  0.6668  0.5961  0.4328
    9MOL0     H 1123   4.836   6.849   9.131  1.4155  2.5434 -0.6456
    9MOL0     H 1124   4.624   6.980   9.156 -0.5340  2.7223 -0.9820
    9MOL0     H 1125   4.384   6.889   9.077 -4.4328  0.0495  2.0029
    9MOL0     H 1126   4.316   6.914   8.908 -0.2134  1.6391  0.2551
    9MOL0     H 1127   4.269   7.108   9.128 -1.1732 -0.3837  0.7832
    9MOL0     H 1128   4.177   6.969   9.116  0.3285  0.1765  0.2550
    9MOL0     H 1129   4.089   7.021   8.908  1.2145 -0.9169  0.6335
    9MOL0     H 1130   4.208   7.147   8.872  0.0642 -0.0420 -0.6013
    9MOL0     H 1131   3.943   7.174   9.022  1.2897 -1.6811  3.4232
    9MOL0     H 1132   4.083   7.226   9.106 -0.4545  0.9414  0.8877
    9MOL0     H 1133   3.988   7.364   8.844 -1.6085  3.2342  1.6183
    9MOL0     H 1134   4.147   7.375   8.902 -0.4825  0.4117 -2.2444
    9MOL0     H 1135   4.051   7.436   9.122 -1.2948 -1.0140  0.7813
    9MOL0     H 1136   3.888   7.393   9.066  0.2753 -1.1157 -1.4109
    9MOL0     H 1137   4.046   7.609   8.933  1.5957 -3.9295  0.7403
    9MOL0     H 1138   3.878   7.558   8.906  0.3099 -0.4462  1.0704
    9MOL0     H 1139   3.933   7.784   9.023 -0.9580  0.1349  0.7639
    9MOL0     H 1140   3.964   7.672   9.168 -1.2720 -1.2656  0.6139
    9MOL0     H 1141   3.680   7.741   8.910 -0.3207 -0.5360 -0.0878
    9MOL0     H 1142   3.398   7.807   9.040 -1.1039  0.0454 -5.0697
    9MOL0     H 1143   3.349   7.658   9.101  2.6577  0.2248  2.1587
    9MOL0     H 1144   3.396   7.565   8.868  1.2180  1.0740  0.4598
    9MOL0     H 1145   3.431   7.735   8.820 -0.2979  1.0173 -0.4120
    9MOL0     H 1146   3.191   7.573   8.914  2.9682 -0.3836  0.6560
    9MOL0     H 1147   3.185   7.748   8.953  1.2198  0.9255 -0.8721
    9MOL0     H 1148   3.190   7.641   8.672  1.6978  2.4377 -0.8775
    9MOL0     H 1149   3.241   7.792   8.710  2.9088 -0.3077  2.5064
    9MOL0     H 1150   2.808   7.874   8.787  0.4258  0.3467 -0.8061
    9MOL0     H 1151   2.590   7.744   8.809  0.8846  0.6346 -2.2877
    9MOL0     H 1152   2.488   7.352   9.112  1.7543 -3.1317 -3.4843
    9MOL0     H 1153   2.297   7.217   9.188 -0.3311 -1.4977 -0.7324
    9MOL0     H 1154   1.998   7.093   8.939 -1.3672 -3.1477  1.5339
    9MOL0     H 1155   1.914   7.243   8.935  2.4137 -0.0968 -0.9068
    9MOL0     H 1156   1.730   7.094   8.998  0.6773 -2.3213 -1.4203
    9MOL0     H 1157   1.787   7.164   9.148 -1.2461 -0.2069 -0.2537
    9MOL0     H 1158   1.758   6.909   9.158  0.2035 -3.1109 -0.5077
    9MOL0     H 1159   1.929   6.929   9.166  2.2896 -0.7337 -2.7870
    9MOL0     H 1160   1.801   6.898   8.895 -0.7156  0.8596 -0.0774
    9MOL0     H 1161   1.968   6.870   8.946 -0.0977 -3.0510 -0.2616
    9MOL0     H 1162   1.744   6.683   8.933  1.0047 -0.1922 -0.9375
    9MOL0     H 1163   1.844   6.665   9.080  0.3836  2.1142  0.9925
    9MOL0     H 1164   2.045   6.670   8.931  0.5470 -1.4609 -0.3631
    9MOL0     H 1165   1.945   6.646   8.794 -2.5169  0.5579  0.0612
    9MOL0     H 1166   2.025   6.442   8.887 -0.0969  0.4085 -1.3606
    9MOL0     H 1167   1.950   6.456   9.038  2.0058 -0.0850 -1.4748
    9MOL0     H 1168   1.833   6.311   8.892  1.6660  2.0221  1.5503
    9MOL0     H 1169   1.836   6.426   8.760 -1.2831  0.8476 -0.3097
    9MOL0     H 1170   2.040   7.397   8.891 -0.3222  0.1381  0.9538
    9MOL0     H 1171   2.250   7.517   8.801  3.1119  2.5118  0.6789
    9MOL0     H 1172   2.800   7.383   8.771  0.3397  0.3016 -0.3299
    9MOL0     H 1173   3.008   7.501   8.742 -0.3783 -1.8318  0.7925
    9MOL0     H 1174   4.567   6.991   8.732 -1.2683 -1.8373  0.3714
    9MOL0     H 1175   4.789   6.859   8.707 -0.5532  1.7159 -0.4720
    9MOL0     H 1176   5.121   6.640   8.998 -0.3003  1.8702  0.1906
    9MOL0     H 1177   5.328   6.535   9.033 -0.6852  0.7890  0.0403
    9MOL0     H 1178   5.706   6.711   8.859 -1.1706  0.1578 -1.0298
    9MOL0     H 1179   5.657   6.631   8.713 -2.3072  1.4028  0.3883
    9MOL0     H 1180   5.845   6.526   8.925  1.3780  0.8101 -0.4991
    9MOL0     H 1181   5.761   6.427   8.790  0.0675 -0.5412  0.2528
    9MOL0     H 1182   5.855   6.583   8.612 -1.7698  0.6523  0.8561
    9MOL0     H 1183   5.968   6.481   8.670  2.7039  1.7872 -1.6021
    9MOL0     H 1184   6.006   6.757   8.665  1.6876  1.6731  1.9754
    9MOL0     H 1185   5.919   6.752   8.814 -0.7038 -0.2705  0.3074
    9MOL0     H 1186   6.290   6.620   8.961 -1.9354 -0.1878  0.9938
    9MOL0     H 1187   5.507   6.783   8.736  0.3515 -1.1802 -0.3018
    9MOL0     H 1188   5.276   6.894   8.703  0.3638  0.6475  0.5562
   10MOL0     O 1189   0.807   1.276   7.677  0.1802  0.4104 -0.0560
   10MOL0     C 1190   0.835   1.258   7.793 -0.7083 -0.4361  0.1001
   10MOL0     O 1191   0.825   1.140   7.860  0.1857 -0.7071 -0.2152
   10MOL0     C 1192   0.789   1.028   7.807 -0.8923  0.6904 -0.0140
   10MOL0     C 1193   0.835   0.980   7.675  0.1553 -0.1071 -0.5579
   10MOL0     C 1194   0.799   0.853   7.622  0.1713  0.0381  0.3786
   10MOL0     C 1195   0.725   0.769   7.707  0.1062 -1.1115  1.1473
   10MOL0     O 1196   0.688   0.650   7.656 -0.0319 -0.5847  0.7854
   10MOL0     C 1197   0.794   0.564   7.622  0.1230 -0.8399  0.2020
   10MOL0     C 1198   0.743   0.421   7.624  0.8787  0.4858  0.2014
   10MOL0     C 1199   0.693   0.371   7.763 -0.2576  0.5098 -0.4066
   10MOL0     C 1200   0.545   0.371   7.780  1.1557  0.4171 -0.1862
   10MOL0     C 1201   0.502   0.312   7.914  0.0039 -1.0779 -0.2628
   10MOL0     C 1202   0.352   0.337   7.924  0.0502 -0.6028  0.4065
   10MOL0     C 1203   0.256   0.263   7.828  0.3941 -0.0465 -0.6561
   10MOL0     C 1204   0.247   0.108   7.853 -0.0788  0.1171 -0.0746
   10MOL0     N 1205   0.157   0.072   7.968  0.7747  0.1889  0.4265
   10MOL0     C 1206   0.025   0.098   7.973 -0.0322 -0.2775  0.3864
   10MOL0     C 1207  -0.013   0.018   8.073  1.2474  0.1286 -0.9826
   10MOL0     C 1208  -0.158  -0.008   8.109 -0.0383  0.7748 -0.9446
   10MOL0     C 1209  -0.181  -0.061   8.249  0.2871 -0.3530 -0.7653
   10MOL0     C 1210  -0.333  -0.096   8.262 -0.8072 -0.3258  0.6069
   10MOL0     C 1211  -0.351  -0.232   8.209  0.0772  0.2438 -0.3762
   10MOL0     O 1212  -0.474  -0.294   8.253  0.3078 -0.0143 -0.7228
   10MOL0     C 1213  -0.593  -0.219   8.237  0.2160  0.7183  0.2795
   10MOL0     C 1214  -0.620  -0.127   8.137 -0.2195  0.3999  0.0404
   10MOL0     C 1215  -0.742  -0.053   8.132 -0.3841 -0.3911  0.2781
   10MOL0     C 1216  -0.848  -0.091   8.209  1.1121 -0.2237  0.1403
   10MOL0     C 1217  -0.985  -0.029   8.187 -0.4169  0.3720  0.2812
   10MOL0     O 1218  -1.088  -0.089   8.265  0.2867 -0.3590  0.6817
   10MOL0     C 1219  -1.214  -0.027   8.256 -0.2213  0.9331 -0.4381
   10MOL0     C 1220  -1.249   0.074   8.347  0.6183 -0.2350  0.1191
   10MOL0     C 1221  -1.379   0.134   8.324 -0.4635 -0.4407  0.1012
   10MOL0     C 1222  -1.458   0.101   8.219  0.1053  0.7007  1.0157
   10MOL0     O 1223  -1.581   0.161   8.186 -1.0244  0.3982 -0.2922
   10MOL0     C 1224  -1.633   0.257   8.277 -0.4980 -0.1433 -1.2434
   10MOL0     C 1225  -1.616   0.396   8.224 -0.0337 -0.1544  0.9520
   10MOL0     C 1226  -1.626   0.426   8.074 -0.0505  0.1161 -0.4193
   10MOL0     C 1227  -1.673   0.561   8.026  0.1063 -0.4370  1.0483
   10MOL0     C 1228  -1.820   0.574   8.040 -0.0232 -0.0144 -0.1263
   10MOL0     C 1229  -1.851   0.702   7.958  0.0356  0.2790  0.2055
   10MOL0     C 1230  -1.997   0.754   7.963  0.0346  0.0164  0.2479
   10MOL0     C 1231  -2.018   0.860   8.073  0.0613  0.6680  0.3620
   10MOL0    Cl 1232  -1.942   1.016   8.041  0.0328  0.0165  0.1839
   10MOL0     C 1233  -1.426   0.001   8.131 -0.1683  0.3337  0.0677
   10MOL0     C 1234  -1.296  -0.056   8.151  0.1507 -0.4625  0.0765
   10MOL0     O 1235  -1.002   0.063   8.109 -0.4735  0.2404 -0.1112
   10MOL0     C 1236  -0.828  -0.190   8.308 -0.3725 -0.7033  0.3123
   10MOL0     C 1237  -0.706  -0.255   8.318 -1.0684 -0.0264 -0.6023
   10MOL0     N 1238   0.090  -0.045   8.139  0.6015 -0.0678  0.0853
   10MOL0     N 1239   0.195  -0.001   8.078 -0.1904 -0.6591 -0.4546
   10MOL0     C 1240   0.701   0.806   7.832  0.8284  0.7082 -0.0432
   10MOL0     C 1241   0.720   0.941   7.891 -0.0777  0.6012 -0.1732
   10MOL0     C 1242   0.889   1.371   7.876 -0.9548  0.4840  0.4761
   10MOL0     C 1243   0.925   1.364   8.007  0.1177 -0.4267  0.2755
   10MOL0     C 1244   0.972   1.474   8.076  0.8085  0.5853 -0.9517
   10MOL0     C 1245   0.984   1.598   8.010 -0.1222 -1.3317  0.6186
   10MOL0     O 1246   1.035   1.711   8.072 -0.1273 -1.0467 -0.0690
   10MOL0     C 1247   1.124   1.698   8.181 -0.0209 -0.0683  0.4490
   10MOL0     C 1248   1.227   1.814   8.178 -0.1701 -0.7065  0.1550
   10MOL0     C 1249   1.248   1.875   8.323  0.0573  0.9736  0.6581
   10MOL0     C 1250   1.350   1.980   8.319 -0.4461 -1.0016  0.3754
   10MOL0     C 1251   1.288   2.111   8.299 -1.1983  0.5823 -0.2754
   10MOL0     C 1252   1.254   2.214   8.272  1.1090 -0.0173  0.0177
   10MOL0     C 1253   0.964   1.608   7.871 -0.2878  0.2303  0.2942
   10MOL0     C 1254   0.923   1.496   7.802  0.0433  0.2533 -0.0864
   10MOL0     H 1255   0.897   1.048   7.616 -1.1420  1.5906 -0.0559
   10MOL0     H 1256   0.834   0.824   7.523  0.3085  1.4417 -0.0128
   10MOL0     H 1257   0.873   0.574   7.698  0.6479 -0.8363 -0.3367
   10MOL0     H 1258   0.829   0.599   7.524 -2.4301  0.7798 -0.2061
   10MOL0     H 1259   0.819   0.352   7.587  0.4466  0.3593 -0.4917
   10MOL0     H 1260   0.653   0.416   7.561  1.5491  2.5191 -1.0261
   10MOL0     H 1261   0.733   0.441   7.838  2.1304 -1.1888  0.0354
   10MOL0     H 1262   0.730   0.270   7.781 -2.5121 -0.4911 -1.0561
   10MOL0     H 1263   0.491   0.466   7.774 -4.7399 -2.2561  2.4195
   10MOL0     H 1264   0.499   0.317   7.697  0.7241  0.5613 -0.0419
   10MOL0     H 1265   0.553   0.368   7.993 -2.2413 -0.6288  0.9684
   10MOL0     H 1266   0.527   0.206   7.905 -2.2816 -1.5274 -2.7577
   10MOL0     H 1267   0.340   0.445   7.936  1.9328 -0.2775 -0.3236
   10MOL0     H 1268   0.336   0.300   8.026  1.1326  0.0523  0.8367
   10MOL0     H 1269   0.155   0.305   7.837  0.0809 -0.8159 -0.4895
   10MOL0     H 1270   0.299   0.275   7.728  2.6965  3.9874  0.5704
   10MOL0     H 1271   0.347   0.080   7.888  0.1416  0.0867 -0.7230
   10MOL0     H 1272   0.224   0.048   7.765 -2.2903 -0.8322  1.0517
   10MOL0     H 1273  -0.053   0.143   7.911 -1.0047 -0.3841  1.5014
   10MOL0     H 1274  -0.186  -0.085   8.037  3.2638  1.0841 -2.7374
   10MOL0     H 1275  -0.214   0.083   8.084  1.8943  1.3854 -3.4709
   10MOL0     H 1276  -0.163   0.027   8.312 -1.5027  0.7002 -1.6469
   10MOL0     H 1277  -0.107  -0.138   8.272  1.1186  0.2590 -1.3276
   10MOL0     H 1278  -0.361  -0.101   8.368  0.3944 -0.6304  0.9240
   10MOL0     H 1279  -0.384  -0.014   8.210  0.8321  2.3936  2.9372
   10MOL0     H 1280  -0.271  -0.293   8.253 -1.0537  0.5131  2.2565
   10MOL0     H 1281  -0.349  -0.224   8.100  0.1626  0.0396 -0.3919
   10MOL0     H 1282  -0.541  -0.116   8.063  1.3960  0.4261  1.6985
   10MOL0     H 1283  -0.747   0.024   8.056  0.3111 -1.4681 -0.9170
   10MOL0     H 1284  -1.188   0.104   8.432 -0.4951  0.9452  0.5214
   10MOL0     H 1285  -1.406   0.217   8.389  1.2529 -1.0336  1.6314
   10MOL0     H 1286  -1.586   0.251   8.376  1.7268  3.1474 -1.9656
   10MOL0     H 1287  -1.739   0.238   8.299 -0.5023  0.0374 -1.1022
   10MOL0     H 1288  -1.514   0.426   8.246 -0.1977  2.1385 -1.1046
   10MOL0     H 1289  -1.681   0.463   8.282 -0.5336  2.2154 -2.1193
   10MOL0     H 1290  -1.702   0.355   8.037  0.7659 -0.2716 -1.3874
   10MOL0     H 1291  -1.532   0.388   8.035 -1.6212 -4.4805 -0.3865
   10MOL0     H 1292  -1.616   0.641   8.075  2.8678 -0.4101 -1.8894
   10MOL0     H 1293  -1.651   0.555   7.919  2.0438 -2.5343  1.4808
   10MOL0     H 1294  -1.846   0.579   8.147 -0.1337 -2.4543  0.0215
   10MOL0     H 1295  -1.858   0.486   7.987  0.9852 -0.4331 -0.1744
   10MOL0     H 1296  -1.831   0.682   7.853 -0.8572  1.9221 -0.3048
   10MOL0     H 1297  -1.795   0.790   7.991 -0.6454  0.9044 -0.3152
   10MOL0     H 1298  -2.018   0.809   7.872 -3.3826 -0.8267  0.3931
   10MOL0     H 1299  -2.065   0.668   7.965 -0.0065 -0.0398 -1.8260
   10MOL0     H 1300  -1.985   0.820   8.170 -2.4113 -1.8853  0.2756
   10MOL0     H 1301  -2.127   0.868   8.077 -0.0816 -0.6993 -0.3734
   10MOL0     H 1302  -1.487  -0.032   8.048 -1.0742  0.3921  0.6887
   10MOL0     H 1303  -1.257  -0.142   8.097  3.0202 -1.7350  3.7158
   10MOL0     H 1304  -0.907  -0.199   8.382 -2.2714  1.8284 -1.2437
   10MOL0     H 1305  -0.688  -0.334   8.391 -0.8783 -0.6251 -1.2791
   10MOL0     H 1306   0.668   0.721   7.891  2.7812 -0.7625 -0.9687
   10MOL0     H 1307   0.697   0.959   7.995 -0.6126  0.2813 -0.2306
   10MOL0     H 1308   0.898   1.274   8.061 -1.9336  0.9658  1.7525
   10MOL0     H 1309   1.004   1.464   8.179  1.1544 -1.8835 -1.2312
   10MOL0     H 1310   1.184   1.607   8.195  0.8618  0.7718  2.5976
   10MOL0     H 1311   1.058   1.714   8.266 -0.4134 -2.5408  0.6967
   10MOL0     H 1312   1.322   1.775   8.140 -0.3803 -2.2860  1.1709
   10MOL0     H 1313   1.194   1.897   8.115 -0.9281 -1.8941 -1.0745
   10MOL0     H 1314   1.282   1.792   8.386 -1.1950 -0.6890 -0.7362
   10MOL0     H 1315   1.147   1.906   8.352 -0.3184  1.6528 -1.2553
   10MOL0     H 1316   1.407   1.983   8.411  0.9887 -0.9626 -0.4925
   10MOL0     H 1317   1.427   1.957   8.245 -0.8709  0.3072 -0.5082
   10MOL0     H 1318   1.228   2.309   8.229 -1.6960 -0.2433  1.0133
   10MOL0     H 1319   1.012   1.693   7.824  0.6280  0.0098  0.7860
   10MOL0     H 1320   0.902   1.503   7.696 -1.1850 -1.0232  0.0434
   11MOL0     O 1321   4.155   0.440   2.592 -0.3405  0.5923  0.1785
   11MOL0     C 1322   4.230   0.348   2.632 -0.0026 -0.1006 -0.7432
   11MOL0     O 1323   4.188   0.219   2.642 -0.5559  0.5914  0.2521
   11MOL0     C 1324   4.090   0.180   2.556 -0.2873  0.4682  0.0509
   11MOL0     C 1325   3.958   0.234   2.571 -0.7111  0.4177  0.9322
   11MOL0     C 1326   3.852   0.177   2.502  0.3084  0.0889  0.4568
   11MOL0     C 1327   3.882   0.065   2.419  1.1401 -0.4804 -0.4990
   11MOL0     O 1328   3.774  -0.009   2.370  0.1770  0.4506  0.4110
   11MOL0     C 1329   3.729   0.037   2.239  1.1050 -0.7472 -0.3982
   11MOL0     C 1330   3.579   0.035   2.238  0.0140 -0.6156  0.2505
   11MOL0     C 1331   3.514  -0.099   2.261  0.1709  0.1099 -0.3108
   11MOL0     C 1332   3.370  -0.086   2.259  0.1534  0.3780  0.0781
   11MOL0     C 1333   3.300  -0.202   2.326 -0.3453  0.0912 -0.6984
   11MOL0     C 1334   3.143  -0.202   2.311  0.8458  0.4445 -0.0312
   11MOL0     C 1335   3.104  -0.338   2.365 -0.1855  0.7661 -0.1467
   11MOL0     C 1336   3.107  -0.362   2.518  0.1402 -0.3952  0.2753
   11MOL0     N 1337   2.979  -0.340   2.586 -0.5954  0.3984 -0.1221
   11MOL0     C 1338   2.960  -0.262   2.691 -0.2971 -1.0224  0.0369
   11MOL0     C 1339   2.832  -0.273   2.725 -0.1330 -1.1492 -0.0461
   11MOL0     C 1340   2.760  -0.212   2.845  0.5535  0.1712  0.4308
   11MOL0     C 1341   2.628  -0.144   2.812 -0.2972  0.0140  0.4773
   11MOL0     C 1342   2.652   0.003   2.768 -0.7091  0.0371  0.0870
   11MOL0     C 1343   2.517   0.053   2.729  1.1272  0.4053 -0.4780
   11MOL0     O 1344   2.464  -0.030   2.621 -0.5570 -0.4293  0.5098
   11MOL0     C 1345   2.325  -0.058   2.613 -0.4333  1.0054 -0.6844
   11MOL0     C 1346   2.280  -0.180   2.559 -0.6970  0.7321 -0.1255
   11MOL0     C 1347   2.141  -0.194   2.548 -1.4321 -0.3159  0.1775
   11MOL0     C 1348   2.044  -0.091   2.579 -0.5633  0.0849  0.2399
   11MOL0     C 1349   1.903  -0.116   2.574  0.5863 -0.0915  0.4711
   11MOL0     O 1350   1.824  -0.011   2.617 -0.3967  0.2585  0.3249
   11MOL0     C 1351   1.688   0.002   2.627 -0.1055  0.3554 -0.4040
   11MOL0     C 1352   1.640   0.130   2.647  0.8364 -1.3878  0.7886
   11MOL0     C 1353   1.505   0.157   2.672  0.1916 -0.1698 -0.3423
   11MOL0     C 1354   1.419   0.048   2.702  0.7793  0.2208  0.0220
   11MOL0     O 1355   1.292   0.072   2.756 -0.3633 -0.1381 -0.3881
   11MOL0     C 1356   1.185   0.070   2.662  0.0340  0.0406  0.1602
   11MOL0     C 1357   1.191   0.180   2.553  0.3414 -0.3334 -0.6152
   11MOL0     C 1358   1.046   0.211   2.502  0.2362  0.2855 -0.6924
   11MOL0     C 1359   1.052   0.322   2.398 -0.1030 -0.7231  0.1667
   11MOL0     C 1360   0.912   0.367   2.355  0.1915 -0.1082  0.8023
   11MOL0     C 1361   0.927   0.485   2.257 -0.6478 -0.0459  0.7010
   11MOL0     C 1362   0.812   0.492   2.150  0.1208  0.4529 -0.3884
   11MOL0     C 1363   0.821   0.601   2.034  0.8459 -0.2075 -0.1942
   11MOL0    Cl 1364   0.658   0.590   1.950 -0.0826 -0.5101  0.4376
   11MOL0     C 1365   1.470  -0.082   2.680  0.9767  0.0398  0.4566
   11MOL0     C 1366   1.597  -0.104   2.631  0.5896  0.6470 -0.1522
   11MOL0     O 1367   1.859  -0.223   2.522  0.1452 -0.2661  0.4686
   11MOL0     C 1368   2.103   0.015   2.655 -0.6127 -0.4122  0.3075
   11MOL0     C 1369   2.240   0.037   2.669 -0.5458 -0.2313  1.3660
   11MOL0     N 1370   2.771  -0.347   2.629  0.3937  0.1308  0.6325
   11MOL0     N 1371   2.855  -0.391   2.547 -1.0249 -0.7629  0.6371
   11MOL0     C 1372   4.001  -0.001   2.426  0.1852 -0.4606  0.9161
   11MOL0     C 1373   4.111   0.056   2.491 -0.6479  0.2380 -0.4804
   11MOL0     C 1374   4.366   0.386   2.676 -0.1268  0.6779 -0.0525
   11MOL0     C 1375   4.407   0.521   2.694 -0.7483  0.2046 -0.1955
   11MOL0     C 1376   4.537   0.551   2.729 -0.3448 -1.1532  0.6104
   11MOL0     C 1377   4.633   0.457   2.749 -0.3078 -0.1482  0.3896
   11MOL0     O 1378   4.770   0.501   2.776  0.3647  0.3011  0.3491
   11MOL0     C 1379   4.876   0.415   2.738 -0.4458  0.4022  0.6192
   11MOL0     C 1380   4.872   0.365   2.596 -0.5356 -0.1309 -0.3160
   11MOL0     C 1381   4.834   0.483   2.499  0.6705  0.2772 -0.4999
   11MOL0     C 1382   4.854   0.431   2.358  0.1317 -0.5408  0.4497
   11MOL0     C 1383   4.854   0.555   2.264 -0.0384  0.6142 -0.4153
   11MOL0     C 1384   4.863   0.656   2.195  0.8618  0.1257  0.9379
   11MOL0     C 1385   4.593   0.319   2.746  0.1881 -0.0505  1.0354
   11MOL0     C 1386   4.461   0.290   2.708  0.4780 -0.4232  0.1284
   11MOL0     H 1387   3.947   0.320   2.637  3.0552 -0.1215  2.5292
   11MOL0     H 1388   3.754   0.223   2.511  0.2411 -0.2432  1.4967
   11MOL0     H 1389   3.773  -0.039   2.174  0.8443 -4.2479  3.1557
   11MOL0     H 1390   3.754   0.142   2.217  1.1530 -0.1258  2.2254
   11MOL0     H 1391   3.554   0.082   2.142  2.2556  0.4493  0.1190
   11MOL0     H 1392   3.543   0.096   2.321  2.1714 -0.5450  1.1953
   11MOL0     H 1393   3.545  -0.144   2.355 -0.0354  0.1755 -0.2116
   11MOL0     H 1394   3.544  -0.162   2.177  2.4450  2.4864 -1.4469
   11MOL0     H 1395   3.340  -0.012   2.334 -1.9814 -0.7746  0.4554
   11MOL0     H 1396   3.331  -0.051   2.163  1.8257  1.8406 -0.1255
   11MOL0     H 1397   3.331  -0.194   2.430  1.0880  1.0425 -1.1764
   11MOL0     H 1398   3.337  -0.298   2.288 -1.1397 -1.4155  2.0419
   11MOL0     H 1399   3.127  -0.211   2.203  1.2165 -1.8352  0.0571
   11MOL0     H 1400   3.086  -0.123   2.361 -1.0466 -2.8414  3.5651
   11MOL0     H 1401   3.005  -0.373   2.335  1.0207 -2.3468 -0.8461
   11MOL0     H 1402   3.154  -0.417   2.308 -2.6348  1.2224 -3.1794
   11MOL0     H 1403   3.189  -0.309   2.569 -0.5350  1.7532 -0.7424
   11MOL0     H 1404   3.128  -0.467   2.541 -0.3949 -0.4697  0.4403
   11MOL0     H 1405   3.035  -0.214   2.753  1.5400 -2.3700 -1.0073
   11MOL0     H 1406   2.836  -0.153   2.896  1.7180 -0.7285 -0.2150
   11MOL0     H 1407   2.736  -0.290   2.917  0.8014 -3.0951 -2.7208
   11MOL0     H 1408   2.570  -0.145   2.905 -0.6228 -0.5001  0.2763
   11MOL0     H 1409   2.569  -0.205   2.743  0.0736  1.3767 -1.1003
   11MOL0     H 1410   2.691   0.065   2.849 -3.3098  1.1142  0.6081
   11MOL0     H 1411   2.720  -0.010   2.683  0.4978 -1.4228  1.2161
   11MOL0     H 1412   2.518   0.161   2.716  0.8580  0.7831  2.1090
   11MOL0     H 1413   2.464   0.047   2.825  0.7763 -0.2770 -0.7089
   11MOL0     H 1414   2.357  -0.250   2.526  4.4211  5.7661 -0.3640
   11MOL0     H 1415   2.111  -0.294   2.518  1.0562 -1.3617  0.8860
   11MOL0     H 1416   1.716   0.206   2.642  1.4212 -1.8675 -5.3447
   11MOL0     H 1417   1.469   0.259   2.683  0.1096 -0.3896  2.0841
   11MOL0     H 1418   1.096   0.084   2.724  0.4469 -0.6663  0.9222
   11MOL0     H 1419   1.173  -0.032   2.623 -0.2883 -1.3788  3.6300
   11MOL0     H 1420   1.245   0.132   2.471  0.6744 -2.5796  0.8123
   11MOL0     H 1421   1.245   0.270   2.585 -1.1486  0.2184  0.4633
   11MOL0     H 1422   0.971   0.238   2.578  0.0678  0.0319 -0.7670
   11MOL0     H 1423   1.010   0.119   2.455  1.5621 -1.4064  1.3999
   11MOL0     H 1424   1.105   0.404   2.447  0.1652 -0.9672  0.2850
   11MOL0     H 1425   1.105   0.282   2.311 -1.3380 -2.6197  0.2359
   11MOL0     H 1426   0.845   0.391   2.438 -0.1557 -0.1243  0.5285
   11MOL0     H 1427   0.879   0.279   2.300  1.4013  0.1629 -0.3958
   11MOL0     H 1428   1.019   0.471   2.201 -0.1350 -2.8849  2.0403
   11MOL0     H 1429   0.933   0.585   2.302 -2.5899  2.1120 -3.2583
   11MOL0     H 1430   0.810   0.394   2.100 -1.5106 -0.5679  1.5179
   11MOL0     H 1431   0.721   0.507   2.209  0.9268 -1.4200  1.4622
   11MOL0     H 1432   0.902   0.584   1.963  2.2767  2.2229  0.7158
   11MOL0     H 1433   0.828   0.698   2.085  1.6174  0.7997 -2.1033
   11MOL0     H 1434   1.399  -0.163   2.693 -0.6736  0.8796 -2.4440
   11MOL0     H 1435   1.625  -0.206   2.605  0.0433 -0.1600  2.1777
   11MOL0     H 1436   2.052   0.105   2.687 -0.3856  0.4627 -1.6843
   11MOL0     H 1437   2.270   0.128   2.720 -0.3637  1.0528 -0.9231
   11MOL0     H 1438   4.018  -0.093   2.371  1.0234  1.2969 -1.9852
   11MOL0     H 1439   4.209   0.010   2.496 -1.7794 -2.4155 -1.0966
   11MOL0     H 1440   4.332   0.600   2.695 -2.3673 -1.2528  0.7045
   11MOL0     H 1441   4.553   0.656   2.751 -1.7817 -1.0700  1.4084
   11MOL0     H 1442   4.886   0.326   2.800 -0.7843  0.9480  1.4657
   11MOL0     H 1443   4.974   0.462   2.753 -1.3917  2.0325  1.9760
   11MOL0     H 1444   4.971   0.324   2.576 -0.6533  0.0356 -1.3169
   11MOL0     H 1445   4.797   0.287   2.578  1.4601 -1.7150 -2.3422
   11MOL0     H 1446   4.896   0.569   2.526  1.5799 -0.4142 -0.3407
   11MOL0     H 1447   4.732   0.520   2.515  0.8056  1.4154 -2.0296
   11MOL0     H 1448   4.944   0.370   2.342 -0.9462 -2.6715  2.0164
   11MOL0     H 1449   4.776   0.362   2.322 -0.9983  0.2565  1.3062
   11MOL0     H 1450   4.878   0.739   2.129  0.8117 -0.1825  0.5396
   11MOL0     H 1451   4.668   0.247   2.775 -1.0843 -0.8691  2.4797
   11MOL0     H 1452   4.434   0.185   2.706 -1.0222 -0.0638  0.2172
   12MOL0     O 1453   3.998   5.254   9.007  0.0576 -0.9274  0.5293
   12MOL0     C 1454   3.986   5.240   8.889 -0.6188  0.0964  0.1968
   12MOL0     O 1455   4.090   5.210   8.803  0.1584  0.8773  0.8821
   12MOL0     C 1456   4.221   5.182   8.849  0.2550 -0.6010 -0.4901
   12MOL0     C 1457   4.294   5.106   8.763  0.2070 -0.7351 -0.1978
   12MOL0     C 1458   4.430   5.066   8.795  0.3388  0.0715 -0.7455
   12MOL0     C 1459   4.482   5.101   8.919  0.3204  1.0730 -0.3334
   12MOL0     O 1460   4.608   5.061   8.944 -0.0570 -0.5032  0.4327
   12MOL0     C 1461   4.639   4.997   9.071 -0.3003 -0.3122 -0.0462
   12MOL0     C 1462   4.740   4.872   9.065  0.3262  0.2300 -0.8815
   12MOL0     C 1463   4.684   4.751   8.997 -0.1618 -0.2056  0.2798
   12MOL0     C 1464   4.793   4.645   8.955 -0.3842  0.0666  0.0629
   12MOL0     C 1465   4.776   4.548   8.826  0.1601  0.1784 -0.5248
   12MOL0     C 1466   4.644   4.472   8.847  0.1677 -1.1675 -0.4045
   12MOL0     C 1467   4.582   4.398   8.725 -0.3958 -0.5208 -0.6838
   12MOL0     C 1468   4.674   4.313   8.641 -1.0324 -0.2579  0.3205
   12MOL0     N 1469   4.607   4.234   8.533 -0.5233  1.2423  0.1114
   12MOL0     C 1470   4.502   4.275   8.462 -0.6468 -0.0106  0.1645
   12MOL0     C 1471   4.461   4.169   8.395  0.7260  0.8449  0.2805
   12MOL0     C 1472   4.374   4.174   8.276  0.2415  0.9178  1.1174
   12MOL0     C 1473   4.241   4.245   8.306 -0.5576 -0.2605 -0.6026
   12MOL0     C 1474   4.153   4.176   8.405  0.3953 -0.6129 -0.8666
   12MOL0     C 1475   4.099   4.042   8.359 -0.3376  1.2713 -0.0319
   12MOL0     O 1476   4.148   3.939   8.447  0.0352 -0.3288  0.5870
   12MOL0     C 1477   4.088   3.935   8.566 -0.9501 -0.2241 -0.5851
   12MOL0     C 1478   3.955   3.899   8.600  0.4467  0.5620 -0.2854
   12MOL0     C 1479   3.918   3.899   8.736 -0.8440  0.4300  0.1195
   12MOL0     C 1480   4.024   3.929   8.830  0.7956  0.3910 -0.2612
   12MOL0     C 1481   3.981   3.931   8.967  0.5651 -0.1621 -0.0146
   12MOL0     O 1482   4.075   3.899   9.058 -0.0871 -0.2945  0.0772
   12MOL0     C 1483   4.056   3.900   9.200 -0.3307 -0.3849  0.3633
   12MOL0     C 1484   4.175   3.867   9.275 -0.3263  0.0755  1.1017
   12MOL0     C 1485   4.178   3.836   9.407 -0.4975 -0.4113  0.9272
   12MOL0     C 1486   4.067   3.875   9.485  0.6061  0.3704 -0.2764
   12MOL0     O 1487   4.059   3.866   9.621  0.2185 -0.1527  0.1694
   12MOL0     C 1488   4.171   3.807   9.693  0.8385  1.8203 -1.0447
   12MOL0     C 1489   4.151   3.818   9.845 -0.0455 -0.6378 -0.6746
   12MOL0     C 1490   4.139   3.972   9.873 -0.1723 -0.7012 -0.4265
   12MOL0     C 1491   4.140   3.992  10.026  0.0554 -0.3365 -0.2333
   12MOL0     C 1492   4.178   4.147  10.062 -0.2993 -0.3928 -0.1856
   12MOL0     C 1493   4.217   4.160  10.211  0.7004  0.1266 -0.6608
   12MOL0     C 1494   4.086   4.141  10.289 -0.6559 -0.1527 -0.0547
   12MOL0     C 1495   4.113   4.125  10.437 -0.3096 -0.8080 -0.1877
   12MOL0    Cl 1496   4.171   3.954  10.471 -0.4095 -0.2025  0.0464
   12MOL0     C 1497   3.955   3.923   9.425  0.3973  0.0734  0.2402
   12MOL0     C 1498   3.951   3.936   9.287 -0.6121 -0.0438 -0.2366
   12MOL0     O 1499   3.865   3.960   8.996  0.6983  0.1012  0.3209
   12MOL0     C 1500   4.148   3.954   8.789 -0.1623 -0.5458  0.2458
   12MOL0     C 1501   4.180   3.965   8.661  0.8180  0.5213 -0.4131
   12MOL0     N 1502   4.536   4.059   8.426  0.6033  0.8476 -0.4498
   12MOL0     N 1503   4.616   4.097   8.519  0.8217  0.4440  0.7686
   12MOL0     C 1504   4.408   5.178   9.003  0.5662  0.0378 -0.4732
   12MOL0     C 1505   4.287   5.241   8.957  0.5660  0.0209  0.2820
   12MOL0     C 1506   3.852   5.272   8.835  0.4563 -0.3559  0.6384
   12MOL0     C 1507   3.838   5.308   8.694  0.4619 -0.3703 -0.1749
   12MOL0     C 1508   3.716   5.337   8.641 -0.4102 -1.0214 -0.3382
   12MOL0     C 1509   3.602   5.325   8.718 -1.4470  1.1685 -1.1467
   12MOL0     O 1510   3.490   5.358   8.657  0.0709  0.2855 -0.6092
   12MOL0     C 1511   3.360   5.342   8.722 -0.1227  0.4305  0.1860
   12MOL0     C 1512   3.319   5.452   8.824  0.8407  0.2089 -0.6382
   12MOL0     C 1513   3.315   5.596   8.766  0.3176  0.4091  0.1617
   12MOL0     C 1514   3.437   5.675   8.768 -0.7838  0.4784 -0.5437
   12MOL0     C 1515   3.420   5.807   8.711  0.2202  0.2887  0.7814
   12MOL0     C 1516   3.404   5.926   8.683  0.0568  0.3372 -0.2164
   12MOL0     C 1517   3.616   5.297   8.859 -0.3477 -0.1710 -0.5941
   12MOL0     C 1518   3.736   5.267   8.917 -0.3574 -0.2036  0.3905
   12MOL0     H 1519   4.243   5.081   8.671 -1.0699 -0.5430  0.4247
   12MOL0     H 1520   4.497   5.020   8.724 -0.2238 -0.8888 -0.6602
   12MOL0     H 1521   4.543   4.973   9.117 -1.7051  3.1447 -0.8557
   12MOL0     H 1522   4.674   5.079   9.134 -2.8151  2.1930 -1.6419
   12MOL0     H 1523   4.750   4.842   9.169  2.6643 -2.2381 -1.6959
   12MOL0     H 1524   4.832   4.906   9.015  0.5717 -0.6550 -1.0561
   12MOL0     H 1525   4.642   4.779   8.899 -1.0489  1.3094  1.0456
   12MOL0     H 1526   4.608   4.708   9.063  2.6151 -2.3815  2.2528
   12MOL0     H 1527   4.889   4.694   8.939  2.1500 -3.3000  3.3171
   12MOL0     H 1528   4.800   4.575   9.038 -1.8250  0.5148  0.5885
   12MOL0     H 1529   4.866   4.488   8.810 -0.4435 -0.3451 -2.1425
   12MOL0     H 1530   4.774   4.610   8.736  0.4058  0.6708 -0.1968
   12MOL0     H 1531   4.563   4.538   8.878  1.2510  0.5357 -1.0634
   12MOL0     H 1532   4.654   4.396   8.925 -0.9854  0.1114  1.0446
   12MOL0     H 1533   4.498   4.335   8.757 -0.0960 -1.3870 -1.5185
   12MOL0     H 1534   4.554   4.477   8.654 -2.8108  0.1240  0.8990
   12MOL0     H 1535   4.732   4.246   8.705  3.4280  1.4757 -1.5246
   12MOL0     H 1536   4.740   4.388   8.598  0.0810  1.5720  4.6128
   12MOL0     H 1537   4.472   4.378   8.444 -0.5499 -0.0058  0.0325
   12MOL0     H 1538   4.364   4.072   8.240  0.9188  0.6911  1.5347
   12MOL0     H 1539   4.420   4.232   8.195 -1.3505  0.4690 -0.1495
   12MOL0     H 1540   4.199   4.257   8.206 -1.6102 -2.0325 -0.4189
   12MOL0     H 1541   4.259   4.345   8.345  0.3685 -0.3233 -0.8468
   12MOL0     H 1542   4.204   4.171   8.502  0.9980 -1.2162 -1.2065
   12MOL0     H 1543   4.071   4.243   8.433  2.4716  1.1248  1.5995
   12MOL0     H 1544   4.132   4.014   8.259 -0.8866 -0.2814  0.1831
   12MOL0     H 1545   3.989   4.051   8.359 -0.4352  0.4628  1.7714
   12MOL0     H 1546   3.886   3.861   8.526 -0.7861 -0.5157  1.3420
   12MOL0     H 1547   3.820   3.866   8.769 -0.1884  0.4795  2.2876
   12MOL0     H 1548   4.260   3.843   9.213  0.7215 -1.6904  3.1068
   12MOL0     H 1549   4.270   3.807   9.458 -0.3983 -1.4615  0.1727
   12MOL0     H 1550   4.264   3.849   9.654  0.1030  1.5566 -3.2348
   12MOL0     H 1551   4.162   3.702   9.666 -2.1006  1.5399  0.5784
   12MOL0     H 1552   4.237   3.771   9.893 -0.4975  0.5962  1.4984
   12MOL0     H 1553   4.059   3.763   9.868 -0.6767  1.2881  1.8393
   12MOL0     H 1554   4.054   4.026   9.830 -1.5720 -0.2911  2.6243
   12MOL0     H 1555   4.231   4.017   9.835 -0.3879 -0.8001 -1.0976
   12MOL0     H 1556   4.040   3.969  10.063  0.0802 -0.6647 -0.3712
   12MOL0     H 1557   4.213   3.926  10.072  0.3644 -0.0921 -0.3652
   12MOL0     H 1558   4.098   4.209  10.020  2.4309  3.3141 -0.4517
   12MOL0     H 1559   4.267   4.176  10.004  0.8986  0.0600  1.7711
   12MOL0     H 1560   4.261   4.258  10.232 -0.8957  0.2495  2.8371
   12MOL0     H 1561   4.287   4.082  10.242  0.4580  0.5730  1.1351
   12MOL0     H 1562   4.028   4.231  10.265  0.5441  0.3682 -1.2006
   12MOL0     H 1563   4.030   4.054  10.255 -1.4763 -0.0540  1.0109
   12MOL0     H 1564   4.022   4.138  10.498 -1.8904 -1.6087 -2.2628
   12MOL0     H 1565   4.185   4.198  10.474 -1.8767  2.4559 -3.0079
   12MOL0     H 1566   3.869   3.945   9.488 -1.2786 -1.7396 -1.2696
   12MOL0     H 1567   3.856   3.959   9.239 -0.7025 -2.3537 -1.3201
   12MOL0     H 1568   4.231   3.945   8.858  1.7573 -0.4511 -1.9263
   12MOL0     H 1569   4.285   3.976   8.635  0.8395  0.9510 -0.1482
   12MOL0     H 1570   4.449   5.208   9.099  0.8995 -0.2367 -0.5283
   12MOL0     H 1571   4.240   5.327   9.005 -4.8786 -1.7875 -1.1223
   12MOL0     H 1572   3.919   5.310   8.622 -0.0848 -0.6797 -0.8045
   12MOL0     H 1573   3.714   5.358   8.534  0.6388  0.8728 -0.0180
   12MOL0     H 1574   3.355   5.257   8.790 -1.9048  0.1542 -0.2301
   12MOL0     H 1575   3.279   5.323   8.651 -1.3095  0.3827  1.5181
   12MOL0     H 1576   3.217   5.422   8.848  1.4439 -2.5261 -1.1016
   12MOL0     H 1577   3.384   5.458   8.911 -0.2033  2.2727  0.0483
   12MOL0     H 1578   3.237   5.650   8.821 -2.3385 -0.7246 -2.2655
   12MOL0     H 1579   3.267   5.587   8.668 -0.5004 -0.2906  0.6133
   12MOL0     H 1580   3.453   5.696   8.874  2.6295 -0.0457 -0.8609
   12MOL0     H 1581   3.522   5.626   8.721  2.2969  4.2075  0.6219
   12MOL0     H 1582   3.393   6.027   8.650  2.2963  0.2717 -1.3280
   12MOL0     H 1583   3.536   5.289   8.933  1.1147 -1.0832  0.9463
   12MOL0     H 1584   3.740   5.241   9.023 -0.8084 -1.3238  0.1467
   13MOL0     O 1585   5.998  11.170   5.328  0.0069 -0.1544 -0.3418
   13MOL0     C 1586   6.106  11.149   5.273 -1.3776 -0.4923  0.1171
   13MOL0     O 1587   6.113  11.106   5.148 -0.2987 -0.0571 -0.2432
   13MOL0     C 1588   5.991  11.100   5.078 -0.6669 -0.0952 -0.0386
   13MOL0     C 1589   5.926  11.216   5.033 -0.1581  0.2054 -0.8707
   13MOL0     C 1590   5.823  11.215   4.939 -0.2600 -0.5077 -0.0813
   13MOL0     C 1591   5.778  11.095   4.888  0.8706  0.5401 -0.1815
   13MOL0     O 1592   5.683  11.070   4.800  0.5260  0.0524  0.6821
   13MOL0     C 1593   5.609  11.177   4.747 -1.0889 -0.6396 -0.3630
   13MOL0     C 1594   5.513  11.107   4.661  0.1067 -0.2949  0.0859
   13MOL0     C 1595   5.388  11.058   4.751 -0.1407 -0.2425  0.1377
   13MOL0     C 1596   5.298  10.945   4.689 -0.2441 -0.8016 -0.3610
   13MOL0     C 1597   5.180  10.914   4.781  0.6201  0.6906  0.5484
   13MOL0     C 1598   5.051  10.884   4.712 -1.2976 -0.3771 -0.9435
   13MOL0     C 1599   4.934  10.836   4.807  0.0283  0.2381  0.1679
   13MOL0     C 1600   4.831  10.763   4.728  0.3992  0.0843 -0.2667
   13MOL0     N 1601   4.697  10.727   4.780 -0.3121 -0.5353  0.5604
   13MOL0     C 1602   4.682  10.689   4.903 -0.0364 -0.5824 -0.5039
   13MOL0     C 1603   4.551  10.655   4.914  0.4106 -0.3373 -1.0541
   13MOL0     C 1604   4.494  10.592   5.036 -0.3256 -0.4075  0.0838
   13MOL0     C 1605   4.358  10.564   4.993  0.1261  1.0077 -0.5923
   13MOL0     C 1606   4.264  10.508   5.101 -0.3018  0.1910 -0.2211
   13MOL0     C 1607   4.131  10.450   5.053 -0.2783  0.1412  0.3609
   13MOL0     O 1608   4.141  10.315   5.006  0.8034  0.0570  0.3989
   13MOL0     C 1609   4.032  10.242   4.984  0.2099 -0.0247  0.0353
   13MOL0     C 1610   4.055  10.114   4.927 -0.2770  0.6444 -0.4078
   13MOL0     C 1611   3.941  10.033   4.902  0.2490  0.4409 -0.6153
   13MOL0     C 1612   3.812  10.075   4.916  0.4053 -0.2055 -0.3168
   13MOL0     C 1613   3.693   9.984   4.889 -0.3882 -0.4892 -0.5531
   13MOL0     O 1614   3.568  10.034   4.903  0.1414 -0.5108  0.2291
   13MOL0     C 1615   3.460   9.955   4.899  1.2320  0.5157  0.1908
   13MOL0     C 1616   3.344  10.024   4.855  0.0603 -0.4581 -0.7178
   13MOL0     C 1617   3.229   9.960   4.851  0.8561 -0.9866  0.0252
   13MOL0     C 1618   3.225   9.825   4.894  0.4640 -0.4815 -0.5198
   13MOL0     O 1619   3.102   9.773   4.917  0.4826 -0.1432 -0.3380
   13MOL0     C 1620   3.072   9.668   4.829 -0.4155  0.0126 -0.3421
   13MOL0     C 1621   2.928   9.652   4.805  0.0118  0.5145 -0.1997
   13MOL0     C 1622   2.854   9.619   4.934 -0.8153 -0.3514  0.6844
   13MOL0     C 1623   2.720   9.542   4.931 -0.5570  0.1285  0.9699
   13MOL0     C 1624   2.641   9.544   5.066 -0.1400  0.8958 -0.2885
   13MOL0     C 1625   2.512   9.466   5.078  0.5118 -0.2890  1.0116
   13MOL0     C 1626   2.463   9.494   5.215  0.4254  0.1490 -0.7712
   13MOL0     C 1627   2.344   9.406   5.266  0.4958 -0.0989 -0.5233
   13MOL0    Cl 1628   2.203   9.388   5.146  0.1008 -0.0150 -0.2836
   13MOL0     C 1629   3.332   9.751   4.935  0.3524  0.3843 -0.3046
   13MOL0     C 1630   3.458   9.818   4.938  0.3867 -0.0308 -0.4355
   13MOL0     O 1631   3.717   9.875   4.835 -0.5090  0.2035 -0.0245
   13MOL0     C 1632   3.795  10.214   4.952 -0.5619  0.0812  0.7970
   13MOL0     C 1633   3.906  10.290   4.989  0.3514  0.2459 -0.9469
   13MOL0     N 1634   4.492  10.668   4.790 -0.7572 -0.3960 -0.0180
   13MOL0     N 1635   4.581  10.723   4.702 -0.4167  0.7380 -0.4448
   13MOL0     C 1636   5.843  10.978   4.938 -1.2255  0.0663 -0.1236
   13MOL0     C 1637   5.961  10.985   5.019  0.2395 -0.2400 -0.1202
   13MOL0     C 1638   6.232  11.153   5.352  0.0410  0.0605  0.4177
   13MOL0     C 1639   6.354  11.106   5.289  0.2064 -0.8322 -0.5818
   13MOL0     C 1640   6.474  11.103   5.353 -0.2620 -0.2238  0.3055
   13MOL0     C 1641   6.480  11.162   5.481  0.2783  0.5245 -0.2841
   13MOL0     O 1642   6.593  11.199   5.555 -0.2050  0.9936  0.0930
   13MOL0     C 1643   6.717  11.135   5.522  0.2277 -0.1718 -1.1388
   13MOL0     C 1644   6.824  11.175   5.620  1.1852  0.9970 -0.4906
   13MOL0     C 1645   6.965  11.145   5.578  0.2924  1.5685 -0.5800
   13MOL0     C 1646   6.993  10.996   5.568 -0.7130  0.5830 -1.2278
   13MOL0     C 1647   7.130  10.977   5.532 -0.8913 -0.2755 -0.7750
   13MOL0     C 1648   7.248  10.958   5.503 -0.6009  0.9304  0.0582
   13MOL0     C 1649   6.361  11.220   5.536 -0.9156  0.6088 -0.2426
   13MOL0     C 1650   6.240  11.213   5.468  0.1258  0.5868 -0.2779
   13MOL0     H 1651   5.966  11.309   5.071 -0.4319 -0.3045  0.7460
   13MOL0     H 1652   5.767  11.306   4.916  0.3632  0.2809  1.3776
   13MOL0     H 1653   5.682  11.227   4.683  1.1811 -1.4741  1.4628
   13MOL0     H 1654   5.564  11.240   4.825  1.0618 -0.0092  0.4297
   13MOL0     H 1655   5.558  11.026   4.604 -1.7049 -0.3457 -1.3695
   13MOL0     H 1656   5.481  11.176   4.582  2.6376 -0.6241 -1.3442
   13MOL0     H 1657   5.325  11.141   4.784  0.8177  1.9514 -2.9683
   13MOL0     H 1658   5.434  11.006   4.835 -0.5234  1.2540  1.3195
   13MOL0     H 1659   5.246  10.982   4.600 -1.6007  0.2949  0.8523
   13MOL0     H 1660   5.353  10.852   4.669  0.9020  0.2760 -2.6365
   13MOL0     H 1661   5.165  10.996   4.851 -1.5872  0.2894  0.6052
   13MOL0     H 1662   5.203  10.832   4.850 -0.6403 -0.8319 -0.7512
   13MOL0     H 1663   5.060  10.811   4.631  0.2805 -1.6203  0.2788
   13MOL0     H 1664   5.030  10.982   4.669 -0.2180  0.2808 -0.0296
   13MOL0     H 1665   4.962  10.775   4.893 -1.9235  1.3969  1.7102
   13MOL0     H 1666   4.898  10.932   4.844  1.5361  0.9507 -0.1477
   13MOL0     H 1667   4.870  10.663   4.707 -3.9156 -1.9113  0.0520
   13MOL0     H 1668   4.809  10.807   4.631  1.6049 -0.0083 -0.5918
   13MOL0     H 1669   4.755  10.678   4.983 -1.3432  3.2379  1.4296
   13MOL0     H 1670   4.508  10.656   5.124 -2.7073 -0.0634  0.2792
   13MOL0     H 1671   4.546  10.500   5.063  2.6227  1.8980  3.2407
   13MOL0     H 1672   4.368  10.491   4.912 -0.6311 -0.2860  0.4393
   13MOL0     H 1673   4.312  10.655   4.955 -3.2671 -0.3575 -0.0931
   13MOL0     H 1674   4.316  10.432   5.161  0.9730  0.5852 -0.8005
   13MOL0     H 1675   4.252  10.594   5.167  2.7348  3.7538 -3.7844
   13MOL0     H 1676   4.082  10.516   4.980  1.3371 -1.7528 -2.6505
   13MOL0     H 1677   4.062  10.452   5.138 -0.8389  0.1835 -0.0864
   13MOL0     H 1678   4.153  10.067   4.917  0.5650  0.5856  4.9891
   13MOL0     H 1679   3.942   9.931   4.864  0.1654  0.6406 -1.1510
   13MOL0     H 1680   3.344  10.129   4.825 -0.7144 -0.3038 -0.1880
   13MOL0     H 1681   3.135  10.002   4.817  0.1655 -2.8513 -0.4815
   13MOL0     H 1682   3.109   9.573   4.869  1.8442  0.3612 -1.4501
   13MOL0     H 1683   3.117   9.678   4.730  0.1174 -0.8374 -0.1964
   13MOL0     H 1684   2.914   9.573   4.730  0.5084  0.4957 -0.2758
   13MOL0     H 1685   2.895   9.748   4.763 -0.0537  1.9700  2.9066
   13MOL0     H 1686   2.825   9.721   4.963  1.7092  0.7545 -0.4187
   13MOL0     H 1687   2.921   9.563   4.999  1.5763 -0.4073 -1.6652
   13MOL0     H 1688   2.649   9.570   4.853  0.3752 -1.3149 -0.4765
   13MOL0     H 1689   2.727   9.435   4.908  1.4146  0.3442  0.3437
   13MOL0     H 1690   2.618   9.650   5.082 -1.1356  0.7249 -0.5196
   13MOL0     H 1691   2.713   9.512   5.142  3.1495 -0.3071 -3.5768
   13MOL0     H 1692   2.516   9.359   5.058  1.3257 -0.4363  1.9429
   13MOL0     H 1693   2.443   9.511   5.004  0.9452 -0.0799  0.7300
   13MOL0     H 1694   2.537   9.468   5.292 -0.9679  0.3380  0.6881
   13MOL0     H 1695   2.443   9.602   5.223  1.1322  0.2438 -0.0481
   13MOL0     H 1696   2.312   9.457   5.357 -1.6598 -0.8991 -0.7687
   13MOL0     H 1697   2.373   9.304   5.292 -3.0239 -0.8628  0.9906
   13MOL0     H 1698   3.317   9.646   4.958 -3.8658  1.0312  0.7729
   13MOL0     H 1699   3.543   9.764   4.977  0.0836  0.5875  1.1639
   13MOL0     H 1700   3.697  10.260   4.950 -1.2291 -1.2676 -1.8739
   13MOL0     H 1701   3.884  10.393   5.015 -3.4044 -0.1555 -1.8552
   13MOL0     H 1702   5.822  10.877   4.904  0.6932 -0.6191  0.5712
   13MOL0     H 1703   6.014  10.892   5.036 -3.5674 -2.2479  2.2813
   13MOL0     H 1704   6.360  11.061   5.191  0.1656 -3.9441  0.7431
   13MOL0     H 1705   6.571  11.078   5.311  0.4131  1.4768  0.7762
   13MOL0     H 1706   6.739  11.165   5.420 -2.9308  1.0586 -1.5893
   13MOL0     H 1707   6.713  11.026   5.509  0.8983 -0.0594 -2.4433
   13MOL0     H 1708   6.810  11.283   5.631 -2.1981  0.5514  1.0363
   13MOL0     H 1709   6.795  11.138   5.720 -1.5913 -0.0564 -1.5813
   13MOL0     H 1710   7.040  11.193   5.641  0.2841  0.6873  0.1187
   13MOL0     H 1711   6.992  11.184   5.480 -0.7369  0.9340 -1.1418
   13MOL0     H 1712   6.968  10.942   5.660  1.6281 -0.3190 -1.0444
   13MOL0     H 1713   6.936  10.958   5.483 -1.3616  3.3667 -2.1506
   13MOL0     H 1714   7.350  10.932   5.483 -0.8370  0.6641 -0.8427
   13MOL0     H 1715   6.364  11.271   5.632  0.7992  1.6713 -0.8138
   13MOL0     H 1716   6.157  11.258   5.522  0.9821  0.7502  0.9707
   14MOL0     O 1717   9.476   8.555   8.932  0.0209  0.3285  0.6108
   14MOL0     C 1718   9.564   8.604   8.869 -0.1340 -0.3622  0.4970
   14MOL0     O 1719   9.555   8.717   8.787 -0.3949 -0.5004  0.2176
   14MOL0     C 1720   9.440   8.792   8.778 -0.5663 -0.5991  0.3786
   14MOL0     C 1721   9.325   8.802   8.867 -0.2724 -0.1806  0.0475
   14MOL0     C 1722   9.225   8.897   8.863  0.0444 -0.5436  0.5850
   14MOL0     C 1723   9.227   8.989   8.766 -0.3035 -0.4796 -0.2405
   14MOL0     O 1724   9.110   9.058   8.754  0.3215  0.6303 -0.5671
   14MOL0     C 1725   9.114   9.183   8.686  0.2060  0.0382  0.9828
   14MOL0     C 1726   9.023   9.280   8.749  0.5315  0.2723 -0.2761
   14MOL0     C 1727   9.030   9.410   8.656 -0.2589  0.0983 -0.9740
   14MOL0     C 1728   8.922   9.511   8.704 -0.0971 -0.4931 -0.2242
   14MOL0     C 1729   8.887   9.620   8.608  0.0124  1.7458 -0.0077
   14MOL0     C 1730   8.860   9.752   8.676  0.5139  0.4480  0.1860
   14MOL0     C 1731   8.980   9.802   8.746 -0.0615 -0.0152 -0.6382
   14MOL0     C 1732   8.988   9.954   8.762 -0.8226 -0.9324  0.6824
   14MOL0     N 1733   9.120  10.004   8.808 -0.2653 -0.8650 -0.3220
   14MOL0     C 1734   9.229  10.026   8.720 -0.6772  0.1786 -0.4087
   14MOL0     C 1735   9.324  10.077   8.804 -0.4207  0.3894  0.2403
   14MOL0     C 1736   9.471  10.120   8.760  0.3249  0.4801 -0.0215
   14MOL0     C 1737   9.579  10.050   8.847 -0.5845  1.1154  0.6045
   14MOL0     C 1738   9.712  10.043   8.772 -0.4143 -1.7166 -0.6938
   14MOL0     C 1739   9.800   9.931   8.831 -1.1724  0.1173  0.4635
   14MOL0     O 1740   9.918   9.919   8.734 -0.1538  0.2835 -0.0650
   14MOL0     C 1741  10.019   9.991   8.786 -0.5740 -0.1165  0.2707
   14MOL0     C 1742  10.102   9.942   8.887 -0.0531  0.5606  0.5059
   14MOL0     C 1743  10.211  10.020   8.928  0.7807  0.5927 -1.4357
   14MOL0     C 1744  10.235  10.148   8.874 -0.5885 -0.4983  0.0558
   14MOL0     C 1745  10.340  10.235   8.924 -0.4306  0.1655 -0.2318
   14MOL0     O 1746  10.415  10.195   9.029  0.1486  0.5321  0.2905
   14MOL0     C 1747  10.518  10.275   9.076  0.2943  0.2373  0.7063
   14MOL0     C 1748  10.645  10.280   9.004  0.7903  0.7466 -0.2807
   14MOL0     C 1749  10.752  10.334   9.069 -0.8157 -0.3870 -0.5241
   14MOL0     C 1750  10.732  10.395   9.191 -0.1807  0.0918 -0.0799
   14MOL0     O 1751  10.829  10.459   9.263  0.2229 -0.9401 -0.2060
   14MOL0     C 1752  10.971  10.428   9.236  0.3925  0.2590 -0.2539
   14MOL0     C 1753  11.056  10.480   9.360 -0.0671 -0.0834  0.2660
   14MOL0     C 1754  11.198  10.514   9.308  0.4443  0.2311  0.3580
   14MOL0     C 1755  11.292  10.399   9.292 -0.3462  0.0679 -0.1176
   14MOL0     C 1756  11.399  10.437   9.180  0.2190 -0.0742 -0.3390
   14MOL0     C 1757  11.515  10.347   9.189 -0.2376  0.5101  0.3892
   14MOL0     C 1758  11.582  10.329   9.326 -0.7734 -0.1776 -1.2091
   14MOL0     C 1759  11.731  10.296   9.320  0.3305  0.3472  0.9155
   14MOL0    Cl 1760  11.774  10.133   9.237 -0.4716  0.0810  0.0738
   14MOL0     C 1761  10.606  10.408   9.251 -1.0687 -0.9940 -0.1590
   14MOL0     C 1762  10.502  10.345   9.194  0.1512 -0.3124  0.0263
   14MOL0     O 1763  10.364  10.335   8.860 -0.1734  0.0274 -0.3501
   14MOL0     C 1764  10.161  10.173   8.759 -0.3863 -0.1463 -0.3502
   14MOL0     C 1765  10.061  10.096   8.713  0.0466  0.2754  0.9785
   14MOL0     N 1766   9.276  10.086   8.939 -0.4932 -0.4881  0.9822
   14MOL0     N 1767   9.147  10.061   8.921 -1.3370 -0.8843 -0.7859
   14MOL0     C 1768   9.335   8.987   8.675 -0.0313 -0.3003  0.5987
   14MOL0     C 1769   9.445   8.897   8.682  0.1342 -0.7904  0.3027
   14MOL0     C 1770   9.702   8.558   8.886 -0.5072 -1.3453  0.0553
   14MOL0     C 1771   9.728   8.434   8.950 -0.3556  0.1907 -0.7183
   14MOL0     C 1772   9.861   8.383   8.943  0.1668 -0.1185  0.6516
   14MOL0     C 1773   9.969   8.461   8.893 -0.1505 -0.3323  0.5011
   14MOL0     O 1774  10.107   8.429   8.886 -0.0224 -0.3391  0.1951
   14MOL0     C 1775  10.151   8.313   8.962 -0.4765  0.0848  0.2954
   14MOL0     C 1776  10.114   8.203   8.863  0.8724  0.1608 -1.5507
   14MOL0     C 1777  10.206   8.080   8.873  0.6046  0.5916 -0.4171
   14MOL0     C 1778  10.341   8.104   8.808 -0.5849  0.8906 -0.2874
   14MOL0     C 1779  10.430   7.996   8.857 -1.3523  0.6763  0.5125
   14MOL0     C 1780  10.511   7.921   8.902 -0.1906  1.3119 -0.6393
   14MOL0     C 1781   9.938   8.582   8.842  0.0148  0.0401 -0.1602
   14MOL0     C 1782   9.812   8.635   8.831  0.0314 -0.0824 -0.9109
   14MOL0     H 1783   9.310   8.728   8.945 -0.1025  1.6975  1.9563
   14MOL0     H 1784   9.147   8.899   8.938 -0.0457 -0.3422  0.4857
   14MOL0     H 1785   9.089   9.166   8.580 -3.1677  1.3369  1.4184
   14MOL0     H 1786   9.216   9.222   8.691 -0.0138  0.6409  0.8975
   14MOL0     H 1787   9.050   9.312   8.850 -1.9641 -0.5115  0.7095
   14MOL0     H 1788   8.917   9.252   8.752  0.9189 -1.4069 -1.0675
   14MOL0     H 1789   9.025   9.385   8.550 -0.6962 -1.6191 -0.5652
   14MOL0     H 1790   9.128   9.459   8.661 -1.2534  2.1593  2.9960
   14MOL0     H 1791   8.827   9.463   8.729 -2.0005  2.4353 -1.3528
   14MOL0     H 1792   8.958   9.558   8.796 -3.8136  0.5935  0.8502
   14MOL0     H 1793   8.812   9.571   8.544 -0.1615  0.5495  1.0786
   14MOL0     H 1794   8.972   9.628   8.540  1.2732 -1.1735  1.0657
   14MOL0     H 1795   8.780   9.746   8.750 -1.2021  2.7013 -1.3478
   14MOL0     H 1796   8.817   9.826   8.608 -1.4366  1.4063  2.3312
   14MOL0     H 1797   8.976   9.758   8.847 -1.8546  1.1825 -0.1436
   14MOL0     H 1798   9.065   9.762   8.690  0.4012 -0.5168  0.3867
   14MOL0     H 1799   8.924   9.998   8.840 -0.5139  3.6031 -1.3299
   14MOL0     H 1800   8.946  10.003   8.674 -3.3821  0.9061  2.7538
   14MOL0     H 1801   9.236  10.001   8.615  1.6578  1.5148 -0.6468
   14MOL0     H 1802   9.470  10.229   8.767 -4.2181  0.9487 -3.1543
   14MOL0     H 1803   9.481  10.099   8.653 -1.9612 -1.6475  0.0831
   14MOL0     H 1804   9.550   9.945   8.858  0.9618  0.1818 -2.6419
   14MOL0     H 1805   9.615  10.103   8.936  5.4744 -1.0063 -0.1213
   14MOL0     H 1806   9.692  10.028   8.666 -0.4885 -1.3007 -0.7394
   14MOL0     H 1807   9.768  10.136   8.782 -0.9047 -1.6095  1.8916
   14MOL0     H 1808   9.742   9.840   8.850 -1.0148  0.2488  1.6473
   14MOL0     H 1809   9.830   9.965   8.930 -0.9207 -0.6826  0.6705
   14MOL0     H 1810  10.079   9.842   8.924  0.5538 -0.5823 -1.9523
   14MOL0     H 1811  10.276   9.985   9.008 -2.1245 -0.3657  0.6815
   14MOL0     H 1812  10.658  10.228   8.910 -2.6580 -0.5340 -0.2075
   14MOL0     H 1813  10.852  10.338   9.028 -0.1846 -1.0213  0.9035
   14MOL0     H 1814  11.005  10.481   9.147 -2.0873 -1.8864 -2.6738
   14MOL0     H 1815  10.976  10.319   9.224  1.2418  0.2604 -0.0075
   14MOL0     H 1816  11.051  10.403   9.438  0.8428 -0.2276  0.1994
   14MOL0     H 1817  11.008  10.573   9.394 -1.3924 -0.6989  0.1034
   14MOL0     H 1818  11.246  10.586   9.376 -3.4003  1.4194  2.0581
   14MOL0     H 1819  11.185  10.572   9.216 -0.1722 -0.7923 -0.2178
   14MOL0     H 1820  11.341  10.377   9.387 -2.5310  0.2028  1.1178
   14MOL0     H 1821  11.238  10.312   9.253 -0.3323  0.0063  0.0011
   14MOL0     H 1822  11.442  10.536   9.196 -0.3571  0.6368 -2.7034
   14MOL0     H 1823  11.342  10.433   9.087 -1.1153 -2.3315  0.5099
   14MOL0     H 1824  11.593  10.395   9.130  0.7739 -2.9582 -1.3521
   14MOL0     H 1825  11.493  10.248   9.148  0.1128  1.0622 -1.2136
   14MOL0     H 1826  11.587  10.427   9.376  1.6722  0.9537 -3.4346
   14MOL0     H 1827  11.520  10.274   9.398 -0.0344 -0.0972 -0.4875
   14MOL0     H 1828  11.770  10.287   9.422  0.0464  1.5076  1.1394
   14MOL0     H 1829  11.789  10.367   9.261  0.2038 -0.7035 -0.5225
   14MOL0     H 1830  10.605  10.463   9.345  3.2138  0.2271 -0.6302
   14MOL0     H 1831  10.406  10.345   9.245  0.8188 -1.5873  1.3330
   14MOL0     H 1832  10.189  10.263   8.704 -1.2566 -0.9058 -2.1186
   14MOL0     H 1833  10.015  10.132   8.621  0.5196 -1.3388  0.0568
   14MOL0     H 1834   9.350   9.072   8.610  0.1684  0.0609  1.1172
   14MOL0     H 1835   9.533   8.908   8.620 -1.6773 -1.6918 -2.6794
   14MOL0     H 1836   9.646   8.379   8.997  0.4252 -2.6763 -2.4477
   14MOL0     H 1837   9.886   8.287   8.986 -0.8472  0.0517  1.6867
   14MOL0     H 1838  10.099   8.298   9.058  0.5493  0.6625  0.9612
   14MOL0     H 1839  10.255   8.316   8.994  0.0826 -2.7902 -0.9947
   14MOL0     H 1840  10.014   8.161   8.876  1.2961 -0.6667 -0.8664
   14MOL0     H 1841  10.111   8.234   8.758 -1.3264 -2.6510 -2.4682
   14MOL0     H 1842  10.162   7.995   8.819  0.4575  0.4280 -0.0370
   14MOL0     H 1843  10.220   8.056   8.978 -0.9541  1.0248 -0.0940
   14MOL0     H 1844  10.321   8.105   8.700 -1.0322 -0.1943 -0.2253
   14MOL0     H 1845  10.387   8.192   8.854  0.5878 -1.7907  4.2790
   14MOL0     H 1846  10.579   7.846   8.937 -1.0823  0.5941 -0.4050
   14MOL0     H 1847  10.024   8.633   8.800 -1.3083 -0.7387 -4.2726
   14MOL0     H 1848   9.801   8.722   8.766  0.3782 -0.6518 -1.7494
   15MOL0     O 1849   9.755   8.220   0.752 -0.9293 -0.0842 -0.2871
   15MOL0     C 1850   9.850   8.283   0.806  0.1583  0.4443  0.6968
   15MOL0     O 1851   9.837   8.384   0.889 -0.2472  0.2293 -0.0734
   15MOL0     C 1852   9.716   8.405   0.954  0.2773 -0.3660  0.2372
   15MOL0     C 1853   9.661   8.539   0.961 -0.7931  0.2357  0.2332
   15MOL0     C 1854   9.537   8.554   1.021  0.2208  0.2487  0.6851
   15MOL0     C 1855   9.463   8.449   1.074  0.3987  0.8967  0.4449
   15MOL0     O 1856   9.329   8.471   1.123 -0.3561 -0.4035 -0.1966
   15MOL0     C 1857   9.267   8.353   1.176 -0.4721 -0.3627  0.6103
   15MOL0     C 1858   9.122   8.375   1.169 -0.7324  0.1622  0.1002
   15MOL0     C 1859   9.056   8.377   1.032 -0.0999  0.9705 -0.4254
   15MOL0     C 1860   8.901   8.372   1.035  0.4569 -0.4942 -0.4207
   15MOL0     C 1861   8.840   8.414   0.899  0.4798  0.6506  0.3600
   15MOL0     C 1862   8.700   8.359   0.860 -0.2201 -0.3950 -0.2832
   15MOL0     C 1863   8.606   8.349   0.976 -0.6713  0.4106  0.0620
   15MOL0     C 1864   8.458   8.349   0.929  0.5195 -0.0722 -0.6395
   15MOL0     N 1865   8.380   8.316   1.051 -0.3550 -0.0651  0.3994
   15MOL0     C 1866   8.268   8.375   1.105 -0.0039  1.3377 -0.1936
   15MOL0     C 1867   8.221   8.293   1.200 -0.3369 -0.5779 -0.7529
   15MOL0     C 1868   8.100   8.335   1.276 -0.2788  0.2874  0.0598
   15MOL0     C 1869   8.106   8.276   1.421  0.7633 -0.1311 -0.0161
   15MOL0     C 1870   8.004   8.355   1.506  0.2065 -0.3958  0.4891
   15MOL0     C 1871   7.984   8.306   1.653  0.8955 -0.2135 -0.5711
   15MOL0     O 1872   7.852   8.348   1.691 -0.0804 -0.7812 -0.2701
   15MOL0     C 1873   7.760   8.251   1.713 -0.7336  0.2665  0.6238
   15MOL0     C 1874   7.646   8.268   1.635  0.0696  0.3398 -1.3642
   15MOL0     C 1875   7.563   8.158   1.628  0.8306 -0.6286 -0.3610
   15MOL0     C 1876   7.577   8.046   1.705 -0.2815 -0.4903  0.6725
   15MOL0     C 1877   7.489   7.922   1.683 -0.8506  0.2827 -0.5249
   15MOL0     O 1878   7.363   7.936   1.636 -0.0855  0.1447  0.1637
   15MOL0     C 1879   7.281   7.828   1.624  0.3979  0.1743  0.6426
   15MOL0     C 1880   7.259   7.774   1.502 -0.0479 -0.0061  0.3937
   15MOL0     C 1881   7.192   7.656   1.494 -0.0887  0.0458  0.9735
   15MOL0     C 1882   7.137   7.584   1.602 -0.1691  0.4826  0.6948
   15MOL0     O 1883   7.073   7.466   1.598 -0.1395 -1.2059  0.5193
   15MOL0     C 1884   7.064   7.385   1.486  0.5058  0.7574  0.0949
   15MOL0     C 1885   6.942   7.408   1.402  0.4990  0.7680  0.2262
   15MOL0     C 1886   6.921   7.301   1.288  0.3542 -0.2682  0.4992
   15MOL0     C 1887   6.801   7.345   1.206 -0.1450 -0.7082 -0.5081
   15MOL0     C 1888   6.699   7.242   1.209  0.4733 -0.1755 -0.9208
   15MOL0     C 1889   6.618   7.235   1.349 -0.8807 -0.3119 -0.0723
   15MOL0     C 1890   6.522   7.114   1.377 -0.1255 -0.2643 -0.4484
   15MOL0     C 1891   6.421   7.160   1.488  0.3516  0.1060  0.2007
   15MOL0    Cl 1892   6.335   7.314   1.425 -0.0791  0.0350  0.3464
   15MOL0     C 1893   7.154   7.642   1.723  0.9963  0.1886 -0.3509
   15MOL0     C 1894   7.221   7.767   1.739  0.5475  0.5800  0.1896
   15MOL0     O 1895   7.548   7.818   1.712  0.5113  0.5415 -0.0003
   15MOL0     C 1896   7.679   8.046   1.793 -0.0569  0.0795 -0.1534
   15MOL0     C 1897   7.773   8.149   1.799  0.4516  0.0196 -0.4160
   15MOL0     N 1898   8.300   8.178   1.201 -0.3404  0.4151  0.2923
   15MOL0     N 1899   8.388   8.191   1.110  0.1257  0.2979  0.7260
   15MOL0     C 1900   9.521   8.316   1.062  0.1491 -1.5395 -0.2113
   15MOL0     C 1901   9.650   8.302   1.015 -0.2299 -0.7362 -0.2179
   15MOL0     C 1902   9.991   8.249   0.772  0.6066  0.5531 -0.1258
   15MOL0     C 1903  10.098   8.334   0.789 -1.1339  0.4095  0.2734
   15MOL0     C 1904  10.236   8.287   0.779 -0.1843 -0.3363  0.0564
   15MOL0     C 1905  10.270   8.162   0.743  0.5746 -0.4729  0.2234
   15MOL0     O 1906  10.403   8.129   0.721  0.1204 -0.3880  0.1748
   15MOL0     C 1907  10.429   7.996   0.673  0.5600  0.4132 -0.3373
   15MOL0     C 1908  10.568   7.933   0.682  0.2916  0.0497  1.3283
   15MOL0     C 1909  10.567   7.802   0.587 -0.7024 -0.4417 -0.2649
   15MOL0     C 1910  10.696   7.731   0.613 -0.5274  0.2525  0.4226
   15MOL0     C 1911  10.819   7.798   0.568  0.7400  0.3378 -0.5719
   15MOL0     C 1912  10.912   7.866   0.525  0.9419  0.6731 -0.7157
   15MOL0     C 1913  10.152   8.080   0.721 -0.4674  0.4749  0.8532
   15MOL0     C 1914  10.021   8.119   0.722 -0.2368  0.3675 -0.3248
   15MOL0     H 1915   9.715   8.629   0.932  0.8181 -0.2549  1.5222
   15MOL0     H 1916   9.516   8.660   1.029  2.7238  1.1606 -2.6662
   15MOL0     H 1917   9.292   8.338   1.282  0.5522 -0.9449  0.2965
   15MOL0     H 1918   9.285   8.266   1.114 -1.4408 -1.1270  1.3575
   15MOL0     H 1919   9.088   8.467   1.218  0.8821  0.7730  0.1261
   15MOL0     H 1920   9.078   8.285   1.212 -0.1981 -1.8251 -3.1513
   15MOL0     H 1921   9.089   8.300   0.961 -1.7900 -0.4904  0.2761
   15MOL0     H 1922   9.084   8.475   0.992 -0.9757  1.3054 -0.2295
   15MOL0     H 1923   8.877   8.266   1.042  0.0448 -0.6089 -2.7585
   15MOL0     H 1924   8.864   8.426   1.123 -3.7088  1.3331 -2.9754
   15MOL0     H 1925   8.904   8.382   0.816 -0.9854  0.5599 -0.7913
   15MOL0     H 1926   8.826   8.521   0.886 -0.8479  0.4218 -0.3241
   15MOL0     H 1927   8.695   8.259   0.816 -2.7913 -1.6629  2.5427
   15MOL0     H 1928   8.649   8.411   0.778 -0.3850 -2.5115 -1.6147
   15MOL0     H 1929   8.637   8.255   1.022  1.1821  1.3385  0.8061
   15MOL0     H 1930   8.628   8.432   1.044  0.0101 -1.3079  2.0641
   15MOL0     H 1931   8.443   8.274   0.851 -2.6609  0.1400 -0.3552
   15MOL0     H 1932   8.428   8.446   0.887  4.0664  0.8702 -1.4226
   15MOL0     H 1933   8.210   8.462   1.075 -2.2379  0.2371  0.7068
   15MOL0     H 1934   8.009   8.303   1.224  0.3189 -1.5844  0.1155
   15MOL0     H 1935   8.098   8.445   1.282 -2.5243  0.2223  1.9007
   15MOL0     H 1936   8.207   8.286   1.462  1.6229 -2.1838 -1.4604
   15MOL0     H 1937   8.083   8.169   1.425 -0.4411  0.1224  3.1613
   15MOL0     H 1938   8.024   8.463   1.514  1.5350 -0.7467  2.6933
   15MOL0     H 1939   7.909   8.343   1.453  0.3464  0.3351  0.0540
   15MOL0     H 1940   8.062   8.347   1.718 -1.5626 -2.1836  4.1126
   15MOL0     H 1941   7.994   8.197   1.652  2.0676 -0.1224 -0.6728
   15MOL0     H 1942   7.635   8.355   1.570  3.1773 -1.6772 -4.9855
   15MOL0     H 1943   7.491   8.146   1.547 -1.8104  0.1032  1.7315
   15MOL0     H 1944   7.305   7.827   1.420  0.2881 -0.5436  0.2280
   15MOL0     H 1945   7.190   7.610   1.395  0.0847 -4.4063  2.7922
   15MOL0     H 1946   7.050   7.278   1.504 -0.2052  0.5891 -1.3617
   15MOL0     H 1947   7.152   7.401   1.423  2.8004 -0.9056  2.6603
   15MOL0     H 1948   6.937   7.512   1.368 -2.9881  1.3977  2.1703
   15MOL0     H 1949   6.855   7.398   1.468  1.2877 -4.3084  0.9489
   15MOL0     H 1950   6.910   7.199   1.324  2.0935 -0.6629 -0.0079
   15MOL0     H 1951   7.007   7.319   1.223 -2.1031  1.3810 -2.6039
   15MOL0     H 1952   6.763   7.444   1.236 -1.3397 -0.6658 -2.0453
   15MOL0     H 1953   6.829   7.361   1.102  1.5979  2.9157  0.3551
   15MOL0     H 1954   6.750   7.151   1.177  0.2923  0.9724 -5.0682
   15MOL0     H 1955   6.623   7.255   1.132 -0.5361 -0.7950 -0.0570
   15MOL0     H 1956   6.570   7.331   1.371 -1.6872 -0.6786 -0.1897
   15MOL0     H 1957   6.691   7.217   1.428 -0.8295  0.8032  0.1507
   15MOL0     H 1958   6.478   7.085   1.281  1.2945 -2.4312 -0.4977
   15MOL0     H 1959   6.566   7.023   1.419  1.2710 -0.8350 -2.9506
   15MOL0     H 1960   6.461   7.186   1.587 -0.4427  2.0015  0.0656
   15MOL0     H 1961   6.356   7.074   1.507 -0.6043 -0.2253 -3.7574
   15MOL0     H 1962   7.116   7.608   1.819 -2.5254  1.1423 -1.2706
   15MOL0     H 1963   7.240   7.805   1.839 -4.3352  1.7808  0.9147
   15MOL0     H 1964   7.703   7.964   1.859  2.6928 -0.8055 -2.0649
   15MOL0     H 1965   7.860   8.153   1.864  1.4515  3.3431 -1.7614
   15MOL0     H 1966   9.466   8.227   1.092 -1.0560 -0.7311  0.0152
   15MOL0     H 1967   9.685   8.199   1.019 -0.3074 -0.7836 -0.7466
   15MOL0     H 1968  10.078   8.432   0.831 -2.6282  0.5344 -0.6721
   15MOL0     H 1969  10.319   8.352   0.807 -0.4187 -0.2771  0.6236
   15MOL0     H 1970  10.395   7.979   0.571  2.9648  1.2464 -1.3430
   15MOL0     H 1971  10.377   7.930   0.744  1.2141  0.4684  0.2080
   15MOL0     H 1972  10.640   8.007   0.646  0.4312  0.2992  2.1062
   15MOL0     H 1973  10.606   7.920   0.783 -1.5465 -1.6972  1.8671
   15MOL0     H 1974  10.563   7.825   0.480  1.6845  1.3722 -0.0326
   15MOL0     H 1975  10.486   7.738   0.623 -1.9755  2.5823  2.8335
   15MOL0     H 1976  10.709   7.694   0.715 -3.1336 -1.9075  0.0879
   15MOL0     H 1977  10.676   7.643   0.551 -2.1427  0.8656  0.0030
   15MOL0     H 1978  10.982   7.939   0.491  0.1203  1.6348 -0.3838
   15MOL0     H 1979  10.172   7.981   0.681  3.4428  1.7886 -1.0631
   15MOL0     H 1980   9.941   8.050   0.698  0.1407  0.3427 -1.6184
   16MOL0     O 1981  11.052   9.508   1.452  0.0044 -0.1278  0.2448
   16MOL0     C 1982  11.007   9.538   1.346 -1.0371  0.0016  0.3223
   16MOL0     O 1983  10.874   9.528   1.300 -0.7586 -0.2349 -0.7928
   16MOL0     C 1984  10.779   9.485   1.387 -0.6977  0.4135 -0.0690
   16MOL0     C 1985  10.769   9.478   1.523  0.3611 -0.1485 -0.7522
   16MOL0     C 1986  10.650   9.450   1.589 -0.4783 -0.0449 -0.4120
   16MOL0     C 1987  10.536   9.429   1.515  0.3278  0.1041  0.0987
   16MOL0     O 1988  10.417   9.401   1.579  0.3981  0.4472 -0.8838
   16MOL0     C 1989  10.387   9.495   1.688  0.0921  0.2795 -0.5512
   16MOL0     C 1990  10.229   9.493   1.700  0.0433 -0.8140 -0.3013
   16MOL0     C 1991  10.168   9.555   1.579  0.2800  0.3138  0.1533
   16MOL0     C 1992  10.180   9.711   1.551 -0.3617 -0.2028 -0.1260
   16MOL0     C 1993  10.094   9.767   1.439 -1.0919  0.4154  0.5746
   16MOL0     C 1994  10.091   9.692   1.297  1.0793  0.4548  0.3924
   16MOL0     C 1995  10.223   9.687   1.231  0.1269  0.1235 -0.3938
   16MOL0     C 1996  10.234   9.619   1.095  0.3283  1.6458 -0.4612
   16MOL0     N 1997  10.369   9.637   1.042 -0.0767 -0.7961  0.3422
   16MOL0     C 1998  10.416   9.739   0.958 -0.0658  0.7878 -0.0853
   16MOL0     C 1999  10.524   9.677   0.908 -0.6951 -0.6669 -0.4799
   16MOL0     C 2000  10.596   9.737   0.788  0.0717 -0.1256 -0.2165
   16MOL0     C 2001  10.714   9.823   0.832  0.2159 -0.0565 -0.3856
   16MOL0     C 2002  10.810   9.855   0.709  0.7806  0.2294  0.0274
   16MOL0     C 2003  10.773   9.969   0.627  0.2307 -0.7096  0.6699
   16MOL0     O 2004  10.858   9.962   0.509 -0.7471 -0.3165 -0.5143
   16MOL0     C 2005  10.930  10.065   0.472 -0.5344 -1.0639  0.3542
   16MOL0     C 2006  10.867  10.193   0.461 -0.9186 -0.5263  1.1594
   16MOL0     C 2007  10.927  10.295   0.379 -0.1027  0.4950 -0.0502
   16MOL0     C 2008  11.040  10.259   0.303  0.0958  0.5576  0.2580
   16MOL0     C 2009  11.092  10.355   0.209  0.2967  0.0654  0.1539
   16MOL0     O 2010  10.996  10.437   0.159 -0.8407 -1.0573  0.8480
   16MOL0     C 2011  11.033  10.520   0.057  0.8939  0.5234  0.9441
   16MOL0     C 2012  11.048  10.652   0.099 -0.0969  0.6831  0.4083
   16MOL0     C 2013  11.079  10.752   0.001  1.0015  1.2948  0.1270
   16MOL0     C 2014  11.077  10.719  -0.135  0.4348 -0.5625  0.3441
   16MOL0     O 2015  11.105  10.817  -0.231 -0.0944 -0.3501  0.0431
   16MOL0     C 2016  10.992  10.839  -0.310 -0.6106  0.5386 -0.3208
   16MOL0     C 2017  11.021  10.968  -0.389  0.2706  0.0273 -0.3226
   16MOL0     C 2018  10.927  11.001  -0.499  0.6660  0.0976  0.7622
   16MOL0     C 2019  10.944  11.147  -0.546  0.0376 -0.4938  0.5107
   16MOL0     C 2020  10.828  11.193  -0.632 -0.0331  0.1606  0.5927
   16MOL0     C 2021  10.839  11.145  -0.776 -0.2797 -0.9471  0.6267
   16MOL0     C 2022  10.744  11.203  -0.882  0.6182 -0.1438 -0.3047
   16MOL0     C 2023  10.744  11.116  -1.010 -0.2384  0.0989 -0.2958
   16MOL0    Cl 2024  10.616  11.169  -1.132  0.3437  0.2119 -0.1922
   16MOL0     C 2025  11.038  10.586  -0.180 -0.1220  0.0431  0.1616
   16MOL0     C 2026  11.010  10.490  -0.080 -0.0579  1.1081 -0.7368
   16MOL0     O 2027  11.206  10.345   0.167 -0.6599 -0.0083 -1.0009
   16MOL0     C 2028  11.108  10.134   0.325  0.3836 -0.2470  0.3455
   16MOL0     C 2029  11.046  10.037   0.404 -0.1092 -0.6106 -0.3520
   16MOL0     N 2030  10.558   9.566   0.971  0.1506  0.7269 -0.0412
   16MOL0     N 2031  10.460   9.542   1.054 -0.0291  0.0413 -1.1909
   16MOL0     C 2032  10.538   9.432   1.380  1.1242 -0.1044  0.2046
   16MOL0     C 2033  10.654   9.465   1.316  0.0152 -0.3748  0.3835
   16MOL0     C 2034  11.092   9.585   1.236 -0.2418  0.1553  0.6480
   16MOL0     C 2035  11.230   9.590   1.260  0.0907 -0.8112 -0.2992
   16MOL0     C 2036  11.323   9.626   1.160  0.8704  0.0210 -1.0656
   16MOL0     C 2037  11.267   9.651   1.030 -0.4511  0.6503  0.2078
   16MOL0     O 2038  11.342   9.680   0.917  0.0743  0.5621 -0.0613
   16MOL0     C 2039  11.486   9.685   0.935  0.2772  0.0082 -0.7610
   16MOL0     C 2040  11.562   9.708   0.801 -1.1280 -0.4079 -0.8050
   16MOL0     C 2041  11.575   9.570   0.740  0.0496 -0.2549 -0.3449
   16MOL0     C 2042  11.652   9.595   0.615  0.5349 -0.2285  0.0015
   16MOL0     C 2043  11.630   9.484   0.520  0.2727 -0.3567 -0.1332
   16MOL0     C 2044  11.628   9.401   0.427  0.9417  0.1945  0.3570
   16MOL0     C 2045  11.135   9.652   1.014  0.4299  0.5087 -0.5520
   16MOL0     C 2046  11.047   9.619   1.107 -0.0224  0.6956 -0.1843
   16MOL0     H 2047  10.863   9.496   1.576  1.0068 -1.0665 -1.5474
   16MOL0     H 2048  10.657   9.450   1.697  0.4028  1.8808 -0.4413
   16MOL0     H 2049  10.426   9.596   1.671 -2.2246  1.2146 -0.6244
   16MOL0     H 2050  10.434   9.449   1.775  0.1008 -1.9540 -1.6397
   16MOL0     H 2051  10.186   9.542   1.788 -2.6792 -1.0369 -1.4020
   16MOL0     H 2052  10.195   9.390   1.712  1.1323 -1.0832  0.6571
   16MOL0     H 2053  10.062   9.529   1.584  0.3634 -0.2548 -0.8607
   16MOL0     H 2054  10.219   9.504   1.497  1.0119  1.0266  0.1550
   16MOL0     H 2055  10.153   9.768   1.640  2.3369 -0.6406  1.0659
   16MOL0     H 2056  10.287   9.731   1.540 -0.3817  0.4962  0.8270
   16MOL0     H 2057  10.132   9.868   1.422 -0.8481  0.6847  2.4976
   16MOL0     H 2058   9.995   9.776   1.484 -1.1913  2.2657  0.0861
   16MOL0     H 2059  10.023   9.742   1.228 -0.1182 -2.7360 -0.9281
   16MOL0     H 2060  10.043   9.595   1.314  0.0121  0.3605 -2.6150
   16MOL0     H 2061  10.267   9.785   1.212 -1.5559  0.5766 -2.3522
   16MOL0     H 2062  10.294   9.627   1.288  1.7072  1.4199 -0.9313
   16MOL0     H 2063  10.160   9.667   1.029 -1.1336  0.2765  0.1400
   16MOL0     H 2064  10.228   9.511   1.104  4.6130  1.1503 -1.5998
   16MOL0     H 2065  10.369   9.825   0.911 -4.0127 -1.1513 -0.1585
   16MOL0     H 2066  10.533   9.798   0.723 -2.7191 -2.7115 -0.1877
   16MOL0     H 2067  10.619   9.649   0.727 -0.4447 -1.0549  0.8664
   16MOL0     H 2068  10.773   9.768   0.906  0.7045 -0.1519 -0.8339
   16MOL0     H 2069  10.688   9.916   0.883  0.8283 -0.3805  0.5321
   16MOL0     H 2070  10.914   9.868   0.738  1.3681 -1.0367 -1.3721
   16MOL0     H 2071  10.811   9.763   0.649 -0.4023 -1.3154  2.2174
   16MOL0     H 2072  10.780  10.065   0.679 -5.8032 -0.1885  1.1289
   16MOL0     H 2073  10.669   9.965   0.596  1.5027  0.8957 -5.1680
   16MOL0     H 2074  10.771  10.210   0.509 -2.4957 -1.5785 -1.3684
   16MOL0     H 2075  10.880  10.392   0.368  0.9997  1.1870  1.0816
   16MOL0     H 2076  11.042  10.687   0.202  2.9930 -0.3130  1.0441
   16MOL0     H 2077  11.106  10.855   0.021  0.4632  1.1814  1.5856
   16MOL0     H 2078  10.907  10.849  -0.243 -0.9368 -0.4163 -0.5766
   16MOL0     H 2079  10.973  10.751  -0.371  2.3119 -1.2900  1.1699
   16MOL0     H 2080  11.117  10.954  -0.441  0.6365  0.5350  0.2093
   16MOL0     H 2081  11.027  11.057  -0.326  0.0798  0.0398 -0.3230
   16MOL0     H 2082  10.823  10.985  -0.471  0.1123  1.8115 -0.1322
   16MOL0     H 2083  10.937  10.942  -0.591 -1.8868  1.1162 -0.2549
   16MOL0     H 2084  10.951  11.208  -0.456 -1.1271  1.8006 -0.8651
   16MOL0     H 2085  11.040  11.149  -0.599 -0.1093  0.3066  0.2699
   16MOL0     H 2086  10.826  11.302  -0.637 -1.5537  0.1594  0.5342
   16MOL0     H 2087  10.726  11.166  -0.601 -0.9211  1.8209 -0.6872
   16MOL0     H 2088  10.831  11.036  -0.765  1.0342 -1.1244 -0.0030
   16MOL0     H 2089  10.936  11.163  -0.823 -1.7562  2.1215 -1.5086
   16MOL0     H 2090  10.644  11.200  -0.838  1.3044 -1.2298  1.2770
   16MOL0     H 2091  10.774  11.303  -0.916  3.1386 -1.3676 -2.0205
   16MOL0     H 2092  10.717  11.017  -0.970 -0.6218  1.5159  3.2685
   16MOL0     H 2093  10.841  11.113  -1.060 -0.7089 -0.1438 -1.2256
   16MOL0     H 2094  11.026  10.567  -0.287  0.6213 -0.5250  0.1763
   16MOL0     H 2095  10.993  10.388  -0.112  1.8512  1.1397 -2.0718
   16MOL0     H 2096  11.205  10.116   0.280 -0.3141 -0.6914 -1.0582
   16MOL0     H 2097  11.098   9.944   0.425 -2.3271 -1.7635  0.3501
   16MOL0     H 2098  10.448   9.406   1.325  2.1457  0.7158 -1.9448
   16MOL0     H 2099  10.648   9.470   1.208  0.7700 -0.2923  0.3431
   16MOL0     H 2100  11.263   9.556   1.357  0.1541  0.4194  0.1224
   16MOL0     H 2101  11.428   9.636   1.187  0.6800 -1.5399  0.4189
   16MOL0     H 2102  11.530   9.594   0.977 -1.8718 -0.6799  0.1433
   16MOL0     H 2103  11.515   9.765   1.003 -3.0201  2.5199 -2.0120
   16MOL0     H 2104  11.525   9.788   0.736  1.6284  0.3880 -1.5348
   16MOL0     H 2105  11.664   9.743   0.816 -0.7083 -1.8482 -0.1868
   16MOL0     H 2106  11.474   9.536   0.713 -0.3891  0.6550  0.1130
   16MOL0     H 2107  11.634   9.503   0.802  3.2665  1.5005 -1.3004
   16MOL0     H 2108  11.628   9.684   0.556 -0.5033 -0.1779  0.4649
   16MOL0     H 2109  11.758   9.596   0.642  1.4074 -1.0493 -3.0534
   16MOL0     H 2110  11.620   9.327   0.351  1.1001  0.3653  0.1733
   16MOL0     H 2111  11.097   9.677   0.915  1.5710  3.5263 -0.3216
   16MOL0     H 2112  10.947   9.657   1.083  1.1191  2.2560 -3.0037
   17MOL0     O 2113  10.195   0.083   7.550  0.2121 -0.2153 -0.1007
   17MOL0     C 2114  10.234   0.031   7.445 -0.0802  0.0074  0.9758
   17MOL0     O 2115  10.162  -0.038   7.358  0.2206 -0.4129 -0.4893
   17MOL0     C 2116  10.024  -0.034   7.378 -0.9970  0.1305  0.4494
   17MOL0     C 2117   9.941   0.068   7.335 -0.8666  0.1772 -0.2367
   17MOL0     C 2118   9.811   0.075   7.342  0.3267  1.0146  0.0795
   17MOL0     C 2119   9.741  -0.036   7.399  0.1799  0.4722  0.1576
   17MOL0     O 2120   9.601  -0.049   7.393  0.7619  0.1261  0.5731
   17MOL0     C 2121   9.529   0.020   7.293 -0.9681 -0.2621 -0.3305
   17MOL0     C 2122   9.382   0.058   7.356 -0.8467  0.8090  1.1080
   17MOL0     C 2123   9.300  -0.069   7.379  0.2243 -1.1430 -0.3397
   17MOL0     C 2124   9.154  -0.053   7.428 -0.4066 -0.1032 -0.0047
   17MOL0     C 2125   9.084  -0.188   7.468 -0.1049  0.9391  0.6898
   17MOL0     C 2126   8.936  -0.168   7.487  0.3978 -1.0276 -0.8528
   17MOL0     C 2127   8.872  -0.313   7.485  0.7873  0.1097 -0.1307
   17MOL0     C 2128   8.723  -0.323   7.533 -0.1358  0.3761  0.5391
   17MOL0     N 2129   8.637  -0.266   7.422 -0.0117 -0.2581 -0.4674
   17MOL0     C 2130   8.611  -0.132   7.396 -0.0633 -0.0678  0.9697
   17MOL0     C 2131   8.502  -0.135   7.314 -0.4311 -0.2038 -0.1115
   17MOL0     C 2132   8.439  -0.018   7.248  0.9225  0.1038  0.4884
   17MOL0     C 2133   8.290  -0.029   7.230 -0.5985  0.2950 -0.5275
   17MOL0     C 2134   8.231   0.089   7.149 -0.3587  0.0783  0.5553
   17MOL0     C 2135   8.086   0.075   7.108  0.6623 -0.2873 -0.9216
   17MOL0     O 2136   8.012   0.048   7.228 -0.5302 -0.6343 -0.2559
   17MOL0     C 2137   7.880   0.086   7.234  1.3511 -0.6042 -0.1054
   17MOL0     C 2138   7.800   0.094   7.122  0.5111 -0.5646  0.1042
   17MOL0     C 2139   7.671   0.151   7.126  0.1520 -0.6314 -0.2901
   17MOL0     C 2140   7.619   0.191   7.258  1.2356  0.1078  1.1148
   17MOL0     C 2141   7.470   0.230   7.295  0.6706  0.5655  0.1800
   17MOL0     O 2142   7.379   0.210   7.196  0.2505 -0.1726 -0.1971
   17MOL0     C 2143   7.248   0.241   7.227  0.8007  0.6104  0.1908
   17MOL0     C 2144   7.164   0.138   7.268 -0.1388 -0.1815 -0.6486
   17MOL0     C 2145   7.034   0.173   7.307  0.1858  0.3203  0.3070
   17MOL0     C 2146   6.990   0.306   7.302  0.5388  0.2554  0.7077
   17MOL0     O 2147   6.871   0.359   7.348 -0.6015  0.7256 -0.5168
   17MOL0     C 2148   6.789   0.290   7.443  0.2408 -0.9770 -0.0104
   17MOL0     C 2149   6.670   0.222   7.365 -0.0905  0.0566 -0.0098
   17MOL0     C 2150   6.568   0.328   7.302 -0.7620 -0.3061  0.4320
   17MOL0     C 2151   6.605   0.396   7.169 -0.7940 -0.1225  0.8967
   17MOL0     C 2152   6.500   0.509   7.150  0.3849  0.1992  0.2259
   17MOL0     C 2153   6.483   0.565   7.001  0.2351  0.6811  0.5389
   17MOL0     C 2154   6.420   0.708   7.003  0.7535  0.1865 -0.4267
   17MOL0     C 2155   6.282   0.718   7.074  0.0983  0.7539 -0.4537
   17MOL0    Cl 2156   6.174   0.644   6.951 -0.0285 -0.1877 -0.4182
   17MOL0     C 2157   7.077   0.397   7.243  0.3058  0.2903  1.0986
   17MOL0     C 2158   7.205   0.365   7.200  1.5643 -0.2118 -1.0397
   17MOL0     O 2159   7.445   0.277   7.410  0.2263 -0.0211  0.0873
   17MOL0     C 2160   7.705   0.175   7.369  1.6607  0.4935  0.4169
   17MOL0     C 2161   7.838   0.127   7.360 -0.5446  0.3463  0.4080
   17MOL0     N 2162   8.471  -0.270   7.296 -0.2230 -0.1380  0.0354
   17MOL0     N 2163   8.554  -0.351   7.353 -0.7668  0.0169  0.6366
   17MOL0     C 2164   9.820  -0.143   7.437  0.5842 -0.5980 -0.0203
   17MOL0     C 2165   9.958  -0.144   7.434 -1.0237 -0.2397  1.2465
   17MOL0     C 2166  10.372   0.044   7.408 -0.4929 -0.4423 -0.7368
   17MOL0     C 2167  10.444   0.157   7.451 -1.3177 -0.5661 -0.2627
   17MOL0     C 2168  10.583   0.166   7.412  0.8014  0.3546  0.0207
   17MOL0     C 2169  10.647   0.068   7.332  0.5282 -0.3902  0.6646
   17MOL0     O 2170  10.778   0.094   7.297  0.1871  0.3284 -0.3916
   17MOL0     C 2171  10.852  -0.015   7.239  0.4713  0.5200 -0.4678
   17MOL0     C 2172  10.999   0.033   7.232  0.1445 -0.2086 -0.4952
   17MOL0     C 2173  11.082  -0.051   7.143 -0.3052  0.0602  0.0771
   17MOL0     C 2174  11.226  -0.008   7.164  1.0190 -0.5698 -0.7154
   17MOL0     C 2175  11.306  -0.040   7.051  0.2520  0.4611  0.2644
   17MOL0     C 2176  11.371  -0.100   6.965 -0.4273 -0.2903  0.0373
   17MOL0     C 2177  10.574  -0.048   7.299 -0.1556 -0.5320  0.2520
   17MOL0     C 2178  10.442  -0.057   7.329  0.3846  0.2493 -0.0423
   17MOL0     H 2179   9.995   0.146   7.283  0.6318 -0.1793  0.7203
   17MOL0     H 2180   9.769   0.168   7.305 -1.6528 -0.0400 -0.5050
   17MOL0     H 2181   9.529  -0.045   7.206 -1.2268 -1.4053  0.5059
   17MOL0     H 2182   9.571   0.117   7.263  1.1779 -1.6691 -2.1169
   17MOL0     H 2183   9.319   0.128   7.299  1.5300  0.4877 -2.2319
   17MOL0     H 2184   9.406   0.096   7.456  0.8577 -0.3993  1.2023
   17MOL0     H 2185   9.353  -0.127   7.455  0.3700 -2.4685 -1.4096
   17MOL0     H 2186   9.314  -0.138   7.295 -1.0954 -2.4990  0.4984
   17MOL0     H 2187   9.157   0.011   7.517  1.5995  1.9409 -1.4566
   17MOL0     H 2188   9.093  -0.001   7.353 -1.4136 -2.0913 -0.6366
   17MOL0     H 2189   9.122  -0.239   7.557  1.1698 -0.9664 -0.8609
   17MOL0     H 2190   9.088  -0.261   7.386  0.6224  1.2958  0.4019
   17MOL0     H 2191   8.900  -0.109   7.403  1.4315  0.4460 -0.3081
   17MOL0     H 2192   8.898  -0.108   7.570 -1.5815 -0.0544 -2.3775
   17MOL0     H 2193   8.870  -0.353   7.383 -0.8350  0.6325 -0.3393
   17MOL0     H 2194   8.936  -0.382   7.541  2.2499 -0.4541 -2.3613
   17MOL0     H 2195   8.712  -0.275   7.630 -0.1025 -0.6959  1.0846
   17MOL0     H 2196   8.688  -0.426   7.541  0.6522  0.1508  1.1984
   17MOL0     H 2197   8.653  -0.037   7.429  1.2758 -0.0470 -0.6556
   17MOL0     H 2198   8.491  -0.003   7.153 -1.8829  0.0931 -1.1714
   17MOL0     H 2199   8.452   0.068   7.315 -3.6429  0.9913  0.5878
   17MOL0     H 2200   8.241  -0.031   7.328  1.1757  0.3754  0.4134
   17MOL0     H 2201   8.254  -0.122   7.185 -2.5784  1.0974 -0.7243
   17MOL0     H 2202   8.238   0.182   7.205  1.1681  0.4788 -0.2220
   17MOL0     H 2203   8.285   0.104   7.055  0.3176  1.1812  1.0975
   17MOL0     H 2204   8.072  -0.004   7.034  0.1968 -1.8004  0.6925
   17MOL0     H 2205   8.043   0.159   7.053 -1.1449 -0.2491  0.4392
   17MOL0     H 2206   7.838   0.063   7.025  3.3818 -0.2448  1.0192
   17MOL0     H 2207   7.601   0.150   7.044  1.6866 -2.0344 -1.6608
   17MOL0     H 2208   7.196   0.035   7.268 -0.2097 -0.2257  0.6809
   17MOL0     H 2209   6.970   0.094   7.345  0.4808  0.7143  1.6784
   17MOL0     H 2210   6.761   0.367   7.517 -0.0412 -2.3378  1.3503
   17MOL0     H 2211   6.844   0.209   7.492  1.0284 -0.5858 -0.2322
   17MOL0     H 2212   6.612   0.171   7.443 -0.2571  0.5765  0.2089
   17MOL0     H 2213   6.702   0.147   7.292 -3.5880 -1.7101  0.0420
   17MOL0     H 2214   6.552   0.405   7.379 -1.7397  0.4286 -0.4707
   17MOL0     H 2215   6.472   0.280   7.282 -1.1146  1.1149 -1.5414
   17MOL0     H 2216   6.702   0.444   7.181 -0.6660 -0.1940  0.1925
   17MOL0     H 2217   6.600   0.326   7.085  0.9085 -0.2633  0.8803
   17MOL0     H 2218   6.534   0.590   7.216  0.9085 -0.2648  0.5414
   17MOL0     H 2219   6.403   0.471   7.183  0.3010 -0.4306 -0.7041
   17MOL0     H 2220   6.426   0.490   6.945  1.2238  0.0578  0.3317
   17MOL0     H 2221   6.584   0.576   6.959 -0.4780  1.0480 -1.1459
   17MOL0     H 2222   6.475   0.786   7.058  1.7554 -0.8991  0.1545
   17MOL0     H 2223   6.401   0.754   6.906  0.9137  1.3869  0.0907
   17MOL0     H 2224   6.243   0.817   7.099 -0.2437  0.0079  2.3580
   17MOL0     H 2225   6.293   0.663   7.168 -0.0362  0.7116 -0.4634
   17MOL0     H 2226   7.043   0.499   7.229  1.6578  0.4970 -1.1289
   17MOL0     H 2227   7.266   0.442   7.155  1.3244  0.1465 -0.7562
   17MOL0     H 2228   7.677   0.215   7.466  0.3909  3.2365 -0.9570
   17MOL0     H 2229   7.909   0.112   7.441 -1.2433 -1.3281  0.7473
   17MOL0     H 2230   9.757  -0.222   7.476 -2.6345  2.1552  0.7674
   17MOL0     H 2231  10.005  -0.234   7.473  0.4570  0.7771  1.8847
   17MOL0     H 2232  10.399   0.242   7.501 -0.9059 -0.2786 -0.3772
   17MOL0     H 2233  10.639   0.256   7.435 -0.8853  0.9061  2.3762
   17MOL0     H 2234  10.802  -0.040   7.145 -1.8624  3.7797 -0.2711
   17MOL0     H 2235  10.858  -0.098   7.310 -0.1043  2.1676  1.6221
   17MOL0     H 2236  10.991   0.132   7.187  0.2948  0.2029  0.3604
   17MOL0     H 2237  11.048   0.039   7.330  1.6246  2.8542 -1.3105
   17MOL0     H 2238  11.041  -0.032   7.044  1.3971  0.4333 -0.5941
   17MOL0     H 2239  11.083  -0.159   7.161  2.1030  0.2906  1.8133
   17MOL0     H 2240  11.231   0.101   7.177 -0.4229 -0.4655 -0.8793
   17MOL0     H 2241  11.270  -0.058   7.251 -0.0934 -1.8340 -0.8431
   17MOL0     H 2242  11.422  -0.157   6.890 -0.5462 -2.1658  1.3146
   17MOL0     H 2243  10.618  -0.139   7.262  2.5339  0.6248  0.4147
   17MOL0     H 2244  10.381  -0.138   7.289  0.2741  0.0515  0.5214
   18MOL0     O 2245   9.109   0.688  10.359  0.2473 -0.7270  0.1735
   18MOL0     C 2246   9.216   0.754  10.331  1.4977 -0.9752 -0.4537
   18MOL0     O 2247   9.240   0.826  10.213  0.1425  0.6187 -0.0555
   18MOL0     C 2248   9.157   0.825  10.105 -0.1149 -0.0819 -0.5393
   18MOL0     C 2249   9.209   0.860   9.984  0.7623 -0.4271 -0.0438
   18MOL0     C 2250   9.132   0.883   9.863  0.9226  0.5860 -0.5820
   18MOL0     C 2251   8.988   0.859   9.867 -0.1507 -0.5850  0.6816
   18MOL0     O 2252   8.921   0.892   9.755 -0.1768 -0.2173  0.2940
   18MOL0     C 2253   8.792   0.835   9.734 -0.1699 -0.5564  0.4487
   18MOL0     C 2254   8.744   0.875   9.596  0.3032 -0.5095 -0.4188
   18MOL0     C 2255   8.725   1.027   9.577  0.1993 -0.1011  0.6051
   18MOL0     C 2256   8.683   1.052   9.431  0.7267 -0.1353 -0.2928
   18MOL0     C 2257   8.667   1.199   9.385  0.1136 -0.0066 -0.2739
   18MOL0     C 2258   8.575   1.187   9.262 -1.1142 -0.3166  0.4756
   18MOL0     C 2259   8.544   1.335   9.214  0.9404 -0.5471 -1.8330
   18MOL0     C 2260   8.409   1.341   9.147 -0.1127  0.0153  0.3978
   18MOL0     N 2261   8.419   1.325   8.999  0.6363  1.0810  0.6468
   18MOL0     C 2262   8.401   1.195   8.939  0.1742  0.1323 -0.1852
   18MOL0     C 2263   8.378   1.227   8.812  0.2735  0.6108  0.1082
   18MOL0     C 2264   8.330   1.137   8.704 -0.0524  0.0400 -0.7848
   18MOL0     C 2265   8.218   1.051   8.777 -0.9800 -0.0040 -0.2525
   18MOL0     C 2266   8.148   0.970   8.663  0.0053 -0.7287 -0.8269
   18MOL0     C 2267   8.037   1.057   8.604 -0.3954  0.0693 -0.2983
   18MOL0     O 2268   7.972   0.978   8.508 -0.0783 -0.4598 -0.0440
   18MOL0     C 2269   7.843   0.998   8.476 -0.1806 -0.0109  0.0860
   18MOL0     C 2270   7.790   1.125   8.478  0.8745 -0.5943 -0.4387
   18MOL0     C 2271   7.654   1.145   8.430  0.2773  0.7038  0.2904
   18MOL0     C 2272   7.594   1.047   8.348  0.4420 -0.5322 -0.1362
   18MOL0     C 2273   7.474   1.079   8.267  0.6558 -0.5140  0.7714
   18MOL0     O 2274   7.407   0.981   8.187 -0.1492 -0.5611 -0.6460
   18MOL0     C 2275   7.290   1.005   8.116 -0.1476 -0.0402 -0.2138
   18MOL0     C 2276   7.237   1.116   8.065 -0.1596  0.2013  1.2779
   18MOL0     C 2277   7.116   1.123   7.997 -0.2565  0.1209 -0.3722
   18MOL0     C 2278   7.036   1.012   7.987 -0.3775 -0.0185  0.1386
   18MOL0     O 2279   6.909   1.012   7.942 -0.1968  0.7872  0.8683
   18MOL0     C 2280   6.839   1.131   7.903 -0.0620 -0.9559 -1.3213
   18MOL0     C 2281   6.710   1.094   7.826  0.0284 -0.4400 -0.3348
   18MOL0     C 2282   6.632   1.218   7.781  1.1207  0.7248  0.4461
   18MOL0     C 2283   6.545   1.191   7.660  0.4646  0.1071 -0.0573
   18MOL0     C 2284   6.456   1.073   7.666 -0.0387  0.2278 -0.4346
   18MOL0     C 2285   6.332   1.093   7.766  0.0632  0.2249 -1.3669
   18MOL0     C 2286   6.246   0.965   7.759  0.7396 -1.0932 -0.0828
   18MOL0     C 2287   6.321   0.823   7.790  1.7449 -0.4677  0.0968
   18MOL0    Cl 2288   6.187   0.710   7.839  0.1019  0.2833 -0.0925
   18MOL0     C 2289   7.093   0.894   8.039  0.5668 -0.5905  1.0028
   18MOL0     C 2290   7.219   0.891   8.093 -0.0752  0.3034 -0.0994
   18MOL0     O 2291   7.449   1.200   8.264  0.2633  0.1305 -0.2180
   18MOL0     C 2292   7.653   0.922   8.340  0.6652 -0.1292 -0.1344
   18MOL0     C 2293   7.772   0.900   8.412  0.5456 -0.1261 -0.8804
   18MOL0     N 2294   8.402   1.362   8.796 -0.0984  0.4734  0.0660
   18MOL0     N 2295   8.421   1.422   8.909  0.1614  0.5928 -0.2288
   18MOL0     C 2296   8.932   0.830   9.988 -0.2027  0.4579  0.0260
   18MOL0     C 2297   9.016   0.810  10.105 -0.2238 -0.1485 -0.6587
   18MOL0     C 2298   9.328   0.751  10.431 -0.6149  0.1564  0.6499
   18MOL0     C 2299   9.427   0.848  10.435 -0.0968  0.6638  0.2719
   18MOL0     C 2300   9.538   0.842  10.520  0.1060 -0.8016  0.9395
   18MOL0     C 2301   9.550   0.737  10.605  0.0295  0.5958 -0.0319
   18MOL0     O 2302   9.663   0.730  10.689 -0.1562  0.3627 -0.1435
   18MOL0     C 2303   9.661   0.673  10.819 -0.1165  0.0377  0.6948
   18MOL0     C 2304   9.599   0.770  10.920 -0.2622 -0.2197 -0.2431
   18MOL0     C 2305   9.577   0.715  11.062  0.1358  0.9650  0.5510
   18MOL0     C 2306   9.500   0.808  11.149  0.1195 -0.4992  0.0006
   18MOL0     C 2307   9.583   0.905  11.229 -0.6812 -0.6527  0.5122
   18MOL0     C 2308   9.650   0.981  11.290 -0.6771  0.3465  0.7716
   18MOL0     C 2309   9.451   0.636  10.605 -0.3836 -0.5775  0.6810
   18MOL0     C 2310   9.341   0.641  10.521 -0.0490 -0.4824  0.9363
   18MOL0     H 2311   9.314   0.887   9.988  0.3668  1.0992  1.0005
   18MOL0     H 2312   9.186   0.910   9.773  0.8391 -3.6779 -2.1639
   18MOL0     H 2313   8.715   0.860   9.807 -0.2591 -1.9229  0.8331
   18MOL0     H 2314   8.796   0.726   9.734  1.1110 -0.6392 -2.7247
   18MOL0     H 2315   8.646   0.832   9.575  0.3451 -1.0496  0.4505
   18MOL0     H 2316   8.814   0.839   9.520  1.9330 -0.2785  0.9218
   18MOL0     H 2317   8.821   1.072   9.602  0.7067 -0.9440  0.2212
   18MOL0     H 2318   8.640   1.073   9.628  0.2254 -1.3488  1.8467
   18MOL0     H 2319   8.745   0.995   9.362 -0.4406 -0.0471 -1.4629
   18MOL0     H 2320   8.583   1.008   9.420  0.7547  0.1679 -2.1478
   18MOL0     H 2321   8.757   1.257   9.362 -0.3431  0.8249 -0.0154
   18MOL0     H 2322   8.607   1.248   9.462  2.2737 -0.2459  1.6798
   18MOL0     H 2323   8.479   1.141   9.290 -2.2176 -1.7853 -4.6411
   18MOL0     H 2324   8.617   1.121   9.186 -0.4372 -0.0167  0.5799
   18MOL0     H 2325   8.535   1.394   9.305  1.1336 -3.3425  0.1292
   18MOL0     H 2326   8.629   1.381   9.163  0.5919 -0.9255 -2.7763
   18MOL0     H 2327   8.377   1.446   9.153  2.6379  0.8469  2.3688
   18MOL0     H 2328   8.341   1.271   9.196 -0.3139  0.5410  0.8785
   18MOL0     H 2329   8.391   1.102   8.993 -1.9720 -0.4742 -1.5268
   18MOL0     H 2330   8.402   1.070   8.657 -1.2135 -1.0767 -1.0521
   18MOL0     H 2331   8.297   1.211   8.630  0.1473  0.8454 -0.0882
   18MOL0     H 2332   8.155   1.118   8.836  0.4701  1.1461  0.0314
   18MOL0     H 2333   8.272   0.985   8.845  0.4576 -0.3168 -1.6418
   18MOL0     H 2334   8.215   0.933   8.584 -1.5123 -4.1212 -0.6977
   18MOL0     H 2335   8.095   0.881   8.698 -2.0104  0.5702 -0.4194
   18MOL0     H 2336   8.072   1.146   8.552  0.7562 -0.6359 -0.7886
   18MOL0     H 2337   7.974   1.086   8.688  1.4466  0.2920  1.0661
   18MOL0     H 2338   7.833   1.218   8.513 -1.6061  0.4636  0.0181
   18MOL0     H 2339   7.612   1.243   8.450 -0.7751  0.6273 -1.3494
   18MOL0     H 2340   7.301   1.202   8.080 -1.3872  1.0489  1.7775
   18MOL0     H 2341   7.078   1.222   7.970  0.8734  0.8870  0.7875
   18MOL0     H 2342   6.898   1.182   7.827 -2.1037  2.5369 -0.7820
   18MOL0     H 2343   6.828   1.191   7.994  3.0166 -0.8476 -0.9165
   18MOL0     H 2344   6.648   1.036   7.895 -1.7443  3.0144  1.2281
   18MOL0     H 2345   6.731   1.033   7.738  0.5754 -0.8002  0.0367
   18MOL0     H 2346   6.690   1.306   7.752 -0.1615  0.9632 -1.5620
   18MOL0     H 2347   6.579   1.258   7.869  1.3370 -1.3243  1.5612
   18MOL0     H 2348   6.493   1.286   7.643 -1.1951 -0.3056  2.3067
   18MOL0     H 2349   6.603   1.181   7.568  0.3608  2.2804 -0.4276
   18MOL0     H 2350   6.503   0.975   7.682 -0.8826 -0.0288  0.5631
   18MOL0     H 2351   6.412   1.066   7.566  1.2569 -2.6640 -0.9184
   18MOL0     H 2352   6.273   1.180   7.737 -0.5460 -0.0077 -0.8472
   18MOL0     H 2353   6.370   1.112   7.867 -2.3349 -2.4870  0.1840
   18MOL0     H 2354   6.172   0.986   7.837 -0.5211  2.2947 -1.9817
   18MOL0     H 2355   6.194   0.958   7.663  3.3055 -1.4030 -1.5461
   18MOL0     H 2356   6.381   0.827   7.881  2.3225 -1.3901 -0.2287
   18MOL0     H 2357   6.396   0.793   7.717  0.8234  1.1125 -1.5792
   18MOL0     H 2358   7.057   0.795   8.012 -4.0087  0.3161  2.8228
   18MOL0     H 2359   7.271   0.800   8.122  0.9056  0.8689 -0.0543
   18MOL0     H 2360   7.607   0.843   8.281 -1.2827  0.0431  1.0645
   18MOL0     H 2361   7.817   0.802   8.421  0.5325 -0.0731 -0.1013
   18MOL0     H 2362   8.824   0.827   9.988 -0.2198 -1.0741  1.8596
   18MOL0     H 2363   8.969   0.785  10.200  0.2217 -1.1825 -0.6911
   18MOL0     H 2364   9.433   0.934  10.369  4.3682 -0.1962 -0.7296
   18MOL0     H 2365   9.619   0.913  10.504  0.2554 -1.1634  0.0310
   18MOL0     H 2366   9.764   0.647  10.845 -0.3771 -1.1129  0.6243
   18MOL0     H 2367   9.600   0.584  10.807 -1.0303  0.7802 -0.3514
   18MOL0     H 2368   9.667   0.855  10.936  0.9331 -1.4312  1.5544
   18MOL0     H 2369   9.498   0.792  10.883 -0.5754 -0.2559  0.5669
   18MOL0     H 2370   9.681   0.698  11.092  0.5866 -0.6807 -1.6729
   18MOL0     H 2371   9.538   0.614  11.078  1.6483  0.4438  1.2006
   18MOL0     H 2372   9.413   0.859  11.106  1.8401  3.4057  0.8036
   18MOL0     H 2373   9.455   0.739  11.222  2.9394 -1.6067  0.8350
   18MOL0     H 2374   9.716   1.043  11.347  0.2824 -1.1203  1.3285
   18MOL0     H 2375   9.465   0.545  10.662 -0.7232  0.9434  3.3638
   18MOL0     H 2376   9.266   0.562  10.523  1.2869 -1.8150  1.0173
   19MOL0     O 2377   3.059   6.313  10.593  0.6508 -0.4731  0.3785
   19MOL0     C 2378   3.146   6.236  10.585 -0.2171  1.7507 -0.2340
   19MOL0     O 2379   3.130   6.111  10.523 -0.1697 -0.4351 -0.4669
   19MOL0     C 2380   3.014   6.089  10.458  0.0995  1.2099  0.3150
   19MOL0     C 2381   3.008   6.086  10.317 -0.4498  0.4925 -0.1554
   19MOL0     C 2382   2.888   6.042  10.259  0.0762 -0.0800 -0.0525
   19MOL0     C 2383   2.765   6.026  10.325 -0.7767  1.1714 -0.2041
   19MOL0     O 2384   2.663   5.984  10.245  0.3183  0.8775  0.5451
   19MOL0     C 2385   2.544   5.954  10.311  0.6050 -0.0841  0.7284
   19MOL0     C 2386   2.456   6.079  10.281 -0.1733  0.2629 -0.3933
   19MOL0     C 2387   2.323   6.083  10.361  0.2605  0.0069 -0.4867
   19MOL0     C 2388   2.222   5.996  10.294 -0.2038 -0.2711 -0.8994
   19MOL0     C 2389   2.143   6.062  10.175  0.3488  0.5985  0.3327
   19MOL0     C 2390   2.047   6.168  10.226 -0.2887 -0.0645  0.5881
   19MOL0     C 2391   1.946   6.113  10.330 -0.6796  0.1576  0.2861
   19MOL0     C 2392   1.825   6.204  10.356  0.2407 -0.5815 -0.0975
   19MOL0     N 2393   1.761   6.158  10.477  0.3274  0.1410  0.3681
   19MOL0     C 2394   1.673   6.044  10.472  0.5198  0.3562 -0.5105
   19MOL0     C 2395   1.615   6.032  10.592  0.2226  1.3793  0.9782
   19MOL0     C 2396   1.522   5.921  10.639  0.3307 -0.1492  0.0303
   19MOL0     C 2397   1.577   5.781  10.629 -0.2865 -0.3854 -0.2974
   19MOL0     C 2398   1.466   5.683  10.648 -0.7337 -0.4853  0.4585
   19MOL0     C 2399   1.425   5.647  10.792  0.2607  0.4139  0.4242
   19MOL0     O 2400   1.533   5.556  10.845 -0.4876  0.3537 -0.0665
   19MOL0     C 2401   1.558   5.579  10.982  0.0002  0.4039  1.0015
   19MOL0     C 2402   1.668   5.652  11.012 -0.2995  0.6559  0.2548
   19MOL0     C 2403   1.700   5.689  11.144  0.5350 -0.2173 -1.2640
   19MOL0     C 2404   1.618   5.637  11.250  0.6665  0.7381 -0.5827
   19MOL0     C 2405   1.656   5.656  11.393  0.0997  0.0008 -0.6629
   19MOL0     O 2406   1.765   5.740  11.423  0.0472  0.1381  0.4247
   19MOL0     C 2407   1.848   5.716  11.530  0.2771 -0.1619 -0.7259
   19MOL0     C 2408   1.857   5.824  11.622  0.2159 -0.2539  0.5747
   19MOL0     C 2409   1.953   5.818  11.727 -0.6614  0.8074  1.3495
   19MOL0     C 2410   2.025   5.699  11.743  0.2957  0.4642 -0.7321
   19MOL0     O 2411   2.119   5.677  11.846  0.6782 -0.5128 -0.8848
   19MOL0     C 2412   2.225   5.761  11.856  0.0122  0.0165 -0.5533
   19MOL0     C 2413   2.354   5.707  11.796  0.1910  0.8051 -0.1417
   19MOL0     C 2414   2.354   5.721  11.645  0.0383  0.5550 -0.0424
   19MOL0     C 2415   2.499   5.686  11.593  0.0024 -0.8261 -0.4053
   19MOL0     C 2416   2.506   5.693  11.439  0.5979 -0.0087  0.1061
   19MOL0     C 2417   2.648   5.652  11.388 -0.4663  0.1635 -0.4438
   19MOL0     C 2418   2.755   5.763  11.399 -0.6111  0.2680 -0.3042
   19MOL0     C 2419   2.879   5.721  11.326  0.2017  0.3340 -0.2342
   19MOL0    Cl 2420   2.988   5.605  11.420 -0.1985  0.3601  0.0312
   19MOL0     C 2421   2.013   5.592  11.647 -0.2570 -1.4842  0.2879
   19MOL0     C 2422   1.925   5.601  11.541  0.2488 -0.5907  1.0693
   19MOL0     O 2423   1.601   5.575  11.467 -0.1792 -0.6454  0.4614
   19MOL0     C 2424   1.513   5.547  11.215  0.8753 -0.3087  0.5315
   19MOL0     C 2425   1.470   5.516  11.084  0.4733 -1.1460 -0.5091
   19MOL0     N 2426   1.670   6.130  10.669 -1.2962  0.1107  0.0907
   19MOL0     N 2427   1.754   6.204  10.604  0.0473  0.4749  0.8652
   19MOL0     C 2428   2.771   6.046  10.467  0.8504 -0.0525 -0.6884
   19MOL0     C 2429   2.897   6.072  10.527  0.2031  0.5443 -1.2300
   19MOL0     C 2430   3.257   6.251  10.675 -0.0515  0.5594 -0.6662
   19MOL0     C 2431   3.350   6.147  10.693 -0.4788 -0.0020  0.1209
   19MOL0     C 2432   3.451   6.153  10.795  0.9575 -0.1152 -0.6082
   19MOL0     C 2433   3.460   6.277  10.866 -0.6039 -0.7378  0.8697
   19MOL0     O 2434   3.548   6.288  10.970  1.0461  0.5453  0.0714
   19MOL0     C 2435   3.497   6.282  11.103  0.1178  0.2294  0.6982
   19MOL0     C 2436   3.597   6.303  11.212  0.1276 -0.5972 -0.4331
   19MOL0     C 2437   3.674   6.429  11.178  0.4032 -0.3865  0.4176
   19MOL0     C 2438   3.790   6.448  11.288  0.2035  0.7957 -0.5651
   19MOL0     C 2439   3.741   6.487  11.419 -0.2006  0.3191 -0.4603
   19MOL0     C 2440   3.700   6.531  11.525 -0.5072 -1.2425 -0.1979
   19MOL0     C 2441   3.374   6.376  10.839  0.0969  0.3859  0.3570
   19MOL0     C 2442   3.276   6.374  10.742  0.1761 -0.5098 -0.2676
   19MOL0     H 2443   3.104   6.098  10.268 -0.0513  1.0812  0.7468
   19MOL0     H 2444   2.887   6.034  10.151  1.3168  0.9158 -0.1524
   19MOL0     H 2445   2.554   5.940  10.419  3.7426  0.9147  0.6502
   19MOL0     H 2446   2.511   5.857  10.272 -1.1295 -0.5700  3.1787
   19MOL0     H 2447   2.439   6.075  10.173 -1.1750  0.4742 -0.2514
   19MOL0     H 2448   2.520   6.162  10.313  0.7553 -0.0036 -1.4930
   19MOL0     H 2449   2.290   6.186  10.374  0.0405 -0.4142  3.2952
   19MOL0     H 2450   2.344   6.069  10.467 -1.1859 -1.9656 -0.4036
   19MOL0     H 2451   2.275   5.909  10.253 -0.9659 -0.2323 -2.0023
   19MOL0     H 2452   2.152   5.945  10.361 -0.9292 -1.0585 -2.1944
   19MOL0     H 2453   2.085   5.979  10.134  0.7776  0.6103 -0.3158
   19MOL0     H 2454   2.207   6.101  10.096  0.6740 -1.9410 -0.7263
   19MOL0     H 2455   1.986   6.217  10.149 -2.5570 -1.1400  1.6173
   19MOL0     H 2456   2.101   6.251  10.272  0.1759  0.2590 -0.5002
   19MOL0     H 2457   1.916   6.012  10.299  2.8308  0.0133 -3.4876
   19MOL0     H 2458   2.002   6.111  10.424  0.5875 -2.2951 -0.4391
   19MOL0     H 2459   1.758   6.217  10.271  0.4752 -0.3602 -0.2532
   19MOL0     H 2460   1.871   6.299  10.385 -2.4003  1.2831 -1.6570
   19MOL0     H 2461   1.649   5.974  10.393  0.9928 -0.8755  0.3945
   19MOL0     H 2462   1.428   5.931  10.585  0.6408 -1.8794 -0.8872
   19MOL0     H 2463   1.514   5.938  10.747  0.8613  1.4814 -0.1652
   19MOL0     H 2464   1.665   5.765  10.693  1.0539  1.1056 -1.6718
   19MOL0     H 2465   1.611   5.768  10.525 -0.0287  0.6546 -0.3552
   19MOL0     H 2466   1.377   5.733  10.609 -0.7453 -1.3918 -0.7150
   19MOL0     H 2467   1.491   5.590  10.595  0.6947  0.5324 -0.7562
   19MOL0     H 2468   1.323   5.608  10.801 -0.1246  1.7462  2.4843
   19MOL0     H 2469   1.424   5.741  10.848 -0.9095 -0.1778  1.4683
   19MOL0     H 2470   1.722   5.696  10.929  1.8931  1.0603  1.8240
   19MOL0     H 2471   1.785   5.756  11.154 -1.2327  2.0931 -0.7098
   19MOL0     H 2472   1.792   5.911  11.611  0.8911  0.0647 -1.3348
   19MOL0     H 2473   1.968   5.911  11.782  2.6208  2.0100 -1.2448
   19MOL0     H 2474   2.258   5.777  11.960  2.0287  0.7458 -1.2492
   19MOL0     H 2475   2.207   5.856  11.805 -4.3158 -1.3045 -1.8753
   19MOL0     H 2476   2.377   5.610  11.842 -0.5570  1.9366  2.8388
   19MOL0     H 2477   2.424   5.775  11.847 -0.9611  1.3969  0.6951
   19MOL0     H 2478   2.338   5.822  11.604  3.7778  1.9848  1.5831
   19MOL0     H 2479   2.279   5.658  11.597 -0.7539  2.5481 -1.5910
   19MOL0     H 2480   2.571   5.758  11.635 -1.0128 -1.0524  1.8410
   19MOL0     H 2481   2.523   5.585  11.625 -0.9151 -0.7006  0.7361
   19MOL0     H 2482   2.482   5.794  11.402 -3.4345 -0.5182  0.8380
   19MOL0     H 2483   2.430   5.625  11.399  0.7864 -1.3183  1.8943
   19MOL0     H 2484   2.649   5.620  11.283  0.6536 -1.5245  0.0352
   19MOL0     H 2485   2.684   5.568  11.448 -0.7369 -0.3163 -0.9457
   19MOL0     H 2486   2.715   5.856  11.357  1.7152  1.6247  0.2860
   19MOL0     H 2487   2.784   5.776  11.504  1.6685 -0.4506 -0.7827
   19MOL0     H 2488   2.945   5.806  11.309  2.6363 -1.2290  0.8789
   19MOL0     H 2489   2.853   5.690  11.225 -0.2981  3.7993 -1.3164
   19MOL0     H 2490   2.071   5.501  11.663  2.2322 -0.1174 -0.3102
   19MOL0     H 2491   1.908   5.514  11.479  1.3070  0.7354 -1.2011
   19MOL0     H 2492   1.453   5.501  11.293  0.4384 -0.1322  0.3009
   19MOL0     H 2493   1.370   5.479  11.065 -1.3867  2.2636  1.5840
   19MOL0     H 2494   2.689   6.035  10.537  1.5964  0.0674  0.2301
   19MOL0     H 2495   2.892   6.104  10.631 -3.5079  0.5626 -1.2897
   19MOL0     H 2496   3.344   6.053  10.639 -0.5242  0.2732 -0.3589
   19MOL0     H 2497   3.502   6.063  10.827  0.4158 -0.1259  0.2617
   19MOL0     H 2498   3.454   6.183  11.125  3.3891 -1.1198  1.6209
   19MOL0     H 2499   3.423   6.362  11.105 -2.0699 -1.5536  5.1489
   19MOL0     H 2500   3.550   6.320  11.309 -0.5347 -2.0332 -0.4794
   19MOL0     H 2501   3.661   6.215  11.212 -1.1824 -1.5791 -0.0071
   19MOL0     H 2502   3.609   6.517  11.171 -0.6627 -1.2724 -2.0253
   19MOL0     H 2503   3.725   6.415  11.082 -0.5483 -0.7672 -0.0447
   19MOL0     H 2504   3.856   6.360  11.294  2.9761  2.7021 -1.2289
   19MOL0     H 2505   3.865   6.521  11.257  4.0596 -2.6540 -0.2866
   19MOL0     H 2506   3.669   6.587  11.612  1.8730  2.1478 -1.3108
   19MOL0     H 2507   3.375   6.458  10.910 -0.6662 -0.2297  1.1029
   19MOL0     H 2508   3.231   6.471  10.726  1.7828  0.3468  0.1425
   20MOL0     O 2509   7.665   4.976   8.465 -0.7681 -0.3874 -0.1875
   20MOL0     C 2510   7.674   4.976   8.591  0.3141 -0.0722  0.0750
   20MOL0     O 2511   7.765   4.908   8.658 -0.4870 -0.3288  0.1904
   20MOL0     C 2512   7.868   4.845   8.584 -0.2937  0.0562 -0.7482
   20MOL0     C 2513   7.987   4.908   8.558 -1.0001 -0.1274 -0.3561
   20MOL0     C 2514   8.089   4.831   8.498 -0.2406  0.3737  0.4060
   20MOL0     C 2515   8.075   4.697   8.454  0.1121  0.3917  0.2732
   20MOL0     O 2516   8.185   4.635   8.392  0.0123 -0.0327 -0.1475
   20MOL0     C 2517   8.178   4.499   8.369  0.0210  0.0903  1.1831
   20MOL0     C 2518   8.311   4.460   8.303 -0.7299  0.3993 -0.7413
   20MOL0     C 2519   8.351   4.316   8.338  0.3710 -0.1886 -0.0295
   20MOL0     C 2520   8.485   4.275   8.299 -1.6985  0.7278  0.2658
   20MOL0     C 2521   8.530   4.128   8.341  0.8676 -0.8526  0.4848
   20MOL0     C 2522   8.651   4.076   8.255 -0.0343  0.7330 -0.1074
   20MOL0     C 2523   8.772   4.172   8.238 -0.8594  0.3320  0.6510
   20MOL0     C 2524   8.907   4.106   8.214 -1.0436  0.7625 -0.2295
   20MOL0     N 2525   8.989   4.193   8.123 -0.2272  0.3786  0.2007
   20MOL0     C 2526   9.083   4.281   8.167  0.4373  0.7112 -0.5931
   20MOL0     C 2527   9.129   4.347   8.061  0.3360  0.0725  0.3669
   20MOL0     C 2528   9.234   4.457   8.047  0.0468 -0.0285 -0.3025
   20MOL0     C 2529   9.371   4.419   8.115  0.8190 -0.9027 -0.2475
   20MOL0     C 2530   9.458   4.544   8.141 -0.6816 -0.2119 -0.3157
   20MOL0     C 2531   9.396   4.633   8.249 -0.8314  0.5054 -0.8712
   20MOL0     O 2532   9.379   4.549   8.357  0.1670  0.3864  0.3752
   20MOL0     C 2533   9.334   4.603   8.474 -0.1297 -0.2481  0.2047
   20MOL0     C 2534   9.295   4.737   8.491  0.1136 -0.2082  0.6200
   20MOL0     C 2535   9.246   4.777   8.617  0.0326 -0.2978  0.3826
   20MOL0     C 2536   9.219   4.684   8.715 -0.4262  0.6893 -0.7914
   20MOL0     C 2537   9.145   4.716   8.839  0.7742  0.1048 -0.4080
   20MOL0     O 2538   9.076   4.836   8.825 -0.0834  0.2148 -0.0722
   20MOL0     C 2539   8.992   4.879   8.930  0.5626 -0.7718 -0.4084
   20MOL0     C 2540   9.035   4.906   9.062  0.8289  0.1305 -0.5643
   20MOL0     C 2541   8.936   4.948   9.144  0.6199 -0.0555 -0.0131
   20MOL0     C 2542   8.807   4.994   9.107 -0.2620 -0.6194  0.6301
   20MOL0     O 2543   8.709   5.039   9.199 -0.3739  0.1513  0.3611
   20MOL0     C 2544   8.739   5.121   9.316 -0.1219 -0.3433 -0.3867
   20MOL0     C 2545   8.612   5.144   9.394  0.2029  0.6826  0.1354
   20MOL0     C 2546   8.499   5.196   9.311 -0.0694  0.0149  0.0631
   20MOL0     C 2547   8.379   5.215   9.405 -0.0253  0.2204 -0.3528
   20MOL0     C 2548   8.262   5.280   9.333 -0.2726 -0.1543  0.1273
   20MOL0     C 2549   8.132   5.287   9.428  0.0561 -0.1161  0.2948
   20MOL0     C 2550   7.999   5.344   9.378  0.3171  0.4976  1.2117
   20MOL0     C 2551   7.873   5.330   9.472 -0.8279 -0.1707 -0.6847
   20MOL0    Cl 2552   7.751   5.439   9.399  0.0809  0.0140 -0.6220
   20MOL0     C 2553   8.788   4.989   8.972  0.2620 -0.2594  0.4968
   20MOL0     C 2554   8.873   4.930   8.877 -0.8182 -0.1340  0.0394
   20MOL0     O 2555   9.133   4.639   8.932  0.0480  0.3288 -0.0090
   20MOL0     C 2556   9.254   4.557   8.696 -0.1746 -0.1469 -0.0486
   20MOL0     C 2557   9.311   4.517   8.584  0.3005 -0.0529  0.0677
   20MOL0     N 2558   9.063   4.288   7.953  0.0459  0.7394 -0.6783
   20MOL0     N 2559   8.986   4.195   7.986  0.6145  0.0096 -0.2648
   20MOL0     C 2560   7.943   4.644   8.470  0.5295  0.5517  0.5004
   20MOL0     C 2561   7.846   4.712   8.534 -0.5555 -0.6713  0.0638
   20MOL0     C 2562   7.586   5.067   8.669  0.1732  0.1114 -0.1072
   20MOL0     C 2563   7.496   5.152   8.602  0.4604  0.7735  0.6981
   20MOL0     C 2564   7.432   5.252   8.662 -0.0395  0.2648 -0.4215
   20MOL0     C 2565   7.451   5.271   8.807 -0.2992 -0.3909  0.2748
   20MOL0     O 2566   7.369   5.353   8.876 -0.3032  0.3025 -0.5694
   20MOL0     C 2567   7.446   5.463   8.937  0.3196 -0.3927 -1.2916
   20MOL0     C 2568   7.402   5.495   9.081  0.8762  0.7818  0.4133
   20MOL0     C 2569   7.247   5.525   9.108 -0.7363  0.2438  0.0412
   20MOL0     C 2570   7.180   5.608   9.002 -0.7034 -0.0682  0.4513
   20MOL0     C 2571   7.048   5.655   9.044  0.5719  0.1627 -0.9606
   20MOL0     C 2572   6.936   5.699   9.051 -0.3032 -0.0979 -0.4221
   20MOL0     C 2573   7.545   5.192   8.870  0.9330 -0.2119  0.7453
   20MOL0     C 2574   7.606   5.082   8.804 -0.5030 -1.0600  1.2959
   20MOL0     H 2575   8.012   5.010   8.585 -0.5531  1.1260 -4.6840
   20MOL0     H 2576   8.187   4.874   8.482 -0.2344  0.8249  1.5747
   20MOL0     H 2577   8.100   4.483   8.294  0.8740 -0.7628  0.4439
   20MOL0     H 2578   8.147   4.446   8.459  4.1029 -2.4702  1.2950
   20MOL0     H 2579   8.393   4.517   8.347  0.3194 -2.7518  1.7293
   20MOL0     H 2580   8.304   4.469   8.194 -1.8347  0.3246 -0.6885
   20MOL0     H 2581   8.273   4.249   8.302 -1.5747  1.7092  0.4629
   20MOL0     H 2582   8.333   4.313   8.446  1.5700 -0.2507  0.1845
   20MOL0     H 2583   8.508   4.282   8.192  0.8394 -0.3561  0.6625
   20MOL0     H 2584   8.552   4.339   8.357 -0.4614  1.0068 -1.3760
   20MOL0     H 2585   8.444   4.061   8.332 -0.5556  0.1500  4.3526
   20MOL0     H 2586   8.560   4.122   8.446 -0.9159 -1.5214  1.0101
   20MOL0     H 2587   8.617   4.043   8.156 -2.3294 -0.1320  0.9036
   20MOL0     H 2588   8.689   3.983   8.299 -0.3936  0.5811 -0.1205
   20MOL0     H 2589   8.745   4.237   8.154  1.7062 -2.5362 -2.7376
   20MOL0     H 2590   8.783   4.234   8.327  0.2502 -1.2027  1.6474
   20MOL0     H 2591   8.881   4.012   8.164 -2.4433  0.0442  1.7004
   20MOL0     H 2592   8.961   4.082   8.307 -1.4283  0.3582 -0.1082
   20MOL0     H 2593   9.113   4.309   8.268  0.2371 -0.4501 -0.1936
   20MOL0     H 2594   9.189   4.545   8.094 -1.3164 -2.5652  3.7027
   20MOL0     H 2595   9.254   4.473   7.941  3.6449 -1.4499  0.0183
   20MOL0     H 2596   9.423   4.361   8.038  0.4396 -0.2451 -1.0102
   20MOL0     H 2597   9.356   4.357   8.204 -2.3316  0.4408  0.2915
   20MOL0     H 2598   9.557   4.508   8.171  0.6930  4.5881  1.8843
   20MOL0     H 2599   9.460   4.609   8.053  1.9271 -0.7048 -0.6850
   20MOL0     H 2600   9.299   4.664   8.210 -0.6585  3.2068  0.6001
   20MOL0     H 2601   9.460   4.720   8.268  0.4448 -0.6335  0.3250
   20MOL0     H 2602   9.302   4.810   8.411 -3.0711 -0.7543 -0.2891
   20MOL0     H 2603   9.224   4.882   8.634 -1.0040  0.1645 -3.0752
   20MOL0     H 2604   9.128   4.874   9.108 -0.9848 -0.8172  2.8145
   20MOL0     H 2605   8.958   4.962   9.250  1.9623  1.4959 -0.4645
   20MOL0     H 2606   8.791   5.212   9.283  0.1429 -0.8379 -1.3824
   20MOL0     H 2607   8.809   5.065   9.378  0.6895  3.3777  2.3470
   20MOL0     H 2608   8.625   5.213   9.477 -0.7758 -0.1578  1.0156
   20MOL0     H 2609   8.577   5.052   9.442  1.4779 -1.8792 -3.4259
   20MOL0     H 2610   8.481   5.123   9.232 -0.9540 -1.6605  1.7261
   20MOL0     H 2611   8.534   5.293   9.275 -1.3108 -0.1616 -1.7119
   20MOL0     H 2612   8.353   5.116   9.444  4.2575 -1.4310 -1.1477
   20MOL0     H 2613   8.409   5.278   9.489 -0.8989 -0.1284  0.2451
   20MOL0     H 2614   8.231   5.222   9.245  0.2885  0.6953 -0.6536
   20MOL0     H 2615   8.300   5.375   9.293  1.2216 -1.5873 -2.1042
   20MOL0     H 2616   8.156   5.340   9.521 -0.0220 -0.9162  0.7791
   20MOL0     H 2617   8.101   5.185   9.449  0.3332 -0.5438 -1.2708
   20MOL0     H 2618   8.012   5.449   9.351 -1.7075  0.6364  0.5564
   20MOL0     H 2619   7.971   5.296   9.284  2.3370  0.4362  0.5984
   20MOL0     H 2620   7.903   5.360   9.573  2.3389 -1.6318 -1.0883
   20MOL0     H 2621   7.836   5.227   9.470 -1.0269 -0.0904 -1.2116
   20MOL0     H 2622   8.696   5.027   8.928  2.5649  2.5278 -2.4150
   20MOL0     H 2623   8.847   4.938   8.772 -1.4424  3.3804  0.3626
   20MOL0     H 2624   9.229   4.481   8.769 -0.2134  2.8410  3.3953
   20MOL0     H 2625   9.340   4.413   8.572  0.1984  0.2001 -3.1078
   20MOL0     H 2626   7.916   4.544   8.440 -2.3933  1.0661  1.1218
   20MOL0     H 2627   7.749   4.664   8.546 -0.6304 -1.8611 -3.8514
   20MOL0     H 2628   7.489   5.153   8.494  1.4007  3.2565  0.6114
   20MOL0     H 2629   7.369   5.313   8.597 -0.7779 -1.5523 -1.4971
   20MOL0     H 2630   7.422   5.557   8.886  0.7899  1.8250  2.1722
   20MOL0     H 2631   7.554   5.456   8.922  0.5168 -1.3324  0.3295
   20MOL0     H 2632   7.431   5.408   9.141 -1.7996  0.4288  1.3155
   20MOL0     H 2633   7.447   5.584   9.126 -0.9449  1.4788  0.9123
   20MOL0     H 2634   7.254   5.581   9.202 -1.4494 -2.0005  1.5147
   20MOL0     H 2635   7.183   5.438   9.126 -0.6931  0.3808  0.8985
   20MOL0     H 2636   7.247   5.683   8.957  0.5342 -1.0459  0.6051
   20MOL0     H 2637   7.169   5.547   8.911  0.8174 -0.1967  0.3252
   20MOL0     H 2638   6.834   5.729   9.052 -0.2097  0.2607 -1.1102
   20MOL0     H 2639   7.557   5.201   8.977 -0.3059  0.8794  0.8131
   20MOL0     H 2640   7.675   5.017   8.856 -0.3634 -0.8289  1.4023
   21MOL0     O 2641   3.284   8.181   6.885 -0.8646  0.5395 -0.1761
   21MOL0     C 2642   3.371   8.204   6.800  0.3907 -0.7403 -0.6211
   21MOL0     O 2643   3.352   8.287   6.681 -0.1177 -0.5815 -0.7597
   21MOL0     C 2644   3.242   8.358   6.647  1.0613  0.1934  0.5497
   21MOL0     C 2645   3.253   8.428   6.525  0.4226 -0.3419  0.2149
   21MOL0     C 2646   3.140   8.486   6.466 -0.9886  0.1834  0.1701
   21MOL0     C 2647   3.008   8.479   6.525 -0.1331  0.8447  0.6821
   21MOL0     O 2648   2.892   8.533   6.482  0.0332  0.2880 -0.3444
   21MOL0     C 2649   2.910   8.641   6.393  0.8457 -0.1150 -1.2872
   21MOL0     C 2650   2.774   8.678   6.350  0.3537 -0.6668  0.5240
   21MOL0     C 2651   2.698   8.749   6.455 -0.4809 -0.6235 -0.7084
   21MOL0     C 2652   2.557   8.800   6.413 -0.1069 -0.4542 -0.0778
   21MOL0     C 2653   2.454   8.690   6.390  1.4324  0.3930  0.5365
   21MOL0     C 2654   2.308   8.727   6.400 -0.0210  0.1383  0.1028
   21MOL0     C 2655   2.271   8.821   6.284  0.4760 -0.8314 -0.9841
   21MOL0     C 2656   2.223   8.755   6.157  1.1456 -0.3924  0.7154
   21MOL0     N 2657   2.330   8.693   6.071  0.2644  1.0933  0.9387
   21MOL0     C 2658   2.458   8.741   6.051 -0.5855  1.1647 -0.4276
   21MOL0     C 2659   2.503   8.659   5.951 -0.1897 -0.2135 -0.3509
   21MOL0     C 2660   2.650   8.651   5.917  0.4055 -0.2912 -0.8178
   21MOL0     C 2661   2.714   8.540   6.006 -0.1954 -0.4643  0.0696
   21MOL0     C 2662   2.866   8.505   5.983  0.5277 -0.3905  0.3872
   21MOL0     C 2663   2.916   8.394   6.069  1.1433  1.0948  0.4814
   21MOL0     O 2664   3.057   8.372   6.062  0.6257  0.4775 -0.8654
   21MOL0     C 2665   3.127   8.300   6.147 -0.1818  1.1728 -0.1279
   21MOL0     C 2666   3.063   8.248   6.257 -0.2216  0.0470 -0.4894
   21MOL0     C 2667   3.147   8.167   6.339  0.3937 -1.3712 -0.5631
   21MOL0     C 2668   3.284   8.138   6.315 -0.5010 -1.0839 -0.3417
   21MOL0     C 2669   3.360   8.053   6.404 -0.2019  0.3119 -0.2796
   21MOL0     O 2670   3.494   8.058   6.382  0.6901 -0.2273  0.2701
   21MOL0     C 2671   3.590   7.966   6.428  0.8454  0.3511 -0.3404
   21MOL0     C 2672   3.707   7.944   6.345  0.7904  0.3278 -0.5130
   21MOL0     C 2673   3.807   7.860   6.390  0.5809  0.5376  0.0529
   21MOL0     C 2674   3.789   7.787   6.512  0.3511 -0.5318  0.3757
   21MOL0     O 2675   3.875   7.689   6.537 -0.8687  0.6351 -0.4420
   21MOL0     C 2676   3.905   7.670   6.676 -0.2930  0.2001  0.4354
   21MOL0     C 2677   3.992   7.546   6.691 -0.2683  0.0093 -0.1395
   21MOL0     C 2678   4.134   7.573   6.646  0.1524  0.1481  0.8611
   21MOL0     C 2679   4.162   7.640   6.508  0.5452  0.2262  1.0799
   21MOL0     C 2680   4.316   7.677   6.498  0.6189  0.0827 -0.2607
   21MOL0     C 2681   4.377   7.772   6.604 -0.1412  0.8250 -0.2653
   21MOL0     C 2682   4.473   7.700   6.700  0.3832 -0.1838 -0.5216
   21MOL0     C 2683   4.576   7.805   6.778  0.9918  0.7781  0.4937
   21MOL0    Cl 2684   4.712   7.864   6.668 -0.3768 -0.2632  0.3660
   21MOL0     C 2685   3.673   7.808   6.585  0.5560  0.2034 -0.7958
   21MOL0     C 2686   3.580   7.898   6.543 -0.3015 -0.2423  0.3575
   21MOL0     O 2687   3.297   7.986   6.481  0.4946 -0.4455  0.8879
   21MOL0     C 2688   3.337   8.203   6.200  0.7362  0.6664 -0.3728
   21MOL0     C 2689   3.259   8.280   6.116  0.2501  1.1418 -0.0300
   21MOL0     N 2690   2.402   8.577   5.911 -0.2073  0.7573 -0.3679
   21MOL0     N 2691   2.298   8.592   5.988 -0.5993  0.1276  0.4444
   21MOL0     C 2692   3.008   8.411   6.646 -0.1650  0.8224 -0.3943
   21MOL0     C 2693   3.120   8.356   6.716 -0.1811 -0.0671  0.0002
   21MOL0     C 2694   3.498   8.133   6.821  0.6641  0.3926  0.1063
   21MOL0     C 2695   3.606   8.151   6.732  0.4523 -0.5438 -0.3587
   21MOL0     C 2696   3.729   8.101   6.755 -0.0734  0.6112  0.2183
   21MOL0     C 2697   3.758   8.013   6.860  1.2424 -0.6071 -0.6458
   21MOL0     O 2698   3.876   7.945   6.875  0.2842 -0.3224  0.4391
   21MOL0     C 2699   4.000   8.009   6.856 -0.5025  0.6657 -0.0096
   21MOL0     C 2700   4.107   7.911   6.917 -0.6571  0.0362 -0.0664
   21MOL0     C 2701   4.119   7.952   7.069 -0.5332  0.0303  0.7555
   21MOL0     C 2702   4.189   7.841   7.157 -0.3062 -0.1760  0.9185
   21MOL0     C 2703   4.333   7.859   7.148  0.5376 -1.3257  0.3278
   21MOL0     C 2704   4.447   7.905   7.151  0.1243  0.0443  0.3875
   21MOL0     C 2705   3.655   7.994   6.950  0.4014  0.1690  0.0454
   21MOL0     C 2706   3.532   8.058   6.937  0.4777  0.4903  0.4022
   21MOL0     H 2707   3.347   8.440   6.471  0.5316  0.3316  0.5372
   21MOL0     H 2708   3.156   8.547   6.378 -1.4247 -1.0575 -0.8054
   21MOL0     H 2709   2.982   8.622   6.312  2.1440 -1.2459  0.0569
   21MOL0     H 2710   2.950   8.726   6.448  1.6080 -1.8820  1.0455
   21MOL0     H 2711   2.713   8.589   6.334  0.5046 -0.8440  0.9143
   21MOL0     H 2712   2.765   8.745   6.264 -1.6066  1.7112  2.4200
   21MOL0     H 2713   2.758   8.833   6.492 -0.6983 -0.8067  0.0856
   21MOL0     H 2714   2.681   8.682   6.540  0.1707  0.3383  0.1971
   21MOL0     H 2715   2.521   8.880   6.477  1.2831 -0.8956  1.3093
   21MOL0     H 2716   2.560   8.849   6.315 -4.0167 -1.7044 -0.9815
   21MOL0     H 2717   2.478   8.609   6.459 -1.1143 -0.3318  0.6704
   21MOL0     H 2718   2.461   8.641   6.292 -5.7440 -1.7141  0.4995
   21MOL0     H 2719   2.289   8.752   6.504  0.5902  1.6508 -0.1164
   21MOL0     H 2720   2.255   8.633   6.390  0.0210 -0.2055  2.6867
   21MOL0     H 2721   2.194   8.892   6.317  2.5590  0.8472  0.5579
   21MOL0     H 2722   2.355   8.886   6.255  1.6984 -1.5976  0.6962
   21MOL0     H 2723   2.177   8.841   6.108  0.9140 -0.8380  0.1398
   21MOL0     H 2724   2.147   8.676   6.163  1.6926 -1.1880 -1.7987
   21MOL0     H 2725   2.514   8.822   6.096 -0.8655  1.3936 -0.4863
   21MOL0     H 2726   2.701   8.742   5.950 -0.1990 -0.0213 -0.6055
   21MOL0     H 2727   2.669   8.628   5.812  1.2967  0.3041 -0.7913
   21MOL0     H 2728   2.654   8.450   5.991  0.7251 -1.1569  0.4495
   21MOL0     H 2729   2.707   8.557   6.113 -0.2369  0.6015 -0.0909
   21MOL0     H 2730   2.883   8.497   5.875  2.2754  3.5278  0.1986
   21MOL0     H 2731   2.920   8.593   6.019  0.6479  1.3702 -3.5740
   21MOL0     H 2732   2.859   8.311   6.027  0.3239  1.8341  0.1094
   21MOL0     H 2733   2.880   8.394   6.172  2.4971 -0.0140  1.0027
   21MOL0     H 2734   2.956   8.247   6.277 -0.2275  0.2612 -0.5080
   21MOL0     H 2735   3.089   8.120   6.418 -0.0756 -1.0744 -0.7224
   21MOL0     H 2736   3.709   8.001   6.253  1.6799  0.9076 -0.1409
   21MOL0     H 2737   3.896   7.855   6.328 -1.0446  1.9774 -2.6557
   21MOL0     H 2738   3.818   7.652   6.740  0.9646  2.1221  2.8875
   21MOL0     H 2739   3.969   7.747   6.720  1.1119  0.0675 -1.2790
   21MOL0     H 2740   3.956   7.470   6.622 -1.5264  1.5875 -1.2891
   21MOL0     H 2741   3.985   7.532   6.800  0.6800 -0.3387 -0.1138
   21MOL0     H 2742   4.193   7.481   6.648  3.9479  2.2802 -1.3486
   21MOL0     H 2743   4.178   7.641   6.720  0.3297  0.6925  0.2648
   21MOL0     H 2744   4.138   7.571   6.427 -2.0956  3.3074 -1.0156
   21MOL0     H 2745   4.107   7.734   6.498 -2.5719 -1.6330 -0.3197
   21MOL0     H 2746   4.316   7.730   6.402  1.3695 -0.3277 -0.4959
   21MOL0     H 2747   4.372   7.585   6.479 -1.1130 -0.5656 -2.7995
   21MOL0     H 2748   4.302   7.835   6.651 -2.8824 -1.5434 -1.1479
   21MOL0     H 2749   4.447   7.833   6.547  0.6882  0.9520  0.8691
   21MOL0     H 2750   4.412   7.654   6.779 -1.1205  2.5928  0.0754
   21MOL0     H 2751   4.515   7.611   6.654  3.0095  0.4023  0.5604
   21MOL0     H 2752   4.620   7.741   6.854 -0.0474 -0.5610  0.0056
   21MOL0     H 2753   4.513   7.884   6.821  0.6653  0.4240  0.6666
   21MOL0     H 2754   3.653   7.760   6.680 -1.6275  0.0904 -1.2616
   21MOL0     H 2755   3.488   7.910   6.599 -2.2836 -4.3880 -1.6294
   21MOL0     H 2756   3.439   8.182   6.170  0.0255 -1.3046 -1.5952
   21MOL0     H 2757   3.298   8.323   6.025  0.9846  2.4169  0.8622
   21MOL0     H 2758   2.913   8.394   6.696 -0.3918 -2.4150 -1.6592
   21MOL0     H 2759   3.097   8.301   6.806 -1.4870 -0.9118 -0.8223
   21MOL0     H 2760   3.587   8.209   6.642 -1.0065  1.3209  1.0662
   21MOL0     H 2761   3.811   8.119   6.686  0.8139  0.7324  1.2774
   21MOL0     H 2762   4.003   8.109   6.900  0.4656  0.7386 -0.2099
   21MOL0     H 2763   4.025   8.028   6.751  0.6503  2.5793  0.5670
   21MOL0     H 2764   4.078   7.807   6.902  0.9423 -0.1133 -3.0094
   21MOL0     H 2765   4.201   7.921   6.862 -0.1966  0.7153  0.8221
   21MOL0     H 2766   4.014   7.952   7.100  0.3692 -0.7403  4.2770
   21MOL0     H 2767   4.177   8.043   7.085  2.9967 -1.2447 -3.0133
   21MOL0     H 2768   4.166   7.844   7.264  2.3075 -1.4918  1.5962
   21MOL0     H 2769   4.150   7.751   7.108  2.5414  0.8340 -3.7499
   21MOL0     H 2770   4.549   7.927   7.177  0.0597 -0.1428  0.7975
   21MOL0     H 2771   3.677   7.922   7.028 -4.7456 -0.6435  1.1094
   21MOL0     H 2772   3.459   8.046   7.016  0.3996 -0.9724  0.1301
   22MOL0     O 2773   1.649   1.087   7.074  0.0126 -0.2572  0.4739
   22MOL0     C 2774   1.732   1.147   7.001  0.3599 -0.0779  0.1325
   22MOL0     O 2775   1.800   1.253   7.047  0.1747 -0.4346  0.6393
   22MOL0     C 2776   1.791   1.265   7.187  0.6658  0.1936 -0.1381
   22MOL0     C 2777   1.699   1.344   7.254 -0.5970 -0.5151  0.1272
   22MOL0     C 2778   1.699   1.355   7.394  0.0256 -0.1384  0.7194
   22MOL0     C 2779   1.790   1.286   7.472  0.2945  0.0068 -0.2965
   22MOL0     O 2780   1.794   1.310   7.610  0.4440  0.7624  0.1266
   22MOL0     C 2781   1.693   1.248   7.685  0.0610 -0.1585  0.9372
   22MOL0     C 2782   1.697   1.300   7.832  0.2410 -0.1308  0.1643
   22MOL0     C 2783   1.684   1.192   7.943 -0.0236  0.0708  0.2933
   22MOL0     C 2784   1.736   1.265   8.078  0.9919 -0.9364  0.0893
   22MOL0     C 2785   1.712   1.169   8.199 -0.3952  0.2022 -0.4319
   22MOL0     C 2786   1.844   1.087   8.221  0.3382  0.2452 -0.3077
   22MOL0     C 2787   1.803   0.982   8.332 -0.3287  0.5173 -0.3326
   22MOL0     C 2788   1.788   0.841   8.283 -0.5645 -1.2007 -0.5232
   22MOL0     N 2789   1.917   0.780   8.276  0.6222  0.3446  0.0388
   22MOL0     C 2790   2.024   0.806   8.187  0.3551 -0.0320 -0.3844
   22MOL0     C 2791   2.132   0.771   8.262  0.0379 -0.4810  0.3693
   22MOL0     C 2792   2.283   0.794   8.223  0.7418 -0.4879 -0.9796
   22MOL0     C 2793   2.366   0.657   8.222 -0.2045 -0.4488 -0.2994
   22MOL0     C 2794   2.485   0.649   8.133  0.2291 -0.2063  0.2332
   22MOL0     C 2795   2.609   0.726   8.193  0.5210  0.8237 -0.1131
   22MOL0     O 2796   2.612   0.863   8.174 -0.4519 -0.4370 -0.6382
   22MOL0     C 2797   2.587   0.908   8.047  0.5317 -0.5430 -0.6435
   22MOL0     C 2798   2.666   0.892   7.929 -0.2730  1.5603 -0.5652
   22MOL0     C 2799   2.625   0.959   7.811 -0.0259  0.3090 -0.5969
   22MOL0     C 2800   2.504   1.036   7.800 -0.1222 -0.4517 -1.1422
   22MOL0     C 2801   2.470   1.105   7.678  0.4765 -0.1203  0.7324
   22MOL0     O 2802   2.369   1.192   7.668  0.9047 -0.1427 -1.0753
   22MOL0     C 2803   2.363   1.302   7.586 -0.0455  0.6205  0.2135
   22MOL0     C 2804   2.246   1.330   7.527  0.3905  0.3722  0.0124
   22MOL0     C 2805   2.233   1.455   7.450 -0.5159 -0.0216 -0.6689
   22MOL0     C 2806   2.340   1.541   7.423 -1.2993 -0.3959  0.3276
   22MOL0     O 2807   2.328   1.661   7.353  0.6861 -0.1799 -0.3057
   22MOL0     C 2808   2.432   1.744   7.299  0.1396 -0.1153 -0.3658
   22MOL0     C 2809   2.383   1.856   7.204 -0.5122  0.4995 -0.2538
   22MOL0     C 2810   2.326   1.983   7.271  0.1111 -0.2700 -0.1852
   22MOL0     C 2811   2.196   1.961   7.355  0.4909 -0.6548  0.5378
   22MOL0     C 2812   2.070   1.904   7.286  0.1872 -0.1153 -0.1770
   22MOL0     C 2813   1.952   1.898   7.386  0.2321 -0.4963 -0.0497
   22MOL0     C 2814   1.830   1.864   7.290  0.5620  0.7136 -0.1305
   22MOL0     C 2815   1.711   1.827   7.369  0.3469 -0.1866 -0.5354
   22MOL0    Cl 2816   1.562   1.807   7.269  0.1374  0.2927  0.2662
   22MOL0     C 2817   2.462   1.505   7.484  0.0017 -0.5808  0.5076
   22MOL0     C 2818   2.474   1.390   7.564 -0.2695  0.0533 -0.1252
   22MOL0     O 2819   2.562   1.096   7.594 -0.3092  0.4338 -0.8656
   22MOL0     C 2820   2.422   1.043   7.918 -0.3345  0.0862  0.7338
   22MOL0     C 2821   2.472   0.988   8.035 -0.8071  0.8658 -0.2860
   22MOL0     N 2822   2.087   0.699   8.373 -0.4993 -0.2898 -0.7689
   22MOL0     N 2823   1.960   0.709   8.378 -0.7027 -0.6592 -0.4287
   22MOL0     C 2824   1.887   1.202   7.407 -0.2483 -0.2164  0.3245
   22MOL0     C 2825   1.885   1.196   7.269 -0.1898 -0.1578 -0.7467
   22MOL0     C 2826   1.730   1.110   6.857 -1.7507 -0.5448  0.8433
   22MOL0     C 2827   1.799   1.189   6.767 -0.7581  0.4284  1.3481
   22MOL0     C 2828   1.812   1.156   6.633  0.6195 -0.6137 -0.5492
   22MOL0     C 2829   1.733   1.053   6.578 -0.9099  0.2326 -0.0122
   22MOL0     O 2830   1.728   1.004   6.455 -0.1715  1.1135  0.2991
   22MOL0     C 2831   1.841   1.031   6.371  0.4885 -0.5787 -0.3313
   22MOL0     C 2832   1.827   0.951   6.246 -0.2678  0.1747 -0.1107
   22MOL0     C 2833   1.949   0.967   6.159  0.4800 -0.4934  0.7873
   22MOL0     C 2834   1.965   1.105   6.099 -0.3774 -0.2030 -0.0784
   22MOL0     C 2835   1.861   1.122   6.002  0.7461 -0.2009 -0.2339
   22MOL0     C 2836   1.779   1.115   5.908 -0.3059  0.4506 -0.7763
   22MOL0     C 2837   1.651   0.981   6.662  0.3041 -0.5373  0.0369
   22MOL0     C 2838   1.650   1.004   6.802 -0.6366 -0.1809 -0.1770
   22MOL0     H 2839   1.622   1.399   7.202  0.3210  4.0664  2.9624
   22MOL0     H 2840   1.624   1.416   7.443 -1.0513 -1.3824  0.6784
   22MOL0     H 2841   1.708   1.140   7.677 -0.2010 -0.0334 -2.4465
   22MOL0     H 2842   1.595   1.275   7.644 -0.1995 -0.5809  1.2617
   22MOL0     H 2843   1.621   1.378   7.844 -0.3151 -0.7757  0.8904
   22MOL0     H 2844   1.790   1.355   7.851 -0.8767  1.2813  1.8276
   22MOL0     H 2845   1.742   1.103   7.917  0.7048 -0.5626  3.6059
   22MOL0     H 2846   1.579   1.160   7.946 -0.1136  0.4283  1.3285
   22MOL0     H 2847   1.838   1.301   8.060 -0.3319  2.7307 -1.0967
   22MOL0     H 2848   1.669   1.351   8.086  1.0881 -0.4518 -3.0672
   22MOL0     H 2849   1.633   1.104   8.159  2.4506 -2.0594 -2.8637
   22MOL0     H 2850   1.679   1.226   8.286 -0.6822  0.6275 -0.8115
   22MOL0     H 2851   1.933   1.143   8.253  1.5253 -1.7813  0.1166
   22MOL0     H 2852   1.879   1.029   8.135 -0.1227 -0.2442 -0.1699
   22MOL0     H 2853   1.883   0.984   8.407  0.4224 -0.2565 -1.0884
   22MOL0     H 2854   1.705   1.001   8.377 -0.1619  2.2027 -0.5976
   22MOL0     H 2855   1.742   0.848   8.184 -1.4057 -1.7631 -0.1888
   22MOL0     H 2856   1.713   0.787   8.342  0.3558 -1.1404  0.7523
   22MOL0     H 2857   2.029   0.863   8.094 -1.1689  1.3160  0.3171
   22MOL0     H 2858   2.324   0.853   8.306 -0.1768 -3.0819  1.5106
   22MOL0     H 2859   2.292   0.854   8.132  0.0526  0.6335 -0.3387
   22MOL0     H 2860   2.286   0.590   8.191  0.2727 -0.3595 -1.7834
   22MOL0     H 2861   2.405   0.635   8.323 -1.3238 -1.1222 -0.0023
   22MOL0     H 2862   2.496   0.541   8.121 -1.2358 -0.3456 -0.0428
   22MOL0     H 2863   2.455   0.691   8.036  2.0082  0.6573  0.0214
   22MOL0     H 2864   2.701   0.685   8.151  1.4765 -1.2076  3.5729
   22MOL0     H 2865   2.621   0.686   8.294  0.1732 -2.5528 -1.2657
   22MOL0     H 2866   2.754   0.828   7.930 -0.7351  0.8933  0.4446
   22MOL0     H 2867   2.695   0.955   7.729  1.0067 -0.2309  0.2896
   22MOL0     H 2868   2.169   1.255   7.540 -0.2008  0.8527 -0.6763
   22MOL0     H 2869   2.137   1.492   7.416 -0.9138  0.1149  0.5356
   22MOL0     H 2870   2.506   1.676   7.255  2.4315  0.4157  2.3443
   22MOL0     H 2871   2.490   1.789   7.380 -1.5622 -1.2939  1.6174
   22MOL0     H 2872   2.309   1.822   7.130 -0.1083  0.6284 -0.7255
   22MOL0     H 2873   2.463   1.892   7.137  0.3543  0.1663  0.5818
   22MOL0     H 2874   2.293   2.053   7.193  1.6558  1.0520  0.3066
   22MOL0     H 2875   2.401   2.024   7.338 -0.2771 -0.5514  0.4336
   22MOL0     H 2876   2.223   1.892   7.435  0.9790 -1.0051  0.0781
   22MOL0     H 2877   2.173   2.061   7.391 -0.1860  0.5296 -2.7865
   22MOL0     H 2878   2.093   1.802   7.255  1.7563 -0.3771  1.6026
   22MOL0     H 2879   2.041   1.959   7.196  1.7715  0.3780 -0.4132
   22MOL0     H 2880   1.934   1.997   7.430  1.7621 -0.3715  0.3565
   22MOL0     H 2881   1.957   1.818   7.460  0.4127 -4.1003 -3.5958
   22MOL0     H 2882   1.794   1.951   7.235 -0.8732 -0.4488 -1.1247
   22MOL0     H 2883   1.856   1.782   7.222 -0.3238  0.3056  0.0077
   22MOL0     H 2884   1.697   1.897   7.452 -4.7510 -3.4633  1.8476
   22MOL0     H 2885   1.718   1.724   7.404 -2.7775 -0.3671 -0.1649
   22MOL0     H 2886   2.550   1.567   7.479  0.0926 -0.5735  1.8602
   22MOL0     H 2887   2.569   1.364   7.610 -0.1207  0.6477 -0.0878
   22MOL0     H 2888   2.333   1.105   7.919 -1.3143 -1.0615  4.8990
   22MOL0     H 2889   2.417   1.008   8.126  0.6659  1.5250  0.5002
   22MOL0     H 2890   1.960   1.155   7.472 -0.6132 -1.5829 -0.2164
   22MOL0     H 2891   1.952   1.134   7.211 -0.2115  0.9519 -2.0159
   22MOL0     H 2892   1.850   1.275   6.809 -1.8610 -0.1813  4.1466
   22MOL0     H 2893   1.890   1.206   6.577  1.7073 -0.9903  0.5839
   22MOL0     H 2894   1.931   1.005   6.427  0.2330 -0.7619  0.0000
   22MOL0     H 2895   1.846   1.136   6.341  3.6977 -0.6240 -0.3297
   22MOL0     H 2896   1.833   0.845   6.272  0.4111  0.0002 -0.9333
   22MOL0     H 2897   1.738   0.969   6.185  1.0747 -0.7402 -2.4574
   22MOL0     H 2898   1.953   0.897   6.074  0.5972  0.9661 -0.4544
   22MOL0     H 2899   2.039   0.946   6.217  1.0832 -0.6535 -0.1849
   22MOL0     H 2900   1.961   1.181   6.177 -0.3337 -1.0104  0.7236
   22MOL0     H 2901   2.057   1.115   6.042 -0.0172  2.9235  0.8542
   22MOL0     H 2902   1.688   1.132   5.854  0.6418 -0.6392 -2.8303
   22MOL0     H 2903   1.601   0.889   6.631  0.2129 -1.3521  2.3542
   22MOL0     H 2904   1.601   0.938   6.874  0.4074  2.2943  3.0497
   23MOL0     O 2905   5.507   8.655   6.102 -0.8501  0.6286  0.2173
   23MOL0     C 2906   5.618   8.630   6.063 -0.3437 -0.5750  0.9808
   23MOL0     O 2907   5.655   8.545   5.960 -0.3173 -0.2021  0.1553
   23MOL0     C 2908   5.559   8.486   5.879 -0.5131 -0.0599  0.1947
   23MOL0     C 2909   5.575   8.351   5.866  0.7142 -0.1297 -0.7300
   23MOL0     C 2910   5.494   8.271   5.791  0.7394 -0.2850  0.8936
   23MOL0     C 2911   5.394   8.343   5.720 -0.2312  0.4659  0.2137
   23MOL0     O 2912   5.327   8.246   5.643 -0.1422 -0.5263  0.2841
   23MOL0     C 2913   5.253   8.284   5.531  0.3346 -0.0330  0.2621
   23MOL0     C 2914   5.338   8.283   5.402 -0.1360  0.6570 -0.1697
   23MOL0     C 2915   5.421   8.410   5.387 -0.1684 -1.2549 -0.1040
   23MOL0     C 2916   5.504   8.409   5.258  0.6817 -0.8738  0.3373
   23MOL0     C 2917   5.577   8.533   5.235  0.1621 -1.7031 -0.2568
   23MOL0     C 2918   5.696   8.564   5.340 -0.0977 -0.4576 -0.1740
   23MOL0     C 2919   5.781   8.678   5.295  0.4290  0.3055  0.6158
   23MOL0     C 2920   5.906   8.689   5.387  0.1379 -0.6591 -0.7180
   23MOL0     N 2921   5.998   8.781   5.329 -0.6068 -0.6711  0.6687
   23MOL0     C 2922   6.043   8.773   5.200  0.1435  0.2857  0.2799
   23MOL0     C 2923   6.113   8.883   5.170 -0.1974  0.4939  0.5717
   23MOL0     C 2924   6.180   8.929   5.051  0.5023 -0.6288  0.7229
   23MOL0     C 2925   6.261   8.829   4.970 -0.6733  0.7167 -0.5330
   23MOL0     C 2926   6.287   8.887   4.831  1.1672  0.4430  0.0470
   23MOL0     C 2927   6.345   8.785   4.736 -0.4059 -0.3144 -0.0827
   23MOL0     O 2928   6.245   8.707   4.672 -0.7140  0.1848  0.5482
   23MOL0     C 2929   6.270   8.607   4.585 -1.1758 -1.0014  0.0398
   23MOL0     C 2930   6.395   8.545   4.576 -0.8478 -0.0924 -0.3950
   23MOL0     C 2931   6.414   8.438   4.492  0.3398 -0.4300  0.2008
   23MOL0     C 2932   6.313   8.382   4.413  0.3642 -0.2177 -0.1423
   23MOL0     C 2933   6.318   8.248   4.360 -0.0445 -0.3076 -0.8413
   23MOL0     O 2934   6.211   8.222   4.271  0.1757  1.2773 -0.8194
   23MOL0     C 2935   6.196   8.090   4.235 -0.3908  0.7894  0.1492
   23MOL0     C 2936   6.248   8.064   4.110 -0.5326 -0.2757  0.1953
   23MOL0     C 2937   6.240   7.938   4.061  0.0847  0.8829 -0.4166
   23MOL0     C 2938   6.187   7.829   4.133  0.1676  0.6469 -0.2106
   23MOL0     O 2939   6.192   7.698   4.084 -0.6645 -0.3443  0.5660
   23MOL0     C 2940   6.322   7.643   4.067 -0.5880  0.6133  0.6400
   23MOL0     C 2941   6.314   7.499   4.012 -0.4221 -0.7284 -0.5847
   23MOL0     C 2942   6.226   7.406   4.091  0.6185  0.1452 -0.4049
   23MOL0     C 2943   6.223   7.271   4.037  0.4994 -0.5637  0.2074
   23MOL0     C 2944   6.261   7.154   4.136 -0.0152 -0.6536  0.9437
   23MOL0     C 2945   6.305   7.030   4.051  0.5653  0.2150  0.2902
   23MOL0     C 2946   6.181   6.980   3.980  0.2010 -0.8368  0.6199
   23MOL0     C 2947   6.173   6.831   3.941 -0.5665  0.1995  0.5219
   23MOL0    Cl 2948   6.334   6.800   3.879  0.2818 -0.5152 -0.2265
   23MOL0     C 2949   6.141   7.856   4.254  0.0409 -0.8246 -0.2168
   23MOL0     C 2950   6.143   7.985   4.311 -0.3022  0.7441 -0.5736
   23MOL0     O 2951   6.415   8.177   4.383 -0.0693  0.0365 -0.5030
   23MOL0     C 2952   6.185   8.443   4.433 -0.2177  0.0513  0.4417
   23MOL0     C 2953   6.164   8.554   4.514  0.6554  1.0040 -0.4057
   23MOL0     N 2954   6.096   8.957   5.281  0.4469  0.5719  0.0070
   23MOL0     N 2955   6.037   8.903   5.374 -0.1582  0.3498  0.1300
   23MOL0     C 2956   5.390   8.479   5.712 -0.2308 -0.1165  0.0845
   23MOL0     C 2957   5.466   8.555   5.799 -0.8617 -0.6662 -0.6207
   23MOL0     C 2958   5.721   8.692   6.141 -0.3661 -0.3729  0.1695
   23MOL0     C 2959   5.698   8.807   6.219 -0.3288  0.2916  0.2422
   23MOL0     C 2960   5.806   8.859   6.294 -0.4795 -0.4456  0.7556
   23MOL0     C 2961   5.926   8.799   6.296  0.3715 -0.3929  0.0934
   23MOL0     O 2962   6.015   8.856   6.390 -0.7654 -0.3565 -0.1757
   23MOL0     C 2963   6.150   8.870   6.350 -0.8203  0.0273 -0.7652
   23MOL0     C 2964   6.247   8.785   6.437 -0.5550  0.9390 -0.0633
   23MOL0     C 2965   6.394   8.771   6.378  0.2983  0.6741 -0.2739
   23MOL0     C 2966   6.387   8.649   6.287 -0.4847 -0.3197  0.0159
   23MOL0     C 2967   6.513   8.638   6.217  0.3569  0.4017  0.0483
   23MOL0     C 2968   6.608   8.649   6.147  0.7386  0.6749  1.0352
   23MOL0     C 2969   5.959   8.698   6.204  0.8309  0.3850 -0.4700
   23MOL0     C 2970   5.853   8.643   6.131 -1.0382  0.3844 -0.0651
   23MOL0     H 2971   5.650   8.293   5.918 -0.5475 -2.4923 -1.4017
   23MOL0     H 2972   5.496   8.163   5.781  0.6276 -0.1378 -1.0352
   23MOL0     H 2973   5.210   8.384   5.541  1.0353  0.0721  2.7104
   23MOL0     H 2974   5.173   8.211   5.519  1.8099 -1.7417  0.5096
   23MOL0     H 2975   5.272   8.266   5.316  0.8233  0.2133 -0.8373
   23MOL0     H 2976   5.408   8.199   5.408 -0.1433  0.6676  0.0712
   23MOL0     H 2977   5.498   8.431   5.461 -1.5439  0.5518  0.8957
   23MOL0     H 2978   5.349   8.492   5.377  2.8804  1.4496 -1.3587
   23MOL0     H 2979   5.577   8.329   5.242  0.8767 -0.3637 -1.5249
   23MOL0     H 2980   5.436   8.407   5.172  2.0663 -1.2675 -0.7941
   23MOL0     H 2981   5.513   8.622   5.230  1.4596 -0.7788 -2.2009
   23MOL0     H 2982   5.619   8.531   5.134 -0.0583  0.9998 -0.4791
   23MOL0     H 2983   5.764   8.479   5.331 -0.4131 -0.5880 -1.5085
   23MOL0     H 2984   5.661   8.582   5.442  1.6660 -3.8068  1.1793
   23MOL0     H 2985   5.806   8.657   5.191  2.0481  1.8532  0.6408
   23MOL0     H 2986   5.723   8.771   5.296 -1.1791 -0.6635  0.7207
   23MOL0     H 2987   5.957   8.592   5.391  1.4208  0.0399  1.1892
   23MOL0     H 2988   5.882   8.729   5.485 -1.4523 -1.0090 -0.9256
   23MOL0     H 2989   6.030   8.685   5.138 -1.7983  1.2332 -0.7548
   23MOL0     H 2990   6.249   9.001   5.096  1.7398 -1.9609  1.0297
   23MOL0     H 2991   6.097   8.973   4.995 -1.9361 -0.6066  4.0145
   23MOL0     H 2992   6.215   8.729   4.970  0.1344  0.3192 -2.1385
   23MOL0     H 2993   6.351   8.801   5.025 -0.8057 -1.4131 -1.2841
   23MOL0     H 2994   6.199   8.934   4.787  0.7433  0.1433  0.5652
   23MOL0     H 2995   6.357   8.967   4.856  1.6137  0.2786 -0.6666
   23MOL0     H 2996   6.409   8.722   4.798  0.6733  1.2675  0.4863
   23MOL0     H 2997   6.412   8.837   4.667 -1.7105  0.8893 -0.4887
   23MOL0     H 2998   6.485   8.584   4.623 -1.9415  0.3777  1.4369
   23MOL0     H 2999   6.515   8.399   4.482  1.1363  0.9430  2.2246
   23MOL0     H 3000   6.290   8.145   4.051  2.5405 -1.9202 -0.0754
   23MOL0     H 3001   6.275   7.921   3.960 -2.6776 -2.4040 -1.0215
   23MOL0     H 3002   6.374   7.635   4.163  1.7216 -1.4274 -0.6733
   23MOL0     H 3003   6.377   7.712   4.002 -0.5687 -0.3617 -0.4017
   23MOL0     H 3004   6.418   7.468   4.004 -0.1223  0.4812 -1.6581
   23MOL0     H 3005   6.272   7.504   3.911 -0.2876  0.0696 -0.6131
   23MOL0     H 3006   6.125   7.448   4.102  1.3386  2.8438 -2.9707
   23MOL0     H 3007   6.273   7.407   4.190  1.0324  1.4696 -0.5963
   23MOL0     H 3008   6.124   7.246   3.999  1.7948 -2.2670 -2.2746
   23MOL0     H 3009   6.280   7.265   3.944 -2.8918  0.0735 -2.0833
   23MOL0     H 3010   6.169   7.129   4.190 -1.9125  1.2208 -1.2441
   23MOL0     H 3011   6.340   7.192   4.200  3.4581  1.0186 -3.7647
   23MOL0     H 3012   6.339   6.951   4.119  4.1865  1.4038  0.0565
   23MOL0     H 3013   6.394   7.046   3.989  1.5029 -2.4151  0.8217
   23MOL0     H 3014   6.099   6.988   4.051  0.5751 -1.0626  1.0867
   23MOL0     H 3015   6.167   7.044   3.892  2.4531  2.0103  2.1307
   23MOL0     H 3016   6.092   6.805   3.872  0.5628 -1.2087 -0.3578
   23MOL0     H 3017   6.163   6.764   4.027  2.1481 -0.8071  0.1824
   23MOL0     H 3018   6.113   7.768   4.310  2.1872 -1.2277  0.3457
   23MOL0     H 3019   6.105   8.002   4.411 -0.5062 -0.3105 -0.4625
   23MOL0     H 3020   6.095   8.399   4.393  0.0414  1.5768 -1.9968
   23MOL0     H 3021   6.066   8.599   4.524  0.9703  2.5025 -2.9594
   23MOL0     H 3022   5.318   8.535   5.653  0.2666  2.8122  2.0548
   23MOL0     H 3023   5.468   8.663   5.794 -0.6080 -0.7165 -2.0780
   23MOL0     H 3024   5.601   8.853   6.236  0.6128  2.3654  0.3284
   23MOL0     H 3025   5.789   8.939   6.366  1.8236  0.1706  0.6847
   23MOL0     H 3026   6.175   8.976   6.359  1.0301 -0.5865  4.2673
   23MOL0     H 3027   6.168   8.843   6.246  0.1404 -0.4703 -0.4782
   23MOL0     H 3028   6.258   8.830   6.537  0.8050  3.1341 -1.1197
   23MOL0     H 3029   6.198   8.687   6.434  3.9279 -1.5614 -3.3814
   23MOL0     H 3030   6.471   8.750   6.452  1.2099  2.7364 -0.5585
   23MOL0     H 3031   6.424   8.856   6.316  0.1612  0.7797 -0.1955
   23MOL0     H 3032   6.365   8.567   6.356 -3.3742  1.5217  1.4863
   23MOL0     H 3033   6.308   8.657   6.211  1.1371  0.0110 -1.7205
   23MOL0     H 3034   6.697   8.639   6.089  0.2082 -0.2129  0.3373
   23MOL0     H 3035   6.054   8.646   6.208 -0.3878 -1.9176  0.5785
   23MOL0     H 3036   5.892   8.566   6.066  0.3758 -0.0228  1.2037
   24MOL0     O 3037   1.269   9.419   3.268 -0.8359  0.0777  0.9451
   24MOL0     C 3038   1.273   9.484   3.374 -0.3512  0.4274  0.7374
   24MOL0     O 3039   1.389   9.527   3.436  0.5412 -0.4553  0.0364
   24MOL0     C 3040   1.508   9.497   3.378  0.0130  0.6153  0.2287
   24MOL0     C 3041   1.601   9.589   3.321 -0.0618  0.7613 -0.5936
   24MOL0     C 3042   1.730   9.551   3.290  0.0774  1.0668 -0.2167
   24MOL0     C 3043   1.770   9.418   3.320 -0.0572 -0.2765  0.0530
   24MOL0     O 3044   1.895   9.372   3.283  0.2102  0.8848 -0.5636
   24MOL0     C 3045   2.016   9.459   3.289  0.2773  0.1023  0.7680
   24MOL0     C 3046   2.128   9.358   3.288 -0.1894  0.3547  0.4265
   24MOL0     C 3047   2.154   9.302   3.147 -0.7061 -0.2871  0.4045
   24MOL0     C 3048   2.232   9.165   3.150 -0.2499  0.3001 -0.3302
   24MOL0     C 3049   2.298   9.123   3.009  0.3788  0.6336  0.4509
   24MOL0     C 3050   2.407   9.022   3.037  0.0042  0.0643 -0.1471
   24MOL0     C 3051   2.515   9.022   2.925 -0.1420  0.6265  0.0423
   24MOL0     C 3052   2.454   8.993   2.790  0.0557  0.1295  0.3595
   24MOL0     N 3053   2.546   8.961   2.688 -0.4183  0.4071 -0.3338
   24MOL0     C 3054   2.539   9.022   2.566 -0.2584  0.6914  0.8620
   24MOL0     C 3055   2.603   8.932   2.491  0.4931 -0.8364 -0.5913
   24MOL0     C 3056   2.626   8.955   2.347 -0.4514 -0.2191  0.5818
   24MOL0     C 3057   2.716   9.068   2.328 -1.1537 -0.3453  0.4735
   24MOL0     C 3058   2.868   9.052   2.361 -0.9289  0.2704 -0.4541
   24MOL0     C 3059   2.956   9.175   2.331 -0.5682 -0.5644 -0.5254
   24MOL0     O 3060   2.887   9.293   2.379 -1.1191  0.1588 -0.1070
   24MOL0     C 3061   2.956   9.413   2.361 -0.2848 -0.3076 -0.2623
   24MOL0     C 3062   3.079   9.437   2.294 -0.0770 -0.0317  1.0448
   24MOL0     C 3063   3.127   9.561   2.258  0.1159  0.3022  0.0104
   24MOL0     C 3064   3.068   9.674   2.322 -1.0171  0.4861  0.8877
   24MOL0     C 3065   3.127   9.820   2.291  0.6236  0.2690 -0.2053
   24MOL0     O 3066   3.211   9.829   2.177  0.2435  0.0346 -0.4970
   24MOL0     C 3067   3.294   9.939   2.154  1.6297 -0.1631  0.1123
   24MOL0     C 3068   3.294   9.990   2.020  0.2766  0.2409 -0.5228
   24MOL0     C 3069   3.349  10.106   1.986 -0.6740  0.2063 -0.1170
   24MOL0     C 3070   3.397  10.190   2.089  0.5793  0.5351  0.5057
   24MOL0     O 3071   3.452  10.307   2.046  0.2854  0.1441  0.0405
   24MOL0     C 3072   3.492  10.414   2.136  0.2984 -0.6245 -0.0944
   24MOL0     C 3073   3.476  10.545   2.072 -0.3998  0.0499 -0.4798
   24MOL0     C 3074   3.539  10.649   2.153  0.4739  0.0373 -0.3214
   24MOL0     C 3075   3.553  10.777   2.074  0.3788 -0.6795  0.2013
   24MOL0     C 3076   3.419  10.841   2.053  0.5900  0.8220 -0.0940
   24MOL0     C 3077   3.433  10.977   1.980  0.2816  1.0289  0.0831
   24MOL0     C 3078   3.286  11.024   1.941 -1.8819  0.7109 -0.0078
   24MOL0     C 3079   3.278  11.120   1.826 -1.3119  0.4467  0.0186
   24MOL0    Cl 3080   3.110  11.121   1.765  0.1229 -0.0022  0.1659
   24MOL0     C 3081   3.398  10.146   2.216 -0.6206  0.6283  0.3054
   24MOL0     C 3082   3.344  10.027   2.250 -0.0007  0.2646 -0.4360
   24MOL0     O 3083   3.101   9.915   2.364  0.3005  1.0956  0.5647
   24MOL0     C 3084   2.958   9.653   2.400  1.0200 -0.2784  0.9964
   24MOL0     C 3085   2.899   9.528   2.421  0.7180 -0.0161 -0.1693
   24MOL0     N 3086   2.668   8.833   2.568  0.3759  0.7638  0.4438
   24MOL0     N 3087   2.629   8.850   2.695  0.0431 -0.2103  0.1773
   24MOL0     C 3088   1.678   9.336   3.382 -0.4861  0.6914 -0.0214
   24MOL0     C 3089   1.553   9.372   3.404 -0.0846 -0.0787  0.0276
   24MOL0     C 3090   1.140   9.503   3.444 -0.0376 -0.1949 -0.1023
   24MOL0     C 3091   1.125   9.567   3.573  0.4597 -0.4042  0.1716
   24MOL0     C 3092   0.995   9.577   3.629 -0.2717  0.3396 -0.0311
   24MOL0     C 3093   0.880   9.534   3.563 -0.1758  0.0701  0.7422
   24MOL0     O 3094   0.751   9.551   3.594 -0.9529  0.0834 -0.5029
   24MOL0     C 3095   0.717   9.639   3.696 -0.7594 -0.3604  0.3834
   24MOL0     C 3096   0.597   9.719   3.645 -0.5715  0.4408  0.1563
   24MOL0     C 3097   0.629   9.808   3.526  0.3759  0.1332 -0.5930
   24MOL0     C 3098   0.529   9.810   3.413  0.0504 -0.1138 -0.4612
   24MOL0     C 3099   0.481   9.684   3.358 -1.0373  0.1586 -0.0587
   24MOL0     C 3100   0.438   9.579   3.331 -0.0141  0.6247  0.5056
   24MOL0     C 3101   0.906   9.457   3.441  0.8921 -0.5379  0.2656
   24MOL0     C 3102   1.025   9.449   3.379  0.0272  0.0222 -0.5791
   24MOL0     H 3103   1.564   9.691   3.317 -4.5953 -0.5218  1.6369
   24MOL0     H 3104   1.788   9.632   3.246 -1.3788  4.0504  2.8910
   24MOL0     H 3105   2.017   9.523   3.377  0.7584  0.3592  0.5788
   24MOL0     H 3106   2.023   9.527   3.203  0.8371  1.4665  1.8601
   24MOL0     H 3107   2.094   9.279   3.355 -0.5471  0.8177  0.7950
   24MOL0     H 3108   2.212   9.416   3.327 -1.5525  2.4407  0.4039
   24MOL0     H 3109   2.209   9.385   3.102 -2.1510  0.7085  0.4189
   24MOL0     H 3110   2.063   9.282   3.090 -0.5849  3.0658 -1.2373
   24MOL0     H 3111   2.314   9.189   3.219 -0.5112  0.4132 -0.0580
   24MOL0     H 3112   2.182   9.089   3.211  1.6910  1.9058  3.6653
   24MOL0     H 3113   2.346   9.214   2.971  0.4750 -0.0024 -0.9893
   24MOL0     H 3114   2.233   9.079   2.933  1.2515  1.1071 -0.5939
   24MOL0     H 3115   2.371   8.918   3.041 -0.7799  0.1017 -3.4669
   24MOL0     H 3116   2.447   9.049   3.135 -2.0843  4.2870 -0.2499
   24MOL0     H 3117   2.585   9.105   2.914 -0.0552  0.8338  1.8667
   24MOL0     H 3118   2.572   8.933   2.954 -2.2281 -1.3121 -1.4842
   24MOL0     H 3119   2.401   9.083   2.757  1.6896  1.0748  0.2403
   24MOL0     H 3120   2.390   8.905   2.797  0.1639 -0.1039 -1.1156
   24MOL0     H 3121   2.499   9.119   2.538 -2.3093  0.3331  2.2880
   24MOL0     H 3122   2.539   8.986   2.287  2.0704  1.4750 -2.5367
   24MOL0     H 3123   2.647   8.863   2.291 -0.9643  1.2652 -2.2154
   24MOL0     H 3124   2.679   9.164   2.365  0.9194  0.4873  0.5310
   24MOL0     H 3125   2.731   9.081   2.220  1.5839 -2.1460  0.5171
   24MOL0     H 3126   2.868   9.027   2.467 -1.7218  0.8649 -0.3053
   24MOL0     H 3127   2.924   8.974   2.308  4.5838  1.3233  2.9868
   24MOL0     H 3128   2.965   9.182   2.222 -0.0082  0.9078 -0.4020
   24MOL0     H 3129   3.050   9.153   2.384 -0.8738  0.9519  0.7014
   24MOL0     H 3130   3.132   9.358   2.244  0.8208 -0.0861  2.0430
   24MOL0     H 3131   3.208   9.573   2.188  0.7389  2.1464  0.9954
   24MOL0     H 3132   3.257   9.933   1.935 -0.2859 -0.1974  0.0027
   24MOL0     H 3133   3.357  10.146   1.885  1.2898  1.6084  0.5417
   24MOL0     H 3134   3.594  10.389   2.168  0.6576  0.2463 -0.5246
   24MOL0     H 3135   3.441  10.411   2.232 -1.8553 -1.4925 -1.1854
   24MOL0     H 3136   3.368  10.556   2.062 -0.9928 -2.8936  1.3751
   24MOL0     H 3137   3.518  10.536   1.971  2.1776  1.1819  0.4137
   24MOL0     H 3138   3.633  10.628   2.204 -0.4856 -1.2067  1.0236
   24MOL0     H 3139   3.462  10.668   2.229 -2.7452 -0.1707 -3.2876
   24MOL0     H 3140   3.612  10.847   2.133 -2.4642 -0.1770  2.7218
   24MOL0     H 3141   3.606  10.768   1.979  2.1227  0.9907  0.9398
   24MOL0     H 3142   3.375  10.856   2.152 -0.8843  0.7902 -0.7222
   24MOL0     H 3143   3.352  10.770   2.002  0.4839  1.0181 -0.2296
   24MOL0     H 3144   3.490  10.979   1.886  1.9941 -0.6968  1.0326
   24MOL0     H 3145   3.477  11.048   2.050 -0.3308  0.0224  1.5293
   24MOL0     H 3146   3.237  10.933   1.905 -0.9453  0.2390 -0.1090
   24MOL0     H 3147   3.232  11.062   2.029  2.7850 -0.4235  3.7469
   24MOL0     H 3148   3.343  11.085   1.746 -0.7325  4.1809 -1.3420
   24MOL0     H 3149   3.324  11.217   1.849  0.5536 -0.1904 -0.8726
   24MOL0     H 3150   3.463  10.200   2.284  1.4781  1.4183 -2.1445
   24MOL0     H 3151   3.341   9.999   2.355  1.6064 -0.9419 -0.6659
   24MOL0     H 3152   2.908   9.737   2.448  0.7703  1.3822 -1.9473
   24MOL0     H 3153   2.803   9.504   2.466  0.9973  0.8555  0.9586
   24MOL0     H 3154   1.713   9.237   3.412  1.1402  1.7176  1.7306
   24MOL0     H 3155   1.492   9.306   3.466  0.4250 -0.4829  0.0973
   24MOL0     H 3156   1.214   9.600   3.625 -1.5436 -0.3062  3.8006
   24MOL0     H 3157   0.993   9.616   3.730  2.6813 -1.5598  0.9050
   24MOL0     H 3158   0.805   9.698   3.723  0.6478 -2.2094  0.0991
   24MOL0     H 3159   0.690   9.594   3.792 -0.5234  3.3819  2.3901
   24MOL0     H 3160   0.512   9.654   3.624 -0.5287  1.0842 -2.3232
   24MOL0     H 3161   0.568   9.782   3.730 -3.3249 -2.2780  1.4171
   24MOL0     H 3162   0.712   9.755   3.477  1.9430 -0.0903  2.1274
   24MOL0     H 3163   0.663   9.910   3.547 -0.0110  0.5258 -1.7880
   24MOL0     H 3164   0.451   9.870   3.461  0.8569 -0.3687  1.2670
   24MOL0     H 3165   0.580   9.854   3.327  0.9302 -2.5812 -1.3022
   24MOL0     H 3166   0.422   9.482   3.289  2.9440  0.1400  0.3277
   24MOL0     H 3167   0.818   9.409   3.400  1.8553 -3.0141  0.8896
   24MOL0     H 3168   1.030   9.391   3.287  1.8938 -4.0652  1.8270
   25MOL0     O 3169   2.454   6.505   9.859 -0.1225  0.6040  0.5212
   25MOL0     C 3170   2.382   6.454   9.946 -1.0828  0.6523 -0.1862
   25MOL0     O 3171   2.427   6.417  10.068  0.6481  0.3374 -0.3597
   25MOL0     C 3172   2.560   6.410  10.075 -0.3327 -0.4061  0.3533
   25MOL0     C 3173   2.633   6.515  10.139  0.6621 -1.2294  0.2604
   25MOL0     C 3174   2.767   6.497  10.180 -0.7005 -0.1597  0.7107
   25MOL0     C 3175   2.840   6.385  10.125 -0.0422  0.1079  0.8298
   25MOL0     O 3176   2.973   6.357  10.153 -0.3679 -0.3645  0.1009
   25MOL0     C 3177   3.056   6.454  10.221 -0.9495 -0.6980  0.5550
   25MOL0     C 3178   3.198   6.415  10.226  0.1876  0.6182 -0.9454
   25MOL0     C 3179   3.279   6.435  10.101  0.1341  0.4079 -0.3977
   25MOL0     C 3180   3.431   6.412  10.134 -0.1276  0.2978 -0.6242
   25MOL0     C 3181   3.525   6.414  10.011  0.0174  0.3586 -0.5800
   25MOL0     C 3182   3.676   6.424  10.058  0.8479 -0.4523 -0.0705
   25MOL0     C 3183   3.719   6.562  10.107  0.0227 -0.7959 -0.6378
   25MOL0     C 3184   3.868   6.577  10.114 -0.5082 -0.4014 -1.7369
   25MOL0     N 3185   3.921   6.483  10.215 -0.6004 -0.0612  0.0731
   25MOL0     C 3186   3.892   6.473  10.353  0.3160 -0.6128 -0.3642
   25MOL0     C 3187   3.946   6.362  10.395  0.4021  0.5214 -0.2611
   25MOL0     C 3188   3.920   6.311  10.535  0.0909  0.5635 -0.1677
   25MOL0     C 3189   3.862   6.405  10.643  0.5443  0.1633  0.9865
   25MOL0     C 3190   3.799   6.325  10.763 -0.2290  0.1943 -0.7270
   25MOL0     C 3191   3.897   6.249  10.856 -0.9719  0.0610 -1.0307
   25MOL0     O 3192   3.981   6.342  10.927 -0.0060  0.3035  0.5016
   25MOL0     C 3193   4.116   6.307  10.936 -0.6619  0.1655 -0.8992
   25MOL0     C 3194   4.158   6.175  10.974  0.0869  0.4504  0.0070
   25MOL0     C 3195   4.292   6.145  10.997  0.4092 -0.3557  0.8085
   25MOL0     C 3196   4.388   6.242  10.974  0.0774  0.0101  0.7185
   25MOL0     C 3197   4.532   6.210  10.989 -0.1435 -0.6700 -0.7669
   25MOL0     O 3198   4.555   6.102  11.065 -0.6330  0.0599  0.1231
   25MOL0     C 3199   4.690   6.058  11.093  0.3990 -0.4223  0.2999
   25MOL0     C 3200   4.797   6.149  11.127 -0.8717 -0.8110 -0.6451
   25MOL0     C 3201   4.921   6.106  11.172  0.4414  0.9046  0.9135
   25MOL0     C 3202   4.951   5.966  11.183  1.0803  0.0680 -0.3634
   25MOL0     O 3203   5.055   5.900  11.228 -0.2935  0.3179  0.3623
   25MOL0     C 3204   5.185   5.962  11.211  0.3740  0.0961 -0.6014
   25MOL0     C 3205   5.276   5.907  11.322  0.0741  0.5664 -0.6584
   25MOL0     C 3206   5.330   5.764  11.318  0.9805  0.4144  0.0050
   25MOL0     C 3207   5.414   5.737  11.437 -0.3296 -1.0925  0.4720
   25MOL0     C 3208   5.463   5.590  11.434  0.3162 -0.1463  0.9124
   25MOL0     C 3209   5.575   5.565  11.536 -0.6160  0.4132 -0.1648
   25MOL0     C 3210   5.641   5.432  11.512  0.0508 -0.2826  0.1596
   25MOL0     C 3211   5.705   5.384  11.643  0.6745  1.0008 -0.1716
   25MOL0    Cl 3212   5.840   5.484  11.678 -0.3467 -0.1279 -0.0672
   25MOL0     C 3213   4.842   5.879  11.161  0.7475  0.4228  0.0205
   25MOL0     C 3214   4.715   5.920  11.107 -0.7328 -0.0928  0.0172
   25MOL0     O 3215   4.614   6.280  10.926 -0.2976  0.5984  0.8716
   25MOL0     C 3216   4.344   6.374  10.938 -0.1210 -0.7560  0.4572
   25MOL0     C 3217   4.213   6.406  10.921 -0.3011 -0.7034 -0.4314
   25MOL0     N 3218   4.025   6.318  10.292  0.2130 -0.2817 -0.2628
   25MOL0     N 3219   4.015   6.391  10.187  0.0680 -0.3784 -0.1967
   25MOL0     C 3220   2.775   6.295  10.043 -0.7335  0.0546 -0.3737
   25MOL0     C 3221   2.638   6.305  10.029  0.2026 -0.1364  0.0334
   25MOL0     C 3222   2.236   6.464   9.929  0.9807 -0.7373  0.4053
   25MOL0     C 3223   2.156   6.460  10.044 -0.8385 -0.1767 -0.1234
   25MOL0     C 3224   2.019   6.464  10.035 -0.1038 -0.5702  0.6034
   25MOL0     C 3225   1.967   6.494   9.912  0.5923 -0.3680 -1.0229
   25MOL0     O 3226   1.829   6.499   9.925 -0.4837  0.2415  0.0437
   25MOL0     C 3227   1.750   6.495   9.809 -0.4438  0.0200  0.4127
   25MOL0     C 3228   1.607   6.503   9.850 -0.6438 -0.5033 -0.3277
   25MOL0     C 3229   1.503   6.504   9.741 -0.1079  0.7810 -0.0671
   25MOL0     C 3230   1.360   6.483   9.782  0.1713  0.5082 -0.0897
   25MOL0     C 3231   1.306   6.573   9.877 -0.1794  0.7390 -0.3152
   25MOL0     C 3232   1.280   6.654   9.960  1.1311  0.0130  0.2546
   25MOL0     C 3233   2.037   6.515   9.799 -1.2547 -0.3582 -0.2305
   25MOL0     C 3234   2.174   6.496   9.804 -0.1305 -0.3117  0.5716
   25MOL0     H 3235   2.577   6.591  10.193  1.9504 -1.4016  1.9541
   25MOL0     H 3236   2.825   6.571  10.234  0.2003  0.6516 -1.2643
   25MOL0     H 3237   3.017   6.478  10.320 -0.5553 -0.2104  0.5958
   25MOL0     H 3238   3.056   6.547  10.164  0.9537 -0.7483  0.4078
   25MOL0     H 3239   3.186   6.308  10.247 -0.6148 -0.0928 -4.3543
   25MOL0     H 3240   3.245   6.474  10.305  1.5727  0.2267 -1.4517
   25MOL0     H 3241   3.263   6.535  10.060  2.3862  0.7130 -0.6521
   25MOL0     H 3242   3.237   6.373  10.020 -1.4655  0.1922  0.5506
   25MOL0     H 3243   3.467   6.492  10.199 -0.6386  1.5770 -1.8552
   25MOL0     H 3244   3.449   6.315  10.181 -1.2901  1.1810  1.7917
   25MOL0     H 3245   3.508   6.506   9.954 -1.3183  0.1482 -0.5523
   25MOL0     H 3246   3.498   6.327   9.951 -3.1754  1.2353 -0.6407
   25MOL0     H 3247   3.736   6.408   9.968 -0.8097 -1.7035 -1.0005
   25MOL0     H 3248   3.696   6.345  10.130 -0.2920 -1.3230 -0.6852
   25MOL0     H 3249   3.665   6.640  10.052 -0.2301  0.5231  1.3842
   25MOL0     H 3250   3.680   6.577  10.208  0.1337  1.4648 -0.8668
   25MOL0     H 3251   3.887   6.680  10.146  2.1740 -1.2789 -0.1987
   25MOL0     H 3252   3.911   6.559  10.015 -0.0369 -1.8465 -1.2930
   25MOL0     H 3253   3.843   6.547  10.414  0.9699  1.6472 -2.4318
   25MOL0     H 3254   4.014   6.266  10.570  0.3697  2.7401  2.2055
   25MOL0     H 3255   3.848   6.229  10.527 -0.4025  0.3223  4.1685
   25MOL0     H 3256   3.782   6.467  10.602  3.3620  1.9922 -2.1654
   25MOL0     H 3257   3.943   6.473  10.669  0.5747  0.5039  0.0329
   25MOL0     H 3258   3.742   6.400  10.818  1.3751  2.2128 -1.7072
   25MOL0     H 3259   3.731   6.245  10.729  0.1341 -1.2748  1.7323
   25MOL0     H 3260   3.965   6.189  10.795 -0.6691 -0.6849  0.0115
   25MOL0     H 3261   3.842   6.180  10.921 -1.3878  0.9238 -0.4579
   25MOL0     H 3262   4.080   6.102  10.996  0.9085 -0.3817  0.2038
   25MOL0     H 3263   4.308   6.045  11.036  1.9436  0.2086  1.7345
   25MOL0     H 3264   4.792   6.256  11.139 -1.1778 -1.0456  1.8511
   25MOL0     H 3265   4.993   6.187  11.177 -0.2467  1.5611  0.3580
   25MOL0     H 3266   5.180   6.070  11.226  1.7635 -0.1647  2.4979
   25MOL0     H 3267   5.224   5.946  11.110  0.4969  0.0740 -0.5512
   25MOL0     H 3268   5.223   5.920  11.416 -2.0583 -3.6350 -1.0338
   25MOL0     H 3269   5.365   5.971  11.316  1.7392 -1.6886 -1.7747
   25MOL0     H 3270   5.365   5.720  11.225 -1.1156 -1.3103 -0.0477
   25MOL0     H 3271   5.243   5.699  11.327  1.2378  0.3441  3.1606
   25MOL0     H 3272   5.500   5.804  11.439 -1.7816  0.8435  0.9452
   25MOL0     H 3273   5.356   5.750  11.529  1.0020 -1.0359  1.3280
   25MOL0     H 3274   5.506   5.584  11.334 -3.3668  0.2283 -0.8947
   25MOL0     H 3275   5.371   5.530  11.435  0.6021 -0.6651 -0.6825
   25MOL0     H 3276   5.534   5.581  11.636 -1.7678 -0.3311 -0.4990
   25MOL0     H 3277   5.652   5.643  11.533 -0.2940  0.0741 -1.0184
   25MOL0     H 3278   5.572   5.351  11.486  2.0411 -2.0764  0.1856
   25MOL0     H 3279   5.720   5.440  11.436  2.9839  1.9927  3.1945
   25MOL0     H 3280   5.732   5.278  11.637 -1.7603  0.0363  2.8956
   25MOL0     H 3281   5.634   5.374  11.726 -0.1899  3.2248 -0.5729
   25MOL0     H 3282   4.857   5.776  11.192 -0.9749  0.4111  0.8905
   25MOL0     H 3283   4.630   5.855  11.093 -2.9156  1.8447  2.9583
   25MOL0     H 3284   4.428   6.439  10.917  0.3459 -2.1381 -2.4971
   25MOL0     H 3285   4.177   6.504  10.893 -2.0497 -0.7345  1.4774
   25MOL0     H 3286   2.828   6.208  10.007 -1.6858 -0.1843 -1.2635
   25MOL0     H 3287   2.587   6.219   9.986  2.1125  0.0075 -2.8054
   25MOL0     H 3288   2.211   6.454  10.138  0.0751 -0.3945 -0.6631
   25MOL0     H 3289   1.960   6.437  10.122 -1.4089 -2.1114 -0.6756
   25MOL0     H 3290   1.774   6.410   9.745 -3.4962 -0.5271 -0.1981
   25MOL0     H 3291   1.783   6.572   9.740  0.7730 -0.6407  0.2364
   25MOL0     H 3292   1.591   6.415   9.913  0.6000  0.1739  0.9829
   25MOL0     H 3293   1.611   6.591   9.915  1.8005  0.0961 -1.1932
   25MOL0     H 3294   1.541   6.418   9.684  3.5328  1.7642  0.5814
   25MOL0     H 3295   1.505   6.598   9.686 -2.1330  2.1332  2.0329
   25MOL0     H 3296   1.309   6.489   9.686  1.1613 -2.2434 -0.8776
   25MOL0     H 3297   1.338   6.382   9.817 -3.3594  1.4727  0.8477
   25MOL0     H 3298   1.254   6.730  10.031  0.8265  0.4585 -0.3198
   25MOL0     H 3299   1.996   6.547   9.704  2.0215  1.0645 -1.2921
   25MOL0     H 3300   2.232   6.507   9.714 -2.2532  0.2303 -0.7961
   26MOL0     O 3301   1.509   7.796   2.554 -0.0946 -0.6432 -0.3741
   26MOL0     C 3302   1.476   7.752   2.665  0.0026  0.1827 -0.1758
   26MOL0     O 3303   1.559   7.736   2.778 -0.0894 -0.6092 -0.1623
   26MOL0     C 3304   1.670   7.809   2.780 -0.4455 -0.1470  0.1527
   26MOL0     C 3305   1.787   7.744   2.766 -0.6547 -0.8107 -0.0053
   26MOL0     C 3306   1.910   7.812   2.784  0.7052  0.0390  0.1375
   26MOL0     C 3307   1.901   7.957   2.797 -0.3916 -0.1156  0.3322
   26MOL0     O 3308   2.025   8.031   2.792 -0.0915 -0.3193  0.2410
   26MOL0     C 3309   2.148   7.976   2.737  0.3773 -0.2200 -0.5346
   26MOL0     C 3310   2.241   8.082   2.672 -0.6023 -0.3523  2.1477
   26MOL0     C 3311   2.183   8.121   2.530  0.0782 -0.9565  0.0716
   26MOL0     C 3312   2.267   8.229   2.459 -0.1384  0.0923 -0.0088
   26MOL0     C 3313   2.233   8.254   2.315 -0.1650  0.5649  0.2074
   26MOL0     C 3314   2.092   8.265   2.285  0.4252  0.1044 -0.6845
   26MOL0     C 3315   2.060   8.317   2.143  0.6479 -0.8387 -0.3372
   26MOL0     C 3316   1.928   8.385   2.124 -0.5066 -0.6600  0.0684
   26MOL0     N 3317   1.904   8.409   1.983 -0.6254 -0.0708  0.4455
   26MOL0     C 3318   1.939   8.531   1.916 -0.1228  0.5633  0.1322
   26MOL0     C 3319   1.956   8.505   1.784 -0.8335  0.3091 -0.1914
   26MOL0     C 3320   2.029   8.583   1.680 -0.2373  0.0852 -0.6091
   26MOL0     C 3321   2.179   8.548   1.670  0.2399  0.5307  0.1111
   26MOL0     C 3322   2.263   8.671   1.629  0.1130 -0.2727  0.6338
   26MOL0     C 3323   2.400   8.619   1.591 -0.0913 -0.8906 -0.0811
   26MOL0     O 3324   2.477   8.738   1.565 -0.2693  0.9216 -0.2841
   26MOL0     C 3325   2.613   8.716   1.539  0.1132  0.2553 -0.1313
   26MOL0     C 3326   2.691   8.729   1.648 -0.3920 -0.6483 -0.0610
   26MOL0     C 3327   2.828   8.700   1.639 -0.0925 -0.8923  0.0858
   26MOL0     C 3328   2.890   8.682   1.507  0.0720 -0.2239 -0.2397
   26MOL0     C 3329   3.038   8.688   1.501  1.2296  0.4248 -0.0438
   26MOL0     O 3330   3.088   8.684   1.370  0.3268  0.4054 -0.4133
   26MOL0     C 3331   3.220   8.692   1.354 -0.4927  0.0158  0.8110
   26MOL0     C 3332   3.302   8.799   1.400  0.1359  0.5457 -0.0689
   26MOL0     C 3333   3.444   8.798   1.380 -0.3660 -0.0011  0.5124
   26MOL0     C 3334   3.503   8.693   1.301 -0.1763  0.3770  0.7863
   26MOL0     O 3335   3.630   8.698   1.253  0.7217  0.1546  0.7243
   26MOL0     C 3336   3.702   8.593   1.300  0.5121  0.0528 -0.4609
   26MOL0     C 3337   3.845   8.619   1.257  0.3302  0.0442  0.2336
   26MOL0     C 3338   3.894   8.742   1.321  0.3553 -0.4081  0.8940
   26MOL0     C 3339   4.045   8.739   1.279 -0.4507  0.3986  1.3745
   26MOL0     C 3340   4.144   8.801   1.383  0.2013  1.4133  0.4349
   26MOL0     C 3341   4.294   8.776   1.337  0.2738 -0.5280 -0.1923
   26MOL0     C 3342   4.406   8.835   1.414  0.2310  0.2320 -0.4444
   26MOL0     C 3343   4.411   8.778   1.560  0.2609 -0.1049 -1.1631
   26MOL0    Cl 3344   4.562   8.846   1.628 -0.3138  0.4074  0.3021
   26MOL0     C 3345   3.414   8.605   1.246  0.2062  1.1733 -0.6576
   26MOL0     C 3346   3.279   8.605   1.276  0.1802 -0.1124  0.4748
   26MOL0     O 3347   3.116   8.711   1.602  0.1680 -0.4186  0.5492
   26MOL0     C 3348   2.799   8.672   1.396  1.1293  0.3196 -0.0589
   26MOL0     C 3349   2.667   8.694   1.409 -0.3872 -0.1676  0.1995
   26MOL0     N 3350   1.912   8.374   1.769  0.5581 -0.8195 -0.2723
   26MOL0     N 3351   1.891   8.315   1.888 -0.0122 -1.1834 -0.0561
   26MOL0     C 3352   1.782   8.023   2.808 -0.0997 -0.6358  0.0635
   26MOL0     C 3353   1.666   7.948   2.800 -0.7967 -0.3619  0.5547
   26MOL0     C 3354   1.326   7.710   2.676 -0.3193 -1.7506  1.1747
   26MOL0     C 3355   1.233   7.750   2.576  0.4047  0.5024  0.2518
   26MOL0     C 3356   1.098   7.698   2.577  0.0179  0.1098 -0.0679
   26MOL0     C 3357   1.065   7.611   2.681 -0.3192  0.3267 -1.1807
   26MOL0     O 3358   0.947   7.542   2.684 -0.2218 -0.2095  0.7331
   26MOL0     C 3359   0.830   7.621   2.655  0.5585  0.5931  0.3712
   26MOL0     C 3360   0.711   7.533   2.683  0.2004 -0.2545  0.0825
   26MOL0     C 3361   0.585   7.618   2.699  0.1233  0.0803  0.2689
   26MOL0     C 3362   0.474   7.532   2.754  1.0716  0.3455 -0.2167
   26MOL0     C 3363   0.360   7.616   2.762 -0.6746 -0.3709  0.4194
   26MOL0     C 3364   0.268   7.694   2.767  0.7662  0.3980 -0.1175
   26MOL0     C 3365   1.156   7.578   2.784 -0.1401 -0.5240 -0.1766
   26MOL0     C 3366   1.286   7.633   2.783 -0.4257  0.1006  0.0065
   26MOL0     H 3367   1.780   7.637   2.744  0.3230 -0.2565 -3.7520
   26MOL0     H 3368   2.006   7.761   2.781  1.6402  1.7449 -3.3903
   26MOL0     H 3369   2.126   7.885   2.680 -1.5423 -0.9118  1.1772
   26MOL0     H 3370   2.186   7.935   2.832 -1.6317 -1.1941 -0.0968
   26MOL0     H 3371   2.342   8.042   2.660 -0.5459  0.0737  1.0685
   26MOL0     H 3372   2.249   8.168   2.739 -0.5118  0.0521  1.6282
   26MOL0     H 3373   2.085   8.165   2.550  0.0338 -0.8959 -0.2743
   26MOL0     H 3374   2.171   8.034   2.465  4.2656 -0.6622 -1.4549
   26MOL0     H 3375   2.253   8.322   2.514 -2.1684 -1.7480  2.8281
   26MOL0     H 3376   2.370   8.197   2.442 -0.0644  0.0972  0.4362
   26MOL0     H 3377   2.274   8.174   2.253 -1.5868  2.4567 -3.5116
   26MOL0     H 3378   2.272   8.355   2.301 -0.5926  1.5868  4.7142
   26MOL0     H 3379   2.060   8.343   2.354  3.3661  1.1983 -0.4267
   26MOL0     H 3380   2.040   8.168   2.294 -1.1909  0.6979 -2.6582
   26MOL0     H 3381   2.144   8.372   2.099  0.9566 -1.5779 -0.6891
   26MOL0     H 3382   2.056   8.228   2.080 -1.4009 -1.4284  0.5465
   26MOL0     H 3383   1.936   8.473   2.188  2.0300  0.6985 -1.9379
   26MOL0     H 3384   1.862   8.311   2.169  0.7224 -2.4009 -0.9019
   26MOL0     H 3385   1.961   8.619   1.976 -0.4239 -0.8083  2.3690
   26MOL0     H 3386   2.013   8.689   1.703  1.1987  0.0766  0.5484
   26MOL0     H 3387   1.983   8.559   1.584  1.8411 -2.0501 -1.1552
   26MOL0     H 3388   2.177   8.472   1.592 -1.3776  0.2860  0.3470
   26MOL0     H 3389   2.207   8.502   1.766  1.2085 -1.8504 -1.2242
   26MOL0     H 3390   2.221   8.728   1.547 -0.9301 -0.5053  0.9945
   26MOL0     H 3391   2.271   8.747   1.707  0.2940  1.3597 -0.9226
   26MOL0     H 3392   2.393   8.571   1.493 -0.6790  1.1759 -1.1139
   26MOL0     H 3393   2.446   8.549   1.662 -0.0580 -1.8523 -1.0344
   26MOL0     H 3394   2.652   8.756   1.745  2.4559  2.0302  0.4925
   26MOL0     H 3395   2.889   8.712   1.728  0.0155 -1.7250  0.1285
   26MOL0     H 3396   3.262   8.880   1.460  1.9156  0.8524  0.7585
   26MOL0     H 3397   3.508   8.878   1.413 -4.2964  3.4758  0.5440
   26MOL0     H 3398   3.665   8.505   1.248  2.6750 -1.2811  0.1281
   26MOL0     H 3399   3.706   8.586   1.409 -2.8861 -1.9926 -0.3144
   26MOL0     H 3400   3.840   8.622   1.148 -2.6646 -2.4850  0.1240
   26MOL0     H 3401   3.907   8.533   1.283 -0.2726  0.5457  3.7902
   26MOL0     H 3402   3.885   8.731   1.430  4.9248 -2.4457  1.3099
   26MOL0     H 3403   3.839   8.826   1.276  3.5823  1.8086  0.7324
   26MOL0     H 3404   4.086   8.639   1.260  0.3091  0.5636  2.0818
   26MOL0     H 3405   4.063   8.796   1.187 -1.9349 -0.9119  0.1937
   26MOL0     H 3406   4.121   8.758   1.481 -0.3390 -3.0618 -1.4147
   26MOL0     H 3407   4.140   8.910   1.371  1.0767  1.3708 -0.3516
   26MOL0     H 3408   4.310   8.815   1.236 -2.6169 -0.1379 -0.5670
   26MOL0     H 3409   4.314   8.669   1.325 -1.8829 -0.7550 -2.5805
   26MOL0     H 3410   4.499   8.814   1.361  0.1461  2.9181 -1.8057
   26MOL0     H 3411   4.402   8.944   1.413 -0.6945  0.2174  0.2773
   26MOL0     H 3412   4.406   8.669   1.550  2.2852 -0.5943  1.8960
   26MOL0     H 3413   4.331   8.812   1.625  2.1271 -2.9190  3.1044
   26MOL0     H 3414   3.463   8.533   1.181  3.2371 -1.0529  3.5883
   26MOL0     H 3415   3.212   8.523   1.252 -0.5207  0.5159  0.2401
   26MOL0     H 3416   2.833   8.661   1.293 -1.1986 -0.7154 -0.8004
   26MOL0     H 3417   2.602   8.713   1.323  1.1586  3.4636 -0.3103
   26MOL0     H 3418   1.761   8.127   2.833 -0.7244  0.6763 -4.8341
   26MOL0     H 3419   1.568   7.995   2.803  0.2351  2.5633 -3.1239
   26MOL0     H 3420   1.261   7.825   2.503  3.6393 -0.1548  0.7064
   26MOL0     H 3421   1.024   7.719   2.500 -0.4812  2.7276  1.0367
   26MOL0     H 3422   0.829   7.666   2.556 -0.3019  2.6867  1.2844
   26MOL0     H 3423   0.822   7.706   2.722 -1.2049  2.0425 -1.5689
   26MOL0     H 3424   0.690   7.463   2.601 -0.5921  0.8169 -0.6519
   26MOL0     H 3425   0.742   7.472   2.768  1.1521 -2.7137 -1.8888
   26MOL0     H 3426   0.558   7.647   2.597 -0.9589 -1.0926  0.1899
   26MOL0     H 3427   0.601   7.702   2.766 -2.5432  2.0469 -1.3716
   26MOL0     H 3428   0.445   7.452   2.686 -1.4212 -0.3782  1.5592
   26MOL0     H 3429   0.502   7.480   2.846  1.6565 -0.1407 -0.6565
   26MOL0     H 3430   0.189   7.767   2.764  1.9690  1.7370 -0.0917
   26MOL0     H 3431   1.127   7.510   2.863  2.2908 -1.0553  0.3525
   26MOL0     H 3432   1.354   7.603   2.863 -0.0935 -0.3805 -0.4486
   27MOL0     O 3433   4.194   0.256   3.767 -1.0629  0.2335 -0.0615
   27MOL0     C 3434   4.222   0.358   3.821 -0.7295  0.8999  0.1427
   27MOL0     O 3435   4.146   0.424   3.906 -0.2614 -0.3434  0.1729
   27MOL0     C 3436   4.020   0.385   3.931 -0.6812  0.4552  0.4353
   27MOL0     C 3437   3.987   0.328   4.054  0.2157 -0.1620 -0.6317
   27MOL0     C 3438   3.852   0.291   4.081 -0.1220 -0.0449 -0.6942
   27MOL0     C 3439   3.751   0.306   3.987  0.7405  0.1142  0.4047
   27MOL0     O 3440   3.620   0.272   4.018 -0.5434  0.1147  0.2897
   27MOL0     C 3441   3.526   0.244   3.913 -0.3980 -1.2664 -0.6567
   27MOL0     C 3442   3.397   0.238   3.985  0.0430  0.2074  0.2623
   27MOL0     C 3443   3.381   0.111   4.075  0.2447  0.3466 -0.5015
   27MOL0     C 3444   3.247   0.085   4.145  0.2071 -0.8367  0.0638
   27MOL0     C 3445   3.197   0.186   4.248 -0.3619 -0.4561 -0.1907
   27MOL0     C 3446   3.078   0.152   4.340 -0.5156  0.9866  0.4851
   27MOL0     C 3447   2.940   0.192   4.279  0.3454  0.3687  0.9412
   27MOL0     C 3448   2.841   0.141   4.380 -0.2173  0.1690  0.2514
   27MOL0     N 3449   2.699   0.165   4.347 -0.5127 -0.1813  0.3654
   27MOL0     C 3450   2.605   0.239   4.424 -0.6734 -0.1244  0.8768
   27MOL0     C 3451   2.498   0.259   4.339  0.4834  0.4086 -1.1660
   27MOL0     C 3452   2.367   0.321   4.382 -0.2889 -0.5227  0.9165
   27MOL0     C 3453   2.291   0.274   4.508  0.8384 -0.3303  0.6398
   27MOL0     C 3454   2.361   0.321   4.642 -0.7484 -0.4771  0.2630
   27MOL0     C 3455   2.273   0.343   4.763  0.1432  0.5793  0.3527
   27MOL0     O 3456   2.176   0.440   4.731 -0.2007 -0.1388 -0.2732
   27MOL0     C 3457   2.124   0.493   4.845 -0.1993  0.3210  0.2070
   27MOL0     C 3458   2.088   0.627   4.831 -0.5367  0.4511  0.7780
   27MOL0     C 3459   2.033   0.693   4.942  0.7302 -0.8555  0.2893
   27MOL0     C 3460   2.001   0.622   5.056 -0.3824  1.0718 -0.2486
   27MOL0     C 3461   1.925   0.679   5.177  0.1356  0.3485 -0.0824
   27MOL0     O 3462   1.965   0.626   5.299 -0.1329  0.9721 -0.5868
   27MOL0     C 3463   1.893   0.646   5.413 -0.5658 -0.2084  0.1218
   27MOL0     C 3464   1.880   0.537   5.486  0.3621  0.9250 -0.6662
   27MOL0     C 3465   1.816   0.547   5.620 -0.4574  0.2476  0.7563
   27MOL0     C 3466   1.768   0.669   5.673 -0.3111  0.6861 -0.2617
   27MOL0     O 3467   1.712   0.660   5.798  0.0746  0.0731 -0.5582
   27MOL0     C 3468   1.767   0.748   5.891 -0.0303  0.4430  1.0233
   27MOL0     C 3469   1.759   0.676   6.031  0.0314 -0.0991  0.3863
   27MOL0     C 3470   1.608   0.673   6.069 -0.2607 -0.4271  0.7299
   27MOL0     C 3471   1.573   0.643   6.218  0.8042  0.2110  0.3909
   27MOL0     C 3472   1.607   0.498   6.267  0.0828  0.3403 -0.4214
   27MOL0     C 3473   1.605   0.478   6.419  0.0117  0.2031  0.7109
   27MOL0     C 3474   1.654   0.338   6.454  0.4190  0.1181  0.4561
   27MOL0     C 3475   1.541   0.230   6.457  1.3081  0.7005  0.5554
   27MOL0    Cl 3476   1.602   0.057   6.431  0.0018  0.2089  0.2127
   27MOL0     C 3477   1.784   0.775   5.587  0.3909 -0.2979  0.2037
   27MOL0     C 3478   1.843   0.771   5.460 -0.1179  0.8952 -0.2712
   27MOL0     O 3479   1.836   0.755   5.158  0.0953  0.6724 -0.8993
   27MOL0     C 3480   2.025   0.479   5.061  0.7860 -1.0126  0.0101
   27MOL0     C 3481   2.085   0.418   4.959 -1.0620 -0.0233  0.3580
   27MOL0     N 3482   2.522   0.188   4.221 -0.2091 -0.1081 -0.5667
   27MOL0     N 3483   2.633   0.123   4.232  0.1566 -1.5250 -0.4838
   27MOL0     C 3484   3.786   0.377   3.868  1.0259  0.3060 -0.8801
   27MOL0     C 3485   3.918   0.412   3.843 -1.2211  0.3164  0.3597
   27MOL0     C 3486   4.354   0.407   3.795  0.3971 -0.6209  0.8917
   27MOL0     C 3487   4.396   0.524   3.859 -0.1461  0.4486 -0.4214
   27MOL0     C 3488   4.526   0.568   3.835  0.0407 -0.1884 -0.4909
   27MOL0     C 3489   4.618   0.498   3.756  0.8928 -0.4255 -0.0261
   27MOL0     O 3490   4.753   0.538   3.726 -0.2360 -0.8928  0.3153
   27MOL0     C 3491   4.795   0.669   3.747  0.4082 -0.1569  0.1687
   27MOL0     C 3492   4.949   0.668   3.718  0.2048 -0.9508 -0.2726
   27MOL0     C 3493   5.015   0.803   3.770 -0.1287 -0.4323  0.3163
   27MOL0     C 3494   5.160   0.807   3.720  0.8650 -0.2453  0.1757
   27MOL0     C 3495   5.217   0.934   3.761  0.4113  0.1810 -0.4490
   27MOL0     C 3496   5.266   1.044   3.793  0.6011 -0.0677  0.7943
   27MOL0     C 3497   4.572   0.385   3.677 -1.0417  0.9143  0.3474
   27MOL0     C 3498   4.439   0.346   3.697 -0.1119 -0.6529 -0.6958
   27MOL0     H 3499   4.064   0.323   4.130 -0.1555 -3.8076 -0.3337
   27MOL0     H 3500   3.834   0.227   4.166  0.4044 -1.4209 -1.5888
   27MOL0     H 3501   3.549   0.152   3.858  0.6268 -2.4851  1.6620
   27MOL0     H 3502   3.514   0.325   3.841 -2.4120 -1.6256 -0.7688
   27MOL0     H 3503   3.325   0.240   3.902 -1.0238 -0.6733  1.1258
   27MOL0     H 3504   3.388   0.329   4.044  1.5149 -0.0792  0.9734
   27MOL0     H 3505   3.461   0.120   4.150 -0.8645 -0.1528  0.7797
   27MOL0     H 3506   3.405   0.024   4.014  0.5849 -0.9864  1.4339
   27MOL0     H 3507   3.176   0.079   4.062 -0.0542 -0.3412  0.2449
   27MOL0     H 3508   3.254  -0.012   4.194 -0.2961 -1.9432 -1.9468
   27MOL0     H 3509   3.165   0.264   4.179 -2.1439 -3.6671 -3.2859
   27MOL0     H 3510   3.282   0.220   4.307 -1.3185  2.1873 -0.2087
   27MOL0     H 3511   3.097   0.207   4.432  2.5693 -0.2182  0.6657
   27MOL0     H 3512   3.091   0.045   4.359 -0.0115  1.5330  3.6965
   27MOL0     H 3513   2.918   0.300   4.278 -2.9456 -0.1262  3.0593
   27MOL0     H 3514   2.928   0.142   4.182  1.8194  1.6421  0.0663
   27MOL0     H 3515   2.869   0.177   4.480 -2.8654 -0.9284  1.4774
   27MOL0     H 3516   2.844   0.032   4.378 -1.3382  0.1420 -1.3315
   27MOL0     H 3517   2.628   0.281   4.521  0.4941  2.1928 -0.3252
   27MOL0     H 3518   2.300   0.310   4.296  0.9225 -1.9935  0.0870
   27MOL0     H 3519   2.387   0.428   4.375 -0.2503 -0.5347  0.8350
   27MOL0     H 3520   2.272   0.167   4.494 -2.7443  0.1185  0.9921
   27MOL0     H 3521   2.194   0.325   4.501  1.9831  2.1022  1.3542
   27MOL0     H 3522   2.438   0.254   4.683  0.1345  1.7135  2.4013
   27MOL0     H 3523   2.425   0.408   4.624 -0.6962 -0.6757 -0.5785
   27MOL0     H 3524   2.324   0.360   4.859  0.2181  2.1127  0.0606
   27MOL0     H 3525   2.220   0.247   4.770  2.0048 -0.5190  0.0010
   27MOL0     H 3526   2.130   0.667   4.739 -0.3776 -1.8881 -0.2590
   27MOL0     H 3527   1.996   0.794   4.930  0.2504 -0.9691  0.7420
   27MOL0     H 3528   1.912   0.436   5.464 -1.2735 -0.3938  2.3959
   27MOL0     H 3529   1.812   0.461   5.686  2.9169  0.8723  1.9904
   27MOL0     H 3530   1.705   0.839   5.882 -0.3135  0.1142 -0.5842
   27MOL0     H 3531   1.873   0.767   5.873  0.9929 -2.1631  3.5420
   27MOL0     H 3532   1.808   0.739   6.105  5.1452 -2.3929 -0.6168
   27MOL0     H 3533   1.806   0.578   6.023  3.3646  1.5132 -3.0694
   27MOL0     H 3534   1.556   0.600   6.006  0.9617  0.4014 -1.3524
   27MOL0     H 3535   1.566   0.773   6.049 -0.9427  0.0114  3.8539
   27MOL0     H 3536   1.646   0.701   6.274  0.8507  0.1538  0.3882
   27MOL0     H 3537   1.467   0.659   6.242  0.0234 -3.6647  0.1553
   27MOL0     H 3538   1.706   0.473   6.229 -0.2159  1.9456 -2.4247
   27MOL0     H 3539   1.541   0.422   6.224  3.0409 -2.2295 -0.7556
   27MOL0     H 3540   1.499   0.486   6.444 -1.5819 -2.4345 -3.9353
   27MOL0     H 3541   1.651   0.564   6.469 -1.1586  1.6187 -0.5286
   27MOL0     H 3542   1.740   0.312   6.391  1.7799 -0.1120  2.3200
   27MOL0     H 3543   1.701   0.347   6.553  0.5790 -0.0763  0.3976
   27MOL0     H 3544   1.488   0.252   6.364  2.2938 -1.9628 -0.7479
   27MOL0     H 3545   1.465   0.235   6.536  0.9288  0.9052  0.1819
   27MOL0     H 3546   1.734   0.867   5.616 -2.0690 -1.4381 -0.1575
   27MOL0     H 3547   1.847   0.858   5.396 -0.2312  0.3558 -1.0342
   27MOL0     H 3548   2.006   0.424   5.153  0.5023  0.5802  0.9317
   27MOL0     H 3549   2.087   0.309   4.958  1.1608 -0.0432 -1.4982
   27MOL0     H 3550   3.716   0.400   3.789  1.5421 -0.8740 -1.7178
   27MOL0     H 3551   3.946   0.462   3.751  1.7553  1.8972  1.9670
   27MOL0     H 3552   4.347   0.579   3.939 -0.5397 -2.4599  1.5030
   27MOL0     H 3553   4.562   0.662   3.874  2.0584  0.0140 -2.5926
   27MOL0     H 3554   4.781   0.691   3.853  0.2656 -3.6622  1.0109
   27MOL0     H 3555   4.739   0.742   3.688  1.5891  0.6638  0.0152
   27MOL0     H 3556   4.992   0.579   3.766  0.6628 -0.3066  0.5404
   27MOL0     H 3557   4.961   0.664   3.609 -0.9811  3.6190 -0.7748
   27MOL0     H 3558   5.000   0.821   3.877 -2.9378  3.4874 -0.5545
   27MOL0     H 3559   4.966   0.883   3.715  0.1716 -0.3977  0.0991
   27MOL0     H 3560   5.221   0.732   3.770  1.2600 -0.7679 -1.0671
   27MOL0     H 3561   5.184   0.794   3.614  1.1702 -1.3923  0.3755
   27MOL0     H 3562   5.322   1.121   3.841  0.3364 -0.1152  1.1888
   27MOL0     H 3563   4.622   0.340   3.591 -1.1020  1.9836 -0.2627
   27MOL0     H 3564   4.403   0.271   3.627  3.2442  0.4446 -3.9217
   28MOL0     O 3565   5.343   9.860   6.818  0.0029 -0.9472  0.3357
   28MOL0     C 3566   5.247   9.854   6.896 -0.1749 -0.8534 -0.2468
   28MOL0     O 3567   5.266   9.869   7.032 -0.6623 -0.4241  0.4630
   28MOL0     C 3568   5.393   9.891   7.086  0.3752 -1.1374 -0.5213
   28MOL0     C 3569   5.517   9.931   7.027 -0.5210 -0.0203 -0.2278
   28MOL0     C 3570   5.640   9.929   7.101  0.7842 -0.2918  0.7417
   28MOL0     C 3571   5.628   9.922   7.238  0.9087  0.0254 -0.0885
   28MOL0     O 3572   5.746   9.919   7.309 -0.2085 -0.2350 -0.4490
   28MOL0     C 3573   5.745  10.032   7.409  0.1566  0.7653  0.2357
   28MOL0     C 3574   5.879  10.030   7.491 -1.0378 -0.1321  0.1499
   28MOL0     C 3575   5.895  10.123   7.619 -0.2013  0.3780 -0.6195
   28MOL0     C 3576   6.039  10.152   7.656  1.3034  0.1064 -0.6040
   28MOL0     C 3577   6.026  10.245   7.777  0.7040  0.8118 -0.7891
   28MOL0     C 3578   5.980  10.387   7.732  0.0265  0.7172 -0.5233
   28MOL0     C 3579   5.989  10.489   7.839  0.2571 -0.3258  0.1011
   28MOL0     C 3580   5.885  10.480   7.953 -1.2646  0.2093 -0.2735
   28MOL0     N 3581   5.905  10.595   8.047  0.1487 -0.5516  0.4482
   28MOL0     C 3582   5.872  10.587   8.182  0.3431  1.2564 -0.4515
   28MOL0     C 3583   5.893  10.706   8.239 -0.2731  0.0730 -0.4189
   28MOL0     C 3584   5.867  10.754   8.384  0.4170  0.1315  0.2408
   28MOL0     C 3585   5.810  10.903   8.378  0.2850 -0.1971 -0.6814
   28MOL0     C 3586   5.727  10.928   8.513  0.2286 -0.0137 -0.1410
   28MOL0     C 3587   5.629  11.041   8.515 -1.0790  1.0710  0.3019
   28MOL0     O 3588   5.682  11.168   8.463  0.2231  0.5898  0.3114
   28MOL0     C 3589   5.618  11.251   8.383 -0.3141 -0.4219  0.4251
   28MOL0     C 3590   5.673  11.359   8.322  0.5721 -0.9009 -0.4109
   28MOL0     C 3591   5.592  11.458   8.250  0.1899  0.8627 -0.1441
   28MOL0     C 3592   5.447  11.448   8.249 -0.6198 -0.7781 -0.0150
   28MOL0     C 3593   5.355  11.542   8.176 -0.2901  0.8242 -0.8000
   28MOL0     O 3594   5.409  11.642   8.108  0.1959 -0.9077 -0.0783
   28MOL0     C 3595   5.322  11.725   8.036 -0.9075  0.3234 -0.0627
   28MOL0     C 3596   5.226  11.679   7.944 -0.3596  0.1266 -0.3115
   28MOL0     C 3597   5.131  11.763   7.882 -0.3781 -0.6616 -0.2027
   28MOL0     C 3598   5.155  11.901   7.903 -0.5759 -0.7767  0.3077
   28MOL0     O 3599   5.063  11.990   7.844 -1.0067  0.5565 -0.2094
   28MOL0     C 3600   5.007  12.085   7.931  0.2912  0.6769  0.6406
   28MOL0     C 3601   4.881  12.137   7.865  0.0138  0.0292 -1.0642
   28MOL0     C 3602   4.801  12.235   7.965  0.1375 -0.3559  0.3976
   28MOL0     C 3603   4.665  12.262   7.904 -0.5458 -1.0487 -0.4414
   28MOL0     C 3604   4.617  12.395   7.968 -0.5218 -0.9729 -1.6288
   28MOL0     C 3605   4.471  12.426   7.946 -0.3471  0.0913  0.2123
   28MOL0     C 3606   4.426  12.573   7.976  0.0411  0.0149 -0.9516
   28MOL0     C 3607   4.453  12.674   7.867  0.0271 -0.4467 -0.2418
   28MOL0    Cl 3608   4.412  12.627   7.700 -0.4313 -0.2067  0.0444
   28MOL0     C 3609   5.250  11.957   7.987 -0.1147  0.8781  0.9628
   28MOL0     C 3610   5.334  11.870   8.053  1.1644  1.3221 -0.3397
   28MOL0     O 3611   5.240  11.515   8.195  0.2314  0.0864  0.2721
   28MOL0     C 3612   5.394  11.343   8.329  0.2373  0.3614  0.0904
   28MOL0     C 3613   5.477  11.246   8.385  0.4868 -0.7066  0.3475
   28MOL0     N 3614   5.934  10.786   8.125 -0.2778 -0.1834 -0.5008
   28MOL0     N 3615   5.935  10.720   8.014 -0.0448  0.0530  0.3775
   28MOL0     C 3616   5.510   9.897   7.306 -0.3598  0.1786  0.4117
   28MOL0     C 3617   5.398   9.869   7.223  0.1444  0.1791  0.1347
   28MOL0     C 3618   5.108   9.849   6.853  0.3557  0.4746  0.8763
   28MOL0     C 3619   4.995   9.875   6.935  0.0855  0.0876  0.0266
   28MOL0     C 3620   4.858   9.871   6.880  0.0084  0.7025 -0.3052
   28MOL0     C 3621   4.833   9.835   6.749  0.8178 -0.5163  0.1524
   28MOL0     O 3622   4.704   9.840   6.683 -0.3419 -0.3764 -0.1926
   28MOL0     C 3623   4.578   9.859   6.753  0.3402 -0.5112  0.0802
   28MOL0     C 3624   4.467   9.919   6.655 -0.1524  0.7022 -0.4547
   28MOL0     C 3625   4.409   9.807   6.577  1.1369 -0.2729 -0.8060
   28MOL0     C 3626   4.273   9.757   6.639 -0.1834 -1.3784 -0.3271
   28MOL0     C 3627   4.166   9.859   6.617 -0.3087 -0.0025 -0.5674
   28MOL0     C 3628   4.061   9.918   6.600 -0.7315 -0.4105  0.2541
   28MOL0     C 3629   4.947   9.792   6.681  0.0078  0.3538  0.7570
   28MOL0     C 3630   5.077   9.801   6.724  0.8411  0.0164  0.2424
   28MOL0     H 3631   5.523   9.974   6.927 -0.7594  0.8563  0.1244
   28MOL0     H 3632   5.733   9.957   7.051  0.0615 -1.2228 -1.2245
   28MOL0     H 3633   5.654  10.044   7.469  0.4647  0.2543  0.8054
   28MOL0     H 3634   5.746  10.129   7.359  1.2886  1.2957  1.2238
   28MOL0     H 3635   5.964  10.056   7.428 -0.6021  0.0066  0.7812
   28MOL0     H 3636   5.896   9.929   7.529 -0.2795  0.4278  1.3651
   28MOL0     H 3637   5.833  10.067   7.689 -0.3195 -1.4501 -2.1045
   28MOL0     H 3638   5.846  10.221   7.607  4.8749  4.2106  4.2625
   28MOL0     H 3639   6.094  10.059   7.674  1.5584  0.1480 -1.1447
   28MOL0     H 3640   6.088  10.207   7.575  1.7370  1.5625  0.6042
   28MOL0     H 3641   6.127  10.263   7.814  0.8571  1.8433 -1.6868
   28MOL0     H 3642   5.964  10.197   7.854  1.2228 -0.7696 -1.3033
   28MOL0     H 3643   5.885  10.402   7.680 -0.0065  1.5440 -0.2401
   28MOL0     H 3644   6.055  10.425   7.661 -1.6259  3.9578 -0.7117
   28MOL0     H 3645   6.091  10.485   7.879  0.0756  1.0278  0.7498
   28MOL0     H 3646   5.979  10.588   7.795  3.7656  0.5277  0.8942
   28MOL0     H 3647   5.914  10.393   8.014 -0.2746  0.8004  0.1299
   28MOL0     H 3648   5.778  10.464   7.934 -1.5956  0.0711  1.5369
   28MOL0     H 3649   5.864  10.490   8.230  2.2930  2.4902  2.7205
   28MOL0     H 3650   5.962  10.742   8.437  0.4906  1.9952  0.5902
   28MOL0     H 3651   5.794  10.684   8.426 -0.2360  0.6819  0.0528
   28MOL0     H 3652   5.744  10.927   8.294 -1.0449 -1.7399 -0.1254
   28MOL0     H 3653   5.889  10.979   8.379  1.5118 -1.4273 -0.2092
   28MOL0     H 3654   5.667  10.839   8.533 -0.8858  1.2925  2.8940
   28MOL0     H 3655   5.784  10.951   8.604 -0.2085  0.7400 -0.0509
   28MOL0     H 3656   5.597  11.048   8.619  1.0742 -1.6794  1.2828
   28MOL0     H 3657   5.546  11.007   8.452 -0.8161 -0.7382  0.8750
   28MOL0     H 3658   5.778  11.385   8.322 -0.0748  2.0835  0.4377
   28MOL0     H 3659   5.655  11.524   8.190  1.1745 -0.2548 -0.3778
   28MOL0     H 3660   5.222  11.573   7.919  0.5054  0.6288 -2.9459
   28MOL0     H 3661   5.042  11.725   7.834 -0.1458 -0.9543 -0.4057
   28MOL0     H 3662   5.068  12.175   7.939  0.4127  0.6097  0.4610
   28MOL0     H 3663   4.975  12.039   8.026 -0.8890  2.1279  0.9771
   28MOL0     H 3664   4.809  12.059   7.838 -1.7485  1.1901  0.0756
   28MOL0     H 3665   4.915  12.188   7.774 -1.4275 -2.6350 -3.2458
   28MOL0     H 3666   4.866  12.323   7.970 -1.1170  0.6957 -0.9797
   28MOL0     H 3667   4.791  12.180   8.059 -1.9851 -1.4549 -0.3949
   28MOL0     H 3668   4.674  12.295   7.800 -3.2192  1.4124 -0.0127
   28MOL0     H 3669   4.593  12.180   7.903  0.4757 -1.9660 -0.7955
   28MOL0     H 3670   4.676  12.478   7.928 -1.2337 -0.7540 -2.2386
   28MOL0     H 3671   4.627  12.381   8.076 -0.6617 -1.1598 -1.6391
   28MOL0     H 3672   4.408  12.355   8.000 -0.5184  0.3093  0.2990
   28MOL0     H 3673   4.462  12.397   7.841  4.3581 -1.2218 -0.0424
   28MOL0     H 3674   4.320  12.564   8.001  0.8630  0.4989  3.4166
   28MOL0     H 3675   4.468  12.615   8.068  0.9116  0.8985 -1.7257
   28MOL0     H 3676   4.558  12.704   7.867 -0.2671  0.6283  0.3810
   28MOL0     H 3677   4.388  12.761   7.874  2.0100  1.1982 -1.2737
   28MOL0     H 3678   5.261  12.065   7.989 -2.4987  1.2867 -1.4077
   28MOL0     H 3679   5.404  11.918   8.121 -3.4962  1.1153  5.4521
   28MOL0     H 3680   5.288  11.337   8.348 -0.1766  4.0060 -0.3234
   28MOL0     H 3681   5.427  11.168   8.442  1.1639 -0.6013  1.1005
   28MOL0     H 3682   5.510   9.892   7.415 -1.6167  2.3212  0.5547
   28MOL0     H 3683   5.311   9.828   7.272  0.5347  0.7231  1.3168
   28MOL0     H 3684   5.020   9.909   7.035 -0.8746 -0.6958  0.5425
   28MOL0     H 3685   4.772   9.901   6.939  0.1992  0.9497 -0.1541
   28MOL0     H 3686   4.591   9.937   6.829 -2.4519  0.3427 -0.1990
   28MOL0     H 3687   4.540   9.770   6.804  2.6955 -0.3801  2.3091
   28MOL0     H 3688   4.394   9.974   6.716 -0.5363 -2.6799  2.5201
   28MOL0     H 3689   4.504   9.993   6.585  2.0553 -0.6306 -0.7688
   28MOL0     H 3690   4.481   9.725   6.563  2.1633  0.5904 -0.6804
   28MOL0     H 3691   4.374   9.851   6.483 -3.1996  0.6479  1.0327
   28MOL0     H 3692   4.235   9.671   6.583 -2.2053 -1.4022  0.9832
   28MOL0     H 3693   4.290   9.732   6.745  2.0704  1.5252  0.1235
   28MOL0     H 3694   3.967   9.971   6.594 -0.2229  0.3867 -1.1063
   28MOL0     H 3695   4.938   9.748   6.582  1.8873  1.0523  0.2237
   28MOL0     H 3696   5.164   9.761   6.673  1.5072  0.6252  0.8861
   29MOL0     O 3697   2.498   7.229   6.018  0.8090 -0.2974  1.2420
   29MOL0     C 3698   2.578   7.288   6.095  0.3633 -0.6012  0.1588
   29MOL0     O 3699   2.547   7.320   6.222 -0.3848  0.6132  0.3934
   29MOL0     C 3700   2.429   7.278   6.296 -0.0091 -0.5861  0.3564
   29MOL0     C 3701   2.391   7.358   6.402  0.0009  0.5228  0.9512
   29MOL0     C 3702   2.283   7.326   6.485  0.3806 -0.0183 -0.0491
   29MOL0     C 3703   2.210   7.208   6.465  0.1116  0.2390  0.3886
   29MOL0     O 3704   2.104   7.164   6.537 -0.0726  0.8975 -0.0163
   29MOL0     C 3705   2.095   7.209   6.676  0.5329 -0.3146  0.6328
   29MOL0     C 3706   2.041   7.099   6.769  0.2737 -0.9374  0.1024
   29MOL0     C 3707   1.887   7.064   6.746 -0.8364 -0.1760  0.3124
   29MOL0     C 3708   1.817   6.966   6.842 -0.7314  1.1504  0.5086
   29MOL0     C 3709   1.663   6.960   6.820 -0.1130  0.4861 -0.2261
   29MOL0     C 3710   1.613   6.856   6.913  0.5734  0.8905  0.5029
   29MOL0     C 3711   1.468   6.809   6.882 -0.3199 -0.0817  0.1728
   29MOL0     C 3712   1.376   6.888   6.971 -0.5918  0.7119  0.5504
   29MOL0     N 3713   1.242   6.851   6.946  0.6917  0.3103  0.0426
   29MOL0     C 3714   1.160   6.770   7.019 -0.0307  0.0137  0.0376
   29MOL0     C 3715   1.032   6.775   6.966 -0.1749 -0.7349 -0.3925
   29MOL0     C 3716   0.909   6.720   7.039 -0.2379  0.4377  1.2103
   29MOL0     C 3717   0.789   6.708   6.949 -0.2104 -0.1498  0.5265
   29MOL0     C 3718   0.684   6.671   7.048 -0.1447  0.3269  0.1410
   29MOL0     C 3719   0.551   6.661   6.976  0.2206  0.3016 -0.0422
   29MOL0     O 3720   0.466   6.770   6.989  0.4091 -0.0578  0.0448
   29MOL0     C 3721   0.332   6.746   7.003  0.7258 -0.0907  0.2802
   29MOL0     C 3722   0.268   6.635   6.956  0.6467  0.7528 -0.5403
   29MOL0     C 3723   0.132   6.615   6.963  0.2670 -1.1650 -0.2654
   29MOL0     C 3724   0.050   6.726   6.997 -0.4832  0.2470  0.7340
   29MOL0     C 3725  -0.096   6.707   6.985 -0.6645  0.3732  0.9979
   29MOL0     O 3726  -0.145   6.586   6.950  1.3287 -0.2522 -0.4944
   29MOL0     C 3727  -0.291   6.575   6.944 -0.4822  1.6336  0.5320
   29MOL0     C 3728  -0.347   6.566   6.819 -0.1731 -0.2311  0.9718
   29MOL0     C 3729  -0.480   6.558   6.801 -0.2641 -0.6960  0.5485
   29MOL0     C 3730  -0.572   6.553   6.912 -0.2738  0.4224  0.9403
   29MOL0     O 3731  -0.698   6.528   6.896  0.8370 -0.7811  0.2590
   29MOL0     C 3732  -0.795   6.579   6.996 -0.5695 -0.3462  0.2184
   29MOL0     C 3733  -0.929   6.613   6.941 -0.4720  0.8418  0.2335
   29MOL0     C 3734  -1.041   6.584   7.041 -1.0151  0.5923 -0.0745
   29MOL0     C 3735  -1.185   6.600   6.983 -0.1915 -0.1294 -0.1369
   29MOL0     C 3736  -1.299   6.601   7.088 -0.1627  0.0058 -0.5597
   29MOL0     C 3737  -1.430   6.632   7.006 -0.5057 -0.1864 -0.1037
   29MOL0     C 3738  -1.553   6.618   7.105 -1.4005 -0.7565  1.0506
   29MOL0     C 3739  -1.674   6.571   7.028 -0.4322 -0.3959  0.7635
   29MOL0    Cl 3740  -1.816   6.580   7.150  0.3465 -0.5546  0.2638
   29MOL0     C 3741  -0.510   6.546   7.042 -0.8296 -1.0303  0.9827
   29MOL0     C 3742  -0.375   6.562   7.049 -0.0222 -0.8459  0.1495
   29MOL0     O 3743  -0.154   6.812   7.002 -0.1809  1.3431 -0.4069
   29MOL0     C 3744   0.115   6.844   7.046  0.3528  0.3986  0.0272
   29MOL0     C 3745   0.248   6.846   7.051  0.0056  0.2222  1.2850
   29MOL0     N 3746   1.039   6.868   6.868  0.4317 -0.2352 -0.5155
   29MOL0     N 3747   1.156   6.911   6.854 -1.1032  0.2497 -0.3969
   29MOL0     C 3748   2.251   7.124   6.358  0.0706  0.6093  0.0102
   29MOL0     C 3749   2.360   7.160   6.272 -0.1547  0.0086 -0.5952
   29MOL0     C 3750   2.703   7.331   6.046 -0.5693 -0.4343 -0.3176
   29MOL0     C 3751   2.742   7.270   5.924  0.3207 -0.2179  0.4073
   29MOL0     C 3752   2.868   7.303   5.869 -1.2016  0.1311 -0.1530
   29MOL0     C 3753   2.959   7.380   5.938  0.5949  0.4165  0.1316
   29MOL0     O 3754   3.066   7.417   5.860 -0.1892 -0.0287 -0.1693
   29MOL0     C 3755   3.159   7.526   5.873 -0.2266 -0.7200  0.8440
   29MOL0     C 3756   3.102   7.660   5.861 -0.2887 -1.3102 -0.3316
   29MOL0     C 3757   3.032   7.688   5.732  0.3146  0.3536  0.1800
   29MOL0     C 3758   3.127   7.695   5.615 -1.4786 -0.2343 -0.0172
   29MOL0     C 3759   3.140   7.833   5.567 -0.5645  0.3028  0.4551
   29MOL0     C 3760   3.154   7.947   5.528 -0.5254 -0.1544 -1.9577
   29MOL0     C 3761   2.920   7.438   6.063  0.3231  0.0846 -0.0921
   29MOL0     C 3762   2.797   7.407   6.116  1.4452 -0.1168 -0.2557
   29MOL0     H 3763   2.435   7.456   6.409 -1.0083  0.9408  1.6824
   29MOL0     H 3764   2.255   7.406   6.553  1.0882  1.4636 -1.4346
   29MOL0     H 3765   2.030   7.297   6.683 -0.8352 -1.3096  0.9378
   29MOL0     H 3766   2.197   7.232   6.707  1.2307 -1.6152 -0.5653
   29MOL0     H 3767   2.051   7.128   6.874 -2.1251 -0.9671  0.3871
   29MOL0     H 3768   2.105   7.011   6.763  0.6427 -0.7585  1.2093
   29MOL0     H 3769   1.894   7.017   6.648  1.8826  0.7742 -0.0411
   29MOL0     H 3770   1.837   7.161   6.741 -1.1912 -0.2206  2.2141
   29MOL0     H 3771   1.852   6.866   6.817 -2.3935  0.4935  0.6914
   29MOL0     H 3772   1.832   6.984   6.949 -0.9708 -0.7574  0.8841
   29MOL0     H 3773   1.623   6.940   6.720  2.3199  3.7034 -2.0271
   29MOL0     H 3774   1.620   7.054   6.854  0.4092 -0.3559  3.0298
   29MOL0     H 3775   1.623   6.872   7.021 -0.3588 -2.3367  1.1759
   29MOL0     H 3776   1.670   6.764   6.897 -3.1261 -1.3806 -0.7113
   29MOL0     H 3777   1.452   6.830   6.776 -0.3864  0.6846  0.3292
   29MOL0     H 3778   1.445   6.705   6.907 -0.8087 -0.2461 -0.8808
   29MOL0     H 3779   1.388   6.996   6.953 -0.2130  0.5065 -0.4803
   29MOL0     H 3780   1.393   6.874   7.078 -0.8335  1.3314  0.6754
   29MOL0     H 3781   1.201   6.719   7.106  0.5212 -0.9211 -0.7539
   29MOL0     H 3782   0.892   6.798   7.114 -1.4237  4.5947 -2.9264
   29MOL0     H 3783   0.948   6.628   7.083  2.8469  1.2094  0.3589
   29MOL0     H 3784   0.814   6.624   6.884 -1.8541  1.2657 -2.0892
   29MOL0     H 3785   0.772   6.797   6.889  0.9572 -0.7961 -0.8319
   29MOL0     H 3786   0.715   6.572   7.081 -0.5991 -0.6575 -2.2063
   29MOL0     H 3787   0.679   6.735   7.137 -2.1753  3.7815 -2.1921
   29MOL0     H 3788   0.506   6.563   6.993 -0.4954  0.6488  0.0832
   29MOL0     H 3789   0.583   6.654   6.871  0.8978  1.5152  0.0583
   29MOL0     H 3790   0.307   6.547   6.906 -1.9906 -1.6755  1.4185
   29MOL0     H 3791   0.093   6.523   6.921  3.0464 -1.9433 -1.4360
   29MOL0     H 3792  -0.280   6.585   6.736 -0.8397 -2.4339 -0.1598
   29MOL0     H 3793  -0.523   6.566   6.701  1.6006  0.0644 -0.2276
   29MOL0     H 3794  -0.750   6.675   7.026  0.4462  0.0327 -2.2350
   29MOL0     H 3795  -0.794   6.500   7.072  0.3699 -1.3049 -0.7579
   29MOL0     H 3796  -0.950   6.552   6.852  1.1613 -2.6683  2.0532
   29MOL0     H 3797  -0.931   6.715   6.901 -0.0666  0.0070 -2.1259
   29MOL0     H 3798  -1.043   6.654   7.125  0.0308  0.4985  0.0452
   29MOL0     H 3799  -1.022   6.486   7.087 -0.6685  1.7678  2.4758
   29MOL0     H 3800  -1.177   6.695   6.928 -1.7598 -0.3600 -0.8267
   29MOL0     H 3801  -1.205   6.519   6.912  0.9192  0.5184 -1.2214
   29MOL0     H 3802  -1.284   6.661   7.178  1.1158 -1.6946  0.4430
   29MOL0     H 3803  -1.319   6.497   7.116 -1.1999 -0.6266 -3.2657
   29MOL0     H 3804  -1.428   6.560   6.924  0.5176 -2.1608  1.5520
   29MOL0     H 3805  -1.420   6.733   6.965  4.4007  0.3055  1.6594
   29MOL0     H 3806  -1.543   6.543   7.184 -0.2252 -1.8504 -0.0857
   29MOL0     H 3807  -1.565   6.717   7.149 -2.1763 -0.6538  0.6169
   29MOL0     H 3808  -1.664   6.473   6.980 -0.6229  0.3167 -0.7875
   29MOL0     H 3809  -1.707   6.645   6.955 -2.1451 -1.8508 -0.0187
   29MOL0     H 3810  -0.566   6.547   7.134 -0.9968  2.9498  1.0095
   29MOL0     H 3811  -0.337   6.569   7.150 -1.5698 -0.8476  0.7498
   29MOL0     H 3812   0.063   6.937   7.064 -2.7126 -1.5861  2.3470
   29MOL0     H 3813   0.292   6.943   7.072 -0.2148  0.9067 -1.0424
   29MOL0     H 3814   2.215   7.023   6.345  0.4934  0.1265  2.2041
   29MOL0     H 3815   2.396   7.081   6.207 -0.4811  0.3321 -1.1704
   29MOL0     H 3816   2.669   7.222   5.859  0.4445  0.3930 -0.1944
   29MOL0     H 3817   2.880   7.268   5.767 -1.9467  1.3501 -0.6752
   29MOL0     H 3818   3.241   7.516   5.802 -0.4372  1.3925  0.2308
   29MOL0     H 3819   3.196   7.510   5.975  1.6235  1.7419  0.6314
   29MOL0     H 3820   3.030   7.663   5.944 -0.7803 -2.9214 -0.6713
   29MOL0     H 3821   3.178   7.737   5.875 -1.5215 -0.1245  0.1810
   29MOL0     H 3822   2.988   7.788   5.732 -0.7235 -0.0282 -2.2393
   29MOL0     H 3823   2.952   7.617   5.709  1.2264 -0.5088 -0.4620
   29MOL0     H 3824   3.226   7.658   5.645 -1.8334  1.5975  4.2493
   29MOL0     H 3825   3.086   7.628   5.540  0.3385 -0.9048 -0.4712
   29MOL0     H 3826   3.174   8.047   5.495 -0.1792 -0.1276 -1.6785
   29MOL0     H 3827   2.984   7.517   6.099  0.7640  0.6828 -2.0440
   29MOL0     H 3828   2.753   7.451   6.205 -0.7244 -1.6813 -0.4692
   30MOL0     O 3829   2.414  10.340   3.867  0.0027 -0.4378  0.2079
   30MOL0     C 3830   2.324  10.410   3.824 -0.1417  0.3904 -0.5761
   30MOL0     O 3831   2.274  10.528   3.886  0.0279  0.0604  0.4646
   30MOL0     C 3832   2.284  10.561   4.022 -0.3089 -0.0187 -0.4036
   30MOL0     C 3833   2.333  10.479   4.130 -0.4654 -0.4369  0.0134
   30MOL0     C 3834   2.346  10.535   4.259  0.3223  0.1616  0.3842
   30MOL0     C 3835   2.294  10.666   4.287  0.3883  0.0617  0.2994
   30MOL0     O 3836   2.296  10.731   4.402 -0.3666  0.1169 -0.5515
   30MOL0     C 3837   2.349  10.661   4.519  0.0941  0.2071  0.4370
   30MOL0     C 3838   2.359  10.747   4.646 -0.3994 -0.2866 -0.0932
   30MOL0     C 3839   2.474  10.715   4.740  0.0156 -0.1953  0.8341
   30MOL0     C 3840   2.483  10.818   4.854  0.5247  0.9885 -0.1208
   30MOL0     C 3841   2.588  10.768   4.951  0.1663 -0.2887  0.2073
   30MOL0     C 3842   2.582  10.852   5.081  0.6881  0.8918  0.1103
   30MOL0     C 3843   2.703  10.852   5.170  0.6388  0.1519  0.2142
   30MOL0     C 3844   2.711  10.981   5.263  1.1739 -0.0054  0.7153
   30MOL0     N 3845   2.609  10.976   5.363  0.1305 -0.4980  0.0412
   30MOL0     C 3846   2.557  11.085   5.419 -0.4295  0.7071 -1.1258
   30MOL0     C 3847   2.492  11.037   5.527  0.1719  0.4086 -0.1421
   30MOL0     C 3848   2.424  11.122   5.645  0.4861  0.5045  0.1744
   30MOL0     C 3849   2.284  11.058   5.665  0.8615  0.0175  0.7776
   30MOL0     C 3850   2.184  11.102   5.553 -0.1309  0.6533 -0.3307
   30MOL0     C 3851   2.046  11.038   5.584  1.1395 -0.4830  0.0737
   30MOL0     O 3852   1.992  11.111   5.700  0.4838 -0.3429  0.3229
   30MOL0     C 3853   1.889  11.060   5.771 -0.0342  0.0986  1.3731
   30MOL0     C 3854   1.876  11.105   5.903  0.1890  0.6727 -0.6515
   30MOL0     C 3855   1.766  11.063   5.982 -0.6041 -0.0354  0.4758
   30MOL0     C 3856   1.672  10.977   5.931  0.3895 -0.0047 -0.0451
   30MOL0     C 3857   1.555  10.936   6.006 -0.4226  0.5848  0.1616
   30MOL0     O 3858   1.469  10.855   5.952 -0.0391 -0.2621 -0.0356
   30MOL0     C 3859   1.337  10.861   5.977  0.3338  0.4089 -0.1476
   30MOL0     C 3860   1.272  10.968   6.039 -0.0571  0.1101  1.0555
   30MOL0     C 3861   1.134  10.967   6.043 -0.7203 -0.2089 -1.0361
   30MOL0     C 3862   1.059  10.859   5.984  0.1717  0.2955  0.4595
   30MOL0     O 3863   0.921  10.863   5.985 -0.3452 -0.1441  0.0287
   30MOL0     C 3864   0.855  10.769   6.073 -0.6327  0.2645  0.9630
   30MOL0     C 3865   0.757  10.830   6.174 -0.2354 -0.0545 -0.8596
   30MOL0     C 3866   0.674  10.715   6.238 -0.0679 -0.8265  0.2155
   30MOL0     C 3867   0.571  10.788   6.335 -0.5873  0.0781  0.1070
   30MOL0     C 3868   0.521  10.666   6.427 -0.0329  0.7064  0.5155
   30MOL0     C 3869   0.448  10.707   6.559  1.2281  0.1561  1.0040
   30MOL0     C 3870   0.383  10.585   6.630  0.0476 -0.1677 -0.0416
   30MOL0     C 3871   0.480  10.514   6.718 -0.1001 -0.0561 -0.1136
   30MOL0    Cl 3872   0.389  10.417   6.842 -0.1546  0.0629 -0.3047
   30MOL0     C 3873   1.126  10.750   5.931 -0.6842 -0.1772 -0.5559
   30MOL0     C 3874   1.265  10.755   5.916 -0.7559 -0.0490 -0.0806
   30MOL0     O 3875   1.567  10.962   6.123  0.1433  0.3687 -0.6933
   30MOL0     C 3876   1.675  10.943   5.795 -0.1230  0.0266 -0.4094
   30MOL0     C 3877   1.790  10.977   5.722 -0.1658  0.0925  0.0614
   30MOL0     N 3878   2.479  10.894   5.515 -0.3588  0.0773  0.4836
   30MOL0     N 3879   2.559  10.861   5.421  0.2297  0.1839 -0.3534
   30MOL0     C 3880   2.223  10.733   4.189 -0.6624 -0.2602 -0.6367
   30MOL0     C 3881   2.229  10.689   4.057  0.1724  0.6135 -0.3244
   30MOL0     C 3882   2.254  10.379   3.690  0.6334  0.1501 -0.3365
   30MOL0     C 3883   2.177  10.479   3.636 -0.3653  0.3024  0.8170
   30MOL0     C 3884   2.095  10.460   3.530  0.2709 -1.4524  0.2361
   30MOL0     C 3885   2.101  10.336   3.465  0.7664  0.4134  0.8515
   30MOL0     O 3886   2.038  10.299   3.348  0.2064  0.5998 -0.8158
   30MOL0     C 3887   1.927  10.380   3.304  0.2533 -0.6208 -0.6992
   30MOL0     C 3888   1.805  10.373   3.388  0.0552  0.4910 -0.6650
   30MOL0     C 3889   1.676  10.444   3.330 -0.7260  0.8735  0.6892
   30MOL0     C 3890   1.561  10.377   3.392 -0.7332  0.3714  0.4982
   30MOL0     C 3891   1.532  10.412   3.535  0.0986  0.7316  1.2619
   30MOL0     C 3892   1.493  10.421   3.648  0.0634 -0.2327 -0.1225
   30MOL0     C 3893   2.190  10.236   3.502  0.3907  0.6480 -0.6535
   30MOL0     C 3894   2.257  10.256   3.617 -0.1824 -0.2321 -0.0143
   30MOL0     H 3895   2.368  10.377   4.117 -0.4437 -0.3067 -1.0477
   30MOL0     H 3896   2.396  10.492   4.345  0.3766  2.2692  1.4780
   30MOL0     H 3897   2.448  10.644   4.475  0.1181  1.0822  0.1251
   30MOL0     H 3898   2.308  10.560   4.529  2.6822 -0.8793  0.7958
   30MOL0     H 3899   2.265  10.752   4.701 -0.0567 -2.0062  0.7148
   30MOL0     H 3900   2.388  10.846   4.607  2.3886 -1.6580 -1.8371
   30MOL0     H 3901   2.564  10.717   4.678 -1.8518  0.6903 -2.0508
   30MOL0     H 3902   2.478  10.612   4.778  1.7638  0.0269  1.3125
   30MOL0     H 3903   2.501  10.918   4.816 -2.8124  0.9888 -2.0820
   30MOL0     H 3904   2.384  10.822   4.901  1.1004  3.1213  1.0354
   30MOL0     H 3905   2.686  10.769   4.902  1.1183 -0.8643  1.9838
   30MOL0     H 3906   2.564  10.666   4.981 -1.8200 -0.3059 -1.2740
   30MOL0     H 3907   2.495  10.813   5.135  1.0507 -0.7260 -0.4075
   30MOL0     H 3908   2.555  10.956   5.061 -0.3107  0.4819 -0.7802
   30MOL0     H 3909   2.695  10.757   5.225  0.5130  0.4948  0.7923
   30MOL0     H 3910   2.796  10.855   5.112  0.1788  0.9280 -0.5072
   30MOL0     H 3911   2.707  11.073   5.205  1.3184 -0.9825 -0.9185
   30MOL0     H 3912   2.806  10.983   5.317  3.4217 -1.8007 -2.7774
   30MOL0     H 3913   2.588  11.187   5.403 -1.0340  1.1533  0.3955
   30MOL0     H 3914   2.408  11.222   5.603 -2.6882  0.1095  0.2315
   30MOL0     H 3915   2.480  11.129   5.739 -2.0197 -1.8825  1.9855
   30MOL0     H 3916   2.244  11.092   5.761  0.0526 -0.3702  0.5888
   30MOL0     H 3917   2.297  10.950   5.668  0.8115 -0.1137 -1.5446
   30MOL0     H 3918   2.184  11.211   5.554  2.4894  0.8414 -3.2632
   30MOL0     H 3919   2.205  11.074   5.449 -0.6028 -1.9747  0.1926
   30MOL0     H 3920   2.062  10.932   5.609 -1.5562 -0.3699  2.7655
   30MOL0     H 3921   1.972  11.031   5.504 -2.2458 -2.9654  3.1116
   30MOL0     H 3922   1.949  11.166   5.956 -0.7629  1.2184  0.0550
   30MOL0     H 3923   1.763  11.104   6.082 -1.2118  0.9535  0.0627
   30MOL0     H 3924   1.340  11.050   6.060  3.5712 -1.4081 -3.0167
   30MOL0     H 3925   1.070  11.036   6.097 -3.0064 -3.6922  1.1207
   30MOL0     H 3926   0.927  10.705   6.125 -0.5182  1.6461  2.5993
   30MOL0     H 3927   0.798  10.699   6.013 -0.6157  0.5491  0.6140
   30MOL0     H 3928   0.697  10.901   6.117 -1.5710 -2.3404 -2.4631
   30MOL0     H 3929   0.805  10.889   6.252  1.7960 -0.8134 -1.4857
   30MOL0     H 3930   0.744  10.641   6.277  1.0924 -1.1676 -2.2700
   30MOL0     H 3931   0.621  10.672   6.152 -0.1489  1.8532 -1.2072
   30MOL0     H 3932   0.625  10.853   6.405 -0.8625  1.2138 -0.7119
   30MOL0     H 3933   0.494  10.841   6.279 -1.0500  1.3602  1.8573
   30MOL0     H 3934   0.605  10.597   6.438 -3.7516 -4.5210  0.1858
   30MOL0     H 3935   0.449  10.602   6.374  2.1663  0.1130 -2.0149
   30MOL0     H 3936   0.374  10.780   6.526  2.0393  0.4634 -0.2162
   30MOL0     H 3937   0.510  10.755   6.636  2.4783 -0.1073  0.1861
   30MOL0     H 3938   0.302  10.619   6.695 -0.1886 -0.7426 -0.0218
   30MOL0     H 3939   0.354  10.519   6.547  0.1105  2.4131 -2.2363
   30MOL0     H 3940   0.551  10.585   6.761  1.4427 -0.4647 -1.9204
   30MOL0     H 3941   0.548  10.451   6.661  0.8125  0.2152  0.6461
   30MOL0     H 3942   1.079  10.660   5.891 -2.1678  0.6502 -0.7083
   30MOL0     H 3943   1.318  10.674   5.867  0.9742 -1.0129  3.1130
   30MOL0     H 3944   1.599  10.877   5.755 -0.3765  1.2081 -1.9317
   30MOL0     H 3945   1.798  10.955   5.616  0.6019  0.4674  0.0376
   30MOL0     H 3946   2.170  10.827   4.202 -1.8164 -0.9400 -0.2553
   30MOL0     H 3947   2.176  10.717   3.967 -2.8688 -3.3037 -0.0039
   30MOL0     H 3948   2.173  10.579   3.679 -3.4087 -0.6626  3.1475
   30MOL0     H 3949   2.054  10.551   3.487  1.6805 -0.2774  1.2787
   30MOL0     H 3950   1.895  10.339   3.208 -2.6552 -0.0208 -0.0713
   30MOL0     H 3951   1.959  10.483   3.285 -0.0699 -0.7045 -1.7474
   30MOL0     H 3952   1.778  10.268   3.407  0.4154  0.3492 -0.9214
   30MOL0     H 3953   1.840  10.413   3.484  0.2780  0.4735 -0.7400
   30MOL0     H 3954   1.665  10.440   3.221  2.7971  3.0518  0.0846
   30MOL0     H 3955   1.678  10.551   3.356  1.5666  1.2886 -0.9357
   30MOL0     H 3956   1.478  10.403   3.325  0.2503  1.5078 -0.3188
   30MOL0     H 3957   1.572  10.268   3.391  0.1724  0.4422  1.6300
   30MOL0     H 3958   1.469  10.426   3.752  2.0540  0.4063  0.3377
   30MOL0     H 3959   2.216  10.143   3.453  1.4794  0.5014  0.1669
   30MOL0     H 3960   2.324  10.177   3.648  0.6683  0.8122  0.8921
   31MOL0     O 3961   4.289   9.724   4.772 -0.0491  0.1014 -0.1505
   31MOL0     C 3962   4.244   9.754   4.882  1.0848  1.2725 -0.2001
   31MOL0     O 3963   4.129   9.696   4.942  0.8317 -0.3371  0.1255
   31MOL0     C 3964   4.078   9.584   4.894 -0.2279  0.2479  1.2824
   31MOL0     C 3965   3.945   9.574   4.917  0.8641  1.5978 -0.1590
   31MOL0     C 3966   3.873   9.463   4.864  0.1379 -1.3159 -0.1850
   31MOL0     C 3967   3.942   9.369   4.784 -1.0991  0.6206  0.5588
   31MOL0     O 3968   3.893   9.253   4.718 -0.4950 -0.9081 -0.1165
   31MOL0     C 3969   3.777   9.204   4.779  0.4953  0.0795  0.2195
   31MOL0     C 3970   3.741   9.089   4.696  0.5041 -0.1145 -0.2469
   31MOL0     C 3971   3.661   8.994   4.785  0.3917  0.1610  1.2648
   31MOL0     C 3972   3.663   8.855   4.720  0.6353  0.3439 -0.2156
   31MOL0     C 3973   3.542   8.776   4.772 -0.0004 -0.2225 -0.0051
   31MOL0     C 3974   3.581   8.630   4.748 -0.5135 -1.4180 -0.2845
   31MOL0     C 3975   3.494   8.525   4.811  0.5543  0.0261 -0.6829
   31MOL0     C 3976   3.349   8.534   4.753  0.5933 -0.6363  0.6131
   31MOL0     N 3977   3.244   8.453   4.821 -0.2379  0.2741  0.0653
   31MOL0     C 3978   3.274   8.347   4.905  0.1647  0.7767  0.2518
   31MOL0     C 3979   3.164   8.307   4.955  1.1643 -0.8074 -0.3481
   31MOL0     C 3980   3.163   8.208   5.083  0.5908  0.0596 -0.1041
   31MOL0     C 3981   3.239   8.268   5.190 -0.5481 -0.5656 -0.0992
   31MOL0     C 3982   3.175   8.391   5.248  0.1652 -0.3704  0.0279
   31MOL0     C 3983   3.270   8.466   5.339  0.5680 -0.1470  0.1813
   31MOL0     O 3984   3.327   8.386   5.445 -0.1339  0.1263  0.2834
   31MOL0     C 3985   3.249   8.341   5.549  0.0917  1.1523 -0.8106
   31MOL0     C 3986   3.121   8.378   5.583  0.1463  0.9480 -0.6091
   31MOL0     C 3987   3.037   8.302   5.677  0.1897  0.4704 -0.0825
   31MOL0     C 3988   3.101   8.199   5.752 -0.2238 -1.4229  0.6790
   31MOL0     C 3989   3.024   8.125   5.852 -0.4531 -0.4354 -0.6203
   31MOL0     O 3990   3.085   8.009   5.895 -0.4828 -0.1121  0.0432
   31MOL0     C 3991   3.022   7.940   5.991  0.1119  0.0861 -0.1892
   31MOL0     C 3992   3.089   7.915   6.105 -0.7740  1.1333 -1.2045
   31MOL0     C 3993   3.035   7.832   6.202  0.5765  0.3394 -0.2531
   31MOL0     C 3994   2.908   7.770   6.187 -0.8491  0.7221  0.2411
   31MOL0     O 3995   2.836   7.709   6.280 -0.2888 -0.3082 -0.9296
   31MOL0     C 3996   2.888   7.651   6.401  0.1453 -0.5337  0.5338
   31MOL0     C 3997   2.771   7.574   6.468 -0.9231  0.5151  0.0963
   31MOL0     C 3998   2.789   7.570   6.614  0.3261 -1.0350 -0.5185
   31MOL0     C 3999   2.922   7.503   6.653  0.3870 -0.4003  0.1159
   31MOL0     C 4000   2.940   7.481   6.802  0.3762  0.2108  0.0434
   31MOL0     C 4001   3.050   7.378   6.844  0.3867  0.0851 -0.4857
   31MOL0     C 4002   3.174   7.451   6.896 -0.0294 -0.2028  0.6464
   31MOL0     C 4003   3.252   7.361   6.983  0.5527  0.8133  0.3557
   31MOL0    Cl 4004   3.156   7.323   7.135  0.1315 -0.0162 -0.3479
   31MOL0     C 4005   2.842   7.791   6.072 -0.8217 -0.3197 -0.8934
   31MOL0     C 4006   2.896   7.882   5.969  0.0680  0.7004 -0.3550
   31MOL0     O 4007   2.902   8.152   5.863 -0.1251 -0.2444 -0.3474
   31MOL0     C 4008   3.236   8.179   5.732 -0.1608  0.3927 -0.0268
   31MOL0     C 4009   3.308   8.236   5.626  0.4232  0.2568  0.7079
   31MOL0     N 4010   3.059   8.382   4.898  0.4028  0.1859 -0.1999
   31MOL0     N 4011   3.111   8.478   4.830 -0.5240 -0.8791 -0.1940
   31MOL0     C 4012   4.079   9.376   4.766 -0.0839  0.2265  0.7072
   31MOL0     C 4013   4.151   9.477   4.826  0.0787  1.3131 -0.2489
   31MOL0     C 4014   4.305   9.858   4.971  0.0428  0.4987  0.0979
   31MOL0     C 4015   4.245   9.904   5.090  0.0503  0.1948 -0.7098
   31MOL0     C 4016   4.296  10.019   5.151 -0.8907  0.2215  0.2476
   31MOL0     C 4017   4.418  10.079   5.123  0.3360 -0.3590  0.1382
   31MOL0     O 4018   4.460  10.173   5.208 -0.4008 -0.6052 -0.4477
   31MOL0     C 4019   4.576  10.230   5.167 -0.1908  0.5876 -0.0721
   31MOL0     C 4020   4.618  10.333   5.272  0.8454 -0.8647 -0.5200
   31MOL0     C 4021   4.747  10.406   5.227  0.2988 -0.3682  0.2735
   31MOL0     C 4022   4.768  10.526   5.304  0.0499 -0.3293  0.6435
   31MOL0     C 4023   4.892  10.601   5.258  0.2190  0.0752 -1.2698
   31MOL0     C 4024   4.988  10.665   5.215  0.3988 -0.1236 -0.0445
   31MOL0     C 4025   4.491  10.020   5.015  0.6460  0.3945  0.2283
   31MOL0     C 4026   4.427   9.922   4.936  1.2530 -0.2369  0.2560
   31MOL0     H 4027   3.890   9.639   4.984 -2.0180  0.7376 -1.5400
   31MOL0     H 4028   3.772   9.439   4.895 -0.2328  0.2178 -0.1371
   31MOL0     H 4029   3.693   9.274   4.779 -0.3944 -0.9323 -1.2094
   31MOL0     H 4030   3.808   9.167   4.878  4.1263 -0.3790 -0.9452
   31MOL0     H 4031   3.816   9.028   4.644 -0.0498 -2.9303  2.0283
   31MOL0     H 4032   3.686   9.133   4.612 -0.6857  0.6460  0.8953
   31MOL0     H 4033   3.559   9.032   4.787  0.3676  0.4143 -1.3825
   31MOL0     H 4034   3.711   8.979   4.881  0.3171  0.3156  1.3281
   31MOL0     H 4035   3.669   8.850   4.611  2.5500 -1.9829 -0.0759
   31MOL0     H 4036   3.754   8.805   4.755 -1.3772 -2.5139  1.3282
   31MOL0     H 4037   3.456   8.805   4.710 -0.3330 -1.4244 -0.1401
   31MOL0     H 4038   3.520   8.812   4.873  0.5833  2.3510 -0.7317
   31MOL0     H 4039   3.679   8.615   4.795  1.0252  0.3680 -2.7035
   31MOL0     H 4040   3.597   8.616   4.641  2.1781  0.4307 -0.2385
   31MOL0     H 4041   3.527   8.422   4.799 -3.1483 -1.7260  2.2937
   31MOL0     H 4042   3.489   8.545   4.919 -0.8062 -2.3339 -0.2500
   31MOL0     H 4043   3.366   8.516   4.647  2.2529  1.2764  0.4857
   31MOL0     H 4044   3.320   8.639   4.751  1.3824 -0.4162 -0.9960
   31MOL0     H 4045   3.369   8.309   4.941 -1.5045 -3.1047  1.1898
   31MOL0     H 4046   3.206   8.109   5.063  4.8175  1.0364  2.9483
   31MOL0     H 4047   3.064   8.177   5.118  1.1051  0.3949  1.7307
   31MOL0     H 4048   3.341   8.293   5.159 -0.1675  1.9190  2.7076
   31MOL0     H 4049   3.250   8.183   5.259  2.2087  0.0794  0.3824
   31MOL0     H 4050   3.126   8.455   5.173 -1.7446  0.0692  1.5624
   31MOL0     H 4051   3.095   8.349   5.310 -0.1168 -0.3828 -0.3361
   31MOL0     H 4052   3.217   8.557   5.369 -0.4312 -0.2779 -1.1009
   31MOL0     H 4053   3.359   8.486   5.278  1.5461 -3.6971  0.2075
   31MOL0     H 4054   3.077   8.466   5.537 -1.6420  1.9345  2.7206
   31MOL0     H 4055   2.934   8.336   5.676  0.3647  0.9998 -1.3278
   31MOL0     H 4056   3.191   7.949   6.120  0.0217 -0.5261 -2.4421
   31MOL0     H 4057   3.084   7.824   6.298 -0.0335  1.8688  0.2269
   31MOL0     H 4058   2.922   7.736   6.460 -2.1196  0.9186 -0.0887
   31MOL0     H 4059   2.964   7.576   6.380 -1.4286 -1.7603 -1.2282
   31MOL0     H 4060   2.772   7.471   6.431 -2.6842  0.8696 -1.0789
   31MOL0     H 4061   2.673   7.618   6.447 -1.7219  0.0056  2.4377
   31MOL0     H 4062   2.705   7.525   6.668  0.9908  1.5812  3.0998
   31MOL0     H 4063   2.789   7.671   6.656 -0.8977 -1.4749  0.6097
   31MOL0     H 4064   2.923   7.401   6.612  0.7338  0.4298 -2.0298
   31MOL0     H 4065   3.012   7.549   6.611 -0.4573 -0.5879 -2.0051
   31MOL0     H 4066   2.840   7.442   6.822  0.7111  0.0018  1.3808
   31MOL0     H 4067   2.953   7.572   6.862 -0.0833 -1.1542  2.3191
   31MOL0     H 4068   3.077   7.308   6.764  1.0838  1.8486 -1.8647
   31MOL0     H 4069   3.006   7.314   6.921 -2.4479  1.3598 -0.9366
   31MOL0     H 4070   3.212   7.479   6.798 -4.4093  2.0231 -0.6558
   31MOL0     H 4071   3.148   7.538   6.957 -0.9044 -0.3913  0.5594
   31MOL0     H 4072   3.342   7.411   7.020  1.1907  1.8365 -2.3231
   31MOL0     H 4073   3.286   7.275   6.923 -1.3697  1.0045 -1.0995
   31MOL0     H 4074   2.740   7.756   6.059 -0.8587 -2.2998  3.1236
   31MOL0     H 4075   2.832   7.898   5.883 -0.7486 -0.0029  0.1099
   31MOL0     H 4076   3.295   8.100   5.777 -0.9010 -0.2561 -0.1710
   31MOL0     H 4077   3.403   8.192   5.597  1.3261  1.8882  1.0769
   31MOL0     H 4078   4.120   9.303   4.697 -1.5392 -0.4545  0.5102
   31MOL0     H 4079   4.256   9.486   4.800  0.6168  2.2409  1.9746
   31MOL0     H 4080   4.155   9.854   5.127  0.9249 -0.5633  0.4925
   31MOL0     H 4081   4.234  10.040   5.237 -1.6590  0.9511 -0.4647
   31MOL0     H 4082   4.572  10.277   5.068 -0.2573  0.7263 -0.0030
   31MOL0     H 4083   4.656  10.155   5.166 -1.3586 -0.8179  2.5816
   31MOL0     H 4084   4.546  10.413   5.285  2.9724  1.1539 -0.4709
   31MOL0     H 4085   4.621  10.280   5.368 -3.0314 -3.4686 -1.5957
   31MOL0     H 4086   4.732  10.433   5.122 -0.1451 -1.3765  0.0642
   31MOL0     H 4087   4.840  10.348   5.224  0.7932  0.4232 -2.1423
   31MOL0     H 4088   4.694  10.606   5.295 -0.8213 -1.0176  1.5380
   31MOL0     H 4089   4.778  10.509   5.412 -2.3552  0.3251  1.0211
   31MOL0     H 4090   5.063  10.716   5.158 -1.6979  0.0239 -2.8703
   31MOL0     H 4091   4.588  10.054   4.981 -0.4848  0.7206 -2.9825
   31MOL0     H 4092   4.482   9.879   4.853  2.6306  0.2878  0.8538
   32MOL0     O 4093   1.560   6.482   8.125 -0.2702 -0.4230  0.3356
   32MOL0     C 4094   1.537   6.568   8.026 -0.7094  0.9017 -1.6417
   32MOL0     O 4095   1.626   6.657   7.976  0.1385  0.5805  0.3358
   32MOL0     C 4096   1.759   6.659   8.018  0.8545 -0.8049 -0.2061
   32MOL0     C 4097   1.832   6.546   8.056  0.2120  0.0167  1.0654
   32MOL0     C 4098   1.960   6.561   8.097  0.2581 -0.5253 -0.4131
   32MOL0     C 4099   2.029   6.683   8.102 -0.7517 -0.0991 -0.0521
   32MOL0     O 4100   2.164   6.702   8.151 -0.5176 -0.2824 -0.0388
   32MOL0     C 4101   2.250   6.805   8.103 -0.1769  0.9350  0.3932
   32MOL0     C 4102   2.392   6.752   8.125 -0.0733 -0.9207 -0.2123
   32MOL0     C 4103   2.423   6.620   8.050 -0.2540  0.0220  0.3332
   32MOL0     C 4104   2.571   6.589   8.072  0.2254 -0.8225  0.5090
   32MOL0     C 4105   2.619   6.570   8.216 -0.3141 -0.2023 -0.6452
   32MOL0     C 4106   2.562   6.442   8.287  0.2085 -0.5288 -0.6097
   32MOL0     C 4107   2.597   6.428   8.438  0.3765  0.8966 -0.0631
   32MOL0     C 4108   2.733   6.354   8.450  0.0820  0.6793 -0.0758
   32MOL0     N 4109   2.785   6.349   8.586  1.0047 -0.3680  0.3849
   32MOL0     C 4110   2.918   6.318   8.618  0.2654 -0.3963  0.7741
   32MOL0     C 4111   2.923   6.345   8.752  0.6626 -0.2689  0.6742
   32MOL0     C 4112   3.049   6.357   8.824  0.1926  0.2422 -0.2797
   32MOL0     C 4113   3.041   6.279   8.951 -0.1741  0.3829 -0.0097
   32MOL0     C 4114   3.177   6.291   9.029 -0.0283 -0.1227  0.1957
   32MOL0     C 4115   3.305   6.226   8.988  0.0927 -0.3016 -0.4926
   32MOL0     O 4116   3.395   6.289   9.090 -0.0703 -0.2543 -0.4158
   32MOL0     C 4117   3.525   6.251   9.100  0.4187  1.3341  0.6474
   32MOL0     C 4118   3.590   6.135   9.048  0.4676 -0.1224 -0.0108
   32MOL0     C 4119   3.725   6.112   9.068 -0.1499  0.0436 -0.2729
   32MOL0     C 4120   3.797   6.196   9.155 -0.6141 -0.2767  0.6111
   32MOL0     C 4121   3.930   6.167   9.210 -0.0065 -0.2943  0.2400
   32MOL0     O 4122   4.007   6.270   9.251 -0.7780  0.4524  0.6602
   32MOL0     C 4123   4.117   6.245   9.328 -0.7595  0.7593  0.8357
   32MOL0     C 4124   4.237   6.290   9.284  0.3024 -0.3515 -0.1982
   32MOL0     C 4125   4.354   6.270   9.357  0.0711  0.0482  0.4485
   32MOL0     C 4126   4.349   6.229   9.491  0.0965 -0.2250  0.1879
   32MOL0     O 4127   4.458   6.227   9.569 -0.1397 -0.3644  0.0701
   32MOL0     C 4128   4.443   6.230   9.716 -0.1529 -0.2900  0.1729
   32MOL0     C 4129   4.590   6.236   9.770 -0.0949  0.0917 -0.4764
   32MOL0     C 4130   4.657   6.097   9.755 -0.5124  0.5461 -0.4733
   32MOL0     C 4131   4.780   6.082   9.847 -0.5933  0.2097  0.1191
   32MOL0     C 4132   4.864   5.956   9.790  0.3465  0.2549  0.1150
   32MOL0     C 4133   4.974   5.897   9.880 -0.2013  0.3836  0.2416
   32MOL0     C 4134   5.089   6.006   9.914  0.5820 -0.6976  0.5702
   32MOL0     C 4135   5.175   5.974  10.039  0.2583  0.2452 -0.3592
   32MOL0    Cl 4136   5.201   5.798  10.074  0.1249 -0.1469  0.3139
   32MOL0     C 4137   4.229   6.193   9.542  0.1485 -0.2047  0.7094
   32MOL0     C 4138   4.110   6.193   9.457  0.4878  0.2271 -0.1655
   32MOL0     O 4139   3.952   6.050   9.230 -0.4701  0.2323 -0.3095
   32MOL0     C 4140   3.725   6.316   9.196 -0.9966 -0.1992  0.1280
   32MOL0     C 4141   3.597   6.348   9.164  0.5278 -0.7011 -0.0417
   32MOL0     N 4142   2.805   6.395   8.794  0.0517 -0.1141 -0.6164
   32MOL0     N 4143   2.719   6.403   8.696 -0.0581  0.2905 -0.6518
   32MOL0     C 4144   1.957   6.793   8.061 -0.1160  0.7179 -0.6548
   32MOL0     C 4145   1.822   6.783   8.015 -0.5892 -0.2150 -0.5589
   32MOL0     C 4146   1.396   6.580   7.982  0.3770 -0.1737 -0.1281
   32MOL0     C 4147   1.352   6.636   7.861  0.4497  0.2951  0.1776
   32MOL0     C 4148   1.218   6.611   7.817  0.8182  1.0493 -0.3243
   32MOL0     C 4149   1.121   6.555   7.904  0.2053 -0.5352 -0.5940
   32MOL0     O 4150   0.981   6.554   7.881  0.3112  0.4600 -1.0359
   32MOL0     C 4151   0.918   6.545   7.753 -0.3184  0.0185 -0.7993
   32MOL0     C 4152   0.825   6.421   7.766 -0.1173  0.5109  0.2336
   32MOL0     C 4153   0.789   6.366   7.622  0.6586 -0.3314  0.3050
   32MOL0     C 4154   0.701   6.246   7.623 -0.5337  0.8175  0.2249
   32MOL0     C 4155   0.568   6.286   7.658 -0.2244  0.2709  0.6024
   32MOL0     C 4156   0.451   6.318   7.653  0.4279  0.4891 -0.1737
   32MOL0     C 4157   1.165   6.508   8.025 -0.2571 -0.8208 -0.9088
   32MOL0     C 4158   1.298   6.531   8.070 -0.1901  0.7975  0.2207
   32MOL0     H 4159   1.802   6.442   8.047 -0.3737  0.2612  0.0127
   32MOL0     H 4160   2.024   6.483   8.136 -1.6780 -1.4410  1.1265
   32MOL0     H 4161   2.239   6.893   8.167  1.3490 -1.4430  4.2701
   32MOL0     H 4162   2.226   6.816   7.997 -1.9276  0.2621  0.6899
   32MOL0     H 4163   2.404   6.757   8.233 -1.5883 -0.5008 -0.0436
   32MOL0     H 4164   2.462   6.828   8.089  0.3309 -1.5052 -0.6926
   32MOL0     H 4165   2.408   6.624   7.941  2.8249 -0.1281 -0.1708
   32MOL0     H 4166   2.343   6.549   8.075  2.2329 -2.7656  0.8716
   32MOL0     H 4167   2.602   6.496   8.022  1.0725  0.1035 -0.7323
   32MOL0     H 4168   2.635   6.666   8.028  1.3202 -1.2690  1.2674
   32MOL0     H 4169   2.601   6.663   8.271  1.4700  2.4882 -4.1898
   32MOL0     H 4170   2.728   6.574   8.220 -0.3618  2.3612  2.3554
   32MOL0     H 4171   2.587   6.351   8.233  4.9941 -0.4087  0.9772
   32MOL0     H 4172   2.453   6.455   8.284 -0.3179 -2.8390  2.9806
   32MOL0     H 4173   2.598   6.526   8.486 -1.9785  1.6144 -1.2885
   32MOL0     H 4174   2.516   6.385   8.498 -0.2461  3.1529  0.8126
   32MOL0     H 4175   2.801   6.392   8.374 -2.4003 -0.1679 -2.9326
   32MOL0     H 4176   2.719   6.249   8.421 -0.4074  0.6020  0.4327
   32MOL0     H 4177   2.991   6.311   8.539 -0.3820  0.0931  0.1173
   32MOL0     H 4178   3.085   6.457   8.851  0.9284 -0.0061 -0.3130
   32MOL0     H 4179   3.123   6.318   8.755  0.5924  1.4943 -0.5964
   32MOL0     H 4180   3.030   6.172   8.931 -1.3689  0.3243  0.8331
   32MOL0     H 4181   2.967   6.319   9.021  0.3026 -0.1200  0.7916
   32MOL0     H 4182   3.194   6.398   9.045  0.2784 -0.0526 -0.5392
   32MOL0     H 4183   3.159   6.255   9.130  1.8031 -1.0879  0.2154
   32MOL0     H 4184   3.331   6.249   8.884 -0.5479 -2.9939 -1.3417
   32MOL0     H 4185   3.295   6.117   8.994  0.2811 -0.2704  0.5246
   32MOL0     H 4186   3.534   6.049   9.012  1.9123 -2.1528  2.3040
   32MOL0     H 4187   3.768   6.031   9.011 -0.2369 -0.7505  0.7499
   32MOL0     H 4188   4.239   6.337   9.186 -0.1704 -1.7096 -0.8920
   32MOL0     H 4189   4.447   6.304   9.312 -0.1927 -0.8300 -0.8137
   32MOL0     H 4190   4.388   6.151   9.767  1.0126 -0.1711  1.6891
   32MOL0     H 4191   4.385   6.322   9.727 -2.9084 -1.7780 -1.0792
   32MOL0     H 4192   4.582   6.253   9.878 -0.0586 -2.4837 -0.0018
   32MOL0     H 4193   4.639   6.320   9.721  0.2172  1.4966  2.1000
   32MOL0     H 4194   4.691   6.090   9.651  3.8794  0.6054  0.7871
   32MOL0     H 4195   4.578   6.024   9.776 -0.5397  0.5914 -0.4147
   32MOL0     H 4196   4.844   6.169   9.829  1.2304 -0.6169  2.0966
   32MOL0     H 4197   4.755   6.063   9.952 -1.3803 -2.1558 -0.4325
   32MOL0     H 4198   4.907   5.976   9.691  0.2446 -2.6653 -0.6045
   32MOL0     H 4199   4.792   5.875   9.799  2.4093 -1.4261  4.9685
   32MOL0     H 4200   5.020   5.814   9.824 -1.8619 -1.3946  1.3611
   32MOL0     H 4201   4.938   5.840   9.967 -0.6828 -3.3324 -2.1250
   32MOL0     H 4202   5.153   6.010   9.826 -1.0270  1.3103 -0.6220
   32MOL0     H 4203   5.047   6.107   9.926  0.3650 -0.6425 -0.5799
   32MOL0     H 4204   5.128   6.019  10.127  2.0598  2.1848 -0.3283
   32MOL0     H 4205   5.269   6.030  10.037 -0.6767  1.8498 -0.9573
   32MOL0     H 4206   4.210   6.158   9.643 -2.2330 -1.8002 -0.1963
   32MOL0     H 4207   4.013   6.172   9.500  0.3427 -0.0480 -0.6195
   32MOL0     H 4208   3.783   6.379   9.261 -0.4917  1.6003 -1.9429
   32MOL0     H 4209   3.541   6.429   9.210 -0.4079  0.1086 -2.4450
   32MOL0     H 4210   1.992   6.895   8.064  2.0659  0.0563 -1.4834
   32MOL0     H 4211   1.765   6.873   7.994  0.8252  0.3207 -2.3314
   32MOL0     H 4212   1.419   6.694   7.798 -4.2658  0.9784 -4.9688
   32MOL0     H 4213   1.193   6.649   7.718  2.2145  3.6608  0.2561
   32MOL0     H 4214   0.999   6.531   7.681 -0.9489 -2.1863 -1.1638
   32MOL0     H 4215   0.868   6.640   7.735  0.5887  0.4140 -1.2704
   32MOL0     H 4216   0.867   6.341   7.826 -0.8942  0.7481  1.1127
   32MOL0     H 4217   0.730   6.447   7.813  1.6536 -1.1474  5.3625
   32MOL0     H 4218   0.883   6.348   7.568  0.9296  2.6430 -0.3698
   32MOL0     H 4219   0.734   6.453   7.586  2.4631  2.3558  3.4672
   32MOL0     H 4220   0.702   6.210   7.520  1.9793  1.8177 -0.1547
   32MOL0     H 4221   0.730   6.159   7.684 -0.5611  0.0045 -0.8926
   32MOL0     H 4222   0.345   6.326   7.640  0.0157 -4.2172 -1.7680
   32MOL0     H 4223   1.099   6.475   8.104  0.3911  3.3262  1.7004
   32MOL0     H 4224   1.330   6.501   8.170 -1.0981 -0.1801  0.2253
   33MOL0     O 4225   9.237   4.760   3.043 -0.2972  0.1841  0.2136
   33MOL0     C 4226   9.299   4.857   2.988  0.3321 -0.0687  0.0727
   33MOL0     O 4227   9.274   4.900   2.869  0.1158 -0.4043  0.5787
   33MOL0     C 4228   9.191   4.837   2.779  0.0709  0.1568  0.7887
   33MOL0     C 4229   9.218   4.854   2.652 -0.6674 -0.0654 -0.4331
   33MOL0     C 4230   9.135   4.802   2.548 -0.4736  0.4412 -0.7152
   33MOL0     C 4231   9.018   4.728   2.583 -0.4000  1.0430 -0.4652
   33MOL0     O 4232   8.924   4.682   2.494  0.5019 -0.5164 -0.6454
   33MOL0     C 4233   8.972   4.642   2.368 -1.0382 -0.8728 -0.2750
   33MOL0     C 4234   8.855   4.588   2.276  0.8524  0.1676  0.2858
   33MOL0     C 4235   8.888   4.600   2.125  0.1936  0.0457  0.0532
   33MOL0     C 4236   8.789   4.516   2.042 -1.2571  0.4020 -0.2397
   33MOL0     C 4237   8.657   4.588   2.006 -0.4342  0.3177 -0.2235
   33MOL0     C 4238   8.566   4.504   1.919  0.0491 -1.0151  1.2994
   33MOL0     C 4239   8.624   4.479   1.776  0.4247 -0.2271 -0.2425
   33MOL0     C 4240   8.538   4.371   1.701 -0.9275 -1.3685  0.0473
   33MOL0     N 4241   8.488   4.419   1.573  0.0958  0.1326 -0.1871
   33MOL0     C 4242   8.374   4.483   1.553  0.2887 -0.7225  0.3140
   33MOL0     C 4243   8.352   4.490   1.412 -0.6074  0.6584 -0.0752
   33MOL0     C 4244   8.235   4.568   1.344 -0.6262 -0.6846  0.0823
   33MOL0     C 4245   8.142   4.473   1.283 -1.4445 -0.4975  0.2917
   33MOL0     C 4246   8.050   4.557   1.199 -0.8142  0.4011 -0.7597
   33MOL0     C 4247   7.927   4.470   1.165  0.4381 -0.6984 -0.4733
   33MOL0     O 4248   7.949   4.378   1.056  0.4155  0.6883 -0.7002
   33MOL0     C 4249   7.842   4.305   1.016  0.2645 -0.8394 -0.3667
   33MOL0     C 4250   7.871   4.219   0.908  0.1527  0.0718 -0.1913
   33MOL0     C 4251   7.780   4.133   0.851  0.7233 -0.3415 -0.1070
   33MOL0     C 4252   7.652   4.126   0.916 -0.5235 -0.3799 -0.5728
   33MOL0     C 4253   7.529   4.054   0.856  0.6217 -0.3833  1.5087
   33MOL0     O 4254   7.409   4.088   0.909 -0.3594 -0.0008 -0.6569
   33MOL0     C 4255   7.292   4.014   0.882  0.6556  0.0090 -1.0574
   33MOL0     C 4256   7.270   3.912   0.782  0.2678 -0.0865  0.4235
   33MOL0     C 4257   7.152   3.833   0.780  0.9237 -0.0987 -0.5945
   33MOL0     C 4258   7.039   3.875   0.857  0.4431 -0.3212 -0.1095
   33MOL0     O 4259   6.918   3.805   0.876 -0.4121  0.4511  0.3058
   33MOL0     C 4260   6.810   3.844   0.790 -0.1310 -0.7310  0.7571
   33MOL0     C 4261   6.690   3.813   0.877 -0.4242 -0.1234 -0.9357
   33MOL0     C 4262   6.567   3.862   0.796  0.0779  0.2893 -0.7596
   33MOL0     C 4263   6.437   3.847   0.881 -0.1801  0.0944 -0.1536
   33MOL0     C 4264   6.303   3.906   0.839  0.1453  0.7148 -0.0680
   33MOL0     C 4265   6.206   3.914   0.955  0.2632  0.2849 -0.1514
   33MOL0     C 4266   6.087   4.009   0.912 -0.2503 -0.3223  0.1124
   33MOL0     C 4267   5.975   4.035   1.017  0.9474 -0.3603  0.0527
   33MOL0    Cl 4268   6.034   4.095   1.188  0.8899  0.2785  0.3559
   33MOL0     C 4269   7.058   3.983   0.944  1.0667 -0.8855  0.1182
   33MOL0     C 4270   7.178   4.048   0.961 -0.0425  0.3077  0.0986
   33MOL0     O 4271   7.546   3.977   0.763  0.6304  0.2179 -0.3534
   33MOL0     C 4272   7.623   4.204   1.031  0.0435 -0.3532 -0.4060
   33MOL0     C 4273   7.719   4.289   1.083 -0.5669  1.0506 -0.0569
   33MOL0     N 4274   8.444   4.406   1.367  0.0887 -0.2228 -0.0170
   33MOL0     N 4275   8.532   4.373   1.456  0.1747  0.0515 -0.6807
   33MOL0     C 4276   8.988   4.713   2.715 -0.1253 -0.0628 -0.6155
   33MOL0     C 4277   9.072   4.771   2.818  0.2030 -0.7915  0.5322
   33MOL0     C 4278   9.387   4.941   3.081  0.3208  0.1001 -0.5947
   33MOL0     C 4279   9.431   4.887   3.200 -0.3907 -0.4806  0.9809
   33MOL0     C 4280   9.515   4.963   3.277  0.8510  0.0355 -0.8033
   33MOL0     C 4281   9.543   5.100   3.260  0.0509 -1.1222 -0.0243
   33MOL0     O 4282   9.613   5.188   3.351  0.0939  0.7264  0.2682
   33MOL0     C 4283   9.661   5.113   3.466  0.1057 -0.6035 -0.0418
   33MOL0     C 4284   9.692   5.206   3.579 -0.2911  0.1191 -0.8109
   33MOL0     C 4285   9.582   5.313   3.599 -0.1248 -0.5973  0.3834
   33MOL0     C 4286   9.617   5.391   3.721  0.4236 -0.8047 -0.4730
   33MOL0     C 4287   9.532   5.501   3.753  0.3049  1.2902 -0.0312
   33MOL0     C 4288   9.484   5.592   3.804 -0.3424 -0.1309 -0.0501
   33MOL0     C 4289   9.501   5.156   3.134 -1.1363  0.1470 -0.3779
   33MOL0     C 4290   9.421   5.077   3.045  0.4795 -1.3850  0.2405
   33MOL0     H 4291   9.313   4.904   2.634 -0.9234  0.6453  0.1481
   33MOL0     H 4292   9.166   4.821   2.445 -0.7878  1.7831 -0.5852
   33MOL0     H 4293   9.044   4.560   2.376  1.6002  1.2567 -0.6502
   33MOL0     H 4294   9.033   4.718   2.317 -0.4603 -1.1253  0.0287
   33MOL0     H 4295   8.765   4.649   2.288  1.9371  1.6516  1.2141
   33MOL0     H 4296   8.830   4.484   2.295 -0.2110 -0.5444 -3.8612
   33MOL0     H 4297   8.990   4.561   2.111 -0.4438 -1.2110 -1.3148
   33MOL0     H 4298   8.870   4.705   2.101 -0.3844 -0.2586 -0.8783
   33MOL0     H 4299   8.848   4.485   1.955 -1.6799  1.0050 -0.7433
   33MOL0     H 4300   8.776   4.417   2.089 -0.4047 -0.7406 -2.2945
   33MOL0     H 4301   8.677   4.680   1.950 -0.5423  1.3302  1.3243
   33MOL0     H 4302   8.595   4.628   2.087 -1.3046  1.5371 -1.4301
   33MOL0     H 4303   8.478   4.563   1.894 -1.2650 -2.5384  2.1825
   33MOL0     H 4304   8.545   4.404   1.959  0.8631 -2.7788 -2.3035
   33MOL0     H 4305   8.622   4.574   1.722 -2.7272  0.5914  1.0331
   33MOL0     H 4306   8.725   4.438   1.784 -0.0042 -1.8379 -2.3478
   33MOL0     H 4307   8.461   4.335   1.770 -2.7826  2.2596  0.1147
   33MOL0     H 4308   8.593   4.284   1.665 -1.8563 -2.6123  1.5455
   33MOL0     H 4309   8.313   4.528   1.631  0.3761  1.4290 -0.7690
   33MOL0     H 4310   8.273   4.631   1.263 -1.1945 -0.8939 -0.3468
   33MOL0     H 4311   8.191   4.640   1.413  1.8429  1.7676 -0.6893
   33MOL0     H 4312   8.097   4.401   1.351  0.3933 -2.7712 -0.7295
   33MOL0     H 4313   8.200   4.407   1.217 -3.6128 -0.8196 -1.4096
   33MOL0     H 4314   8.011   4.642   1.256  2.0632  2.2029 -1.2507
   33MOL0     H 4315   8.097   4.595   1.108 -0.7938  0.2585 -0.8095
   33MOL0     H 4316   7.838   4.531   1.148  1.2907  1.1296  1.1712
   33MOL0     H 4317   7.894   4.430   1.261  1.9109  0.2537  0.4738
   33MOL0     H 4318   7.965   4.233   0.856 -0.4411  0.1579 -1.2656
   33MOL0     H 4319   7.800   4.080   0.759  0.6748 -0.7833  0.1358
   33MOL0     H 4320   7.348   3.895   0.709  2.2479  0.8255  2.2313
   33MOL0     H 4321   7.150   3.744   0.718 -0.1713 -0.0724 -0.6088
   33MOL0     H 4322   6.803   3.781   0.701 -0.6735 -1.6788  1.4528
   33MOL0     H 4323   6.810   3.950   0.766  0.6602 -0.8014  0.4154
   33MOL0     H 4324   6.689   3.871   0.969 -2.7643 -0.2644 -0.8197
   33MOL0     H 4325   6.676   3.709   0.907 -1.0676 -0.1242 -1.2198
   33MOL0     H 4326   6.563   3.790   0.714  1.9427 -1.8751  0.9151
   33MOL0     H 4327   6.573   3.964   0.759 -3.3327  2.3557  3.3650
   33MOL0     H 4328   6.423   3.739   0.894  2.3249 -0.2248  0.4656
   33MOL0     H 4329   6.448   3.882   0.984 -0.3134 -2.1692  0.6812
   33MOL0     H 4330   6.246   3.856   0.760  2.5816 -1.7330 -0.4488
   33MOL0     H 4331   6.336   4.003   0.801 -0.5762  0.6346 -0.9208
   33MOL0     H 4332   6.255   3.931   1.052 -0.6741  0.3241  0.3250
   33MOL0     H 4333   6.160   3.816   0.969 -0.4336  0.7749  1.1414
   33MOL0     H 4334   6.137   4.106   0.907 -2.1672  0.7019  0.1183
   33MOL0     H 4335   6.036   3.976   0.821  1.0667 -0.7122 -0.5266
   33MOL0     H 4336   5.919   3.942   1.031  2.1164 -1.0893  0.0100
   33MOL0     H 4337   5.910   4.113   0.976  1.2359 -1.2110 -2.1617
   33MOL0     H 4338   6.970   4.024   0.992  1.2835  2.7008 -2.1575
   33MOL0     H 4339   7.202   4.128   1.030  2.9036  0.2428 -0.7004
   33MOL0     H 4340   7.529   4.193   1.085  2.4405 -2.0773  3.8937
   33MOL0     H 4341   7.707   4.351   1.171 -0.2893  2.5412 -1.0065
   33MOL0     H 4342   8.887   4.684   2.743 -1.1159  2.8165 -0.9295
   33MOL0     H 4343   9.030   4.763   2.917  0.4007  0.7365  0.7655
   33MOL0     H 4344   9.416   4.781   3.216  2.9763 -1.7457 -2.6833
   33MOL0     H 4345   9.546   4.893   3.353 -2.2695 -1.3756 -0.6892
   33MOL0     H 4346   9.748   5.053   3.439  1.0274  1.2332 -1.4010
   33MOL0     H 4347   9.582   5.049   3.507  0.0338 -0.3049  0.2890
   33MOL0     H 4348   9.702   5.150   3.672 -3.8110 -0.4136 -0.6409
   33MOL0     H 4349   9.792   5.247   3.559 -0.3678  1.1197  0.6202
   33MOL0     H 4350   9.484   5.265   3.612 -0.0963 -1.8891 -3.1219
   33MOL0     H 4351   9.577   5.372   3.507 -0.7570  0.1367  0.8696
   33MOL0     H 4352   9.611   5.332   3.813  0.4066  4.5617  3.4262
   33MOL0     H 4353   9.723   5.415   3.707  0.5114 -1.6866 -1.4377
   33MOL0     H 4354   9.439   5.682   3.840  0.0303  0.1400 -0.2565
   33MOL0     H 4355   9.510   5.260   3.105 -0.8576 -0.2123 -1.6715
   33MOL0     H 4356   9.377   5.119   2.956 -0.8231  1.4931  2.1139
   34MOL0     O 4357   6.791   1.787   8.221 -0.0416  0.0877  0.1417
   34MOL0     C 4358   6.756   1.760   8.106 -0.2988  0.6570  0.8619
   34MOL0     O 4359   6.791   1.834   7.989  0.3097  0.5234  0.0571
   34MOL0     C 4360   6.851   1.958   7.994 -0.0120 -0.1048 -0.1481
   34MOL0     C 4361   6.801   2.070   8.062  0.9689  0.3191  0.2293
   34MOL0     C 4362   6.867   2.186   8.057  0.3537 -0.0200  0.2304
   34MOL0     C 4363   6.981   2.209   7.987 -0.1343 -0.0782 -0.1917
   34MOL0     O 4364   7.039   2.331   7.977 -0.2141  0.5188  0.4050
   34MOL0     C 4365   7.176   2.348   7.948  0.5278 -0.0413 -0.2152
   34MOL0     C 4366   7.257   2.334   8.077 -0.0398  0.9101 -1.4291
   34MOL0     C 4367   7.392   2.407   8.077 -0.1482 -0.3531  0.4132
   34MOL0     C 4368   7.469   2.365   7.946 -0.0719  0.0922 -0.4156
   34MOL0     C 4369   7.611   2.416   7.952  0.4836  0.0505  0.2095
   34MOL0     C 4370   7.697   2.341   8.046  0.6209 -0.6530  0.4010
   34MOL0     C 4371   7.833   2.409   8.067 -0.5431 -0.7457  0.9973
   34MOL0     C 4372   7.920   2.416   7.932  0.8732 -0.5923 -0.6105
   34MOL0     N 4373   7.968   2.281   7.892  0.1574 -0.4063 -0.7141
   34MOL0     C 4374   8.063   2.207   7.972  0.7200  0.7827  1.1616
   34MOL0     C 4375   8.104   2.112   7.882  0.0923  0.6704  0.0472
   34MOL0     C 4376   8.201   2.000   7.918  0.1554  0.8075  0.2497
   34MOL0     C 4377   8.313   1.989   7.810 -1.2487  0.9402 -0.2626
   34MOL0     C 4378   8.408   2.095   7.838 -0.5672 -0.4714  0.7999
   34MOL0     C 4379   8.493   2.134   7.725 -0.6484  0.5298  0.1371
   34MOL0     O 4380   8.608   2.052   7.711 -0.7578  0.4213  0.2141
   34MOL0     C 4381   8.729   2.075   7.778 -0.3775  1.5303 -0.2601
   34MOL0     C 4382   8.765   2.194   7.850  0.9061  0.4802  0.4719
   34MOL0     C 4383   8.888   2.199   7.917 -0.1347 -0.6277 -0.3263
   34MOL0     C 4384   8.981   2.086   7.912  0.1182 -0.3740  0.0518
   34MOL0     C 4385   9.111   2.092   7.977 -0.2221 -0.3432  0.2856
   34MOL0     O 4386   9.119   2.177   8.084  0.4511  0.6913 -0.1142
   34MOL0     C 4387   9.236   2.210   8.155 -0.0145  0.0587  0.7300
   34MOL0     C 4388   9.267   2.164   8.278 -0.1660  1.0153  0.3005
   34MOL0     C 4389   9.380   2.214   8.355 -0.7344  0.0145  0.5249
   34MOL0     C 4390   9.465   2.304   8.294 -0.2331 -0.7963 -0.4583
   34MOL0     O 4391   9.562   2.353   8.372  0.2592 -0.6558 -0.2667
   34MOL0     C 4392   9.552   2.492   8.410 -0.2185  0.3113 -0.0687
   34MOL0     C 4393   9.565   2.517   8.564  0.4000 -0.1204 -0.7030
   34MOL0     C 4394   9.461   2.433   8.641  0.8255 -0.2608  0.7357
   34MOL0     C 4395   9.424   2.500   8.775  0.2188  0.0501 -0.3054
   34MOL0     C 4396   9.339   2.398   8.861  0.1128  0.3715 -0.3479
   34MOL0     C 4397   9.200   2.409   8.803 -0.3422  0.0516  0.1221
   34MOL0     C 4398   9.094   2.333   8.884  0.2552  0.4550 -0.1649
   34MOL0     C 4399   9.044   2.403   9.006 -0.1777 -0.0014 -0.0474
   34MOL0    Cl 4400   8.906   2.310   9.071  0.1411  0.0545  0.4157
   34MOL0     C 4401   9.431   2.345   8.166  1.0432 -0.6733 -0.6014
   34MOL0     C 4402   9.316   2.308   8.097  0.0906  0.7297  0.7605
   34MOL0     O 4403   9.202   2.024   7.933  0.0576  0.3312 -0.0078
   34MOL0     C 4404   8.947   1.973   7.827  0.6801 -0.1744 -0.0451
   34MOL0     C 4405   8.820   1.969   7.764 -0.9000  0.1927 -0.4357
   34MOL0     N 4406   8.040   2.128   7.760 -0.5905 -0.0823 -0.9689
   34MOL0     N 4407   7.967   2.235   7.765  0.4162 -0.2179  0.2018
   34MOL0     C 4408   7.039   2.098   7.926  0.8911  0.0253 -0.5066
   34MOL0     C 4409   6.971   1.965   7.922 -0.0137  0.3920 -0.9803
   34MOL0     C 4410   6.660   1.652   8.067 -0.0412  0.2326  0.6949
   34MOL0     C 4411   6.621   1.556   8.161  0.1540 -0.5173 -0.6482
   34MOL0     C 4412   6.515   1.457   8.135 -0.7939 -0.0460 -0.7587
   34MOL0     C 4413   6.446   1.458   8.016  0.1912 -0.8180  0.1498
   34MOL0     O 4414   6.333   1.381   7.989 -0.1823  0.6535 -0.5512
   34MOL0     C 4415   6.209   1.458   7.967  0.0591  0.0359 -0.8363
   34MOL0     C 4416   6.151   1.465   7.827  0.3780  0.6028  0.5120
   34MOL0     C 4417   6.021   1.540   7.818  0.2265 -0.6998  0.4779
   34MOL0     C 4418   5.957   1.515   7.680 -0.5909  0.4717 -0.3398
   34MOL0     C 4419   5.877   1.622   7.629 -0.3953 -0.1846 -0.3851
   34MOL0     C 4420   5.805   1.707   7.585 -0.4623  0.5171 -1.2724
   34MOL0     C 4421   6.490   1.545   7.918  0.1117  0.3084  0.3400
   34MOL0     C 4422   6.591   1.642   7.945  0.2352  1.0855 -0.1288
   34MOL0     H 4423   6.713   2.062   8.125 -0.6023 -1.1843 -1.9796
   34MOL0     H 4424   6.813   2.268   8.102 -2.3305 -2.7123  2.2819
   34MOL0     H 4425   7.191   2.453   7.920 -0.6386  0.1627 -0.1009
   34MOL0     H 4426   7.208   2.289   7.861  0.8802  3.5699 -2.7666
   34MOL0     H 4427   7.267   2.229   8.106 -2.1719  1.1239  0.3156
   34MOL0     H 4428   7.201   2.384   8.156  2.7346  2.0507 -0.0956
   34MOL0     H 4429   7.446   2.371   8.165  4.7322 -0.4119 -2.2204
   34MOL0     H 4430   7.380   2.516   8.080 -0.1502 -0.3387 -0.0518
   34MOL0     H 4431   7.469   2.257   7.936  0.1614  0.2994 -3.9982
   34MOL0     H 4432   7.417   2.420   7.866 -2.4356 -1.2928  0.0932
   34MOL0     H 4433   7.609   2.524   7.973 -0.7654  0.0258  0.2489
   34MOL0     H 4434   7.653   2.423   7.851 -2.1248 -0.6010 -0.9985
   34MOL0     H 4435   7.711   2.237   8.017  4.0866 -0.3256  0.5369
   34MOL0     H 4436   7.649   2.344   8.144 -0.5291 -1.2591 -0.1272
   34MOL0     H 4437   7.812   2.510   8.102 -0.9283 -1.0872  1.7784
   34MOL0     H 4438   7.896   2.363   8.144  0.0059  0.3864  1.2372
   34MOL0     H 4439   8.012   2.474   7.945  1.7823 -1.8820 -0.9818
   34MOL0     H 4440   7.866   2.458   7.847 -1.9260 -2.7782 -0.0494
   34MOL0     H 4441   8.089   2.220   8.076 -0.4308  0.0596  1.5639
   34MOL0     H 4442   8.149   1.904   7.920  1.8554 -0.2048 -0.7467
   34MOL0     H 4443   8.241   2.013   8.019  3.3135 -2.4848 -0.3425
   34MOL0     H 4444   8.261   1.995   7.714 -3.1450 -4.3662  0.1071
   34MOL0     H 4445   8.368   1.895   7.822 -1.6473  0.7724  0.2739
   34MOL0     H 4446   8.358   2.186   7.873  1.7023  0.6772  1.1757
   34MOL0     H 4447   8.474   2.067   7.920 -1.6929 -1.3131  1.4530
   34MOL0     H 4448   8.517   2.240   7.737 -3.0987  1.6481 -3.3565
   34MOL0     H 4449   8.454   2.138   7.623  3.8235 -2.3325 -1.9855
   34MOL0     H 4450   8.691   2.273   7.856 -0.8517 -1.0335 -0.1467
   34MOL0     H 4451   8.923   2.293   7.959 -0.6893 -0.4022 -0.3690
   34MOL0     H 4452   9.196   2.091   8.315 -0.5943 -0.4724 -3.0411
   34MOL0     H 4453   9.409   2.170   8.450  0.1701 -2.6249 -0.8699
   34MOL0     H 4454   9.461   2.538   8.368  0.4305  1.0038 -0.7497
   34MOL0     H 4455   9.634   2.541   8.357 -0.8915  0.6361 -0.8369
   34MOL0     H 4456   9.566   2.623   8.591 -3.3448 -0.4519  1.3994
   34MOL0     H 4457   9.661   2.475   8.595 -0.6333 -1.8087  0.4028
   34MOL0     H 4458   9.488   2.327   8.648  4.8025  0.6774  2.4437
   34MOL0     H 4459   9.370   2.436   8.580  1.3738 -0.8498 -0.1275
   34MOL0     H 4460   9.521   2.530   8.816  0.2054  2.4258 -1.8614
   34MOL0     H 4461   9.369   2.594   8.765  0.0207  0.0360  0.5320
   34MOL0     H 4462   9.338   2.424   8.968  0.7117 -2.4234  0.4197
   34MOL0     H 4463   9.378   2.297   8.847  1.2870  0.7064  0.3372
   34MOL0     H 4464   9.191   2.387   8.697  1.0403 -0.1863  0.0386
   34MOL0     H 4465   9.168   2.514   8.811 -0.4889  0.1903 -1.8153
   34MOL0     H 4466   9.010   2.322   8.815 -0.4110 -0.8299  0.8044
   34MOL0     H 4467   9.140   2.236   8.907  0.8723 -0.1211 -3.3075
   34MOL0     H 4468   9.002   2.503   9.000 -0.4649 -0.0201  1.2597
   34MOL0     H 4469   9.124   2.406   9.081  0.5240  0.4495 -0.7923
   34MOL0     H 4470   9.483   2.427   8.117  2.2195 -2.3632 -2.3367
   34MOL0     H 4471   9.297   2.363   8.006  1.3504 -1.4045 -0.8882
   34MOL0     H 4472   9.008   1.884   7.818  0.9994  0.2455 -4.8129
   34MOL0     H 4473   8.803   1.881   7.704  0.5566  2.6589 -4.8653
   34MOL0     H 4474   7.136   2.121   7.883  2.1363  1.6984  2.7868
   34MOL0     H 4475   7.005   1.881   7.862  0.5968  0.7831 -1.1952
   34MOL0     H 4476   6.669   1.560   8.258  2.3033  0.5966 -1.6884
   34MOL0     H 4477   6.494   1.381   8.210  0.7218 -2.2207 -2.4168
   34MOL0     H 4478   6.213   1.558   8.011 -1.2463 -0.6655  0.9848
   34MOL0     H 4479   6.135   1.407   8.029  1.0305 -0.6937 -0.2528
   34MOL0     H 4480   6.215   1.507   7.748 -1.7217 -1.2483 -2.3890
   34MOL0     H 4481   6.128   1.359   7.818 -0.5410  0.6746  1.8690
   34MOL0     H 4482   6.049   1.645   7.832  0.2457 -0.5302 -0.7145
   34MOL0     H 4483   5.946   1.505   7.889 -1.4979 -2.8373 -2.1627
   34MOL0     H 4484   6.038   1.521   7.607  0.5892 -1.3697  0.7400
   34MOL0     H 4485   5.910   1.416   7.672 -0.6433  0.5572 -1.2523
   34MOL0     H 4486   5.738   1.775   7.536  0.2363  0.3124 -2.5722
   34MOL0     H 4487   6.442   1.544   7.820 -1.0467  0.6075  0.8809
   34MOL0     H 4488   6.611   1.694   7.852  2.3154 -1.2068 -1.0481
   35MOL0     O 4489   9.023   9.369   7.263  0.4161  0.2306 -0.5591
   35MOL0     C 4490   8.970   9.341   7.157 -0.1451  0.1158  0.7239
   35MOL0     O 4491   9.012   9.253   7.072  0.3113  0.0739 -0.1983
   35MOL0     C 4492   9.124   9.177   7.104 -0.2123  1.0282 -0.6445
   35MOL0     C 4493   9.109   9.051   7.163 -0.8205  0.5649  0.5958
   35MOL0     C 4494   9.217   8.979   7.206 -0.1058 -0.4424 -0.8618
   35MOL0     C 4495   9.348   9.029   7.198 -0.0990 -0.0657  0.9108
   35MOL0     O 4496   9.455   8.952   7.242  0.6159  0.0341 -0.5131
   35MOL0     C 4497   9.439   8.851   7.342 -0.3991  1.0076  0.0045
   35MOL0     C 4498   9.570   8.776   7.376 -0.1030  0.2979  0.4263
   35MOL0     C 4499   9.674   8.865   7.435 -0.6345 -0.9220 -0.1404
   35MOL0     C 4500   9.803   8.783   7.473 -0.1261 -0.5018 -0.2746
   35MOL0     C 4501   9.906   8.879   7.522 -0.4569  0.8107  0.7036
   35MOL0     C 4502  10.024   8.810   7.589  0.9404  1.4378 -0.2702
   35MOL0     C 4503  10.137   8.903   7.606 -0.2902  0.0952  0.8596
   35MOL0     C 4504  10.106   9.003   7.704  0.0356 -0.8032  0.1805
   35MOL0     N 4505  10.231   9.073   7.727 -0.4091  0.1622  0.2919
   35MOL0     C 4506  10.318   9.056   7.840  0.4992  1.2511 -0.8922
   35MOL0     C 4507  10.437   9.118   7.818 -0.3232  0.5497  0.3069
   35MOL0     C 4508  10.549   9.119   7.924  0.3151  0.2317 -0.5969
   35MOL0     C 4509  10.682   9.163   7.858  0.9629 -0.0970 -0.3123
   35MOL0     C 4510  10.800   9.091   7.925  0.4680 -0.2013 -0.1220
   35MOL0     C 4511  10.934   9.138   7.870 -0.0690  0.2425 -1.0394
   35MOL0     O 4512  10.953   9.087   7.744 -0.8420  0.1118 -0.0682
   35MOL0     C 4513  11.081   9.111   7.692 -0.2541  1.2754 -0.4522
   35MOL0     C 4514  11.095   9.081   7.553 -0.0162  0.5691  0.1773
   35MOL0     C 4515  11.210   9.099   7.489 -0.1285  0.4546  0.1640
   35MOL0     C 4516  11.333   9.121   7.558 -0.1540 -0.0898  0.9059
   35MOL0     C 4517  11.449   9.125   7.475  0.3514  0.1384 -0.2472
   35MOL0     O 4518  11.560   9.178   7.535 -0.2808  0.3258 -0.7858
   35MOL0     C 4519  11.680   9.159   7.476 -0.2388  0.8007 -0.1120
   35MOL0     C 4520  11.770   9.255   7.532  0.7817  0.0194 -0.0438
   35MOL0     C 4521  11.908   9.243   7.503 -0.1146  0.6383 -0.0008
   35MOL0     C 4522  11.951   9.154   7.401 -0.3696 -0.2604  0.9353
   35MOL0     O 4523  12.083   9.131   7.367 -0.0024 -0.4962  0.5924
   35MOL0     C 4524  12.176   9.229   7.397  0.2476 -1.1858 -0.0713
   35MOL0     C 4525  12.296   9.191   7.317 -1.3749 -0.4617  0.2432
   35MOL0     C 4526  12.427   9.268   7.368  0.0319  0.5538  0.7361
   35MOL0     C 4527  12.541   9.229   7.281 -0.2380  0.9547 -0.2318
   35MOL0     C 4528  12.670   9.312   7.316 -0.5497  0.2871  0.9879
   35MOL0     C 4529  12.770   9.270   7.206  0.9876 -0.3917 -0.4996
   35MOL0     C 4530  12.876   9.388   7.184  0.4872  0.7577 -0.4854
   35MOL0     C 4531  12.981   9.355   7.080 -0.2884  0.0673 -0.0217
   35MOL0    Cl 4532  12.953   9.441   6.926  0.7372  0.1999 -0.4007
   35MOL0     C 4533  11.862   9.057   7.357 -0.0052  0.3651  0.7057
   35MOL0     C 4534  11.724   9.062   7.390  0.7861  1.0090 -0.4519
   35MOL0     O 4535  11.443   9.070   7.363  0.4903  0.2274  0.1326
   35MOL0     C 4536  11.326   9.144   7.698 -0.1046 -0.1533 -0.2155
   35MOL0     C 4537  11.205   9.134   7.771  0.4796  1.1157  0.7818
   35MOL0     N 4538  10.423   9.173   7.683  0.1158  0.2161 -0.5606
   35MOL0     N 4539  10.306   9.144   7.636 -0.2366  0.6481  0.1781
   35MOL0     C 4540   9.360   9.157   7.122 -1.0783  0.4428 -0.8947
   35MOL0     C 4541   9.250   9.227   7.083 -0.1280  0.0953  0.7574
   35MOL0     C 4542   8.856   9.436   7.118  0.2873  0.4833  0.3161
   35MOL0     C 4543   8.810   9.530   7.207  0.2936 -0.3469  0.2133
   35MOL0     C 4544   8.708   9.620   7.168  0.4113 -0.8409  0.7113
   35MOL0     C 4545   8.649   9.620   7.042 -0.3782  0.5341  0.3554
   35MOL0     O 4546   8.555   9.702   6.998  0.5649 -0.2785  1.2285
   35MOL0     C 4547   8.535   9.822   7.081  0.3558  1.0217 -0.4067
   35MOL0     C 4548   8.415   9.887   7.013  0.5157 -0.4786  0.9570
   35MOL0     C 4549   8.394  10.031   7.061  0.8307  0.1405 -0.1504
   35MOL0     C 4550   8.252  10.084   7.063 -0.3552  0.9458 -0.0647
   35MOL0     C 4551   8.210  10.076   6.916 -0.5200 -0.9992  0.2727
   35MOL0     C 4552   8.177  10.076   6.802  0.7399  0.4574  0.9380
   35MOL0     C 4553   8.687   9.521   6.949 -0.6046  0.4699 -0.4052
   35MOL0     C 4554   8.788   9.427   6.991 -0.2851 -0.1567 -0.3323
   35MOL0     H 4555   9.006   9.021   7.172 -1.1588  1.4308 -0.2017
   35MOL0     H 4556   9.186   8.888   7.256 -3.4534 -0.0599 -1.9638
   35MOL0     H 4557   9.367   8.776   7.310 -1.1862  0.4675  2.7473
   35MOL0     H 4558   9.402   8.896   7.435  1.3374  0.0294  1.2178
   35MOL0     H 4559   9.613   8.743   7.281  2.6744  0.6735  1.4714
   35MOL0     H 4560   9.550   8.683   7.432  2.4957  1.5757  3.7864
   35MOL0     H 4561   9.626   8.910   7.522 -2.7600 -3.9218  0.3622
   35MOL0     H 4562   9.692   8.950   7.369  0.7211  0.6298  2.0521
   35MOL0     H 4563   9.778   8.697   7.536 -2.7575  0.0083 -0.5018
   35MOL0     H 4564   9.856   8.744   7.385  0.3318 -1.5706  0.4619
   35MOL0     H 4565   9.852   8.941   7.594 -0.3584  0.4762  1.0675
   35MOL0     H 4566   9.932   8.939   7.434 -3.7527  2.2369  0.5514
   35MOL0     H 4567  10.044   8.724   7.524 -0.6470  1.6763 -1.1231
   35MOL0     H 4568   9.986   8.766   7.682 -3.3454 -0.0955 -2.4666
   35MOL0     H 4569  10.221   8.837   7.630 -0.3646 -0.2804  0.1249
   35MOL0     H 4570  10.143   8.946   7.505  3.0292 -0.1795  0.8386
   35MOL0     H 4571  10.070   8.954   7.794  0.6730 -3.2082 -0.7985
   35MOL0     H 4572  10.034   9.074   7.661  1.7563  0.3122 -1.0170
   35MOL0     H 4573  10.291   9.008   7.933 -0.7626  0.7617 -1.4798
   35MOL0     H 4574  10.551   9.016   7.962  0.9145  0.3265 -0.3603
   35MOL0     H 4575  10.520   9.188   8.003  0.4749  1.0500 -1.2392
   35MOL0     H 4576  10.701   9.270   7.872  0.1496 -0.0639  0.6015
   35MOL0     H 4577  10.677   9.145   7.751 -1.4006  1.4870 -0.5407
   35MOL0     H 4578  10.792   9.108   8.033  0.9102  0.0546 -0.1294
   35MOL0     H 4579  10.803   8.983   7.907  4.4915 -0.0115 -1.5402
   35MOL0     H 4580  11.004   9.092   7.940 -1.1268 -2.2711 -1.5249
   35MOL0     H 4581  10.927   9.248   7.870 -2.7654  0.1467  0.3726
   35MOL0     H 4582  11.003   9.062   7.498 -0.3878  1.2001  0.5649
   35MOL0     H 4583  11.207   9.091   7.381  0.7366 -1.4768  0.2373
   35MOL0     H 4584  11.737   9.321   7.611  1.9866 -1.3229  1.6606
   35MOL0     H 4585  11.986   9.304   7.546  0.8254 -0.4400 -0.1358
   35MOL0     H 4586  12.203   9.223   7.503 -1.0602  0.9418  0.4385
   35MOL0     H 4587  12.139   9.331   7.388 -1.8996 -1.4695  3.5381
   35MOL0     H 4588  12.283   9.225   7.214  1.0794 -0.5680 -0.1764
   35MOL0     H 4589  12.299   9.083   7.335 -0.1610 -0.5245 -0.2308
   35MOL0     H 4590  12.433   9.243   7.474  1.1480 -2.1439  0.1295
   35MOL0     H 4591  12.409   9.376   7.373  3.0416  1.1669  0.3534
   35MOL0     H 4592  12.561   9.122   7.296  1.3757  1.0684 -1.3252
   35MOL0     H 4593  12.525   9.237   7.173  0.9146 -3.5761 -0.9890
   35MOL0     H 4594  12.712   9.277   7.411  1.9682  0.3841  0.0056
   35MOL0     H 4595  12.651   9.418   7.334 -0.2660  0.2190  1.7111
   35MOL0     H 4596  12.722   9.264   7.108 -0.2824 -1.2932  0.1515
   35MOL0     H 4597  12.812   9.173   7.233  1.5966 -0.3785 -1.3459
   35MOL0     H 4598  12.823   9.478   7.151  0.5110  1.0092  0.1599
   35MOL0     H 4599  12.931   9.405   7.277  1.8491  1.0039 -1.3142
   35MOL0     H 4600  12.993   9.247   7.067  3.5394  0.1578  1.3792
   35MOL0     H 4601  13.080   9.385   7.115  0.0424  2.0230 -2.3640
   35MOL0     H 4602  11.898   8.973   7.298  4.0795  2.2150  0.2104
   35MOL0     H 4603  11.660   8.985   7.349 -3.1964 -0.0075  6.1171
   35MOL0     H 4604  11.410   9.181   7.754 -1.4375  2.8143  0.0064
   35MOL0     H 4605  11.198   9.149   7.878  1.7075 -2.4749  1.4960
   35MOL0     H 4606   9.464   9.179   7.101 -1.1018  2.3466  0.7081
   35MOL0     H 4607   9.259   9.327   7.040 -0.3040  0.2806  1.1480
   35MOL0     H 4608   8.845   9.542   7.309 -2.5272 -3.6935  1.7975
   35MOL0     H 4609   8.686   9.686   7.252 -0.4116  2.9286 -2.1792
   35MOL0     H 4610   8.623   9.886   7.091  0.9893  0.0472  0.4273
   35MOL0     H 4611   8.506   9.792   7.182 -2.6646  5.5106  0.3435
   35MOL0     H 4612   8.423   9.884   6.904 -0.3839 -0.9902  0.8914
   35MOL0     H 4613   8.322   9.833   7.035  0.1837 -0.0633  0.6176
   35MOL0     H 4614   8.447  10.108   7.004 -2.0673  2.5463  0.1370
   35MOL0     H 4615   8.433  10.047   7.162 -2.5760  2.3489  0.9740
   35MOL0     H 4616   8.183  10.032   7.130 -1.4535 -1.2908 -2.7596
   35MOL0     H 4617   8.253  10.189   7.092  1.0115  1.4871 -1.8813
   35MOL0     H 4618   8.153  10.099   6.700  3.6163 -0.6523 -0.1026
   35MOL0     H 4619   8.632   9.520   6.855  1.0140 -0.6519 -1.3829
   35MOL0     H 4620   8.819   9.348   6.923 -1.0949 -1.2766  0.5631
   36MOL0     O 4621   5.496   0.316   1.911 -0.7598 -0.0652  1.1081
   36MOL0     C 4622   5.442   0.336   2.018 -0.2814  0.0126 -0.9636
   36MOL0     O 4623   5.341   0.413   2.054  0.0510 -0.1297  1.0942
   36MOL0     C 4624   5.288   0.500   1.964 -0.5054  0.0871  0.0568
   36MOL0     C 4625   5.155   0.531   1.972  0.1932  1.1592  0.0107
   36MOL0     C 4626   5.110   0.629   1.889  0.5519  0.5131  0.3670
   36MOL0     C 4627   5.183   0.686   1.778  0.3982  0.0604 -0.2772
   36MOL0     O 4628   5.115   0.766   1.688  0.2763  0.3486  0.3337
   36MOL0     C 4629   5.169   0.764   1.557 -0.9191 -0.2577  0.3454
   36MOL0     C 4630   5.083   0.811   1.447 -0.5650  0.6028 -0.1117
   36MOL0     C 4631   5.059   0.964   1.465  0.2830 -0.2158  0.5978
   36MOL0     C 4632   4.933   1.014   1.389 -0.4209 -0.4950 -0.8213
   36MOL0     C 4633   4.800   1.011   1.472  0.2856 -0.1336  0.4042
   36MOL0     C 4634   4.781   1.126   1.580  0.3387  0.6333 -0.0223
   36MOL0     C 4635   4.806   1.279   1.522  0.2412  0.0759  0.5943
   36MOL0     C 4636   4.949   1.329   1.550  0.1277 -0.3973 -1.2733
   36MOL0     N 4637   4.961   1.468   1.494  0.4040  0.7916 -0.4754
   36MOL0     C 4638   4.904   1.578   1.555 -1.1577 -0.1089 -0.4285
   36MOL0     C 4639   4.889   1.663   1.458  0.6567 -0.7088  0.4465
   36MOL0     C 4640   4.810   1.794   1.463  0.3477 -1.1892 -0.0956
   36MOL0     C 4641   4.908   1.911   1.474 -0.5259 -0.2756 -0.1317
   36MOL0     C 4642   4.836   2.045   1.455 -1.0380 -0.1757 -1.2025
   36MOL0     C 4643   4.903   2.168   1.500 -0.1489 -0.8176  0.1368
   36MOL0     O 4644   4.848   2.289   1.447  0.2066 -0.1790 -0.4919
   36MOL0     C 4645   4.923   2.400   1.413 -0.7753  0.3952 -0.1474
   36MOL0     C 4646   4.845   2.519   1.415  0.0749  0.3058  0.4704
   36MOL0     C 4647   4.908   2.639   1.402  0.2867  0.2635 -0.4275
   36MOL0     C 4648   5.049   2.643   1.399  0.0296 -0.0223 -0.1982
   36MOL0     C 4649   5.119   2.775   1.394 -0.2753  0.5004  0.0656
   36MOL0     O 4650   5.252   2.763   1.374 -0.5321 -0.1690 -0.2067
   36MOL0     C 4651   5.338   2.868   1.340  0.5467  0.8006  0.5220
   36MOL0     C 4652   5.428   2.864   1.227  0.3601  0.2899 -0.2348
   36MOL0     C 4653   5.520   2.963   1.196  0.4541 -0.2783  0.1703
   36MOL0     C 4654   5.544   3.066   1.287  0.1002  0.2248 -0.4928
   36MOL0     O 4655   5.643   3.162   1.274  0.3149 -0.6420 -0.0357
   36MOL0     C 4656   5.759   3.123   1.204 -0.5515  0.4028  0.4724
   36MOL0     C 4657   5.840   3.248   1.186  0.3369 -0.3974 -0.2542
   36MOL0     C 4658   5.763   3.335   1.078  0.1213 -0.4809  0.1810
   36MOL0     C 4659   5.760   3.268   0.944 -0.2008 -0.3234 -0.6373
   36MOL0     C 4660   5.768   3.362   0.830  0.2002 -0.2140 -0.6130
   36MOL0     C 4661   5.907   3.427   0.820  0.4113  0.2093 -0.4591
   36MOL0     C 4662   5.903   3.540   0.719 -1.6725  0.3147  0.0440
   36MOL0     C 4663   6.032   3.616   0.691  0.0255 -0.5306  0.1932
   36MOL0    Cl 4664   5.985   3.767   0.603  0.1093 -0.4011  0.2976
   36MOL0     C 4665   5.451   3.069   1.399  0.2974 -0.0167 -0.0130
   36MOL0     C 4666   5.352   2.975   1.423 -0.3475  1.5165 -0.8938
   36MOL0     O 4667   5.050   2.879   1.402 -0.6960  0.0734 -0.5568
   36MOL0     C 4668   5.129   2.526   1.396 -0.0021 -0.3271 -0.9113
   36MOL0     C 4669   5.065   2.400   1.407 -0.5373  0.0515  0.5687
   36MOL0     N 4670   4.949   1.616   1.339 -0.0391 -0.2472 -0.6341
   36MOL0     N 4671   4.994   1.496   1.366  0.3150  0.1038 -0.2738
   36MOL0     C 4672   5.318   0.661   1.781 -1.5051 -0.3216  0.1799
   36MOL0     C 4673   5.379   0.570   1.873 -0.1851  0.5561  0.4117
   36MOL0     C 4674   5.507   0.262   2.129 -0.8798 -1.2056  0.3264
   36MOL0     C 4675   5.468   0.281   2.267 -0.8713 -0.0073 -0.3831
   36MOL0     C 4676   5.544   0.206   2.370  1.2029  0.3103  0.2544
   36MOL0     C 4677   5.651   0.130   2.341 -0.6537  0.4768 -0.1123
   36MOL0     O 4678   5.725   0.069   2.437  0.6651 -0.5478  1.1681
   36MOL0     C 4679   5.662  -0.009   2.536  0.3066  0.3878  0.5646
   36MOL0     C 4680   5.725   0.024   2.665  0.7442  0.6623 -0.2406
   36MOL0     C 4681   5.673   0.147   2.730  0.1632  0.1191  0.3284
   36MOL0     C 4682   5.752   0.212   2.849  0.7561 -0.0135 -1.0959
   36MOL0     C 4683   5.846   0.118   2.919 -0.5381  0.6460  0.2947
   36MOL0     C 4684   5.929   0.046   2.967 -0.0638  0.1470 -0.5425
   36MOL0     C 4685   5.694   0.115   2.210  0.4779  0.5272 -0.3350
   36MOL0     C 4686   5.624   0.186   2.104  0.4260  0.5516 -0.8281
   36MOL0     H 4687   5.085   0.491   2.044  1.8942 -3.5646 -0.6182
   36MOL0     H 4688   5.007   0.661   1.901  0.1820 -0.9522  1.3519
   36MOL0     H 4689   5.201   0.661   1.538 -2.5480 -1.3214  2.8990
   36MOL0     H 4690   5.253   0.834   1.562  0.2661 -1.6764  1.1082
   36MOL0     H 4691   4.989   0.756   1.448 -0.6570  0.7041 -1.2150
   36MOL0     H 4692   5.126   0.782   1.350 -1.2830 -0.1251 -0.2195
   36MOL0     H 4693   5.149   1.014   1.429  0.6671 -1.1680  0.2138
   36MOL0     H 4694   5.055   0.977   1.574  2.6712 -1.3657  0.8875
   36MOL0     H 4695   4.956   1.108   1.339  2.6398 -0.1563  0.9590
   36MOL0     H 4696   4.921   0.940   1.308 -1.4698 -0.3446 -0.8184
   36MOL0     H 4697   4.798   0.911   1.516  0.8106 -1.3007 -2.0095
   36MOL0     H 4698   4.712   1.009   1.407 -0.4908  1.1597  1.3923
   36MOL0     H 4699   4.834   1.098   1.672 -1.3599 -1.1681  0.4761
   36MOL0     H 4700   4.675   1.122   1.607  1.0497  1.2613  3.3243
   36MOL0     H 4701   4.789   1.275   1.414 -0.1412 -0.6086  0.6739
   36MOL0     H 4702   4.734   1.351   1.563  2.1635  1.5758  1.5162
   36MOL0     H 4703   5.013   1.258   1.497 -0.1804 -1.8769  0.2422
   36MOL0     H 4704   4.960   1.326   1.659  1.8927  0.4150 -1.3937
   36MOL0     H 4705   4.853   1.592   1.650 -0.2203 -0.2596  0.1131
   36MOL0     H 4706   4.749   1.804   1.553  1.6731  2.6206  0.5730
   36MOL0     H 4707   4.743   1.801   1.377 -0.1412 -2.1618  0.2000
   36MOL0     H 4708   4.995   1.913   1.408  0.4816  2.1881  1.1344
   36MOL0     H 4709   4.949   1.917   1.576  1.9981  0.9077 -1.1345
   36MOL0     H 4710   4.796   2.041   1.353 -1.3246 -2.5198 -1.0397
   36MOL0     H 4711   4.754   2.027   1.525  0.3277 -0.0797  0.4605
   36MOL0     H 4712   5.010   2.162   1.475 -1.0655 -2.0505 -4.3556
   36MOL0     H 4713   4.883   2.175   1.607  0.4721  1.0133  0.1631
   36MOL0     H 4714   4.736   2.516   1.410  0.0523  1.6001 -3.0911
   36MOL0     H 4715   4.867   2.740   1.399 -0.7075  0.4323  5.6102
   36MOL0     H 4716   5.427   2.788   1.150 -1.8195  1.2607 -1.2647
   36MOL0     H 4717   5.592   2.941   1.118 -1.4183 -2.1748 -1.1041
   36MOL0     H 4718   5.744   3.075   1.107  2.1571  2.6249 -1.2213
   36MOL0     H 4719   5.812   3.060   1.277  0.8865  1.5821  0.4946
   36MOL0     H 4720   5.940   3.236   1.143 -0.7323 -2.4096 -2.3586
   36MOL0     H 4721   5.837   3.300   1.283 -1.8994  1.4155 -1.1993
   36MOL0     H 4722   5.812   3.432   1.073  1.2140 -1.0610 -0.7922
   36MOL0     H 4723   5.662   3.367   1.105  1.2221  2.3562  1.3714
   36MOL0     H 4724   5.845   3.199   0.946 -0.8525 -1.1391  1.2359
   36MOL0     H 4725   5.680   3.193   0.942  0.4517 -1.0272 -1.8160
   36MOL0     H 4726   5.686   3.433   0.837  1.4651  1.1796  0.6817
   36MOL0     H 4727   5.754   3.301   0.739  1.1110  3.0598 -3.1383
   36MOL0     H 4728   5.983   3.351   0.799  0.0457 -1.2733  2.8410
   36MOL0     H 4729   5.936   3.471   0.917 -2.1540 -1.3806  1.1481
   36MOL0     H 4730   5.879   3.503   0.619  3.5880  1.4010 -1.9246
   36MOL0     H 4731   5.828   3.609   0.760 -2.3586 -0.6657  0.4661
   36MOL0     H 4732   6.097   3.561   0.622 -0.3656  3.0489 -3.4780
   36MOL0     H 4733   6.080   3.628   0.789  2.3881 -3.8426 -0.3845
   36MOL0     H 4734   5.459   3.155   1.463  0.5525  2.4880 -3.1664
   36MOL0     H 4735   5.288   2.974   1.511 -0.1281  0.0658 -0.7259
   36MOL0     H 4736   5.236   2.530   1.376 -0.0403 -1.2558 -1.3726
   36MOL0     H 4737   5.131   2.313   1.405  0.0311  0.4884 -0.7445
   36MOL0     H 4738   5.377   0.718   1.710 -2.5989  1.5807  0.7307
   36MOL0     H 4739   5.483   0.543   1.886 -1.3963 -6.8114 -0.7629
   36MOL0     H 4740   5.385   0.345   2.298  1.8397  3.8910 -0.3599
   36MOL0     H 4741   5.505   0.219   2.470  0.9038 -2.2162  0.5376
   36MOL0     H 4742   5.687  -0.115   2.529 -1.5014 -0.0161 -0.4981
   36MOL0     H 4743   5.553  -0.016   2.530  0.4445 -0.7219 -2.5201
   36MOL0     H 4744   5.700  -0.048   2.744  3.9939 -0.0188  0.3056
   36MOL0     H 4745   5.834   0.020   2.653  1.0179 -1.4314  2.0199
   36MOL0     H 4746   5.576   0.122   2.774  1.6896 -2.0244  2.7787
   36MOL0     H 4747   5.659   0.224   2.654 -3.0761 -0.2229  0.4552
   36MOL0     H 4748   5.796   0.310   2.826 -1.2400  3.1022  5.5900
   36MOL0     H 4749   5.671   0.242   2.917 -1.7812 -0.7764 -3.6101
   36MOL0     H 4750   6.000  -0.021   3.012 -3.0979 -0.5479  3.8966
   36MOL0     H 4751   5.772   0.040   2.201  1.9386  2.0603 -0.9362
   36MOL0     H 4752   5.656   0.160   2.003  1.0875  2.1932 -1.0801
   37MOL0     O 4753   9.556   9.291   5.891  0.1938  0.0754 -0.0609
   37MOL0     C 4754   9.668   9.322   5.927 -0.8691  1.4098 -0.3583
   37MOL0     O 4755   9.724   9.438   5.910  0.9865  0.1655 -0.7220
   37MOL0     C 4756   9.648   9.556   5.885  0.6193 -0.1756 -1.1004
   37MOL0     C 4757   9.705   9.650   5.801 -0.0222 -0.1849  0.6501
   37MOL0     C 4758   9.633   9.758   5.766  0.0786 -0.9947 -0.0605
   37MOL0     C 4759   9.499   9.779   5.804 -0.2124 -0.7974 -0.3799
   37MOL0     O 4760   9.421   9.883   5.753 -0.6322 -0.9080  0.2623
   37MOL0     C 4761   9.286   9.854   5.708  0.3578  0.2919 -0.9724
   37MOL0     C 4762   9.247   9.927   5.582 -0.3742  0.0562 -0.0408
   37MOL0     C 4763   9.104   9.899   5.534 -0.7762 -0.9203  0.2576
   37MOL0     C 4764   9.071   9.974   5.414 -0.9992 -0.9171  1.0030
   37MOL0     C 4765   8.917   9.988   5.387  0.4289  0.1635  1.0272
   37MOL0     C 4766   8.907  10.051   5.247  0.3747  0.9201 -0.3791
   37MOL0     C 4767   8.758  10.069   5.200 -1.0597  0.6408  0.1843
   37MOL0     C 4768   8.758  10.167   5.078  0.2127  0.6602 -0.9415
   37MOL0     N 4769   8.831  10.093   4.973  0.1426 -0.3506 -0.5356
   37MOL0     C 4770   8.956  10.103   4.935 -0.3609  0.7969  0.0692
   37MOL0     C 4771   8.971  10.020   4.827  0.5647 -0.3701  0.2295
   37MOL0     C 4772   9.107  10.008   4.751  0.3100 -0.5891 -0.1381
   37MOL0     C 4773   9.175   9.882   4.809  0.1163 -0.3461 -0.0505
   37MOL0     C 4774   9.109   9.761   4.755 -0.5334  0.7250  0.4481
   37MOL0     C 4775   9.183   9.639   4.798  1.0425 -0.4222  1.0336
   37MOL0     O 4776   9.317   9.624   4.738  0.8263 -0.3659 -0.0388
   37MOL0     C 4777   9.406   9.543   4.799  1.2503 -0.3304 -0.6891
   37MOL0     C 4778   9.402   9.409   4.741  0.1827 -1.3993  0.0544
   37MOL0     C 4779   9.483   9.305   4.799 -0.8061 -0.5841  0.7209
   37MOL0     C 4780   9.565   9.343   4.911 -0.2571 -0.2064  0.5064
   37MOL0     C 4781   9.651   9.246   4.971  1.0323  0.2605 -0.0004
   37MOL0     O 4782   9.633   9.123   4.911  0.1135  0.3420 -0.5036
   37MOL0     C 4783   9.722   9.020   4.946  0.4826 -0.5845 -0.7240
   37MOL0     C 4784   9.790   8.958   4.845 -0.7632  0.8237  0.4587
   37MOL0     C 4785   9.884   8.851   4.866 -0.2395 -0.5195  0.0605
   37MOL0     C 4786   9.924   8.826   5.002 -0.3665  0.6268  0.4444
   37MOL0     O 4787  10.026   8.739   5.033 -0.0023  0.1817  0.4969
   37MOL0     C 4788  10.066   8.648   4.932  0.9384  0.3657 -0.2235
   37MOL0     C 4789  10.177   8.556   4.982  0.4266 -0.0084  0.1955
   37MOL0     C 4790  10.263   8.496   4.872 -0.0124  0.6736  0.3100
   37MOL0     C 4791  10.356   8.386   4.923  0.3560  0.4550 -0.4732
   37MOL0     C 4792  10.403   8.295   4.807  0.0270  0.9459 -0.8086
   37MOL0     C 4793  10.505   8.197   4.855  0.2936  0.1564  1.0276
   37MOL0     C 4794  10.577   8.112   4.753  0.0347 -0.8519  0.2240
   37MOL0     C 4795  10.686   8.022   4.807 -0.7810  0.4763 -0.3803
   37MOL0    Cl 4796  10.613   7.887   4.896 -0.1183  0.0688 -0.0394
   37MOL0     C 4797   9.851   8.889   5.105 -0.5867 -0.5337  0.8474
   37MOL0     C 4798   9.753   8.983   5.073 -0.4407 -0.0955 -0.1001
   37MOL0     O 4799   9.726   9.277   5.066 -0.3772 -0.8733 -0.3407
   37MOL0     C 4800   9.566   9.477   4.957  0.3709  0.6337  0.0230
   37MOL0     C 4801   9.478   9.576   4.912  0.0910  0.0445 -0.1542
   37MOL0     N 4802   8.841   9.976   4.788 -0.0552  0.5521 -0.0022
   37MOL0     N 4803   8.761  10.019   4.873 -0.8839  0.2508 -0.8834
   37MOL0     C 4804   9.437   9.683   5.887 -0.6051 -0.4366  0.3763
   37MOL0     C 4805   9.510   9.568   5.926  0.3100  0.7128 -0.0160
   37MOL0     C 4806   9.754   9.223   5.997 -0.6043  1.0598 -0.0829
   37MOL0     C 4807   9.710   9.081   5.987  0.1323  0.5281 -0.7659
   37MOL0     C 4808   9.780   8.980   6.061 -0.1939  1.0025  0.4728
   37MOL0     C 4809   9.887   9.016   6.148  0.4293  0.5055 -0.3930
   37MOL0     O 4810   9.960   8.913   6.198 -0.3126 -0.1510  0.0793
   37MOL0     C 4811  10.092   8.921   6.146  0.0513 -0.7596  0.1576
   37MOL0     C 4812  10.200   8.982   6.236 -0.6587 -0.5556 -0.0565
   37MOL0     C 4813  10.296   9.076   6.156  0.3580  0.2113 -0.4112
   37MOL0     C 4814  10.370   9.005   6.036 -0.5307  0.0701 -0.4013
   37MOL0     C 4815  10.419   8.878   6.087  0.9321  0.3616 -1.0532
   37MOL0     C 4816  10.463   8.767   6.119 -0.0859 -0.5272 -0.2743
   37MOL0     C 4817   9.925   9.152   6.157  0.1043  0.8345 -0.0839
   37MOL0     C 4818   9.854   9.255   6.094  0.0819 -0.7828 -0.3326
   37MOL0     H 4819   9.802   9.645   5.754 -0.1161 -0.9593  0.5171
   37MOL0     H 4820   9.685   9.828   5.702 -0.4408 -0.6089 -0.0647
   37MOL0     H 4821   9.210   9.894   5.776  0.4248  2.6468 -2.1681
   37MOL0     H 4822   9.284   9.746   5.689  2.6463  0.2440 -1.1358
   37MOL0     H 4823   9.322   9.899   5.507  0.0185 -2.2278  1.1357
   37MOL0     H 4824   9.246  10.033   5.608 -0.3079  0.2542 -0.7958
   37MOL0     H 4825   9.037   9.940   5.609 -2.8142 -1.2523 -1.2868
   37MOL0     H 4826   9.082   9.795   5.505  2.2676 -1.0347 -2.1921
   37MOL0     H 4827   9.109  10.077   5.425 -2.6209 -0.2104  0.3305
   37MOL0     H 4828   9.126   9.927   5.333 -0.2051 -1.4889  1.8617
   37MOL0     H 4829   8.873  10.048   5.467 -1.8690  1.8430 -1.3458
   37MOL0     H 4830   8.886   9.883   5.380  3.5398 -0.9658  2.2725
   37MOL0     H 4831   8.962   9.994   5.172 -1.9892  0.6000 -1.9974
   37MOL0     H 4832   8.965  10.144   5.249  3.3422 -0.8096  0.5751
   37MOL0     H 4833   8.734   9.969   5.160  2.4422 -0.0907 -0.4317
   37MOL0     H 4834   8.696  10.096   5.286 -0.1627 -0.2306  1.1415
   37MOL0     H 4835   8.796  10.268   5.096  3.5497 -0.3579 -1.5499
   37MOL0     H 4836   8.657  10.177   5.036  1.2182  1.4060 -3.3362
   37MOL0     H 4837   9.036  10.163   4.977  0.9257 -0.9421  0.2232
   37MOL0     H 4838   9.159  10.100   4.780 -2.0753  0.8284 -0.1104
   37MOL0     H 4839   9.094  10.004   4.643  1.5696  1.1565 -0.3863
   37MOL0     H 4840   9.173   9.888   4.918  1.0247  0.4287 -0.0572
   37MOL0     H 4841   9.282   9.887   4.784  0.5675  0.3992  1.8966
   37MOL0     H 4842   9.007   9.751   4.792  0.0547 -2.9612  1.4733
   37MOL0     H 4843   9.111   9.763   4.645 -1.2091 -3.4073  0.1790
   37MOL0     H 4844   9.124   9.555   4.760 -0.3167  0.9692 -0.0585
   37MOL0     H 4845   9.182   9.618   4.905  0.8998 -4.1722  0.4419
   37MOL0     H 4846   9.328   9.399   4.662 -0.9738 -3.8859  1.3471
   37MOL0     H 4847   9.472   9.202   4.766 -0.0430 -0.8549  1.2842
   37MOL0     H 4848   9.768   8.980   4.742  3.1396  0.8818 -0.5465
   37MOL0     H 4849   9.933   8.808   4.780  0.5630  1.9254 -0.7930
   37MOL0     H 4850  10.118   8.715   4.863  0.5851  2.4195  1.3838
   37MOL0     H 4851   9.992   8.589   4.878  1.3203  0.1640 -0.5333
   37MOL0     H 4852  10.135   8.477   5.045 -0.3731  2.1514  2.5424
   37MOL0     H 4853  10.255   8.607   5.039 -0.6269  0.8849  0.8726
   37MOL0     H 4854  10.330   8.575   4.837 -0.0371  0.3994 -0.3711
   37MOL0     H 4855  10.197   8.460   4.793 -1.8255  1.3191  1.4475
   37MOL0     H 4856  10.447   8.425   4.969 -0.0644  1.0100 -0.1066
   37MOL0     H 4857  10.301   8.323   4.994 -3.0320 -0.8073 -3.8726
   37MOL0     H 4858  10.445   8.352   4.724  1.2567 -0.4295 -1.1802
   37MOL0     H 4859  10.314   8.245   4.768 -0.1237  2.3086 -2.2998
   37MOL0     H 4860  10.458   8.120   4.918 -0.8272 -2.5452 -2.7342
   37MOL0     H 4861  10.572   8.259   4.914  0.7213  0.8088 -0.1089
   37MOL0     H 4862  10.511   8.046   4.697  2.5997 -3.6583  0.2862
   37MOL0     H 4863  10.620   8.188   4.686  0.6843 -0.6167  0.8863
   37MOL0     H 4864  10.747   8.079   4.878  1.7223  0.5330 -2.4515
   37MOL0     H 4865  10.748   7.985   4.725  2.8830  1.1598  1.8528
   37MOL0     H 4866   9.876   8.875   5.209  0.9015 -0.3662  0.5296
   37MOL0     H 4867   9.712   9.033   5.160  1.2110 -0.4005  0.8802
   37MOL0     H 4868   9.615   9.500   5.051 -1.9550  0.3302  1.3870
   37MOL0     H 4869   9.472   9.673   4.960 -1.3451 -0.8370  1.5570
   37MOL0     H 4870   9.341   9.694   5.938 -0.0939 -0.7334  1.4478
   37MOL0     H 4871   9.466   9.492   5.990  1.1104  0.4188  0.1898
   37MOL0     H 4872   9.628   9.055   5.921 -0.5362  0.4521  0.0721
   37MOL0     H 4873   9.748   8.882   6.027 -0.1592  0.4029  2.0524
   37MOL0     H 4874  10.082   8.990   6.061 -0.3361 -0.5332  0.3885
   37MOL0     H 4875  10.131   8.825   6.109 -0.4684 -0.5786 -0.8997
   37MOL0     H 4876  10.153   9.040   6.316  1.7747 -1.2209  1.9825
   37MOL0     H 4877  10.254   8.907   6.295  0.4780 -0.7196 -1.2691
   37MOL0     H 4878  10.364   9.132   6.221 -0.1651  0.4413 -0.0596
   37MOL0     H 4879  10.239   9.156   6.108 -1.3169  0.0170  1.1269
   37MOL0     H 4880  10.306   8.987   5.949 -0.0574 -1.6696 -0.4304
   37MOL0     H 4881  10.456   9.062   6.001 -0.4941  1.4320  1.6944
   37MOL0     H 4882  10.505   8.678   6.161 -0.6499  0.3980  2.4133
   37MOL0     H 4883  10.009   9.179   6.221  2.5723 -1.0506 -2.3246
   37MOL0     H 4884   9.875   9.361   6.104  0.7564 -0.9052 -0.4240
   38MOL0     O 4885   5.439   4.897   5.873  0.0711 -0.7167 -0.2533
   38MOL0     C 4886   5.464   4.882   5.752 -0.7841  0.1694 -0.9110
   38MOL0     O 4887   5.492   4.980   5.662  0.9045  0.0923  0.5172
   38MOL0     C 4888   5.458   5.114   5.693 -0.5035 -0.3511  0.2554
   38MOL0     C 4889   5.507   5.205   5.597 -0.0971  0.4805 -0.9625
   38MOL0     C 4890   5.466   5.345   5.603 -0.3371  1.2166  0.4373
   38MOL0     C 4891   5.393   5.386   5.717  0.5906 -1.0966 -0.3440
   38MOL0     O 4892   5.356   5.519   5.689 -0.6189  0.4735 -0.8275
   38MOL0     C 4893   5.248   5.561   5.773  0.9804  0.0450 -0.2396
   38MOL0     C 4894   5.114   5.496   5.751 -0.0652  0.4090 -0.3037
   38MOL0     C 4895   5.005   5.571   5.835  0.5438 -0.3538  0.8266
   38MOL0     C 4896   4.975   5.495   5.960 -0.4262  0.9820 -0.0016
   38MOL0     C 4897   4.878   5.576   6.058 -0.5213 -0.2133  0.8701
   38MOL0     C 4898   4.812   5.481   6.161 -0.5204 -0.1965 -0.1050
   38MOL0     C 4899   4.718   5.552   6.262  0.1483  0.3946  0.2708
   38MOL0     C 4900   4.571   5.558   6.209  0.1794 -0.7837  0.4916
   38MOL0     N 4901   4.540   5.674   6.124  0.9041  0.2097  0.0722
   38MOL0     C 4902   4.594   5.797   6.134  0.4264  0.0865  1.2084
   38MOL0     C 4903   4.539   5.861   6.033 -0.3360 -0.3889 -0.3254
   38MOL0     C 4904   4.556   6.001   5.983 -0.7134 -0.5175 -0.2446
   38MOL0     C 4905   4.696   6.013   5.922  0.1843 -0.6388 -0.6259
   38MOL0     C 4906   4.737   6.162   5.918 -0.7317  0.0833  0.6249
   38MOL0     C 4907   4.885   6.173   5.891 -0.2363  0.6070 -0.1226
   38MOL0     O 4908   4.918   6.130   5.758 -0.1694 -0.0942 -0.2158
   38MOL0     C 4909   5.039   6.150   5.698 -0.0576  0.0412  0.2450
   38MOL0     C 4910   5.144   6.225   5.749  0.7448  0.3860 -0.0464
   38MOL0     C 4911   5.254   6.250   5.673 -0.6420  0.6802  0.1995
   38MOL0     C 4912   5.273   6.192   5.542  0.0614 -0.6871 -0.8595
   38MOL0     C 4913   5.411   6.193   5.481 -1.0141 -0.6398  0.1870
   38MOL0     O 4914   5.518   6.251   5.563  0.0021  0.7229  0.2703
   38MOL0     C 4915   5.650   6.244   5.526 -0.2522  0.0018  0.8673
   38MOL0     C 4916   5.696   6.274   5.401 -0.5350  0.4860  0.9033
   38MOL0     C 4917   5.834   6.266   5.367  0.2394 -0.6601 -0.0686
   38MOL0     C 4918   5.927   6.229   5.462  0.5750  0.5221 -0.3621
   38MOL0     O 4919   6.063   6.217   5.428  0.2428  0.3327  0.8883
   38MOL0     C 4920   6.152   6.128   5.477  0.4216  0.9808  0.3750
   38MOL0     C 4921   6.261   6.112   5.371  0.2814  0.4875  0.2279
   38MOL0     C 4922   6.373   6.030   5.418  0.2933  0.9275  0.7269
   38MOL0     C 4923   6.479   6.037   5.308  0.2686 -0.1928  0.0882
   38MOL0     C 4924   6.595   5.948   5.344  0.0906 -0.3014  0.1521
   38MOL0     C 4925   6.707   5.976   5.240 -0.6167  0.0130 -1.1765
   38MOL0     C 4926   6.825   5.879   5.261 -0.3363 -0.3329  0.0538
   38MOL0     C 4927   6.955   5.937   5.206 -0.4631 -0.5639 -0.3715
   38MOL0    Cl 4928   7.000   6.055   5.332 -0.1123  0.6926 -0.3315
   38MOL0     C 4929   5.889   6.203   5.587  0.0986 -0.1559  0.0371
   38MOL0     C 4930   5.751   6.216   5.623  0.1301 -0.3462 -0.1264
   38MOL0     O 4931   5.431   6.126   5.378  0.3821  0.0397  0.0204
   38MOL0     C 4932   5.166   6.119   5.488 -0.0015  0.3642  0.5260
   38MOL0     C 4933   5.043   6.098   5.563 -0.3726  0.0853  0.3197
   38MOL0     N 4934   4.450   5.778   5.971 -0.2963  0.2920  0.1228
   38MOL0     N 4935   4.450   5.659   6.024  0.2535 -0.2039  0.0535
   38MOL0     C 4936   5.348   5.299   5.819  0.2318  0.0482  0.2714
   38MOL0     C 4937   5.384   5.164   5.798 -0.1473 -0.8231  0.6379
   38MOL0     C 4938   5.506   4.738   5.704 -0.0535  0.4202  0.3202
   38MOL0     C 4939   5.642   4.710   5.677  0.4856 -1.3650 -1.1220
   38MOL0     C 4940   5.687   4.578   5.649 -0.8525  0.1909 -0.1650
   38MOL0     C 4941   5.594   4.474   5.637 -0.4845  1.0937  0.1157
   38MOL0     O 4942   5.628   4.345   5.616  0.5532  0.4069 -0.3100
   38MOL0     C 4943   5.766   4.311   5.654 -0.0241 -0.0483  0.0398
   38MOL0     C 4944   5.764   4.159   5.682 -0.2709  0.2705  0.3378
   38MOL0     C 4945   5.709   4.129   5.824  0.6196  0.8627  0.2637
   38MOL0     C 4946   5.728   3.984   5.851  0.0980  1.2691 -0.1220
   38MOL0     C 4947   5.661   3.939   5.976  0.2377  0.5260 -0.8146
   38MOL0     C 4948   5.597   3.908   6.080 -0.0435  0.5666 -0.3631
   38MOL0     C 4949   5.459   4.499   5.650 -0.5085  0.5350 -0.6207
   38MOL0     C 4950   5.418   4.627   5.687  0.8813 -1.8085  0.1576
   38MOL0     H 4951   5.566   5.170   5.513  4.1415  1.6474  1.2591
   38MOL0     H 4952   5.503   5.409   5.524 -1.9675  1.1861 -0.3963
   38MOL0     H 4953   5.231   5.668   5.758 -1.0540 -0.2570 -0.2722
   38MOL0     H 4954   5.270   5.558   5.881 -1.5745 -0.7162  0.3242
   38MOL0     H 4955   5.101   5.388   5.767 -0.2376  0.4832  0.0644
   38MOL0     H 4956   5.091   5.508   5.644  0.4951  0.4031 -0.4268
   38MOL0     H 4957   4.914   5.587   5.776  0.8767 -1.8103 -0.1414
   38MOL0     H 4958   5.038   5.672   5.862  1.2918 -0.1042 -0.8987
   38MOL0     H 4959   4.929   5.400   5.930  0.2567  1.3586 -2.5219
   38MOL0     H 4960   5.071   5.469   6.006 -1.1891 -0.4715  0.8651
   38MOL0     H 4961   4.799   5.620   5.997  1.6002 -0.3902 -2.2208
   38MOL0     H 4962   4.933   5.663   6.096  0.1588  1.0386 -2.6360
   38MOL0     H 4963   4.895   5.450   6.225 -2.5882  0.0725  2.8616
   38MOL0     H 4964   4.767   5.393   6.115 -1.1384  0.9049 -1.7260
   38MOL0     H 4965   4.705   5.479   6.343 -0.1212  0.9486  0.7294
   38MOL0     H 4966   4.755   5.644   6.307 -1.6575  1.3995 -0.2113
   38MOL0     H 4967   4.516   5.557   6.304  0.8238 -1.1116  0.8715
   38MOL0     H 4968   4.537   5.467   6.158  1.3131 -2.1581  2.0957
   38MOL0     H 4969   4.673   5.835   6.199 -0.0357  0.8450  1.3349
   38MOL0     H 4970   4.548   6.064   6.072  1.8023  0.8143 -0.8543
   38MOL0     H 4971   4.477   6.017   5.909  0.6203 -0.0449 -1.6208
   38MOL0     H 4972   4.701   5.977   5.819  1.1428 -3.8081  0.4106
   38MOL0     H 4973   4.777   5.968   5.981  0.1165  1.2299  1.0148
   38MOL0     H 4974   4.685   6.209   5.834 -1.6460 -0.1840  1.0288
   38MOL0     H 4975   4.719   6.227   6.003  2.2787  1.1686  0.5300
   38MOL0     H 4976   4.948   6.112   5.956 -0.7235  0.2131 -0.0168
   38MOL0     H 4977   4.901   6.278   5.916  2.5444 -0.2886  2.5649
   38MOL0     H 4978   5.147   6.274   5.846  1.9414  1.2909 -0.5132
   38MOL0     H 4979   5.328   6.314   5.720 -3.6916  1.7098  4.1428
   38MOL0     H 4980   5.622   6.306   5.328 -0.0739 -1.7077 -0.6529
   38MOL0     H 4981   5.862   6.271   5.262 -3.4225  1.0332 -1.1352
   38MOL0     H 4982   6.105   6.034   5.505  1.5261  0.8753  2.0213
   38MOL0     H 4983   6.201   6.164   5.568  2.6147  2.2864 -1.2099
   38MOL0     H 4984   6.293   6.209   5.331 -1.6627  0.4546 -1.6439
   38MOL0     H 4985   6.219   6.047   5.293  2.0840 -2.4325  1.5284
   38MOL0     H 4986   6.346   5.925   5.434  2.4764  0.3513  1.0845
   38MOL0     H 4987   6.397   6.069   5.518  0.8925 -0.0623  0.9884
   38MOL0     H 4988   6.434   6.019   5.209  1.2183  1.2690 -0.6547
   38MOL0     H 4989   6.501   6.144   5.300 -1.3063  0.0787 -1.4420
   38MOL0     H 4990   6.587   5.839   5.341  0.4805 -0.3367  0.2895
   38MOL0     H 4991   6.624   5.979   5.445  0.7161  0.1674 -0.1581
   38MOL0     H 4992   6.752   6.076   5.238  1.6305 -0.9564 -1.8215
   38MOL0     H 4993   6.670   5.954   5.139 -1.1755  1.0932 -1.2255
   38MOL0     H 4994   6.844   5.858   5.366  0.4734  0.1125  0.0026
   38MOL0     H 4995   6.818   5.778   5.218  2.9992  1.0435 -4.4166
   38MOL0     H 4996   6.943   5.983   5.107  2.6327 -0.1082 -0.6484
   38MOL0     H 4997   7.034   5.862   5.216 -1.2023 -1.2813  0.1619
   38MOL0     H 4998   5.953   6.167   5.667  0.3951  0.7288  0.2092
   38MOL0     H 4999   5.724   6.198   5.727 -0.6130 -2.4047 -0.6239
   38MOL0     H 5000   5.167   6.067   5.393  1.6241  2.1696 -0.5239
   38MOL0     H 5001   4.961   6.037   5.526  0.3524 -0.6463 -0.1093
   38MOL0     H 5002   5.284   5.325   5.902  1.5674 -0.2791  1.4503
   38MOL0     H 5003   5.335   5.097   5.868 -0.7800 -0.5901  0.4228
   38MOL0     H 5004   5.701   4.801   5.678 -2.8246  0.9410 -0.2844
   38MOL0     H 5005   5.790   4.551   5.627 -1.7267 -2.8209 -1.0837
   38MOL0     H 5006   5.780   4.360   5.751  0.9776 -1.6453  0.7331
   38MOL0     H 5007   5.837   4.353   5.582 -0.9621  0.7125 -0.4692
   38MOL0     H 5008   5.717   4.102   5.601  2.2314 -0.7223 -0.5400
   38MOL0     H 5009   5.871   4.134   5.681  0.0345  1.5085 -0.4379
   38MOL0     H 5010   5.603   4.152   5.834  0.7662  1.2872  0.9122
   38MOL0     H 5011   5.768   4.185   5.898  1.8101 -3.4663  2.9729
   38MOL0     H 5012   5.694   3.924   5.766  0.4671 -0.0204  0.6118
   38MOL0     H 5013   5.834   3.962   5.866 -0.2002 -1.1284 -1.1979
   38MOL0     H 5014   5.547   3.862   6.163  2.8648 -0.1274  1.1329
   38MOL0     H 5015   5.386   4.419   5.641  1.7152 -1.4179 -2.6068
   38MOL0     H 5016   5.311   4.647   5.690  1.0021 -1.0645 -0.4317
   39MOL0     O 5017   1.570   5.747   0.431 -0.1786 -0.3371 -1.0754
   39MOL0     C 5018   1.600   5.864   0.450  0.3905 -0.3465  0.9122
   39MOL0     O 5019   1.553   5.970   0.373 -0.6312 -0.4052 -0.6527
   39MOL0     C 5020   1.470   5.958   0.260 -0.3994  1.3069 -0.8591
   39MOL0     C 5021   1.419   5.847   0.196  0.7999 -0.1807 -0.4512
   39MOL0     C 5022   1.345   5.864   0.073  0.2166  0.0824  0.0903
   39MOL0     C 5023   1.301   5.992   0.024 -1.1234  0.4104 -1.1632
   39MOL0     O 5024   1.214   5.993  -0.080  0.1553 -0.0798 -0.4945
   39MOL0     C 5025   1.154   6.116  -0.124 -0.1895  0.5302  0.8338
   39MOL0     C 5026   1.074   6.066  -0.244  0.7631 -0.7049 -0.0072
   39MOL0     C 5027   0.941   6.003  -0.196  0.1599  0.5612  0.3218
   39MOL0     C 5028   0.878   5.918  -0.311  0.7563 -0.7224  0.3006
   39MOL0     C 5029   0.725   5.931  -0.324  0.3382 -0.0771 -0.5965
   39MOL0     C 5030   0.669   5.877  -0.452  0.0125  0.3167 -0.1242
   39MOL0     C 5031   0.513   5.883  -0.453 -0.1092  0.4889  0.6946
   39MOL0     C 5032   0.470   5.786  -0.564  0.0113 -0.4211  0.4472
   39MOL0     N 5033   0.479   5.853  -0.698 -0.0700 -0.2494  0.6052
   39MOL0     C 5034   0.369   5.873  -0.772 -0.6414  0.6175 -0.1515
   39MOL0     C 5035   0.425   5.941  -0.881  0.2809  1.0779 -0.4162
   39MOL0     C 5036   0.343   5.982  -0.998 -0.1779  0.3427  0.4509
   39MOL0     C 5037   0.214   6.054  -0.963 -1.0074 -0.3328  0.3524
   39MOL0     C 5038   0.138   6.097  -1.091  0.1548 -0.1397  0.2611
   39MOL0     C 5039   0.020   6.191  -1.062 -0.4019  0.3956  0.2385
   39MOL0     O 5040  -0.077   6.142  -0.966  0.2052  0.3907 -0.0460
   39MOL0     C 5041  -0.175   6.226  -0.940 -0.0048  0.5253 -0.7166
   39MOL0     C 5042  -0.218   6.335  -1.016 -0.0883 -0.4053  0.1493
   39MOL0     C 5043  -0.338   6.397  -0.983  0.8171 -1.5691 -0.4489
   39MOL0     C 5044  -0.415   6.351  -0.872  0.2849 -0.4199 -0.0530
   39MOL0     C 5045  -0.545   6.409  -0.836 -0.7388 -0.1039 -0.4695
   39MOL0     O 5046  -0.601   6.392  -0.712 -0.0386 -0.9792  0.4733
   39MOL0     C 5047  -0.729   6.357  -0.706  0.8061  0.9844  0.9639
   39MOL0     C 5048  -0.832   6.451  -0.694  0.6544  0.7950  0.0101
   39MOL0     C 5049  -0.968   6.402  -0.670  0.0316 -0.6558  0.0543
   39MOL0     C 5050  -0.996   6.269  -0.697  0.0436  0.2912 -0.2933
   39MOL0     O 5051  -1.120   6.213  -0.688 -0.3529  0.0193 -0.0868
   39MOL0     C 5052  -1.230   6.287  -0.735  0.5768 -0.1973  0.4194
   39MOL0     C 5053  -1.350   6.197  -0.755 -0.5296 -0.4055  0.1318
   39MOL0     C 5054  -1.332   6.093  -0.871 -0.6009 -0.5128 -0.2275
   39MOL0     C 5055  -1.466   6.013  -0.879 -0.0927  0.4108 -0.1501
   39MOL0     C 5056  -1.470   5.875  -0.941 -0.0746  0.0607 -0.6724
   39MOL0     C 5057  -1.420   5.879  -1.078 -1.2383  0.2838  0.8667
   39MOL0     C 5058  -1.521   5.955  -1.174  0.1185  0.1299 -0.1464
   39MOL0     C 5059  -1.463   5.971  -1.318  0.6021  0.4609 -0.4364
   39MOL0    Cl 5060  -1.529   6.103  -1.411 -0.4888  0.4905 -0.1337
   39MOL0     C 5061  -0.892   6.176  -0.716 -0.1262 -0.1512 -0.1472
   39MOL0     C 5062  -0.757   6.224  -0.711  0.3568  0.1774 -0.0944
   39MOL0     O 5063  -0.587   6.478  -0.927  0.2414  0.4252  0.0332
   39MOL0     C 5064  -0.371   6.234  -0.800 -0.4969  0.0872  0.1062
   39MOL0     C 5065  -0.249   6.182  -0.833 -0.2279  0.3364 -0.0939
   39MOL0     N 5066   0.560   5.962  -0.872 -0.0512  1.0177  0.2221
   39MOL0     N 5067   0.587   5.904  -0.760  0.1412  0.2334 -0.3946
   39MOL0     C 5068   1.352   6.104   0.088 -0.7051 -0.4033 -0.6165
   39MOL0     C 5069   1.436   6.086   0.200  0.5704  0.3231  0.0831
   39MOL0     C 5070   1.706   5.884   0.557  0.8474  0.1968 -0.4443
   39MOL0     C 5071   1.770   6.010   0.576  0.8431 -0.0761  0.0896
   39MOL0     C 5072   1.865   6.024   0.673 -0.1687 -0.7318  0.0435
   39MOL0     C 5073   1.908   5.919   0.751  0.2470  0.0526  0.7295
   39MOL0     O 5074   2.020   5.946   0.828  0.4194  0.0632  0.1572
   39MOL0     C 5075   2.092   5.836   0.887 -0.1433  0.2823 -0.3847
   39MOL0     C 5076   2.161   5.889   1.012 -0.1433 -0.4920 -0.0212
   39MOL0     C 5077   2.059   5.942   1.116  0.5111 -0.6151 -0.8274
   39MOL0     C 5078   2.118   6.054   1.201 -0.5361  0.4204 -0.5139
   39MOL0     C 5079   2.013   6.103   1.295  0.0469 -0.8645  0.9374
   39MOL0     C 5080   1.922   6.156   1.354  0.4568  0.1695 -0.4032
   39MOL0     C 5081   1.841   5.799   0.732 -0.3920  0.2704 -1.6030
   39MOL0     C 5082   1.736   5.779   0.640 -0.4952 -0.8739 -0.0949
   39MOL0     H 5083   1.433   5.749   0.240 -2.7213 -0.1493  1.0951
   39MOL0     H 5084   1.317   5.780   0.010 -1.4896 -0.1310  1.0610
   39MOL0     H 5085   1.222   6.187  -0.171  0.4474  0.3106  1.4110
   39MOL0     H 5086   1.086   6.160  -0.051 -3.6227 -0.2367 -1.6271
   39MOL0     H 5087   1.136   5.999  -0.304  2.8597 -0.0394  1.2677
   39MOL0     H 5088   1.057   6.151  -0.311  2.3256  0.3005  0.7949
   39MOL0     H 5089   0.870   6.070  -0.149 -1.9537  0.4897 -2.4901
   39MOL0     H 5090   0.967   5.933  -0.116  4.3610 -1.2381 -2.2401
   39MOL0     H 5091   0.937   5.939  -0.400  2.3833  0.6250  1.6161
   39MOL0     H 5092   0.892   5.811  -0.293  0.6384 -0.5366  1.5718
   39MOL0     H 5093   0.685   6.033  -0.319  3.0743  1.0691 -0.6376
   39MOL0     H 5094   0.682   5.877  -0.239  1.1666 -0.3165 -0.3268
   39MOL0     H 5095   0.689   5.771  -0.467 -3.5124 -0.3582 -1.1230
   39MOL0     H 5096   0.717   5.923  -0.538  0.5999 -2.5503 -1.4102
   39MOL0     H 5097   0.459   5.856  -0.362 -1.4877 -0.0147 -0.2308
   39MOL0     H 5098   0.483   5.987  -0.462  2.4957  1.4136  1.7474
   39MOL0     H 5099   0.365   5.762  -0.545  0.1737 -0.3694  1.4876
   39MOL0     H 5100   0.520   5.689  -0.559 -0.1996 -0.5019  4.2800
   39MOL0     H 5101   0.269   5.833  -0.758 -0.3716  0.6903  2.7742
   39MOL0     H 5102   0.323   5.885  -1.043  2.4565  0.7537 -1.9159
   39MOL0     H 5103   0.403   6.036  -1.072  0.9416 -1.5550 -0.1109
   39MOL0     H 5104   0.246   6.142  -0.908  0.9632 -0.0487 -1.1289
   39MOL0     H 5105   0.143   5.996  -0.903 -0.5017  0.3732  1.6632
   39MOL0     H 5106   0.200   6.155  -1.160 -0.8990 -0.1288 -0.6891
   39MOL0     H 5107   0.096   6.020  -1.157 -0.0981 -0.3253  0.6343
   39MOL0     H 5108  -0.033   6.216  -1.154 -2.1123  1.9563  1.5835
   39MOL0     H 5109   0.067   6.282  -1.024  2.3061  1.1557 -4.1946
   39MOL0     H 5110  -0.156   6.370  -1.098 -0.7154 -0.4499 -0.3468
   39MOL0     H 5111  -0.372   6.494  -1.019 -2.2885 -2.0920  0.7711
   39MOL0     H 5112  -0.804   6.556  -0.689  1.0095  0.6869  0.3777
   39MOL0     H 5113  -1.040   6.460  -0.614  1.1279 -0.6971  1.5592
   39MOL0     H 5114  -1.202   6.340  -0.827 -2.9006 -0.1252 -0.7407
   39MOL0     H 5115  -1.252   6.356  -0.652  0.9238  0.5138 -0.0664
   39MOL0     H 5116  -1.436   6.258  -0.787  1.4043  2.2418 -0.3664
   39MOL0     H 5117  -1.371   6.141  -0.663  0.9434 -1.6425 -0.2489
   39MOL0     H 5118  -1.253   6.022  -0.843  3.1327  1.0968 -5.1884
   39MOL0     H 5119  -1.294   6.140  -0.962 -1.2871  1.7017  0.5506
   39MOL0     H 5120  -1.510   5.997  -0.780 -2.3126  1.0549 -0.9602
   39MOL0     H 5121  -1.534   6.076  -0.936 -0.9912 -1.1479 -0.8890
   39MOL0     H 5122  -1.577   5.855  -0.936 -1.2935  5.1427 -0.1554
   39MOL0     H 5123  -1.412   5.805  -0.881  2.1297  0.7577 -1.8567
   39MOL0     H 5124  -1.403   5.782  -1.124 -1.8604  0.6927 -0.2735
   39MOL0     H 5125  -1.323   5.930  -1.080 -0.2973 -1.4172 -1.6244
   39MOL0     H 5126  -1.614   5.898  -1.174 -0.0158  0.3286 -1.4250
   39MOL0     H 5127  -1.551   6.053  -1.137 -2.0947 -0.7264  0.4710
   39MOL0     H 5128  -1.462   5.877  -1.374 -2.3579 -0.1610  0.3500
   39MOL0     H 5129  -1.356   5.993  -1.309  0.7978 -1.1865  2.3161
   39MOL0     H 5130  -0.929   6.074  -0.720 -1.9456  0.4693 -0.2337
   39MOL0     H 5131  -0.677   6.151  -0.724 -2.1386 -2.8272  0.2169
   39MOL0     H 5132  -0.413   6.186  -0.712  3.3311 -2.6430  0.7108
   39MOL0     H 5133  -0.219   6.088  -0.788  0.3135  0.2219 -0.6838
   39MOL0     H 5134   1.318   6.205   0.068  1.3340  1.0076  2.2703
   39MOL0     H 5135   1.478   6.169   0.255  1.2118  0.8037 -1.0829
   39MOL0     H 5136   1.743   6.094   0.512  0.8439 -0.3110 -0.2175
   39MOL0     H 5137   1.917   6.117   0.693 -1.0395 -0.2442  0.0998
   39MOL0     H 5138   2.167   5.790   0.823 -0.5742 -0.8591 -0.0872
   39MOL0     H 5139   2.023   5.756   0.916  0.2456  0.1644  0.2058
   39MOL0     H 5140   2.226   5.818   1.063  1.2377  0.1307 -0.8789
   39MOL0     H 5141   2.226   5.967   0.973 -0.7671  0.1412  0.1786
   39MOL0     H 5142   2.024   5.860   1.181 -0.2291 -0.5757 -1.1649
   39MOL0     H 5143   1.968   5.976   1.066  1.0980 -0.9243 -2.1344
   39MOL0     H 5144   2.209   6.021   1.252 -1.0084 -0.7602 -0.3936
   39MOL0     H 5145   2.150   6.136   1.136  1.2085  1.3906  1.4324
   39MOL0     H 5146   1.849   6.213   1.407 -0.9109  2.2832 -4.1521
   39MOL0     H 5147   1.878   5.712   0.787 -0.6697  0.5537 -0.9554
   39MOL0     H 5148   1.687   5.682   0.642 -0.7211 -0.7494  1.1461
   40MOL0     O 5149  10.203   5.600   9.825 -1.0611  0.3124 -0.1483
   40MOL0     C 5150  10.234   5.684   9.900 -0.3834  0.4312 -0.3314
   40MOL0     O 5151  10.293   5.666  10.029  1.1040  0.7454  0.0964
   40MOL0     C 5152  10.328   5.537  10.053  0.4661 -0.3813 -0.7412
   40MOL0     C 5153  10.453   5.487  10.007  0.4015 -0.5163 -0.0117
   40MOL0     C 5154  10.483   5.359  10.046 -0.5554  0.4327 -0.5800
   40MOL0     C 5155  10.396   5.284  10.131 -0.3707 -0.8288 -0.1316
   40MOL0     O 5156  10.411   5.151  10.176  0.1796 -0.3853  0.6517
   40MOL0     C 5157  10.541   5.134  10.240  0.0587  0.0366 -0.0037
   40MOL0     C 5158  10.522   4.993  10.307  0.3586  0.4320 -0.9976
   40MOL0     C 5159  10.651   4.939  10.381  0.4793 -0.4864  0.0635
   40MOL0     C 5160  10.609   4.851  10.504 -0.7485  0.0464 -0.1760
   40MOL0     C 5161  10.739   4.821  10.579 -0.0079  0.0924 -0.8132
   40MOL0     C 5162  10.725   4.715  10.689  0.6251 -0.7859  0.2797
   40MOL0     C 5163  10.838   4.726  10.804  0.2784  0.3649  0.6131
   40MOL0     C 5164  10.865   4.597  10.874 -0.4560  0.1055 -0.6433
   40MOL0     N 5165  10.998   4.601  10.926  0.6670  0.4240  0.3230
   40MOL0     C 5166  11.020   4.577  11.053 -0.4762 -0.8166 -0.0925
   40MOL0     C 5167  11.155   4.541  11.064  0.3237 -0.6575  1.2073
   40MOL0     C 5168  11.224   4.511  11.198  0.0469  0.1692  0.4363
   40MOL0     C 5169  11.368   4.448  11.183  0.2772  0.0923  0.0600
   40MOL0     C 5170  11.443   4.386  11.306 -0.2385  0.2930 -0.6563
   40MOL0     C 5171  11.603   4.393  11.292 -0.1264  0.3159  0.2680
   40MOL0     O 5172  11.640   4.346  11.159 -0.2164 -0.7892  0.4793
   40MOL0     C 5173  11.772   4.344  11.107  0.7608 -0.1461 -0.3019
   40MOL0     C 5174  11.864   4.279  11.179  0.3145  0.8695  0.2893
   40MOL0     C 5175  11.994   4.281  11.124  0.1696 -0.3461 -0.2290
   40MOL0     C 5176  12.029   4.363  11.019 -0.1126 -0.0404  1.1545
   40MOL0     C 5177  12.165   4.372  10.967 -0.2837 -0.5807  0.1196
   40MOL0     O 5178  12.247   4.274  10.985 -0.3394  0.0503 -0.7293
   40MOL0     C 5179  12.348   4.264  10.898  0.9991  0.3471 -0.6822
   40MOL0     C 5180  12.328   4.231  10.762 -0.7106  0.5303  1.0082
   40MOL0     C 5181  12.434   4.218  10.669 -0.3579  0.9239 -0.4405
   40MOL0     C 5182  12.563   4.241  10.709 -0.9382 -0.1152 -0.2633
   40MOL0     O 5183  12.663   4.209  10.620 -0.5588 -0.0362  0.1141
   40MOL0     C 5184  12.746   4.091  10.634  0.3176  0.8268  0.0163
   40MOL0     C 5185  12.861   4.095  10.533  0.5994 -0.2999  0.7746
   40MOL0     C 5186  12.968   4.000  10.537 -0.7225 -0.1554 -0.0512
   40MOL0     C 5187  12.924   3.865  10.499 -0.0208  1.1320 -0.7510
   40MOL0     C 5188  13.040   3.765  10.526  0.3679 -0.3131  1.0862
   40MOL0     C 5189  12.996   3.626  10.479  0.7080  0.6286 -0.3267
   40MOL0     C 5190  13.104   3.515  10.505 -0.0738 -0.1893  0.0336
   40MOL0     C 5191  13.239   3.556  10.561 -0.6467 -0.3246  0.3506
   40MOL0    Cl 5192  13.335   3.398  10.595  0.0818  0.2478  0.4695
   40MOL0     C 5193  12.589   4.287  10.841  0.4672 -0.4440  1.5205
   40MOL0     C 5194  12.477   4.305  10.936  0.1146 -0.2171 -0.7418
   40MOL0     O 5195  12.187   4.469  10.897 -0.7442  0.0682 -0.0990
   40MOL0     C 5196  11.923   4.438  10.954  0.5437  0.6575  0.4205
   40MOL0     C 5197  11.793   4.417  10.994  0.0286  0.0604  0.1688
   40MOL0     N 5198  11.212   4.551  10.936 -0.5887 -0.2394  0.6831
   40MOL0     N 5199  11.113   4.592  10.857 -0.3306 -0.0932 -1.2297
   40MOL0     C 5200  10.285   5.346  10.182 -0.2088  0.3065 -0.6846
   40MOL0     C 5201  10.249   5.468  10.141  0.4341  0.0285 -0.1721
   40MOL0     C 5202  10.228   5.827   9.851 -0.2446 -0.3207  0.1581
   40MOL0     C 5203  10.282   5.938   9.927 -0.3609 -0.2436  0.3142
   40MOL0     C 5204  10.268   6.068   9.880  0.4172 -0.4331  0.3950
   40MOL0     C 5205  10.199   6.103   9.762 -0.5650 -0.8065 -0.7787
   40MOL0     O 5206  10.197   6.234   9.719  0.3467 -0.2390  0.0561
   40MOL0     C 5207  10.312   6.319   9.750 -0.6935 -0.1745 -0.5045
   40MOL0     C 5208  10.285   6.424   9.865  0.9096  0.3741  0.2554
   40MOL0     C 5209  10.152   6.487   9.858 -0.3675 -0.0621  0.1848
   40MOL0     C 5210  10.135   6.562   9.990  0.4252  0.6153  1.0755
   40MOL0     C 5211  10.053   6.475  10.074  0.1276 -0.7109  0.8241
   40MOL0     C 5212   9.979   6.399  10.135  1.2223 -0.1522 -0.6496
   40MOL0     C 5213  10.146   5.998   9.685 -0.9776 -0.1458 -0.2501
   40MOL0     C 5214  10.161   5.859   9.728  0.0664  0.0394 -0.9982
   40MOL0     H 5215  10.522   5.536   9.939  0.1323  0.9976  0.7677
   40MOL0     H 5216  10.573   5.310  10.009 -2.9029 -3.9897 -1.1131
   40MOL0     H 5217  10.562   5.210  10.315  1.4451 -0.8219  0.5212
   40MOL0     H 5218  10.632   5.134  10.179  1.5454  1.9429  2.0389
   40MOL0     H 5219  10.480   4.929  10.229  0.5826 -0.2598 -0.5555
   40MOL0     H 5220  10.444   5.004  10.383 -1.5208 -3.6589 -2.0325
   40MOL0     H 5221  10.715   5.023  10.407  4.0470 -1.7947 -3.5083
   40MOL0     H 5222  10.715   4.882  10.314  0.0948  0.8247 -1.4794
   40MOL0     H 5223  10.542   4.908  10.568  0.3563  2.8489 -1.3294
   40MOL0     H 5224  10.566   4.761  10.461  0.2111 -0.8696  0.7210
   40MOL0     H 5225  10.770   4.915  10.626  0.4678 -1.3565  2.0090
   40MOL0     H 5226  10.819   4.802  10.507 -0.0726  2.8895 -1.7370
   40MOL0     H 5227  10.735   4.617  10.644  0.3551 -0.6928  0.0114
   40MOL0     H 5228  10.625   4.719  10.735 -0.2427  0.1208 -1.5520
   40MOL0     H 5229  10.926   4.770  10.757 -0.1831  1.5086  0.7857
   40MOL0     H 5230  10.812   4.800  10.880  1.5307 -0.7209  2.1680
   40MOL0     H 5231  10.873   4.515  10.802 -2.7467 -0.0660 -0.7649
   40MOL0     H 5232  10.789   4.560  10.944 -0.8308 -3.2076 -2.5887
   40MOL0     H 5233  10.947   4.599  11.130  0.2519 -1.6026  0.8555
   40MOL0     H 5234  11.157   4.434  11.238 -0.9348  0.0102 -1.3876
   40MOL0     H 5235  11.213   4.599  11.262  4.5435  0.4160  1.2058
   40MOL0     H 5236  11.421   4.538  11.153  1.5076  0.8907  4.0472
   40MOL0     H 5237  11.379   4.379  11.098 -0.0139 -2.2740  1.8295
   40MOL0     H 5238  11.418   4.448  11.392  0.6300  2.4413 -1.8839
   40MOL0     H 5239  11.413   4.281  11.321  1.7675 -0.2220  0.0900
   40MOL0     H 5240  11.655   4.323  11.358 -0.9046  0.2479  0.8231
   40MOL0     H 5241  11.649   4.490  11.315  2.1437 -0.0107 -2.4255
   40MOL0     H 5242  11.856   4.237  11.279  1.4124 -0.8529 -0.2957
   40MOL0     H 5243  12.071   4.227  11.179  3.0259  1.6262 -1.9874
   40MOL0     H 5244  12.228   4.204  10.730  0.1351  0.4320 -1.7923
   40MOL0     H 5245  12.425   4.174  10.570 -0.2082  0.4874 -0.2592
   40MOL0     H 5246  12.685   4.001  10.624 -0.4124  0.8552  3.2971
   40MOL0     H 5247  12.790   4.081  10.733 -0.8355 -1.9835  0.3493
   40MOL0     H 5248  12.904   4.196  10.538  0.5809 -0.2113 -0.4988
   40MOL0     H 5249  12.817   4.083  10.434 -2.2247 -3.1604  2.2060
   40MOL0     H 5250  13.005   3.995  10.640 -0.8204  1.2517  0.0651
   40MOL0     H 5251  13.049   4.032  10.471  1.5939 -1.9929  1.7247
   40MOL0     H 5252  12.843   3.841  10.569  2.2112 -0.4638  1.4756
   40MOL0     H 5253  12.894   3.854  10.395 -1.6475  0.0093 -0.2052
   40MOL0     H 5254  13.067   3.765  10.632  0.4580  1.3289  1.0943
   40MOL0     H 5255  13.129   3.802  10.474 -1.6962  3.5329 -0.1260
   40MOL0     H 5256  12.974   3.616  10.372  3.7692 -0.9782 -0.9095
   40MOL0     H 5257  12.900   3.609  10.529  0.1368  0.7620 -1.3559
   40MOL0     H 5258  13.046   3.452  10.573 -1.0702  0.6090 -0.0459
   40MOL0     H 5259  13.118   3.458  10.412  0.8131 -3.5634  2.0578
   40MOL0     H 5260  13.235   3.618  10.651 -1.3139  2.5807 -1.5643
   40MOL0     H 5261  13.298   3.608  10.485  2.2695 -1.5812  1.5787
   40MOL0     H 5262  12.689   4.302  10.880  1.9576 -3.2096 -0.9193
   40MOL0     H 5263  12.508   4.348  11.030  1.4320 -0.6076 -0.9791
   40MOL0     H 5264  11.941   4.491  10.861 -1.4635 -1.2538 -1.2009
   40MOL0     H 5265  11.714   4.467  10.939  0.9713  1.7943  0.3041
   40MOL0     H 5266  10.226   5.289  10.253 -1.3396  1.1650 -0.9070
   40MOL0     H 5267  10.177   5.521  10.202  0.2627 -0.9329  0.4820
   40MOL0     H 5268  10.335   5.940  10.021  3.7101  2.3912 -1.7744
   40MOL0     H 5269  10.309   6.144   9.947  2.0061 -0.1309 -0.8428
   40MOL0     H 5270  10.349   6.361   9.656  2.2124 -0.0569  0.5911
   40MOL0     H 5271  10.399   6.266   9.791 -0.6455 -0.8929 -1.5014
   40MOL0     H 5272  10.308   6.379   9.962  0.5466  0.2634  0.2932
   40MOL0     H 5273  10.358   6.505   9.855  2.3821 -0.9007  0.2614
   40MOL0     H 5274  10.078   6.408   9.842 -1.2611  0.6624  0.6279
   40MOL0     H 5275  10.137   6.558   9.776  1.6290 -0.8649 -0.9359
   40MOL0     H 5276  10.221   6.584  10.054 -0.1185 -1.7251  2.7435
   40MOL0     H 5277  10.080   6.654   9.966  0.9274  0.1420 -2.4763
   40MOL0     H 5278   9.897   6.338  10.167 -1.2212  2.6960 -1.0126
   40MOL0     H 5279  10.113   6.036   9.588 -0.6587  1.3283  0.1875
   40MOL0     H 5280  10.124   5.790   9.652 -0.9063  0.3717 -0.8484
   41MOL0     O 5281   2.464   3.818   9.505 -0.0049 -0.3213  0.6525
   41MOL0     C 5282   2.463   3.707   9.551  0.7278 -0.2609 -0.8035
   41MOL0     O 5283   2.362   3.622   9.530  0.6621  0.4661 -0.2165
   41MOL0     C 5284   2.255   3.665   9.467  0.1430  0.2068  0.3343
   41MOL0     C 5285   2.192   3.789   9.471 -0.2063 -0.0848 -0.2892
   41MOL0     C 5286   2.076   3.822   9.395 -0.0897  0.4120  0.4236
   41MOL0     C 5287   2.027   3.723   9.305 -0.0089 -0.4589 -0.0806
   41MOL0     O 5288   1.913   3.744   9.231  0.4053  0.2458  0.0310
   41MOL0     C 5289   1.824   3.853   9.255 -0.6281  0.3206 -0.5517
   41MOL0     C 5290   1.692   3.837   9.173 -0.3512 -0.7872  1.0397
   41MOL0     C 5291   1.595   3.968   9.178  0.3770  0.7533  0.4596
   41MOL0     C 5292   1.532   3.994   9.310  0.2998  0.0404 -0.1536
   41MOL0     C 5293   1.424   3.891   9.350  0.1737 -0.4335  0.0146
   41MOL0     C 5294   1.283   3.928   9.296  0.3261  0.0255  0.3923
   41MOL0     C 5295   1.170   3.838   9.342  0.0288 -1.0615 -0.0964
   41MOL0     C 5296   1.047   3.900   9.280  0.0470 -0.2758 -0.1037
   41MOL0     N 5297   0.932   3.820   9.330  0.5089  1.0044  0.1566
   41MOL0     C 5298   0.924   3.685   9.311 -0.0328 -0.4579  1.2263
   41MOL0     C 5299   0.805   3.647   9.372 -0.5148 -0.6544  0.0011
   41MOL0     C 5300   0.768   3.501   9.382 -0.1096 -0.5690  0.2854
   41MOL0     C 5301   0.632   3.485   9.323 -0.0150  1.2178  0.2186
   41MOL0     C 5302   0.648   3.470   9.169  0.1985  1.6006  0.5462
   41MOL0     C 5303   0.511   3.461   9.108 -0.7919 -0.2744 -0.2949
   41MOL0     O 5304   0.437   3.357   9.149  0.7968  0.3834 -1.1238
   41MOL0     C 5305   0.333   3.319   9.067  0.2194  0.0287 -0.2506
   41MOL0     C 5306   0.242   3.408   9.006 -0.0879  0.5613 -0.3728
   41MOL0     C 5307   0.152   3.357   8.908  0.8528  0.7478  0.5140
   41MOL0     C 5308   0.141   3.214   8.882 -0.3860 -0.1785 -0.1949
   41MOL0     C 5309   0.044   3.170   8.787  1.4974  0.9375  0.0065
   41MOL0     O 5310  -0.039   3.260   8.746  0.1849  0.4357  0.7865
   41MOL0     C 5311  -0.164   3.224   8.687  0.2074  0.9989 -0.7598
   41MOL0     C 5312  -0.224   3.315   8.603  0.5926 -0.0868 -0.1645
   41MOL0     C 5313  -0.341   3.276   8.541  0.2405  0.6113  0.5766
   41MOL0     C 5314  -0.406   3.153   8.564  0.5690  0.0442  0.6350
   41MOL0     O 5315  -0.521   3.126   8.488 -0.5237  0.1772  0.3687
   41MOL0     C 5316  -0.564   2.985   8.460 -0.5716 -0.5676 -0.0635
   41MOL0     C 5317  -0.660   2.972   8.345 -0.6586  0.7435 -0.6592
   41MOL0     C 5318  -0.724   2.831   8.347  0.0966 -0.7056 -0.3456
   41MOL0     C 5319  -0.835   2.811   8.450 -0.2449 -0.2731 -0.0752
   41MOL0     C 5320  -0.886   2.664   8.450  0.8775  0.6629 -0.0916
   41MOL0     C 5321  -0.787   2.563   8.520 -0.5763 -0.9012  0.5407
   41MOL0     C 5322  -0.854   2.428   8.517 -0.1269 -0.1318  0.4812
   41MOL0     C 5323  -0.770   2.320   8.579 -0.0892 -0.7491  0.1081
   41MOL0    Cl 5324  -0.613   2.300   8.502 -0.2700 -0.5539 -0.0294
   41MOL0     C 5325  -0.359   3.076   8.665  0.2761 -1.1029  0.7095
   41MOL0     C 5326  -0.244   3.114   8.724  0.3280 -0.0407  0.6353
   41MOL0     O 5327   0.026   3.047   8.771 -0.4557  0.4814 -0.4004
   41MOL0     C 5328   0.230   3.128   8.957 -0.5111 -0.6265  1.1036
   41MOL0     C 5329   0.331   3.182   9.030  0.1776 -1.3251 -0.2801
   41MOL0     N 5330   0.741   3.757   9.409  0.2284 -0.0813  0.5998
   41MOL0     N 5331   0.817   3.861   9.393  0.4286 -0.1900 -0.3346
   41MOL0     C 5332   2.087   3.596   9.306  0.1166  0.3097 -0.1278
   41MOL0     C 5333   2.199   3.573   9.385 -0.6310 -0.4449  0.7527
   41MOL0     C 5334   2.572   3.667   9.631 -0.2055 -0.8546  0.6430
   41MOL0     C 5335   2.691   3.754   9.625 -0.5098 -0.3717  0.0727
   41MOL0     C 5336   2.790   3.741   9.720 -0.5515  0.9597 -0.1097
   41MOL0     C 5337   2.791   3.639   9.815  0.2402 -0.6791  0.5074
   41MOL0     O 5338   2.911   3.614   9.881  0.4358 -0.3104  0.4606
   41MOL0     C 5339   2.904   3.522   9.989 -0.2123  1.3032 -0.1547
   41MOL0     C 5340   2.927   3.377   9.927  0.3040 -0.7207 -0.0428
   41MOL0     C 5341   3.064   3.370   9.874  0.2466  0.3041  0.2430
   41MOL0     C 5342   3.173   3.383   9.984 -0.3516  0.5609  0.8918
   41MOL0     C 5343   3.306   3.339   9.933 -0.7257 -1.5722 -0.2770
   41MOL0     C 5344   3.421   3.312   9.888 -0.8435 -0.1765  0.1964
   41MOL0     C 5345   2.679   3.560   9.822 -0.2257  0.6782 -0.2304
   41MOL0     C 5346   2.569   3.580   9.740  0.5267 -0.1730 -0.1137
   41MOL0     H 5347   2.229   3.861   9.542  0.1611 -1.6376  1.1650
   41MOL0     H 5348   2.040   3.924   9.396 -1.4650 -0.0378  1.6132
   41MOL0     H 5349   1.875   3.940   9.213  1.0614 -3.0232 -6.8084
   41MOL0     H 5350   1.810   3.852   9.363  0.7830 -1.2820 -0.3328
   41MOL0     H 5351   1.636   3.747   9.202 -1.0040 -0.3861  1.0457
   41MOL0     H 5352   1.706   3.818   9.066  0.5274  1.8139  0.6412
   41MOL0     H 5353   1.514   3.953   9.107  1.8410  1.3349 -1.4069
   41MOL0     H 5354   1.655   4.057   9.155  1.0603  1.0150  2.9429
   41MOL0     H 5355   1.616   3.966   9.375 -0.0953 -0.7466  0.0275
   41MOL0     H 5356   1.498   4.097   9.325  0.6714  0.4038 -1.7276
   41MOL0     H 5357   1.415   3.883   9.459 -0.5929  0.5342  0.0402
   41MOL0     H 5358   1.458   3.791   9.325  0.2469 -0.1509 -1.0433
   41MOL0     H 5359   1.279   3.938   9.187 -1.0981  0.4629  0.4623
   41MOL0     H 5360   1.260   4.027   9.335 -1.0683  1.3204 -3.2711
   41MOL0     H 5361   1.187   3.736   9.305 -0.7830 -0.3301 -2.6318
   41MOL0     H 5362   1.178   3.848   9.451  5.3208  1.7452 -0.4651
   41MOL0     H 5363   1.055   3.896   9.171  0.7432  0.0671 -0.0694
   41MOL0     H 5364   1.041   4.004   9.314  2.7355 -0.6114  1.6920
   41MOL0     H 5365   1.007   3.631   9.266  0.0116  1.4715 -1.2357
   41MOL0     H 5366   0.780   3.494   9.490  3.9237 -0.4136 -0.0266
   41MOL0     H 5367   0.828   3.426   9.332 -0.7973 -0.5324 -0.6242
   41MOL0     H 5368   0.563   3.567   9.348  2.4808  3.6319 -0.2852
   41MOL0     H 5369   0.581   3.395   9.357  2.2333 -0.0487  0.4173
   41MOL0     H 5370   0.716   3.540   9.120 -0.1043 -0.0897 -2.5520
   41MOL0     H 5371   0.698   3.374   9.151 -1.5001  0.8474 -0.3829
   41MOL0     H 5372   0.528   3.447   9.001  3.4194 -0.6976  0.2501
   41MOL0     H 5373   0.457   3.553   9.130  1.1577  0.3679  2.4962
   41MOL0     H 5374   0.241   3.512   9.038 -0.1960  0.6027 -0.5068
   41MOL0     H 5375   0.081   3.423   8.858  0.9024 -1.3039 -2.5139
   41MOL0     H 5376  -0.172   3.401   8.562  0.9548 -1.4039 -2.6871
   41MOL0     H 5377  -0.380   3.347   8.469 -1.3983 -1.5383 -0.7953
   41MOL0     H 5378  -0.614   2.944   8.548 -0.8934 -1.5715 -0.6933
   41MOL0     H 5379  -0.473   2.928   8.438  0.6805  1.5762 -0.6840
   41MOL0     H 5380  -0.596   2.987   8.258 -1.2017  0.0741 -1.1957
   41MOL0     H 5381  -0.739   3.047   8.350  0.0851  1.5167 -0.3009
   41MOL0     H 5382  -0.648   2.752   8.354 -2.3795 -3.3145 -1.0899
   41MOL0     H 5383  -0.768   2.810   8.249 -1.2522  1.2144 -0.2093
   41MOL0     H 5384  -0.810   2.839   8.553  2.1784 -1.7257 -0.2099
   41MOL0     H 5385  -0.922   2.872   8.423 -0.0091  0.0089 -0.1974
   41MOL0     H 5386  -0.904   2.625   8.349  0.1523  0.1263  0.2416
   41MOL0     H 5387  -0.984   2.666   8.499  2.0450 -0.2915  2.4559
   41MOL0     H 5388  -0.776   2.598   8.623 -1.0988  0.3096  0.2103
   41MOL0     H 5389  -0.696   2.573   8.461 -0.4776 -0.3166  0.7767
   41MOL0     H 5390  -0.950   2.436   8.569 -1.9782  1.4717 -2.7944
   41MOL0     H 5391  -0.877   2.395   8.415 -2.0388 -1.8260  1.4116
   41MOL0     H 5392  -0.829   2.228   8.575 -2.6138  0.8280 -1.3691
   41MOL0     H 5393  -0.761   2.345   8.686  0.2758  2.4367 -0.5568
   41MOL0     H 5394  -0.408   2.981   8.688 -0.2467 -1.0231 -0.0475
   41MOL0     H 5395  -0.204   3.047   8.800 -2.1738 -1.1216  1.0972
   41MOL0     H 5396   0.205   3.023   8.943 -0.4489 -0.6166  0.9120
   41MOL0     H 5397   0.405   3.123   9.083  0.8078  1.2234  1.9284
   41MOL0     H 5398   2.050   3.512   9.248  0.1996  0.5222 -0.4917
   41MOL0     H 5399   2.246   3.477   9.373 -1.3556 -0.6634 -0.4888
   41MOL0     H 5400   2.699   3.841   9.561 -0.3671 -1.7533 -1.8379
   41MOL0     H 5401   2.878   3.802   9.705 -1.1092  2.2849  1.6394
   41MOL0     H 5402   2.815   3.520  10.052 -1.3569 -2.4232 -1.6072
   41MOL0     H 5403   2.982   3.555  10.058 -0.4219  2.5246 -0.4857
   41MOL0     H 5404   2.924   3.303  10.008  1.3509 -0.9235 -0.1700
   41MOL0     H 5405   2.862   3.344   9.846  0.0627  0.4216 -0.3397
   41MOL0     H 5406   3.082   3.434   9.787  1.7702  1.3713  1.3006
   41MOL0     H 5407   3.092   3.271   9.836  1.6896 -0.1383  2.2465
   41MOL0     H 5408   3.167   3.483  10.028  0.6452  0.0296  2.3096
   41MOL0     H 5409   3.136   3.311  10.058 -3.7208  1.2779  0.0844
   41MOL0     H 5410   3.521   3.292   9.855  0.4949 -0.8852  4.1847
   41MOL0     H 5411   2.656   3.478   9.888 -1.8398 -0.9966 -2.6814
   41MOL0     H 5412   2.489   3.511   9.765 -0.0537  1.8304  4.5271
   42MOL0     O 5413   3.179   5.737   3.211  0.0148 -0.2197  0.2884
   42MOL0     C 5414   3.272   5.812   3.227 -0.0284  0.2519 -0.0681
   42MOL0     O 5415   3.291   5.925   3.169 -0.2433  0.0114  0.2996
   42MOL0     C 5416   3.227   5.967   3.058  0.2793 -0.7304 -0.5142
   42MOL0     C 5417   3.208   6.099   3.047  0.1692 -0.3668  0.2945
   42MOL0     C 5418   3.168   6.153   2.925  1.1901  1.0758 -1.3054
   42MOL0     C 5419   3.115   6.080   2.826 -0.3359  0.3029  0.2566
   42MOL0     O 5420   3.042   6.141   2.723 -0.9975 -0.5856 -0.1253
   42MOL0     C 5421   3.065   6.103   2.585  0.3177  0.3796 -0.0835
   42MOL0     C 5422   2.957   6.181   2.502 -0.1805 -0.2771  0.2995
   42MOL0     C 5423   2.994   6.329   2.493  0.5928  0.1802  0.0763
   42MOL0     C 5424   2.879   6.430   2.452  1.1920  0.0912  0.3696
   42MOL0     C 5425   2.939   6.561   2.395 -0.9900  0.1542  0.5998
   42MOL0     C 5426   2.821   6.671   2.388 -0.2171 -0.2716 -0.5131
   42MOL0     C 5427   2.880   6.808   2.336  1.0777 -0.1309 -0.0130
   42MOL0     C 5428   2.987   6.870   2.423  0.1775 -0.6095  0.0162
   42MOL0     N 5429   2.948   6.899   2.556 -0.4262 -0.0702  0.4095
   42MOL0     C 5430   2.826   6.937   2.608  0.5615  0.4483 -0.2662
   42MOL0     C 5431   2.833   6.895   2.737 -1.2659 -1.4475 -0.0297
   42MOL0     C 5432   2.716   6.900   2.830 -1.3843 -0.3981  0.3169
   42MOL0     C 5433   2.594   6.826   2.781 -0.4784 -0.1885  0.0415
   42MOL0     C 5434   2.494   6.837   2.903 -0.2171 -0.4881 -0.5733
   42MOL0     C 5435   2.360   6.783   2.861 -0.5699 -0.6485  0.2277
   42MOL0     O 5436   2.278   6.766   2.973 -0.3967 -0.0378 -0.4562
   42MOL0     C 5437   2.175   6.682   2.959  0.4697 -0.5040 -0.0866
   42MOL0     C 5438   2.045   6.742   2.928  0.3876  0.1591  0.3233
   42MOL0     C 5439   1.941   6.650   2.905  0.2957 -0.5558 -0.1619
   42MOL0     C 5440   1.965   6.517   2.900  1.5122  0.1837  0.6060
   42MOL0     C 5441   1.846   6.430   2.871  0.0678 -1.2602 -0.7220
   42MOL0     O 5442   1.884   6.304   2.881 -0.5916 -1.1618 -0.1645
   42MOL0     C 5443   1.785   6.214   2.872  0.1222  0.5231  0.2597
   42MOL0     C 5444   1.672   6.225   2.954 -0.2080  0.2239 -1.2207
   42MOL0     C 5445   1.574   6.127   2.952 -0.0053 -0.3667  0.9907
   42MOL0     C 5446   1.599   6.004   2.892 -0.8130 -0.1497  0.8168
   42MOL0     O 5447   1.507   5.912   2.916  0.2183  0.3124 -0.1918
   42MOL0     C 5448   1.542   5.774   2.881  0.5494  0.0867 -0.3122
   42MOL0     C 5449   1.424   5.683   2.904  0.2352  1.1318  0.2773
   42MOL0     C 5450   1.429   5.561   2.806 -0.4917 -0.4830  0.2693
   42MOL0     C 5451   1.394   5.611   2.667  0.2123 -0.1640 -0.3936
   42MOL0     C 5452   1.369   5.481   2.584  0.3615  0.2887  0.6666
   42MOL0     C 5453   1.357   5.535   2.441 -0.5274 -0.6550 -0.4459
   42MOL0     C 5454   1.290   5.439   2.341  0.4713 -0.9806  0.4996
   42MOL0     C 5455   1.237   5.522   2.217 -0.3019  0.0433  0.8933
   42MOL0    Cl 5456   1.371   5.579   2.101  0.5177  0.6130 -0.2721
   42MOL0     C 5457   1.702   5.996   2.798 -0.9990 -0.5221  0.4045
   42MOL0     C 5458   1.795   6.099   2.787 -0.6526  0.4674  0.2564
   42MOL0     O 5459   1.729   6.477   2.854 -0.4094 -0.4990  0.4816
   42MOL0     C 5460   2.093   6.468   2.939  0.9470  1.3926 -0.1461
   42MOL0     C 5461   2.197   6.540   2.968  0.1901  0.0534  0.5405
   42MOL0     N 5462   2.957   6.832   2.761  0.3726  0.9853 -0.0588
   42MOL0     N 5463   3.025   6.841   2.650  0.3340  0.5033 -0.0791
   42MOL0     C 5464   3.124   5.940   2.838  0.1615 -0.1772  0.1312
   42MOL0     C 5465   3.189   5.883   2.954  1.1327 -0.5925  0.2231
   42MOL0     C 5466   3.375   5.787   3.322  0.5178  1.1154  0.5656
   42MOL0     C 5467   3.484   5.867   3.332 -1.5823 -0.8811  0.4393
   42MOL0     C 5468   3.584   5.825   3.428 -0.2494 -0.2297  1.2174
   42MOL0     C 5469   3.569   5.716   3.514  0.5587 -0.7472  0.4589
   42MOL0     O 5470   3.667   5.697   3.602 -0.1520 -1.1739  0.0973
   42MOL0     C 5471   3.670   5.584   3.680  0.5952  0.0077 -0.2837
   42MOL0     C 5472   3.813   5.579   3.754  0.0386  0.1106 -0.1022
   42MOL0     C 5473   3.855   5.444   3.814 -0.4852 -0.5373  0.3747
   42MOL0     C 5474   3.945   5.466   3.944  0.6386  0.0513  0.1861
   42MOL0     C 5475   4.075   5.476   3.888  0.3513  0.7102  0.3290
   42MOL0     C 5476   4.191   5.460   3.854 -0.3071  0.5791  0.5934
   42MOL0     C 5477   3.468   5.639   3.486 -0.8304  0.6103  0.3962
   42MOL0     C 5478   3.374   5.664   3.396  0.0920 -0.4017  1.5120
   42MOL0     H 5479   3.237   6.162   3.131  1.5289  1.4019 -1.4142
   42MOL0     H 5480   3.170   6.261   2.911  2.6914  0.9921 -1.9258
   42MOL0     H 5481   3.051   5.995   2.575  1.3011  0.3867 -1.8828
   42MOL0     H 5482   3.165   6.139   2.559  0.0794  2.8735  2.0382
   42MOL0     H 5483   2.863   6.172   2.557  0.1927  0.4016  1.0827
   42MOL0     H 5484   2.949   6.143   2.400 -0.3533 -2.9016  1.2106
   42MOL0     H 5485   3.080   6.326   2.425  2.5288 -4.1660  2.3155
   42MOL0     H 5486   3.027   6.358   2.593  0.0130 -1.9987  0.9444
   42MOL0     H 5487   2.822   6.379   2.374  1.1477 -1.5203  1.4267
   42MOL0     H 5488   2.801   6.445   2.527 -1.8773 -1.3279 -2.2629
   42MOL0     H 5489   2.980   6.554   2.294 -1.0471  3.7654  0.1995
   42MOL0     H 5490   3.024   6.589   2.457 -1.2827 -2.1057  2.1406
   42MOL0     H 5491   2.787   6.691   2.490 -2.1098 -5.5570  0.2445
   42MOL0     H 5492   2.743   6.641   2.318  1.2945 -2.4539 -1.4173
   42MOL0     H 5493   2.924   6.790   2.238  1.2807  1.0827 -0.1667
   42MOL0     H 5494   2.803   6.885   2.327  1.4220  0.1277 -0.7701
   42MOL0     H 5495   3.006   6.972   2.387 -0.7501 -1.1299 -2.1078
   42MOL0     H 5496   3.076   6.808   2.409  0.1214 -0.1011 -3.7569
   42MOL0     H 5497   2.752   7.007   2.570  0.2127  0.3115  0.1473
   42MOL0     H 5498   2.694   7.006   2.845 -0.4578 -0.1065 -0.2666
   42MOL0     H 5499   2.755   6.866   2.926 -1.2210 -0.6514  0.1626
   42MOL0     H 5500   2.605   6.721   2.753 -0.6997  0.2739 -1.9274
   42MOL0     H 5501   2.548   6.874   2.695  0.9843 -0.5259 -0.9508
   42MOL0     H 5502   2.539   6.782   2.986 -1.0875 -0.7998 -0.3033
   42MOL0     H 5503   2.488   6.939   2.943  3.8194  0.2481 -1.3901
   42MOL0     H 5504   2.388   6.684   2.824  2.0037  0.7596 -1.9808
   42MOL0     H 5505   2.310   6.839   2.781 -2.6377 -1.5617  0.8308
   42MOL0     H 5506   2.026   6.846   2.907  2.7949 -0.3855 -7.9116
   42MOL0     H 5507   1.841   6.689   2.892  0.5807  1.1675  2.1856
   42MOL0     H 5508   1.658   6.305   3.026 -0.9531  2.4866 -3.7010
   42MOL0     H 5509   1.483   6.140   3.009 -0.4245 -1.2377  0.5466
   42MOL0     H 5510   1.624   5.739   2.943  0.9701  4.5855  2.0802
   42MOL0     H 5511   1.574   5.761   2.777 -0.9549 -2.2482 -0.5559
   42MOL0     H 5512   1.331   5.739   2.893 -0.1662  0.9800  2.5431
   42MOL0     H 5513   1.423   5.650   3.008  3.5785 -1.7205 -0.3960
   42MOL0     H 5514   1.358   5.481   2.825 -0.0177 -1.5842 -2.1479
   42MOL0     H 5515   1.527   5.513   2.800 -1.1668 -1.7545 -2.9790
   42MOL0     H 5516   1.304   5.673   2.663  0.0929 -0.3801 -2.3388
   42MOL0     H 5517   1.475   5.672   2.624  1.2780 -1.0987  0.2185
   42MOL0     H 5518   1.275   5.437   2.616  0.7087  0.4253  1.9145
   42MOL0     H 5519   1.449   5.407   2.596 -2.2751 -3.7755 -3.3594
   42MOL0     H 5520   1.455   5.567   2.404 -0.5894  1.7319  1.2010
   42MOL0     H 5521   1.302   5.630   2.445  1.7871  0.7766 -0.6276
   42MOL0     H 5522   1.364   5.362   2.322  1.1672 -0.1377 -0.3154
   42MOL0     H 5523   1.203   5.389   2.385  0.4285 -1.3160  0.0400
   42MOL0     H 5524   1.181   5.610   2.250 -1.9640 -1.6731  2.8732
   42MOL0     H 5525   1.168   5.458   2.163  1.1353 -2.7583  2.1646
   42MOL0     H 5526   1.716   5.910   2.733  0.1758  0.3970 -0.5982
   42MOL0     H 5527   1.875   6.098   2.714 -2.8630 -0.8548 -2.3263
   42MOL0     H 5528   2.112   6.361   2.936  4.5087  1.9242 -1.1179
   42MOL0     H 5529   2.277   6.474   3.001 -1.2400 -3.2571 -2.0160
   42MOL0     H 5530   3.104   5.870   2.757  1.7011 -0.5810  0.0717
   42MOL0     H 5531   3.200   5.775   2.957 -3.4331 -1.5439 -4.0694
   42MOL0     H 5532   3.505   5.949   3.264  0.9116 -1.0225  0.9232
   42MOL0     H 5533   3.666   5.894   3.443 -2.9228  3.2367  1.2204
   42MOL0     H 5534   3.660   5.492   3.621  0.6570 -0.8930  1.0446
   42MOL0     H 5535   3.586   5.583   3.750  0.8826  0.0117  0.0699
   42MOL0     H 5536   3.895   5.599   3.684  0.4985 -0.3181  0.3150
   42MOL0     H 5537   3.826   5.658   3.828  1.4763 -0.5987  0.4421
   42MOL0     H 5538   3.911   5.391   3.737  0.5394  0.6153  0.3147
   42MOL0     H 5539   3.778   5.376   3.854  0.7571 -2.1693  0.1134
   42MOL0     H 5540   3.919   5.550   4.010  0.4076 -0.6495  0.9988
   42MOL0     H 5541   3.930   5.381   4.011 -0.5941  1.5168  1.8742
   42MOL0     H 5542   4.294   5.457   3.822 -0.6896  2.5794 -1.0810
   42MOL0     H 5543   3.458   5.541   3.534  2.1044  0.2942  0.5327
   42MOL0     H 5544   3.296   5.592   3.374  0.4640 -0.0279 -1.4366
   43MOL0     O 5545   1.713   0.248   1.128  0.0391  0.0228  0.0043
   43MOL0     C 5546   1.781   0.170   1.186  0.2887 -0.4388 -0.0345
   43MOL0     O 5547   1.737   0.064   1.246 -0.3252  0.8821 -0.4373
   43MOL0     C 5548   1.608   0.029   1.236 -0.9366 -0.2094 -0.1657
   43MOL0     C 5549   1.557   0.001   1.113 -0.0952  0.9398  0.6468
   43MOL0     C 5550   1.424  -0.049   1.102 -0.1977  0.0817 -0.3226
   43MOL0     C 5551   1.343  -0.078   1.214  0.4176 -0.4238  0.1603
   43MOL0     O 5552   1.222  -0.140   1.211 -0.4844  0.2515  0.0043
   43MOL0     C 5553   1.129  -0.104   1.104  0.6325  0.0862 -0.2938
   43MOL0     C 5554   1.043  -0.229   1.082 -0.0030 -0.2272 -1.0495
   43MOL0     C 5555   0.958  -0.267   1.196  0.9330  0.1326  0.0662
   43MOL0     C 5556   0.876  -0.391   1.170 -0.1330  0.1609  0.0587
   43MOL0     C 5557   0.782  -0.431   1.292 -0.1369  0.3275 -0.3266
   43MOL0     C 5558   0.723  -0.569   1.267 -0.4547 -0.3336 -0.2808
   43MOL0     C 5559   0.619  -0.618   1.365 -0.3561  0.2031  0.3410
   43MOL0     C 5560   0.570  -0.754   1.326 -1.3299  0.4702 -0.1691
   43MOL0     N 5561   0.494  -0.800   1.442  0.9807  0.4256 -0.0117
   43MOL0     C 5562   0.535  -0.897   1.534  0.0973  0.4007 -0.2719
   43MOL0     C 5563   0.429  -0.917   1.620  0.3754 -0.4306  0.5582
   43MOL0     C 5564   0.414  -0.987   1.738  0.9439  0.3312 -0.7624
   43MOL0     C 5565   0.382  -1.134   1.712 -0.5109  0.1166  0.2014
   43MOL0     C 5566   0.227  -1.145   1.714 -0.8442  1.1275  0.1311
   43MOL0     C 5567   0.187  -1.290   1.699  0.7512 -0.0654 -0.0099
   43MOL0     O 5568   0.242  -1.363   1.811 -0.0764 -0.6131  0.0572
   43MOL0     C 5569   0.154  -1.395   1.912  0.4000 -0.1065  1.1434
   43MOL0     C 5570   0.037  -1.325   1.933 -0.0396 -0.8674  0.1040
   43MOL0     C 5571  -0.063  -1.376   2.022 -0.1393  0.0189  0.4941
   43MOL0     C 5572  -0.037  -1.504   2.084  0.0858  0.8360 -0.0976
   43MOL0     C 5573  -0.141  -1.567   2.174  1.0183 -0.5726  0.0314
   43MOL0     O 5574  -0.104  -1.680   2.235 -0.6071  0.7803  0.2139
   43MOL0     C 5575  -0.176  -1.745   2.333 -0.4826  0.8142  0.5924
   43MOL0     C 5576  -0.135  -1.873   2.379  0.1477  0.4937 -0.1385
   43MOL0     C 5577  -0.210  -1.939   2.481 -0.3153 -1.3311  0.0411
   43MOL0     C 5578  -0.323  -1.881   2.539 -0.4068  0.2057 -1.0188
   43MOL0     O 5579  -0.392  -1.931   2.643  0.0283 -0.2488  0.1612
   43MOL0     C 5580  -0.329  -2.044   2.714 -0.5662 -0.9996  0.4233
   43MOL0     C 5581  -0.425  -2.084   2.825 -0.4890  0.0843  0.1084
   43MOL0     C 5582  -0.539  -2.179   2.785  0.8690 -0.3266  0.4121
   43MOL0     C 5583  -0.616  -2.221   2.917  0.1870 -0.8823  0.0362
   43MOL0     C 5584  -0.698  -2.335   2.898 -0.4070  0.4493  0.5361
   43MOL0     C 5585  -0.808  -2.329   2.787  0.9380 -0.4260 -0.1487
   43MOL0     C 5586  -0.910  -2.434   2.806 -0.7376  0.5478 -0.3118
   43MOL0     C 5587  -1.031  -2.413   2.702 -0.2042  0.3547  0.0125
   43MOL0    Cl 5588  -0.992  -2.409   2.526  0.2605 -0.0876  0.1764
   43MOL0     C 5589  -0.364  -1.759   2.491 -0.2040  0.1216  0.2984
   43MOL0     C 5590  -0.288  -1.692   2.401 -0.1542 -0.1719  0.0995
   43MOL0     O 5591  -0.257  -1.512   2.183 -0.0295  0.0634  0.0560
   43MOL0     C 5592   0.078  -1.576   2.067 -0.2620 -0.3114 -0.3235
   43MOL0     C 5593   0.176  -1.517   1.980 -0.2985 -0.4469 -0.7124
   43MOL0     N 5594   0.323  -0.832   1.577  0.2338  0.1823 -0.2513
   43MOL0     N 5595   0.360  -0.772   1.470  0.0876 -0.6211  0.1335
   43MOL0     C 5596   1.396  -0.055   1.334 -0.7796 -0.3446  0.2314
   43MOL0     C 5597   1.530  -0.003   1.350  0.5251 -0.0540  0.4817
   43MOL0     C 5598   1.917   0.207   1.221 -1.2379  0.0370  0.3506
   43MOL0     C 5599   1.955   0.332   1.240 -0.8157 -0.9775  0.7167
   43MOL0     C 5600   2.091   0.367   1.269  0.2963  0.4103 -0.3435
   43MOL0     C 5601   2.187   0.265   1.299  0.0357 -0.2859  0.6602
   43MOL0     O 5602   2.317   0.277   1.329 -0.2264 -0.3744  0.2063
   43MOL0     C 5603   2.362   0.412   1.345 -0.4626  0.2945  0.1331
   43MOL0     C 5604   2.500   0.408   1.413  0.4735  0.3000  0.4102
   43MOL0     C 5605   2.505   0.359   1.567  0.5208 -0.8211  0.9381
   43MOL0     C 5606   2.426   0.445   1.673  0.2720  0.5631 -0.0955
   43MOL0     C 5607   2.284   0.403   1.666 -0.0355  0.6604 -0.2068
   43MOL0     C 5608   2.168   0.360   1.647 -0.3468 -0.8579  0.0816
   43MOL0     C 5609   2.135   0.128   1.293 -0.6215 -0.8623  0.0317
   43MOL0     C 5610   2.004   0.108   1.253  1.3223  0.4076  0.4069
   43MOL0     H 5611   1.612   0.005   1.019 -0.5857 -3.6178 -0.0714
   43MOL0     H 5612   1.380  -0.072   1.006 -2.1133  0.0500  0.5212
   43MOL0     H 5613   1.168  -0.076   1.006 -1.5655 -0.8303 -1.5007
   43MOL0     H 5614   1.064  -0.025   1.144 -0.2651  1.7908 -4.5644
   43MOL0     H 5615   1.111  -0.311   1.058  0.0326 -0.1568 -1.1887
   43MOL0     H 5616   0.979  -0.213   0.995 -0.1978 -1.4456 -1.1472
   43MOL0     H 5617   0.886  -0.186   1.214 -0.0349 -0.2422 -1.8422
   43MOL0     H 5618   1.012  -0.285   1.289  0.5622 -0.1983  0.2157
   43MOL0     H 5619   0.804  -0.373   1.090  0.7371  2.1342 -0.3284
   43MOL0     H 5620   0.941  -0.478   1.152  3.1133  1.8080  2.6556
   43MOL0     H 5621   0.698  -0.361   1.287 -1.8687 -1.7143 -1.9506
   43MOL0     H 5622   0.842  -0.433   1.383  0.1314 -0.9205 -0.5154
   43MOL0     H 5623   0.805  -0.639   1.287  1.0165  1.2221 -0.6741
   43MOL0     H 5624   0.688  -0.579   1.164 -2.6873  1.2817  0.2421
   43MOL0     H 5625   0.665  -0.639   1.462  1.3326 -0.6035 -0.5739
   43MOL0     H 5626   0.533  -0.552   1.375  1.0449  2.3066 -0.6368
   43MOL0     H 5627   0.655  -0.819   1.303 -1.1982  0.5100  0.2008
   43MOL0     H 5628   0.515  -0.754   1.231  2.6635 -0.3225 -2.7089
   43MOL0     H 5629   0.629  -0.947   1.553 -0.2866  0.4847  2.1988
   43MOL0     H 5630   0.328  -0.945   1.790 -0.9300 -2.2825 -1.5486
   43MOL0     H 5631   0.503  -0.994   1.801 -0.2017  1.7729  1.1400
   43MOL0     H 5632   0.422  -1.196   1.794 -1.7940 -1.2937 -0.1972
   43MOL0     H 5633   0.430  -1.181   1.626 -2.6114 -0.1764 -0.8636
   43MOL0     H 5634   0.195  -1.101   1.809  1.6901 -0.5979  1.9462
   43MOL0     H 5635   0.192  -1.085   1.630 -0.6618  2.9962  1.3225
   43MOL0     H 5636   0.225  -1.333   1.606  0.4055 -2.4475  0.8786
   43MOL0     H 5637   0.081  -1.308   1.680  1.1908 -2.1203 -0.6887
   43MOL0     H 5638   0.020  -1.226   1.892  0.4816  0.1928  2.2344
   43MOL0     H 5639  -0.153  -1.316   2.023  1.5912  2.8687 -1.4460
   43MOL0     H 5640  -0.048  -1.926   2.341  0.6858  0.9148  0.4973
   43MOL0     H 5641  -0.176  -2.034   2.521  0.8116  0.2705  3.2251
   43MOL0     H 5642  -0.231  -2.009   2.747  0.4338 -1.3248 -1.9547
   43MOL0     H 5643  -0.315  -2.131   2.648  1.3358  0.8397 -1.8007
   43MOL0     H 5644  -0.451  -1.983   2.859 -2.1528  0.2301 -1.5080
   43MOL0     H 5645  -0.369  -2.142   2.899  1.6056  0.3436 -1.1897
   43MOL0     H 5646  -0.484  -2.266   2.747  0.2641 -0.5150 -0.0526
   43MOL0     H 5647  -0.602  -2.147   2.701  0.8212  0.7890  0.8662
   43MOL0     H 5648  -0.541  -2.234   2.995  0.3243  0.7430  0.2005
   43MOL0     H 5649  -0.685  -2.138   2.937  0.6797 -0.6453  0.7749
   43MOL0     H 5650  -0.750  -2.367   2.990 -3.0671 -1.2761 -1.3969
   43MOL0     H 5651  -0.652  -2.431   2.871 -4.0193 -0.9133 -1.5922
   43MOL0     H 5652  -0.754  -2.357   2.695  1.1642 -3.5889  0.8492
   43MOL0     H 5653  -0.852  -2.229   2.781 -2.9236 -1.9975 -0.9099
   43MOL0     H 5654  -0.854  -2.527   2.792  1.7813  1.8395  0.4193
   43MOL0     H 5655  -0.947  -2.433   2.909 -1.5546  1.0121 -0.6065
   43MOL0     H 5656  -1.080  -2.320   2.732 -1.6585 -1.7479  5.1276
   43MOL0     H 5657  -1.097  -2.496   2.728  0.1052  0.9208  2.9305
   43MOL0     H 5658  -0.435  -1.700   2.549  0.6455  2.1882 -0.6936
   43MOL0     H 5659  -0.339  -1.599   2.380 -1.2484 -0.7073  0.3362
   43MOL0     H 5660   0.100  -1.674   2.109  1.9046  0.8111  1.3912
   43MOL0     H 5661   0.264  -1.570   1.944  1.1236  1.6174 -0.5182
   43MOL0     H 5662   1.342  -0.068   1.427 -1.3613 -0.4849 -0.1218
   43MOL0     H 5663   1.572   0.006   1.450  0.4723  0.6207  0.4463
   43MOL0     H 5664   1.884   0.414   1.228 -1.7911 -1.7082  1.2926
   43MOL0     H 5665   2.123   0.471   1.275  1.8239 -0.1043  1.0891
   43MOL0     H 5666   2.298   0.475   1.409 -0.9147  1.2873 -1.2617
   43MOL0     H 5667   2.374   0.454   1.245 -2.5482  1.9142  0.4797
   43MOL0     H 5668   2.563   0.342   1.352 -2.6798 -0.6412 -2.1512
   43MOL0     H 5669   2.538   0.510   1.414  0.4894  0.3097 -0.3405
   43MOL0     H 5670   2.612   0.366   1.590  0.9875  0.2945 -1.3250
   43MOL0     H 5671   2.485   0.252   1.578 -1.1475 -0.3642  3.1602
   43MOL0     H 5672   2.473   0.438   1.772  0.4886  2.4290 -0.0332
   43MOL0     H 5673   2.431   0.547   1.635  0.5320  0.3498 -0.6545
   43MOL0     H 5674   2.076   0.307   1.633 -1.2873  0.9241 -0.8212
   43MOL0     H 5675   2.196   0.041   1.318  0.9455  0.9526  3.1361
   43MOL0     H 5676   1.970   0.005   1.250 -1.3069  1.1997  0.0119
   44MOL0     O 5677   4.032   2.198   6.022  0.5601 -0.1577 -0.2441
   44MOL0     C 5678   4.025   2.188   6.146 -1.1281 -0.5253  0.6422
   44MOL0     O 5679   4.135   2.145   6.220  0.1823 -0.4221  0.8390
   44MOL0     C 5680   4.259   2.151   6.166 -0.1922  1.0767 -0.4243
   44MOL0     C 5681   4.319   2.030   6.116 -1.2137 -0.8962 -0.4866
   44MOL0     C 5682   4.441   2.045   6.041  0.5762  0.1248 -0.0800
   44MOL0     C 5683   4.493   2.168   6.018 -0.4221  0.6518  0.8348
   44MOL0     O 5684   4.605   2.189   5.944  0.3472  0.3732  0.1238
   44MOL0     C 5685   4.701   2.084   5.931 -0.0986 -0.7636  0.3444
   44MOL0     C 5686   4.774   2.045   6.066  0.9811 -0.6937  0.4063
   44MOL0     C 5687   4.934   2.066   6.069 -0.4064  0.2635 -0.3608
   44MOL0     C 5688   5.014   1.987   5.958  0.0607 -0.5323 -0.7632
   44MOL0     C 5689   5.157   1.969   6.003  0.1732  0.8564 -0.7039
   44MOL0     C 5690   5.187   1.832   6.071 -0.8589  0.3646 -0.5728
   44MOL0     C 5691   5.335   1.797   6.081  0.2922 -0.7342  0.9686
   44MOL0     C 5692   5.397   1.887   6.186  0.4940 -0.5360 -0.2949
   44MOL0     N 5693   5.343   1.868   6.322 -0.1653  0.2592 -0.7266
   44MOL0     C 5694   5.318   1.976   6.404 -0.9136  0.1864 -0.2282
   44MOL0     C 5695   5.276   1.922   6.513 -0.0442 -0.4685 -0.9583
   44MOL0     C 5696   5.198   1.998   6.620 -0.4656  0.6277  0.2671
   44MOL0     C 5697   5.051   1.942   6.627 -0.2403 -0.0245  1.0514
   44MOL0     C 5698   4.986   1.948   6.482 -0.0385  0.9326  0.2774
   44MOL0     C 5699   4.835   1.958   6.492 -0.1220 -0.3581  0.1343
   44MOL0     O 5700   4.798   2.080   6.566 -0.1489  0.7285  0.3876
   44MOL0     C 5701   4.672   2.133   6.553  0.0322  0.5032 -0.9619
   44MOL0     C 5702   4.652   2.268   6.583  0.2442 -1.1147  0.1793
   44MOL0     C 5703   4.519   2.321   6.581  0.4657  0.1757 -0.0220
   44MOL0     C 5704   4.412   2.243   6.544  1.3152 -0.2902  0.0289
   44MOL0     C 5705   4.275   2.301   6.534 -0.2148  0.3366  0.1643
   44MOL0     O 5706   4.266   2.437   6.536 -0.4451 -0.2716  0.1480
   44MOL0     C 5707   4.139   2.489   6.550 -0.4978 -0.0398  0.1102
   44MOL0     C 5708   4.092   2.559   6.671 -0.8573 -0.1156 -0.2335
   44MOL0     C 5709   3.961   2.619   6.681 -0.0607 -0.4549  0.4721
   44MOL0     C 5710   3.869   2.588   6.577  0.3157  1.0715  0.6332
   44MOL0     O 5711   3.740   2.620   6.588  0.8952 -0.3784 -0.2786
   44MOL0     C 5712   3.675   2.699   6.490 -0.1156 -0.7058  0.1449
   44MOL0     C 5713   3.586   2.808   6.557 -0.2493  0.2240  0.3302
   44MOL0     C 5714   3.527   2.907   6.457 -0.8856 -0.7184  0.2098
   44MOL0     C 5715   3.394   2.882   6.390  0.9575  0.3728  0.1850
   44MOL0     C 5716   3.363   2.994   6.291  0.6206 -0.4736  0.4922
   44MOL0     C 5717   3.277   2.958   6.173 -0.4658 -0.3101  1.1534
   44MOL0     C 5718   3.253   3.081   6.085  0.5822 -0.5864  0.2334
   44MOL0     C 5719   3.367   3.143   6.008 -0.2364  0.5188 -0.2017
   44MOL0    Cl 5720   3.290   3.291   5.945 -0.7431 -0.6765 -0.0049
   44MOL0     C 5721   3.909   2.515   6.468 -0.5172  0.8572  0.3226
   44MOL0     C 5722   4.039   2.469   6.452  0.3935 -0.2205 -1.1315
   44MOL0     O 5723   4.177   2.220   6.522 -0.6991 -0.0987 -0.1760
   44MOL0     C 5724   4.434   2.112   6.514 -0.2364 -0.2573  0.5124
   44MOL0     C 5725   4.561   2.051   6.525  0.2604  0.0261  0.1684
   44MOL0     N 5726   5.326   1.791   6.518  0.5471 -0.2974  0.4023
   44MOL0     N 5727   5.358   1.755   6.399  0.1976  0.1054 -0.7399
   44MOL0     C 5728   4.437   2.280   6.079 -0.4254 -0.2852 -0.3983
   44MOL0     C 5729   4.324   2.275   6.158 -0.1180  0.6140  0.7117
   44MOL0     C 5730   3.901   2.222   6.213 -0.1437 -0.5801 -1.1144
   44MOL0     C 5731   3.779   2.233   6.146  0.7173 -0.4490 -0.8947
   44MOL0     C 5732   3.648   2.248   6.219 -0.2860  0.1096  0.6845
   44MOL0     C 5733   3.645   2.242   6.358  0.1961 -0.8828  0.2580
   44MOL0     O 5734   3.531   2.238   6.435  0.3367  0.0039 -0.2392
   44MOL0     C 5735   3.448   2.354   6.418  1.0329 -0.1883 -0.7814
   44MOL0     C 5736   3.362   2.371   6.545  1.0597 -1.1752 -0.1923
   44MOL0     C 5737   3.460   2.400   6.666  0.9653 -0.8571  0.9078
   44MOL0     C 5738   3.380   2.447   6.785  0.1080  0.0369  0.2097
   44MOL0     C 5739   3.466   2.525   6.878 -0.2971 -1.2156 -0.4168
   44MOL0     C 5740   3.534   2.595   6.959 -0.7890 -0.0955 -0.1268
   44MOL0     C 5741   3.762   2.212   6.420 -0.0419 -0.4832 -0.2236
   44MOL0     C 5742   3.889   2.204   6.359  0.3452 -0.8943 -0.6554
   44MOL0     H 5743   4.273   1.934   6.134 -0.9556 -1.2731 -1.7307
   44MOL0     H 5744   4.480   1.954   5.996  0.0189 -0.0961 -0.1308
   44MOL0     H 5745   4.781   2.120   5.865 -0.3733 -0.0104  0.4149
   44MOL0     H 5746   4.655   1.993   5.891 -0.5459 -1.6278  2.6835
   44MOL0     H 5747   4.739   1.947   6.100  0.3127 -1.7436 -2.8927
   44MOL0     H 5748   4.734   2.112   6.142 -0.1016 -1.2444  0.3454
   44MOL0     H 5749   4.978   2.049   6.167  0.1130  0.1720 -0.6073
   44MOL0     H 5750   4.953   2.169   6.037 -3.9558 -0.0189 -4.2890
   44MOL0     H 5751   4.957   1.898   5.932 -2.1617 -0.4001  2.9496
   44MOL0     H 5752   5.017   2.048   5.867  0.6115  1.4600  0.5204
   44MOL0     H 5753   5.184   2.051   6.071  2.6442  2.7258 -3.6763
   44MOL0     H 5754   5.223   1.981   5.916  0.9955  0.5143 -0.1376
   44MOL0     H 5755   5.151   1.756   6.002  2.8067 -1.4030 -0.7720
   44MOL0     H 5756   5.134   1.818   6.166 -2.2318  0.1685 -1.3286
   44MOL0     H 5757   5.346   1.690   6.102 -0.9240 -1.5156 -1.9055
   44MOL0     H 5758   5.388   1.830   5.991 -0.7989 -1.5479 -0.0081
   44MOL0     H 5759   5.389   1.993   6.159  0.2700 -0.7397 -1.0692
   44MOL0     H 5760   5.504   1.865   6.194  0.3493 -0.4683  3.3878
   44MOL0     H 5761   5.305   2.081   6.383 -0.8671  0.2021 -0.1812
   44MOL0     H 5762   5.219   2.104   6.604  0.8842 -0.1327 -4.3107
   44MOL0     H 5763   5.251   1.959   6.708 -1.4633 -1.4341  0.0151
   44MOL0     H 5764   4.995   1.988   6.709  0.0251 -1.3352  1.9873
   44MOL0     H 5765   5.050   1.841   6.668 -1.7941  0.7698  3.1904
   44MOL0     H 5766   5.015   2.039   6.428 -0.0155  1.3830  1.0339
   44MOL0     H 5767   5.007   1.853   6.431 -2.8221  0.0343  0.6368
   44MOL0     H 5768   4.801   1.873   6.552  2.5913 -1.0500  0.7978
   44MOL0     H 5769   4.784   1.950   6.395 -0.4579  1.1757  0.1613
   44MOL0     H 5770   4.730   2.341   6.599 -0.4644  0.8730 -3.9841
   44MOL0     H 5771   4.504   2.423   6.613 -1.5105 -0.0803  0.0204
   44MOL0     H 5772   4.166   2.570   6.750 -0.4014 -1.4492 -0.4499
   44MOL0     H 5773   3.928   2.671   6.770  2.1054  1.3123  0.3358
   44MOL0     H 5774   3.605   2.639   6.432  1.3119  0.3274 -2.8705
   44MOL0     H 5775   3.749   2.729   6.415 -1.0474 -1.2503 -1.0107
   44MOL0     H 5776   3.641   2.856   6.638  0.6078  3.1761 -1.8429
   44MOL0     H 5777   3.505   2.763   6.615 -0.9484 -1.7771 -2.0125
   44MOL0     H 5778   3.608   2.928   6.386  0.8748 -0.3708  2.2087
   44MOL0     H 5779   3.511   3.003   6.508 -1.4478 -1.3677  1.2712
   44MOL0     H 5780   3.406   2.782   6.347  1.1250 -1.3995  3.9231
   44MOL0     H 5781   3.317   2.896   6.467  0.2973  0.6709 -0.5111
   44MOL0     H 5782   3.458   3.036   6.256 -0.0577  0.1030 -0.7201
   44MOL0     H 5783   3.304   3.059   6.356 -2.3593 -3.5221  1.1265
   44MOL0     H 5784   3.181   2.921   6.211 -1.1761 -0.3943 -0.6631
   44MOL0     H 5785   3.325   2.880   6.113  1.6025  1.5513  0.2659
   44MOL0     H 5786   3.181   3.047   6.010 -1.7932 -0.9899  2.5374
   44MOL0     H 5787   3.206   3.153   6.153  1.2874  0.8977 -0.8039
   44MOL0     H 5788   3.397   3.075   5.928 -4.5130 -1.3641 -0.5015
   44MOL0     H 5789   3.456   3.163   6.067  0.1201  1.1753 -0.9506
   44MOL0     H 5790   3.837   2.484   6.393  1.4078 -2.6927 -0.3110
   44MOL0     H 5791   4.070   2.414   6.364  0.4061 -2.5913  0.2828
   44MOL0     H 5792   4.347   2.053   6.488  0.9449 -1.3193 -1.2790
   44MOL0     H 5793   4.570   1.949   6.489  1.8574  0.2520 -0.1696
   44MOL0     H 5794   4.490   2.372   6.056 -0.9974  0.2040  0.1935
   44MOL0     H 5795   4.273   2.361   6.200 -1.4538  0.7017 -0.9447
   44MOL0     H 5796   3.784   2.258   6.041 -0.0532  4.1740 -0.0559
   44MOL0     H 5797   3.556   2.270   6.166 -0.1815 -0.0698  0.4265
   44MOL0     H 5798   3.393   2.340   6.324  0.2891 -1.4545 -0.1873
   44MOL0     H 5799   3.513   2.440   6.401  0.4511  0.2284 -0.9535
   44MOL0     H 5800   3.298   2.457   6.525  3.3470  0.3013 -1.5787
   44MOL0     H 5801   3.304   2.281   6.567  1.3091 -0.7854  2.2827
   44MOL0     H 5802   3.531   2.481   6.645  1.2881 -0.9671  1.5572
   44MOL0     H 5803   3.516   2.307   6.678  1.7213 -0.9782 -2.6117
   44MOL0     H 5804   3.296   2.512   6.757  0.3665  0.0894 -0.4522
   44MOL0     H 5805   3.340   2.358   6.833  1.7264 -1.3694 -0.9347
   44MOL0     H 5806   3.587   2.669   7.016 -2.8024  1.9697 -0.8076
   44MOL0     H 5807   3.753   2.197   6.527  2.3164 -0.7297 -0.0015
   44MOL0     H 5808   3.974   2.161   6.410  1.0416 -0.0009 -1.0497
   45MOL0     O 5809  10.794   0.641   5.051  0.3767 -0.8495  0.2434
   45MOL0     C 5810  10.858   0.584   5.133 -0.3075  0.4816 -0.0994
   45MOL0     O 5811  10.818   0.475   5.193 -1.0402  0.0591  0.0414
   45MOL0     C 5812  10.697   0.426   5.168 -0.3692 -0.1041  0.2362
   45MOL0     C 5813  10.589   0.485   5.237 -0.5071  0.8243 -0.5806
   45MOL0     C 5814  10.460   0.423   5.229 -0.1271 -1.6457 -0.0523
   45MOL0     C 5815  10.432   0.320   5.141 -1.3828  1.4191 -0.8409
   45MOL0     O 5816  10.300   0.295   5.117 -0.4537  0.5187 -0.1725
   45MOL0     C 5817  10.275   0.185   5.030 -0.1585  0.2014 -0.0234
   45MOL0     C 5818  10.127   0.191   4.985 -0.0358  1.1708  0.9084
   45MOL0     C 5819  10.106   0.101   4.863 -0.1482  0.0191  0.3683
   45MOL0     C 5820   9.951   0.068   4.827  0.7928  0.8299  0.6810
   45MOL0     C 5821   9.902   0.166   4.731  0.1299  0.1363  0.5900
   45MOL0     C 5822   9.749   0.144   4.705  0.4270  0.7995 -0.2662
   45MOL0     C 5823   9.647   0.174   4.820 -0.6863  0.1647  1.4298
   45MOL0     C 5824   9.504   0.142   4.761 -0.2133 -0.4801  0.4077
   45MOL0     N 5825   9.389   0.218   4.832 -0.4920 -0.1024  0.5567
   45MOL0     C 5826   9.293   0.150   4.907  0.1994  0.2757  0.1500
   45MOL0     C 5827   9.195   0.235   4.934 -0.1393  0.4454  0.2283
   45MOL0     C 5828   9.063   0.197   5.003 -1.0890  0.4054 -0.0212
   45MOL0     C 5829   8.987   0.095   4.920 -0.1133 -0.3763 -0.0085
   45MOL0     C 5830   8.885   0.168   4.818  0.3311  0.8536  0.2503
   45MOL0     C 5831   8.765   0.081   4.785 -0.0235  0.3809 -0.4299
   45MOL0     O 5832   8.657   0.093   4.880 -0.6898 -0.4257 -0.4301
   45MOL0     C 5833   8.537   0.038   4.832  0.5709  0.6169 -0.4157
   45MOL0     C 5834   8.532  -0.080   4.763  0.6433  0.2956 -0.3222
   45MOL0     C 5835   8.411  -0.141   4.722 -1.4270  0.2624 -0.6354
   45MOL0     C 5836   8.288  -0.092   4.771 -0.6074 -0.3520 -0.3991
   45MOL0     C 5837   8.160  -0.152   4.726 -0.6713 -0.5798 -0.3605
   45MOL0     O 5838   8.044  -0.087   4.755  1.2407 -0.8094 -0.2755
   45MOL0     C 5839   7.928  -0.158   4.763 -0.2491 -1.0223  0.7290
   45MOL0     C 5840   7.927  -0.289   4.812 -0.6989 -0.7749  0.0197
   45MOL0     C 5841   7.810  -0.364   4.807 -0.3035 -0.4641 -0.3475
   45MOL0     C 5842   7.692  -0.316   4.748  0.0304  0.6529  0.2306
   45MOL0     O 5843   7.581  -0.394   4.744 -0.5438 -0.7413  0.8207
   45MOL0     C 5844   7.456  -0.324   4.745  0.1536 -0.9801 -0.3260
   45MOL0     C 5845   7.361  -0.438   4.720 -0.2794  0.8933  0.0529
   45MOL0     C 5846   7.224  -0.395   4.680  0.6419 -0.3144 -0.0074
   45MOL0     C 5847   7.137  -0.508   4.653 -0.4445 -0.2498  1.3948
   45MOL0     C 5848   7.156  -0.585   4.526 -0.4355 -0.5174  0.1357
   45MOL0     C 5849   7.057  -0.686   4.485 -0.3549  0.3314  0.4869
   45MOL0     C 5850   7.111  -0.800   4.387  0.5487  1.0712  0.0163
   45MOL0     C 5851   7.159  -0.741   4.255 -0.4131 -0.9778 -0.3980
   45MOL0    Cl 5852   7.025  -0.651   4.172  0.4849 -0.3582  0.1522
   45MOL0     C 5853   7.695  -0.176   4.709  0.1840 -0.6450 -0.7650
   45MOL0     C 5854   7.810  -0.096   4.714 -0.1500 -0.7473  0.4789
   45MOL0     O 5855   8.170  -0.244   4.651 -0.3449 -0.0352  0.0561
   45MOL0     C 5856   8.297   0.026   4.854  0.1068  0.4066  0.6597
   45MOL0     C 5857   8.422   0.083   4.880  0.1836 -0.4876  0.2945
   45MOL0     N 5858   9.239   0.357   4.878 -0.4454  0.4998  0.1826
   45MOL0     N 5859   9.353   0.350   4.820  0.1888  0.3235  0.4780
   45MOL0     C 5860  10.542   0.264   5.072 -0.5107  0.4612 -1.0387
   45MOL0     C 5861  10.674   0.316   5.086 -0.3474 -0.5580 -0.9015
   45MOL0     C 5862  10.995   0.627   5.172 -0.7327  0.2203  0.0424
   45MOL0     C 5863  11.050   0.737   5.113 -0.8291  0.0420  0.7573
   45MOL0     C 5864  11.179   0.779   5.146  0.6856  0.3784  0.6474
   45MOL0     C 5865  11.255   0.717   5.242  0.4774  0.2118 -0.9593
   45MOL0     O 5866  11.382   0.730   5.275 -0.2097 -0.7594 -0.3606
   45MOL0     C 5867  11.442   0.856   5.244 -0.3519 -0.2661  1.1175
   45MOL0     C 5868  11.574   0.870   5.321  0.6447  0.0570  0.4781
   45MOL0     C 5869  11.542   0.886   5.473 -0.0510 -0.1138 -0.4661
   45MOL0     C 5870  11.677   0.852   5.557 -0.3425  0.1659 -1.0117
   45MOL0     C 5871  11.760   0.972   5.550  1.2479  0.1637 -0.3396
   45MOL0     C 5872  11.840   1.061   5.558 -0.4961  0.5559  0.0171
   45MOL0     C 5873  11.192   0.615   5.306 -0.3865  0.7081  0.6288
   45MOL0     C 5874  11.071   0.564   5.273  0.1294  0.8487  1.2701
   45MOL0     H 5875  10.606   0.566   5.307  0.9023 -1.1008  1.4266
   45MOL0     H 5876  10.381   0.484   5.272  1.1542  1.3923 -1.6465
   45MOL0     H 5877  10.288   0.088   5.078 -0.5596  0.8621  1.4951
   45MOL0     H 5878  10.335   0.195   4.939 -1.5698  3.2219 -0.7633
   45MOL0     H 5879  10.085   0.292   4.974 -0.5946  0.8904  0.4170
   45MOL0     H 5880  10.070   0.151   5.069 -0.2526  0.6940  0.5408
   45MOL0     H 5881  10.141   0.005   4.901 -3.2353 -0.6484  1.8730
   45MOL0     H 5882  10.159   0.139   4.775  0.4091  0.0438  0.7184
   45MOL0     H 5883   9.949  -0.033   4.787 -1.8443  0.8617  0.6010
   45MOL0     H 5884   9.886   0.067   4.914  1.1002 -2.8188  1.0191
   45MOL0     H 5885   9.957   0.146   4.638 -1.2364  2.7743 -0.9139
   45MOL0     H 5886   9.919   0.270   4.760 -1.7013  0.1825  1.6382
   45MOL0     H 5887   9.735   0.038   4.681  0.2547  0.7797 -0.0834
   45MOL0     H 5888   9.714   0.196   4.615 -3.8048 -0.8599  0.1975
   45MOL0     H 5889   9.672   0.100   4.896  0.8176 -2.1785 -1.1370
   45MOL0     H 5890   9.646   0.275   4.862  1.9284  0.3533  1.2193
   45MOL0     H 5891   9.487   0.034   4.761 -2.2541 -0.2362  2.4721
   45MOL0     H 5892   9.491   0.181   4.659  2.3024 -1.7057 -0.4813
   45MOL0     H 5893   9.289   0.048   4.943  2.7518  0.5854  1.5558
   45MOL0     H 5894   8.994   0.279   5.023 -1.3193  0.6115 -1.5163
   45MOL0     H 5895   9.084   0.163   5.105  3.8724  0.7620 -0.6852
   45MOL0     H 5896   8.931   0.031   4.989 -2.6054  0.9751 -0.6786
   45MOL0     H 5897   9.050   0.019   4.874  1.1605 -0.7992  2.2985
   45MOL0     H 5898   8.842   0.260   4.856 -1.2742  0.8481 -1.3897
   45MOL0     H 5899   8.935   0.195   4.724  0.0456 -3.9108 -1.5752
   45MOL0     H 5900   8.809  -0.019   4.780  0.0790  0.3757  0.5486
   45MOL0     H 5901   8.718   0.109   4.690 -0.5987  3.1332  0.5787
   45MOL0     H 5902   8.629  -0.122   4.738  0.6605  1.1260 -1.7355
   45MOL0     H 5903   8.413  -0.230   4.661  0.8618 -0.4579  0.3683
   45MOL0     H 5904   8.019  -0.336   4.846 -0.5568  0.0125  0.7434
   45MOL0     H 5905   7.803  -0.464   4.850  0.5145 -0.4750 -0.2219
   45MOL0     H 5906   7.439  -0.246   4.671 -2.5475  0.8351  1.9875
   45MOL0     H 5907   7.452  -0.275   4.843 -0.7709  0.5173 -1.0748
   45MOL0     H 5908   7.358  -0.507   4.805 -0.8347  0.4572 -0.3110
   45MOL0     H 5909   7.410  -0.495   4.639 -0.3416  2.7388 -1.3441
   45MOL0     H 5910   7.227  -0.312   4.609  2.7435 -0.5223 -0.2117
   45MOL0     H 5911   7.186  -0.353   4.774  2.4539  1.1715  0.1025
   45MOL0     H 5912   7.160  -0.590   4.722  3.3739 -3.7197 -3.3089
   45MOL0     H 5913   7.033  -0.473   4.658 -1.8097 -3.6389 -0.3453
   45MOL0     H 5914   7.257  -0.628   4.530  0.6270  1.5366 -1.9313
   45MOL0     H 5915   7.166  -0.507   4.450 -0.6946  0.4594  1.0721
   45MOL0     H 5916   6.976  -0.639   4.430 -1.1684  0.5963  1.8787
   45MOL0     H 5917   7.022  -0.740   4.573  0.9519 -3.0783 -0.9319
   45MOL0     H 5918   7.189  -0.855   4.441 -0.6520 -0.1939  0.5336
   45MOL0     H 5919   7.034  -0.877   4.370 -0.5511  0.6807  5.0093
   45MOL0     H 5920   7.196  -0.815   4.184  0.4716 -0.7971 -0.1392
   45MOL0     H 5921   7.237  -0.669   4.281 -0.6222 -0.7820 -0.3037
   45MOL0     H 5922   7.610  -0.134   4.657 -0.3973 -2.7893 -1.6381
   45MOL0     H 5923   7.825   0.007   4.682  0.7548 -0.8892  0.4272
   45MOL0     H 5924   8.215   0.079   4.900  1.6275  2.2486  1.3666
   45MOL0     H 5925   8.437   0.175   4.937  1.0882  0.9055 -2.0578
   45MOL0     H 5926  10.525   0.183   5.001 -0.5764 -1.0111  0.6024
   45MOL0     H 5927  10.763   0.269   5.045 -0.4661 -0.7515 -0.9423
   45MOL0     H 5928  11.001   0.804   5.043  2.6080  0.2083 -1.7215
   45MOL0     H 5929  11.219   0.861   5.088  2.5545  0.8311  2.4868
   45MOL0     H 5930  11.379   0.945   5.251 -0.1123  0.4364 -2.8873
   45MOL0     H 5931  11.460   0.859   5.136 -1.7697  0.2167  0.8722
   45MOL0     H 5932  11.632   0.778   5.313  4.4438  1.9629  3.1311
   45MOL0     H 5933  11.632   0.955   5.282  1.8723  0.0805  2.2697
   45MOL0     H 5934  11.471   0.811   5.507  0.0087 -0.0471 -0.1934
   45MOL0     H 5935  11.487   0.974   5.504 -2.7715 -2.2057  1.0602
   45MOL0     H 5936  11.638   0.829   5.656 -0.8178 -1.9926 -1.6394
   45MOL0     H 5937  11.720   0.757   5.523 -1.8857 -2.1141  2.8106
   45MOL0     H 5938  11.915   1.138   5.558 -0.9628  1.0258 -0.7428
   45MOL0     H 5939  11.241   0.569   5.392  2.1861 -1.5271 -1.8579
   45MOL0     H 5940  11.030   0.478   5.324 -1.4004  0.8108  0.0582
   46MOL0     O 5941   9.544   8.918   8.296 -0.3545 -0.5839  0.8992
   46MOL0     C 5942   9.515   8.798   8.309 -1.0681  1.0120 -0.5925
   46MOL0     O 5943   9.391   8.743   8.283  0.4580 -0.7705 -0.5370
   46MOL0     C 5944   9.294   8.811   8.221  0.9267  0.8554  0.7170
   46MOL0     C 5945   9.207   8.890   8.313 -0.6143 -0.2525  0.5885
   46MOL0     C 5946   9.086   8.947   8.265 -0.0819 -0.0074  0.1898
   46MOL0     C 5947   9.037   8.919   8.137  0.9578  0.0087  0.3246
   46MOL0     O 5948   8.912   8.954   8.092 -0.8806 -0.2837  0.7583
   46MOL0     C 5949   8.877   9.099   8.091 -0.4531 -0.5668 -0.2788
   46MOL0     C 5950   8.792   9.128   7.967  0.5671 -0.6155 -0.7244
   46MOL0     C 5951   8.646   9.106   7.994 -0.7144 -0.0690 -0.4812
   46MOL0     C 5952   8.591   8.956   7.982  0.1499 -0.6609  0.1835
   46MOL0     C 5953   8.444   8.952   7.951  0.0880 -0.5901 -0.5792
   46MOL0     C 5954   8.347   8.996   8.070 -1.5784 -0.2250  0.3114
   46MOL0     C 5955   8.282   8.863   8.127 -0.5395 -0.1068 -0.4085
   46MOL0     C 5956   8.188   8.893   8.250 -0.9966 -0.5185 -0.1289
   46MOL0     N 5957   8.078   8.961   8.197 -0.0257  0.3707  0.8788
   46MOL0     C 5958   7.982   8.925   8.092  0.9040  0.1388 -0.4283
   46MOL0     C 5959   7.897   9.031   8.086  0.5534 -0.8816 -0.2085
   46MOL0     C 5960   7.768   9.032   8.006 -0.8347 -0.1117 -0.0618
   46MOL0     C 5961   7.653   9.004   8.097  0.2156 -0.3983 -0.0642
   46MOL0     C 5962   7.524   9.010   8.013 -0.8577 -0.0122 -0.6553
   46MOL0     C 5963   7.388   9.019   8.095 -0.1113 -0.5151 -0.3907
   46MOL0     O 5964   7.273   9.040   8.012 -0.2507 -0.1053 -0.6103
   46MOL0     C 5965   7.154   9.084   8.066  0.5031 -0.4452 -0.5188
   46MOL0     C 5966   7.088   9.036   8.175 -0.2022  0.0774 -0.6043
   46MOL0     C 5967   6.956   9.060   8.213 -0.0660  0.5906  0.0838
   46MOL0     C 5968   6.887   9.161   8.146  0.2126  0.1423 -0.0356
   46MOL0     C 5969   6.751   9.185   8.187 -0.4823 -0.0301  0.4369
   46MOL0     O 5970   6.697   9.087   8.266  0.1449  0.0164  0.2804
   46MOL0     C 5971   6.593   9.123   8.344 -0.3717  0.9552  0.6722
   46MOL0     C 5972   6.570   9.250   8.399  0.4011 -0.1866 -0.1975
   46MOL0     C 5973   6.458   9.266   8.481  1.4418  0.7140 -0.1146
   46MOL0     C 5974   6.380   9.150   8.508  0.9399 -1.2103 -1.0565
   46MOL0     O 5975   6.266   9.164   8.584  0.2694 -0.2555 -0.0336
   46MOL0     C 5976   6.255   9.286   8.664 -0.3853  0.5584  0.0017
   46MOL0     C 5977   6.157   9.273   8.780  0.2977 -0.3986 -0.0676
   46MOL0     C 5978   6.014   9.296   8.729  0.2897 -0.3998  1.0648
   46MOL0     C 5979   5.908   9.294   8.849  0.4890 -0.9604  0.7470
   46MOL0     C 5980   5.831   9.427   8.860 -0.3519 -0.1752 -0.9548
   46MOL0     C 5981   5.907   9.558   8.868  0.2567  0.2112 -0.7996
   46MOL0     C 5982   5.818   9.677   8.914 -0.0788  0.1488 -0.7091
   46MOL0     C 5983   5.723   9.712   8.796 -0.0055  0.5236 -0.1927
   46MOL0    Cl 5984   5.592   9.834   8.853 -0.1043  0.0966 -0.2571
   46MOL0     C 5985   6.407   9.027   8.454 -0.5408 -0.3593  0.0709
   46MOL0     C 5986   6.525   9.015   8.379  0.2378  0.2219  0.6571
   46MOL0     O 5987   6.692   9.283   8.144  0.5383 -0.2134  0.2254
   46MOL0     C 5988   6.945   9.215   8.031  0.1061  0.1188 -0.1133
   46MOL0     C 5989   7.077   9.179   7.994 -1.1024  0.0765  0.4462
   46MOL0     N 5990   7.948   9.135   8.167 -0.6567  0.1733 -0.7048
   46MOL0     N 5991   8.051   9.088   8.228 -0.1217  1.0155 -0.2317
   46MOL0     C 5992   9.115   8.839   8.053  0.0179  1.0399 -0.3402
   46MOL0     C 5993   9.243   8.786   8.093 -0.2396  0.6328 -0.4108
   46MOL0     C 5994   9.615   8.700   8.359 -0.0580 -0.5167 -0.3538
   46MOL0     C 5995   9.594   8.587   8.441 -0.7358  0.8043 -0.3727
   46MOL0     C 5996   9.696   8.498   8.480 -0.4972 -1.0201  0.2442
   46MOL0     C 5997   9.819   8.513   8.421  0.3243  0.4443 -0.2242
   46MOL0     O 5998   9.920   8.425   8.427 -0.0674  0.3340 -0.1310
   46MOL0     C 5999   9.909   8.308   8.507  0.7686 -0.5026  0.0028
   46MOL0     C 6000  10.030   8.230   8.484 -0.8497  0.0205  0.3836
   46MOL0     C 6001  10.053   8.171   8.338 -0.0546 -0.0970 -0.2515
   46MOL0     C 6002  10.187   8.096   8.326  0.0201  0.5348 -0.6274
   46MOL0     C 6003  10.292   8.195   8.329  0.2546 -0.2189  0.0129
   46MOL0     C 6004  10.363   8.291   8.367  0.0422  0.6303 -0.8109
   46MOL0     C 6005   9.851   8.625   8.352 -0.5385 -0.0808 -0.0543
   46MOL0     C 6006   9.751   8.724   8.326  0.2267  0.3530 -0.2669
   46MOL0     H 6007   9.243   8.899   8.415  0.7985  1.7991 -0.0175
   46MOL0     H 6008   9.023   9.007   8.331  0.4282  0.3124  0.3909
   46MOL0     H 6009   8.970   9.156   8.084 -1.8646  1.5855 -3.7992
   46MOL0     H 6010   8.834   9.120   8.190 -0.1602 -0.2932 -0.2071
   46MOL0     H 6011   8.819   9.065   7.881 -1.3421 -3.0310  0.3343
   46MOL0     H 6012   8.805   9.232   7.935  1.4228  0.1097  1.7784
   46MOL0     H 6013   8.602   9.173   7.919 -1.4079 -0.9707 -0.9043
   46MOL0     H 6014   8.624   9.150   8.092  0.8236 -0.3327  0.0124
   46MOL0     H 6015   8.643   8.910   7.898  1.3147 -1.8923  1.5303
   46MOL0     H 6016   8.615   8.897   8.071 -0.0037  2.5744  2.5064
   46MOL0     H 6017   8.437   8.845   7.929  2.4832 -0.3140 -3.2984
   46MOL0     H 6018   8.437   9.011   7.859 -0.0047 -1.7000 -1.2980
   46MOL0     H 6019   8.272   9.064   8.028 -0.0899 -1.3097 -4.8515
   46MOL0     H 6020   8.389   9.055   8.152 -4.7726  0.9113  1.2619
   46MOL0     H 6021   8.221   8.806   8.057 -0.2355 -1.4990  0.4337
   46MOL0     H 6022   8.366   8.799   8.157  0.4455  0.9228 -0.8661
   46MOL0     H 6023   8.232   8.949   8.333 -1.4678  0.2281 -0.3744
   46MOL0     H 6024   8.153   8.801   8.298 -1.5537  0.3626  1.2104
   46MOL0     H 6025   7.973   8.827   8.044  1.3580  0.1356 -0.5132
   46MOL0     H 6026   7.785   8.948   7.937  0.6436  1.8560 -2.2620
   46MOL0     H 6027   7.746   9.124   7.951 -3.1148 -2.2446 -3.0521
   46MOL0     H 6028   7.669   9.080   8.175  2.6851 -3.0629  2.2853
   46MOL0     H 6029   7.665   8.905   8.141  0.1652 -1.6794 -2.7962
   46MOL0     H 6030   7.521   9.092   7.941  1.5108  0.0424 -0.7468
   46MOL0     H 6031   7.527   8.920   7.951  0.3422 -1.0132  0.7747
   46MOL0     H 6032   7.388   9.096   8.173 -1.1952  0.1644 -1.0395
   46MOL0     H 6033   7.376   8.919   8.137  2.7666  0.4605  3.2326
   46MOL0     H 6034   7.130   8.958   8.237 -3.1617 -0.0991  1.4157
   46MOL0     H 6035   6.922   9.008   8.302 -0.3904 -0.4857 -0.6503
   46MOL0     H 6036   6.621   9.338   8.363  0.9216 -0.9041 -1.2703
   46MOL0     H 6037   6.432   9.362   8.525 -1.5383  0.1097 -0.3309
   46MOL0     H 6038   6.241   9.379   8.607  0.6747  1.2059  0.7615
   46MOL0     H 6039   6.356   9.311   8.699 -0.6868  3.0670 -0.6841
   46MOL0     H 6040   6.173   9.354   8.852  1.9811 -0.4958 -0.3116
   46MOL0     H 6041   6.158   9.176   8.831 -4.1135  1.9397  5.6435
   46MOL0     H 6042   5.996   9.219   8.652  1.6216  0.6864 -0.4032
   46MOL0     H 6043   6.007   9.392   8.677 -0.1728 -0.8366  0.3029
   46MOL0     H 6044   5.833   9.215   8.832  1.6776 -2.5242  2.4255
   46MOL0     H 6045   5.955   9.262   8.942 -0.4736  0.1388  1.6500
   46MOL0     H 6046   5.767   9.419   8.949 -0.7883 -0.1645 -1.2606
   46MOL0     H 6047   5.763   9.430   8.774  0.1510 -1.2821 -1.4133
   46MOL0     H 6048   5.945   9.586   8.769  0.8805  1.1121 -0.3071
   46MOL0     H 6049   5.988   9.555   8.940  0.4915  0.4226 -1.0546
   46MOL0     H 6050   5.760   9.657   9.005  1.7951 -1.8761  0.1211
   46MOL0     H 6051   5.885   9.757   8.945  0.5439  0.0299 -1.7249
   46MOL0     H 6052   5.670   9.625   8.756 -0.8146  0.6199  0.6366
   46MOL0     H 6053   5.785   9.763   8.722  0.0324  3.1001  1.4798
   46MOL0     H 6054   6.350   8.943   8.491 -0.6871 -0.3467 -0.1264
   46MOL0     H 6055   6.563   8.925   8.333 -1.5042 -0.2545  0.0630
   46MOL0     H 6056   6.898   9.296   7.975 -0.3084 -1.5298 -2.2915
   46MOL0     H 6057   7.112   9.228   7.904  2.4223  0.2810  1.7657
   46MOL0     H 6058   9.069   8.797   7.965 -0.2112 -2.1255  1.1502
   46MOL0     H 6059   9.291   8.707   8.036  0.8748  2.1435 -1.6150
   46MOL0     H 6060   9.500   8.560   8.488  0.5298  2.5781  3.6178
   46MOL0     H 6061   9.672   8.413   8.543 -5.1562  0.0344  0.2951
   46MOL0     H 6062   9.823   8.257   8.463  0.4905  0.1436 -0.2129
   46MOL0     H 6063   9.888   8.321   8.614  0.7687 -0.6539  0.0211
   46MOL0     H 6064  10.118   8.288   8.512 -1.2495  2.0615 -2.2368
   46MOL0     H 6065  10.027   8.150   8.559 -0.3535 -2.0493 -1.6749
   46MOL0     H 6066  10.054   8.253   8.266 -1.5113  1.2951  1.2262
   46MOL0     H 6067   9.970   8.108   8.304  0.9802 -1.0975 -1.0473
   46MOL0     H 6068  10.208   8.056   8.426  3.9150  1.8736 -0.7168
   46MOL0     H 6069  10.192   8.025   8.243 -2.2638 -3.1571  2.0718
   46MOL0     H 6070  10.406   8.388   8.372 -2.2160  1.6171  2.3746
   46MOL0     H 6071   9.946   8.646   8.303 -1.5826  1.5822 -1.4596
   46MOL0     H 6072   9.786   8.811   8.271  0.4188 -0.2599 -1.1410
   47MOL0     O 6073   0.030   3.008   6.448  0.5124  0.2223  0.1713
   47MOL0     C 6074   0.088   2.898   6.467 -0.2089 -0.3765 -0.2679
   47MOL0     O 6075   0.095   2.827   6.580 -0.4442 -0.6625  0.1187
   47MOL0     C 6076   0.002   2.865   6.676  0.7403  0.4716 -0.6888
   47MOL0     C 6077  -0.118   2.800   6.675 -0.6119  0.2272  0.2728
   47MOL0     C 6078  -0.227   2.835   6.754  0.0828  0.3188  0.4583
   47MOL0     C 6079  -0.213   2.941   6.848 -0.0453  0.1810  0.1777
   47MOL0     O 6080  -0.320   2.969   6.938  0.8057  0.5933  0.6113
   47MOL0     C 6081  -0.304   3.001   7.080  0.3497 -0.5891  0.6420
   47MOL0     C 6082  -0.434   2.972   7.149  0.3713  0.2095 -0.5158
   47MOL0     C 6083  -0.434   2.823   7.185  0.2800  0.0654  0.2274
   47MOL0     C 6084  -0.557   2.774   7.268  0.4803 -0.2205  0.9385
   47MOL0     C 6085  -0.685   2.771   7.191  0.1650 -0.7262  0.5151
   47MOL0     C 6086  -0.680   2.663   7.085 -0.3871 -0.1727  0.0166
   47MOL0     C 6087  -0.800   2.669   6.991 -0.4213  0.4793 -0.1892
   47MOL0     C 6088  -0.939   2.656   7.055  0.0189 -0.7895  0.6457
   47MOL0     N 6089  -1.051   2.641   6.955 -0.6619 -0.0875 -0.2789
   47MOL0     C 6090  -1.082   2.715   6.850 -0.8240  0.3010 -0.2299
   47MOL0     C 6091  -1.164   2.645   6.779 -0.4554  0.7213 -0.1936
   47MOL0     C 6092  -1.214   2.685   6.643  0.7411  1.1460  0.0103
   47MOL0     C 6093  -1.171   2.575   6.535 -0.0580 -0.5622 -0.8490
   47MOL0     C 6094  -1.153   2.626   6.388 -0.0112 -0.4335  0.3464
   47MOL0     C 6095  -1.265   2.679   6.314  0.1666  0.4402 -0.3564
   47MOL0     O 6096  -1.349   2.573   6.270  0.4571  0.2780  0.2816
   47MOL0     C 6097  -1.456   2.585   6.190 -0.7294 -0.3963  0.1468
   47MOL0     C 6098  -1.526   2.467   6.170 -0.1492  0.1424 -0.1336
   47MOL0     C 6099  -1.650   2.469   6.102 -0.7783 -0.3964  0.2303
   47MOL0     C 6100  -1.689   2.590   6.042  0.0914 -0.0824  0.2924
   47MOL0     C 6101  -1.826   2.591   5.968 -0.6266 -0.9886  0.4233
   47MOL0     O 6102  -1.904   2.478   5.978 -0.8702  0.3573  0.7041
   47MOL0     C 6103  -2.000   2.448   5.880 -0.5210  0.3310 -0.2231
   47MOL0     C 6104  -2.000   2.311   5.838  0.5167 -1.2201 -0.0236
   47MOL0     C 6105  -2.088   2.266   5.741  0.1017 -0.4656  0.6868
   47MOL0     C 6106  -2.172   2.355   5.675 -0.2351  0.5045  0.2430
   47MOL0     O 6107  -2.265   2.297   5.585 -0.3361  0.2781  0.6860
   47MOL0     C 6108  -2.280   2.377   5.472  0.1306 -1.0351 -0.4850
   47MOL0     C 6109  -2.333   2.295   5.353  0.4059  0.4004 -0.8240
   47MOL0     C 6110  -2.230   2.196   5.301 -0.7910 -0.6858 -0.3620
   47MOL0     C 6111  -2.268   2.122   5.178  0.2882 -1.0634  0.5957
   47MOL0     C 6112  -2.145   2.093   5.091 -0.2422 -1.2022 -0.0452
   47MOL0     C 6113  -2.161   1.970   4.989 -0.3829 -0.1896  0.5472
   47MOL0     C 6114  -2.148   1.845   5.076 -0.0502 -1.1018 -1.0445
   47MOL0     C 6115  -2.223   1.725   5.018 -0.0849 -0.5881  0.0607
   47MOL0    Cl 6116  -2.218   1.583   5.118 -0.2698  0.2221  0.2253
   47MOL0     C 6117  -2.164   2.489   5.707 -0.3809  0.1172 -0.6886
   47MOL0     C 6118  -2.084   2.541   5.812  0.1577  0.2575 -0.1033
   47MOL0     O 6119  -1.841   2.692   5.895  0.2715  0.3596  0.1061
   47MOL0     C 6120  -1.610   2.703   6.040 -0.0406  0.6591 -0.3708
   47MOL0     C 6121  -1.499   2.701   6.123 -0.0740 -0.1604  0.3145
   47MOL0     N 6122  -1.192   2.520   6.845 -0.3643 -0.0083 -0.3527
   47MOL0     N 6123  -1.119   2.523   6.952  0.4180  0.7725  2.1073
   47MOL0     C 6124  -0.087   3.009   6.856  0.3957 -0.7910  0.8027
   47MOL0     C 6125   0.007   2.981   6.762 -0.8408  0.9195 -0.1857
   47MOL0     C 6126   0.161   2.840   6.350 -0.4014  0.3330  0.7231
   47MOL0     C 6127   0.135   2.885   6.216 -1.3690  0.4903  0.4666
   47MOL0     C 6128   0.203   2.831   6.111  1.3749  0.6636  0.5015
   47MOL0     C 6129   0.293   2.723   6.127 -0.9171 -0.5933  0.0001
   47MOL0     O 6130   0.349   2.676   6.015  0.1391  0.8473 -0.1850
   47MOL0     C 6131   0.401   2.537   6.018  0.3964  1.0309 -0.4136
   47MOL0     C 6132   0.402   2.496   5.874 -0.6296  0.2791  0.4382
   47MOL0     C 6133   0.473   2.360   5.843  0.1321 -0.0478 -0.5860
   47MOL0     C 6134   0.409   2.282   5.725  1.2768 -0.0994  1.7379
   47MOL0     C 6135   0.450   2.142   5.731 -0.2651 -0.8027 -0.3246
   47MOL0     C 6136   0.507   2.040   5.760 -0.2314 -0.6937  1.0714
   47MOL0     C 6137   0.325   2.680   6.262  0.2703 -0.7513 -0.3934
   47MOL0     C 6138   0.256   2.736   6.366 -0.6802 -0.9317 -0.9830
   47MOL0     H 6139  -0.115   2.715   6.608 -0.6983 -0.3053  0.9362
   47MOL0     H 6140  -0.319   2.778   6.751  2.5332 -4.2587  2.3699
   47MOL0     H 6141  -0.282   3.107   7.095 -0.7219 -0.1614 -0.5833
   47MOL0     H 6142  -0.210   2.952   7.105  2.0839  2.2831  0.2217
   47MOL0     H 6143  -0.516   2.983   7.077  0.9476 -0.2459 -1.2590
   47MOL0     H 6144  -0.448   3.034   7.238  0.7993  0.4717 -0.6263
   47MOL0     H 6145  -0.339   2.795   7.231 -0.5236 -1.1746  1.2069
   47MOL0     H 6146  -0.418   2.756   7.100  2.5200 -2.0480  2.1854
   47MOL0     H 6147  -0.534   2.680   7.319 -1.2378  1.3800  5.0922
   47MOL0     H 6148  -0.574   2.843   7.351  0.6893  0.0527  0.7575
   47MOL0     H 6149  -0.692   2.871   7.146  2.6019 -1.0634 -0.7733
   47MOL0     H 6150  -0.769   2.746   7.257  0.7124 -1.8922  0.7961
   47MOL0     H 6151  -0.684   2.569   7.139 -0.6342  0.1150  0.5067
   47MOL0     H 6152  -0.588   2.663   7.026  1.1375 -0.1674  2.2905
   47MOL0     H 6153  -0.799   2.754   6.922 -3.7307 -0.6978 -1.8881
   47MOL0     H 6154  -0.793   2.583   6.924  0.5170  0.1028  0.3710
   47MOL0     H 6155  -0.964   2.746   7.111 -1.4426 -0.1919 -0.8688
   47MOL0     H 6156  -0.947   2.575   7.128 -1.1366 -1.6444 -0.3753
   47MOL0     H 6157  -1.050   2.817   6.827  3.0980 -0.8511 -0.6631
   47MOL0     H 6158  -1.166   2.779   6.613  0.7253  0.5975 -1.8606
   47MOL0     H 6159  -1.322   2.697   6.658  0.9586  1.0100  1.9677
   47MOL0     H 6160  -1.244   2.495   6.551 -0.8045  0.7398  3.5306
   47MOL0     H 6161  -1.069   2.551   6.567 -0.4516  1.5848  2.5003
   47MOL0     H 6162  -1.074   2.701   6.383 -0.4768  0.4854  4.1434
   47MOL0     H 6163  -1.106   2.534   6.351  1.0543 -0.0724  0.7841
   47MOL0     H 6164  -1.218   2.728   6.229  1.4442 -3.3239 -2.0440
   47MOL0     H 6165  -1.315   2.758   6.371  1.5113  1.8887 -1.1411
   47MOL0     H 6166  -1.489   2.378   6.220 -1.2549  1.2502  2.8619
   47MOL0     H 6167  -1.719   2.386   6.091 -0.7881 -0.5780  1.5556
   47MOL0     H 6168  -1.922   2.246   5.877  0.6417 -0.2786  1.3593
   47MOL0     H 6169  -2.099   2.160   5.723 -1.9960 -1.1092  4.7025
   47MOL0     H 6170  -2.193   2.427   5.430  0.4337 -0.9953  0.1801
   47MOL0     H 6171  -2.344   2.463   5.494 -1.0621 -1.9917 -0.0706
   47MOL0     H 6172  -2.368   2.351   5.265 -0.0729 -1.9855 -2.2482
   47MOL0     H 6173  -2.423   2.238   5.376  1.1945 -1.0979 -1.2826
   47MOL0     H 6174  -2.215   2.133   5.390 -0.3236  0.5817  0.4917
   47MOL0     H 6175  -2.140   2.255   5.284 -0.5379 -0.7674  0.6113
   47MOL0     H 6176  -2.324   2.034   5.211 -0.9517  0.0674  1.5923
   47MOL0     H 6177  -2.335   2.184   5.118  0.7163 -3.4965 -2.6874
   47MOL0     H 6178  -2.058   2.075   5.155  0.4994  1.4066 -0.2032
   47MOL0     H 6179  -2.118   2.184   5.036 -0.4760  0.2142  2.0655
   47MOL0     H 6180  -2.087   1.959   4.910 -3.0439 -2.9479 -1.8090
   47MOL0     H 6181  -2.258   1.971   4.939 -2.7614 -1.9985  4.5757
   47MOL0     H 6182  -2.042   1.819   5.089  1.3037  3.3246 -1.4482
   47MOL0     H 6183  -2.179   1.875   5.176  1.1078 -0.4805 -0.8430
   47MOL0     H 6184  -2.170   1.706   4.925 -2.6207  0.8708 -1.8135
   47MOL0     H 6185  -2.329   1.751   5.004  0.4888  1.8675 -0.0260
   47MOL0     H 6186  -2.237   2.563   5.676 -1.6016  0.8824  3.3612
   47MOL0     H 6187  -2.085   2.649   5.824 -1.6537  0.5929 -2.4952
   47MOL0     H 6188  -1.645   2.794   5.992  1.7019  0.3173 -2.4433
   47MOL0     H 6189  -1.440   2.791   6.135 -0.5090 -0.1969  3.8518
   47MOL0     H 6190  -0.050   3.092   6.914 -2.8822  0.9422  0.6332
   47MOL0     H 6191   0.098   3.040   6.762 -0.8028  0.8928 -1.4831
   47MOL0     H 6192   0.076   2.972   6.189  1.0037  1.7625 -1.0278
   47MOL0     H 6193   0.179   2.865   6.011 -2.1546 -2.2345  0.1263
   47MOL0     H 6194   0.341   2.476   6.087  2.2965 -1.1187 -0.5518
   47MOL0     H 6195   0.507   2.535   6.043  0.1256 -2.5316  1.0007
   47MOL0     H 6196   0.295   2.492   5.848 -0.3268 -1.0817 -0.7764
   47MOL0     H 6197   0.430   2.580   5.810 -1.9781 -0.8791 -1.8541
   47MOL0     H 6198   0.475   2.296   5.932  0.2559 -0.7402 -1.0825
   47MOL0     H 6199   0.576   2.388   5.816 -0.2724  0.3603 -1.7328
   47MOL0     H 6200   0.301   2.298   5.737  1.2244 -0.0191  1.1912
   47MOL0     H 6201   0.434   2.326   5.628 -4.2135 -4.3011 -2.2698
   47MOL0     H 6202   0.568   1.961   5.800  1.0750  0.6136  1.7793
   47MOL0     H 6203   0.398   2.604   6.288  2.4065  1.7518  1.5161
   47MOL0     H 6204   0.266   2.701   6.469 -0.1591 -0.1778 -0.7696
   48MOL0     O 6205   6.995   7.285   5.543  0.6004 -0.3524  0.3433
   48MOL0     C 6206   6.886   7.261   5.484 -0.1770  0.3254  0.5032
   48MOL0     O 6207   6.880   7.236   5.353 -0.5236 -0.2172  0.1258
   48MOL0     C 6208   6.988   7.227   5.269 -0.8894  0.4725 -0.5822
   48MOL0     C 6209   7.019   7.099   5.218 -0.0043  0.2567  0.5025
   48MOL0     C 6210   7.130   7.089   5.133 -0.3641 -0.9605 -0.0603
   48MOL0     C 6211   7.210   7.197   5.103  0.2800  0.6344 -0.1394
   48MOL0     O 6212   7.323   7.193   5.015  1.1602  0.0082  0.6212
   48MOL0     C 6213   7.378   7.062   4.968  1.0150  0.6056 -0.3874
   48MOL0     C 6214   7.503   7.065   4.888  0.2281  1.2480  0.5523
   48MOL0     C 6215   7.554   6.924   4.841  0.2914  0.2921  0.6367
   48MOL0     C 6216   7.684   6.926   4.760 -0.9259  0.1779  0.5629
   48MOL0     C 6217   7.729   6.778   4.728 -0.3416  1.4155 -0.3574
   48MOL0     C 6218   7.656   6.750   4.592  0.2097 -0.2545  0.7014
   48MOL0     C 6219   7.723   6.621   4.525  0.2556 -0.2190 -0.4410
   48MOL0     C 6220   7.658   6.587   4.384 -0.9207 -0.6159  0.0419
   48MOL0     N 6221   7.728   6.471   4.330  0.2243 -0.4254 -0.3666
   48MOL0     C 6222   7.858   6.450   4.303  0.1063  0.0321  0.2487
   48MOL0     C 6223   7.867   6.317   4.263 -0.2220 -0.3413 -0.7085
   48MOL0     C 6224   7.985   6.246   4.231 -0.2527 -0.1068 -0.0038
   48MOL0     C 6225   8.019   6.267   4.083 -0.6003 -0.4793  1.3715
   48MOL0     C 6226   8.057   6.410   4.028 -0.6951 -0.5075  0.0464
   48MOL0     C 6227   8.139   6.399   3.897  0.2768 -0.4339 -0.1363
   48MOL0     O 6228   8.253   6.316   3.915 -0.9503  0.3459 -0.9047
   48MOL0     C 6229   8.293   6.242   3.807 -0.8922 -0.2790  0.0520
   48MOL0     C 6230   8.387   6.279   3.710 -0.4236  1.3427 -0.2608
   48MOL0     C 6231   8.406   6.204   3.602 -0.2925 -0.2046 -0.5087
   48MOL0     C 6232   8.332   6.084   3.579  1.0983  0.2778  0.0523
   48MOL0     C 6233   8.335   6.011   3.452  0.7371  0.4905 -0.5782
   48MOL0     O 6234   8.224   5.926   3.439  0.2237  0.4434 -0.4708
   48MOL0     C 6235   8.217   5.852   3.325  0.5524  0.5690 -0.7509
   48MOL0     C 6236   8.095   5.845   3.258  0.8432 -0.5631  0.5077
   48MOL0     C 6237   8.079   5.755   3.147  0.2097 -0.5831  0.2982
   48MOL0     C 6238   8.183   5.678   3.099 -0.4744  0.4298  0.0178
   48MOL0     O 6239   8.164   5.601   2.989  0.5064  0.3966 -0.8501
   48MOL0     C 6240   8.245   5.484   2.973 -0.5326 -0.1217 -0.2825
   48MOL0     C 6241   8.226   5.423   2.834 -0.0925  0.6745  0.0087
   48MOL0     C 6242   8.097   5.342   2.816 -0.5333 -0.2329 -0.4273
   48MOL0     C 6243   8.108   5.244   2.696 -1.5845  0.0786  0.8430
   48MOL0     C 6244   7.978   5.178   2.649 -0.3221 -0.3541 -0.6407
   48MOL0     C 6245   7.892   5.130   2.761  0.2474 -0.8892  0.7372
   48MOL0     C 6246   7.955   5.005   2.835 -0.1828 -0.4296 -0.9144
   48MOL0     C 6247   7.886   4.871   2.797  0.5675  0.3684  0.4812
   48MOL0    Cl 6248   7.881   4.860   2.619  0.0653 -0.3858 -0.0527
   48MOL0     C 6249   8.314   5.682   3.173  0.4226  0.1693  0.7440
   48MOL0     C 6250   8.323   5.767   3.289  0.1449  0.4024  0.1740
   48MOL0     O 6251   8.416   6.041   3.363  0.3109 -0.1684 -0.3066
   48MOL0     C 6252   8.243   6.045   3.679  0.3636  0.3475 -0.4440
   48MOL0     C 6253   8.220   6.125   3.785  0.0711 -0.1468  0.1895
   48MOL0     N 6254   7.736   6.259   4.264 -0.4835 -0.0747 -0.0948
   48MOL0     N 6255   7.656   6.352   4.310 -0.6062 -0.5428  0.0506
   48MOL0     C 6256   7.179   7.321   5.162 -1.3311 -0.2046  0.1474
   48MOL0     C 6257   7.078   7.335   5.246 -0.4752  0.7845 -0.5345
   48MOL0     C 6258   6.764   7.252   5.558 -0.1703 -0.3392 -0.9243
   48MOL0     C 6259   6.768   7.261   5.702 -0.3931 -0.4557 -0.1189
   48MOL0     C 6260   6.661   7.233   5.782 -0.1638  0.3051 -0.5610
   48MOL0     C 6261   6.543   7.178   5.724  0.2168 -0.3181  0.4432
   48MOL0     O 6262   6.453   7.143   5.809  0.0163 -0.3983  0.0363
   48MOL0     C 6263   6.345   7.057   5.760  0.1249 -0.3314  0.1895
   48MOL0     C 6264   6.323   6.953   5.869  0.3664 -1.0019  0.2969
   48MOL0     C 6265   6.436   6.853   5.880 -0.0948  0.4559 -0.4272
   48MOL0     C 6266   6.412   6.748   5.984  0.0592  0.4330 -0.0059
   48MOL0     C 6267   6.536   6.660   6.005  0.0546 -0.4147  1.1545
   48MOL0     C 6268   6.642   6.599   5.993  0.5648  1.0753 -0.6501
   48MOL0     C 6269   6.531   7.179   5.586  0.2310  0.7367  0.7148
   48MOL0     C 6270   6.636   7.220   5.503 -0.1103  0.0160  0.0634
   48MOL0     H 6271   6.972   7.007   5.251 -0.1749  1.0960  2.8273
   48MOL0     H 6272   7.153   6.988   5.099  4.7642  0.4581 -1.7417
   48MOL0     H 6273   7.301   7.004   4.918  0.0688  0.2588  1.4001
   48MOL0     H 6274   7.402   7.011   5.062  0.2743  0.6617 -0.1614
   48MOL0     H 6275   7.586   7.104   4.947 -0.9864  0.2908  3.0628
   48MOL0     H 6276   7.467   7.130   4.808 -1.8202  0.5354  0.8227
   48MOL0     H 6277   7.485   6.856   4.790  0.7273 -0.7018  1.3254
   48MOL0     H 6278   7.579   6.875   4.936 -2.3799  0.3985  1.4585
   48MOL0     H 6279   7.681   6.994   4.674 -1.0612 -1.1469 -0.5047
   48MOL0     H 6280   7.764   6.978   4.814  1.8176 -1.6937 -1.3737
   48MOL0     H 6281   7.705   6.706   4.807  2.3441  2.3547  1.4623
   48MOL0     H 6282   7.837   6.764   4.714 -0.1722  1.1108  1.1141
   48MOL0     H 6283   7.676   6.835   4.526  1.9549 -1.2791 -0.1629
   48MOL0     H 6284   7.548   6.730   4.600  0.5284 -3.0055 -0.5568
   48MOL0     H 6285   7.829   6.637   4.506  0.0618 -0.1932 -1.5762
   48MOL0     H 6286   7.716   6.537   4.595  1.6188  0.0150 -0.0071
   48MOL0     H 6287   7.688   6.661   4.309 -1.4799 -0.0727  0.3465
   48MOL0     H 6288   7.551   6.572   4.398 -0.7348  0.6390  4.2186
   48MOL0     H 6289   7.952   6.505   4.309  1.7836 -2.7211  1.0453
   48MOL0     H 6290   7.977   6.139   4.247 -0.9020  0.3366  3.2486
   48MOL0     H 6291   8.067   6.279   4.296  0.5725 -2.9354  0.5160
   48MOL0     H 6292   7.944   6.222   4.017 -1.6846  3.2598 -0.2257
   48MOL0     H 6293   8.105   6.202   4.066 -1.8131 -1.6353 -0.6621
   48MOL0     H 6294   7.975   6.482   4.016  0.0801  0.0999 -2.0901
   48MOL0     H 6295   8.124   6.456   4.101  0.8736  0.4938 -1.9347
   48MOL0     H 6296   8.157   6.501   3.863  4.1402 -0.4102  1.4333
   48MOL0     H 6297   8.078   6.350   3.821 -1.0263 -0.2911  0.7910
   48MOL0     H 6298   8.432   6.377   3.721 -0.0822  1.3195 -1.3161
   48MOL0     H 6299   8.464   6.250   3.522 -3.2584  1.9957 -1.5828
   48MOL0     H 6300   8.016   5.908   3.297  0.9564 -0.2735  0.2752
   48MOL0     H 6301   7.987   5.739   3.090  0.0813 -2.2494  0.9093
   48MOL0     H 6302   8.217   5.405   3.043 -2.7742  0.1614 -0.7972
   48MOL0     H 6303   8.352   5.505   2.987 -0.2907 -1.9623  0.9815
   48MOL0     H 6304   8.310   5.361   2.803 -1.6467 -2.0368  0.8541
   48MOL0     H 6305   8.228   5.515   2.775  2.8512  0.0625 -0.9895
   48MOL0     H 6306   8.009   5.406   2.823 -0.6456 -0.5683  2.1654
   48MOL0     H 6307   8.088   5.288   2.911 -0.4869 -1.4965 -1.1300
   48MOL0     H 6308   8.145   5.288   2.603 -2.6840  1.0644  0.8421
   48MOL0     H 6309   8.176   5.168   2.735 -2.8216 -0.8319  1.2896
   48MOL0     H 6310   8.009   5.097   2.582  0.7425 -0.4071 -0.1005
   48MOL0     H 6311   7.923   5.261   2.603 -1.0965  1.2728  2.9008
   48MOL0     H 6312   7.792   5.103   2.727 -1.6618  0.1476  4.8515
   48MOL0     H 6313   7.881   5.214   2.831 -0.0833 -0.4177  0.1235
   48MOL0     H 6314   8.062   5.012   2.817  0.0926  2.5774  1.2575
   48MOL0     H 6315   7.940   5.021   2.942  1.0677 -1.2411 -0.6000
   48MOL0     H 6316   7.788   4.871   2.845 -0.5467 -3.4161 -1.3644
   48MOL0     H 6317   7.943   4.784   2.832 -0.1796  0.4243  1.8777
   48MOL0     H 6318   8.395   5.617   3.140 -0.8497 -1.2790  0.3655
   48MOL0     H 6319   8.420   5.769   3.339 -1.3929  0.7930  3.3362
   48MOL0     H 6320   8.187   5.953   3.663  0.3151 -0.0783  1.9341
   48MOL0     H 6321   8.154   6.103   3.868  0.7658  0.0890  0.8165
   48MOL0     H 6322   7.245   7.406   5.145 -2.9567  1.8157  3.1046
   48MOL0     H 6323   7.059   7.426   5.302 -1.4208  0.2266  0.0706
   48MOL0     H 6324   6.861   7.301   5.740  1.7292 -1.4591 -3.7451
   48MOL0     H 6325   6.665   7.251   5.889 -2.6151 -0.8367 -0.2099
   48MOL0     H 6326   6.368   7.001   5.669  0.4274 -0.5286  0.3835
   48MOL0     H 6327   6.253   7.116   5.755 -0.3826 -1.0807  0.4698
   48MOL0     H 6328   6.310   7.001   5.967 -0.6435  2.3055 -1.3191
   48MOL0     H 6329   6.234   6.895   5.841 -1.9302  1.6188  1.6609
   48MOL0     H 6330   6.518   6.919   5.913  1.3712 -1.9069  0.9657
   48MOL0     H 6331   6.461   6.811   5.783 -1.4768 -0.2724 -0.4933
   48MOL0     H 6332   6.382   6.800   6.075 -0.7407  0.0643 -0.0583
   48MOL0     H 6333   6.332   6.686   5.943  1.0995 -0.0185 -1.4325
   48MOL0     H 6334   6.725   6.534   6.012 -0.1592  0.2112 -0.3309
   48MOL0     H 6335   6.441   7.133   5.547  0.4890  1.5302 -0.8632
   48MOL0     H 6336   6.643   7.228   5.395  1.9700  7.5513  0.1745
   49MOL0     O 6337  10.789   2.051  10.779  0.2698 -0.2626 -0.5024
   49MOL0     C 6338  10.865   2.025  10.687  0.4974 -0.0660 -0.0326
   49MOL0     O 6339  10.918   1.900  10.651 -0.3192 -0.3367 -0.1201
   49MOL0     C 6340  10.881   1.799  10.734 -0.1968 -0.0389 -0.3380
   49MOL0     C 6341  10.770   1.723  10.702 -0.2823 -0.1435 -0.5200
   49MOL0     C 6342  10.740   1.613  10.776  1.2652 -0.2265 -0.2150
   49MOL0     C 6343  10.818   1.579  10.886 -0.8269  0.4052  0.9794
   49MOL0     O 6344  10.766   1.474  10.958  0.9468  0.3542 -0.2602
   49MOL0     C 6345  10.695   1.499  11.079 -0.3683  1.3091  0.0518
   49MOL0     C 6346  10.683   1.356  11.138 -0.2681 -1.1625 -0.9777
   49MOL0     C 6347  10.571   1.285  11.059 -0.5322 -0.3541  0.2824
   49MOL0     C 6348  10.606   1.140  11.057 -0.4311  0.7101  0.0518
   49MOL0     C 6349  10.481   1.054  11.020  0.4308  0.2769 -0.1902
   49MOL0     C 6350  10.503   0.906  11.068 -0.4918 -0.5703 -0.5424
   49MOL0     C 6351  10.382   0.810  11.047 -0.1427  0.5251 -0.3208
   49MOL0     C 6352  10.411   0.672  11.103 -0.4616  0.7849 -0.3530
   49MOL0     N 6353  10.427   0.665  11.248  0.8871  0.1440  0.4715
   49MOL0     C 6354  10.543   0.628  11.321 -0.3550 -0.0372  0.4197
   49MOL0     C 6355  10.518   0.685  11.445 -0.1076 -0.6282  0.1728
   49MOL0     C 6356  10.624   0.683  11.570  0.1853  0.4024  0.4088
   49MOL0     C 6357  10.571   0.752  11.694 -0.8295 -0.6501 -0.8188
   49MOL0     C 6358  10.677   0.766  11.812  0.1086  0.8857  0.0753
   49MOL0     C 6359  10.810   0.702  11.813 -0.2541  0.6249 -0.3208
   49MOL0     O 6360  10.897   0.768  11.723 -0.4164 -0.5471 -0.3842
   49MOL0     C 6361  11.030   0.752  11.725  0.8498 -0.1228  0.6208
   49MOL0     C 6362  11.102   0.832  11.636 -0.6182  0.9597 -0.3134
   49MOL0     C 6363  11.238   0.825  11.623  0.4465 -0.0585 -0.1886
   49MOL0     C 6364  11.307   0.733  11.704 -0.8668 -0.7462  0.0241
   49MOL0     C 6365  11.457   0.707  11.681 -0.1801 -0.7593 -0.3702
   49MOL0     O 6366  11.512   0.624  11.780  0.2757  0.2472 -0.3601
   49MOL0     C 6367  11.632   0.566  11.759  0.0616  0.5337  0.0550
   49MOL0     C 6368  11.743   0.621  11.819 -0.5753  0.3585 -0.7303
   49MOL0     C 6369  11.869   0.557  11.810 -0.6778  0.3704 -0.3687
   49MOL0     C 6370  11.881   0.442  11.729 -0.2751  0.4994  0.2214
   49MOL0     O 6371  12.000   0.377  11.729  0.5411  0.4099  0.1234
   49MOL0     C 6372  12.123   0.447  11.728  0.8372  0.7121 -0.9497
   49MOL0     C 6373  12.233   0.337  11.738  0.4907  1.0130  0.6564
   49MOL0     C 6374  12.370   0.386  11.777  0.7134 -0.8390 -0.1852
   49MOL0     C 6375  12.386   0.415  11.927 -0.3762  0.7173  0.2744
   49MOL0     C 6376  12.536   0.417  11.957 -0.0167  0.4540  0.4872
   49MOL0     C 6377  12.567   0.495  12.078  0.3776  0.5672  0.7489
   49MOL0     C 6378  12.717   0.497  12.108  0.2003 -0.5100  0.3772
   49MOL0     C 6379  12.735   0.566  12.244 -0.2626  0.5826  0.6119
   49MOL0    Cl 6380  12.913   0.591  12.302  0.4050  0.2479 -0.3192
   49MOL0     C 6381  11.766   0.380  11.665 -0.3869  0.0972  0.4143
   49MOL0     C 6382  11.655   0.447  11.681  0.7269 -0.4513  0.1279
   49MOL0     O 6383  11.520   0.760  11.596  0.0659  0.5307  0.3063
   49MOL0     C 6384  11.239   0.671  11.811 -0.0507  0.5531  0.1439
   49MOL0     C 6385  11.100   0.678  11.814  0.6956 -0.4780  0.6770
   49MOL0     N 6386  10.389   0.740  11.443  0.9095  0.3025  0.8672
   49MOL0     N 6387  10.338   0.732  11.322  0.1000  0.4175 -0.2661
   49MOL0     C 6388  10.934   1.639  10.917  0.5818 -0.3288  0.6156
   49MOL0     C 6389  10.962   1.755  10.842  0.1188 -1.2685 -0.0375
   49MOL0     C 6390  10.899   2.147  10.604 -0.3191  0.4396 -0.7832
   49MOL0     C 6391  10.867   2.278  10.644  0.0813  0.0967 -0.4890
   49MOL0     C 6392  10.902   2.390  10.571 -0.3398 -0.0706  0.3400
   49MOL0     C 6393  10.963   2.368  10.453 -1.6052  0.0227 -0.1641
   49MOL0     O 6394  11.000   2.474  10.371 -0.6751 -0.3689  0.3164
   49MOL0     C 6395  11.126   2.526  10.391  0.1759 -0.3978  0.1215
   49MOL0     C 6396  11.157   2.611  10.268  1.5242 -0.3802  0.4477
   49MOL0     C 6397  11.163   2.539  10.129 -0.3785 -0.2077 -0.5654
   49MOL0     C 6398  11.213   2.635  10.026 -0.2133  0.8594 -0.7613
   49MOL0     C 6399  11.354   2.660  10.050  0.3186  0.6879 -0.6718
   49MOL0     C 6400  11.472   2.686  10.057 -0.2782  0.2637  1.4171
   49MOL0     C 6401  10.986   2.239  10.399 -0.8403 -0.0847 -0.9997
   49MOL0     C 6402  10.957   2.125  10.478 -0.2436  0.3405  0.0830
   49MOL0     H 6403  10.696   1.759  10.630  0.1164  0.6769 -0.5331
   49MOL0     H 6404  10.651   1.553  10.759  1.1667  0.2008 -1.3054
   49MOL0     H 6405  10.599   1.547  11.059 -1.3441 -1.3406 -2.4166
   49MOL0     H 6406  10.752   1.566  11.144  0.3894 -1.2878  2.2869
   49MOL0     H 6407  10.655   1.348  11.243 -2.9966 -2.9896 -1.7213
   49MOL0     H 6408  10.781   1.312  11.118 -0.1728 -1.0589 -0.7384
   49MOL0     H 6409  10.574   1.310  10.953  0.4778  1.0295  0.5977
   49MOL0     H 6410  10.478   1.302  11.114 -0.6942  1.2969 -0.4328
   49MOL0     H 6411  10.695   1.123  10.996 -0.2589  1.8874 -0.0486
   49MOL0     H 6412  10.627   1.113  11.161  4.1816  0.1748 -0.7976
   49MOL0     H 6413  10.461   1.046  10.913 -0.6108 -0.5358  0.0428
   49MOL0     H 6414  10.393   1.095  11.071 -0.8825 -0.7059 -1.5809
   49MOL0     H 6415  10.525   0.900  11.175  1.1090  1.3969 -0.7093
   49MOL0     H 6416  10.598   0.870  11.026 -0.2845 -0.2318 -0.3667
   49MOL0     H 6417  10.294   0.848  11.100 -0.7617 -0.3586 -0.6947
   49MOL0     H 6418  10.372   0.810  10.939  1.4295  1.2751 -0.4990
   49MOL0     H 6419  10.502   0.634  11.055  0.1857  0.8122  0.8372
   49MOL0     H 6420  10.332   0.596  11.092  0.7925 -0.6004 -0.1221
   49MOL0     H 6421  10.633   0.573  11.294 -0.4502 -0.9258  1.8238
   49MOL0     H 6422  10.711   0.740  11.535  0.2147 -1.3224 -2.5939
   49MOL0     H 6423  10.659   0.580  11.580 -0.0235 -0.1023 -2.9942
   49MOL0     H 6424  10.485   0.695  11.732  0.1434 -0.5607  1.7490
   49MOL0     H 6425  10.529   0.849  11.664 -0.2642 -0.2888 -0.4576
   49MOL0     H 6426  10.711   0.870  11.807  2.5406  0.0820 -1.8543
   49MOL0     H 6427  10.627   0.738  11.906  1.2751  0.4216  0.5711
   49MOL0     H 6428  10.805   0.597  11.783  0.3432 -0.1147  1.9277
   49MOL0     H 6429  10.848   0.695  11.915 -0.4509  2.2048 -0.1130
   49MOL0     H 6430  11.043   0.904  11.582 -0.4675  0.6109 -0.9581
   49MOL0     H 6431  11.294   0.887  11.553  1.8461  0.1889  1.0929
   49MOL0     H 6432  11.738   0.719  11.865  1.6263 -0.5558  1.7015
   49MOL0     H 6433  11.966   0.595  11.841 -0.4185 -1.5548  1.4591
   49MOL0     H 6434  12.136   0.502  11.822 -2.1765  0.8001 -0.4993
   49MOL0     H 6435  12.130   0.516  11.643  1.5917 -0.6915 -2.0794
   49MOL0     H 6436  12.227   0.286  11.641 -2.8990  1.3876  0.5592
   49MOL0     H 6437  12.202   0.255  11.803  0.1007  0.4061 -0.2664
   49MOL0     H 6438  12.415   0.473  11.728  1.3500 -0.4231  1.0800
   49MOL0     H 6439  12.429   0.297  11.754  0.6510 -1.0816  0.5462
   49MOL0     H 6440  12.350   0.517  11.943  1.4058  1.7764 -1.9200
   49MOL0     H 6441  12.328   0.336  11.974 -2.6961  1.5773 -0.9771
   49MOL0     H 6442  12.598   0.435  11.869 -1.6020 -2.1846 -1.3200
   49MOL0     H 6443  12.564   0.315  11.986 -3.0387  0.8806  6.4782
   49MOL0     H 6444  12.513   0.444  12.159  4.6363 -0.7555  3.0681
   49MOL0     H 6445  12.528   0.593  12.051 -0.4060 -0.3566 -1.8062
   49MOL0     H 6446  12.757   0.395  12.116 -1.4303 -1.0564  3.0535
   49MOL0     H 6447  12.764   0.541  12.020 -5.8474  2.0374 -2.1541
   49MOL0     H 6448  12.693   0.497  12.317 -0.0729 -0.9992 -0.7173
   49MOL0     H 6449  12.685   0.663  12.249  1.3297  1.4018  1.2642
   49MOL0     H 6450  11.782   0.297  11.597  0.5827 -2.4313  3.5000
   49MOL0     H 6451  11.568   0.419  11.622 -1.0043  1.4368  1.6201
   49MOL0     H 6452  11.290   0.620  11.892  3.2115 -0.6927 -2.5166
   49MOL0     H 6453  11.046   0.627  11.894 -0.0250 -1.6163 -0.4920
   49MOL0     H 6454  10.988   1.601  11.003 -0.1811  1.3695  1.9320
   49MOL0     H 6455  11.054   1.806  10.868 -2.1018  3.1216  0.0657
   49MOL0     H 6456  10.821   2.285  10.742  1.9974  0.4307  0.4315
   49MOL0     H 6457  10.885   2.484  10.622 -0.8501 -0.2929  0.5884
   49MOL0     H 6458  11.194   2.441  10.408  2.0419  0.9829 -0.1103
   49MOL0     H 6459  11.125   2.588  10.481  2.6652  0.7383 -0.5560
   49MOL0     H 6460  11.083   2.690  10.251  1.4670 -0.7803 -1.3292
   49MOL0     H 6461  11.250   2.660  10.297  1.3014  0.9047 -0.8876
   49MOL0     H 6462  11.059   2.510  10.114 -0.4781 -1.0317  1.4255
   49MOL0     H 6463  11.225   2.451  10.147 -1.1799 -0.0304  4.7008
   49MOL0     H 6464  11.196   2.588   9.928 -0.0153  0.3778 -0.5670
   49MOL0     H 6465  11.156   2.728  10.023 -0.5181  0.7030  0.0711
   49MOL0     H 6466  11.577   2.706  10.066 -0.2226  0.3714  0.6390
   49MOL0     H 6467  11.048   2.235  10.311  2.5583  1.6063  1.0754
   49MOL0     H 6468  11.001   2.027  10.461 -1.1406  0.1316 -1.2062
   50MOL0     O 6469  10.712   5.233   3.803  0.3321 -0.4176 -0.3783
   50MOL0     C 6470  10.653   5.122   3.797 -0.0754 -0.5049  0.6930
   50MOL0     O 6471  10.518   5.106   3.787 -0.5787 -0.0605 -0.5307
   50MOL0     C 6472  10.450   5.217   3.822  0.1714 -0.6030  0.2389
   50MOL0     C 6473  10.483   5.309   3.924  0.5222  1.8223  0.2886
   50MOL0     C 6474  10.403   5.424   3.937  0.5587 -0.1354  0.6947
   50MOL0     C 6475  10.295   5.458   3.856 -0.3970 -0.1180 -0.4596
   50MOL0     O 6476  10.237   5.579   3.858 -0.6406 -0.2532 -0.6572
   50MOL0     C 6477  10.329   5.683   3.831 -0.6834 -0.6047 -0.2250
   50MOL0     C 6478  10.246   5.803   3.761 -0.4899  0.5480 -0.5469
   50MOL0     C 6479  10.328   5.898   3.681 -0.3110  0.1449 -0.4039
   50MOL0     C 6480  10.258   6.041   3.676  0.6160  0.3335  0.4532
   50MOL0     C 6481  10.330   6.137   3.581  0.7230  1.0654 -0.2411
   50MOL0     C 6482  10.341   6.100   3.432 -0.9614 -0.0180  0.1142
   50MOL0     C 6483  10.217   6.047   3.367 -0.0666 -0.8338 -0.0495
   50MOL0     C 6484  10.124   6.169   3.337 -0.7685 -0.2293  0.6756
   50MOL0     N 6485  10.014   6.128   3.258 -0.2892 -1.1350 -0.2431
   50MOL0     C 6486  10.027   6.091   3.121  0.9515 -0.3332 -0.8020
   50MOL0     C 6487   9.903   6.037   3.104  0.0460 -0.5367 -0.3766
   50MOL0     C 6488   9.849   5.967   2.980 -1.0901 -0.8415 -0.3434
   50MOL0     C 6489   9.933   6.006   2.855  0.4718  0.3937  0.2275
   50MOL0     C 6490   9.887   5.924   2.741  0.0487  0.2191  0.8557
   50MOL0     C 6491   9.745   5.940   2.693 -0.1278  0.0260 -0.4753
   50MOL0     O 6492   9.699   5.827   2.622 -0.1049 -0.1057 -0.2294
   50MOL0     C 6493   9.587   5.822   2.553  0.1177  0.4489 -0.0252
   50MOL0     C 6494   9.588   5.706   2.471 -0.2527 -1.1540  0.3432
   50MOL0     C 6495   9.486   5.691   2.381 -0.4217 -0.5001 -0.2576
   50MOL0     C 6496   9.380   5.773   2.368 -0.1949  0.6053  0.2858
   50MOL0     C 6497   9.282   5.750   2.262  0.0052 -1.1085 -0.6446
   50MOL0     O 6498   9.299   5.641   2.178 -0.3825  1.0079  0.2300
   50MOL0     C 6499   9.196   5.589   2.105  0.3797  0.1492  0.9829
   50MOL0     C 6500   9.194   5.577   1.967 -0.0086 -1.1870 -0.3646
   50MOL0     C 6501   9.086   5.519   1.904 -0.5476  0.4036  0.0312
   50MOL0     C 6502   8.976   5.464   1.977 -0.3416  0.1787 -0.4034
   50MOL0     O 6503   8.869   5.394   1.929 -0.5897  0.0271 -0.0500
   50MOL0     C 6504   8.887   5.348   1.795  0.8219 -0.7299 -0.7674
   50MOL0     C 6505   8.766   5.264   1.763 -0.2980 -0.1150 -0.3167
   50MOL0     C 6506   8.652   5.359   1.752 -0.8141 -0.2818 -0.6671
   50MOL0     C 6507   8.526   5.272   1.728 -0.4587 -0.1124  0.4688
   50MOL0     C 6508   8.403   5.353   1.705 -0.4858 -0.2909 -0.8514
   50MOL0     C 6509   8.402   5.392   1.557 -0.1615 -0.9591 -0.3782
   50MOL0     C 6510   8.272   5.481   1.541 -0.6362 -0.3533  0.3238
   50MOL0     C 6511   8.303   5.630   1.555  1.1274  0.2287 -0.3302
   50MOL0    Cl 6512   8.140   5.725   1.595  0.0497  0.1969  0.2940
   50MOL0     C 6513   8.976   5.477   2.111  0.2849  0.7930  0.1491
   50MOL0     C 6514   9.097   5.528   2.175  0.4399  0.1583  0.2254
   50MOL0     O 6515   9.187   5.837   2.258 -0.7891 -0.1508  0.2752
   50MOL0     C 6516   9.383   5.895   2.442  0.3102 -0.7297 -0.8521
   50MOL0     C 6517   9.484   5.916   2.540  0.0803  0.9088  0.6042
   50MOL0     N 6518   9.831   6.044   3.210  0.2492  0.8824  0.0519
   50MOL0     N 6519   9.894   6.096   3.304 -0.0013 -0.1926  0.2193
   50MOL0     C 6520  10.264   5.367   3.758 -0.1567 -1.4461 -0.4597
   50MOL0     C 6521  10.344   5.248   3.742  0.5598  0.1136  0.9303
   50MOL0     C 6522  10.734   5.003   3.772 -0.3607 -0.7825  0.0512
   50MOL0     C 6523  10.682   4.879   3.745  0.8173 -0.5823 -1.0893
   50MOL0     C 6524  10.757   4.768   3.716 -0.0930 -0.2495 -0.1443
   50MOL0     C 6525  10.896   4.780   3.706  0.5226 -0.1579  0.1247
   50MOL0     O 6526  10.961   4.664   3.672 -0.6456  0.3149  0.2719
   50MOL0     C 6527  11.106   4.662   3.646  1.0799 -0.3257 -0.6907
   50MOL0     C 6528  11.190   4.627   3.776  0.3400  0.3445  0.2487
   50MOL0     C 6529  11.320   4.564   3.725  0.4271 -0.6494 -0.3481
   50MOL0     C 6530  11.403   4.507   3.839 -0.2241 -0.4850 -1.3826
   50MOL0     C 6531  11.441   4.616   3.927 -0.1667  0.4242  0.6562
   50MOL0     C 6532  11.448   4.710   4.009  0.1091  1.7444 -0.4692
   50MOL0     C 6533  10.954   4.911   3.726 -0.2044 -0.0440  0.1505
   50MOL0     C 6534  10.872   5.013   3.761 -0.2935  0.2950  0.4228
   50MOL0     H 6535  10.569   5.292   3.987  0.0551  0.6107  0.6237
   50MOL0     H 6536  10.435   5.496   4.012  0.1112  1.3959 -0.5273
   50MOL0     H 6537  10.403   5.641   3.763 -2.4936 -2.4584 -1.1843
   50MOL0     H 6538  10.383   5.712   3.921 -0.3686 -0.4393 -0.4661
   50MOL0     H 6539  10.210   5.866   3.843  4.1536  1.3127  1.2274
   50MOL0     H 6540  10.171   5.753   3.700  1.0918  0.8589 -2.8550
   50MOL0     H 6541  10.342   5.852   3.583 -1.0098 -1.2767  0.1339
   50MOL0     H 6542  10.419   5.935   3.728 -2.8609  2.7817  2.9792
   50MOL0     H 6543  10.150   6.044   3.659 -0.0020  0.1794  3.6894
   50MOL0     H 6544  10.270   6.078   3.778  1.2827  0.1864  0.4364
   50MOL0     H 6545  10.433   6.150   3.616  0.3222  0.1230  1.3408
   50MOL0     H 6546  10.277   6.231   3.598  1.5638  1.0499  3.0357
   50MOL0     H 6547  10.420   6.024   3.430 -0.0214  0.6120  4.1306
   50MOL0     H 6548  10.374   6.185   3.371 -2.4381 -0.0932 -0.8339
   50MOL0     H 6549  10.233   5.995   3.272  0.0795 -1.8121  0.4963
   50MOL0     H 6550  10.165   5.965   3.417  1.2680 -0.8770  1.3521
   50MOL0     H 6551  10.181   6.236   3.271 -1.9430  0.7637  0.6489
   50MOL0     H 6552  10.078   6.212   3.427 -3.0086  0.1849 -0.5928
   50MOL0     H 6553  10.116   6.085   3.058  1.8329  4.4437 -0.3502
   50MOL0     H 6554   9.744   5.991   2.965 -0.8816 -0.0879 -0.6455
   50MOL0     H 6555   9.857   5.858   2.988 -1.9671 -0.9130 -0.3432
   50MOL0     H 6556  10.039   5.978   2.847  1.1341  2.9189 -0.8290
   50MOL0     H 6557   9.922   6.112   2.829  2.5576  0.5037 -0.3721
   50MOL0     H 6558   9.951   5.953   2.657  1.1247  0.1636  1.6443
   50MOL0     H 6559   9.903   5.819   2.765  3.7258  1.0726  2.7853
   50MOL0     H 6560   9.724   6.029   2.633 -0.2633  0.0908 -0.3311
   50MOL0     H 6561   9.674   5.941   2.776 -0.1516 -0.3154 -0.4910
   50MOL0     H 6562   9.660   5.626   2.486 -0.4954 -1.4134  0.1275
   50MOL0     H 6563   9.511   5.608   2.316  1.0263  0.2997 -0.7703
   50MOL0     H 6564   9.270   5.611   1.898 -2.2005  1.2983 -1.7862
   50MOL0     H 6565   9.090   5.506   1.797 -0.5626 -0.2614  0.1055
   50MOL0     H 6566   8.976   5.285   1.790  0.8170 -0.6804 -1.5820
   50MOL0     H 6567   8.900   5.432   1.726  1.4444 -0.0347  0.1753
   50MOL0     H 6568   8.762   5.187   1.840  0.3423  1.5673  1.4556
   50MOL0     H 6569   8.785   5.223   1.663  0.2705 -0.0776 -0.2260
   50MOL0     H 6570   8.666   5.429   1.670 -1.7032  1.6485  0.7446
   50MOL0     H 6571   8.636   5.418   1.843  4.1795 -1.3437  1.2588
   50MOL0     H 6572   8.561   5.213   1.643  2.1117 -2.9563  3.2617
   50MOL0     H 6573   8.498   5.212   1.815  1.7758 -0.0106  1.3034
   50MOL0     H 6574   8.392   5.435   1.776  0.6232 -1.5068  0.8055
   50MOL0     H 6575   8.323   5.278   1.709 -1.3764  0.7033  0.9923
   50MOL0     H 6576   8.392   5.302   1.496 -0.4832 -0.1944 -1.4717
   50MOL0     H 6577   8.492   5.448   1.526 -0.2564 -0.5940 -0.0050
   50MOL0     H 6578   8.240   5.476   1.436 -1.7921  1.7237  0.5377
   50MOL0     H 6579   8.202   5.439   1.614 -0.1028  1.5164  1.9881
   50MOL0     H 6580   8.335   5.666   1.456  0.2449  1.1905 -0.2788
   50MOL0     H 6581   8.386   5.651   1.623  1.7063 -1.2333 -0.5383
   50MOL0     H 6582   8.894   5.437   2.168 -0.1915 -0.1261 -1.1376
   50MOL0     H 6583   9.098   5.527   2.283 -2.5299 -2.1716  0.3844
   50MOL0     H 6584   9.302   5.967   2.440  1.1592  0.5137  2.5590
   50MOL0     H 6585   9.481   5.995   2.613  1.9583  2.8308 -1.2398
   50MOL0     H 6586  10.187   5.400   3.689  1.7281  1.1502 -1.5189
   50MOL0     H 6587  10.327   5.181   3.658 -7.0556  3.3176 -0.9811
   50MOL0     H 6588  10.575   4.874   3.764  1.3885 -3.2775  2.2814
   50MOL0     H 6589  10.714   4.673   3.686 -0.9654  0.8392 -2.5653
   50MOL0     H 6590  11.136   4.765   3.622 -2.2300  0.9903  0.2000
   50MOL0     H 6591  11.135   4.598   3.562  0.1759  0.3308 -1.5295
   50MOL0     H 6592  11.202   4.722   3.829 -0.0257 -0.2743  1.4790
   50MOL0     H 6593  11.133   4.551   3.831  1.0930 -1.2847 -1.1137
   50MOL0     H 6594  11.379   4.634   3.665  0.9299 -1.1663 -0.4601
   50MOL0     H 6595  11.281   4.478   3.669  0.3205 -1.6030  1.1401
   50MOL0     H 6596  11.349   4.432   3.897  0.8805  1.2530  2.2163
   50MOL0     H 6597  11.491   4.454   3.800 -1.6664 -3.2098 -1.1584
   50MOL0     H 6598  11.448   4.780   4.091 -0.2724  2.4638 -1.0699
   50MOL0     H 6599  11.055   4.926   3.687 -0.2398 -3.3760 -1.6123
   50MOL0     H 6600  10.929   5.103   3.783  3.1534 -1.0935 -1.9761
   51MOL0     O 6601   7.547   2.221   1.332  0.2519 -0.0877  0.2957
   51MOL0     C 6602   7.502   2.206   1.447  0.9521  0.6086 -0.3466
   51MOL0     O 6603   7.370   2.201   1.484 -0.1540  0.0340  0.3733
   51MOL0     C 6604   7.258   2.218   1.409  0.7439  0.3645  0.1698
   51MOL0     C 6605   7.253   2.245   1.275  0.4978  0.1230 -0.4271
   51MOL0     C 6606   7.129   2.260   1.209 -1.1310 -0.3459  0.2066
   51MOL0     C 6607   7.007   2.246   1.271 -1.5884  0.3354 -0.1636
   51MOL0     O 6608   6.902   2.262   1.187  0.8856  0.6554  0.4591
   51MOL0     C 6609   6.771   2.252   1.249 -0.0978  0.3943  0.0208
   51MOL0     C 6610   6.668   2.171   1.162  0.7726 -0.4499  0.7662
   51MOL0     C 6611   6.723   2.030   1.124 -0.1928 -0.3975  0.3441
   51MOL0     C 6612   6.638   1.944   1.032  0.1743 -0.5452  0.5714
   51MOL0     C 6613   6.695   1.800   1.009 -0.6802 -0.1226  0.4089
   51MOL0     C 6614   6.828   1.778   0.949 -0.0900 -0.0943  0.2919
   51MOL0     C 6615   6.850   1.642   0.867  1.1783  0.4488 -0.7617
   51MOL0     C 6616   6.966   1.651   0.776 -0.4963 -0.8540 -0.1905
   51MOL0     N 6617   6.998   1.535   0.692 -0.1057  0.3875  0.0549
   51MOL0     C 6618   6.949   1.410   0.699  0.6571  0.5155  0.6806
   51MOL0     C 6619   7.023   1.339   0.612  1.7106 -1.1397  0.5716
   51MOL0     C 6620   6.993   1.203   0.555  0.4572  0.4330 -0.2486
   51MOL0     C 6621   7.085   1.092   0.603 -0.5749  0.3423  0.5590
   51MOL0     C 6622   7.072   0.953   0.518 -0.6083 -0.3907  0.7066
   51MOL0     C 6623   6.933   0.901   0.543  0.2904  1.2397  0.3757
   51MOL0     O 6624   6.841   0.978   0.459 -0.1120 -0.6154  0.0733
   51MOL0     C 6625   6.706   0.958   0.473  0.1315 -0.0929 -0.5021
   51MOL0     C 6626   6.626   1.030   0.390  0.6122  0.3697  0.8575
   51MOL0     C 6627   6.487   1.010   0.389 -0.4867  0.6499  0.1811
   51MOL0     C 6628   6.427   0.923   0.480  0.3002  1.1571 -0.7125
   51MOL0     C 6629   6.279   0.912   0.502 -0.4191  0.5107  0.0579
   51MOL0     O 6630   6.193   0.982   0.414  0.1913  0.1160 -0.2256
   51MOL0     C 6631   6.058   0.989   0.431  0.4567  0.1450 -0.5470
   51MOL0     C 6632   5.983   0.881   0.486  0.4414  0.6120 -0.3625
   51MOL0     C 6633   5.845   0.884   0.480  0.3450 -0.7030 -0.2652
   51MOL0     C 6634   5.768   0.989   0.429  0.4999 -0.2963  0.3643
   51MOL0     O 6635   5.633   0.993   0.435 -0.0019 -0.0688 -0.7028
   51MOL0     C 6636   5.560   1.030   0.318 -0.5202  0.2538 -0.5745
   51MOL0     C 6637   5.447   0.932   0.294  0.2928  1.1056 -0.1869
   51MOL0     C 6638   5.484   0.787   0.262 -0.0471  0.4602 -0.6353
   51MOL0     C 6639   5.360   0.699   0.226  0.2942 -0.5292  0.8703
   51MOL0     C 6640   5.392   0.553   0.187  0.2439  0.2865 -1.0392
   51MOL0     C 6641   5.271   0.481   0.134 -0.1009  0.0709  0.2232
   51MOL0     C 6642   5.257   0.522  -0.021  0.2367 -0.4256 -0.5506
   51MOL0     C 6643   5.171   0.424  -0.099 -0.4187 -0.4331  0.7520
   51MOL0    Cl 6644   5.009   0.419  -0.029  0.0677 -0.3443 -0.0632
   51MOL0     C 6645   5.844   1.090   0.364 -0.0503  0.5633 -1.0052
   51MOL0     C 6646   5.984   1.085   0.375 -0.8161 -0.8232 -0.3179
   51MOL0     O 6647   6.245   0.844   0.599  0.4409  0.6303  0.5356
   51MOL0     C 6648   6.510   0.844   0.565  0.4272 -1.1918  1.0667
   51MOL0     C 6649   6.651   0.859   0.564  0.1838 -0.3110 -0.2225
   51MOL0     N 6650   7.113   1.416   0.560  0.4566  0.1221  0.7045
   51MOL0     N 6651   7.096   1.534   0.604  0.0144 -0.2429  0.3507
   51MOL0     C 6652   7.008   2.213   1.412 -0.4849 -0.0458 -0.1142
   51MOL0     C 6653   7.137   2.195   1.477 -0.4171  0.4955 -0.0270
   51MOL0     C 6654   7.609   2.170   1.555 -0.1154 -0.3109 -0.3284
   51MOL0     C 6655   7.746   2.194   1.528  0.1958  1.0316  0.3864
   51MOL0     C 6656   7.843   2.187   1.618 -0.6877  0.6184 -0.4748
   51MOL0     C 6657   7.823   2.147   1.751 -0.2307  0.3416 -0.4965
   51MOL0     O 6658   7.933   2.134   1.840  1.3533 -0.5245  0.5020
   51MOL0     C 6659   7.913   2.186   1.972  0.0039 -0.7680 -0.1905
   51MOL0     C 6660   8.043   2.190   2.038  0.0080  0.1170  0.1083
   51MOL0     C 6661   8.161   2.254   1.951 -0.2982 -0.9894 -0.0908
   51MOL0     C 6662   8.309   2.225   2.004  1.4221  0.0186 -0.0143
   51MOL0     C 6663   8.338   2.307   2.124 -0.7338 -1.4589  0.5062
   51MOL0     C 6664   8.365   2.408   2.196  0.0767 -0.0741  0.2350
   51MOL0     C 6665   7.687   2.113   1.781 -0.3487  0.1149  0.5447
   51MOL0     C 6666   7.574   2.130   1.688  0.2079  0.3927 -1.5932
   51MOL0     H 6667   7.348   2.261   1.225  1.4102  0.0512  1.2140
   51MOL0     H 6668   7.121   2.277   1.102  0.0924  2.4625  0.4964
   51MOL0     H 6669   6.726   2.352   1.246 -2.2411 -0.4569  1.4849
   51MOL0     H 6670   6.763   2.211   1.350 -2.0723  1.1134  0.2076
   51MOL0     H 6671   6.644   2.225   1.071 -2.1993 -1.6311  0.7608
   51MOL0     H 6672   6.573   2.152   1.213 -1.1283 -0.4582 -2.5529
   51MOL0     H 6673   6.747   1.981   1.219 -1.1648  0.3164  0.9744
   51MOL0     H 6674   6.806   2.036   1.053 -0.9994 -1.2924 -0.7212
   51MOL0     H 6675   6.539   1.934   1.078  1.6714 -1.1346  3.9231
   51MOL0     H 6676   6.609   1.989   0.936 -1.8537 -2.5600  0.1517
   51MOL0     H 6677   6.627   1.760   0.934 -0.9340  0.5012  0.2959
   51MOL0     H 6678   6.677   1.756   1.108 -0.7993  1.8081  1.2986
   51MOL0     H 6679   6.915   1.783   1.015  0.6479  1.6614 -0.7398
   51MOL0     H 6680   6.845   1.858   0.876  1.3495 -2.3649 -2.0477
   51MOL0     H 6681   6.875   1.563   0.939  3.3679  1.1368 -0.6969
   51MOL0     H 6682   6.762   1.636   0.802  2.7588 -1.2886 -2.9152
   51MOL0     H 6683   7.057   1.682   0.828 -1.2399  2.9842 -0.8609
   51MOL0     H 6684   6.939   1.728   0.703 -4.4573 -0.6499  1.2884
   51MOL0     H 6685   6.865   1.365   0.751  2.7236 -2.6103  1.6173
   51MOL0     H 6686   6.991   1.195   0.445 -0.8629 -0.0342 -0.2116
   51MOL0     H 6687   6.892   1.179   0.588 -1.6104 -0.0738 -5.7914
   51MOL0     H 6688   7.068   1.075   0.710  1.0163  0.1627  0.7998
   51MOL0     H 6689   7.186   1.131   0.588 -0.7084  1.0667  1.4281
   51MOL0     H 6690   7.099   0.967   0.413 -2.2611  0.7459  0.3955
   51MOL0     H 6691   7.133   0.874   0.563 -1.4737 -0.0030  2.6694
   51MOL0     H 6692   6.898   0.921   0.645 -0.1713  2.2978  0.0279
   51MOL0     H 6693   6.924   0.794   0.522 -1.5221  1.5944 -0.8892
   51MOL0     H 6694   6.665   1.097   0.314 -1.9994  1.1930  0.1516
   51MOL0     H 6695   6.422   1.070   0.325 -1.3325 -0.5857 -0.1551
   51MOL0     H 6696   6.028   0.792   0.530 -2.3441 -1.2451 -0.9926
   51MOL0     H 6697   5.790   0.807   0.533  0.2411  0.3899  1.2821
   51MOL0     H 6698   5.619   1.045   0.227 -0.5839  1.1524 -0.4842
   51MOL0     H 6699   5.513   1.129   0.316 -1.5965 -0.2055  0.6383
   51MOL0     H 6700   5.395   0.970   0.205 -3.2965  0.6346  1.5380
   51MOL0     H 6701   5.379   0.932   0.379  1.2455  4.1594  0.7153
   51MOL0     H 6702   5.518   0.739   0.355 -2.4739 -0.4500 -0.1477
   51MOL0     H 6703   5.555   0.781   0.179  1.1450 -0.2995  0.3938
   51MOL0     H 6704   5.283   0.704   0.303 -3.3447 -1.6128 -2.3812
   51MOL0     H 6705   5.319   0.740   0.133  0.2318  0.3075  1.2633
   51MOL0     H 6706   5.429   0.508   0.280  0.4846  0.2256 -1.1648
   51MOL0     H 6707   5.469   0.557   0.110  0.9945 -0.8792 -0.3846
   51MOL0     H 6708   5.185   0.516   0.192 -1.1392  1.2396 -1.9222
   51MOL0     H 6709   5.294   0.376   0.154  2.4458  0.6933  0.9117
   51MOL0     H 6710   5.240   0.629  -0.036 -0.4793 -0.9103 -3.8257
   51MOL0     H 6711   5.360   0.517  -0.057  1.9601  1.7205  3.3521
   51MOL0     H 6712   5.212   0.323  -0.108  1.1102  0.3299 -2.3955
   51MOL0     H 6713   5.164   0.452  -0.205 -0.1293  0.2049  0.8990
   51MOL0     H 6714   5.801   1.172   0.308 -0.2443 -0.0982 -1.8348
   51MOL0     H 6715   6.041   1.157   0.317  0.5058 -1.3055  0.3294
   51MOL0     H 6716   6.472   0.783   0.646  3.6554 -2.7411  1.5901
   51MOL0     H 6717   6.714   0.804   0.633  0.4593  0.1158 -0.1319
   51MOL0     H 6718   6.921   2.201   1.477 -1.3974 -2.3136 -1.6404
   51MOL0     H 6719   7.143   2.160   1.580 -1.0894 -0.3139 -0.2523
   51MOL0     H 6720   7.775   2.214   1.425  0.3046 -0.9637 -0.0151
   51MOL0     H 6721   7.948   2.195   1.590  0.5584 -1.9537  2.6877
   51MOL0     H 6722   7.837   2.132   2.029 -0.2522  0.8839  1.1005
   51MOL0     H 6723   7.881   2.290   1.965  0.3164 -0.5533  1.2636
   51MOL0     H 6724   8.036   2.237   2.137  1.8587  1.2764 -0.2719
   51MOL0     H 6725   8.075   2.085   2.047 -1.8336 -0.5386 -0.5979
   51MOL0     H 6726   8.161   2.362   1.933  3.8912 -1.0005 -1.3014
   51MOL0     H 6727   8.156   2.210   1.851  0.3687  0.0627 -0.6031
   51MOL0     H 6728   8.314   2.118   2.030  1.0907  0.3317  1.3932
   51MOL0     H 6729   8.381   2.239   1.923 -1.6451 -0.2231 -3.0362
   51MOL0     H 6730   8.381   2.493   2.258 -3.0314  1.1720 -0.4908
   51MOL0     H 6731   7.649   2.084   1.879 -1.7040  2.2941  0.7336
   51MOL0     H 6732   7.475   2.097   1.718  1.2832 -1.3049  0.4085
   52MOL0     O 6733   3.170   1.957   1.652 -0.1379 -0.0823  0.3668
   52MOL0     C 6734   3.267   2.020   1.618 -0.6323 -0.3702 -0.1643
   52MOL0     O 6735   3.309   2.052   1.492 -0.0156  0.1401  0.0427
   52MOL0     C 6736   3.233   2.043   1.372 -0.5014  0.7675 -0.5992
   52MOL0     C 6737   3.285   1.997   1.254 -0.2204 -0.2777 -0.4052
   52MOL0     C 6738   3.214   1.990   1.131  0.4570  0.3739  0.1382
   52MOL0     C 6739   3.079   2.031   1.131  0.1618 -0.0943  0.1966
   52MOL0     O 6740   3.004   2.018   1.016  0.5486 -0.2720 -0.0341
   52MOL0     C 6741   2.956   2.145   0.962 -0.4911  1.0517 -0.4318
   52MOL0     C 6742   3.051   2.201   0.852 -0.2365  0.7170 -0.3078
   52MOL0     C 6743   3.084   2.095   0.736  0.7922 -0.0957 -0.4462
   52MOL0     C 6744   2.957   2.044   0.659 -0.2006 -0.3089 -0.8418
   52MOL0     C 6745   2.992   1.924   0.583 -0.1864  0.2092  0.2245
   52MOL0     C 6746   2.859   1.864   0.529 -0.7517  0.1230  0.2650
   52MOL0     C 6747   2.871   1.717   0.498  0.8263 -0.5708 -0.2091
   52MOL0     C 6748   2.967   1.680   0.385 -0.3468 -0.9173  0.2704
   52MOL0     N 6749   2.937   1.754   0.261  0.4994  0.2351  0.7150
   52MOL0     C 6750   2.817   1.768   0.196  0.6144 -0.6080  0.7258
   52MOL0     C 6751   2.836   1.791   0.061 -0.6520 -0.4813 -0.5552
   52MOL0     C 6752   2.751   1.816  -0.061  0.1835  0.0372  0.4149
   52MOL0     C 6753   2.720   1.688  -0.140 -1.2842 -0.0290  0.0276
   52MOL0     C 6754   2.588   1.700  -0.221  0.3702 -0.1575  1.0096
   52MOL0     C 6755   2.607   1.770  -0.362  0.3545  0.0157 -1.1493
   52MOL0     O 6756   2.528   1.709  -0.468 -0.3282  0.2127  0.1369
   52MOL0     C 6757   2.404   1.762  -0.502  0.3224  0.1747 -0.2813
   52MOL0     C 6758   2.355   1.726  -0.624 -0.2589  1.0666  0.5838
   52MOL0     C 6759   2.250   1.782  -0.691 -0.6387  0.5155 -0.1207
   52MOL0     C 6760   2.176   1.879  -0.629  0.1211 -0.4518  1.0872
   52MOL0     C 6761   2.080   1.959  -0.688  1.0766  0.1815  0.3801
   52MOL0     O 6762   2.027   1.909  -0.802  0.3274  0.3840 -0.3272
   52MOL0     C 6763   1.903   1.949  -0.848 -0.0908  0.5863  0.9603
   52MOL0     C 6764   1.793   1.860  -0.836  0.4055 -0.3379  0.0376
   52MOL0     C 6765   1.666   1.898  -0.887 -0.3314 -0.0221  0.6522
   52MOL0     C 6766   1.643   2.023  -0.952  0.2430  0.5802  0.4222
   52MOL0     O 6767   1.516   2.054  -0.996 -0.4839 -0.2173 -1.0644
   52MOL0     C 6768   1.476   2.183  -1.028 -1.0042 -0.2417  0.1520
   52MOL0     C 6769   1.504   2.229  -1.169 -0.3052  0.7193 -0.0596
   52MOL0     C 6770   1.427   2.359  -1.213 -0.4882  0.1758  0.5439
   52MOL0     C 6771   1.449   2.398  -1.361  0.9034  0.9040  0.5939
   52MOL0     C 6772   1.371   2.523  -1.407  1.0952 -0.3871  0.6009
   52MOL0     C 6773   1.348   2.531  -1.558  0.0173 -0.6855 -0.0572
   52MOL0     C 6774   1.300   2.673  -1.604  0.3049  0.4139 -0.3599
   52MOL0     C 6775   1.305   2.672  -1.761 -0.0372 -0.4141  0.1664
   52MOL0    Cl 6776   1.198   2.544  -1.829 -0.0781  0.1987 -0.1275
   52MOL0     C 6777   1.746   2.114  -0.952  0.8650 -0.5015 -0.7272
   52MOL0     C 6778   1.868   2.078  -0.900 -0.0564  0.0089  0.4063
   52MOL0     O 6779   2.025   2.048  -0.619 -0.0633  0.5350  0.5864
   52MOL0     C 6780   2.213   1.919  -0.499  0.0737  1.0563 -0.1736
   52MOL0     C 6781   2.335   1.875  -0.445 -0.2220  0.2744  0.8240
   52MOL0     N 6782   2.972   1.811   0.056 -0.4988  0.1802 -0.9160
   52MOL0     N 6783   3.028   1.772   0.164  0.4868 -0.5576  0.9516
   52MOL0     C 6784   3.024   2.083   1.250 -0.3926 -0.4445  0.9750
   52MOL0     C 6785   3.098   2.088   1.365 -0.1726  0.1925  0.5996
   52MOL0     C 6786   3.358   2.054   1.725  0.1954 -0.7892 -0.3314
   52MOL0     C 6787   3.326   2.021   1.857 -0.4554 -0.6933  0.6324
   52MOL0     C 6788   3.408   2.055   1.962 -0.0978  0.3960 -0.7287
   52MOL0     C 6789   3.536   2.113   1.949  0.0223  0.6313 -0.0185
   52MOL0     O 6790   3.602   2.140   2.064 -0.2810 -0.3144 -0.2817
   52MOL0     C 6791   3.735   2.201   2.048  0.8202  0.6014  0.1022
   52MOL0     C 6792   3.775   2.258   2.185 -0.0443 -0.3286 -0.0887
   52MOL0     C 6793   3.890   2.174   2.257  0.3264 -1.3710  0.3413
   52MOL0     C 6794   3.922   2.216   2.403  1.0497  0.0547  0.6946
   52MOL0     C 6795   4.009   2.109   2.462  0.1015  0.2575  0.0323
   52MOL0     C 6796   4.096   2.035   2.493  0.9136 -0.0478 -0.7315
   52MOL0     C 6797   3.578   2.127   1.813 -0.4614 -0.3498 -0.1635
   52MOL0     C 6798   3.492   2.103   1.708 -0.8506 -0.3381  0.8678
   52MOL0     H 6799   3.393   1.983   1.249 -0.0022  0.2827  1.9044
   52MOL0     H 6800   3.255   1.953   1.038  0.6748 -1.1419  0.7962
   52MOL0     H 6801   2.950   2.214   1.046  0.5953  0.2766  0.3000
   52MOL0     H 6802   2.853   2.131   0.925 -0.1013 -0.9939 -0.8830
   52MOL0     H 6803   3.145   2.241   0.889 -0.5142  0.9483  0.1641
   52MOL0     H 6804   3.001   2.289   0.810 -3.8003 -0.2092  1.6017
   52MOL0     H 6805   3.140   2.022   0.796  1.5197  3.5857  3.9529
   52MOL0     H 6806   3.149   2.135   0.658 -1.7039 -1.5137 -3.5004
   52MOL0     H 6807   2.871   2.023   0.723  0.3470  2.1108  0.8386
   52MOL0     H 6808   2.918   2.126   0.598  1.2746  1.0304 -0.0513
   52MOL0     H 6809   3.030   1.850   0.655 -1.7941  0.3887  1.2973
   52MOL0     H 6810   3.054   1.947   0.495 -2.7698 -1.9698 -2.3575
   52MOL0     H 6811   2.829   1.918   0.439  4.5186  0.5266 -1.6351
   52MOL0     H 6812   2.779   1.871   0.602  0.2042  0.3782  1.3182
   52MOL0     H 6813   2.887   1.664   0.592 -0.7363 -0.7181 -0.0087
   52MOL0     H 6814   2.768   1.699   0.468  0.5212  1.9943 -0.9468
   52MOL0     H 6815   2.953   1.574   0.365 -1.0487 -1.3936  2.9403
   52MOL0     H 6816   3.071   1.691   0.420 -0.6048 -1.5802  1.2884
   52MOL0     H 6817   2.717   1.760   0.237  0.4138 -1.9418  0.0222
   52MOL0     H 6818   2.810   1.885  -0.122 -1.7087 -0.8380 -2.6112
   52MOL0     H 6819   2.661   1.870  -0.031 -2.6005 -2.8604 -2.0660
   52MOL0     H 6820   2.709   1.601  -0.075 -0.2709 -0.8266 -0.8386
   52MOL0     H 6821   2.805   1.652  -0.198  0.2951  3.6089 -0.1779
   52MOL0     H 6822   2.544   1.603  -0.245 -0.9785 -0.4364  4.1141
   52MOL0     H 6823   2.513   1.755  -0.162 -0.2871 -1.5748  1.5435
   52MOL0     H 6824   2.714   1.758  -0.381  0.4609  0.4671 -0.8531
   52MOL0     H 6825   2.595   1.878  -0.352 -0.4407 -0.2662  2.1799
   52MOL0     H 6826   2.406   1.639  -0.665  0.1030  0.9356  1.3011
   52MOL0     H 6827   2.217   1.762  -0.792  0.1118  3.8656 -1.1578
   52MOL0     H 6828   1.813   1.770  -0.779  0.0443  0.0266  0.7498
   52MOL0     H 6829   1.585   1.826  -0.886 -1.2677  0.8850 -1.5796
   52MOL0     H 6830   1.519   2.243  -0.947 -2.2753 -3.7586  3.7550
   52MOL0     H 6831   1.368   2.196  -1.015 -0.8210  0.2415  1.2652
   52MOL0     H 6832   1.474   2.144  -1.231  0.9308 -2.9304  3.8319
   52MOL0     H 6833   1.611   2.232  -1.187 -0.1000  0.0981  0.9523
   52MOL0     H 6834   1.457   2.443  -1.150  0.6944 -1.3069  2.0559
   52MOL0     H 6835   1.320   2.338  -1.212 -0.5778 -0.1843 -3.2251
   52MOL0     H 6836   1.556   2.400  -1.384  0.6902 -0.3971 -0.6150
   52MOL0     H 6837   1.402   2.319  -1.419 -1.1450  1.2091  1.7302
   52MOL0     H 6838   1.430   2.609  -1.373 -3.4951  2.4966  2.1730
   52MOL0     H 6839   1.276   2.544  -1.357  1.1336  3.8058 -0.7601
   52MOL0     H 6840   1.273   2.461  -1.596 -1.9617  1.9415 -1.3417
   52MOL0     H 6841   1.433   2.502  -1.620 -0.0699 -0.1658 -0.4205
   52MOL0     H 6842   1.199   2.694  -1.567  1.5595  0.4132  3.4524
   52MOL0     H 6843   1.366   2.744  -1.553  0.8494 -0.1375 -0.2817
   52MOL0     H 6844   1.408   2.661  -1.797 -0.6793 -0.3831 -1.8075
   52MOL0     H 6845   1.288   2.769  -1.810 -0.6758 -1.7268 -2.4328
   52MOL0     H 6846   1.738   2.217  -0.985 -0.8053 -0.7905 -1.3243
   52MOL0     H 6847   1.950   2.148  -0.903 -0.9427  1.0540 -0.1595
   52MOL0     H 6848   2.171   1.999  -0.438  1.4454  0.0242  2.2843
   52MOL0     H 6849   2.383   1.919  -0.358 -1.2104  3.1182  0.0476
   52MOL0     H 6850   2.921   2.116   1.243  0.2847  1.3507 -1.9581
   52MOL0     H 6851   3.058   2.147   1.447  3.0695  2.6347  0.6405
   52MOL0     H 6852   3.228   1.979   1.880 -1.1988  0.6599  0.0343
   52MOL0     H 6853   3.380   2.028   2.064  0.4844  1.2790 -0.3225
   52MOL0     H 6854   3.725   2.278   1.971 -3.5192  0.2989  0.1131
   52MOL0     H 6855   3.805   2.121   2.021 -1.0651 -2.0069  2.3616
   52MOL0     H 6856   3.795   2.366   2.185 -3.7848  0.6658  4.0603
   52MOL0     H 6857   3.688   2.256   2.252  0.5168  2.7495  0.9036
   52MOL0     H 6858   3.983   2.190   2.202  0.4296 -0.4506  0.7726
   52MOL0     H 6859   3.856   2.070   2.251 -3.8762 -0.1019 -1.5237
   52MOL0     H 6860   3.964   2.317   2.403 -0.4854  0.7126  0.1896
   52MOL0     H 6861   3.825   2.201   2.452  1.1945 -5.6742 -0.0427
   52MOL0     H 6862   4.166   1.960   2.525  3.7684  1.5130 -2.8281
   52MOL0     H 6863   3.673   2.174   1.790 -1.5140  1.4868 -0.9734
   52MOL0     H 6864   3.518   2.132   1.607 -0.5288  1.7609  1.5189
   53MOL0     O 6865  10.400   8.314   6.971  0.0925  0.0837 -0.4482
   53MOL0     C 6866  10.465   8.398   7.038  0.6933  0.1091 -0.0845
   53MOL0     O 6867  10.419   8.510   7.085 -0.5667 -0.0240 -0.6905
   53MOL0     C 6868  10.295   8.557   7.054  0.1785  0.2173 -0.3438
   53MOL0     C 6869  10.210   8.604   7.154  0.6942  0.2293 -0.0787
   53MOL0     C 6870  10.084   8.652   7.121 -0.8782  0.0918 -1.1788
   53MOL0     C 6871  10.044   8.661   6.992 -0.4900 -0.5025  0.4868
   53MOL0     O 6872   9.914   8.689   6.955  0.1301 -0.2523  0.1386
   53MOL0     C 6873   9.846   8.778   7.050  1.1940 -0.4358 -0.1021
   53MOL0     C 6874   9.750   8.868   6.978  0.1460 -0.7818 -0.4959
   53MOL0     C 6875   9.612   8.817   6.927  1.5958  0.1027 -0.0540
   53MOL0     C 6876   9.516   8.908   6.854  0.3354 -0.4843  0.1337
   53MOL0     C 6877   9.386   8.824   6.822  0.8912 -1.0107 -0.3777
   53MOL0     C 6878   9.287   8.873   6.717 -1.2528  1.0504  0.3889
   53MOL0     C 6879   9.235   9.014   6.757 -0.1993 -1.0594  0.3156
   53MOL0     C 6880   9.117   9.075   6.674  0.4165 -0.1021  0.3944
   53MOL0     N 6881   9.008   8.972   6.652  0.1102  0.0995  0.5970
   53MOL0     C 6882   8.917   8.941   6.752 -0.5291 -0.5345 -0.2967
   53MOL0     C 6883   8.856   8.830   6.718 -0.6884 -0.0519  0.5075
   53MOL0     C 6884   8.764   8.751   6.793  0.2140  0.6555  0.9603
   53MOL0     C 6885   8.647   8.850   6.825  0.0200 -0.1673  0.5021
   53MOL0     C 6886   8.571   8.879   6.695  1.1148 -0.2786  0.1610
   53MOL0     C 6887   8.475   8.999   6.697 -0.7084 -0.0422  0.0859
   53MOL0     O 6888   8.386   8.990   6.810  0.5258 -0.0884  0.3787
   53MOL0     C 6889   8.266   9.052   6.799 -0.0616 -0.2796  0.3605
   53MOL0     C 6890   8.220   9.145   6.891 -0.2250 -0.7163 -0.1500
   53MOL0     C 6891   8.093   9.202   6.887  0.0854  0.3825  0.2152
   53MOL0     C 6892   8.013   9.173   6.782 -1.0571 -0.4815 -0.5615
   53MOL0     C 6893   7.879   9.228   6.767 -0.2219  0.5181  0.4015
   53MOL0     O 6894   7.834   9.342   6.836  0.6793 -0.5759  0.4566
   53MOL0     C 6895   7.702   9.380   6.820 -0.6472 -1.2665  0.2183
   53MOL0     C 6896   7.581   9.318   6.774  0.4851  0.4254  0.0586
   53MOL0     C 6897   7.459   9.377   6.785 -1.5140  0.5226 -0.0955
   53MOL0     C 6898   7.442   9.509   6.825 -0.1492 -1.0872 -0.0073
   53MOL0     O 6899   7.321   9.575   6.828  0.2815 -0.0578 -1.0705
   53MOL0     C 6900   7.268   9.606   6.704 -0.0186 -0.3658  0.0802
   53MOL0     C 6901   7.137   9.673   6.757  0.6114 -0.0148  0.7962
   53MOL0     C 6902   7.031   9.675   6.649  0.4209 -1.0012  0.5149
   53MOL0     C 6903   6.933   9.794   6.646 -0.0643  0.8177  0.2795
   53MOL0     C 6904   6.832   9.781   6.536 -0.3126 -0.1076  0.2118
   53MOL0     C 6905   6.713   9.695   6.579 -1.1175 -0.2135 -0.0271
   53MOL0     C 6906   6.597   9.704   6.478 -0.1239 -0.0734 -0.2220
   53MOL0     C 6907   6.456   9.673   6.529 -0.1089  0.8919 -0.4898
   53MOL0    Cl 6908   6.338   9.701   6.391  0.3168  0.3451 -0.0365
   53MOL0     C 6909   7.564   9.575   6.858  0.1799 -0.3676 -0.4641
   53MOL0     C 6910   7.688   9.510   6.865 -0.4044 -0.0913 -1.1051
   53MOL0     O 6911   7.814   9.168   6.684 -0.0017  1.0061  0.5558
   53MOL0     C 6912   8.061   9.089   6.677  1.3002 -0.1444 -0.3374
   53MOL0     C 6913   8.177   9.012   6.696 -0.7510 -0.0634 -0.4118
   53MOL0     N 6914   8.920   8.782   6.596 -0.2037 -0.3483  0.1618
   53MOL0     N 6915   9.006   8.873   6.563  0.6006  0.7042 -0.1034
   53MOL0     C 6916  10.129   8.624   6.884  0.3948  0.5967 -0.3059
   53MOL0     C 6917  10.257   8.572   6.922  0.6273 -0.7582  0.7418
   53MOL0     C 6918  10.604   8.360   7.077  0.1889 -0.3343  0.4878
   53MOL0     C 6919  10.690   8.452   7.138  0.3089  0.2103  0.0194
   53MOL0     C 6920  10.822   8.419   7.159  1.1070  0.7829 -0.7677
   53MOL0     C 6921  10.877   8.287   7.132 -0.1741  0.0113  0.7929
   53MOL0     O 6922  11.005   8.249   7.165  0.4943 -0.4849  0.1063
   53MOL0     C 6923  11.073   8.126   7.117 -0.1137  0.7130 -0.1672
   53MOL0     C 6924  11.151   8.075   7.238 -0.2872  0.3420 -0.5781
   53MOL0     C 6925  11.260   8.169   7.288 -0.2002  0.0244  1.3519
   53MOL0     C 6926  11.337   8.106   7.404  0.0211  0.8179 -1.6331
   53MOL0     C 6927  11.267   8.104   7.534  0.6204  0.6395  0.5446
   53MOL0     C 6928  11.213   8.097   7.646  0.2568  0.1097  0.2184
   53MOL0     C 6929  10.789   8.202   7.072  0.0826  0.4341  0.0855
   53MOL0     C 6930  10.654   8.229   7.046  0.0969  0.2852  0.4925
   53MOL0     H 6931  10.228   8.618   7.260 -2.8632 -0.9681  0.8210
   53MOL0     H 6932  10.021   8.652   7.210  0.7785 -2.5030  0.1105
   53MOL0     H 6933   9.905   8.841   7.117 -0.9663  0.2110  1.2955
   53MOL0     H 6934   9.790   8.703   7.107 -0.5275  0.8272 -0.0662
   53MOL0     H 6935   9.804   8.909   6.892  2.0499 -0.3091  0.8541
   53MOL0     H 6936   9.727   8.952   7.045  0.5984 -0.8731 -0.2221
   53MOL0     H 6937   9.562   8.769   7.011  3.3642 -0.6631  0.6134
   53MOL0     H 6938   9.628   8.742   6.848  1.4325  0.3379 -0.3116
   53MOL0     H 6939   9.478   8.993   6.910 -0.5947 -1.2070  0.6246
   53MOL0     H 6940   9.563   8.953   6.766  0.0926 -2.9240 -1.3311
   53MOL0     H 6941   9.329   8.817   6.915  1.8364 -1.5341  0.1825
   53MOL0     H 6942   9.410   8.721   6.794  0.2993 -0.9995 -0.9577
   53MOL0     H 6943   9.207   8.799   6.712  2.0217 -2.8210  0.2287
   53MOL0     H 6944   9.343   8.875   6.623 -1.9642  2.4348 -0.0372
   53MOL0     H 6945   9.220   9.007   6.865  0.6440 -2.8173  0.3525
   53MOL0     H 6946   9.314   9.091   6.754 -1.4583  0.2788 -2.5620
   53MOL0     H 6947   9.140   9.104   6.571 -2.5479  0.8670 -0.0660
   53MOL0     H 6948   9.068   9.158   6.725 -3.2380 -1.6702 -0.3048
   53MOL0     H 6949   8.903   9.008   6.836  3.8388 -1.4331  1.3796
   53MOL0     H 6950   8.824   8.709   6.874  2.3376  0.6295 -0.5456
   53MOL0     H 6951   8.729   8.664   6.737  0.5886  2.7439 -2.9476
   53MOL0     H 6952   8.687   8.938   6.877  0.1857  1.0843 -1.6407
   53MOL0     H 6953   8.580   8.804   6.899 -0.3469  0.7774  0.7717
   53MOL0     H 6954   8.643   8.898   6.615 -0.1898 -2.4980 -1.6778
   53MOL0     H 6955   8.513   8.788   6.673  1.2815 -0.1736 -0.7124
   53MOL0     H 6956   8.429   9.001   6.597  2.1893 -0.6239 -1.3514
   53MOL0     H 6957   8.546   9.080   6.715 -2.0320  0.4047  4.3918
   53MOL0     H 6958   8.289   9.166   6.972 -0.6151  0.2527 -0.0480
   53MOL0     H 6959   8.073   9.275   6.965  1.0867  0.7194  0.1790
   53MOL0     H 6960   7.586   9.217   6.734 -0.6803 -2.1089  5.4396
   53MOL0     H 6961   7.373   9.317   6.755 -2.1232  1.0960  0.4564
   53MOL0     H 6962   7.256   9.511   6.651  2.2811 -0.8515  0.3215
   53MOL0     H 6963   7.330   9.678   6.650  0.4749 -0.3086  0.7129
   53MOL0     H 6964   7.173   9.769   6.794 -3.3799  1.2873  1.8120
   53MOL0     H 6965   7.088   9.618   6.838  0.2576  0.5105  0.9412
   53MOL0     H 6966   6.980   9.578   6.654 -0.9474 -0.4366 -1.2803
   53MOL0     H 6967   7.090   9.677   6.557 -0.6791  1.5019 -0.2364
   53MOL0     H 6968   6.880   9.773   6.740 -0.2929 -2.4940 -0.4461
   53MOL0     H 6969   6.984   9.890   6.644  2.1966 -0.3408 -0.5492
   53MOL0     H 6970   6.868   9.739   6.441 -0.6456  1.8353 -0.8190
   53MOL0     H 6971   6.787   9.875   6.504 -3.2923 -1.0353  1.3845
   53MOL0     H 6972   6.676   9.712   6.681  0.6402 -0.1853  0.6457
   53MOL0     H 6973   6.752   9.593   6.575  1.4319  0.1485  5.8106
   53MOL0     H 6974   6.595   9.810   6.449 -2.3304  0.8809  2.8231
   53MOL0     H 6975   6.607   9.629   6.400  0.1564 -0.1053 -0.1552
   53MOL0     H 6976   6.418   9.727   6.616 -1.5126  0.1060 -0.5832
   53MOL0     H 6977   6.452   9.566   6.550  0.8947  0.7414 -0.9966
   53MOL0     H 6978   7.541   9.673   6.899  1.1971  1.2706 -3.5224
   53MOL0     H 6979   7.775   9.566   6.900 -0.0105 -0.9166 -0.7370
   53MOL0     H 6980   7.999   9.062   6.592 -0.2284 -0.7513  0.9055
   53MOL0     H 6981   8.206   8.943   6.618 -1.5482 -3.2307  1.8828
   53MOL0     H 6982  10.097   8.626   6.780 -2.6906 -4.6300  0.1817
   53MOL0     H 6983  10.333   8.546   6.849  0.8309  1.6518  0.0261
   53MOL0     H 6984  10.662   8.553   7.165  1.0375  0.6034 -0.6805
   53MOL0     H 6985  10.891   8.486   7.210 -0.2761  1.9996 -0.4437
   53MOL0     H 6986  11.131   8.163   7.032 -0.9912  4.3216  0.6277
   53MOL0     H 6987  11.008   8.048   7.077 -1.4064  2.2512 -1.2304
   53MOL0     H 6988  11.086   8.052   7.323  2.1459 -0.4873  1.1788
   53MOL0     H 6989  11.213   7.991   7.206 -0.3553  0.9413 -2.3668
   53MOL0     H 6990  11.198   8.251   7.324 -4.7851 -2.6690  0.4489
   53MOL0     H 6991  11.324   8.189   7.202 -3.5327  1.2449 -1.0754
   53MOL0     H 6992  11.362   8.002   7.380  2.8831  0.6709  1.3822
   53MOL0     H 6993  11.433   8.154   7.423  1.0738 -1.6981 -0.1529
   53MOL0     H 6994  11.187   8.098   7.750 -1.5822  0.3112 -0.2052
   53MOL0     H 6995  10.815   8.101   7.039 -0.8554  0.9202 -2.3844
   53MOL0     H 6996  10.586   8.156   7.003  0.7033  1.1372 -2.0498
   54MOL0     O 6997   4.316   8.907   5.000 -0.0133 -0.5455  0.6372
   54MOL0     C 6998   4.280   8.986   5.082  0.0953  0.0817  0.9682
   54MOL0     O 6999   4.169   8.968   5.161  0.1668  0.4126 -0.3676
   54MOL0     C 7000   4.084   8.864   5.135  0.0734  1.5806 -0.0777
   54MOL0     C 7001   3.959   8.884   5.095  0.1021 -0.8723  0.4444
   54MOL0     C 7002   3.866   8.781   5.071 -0.2507  0.4520 -0.7805
   54MOL0     C 7003   3.895   8.651   5.097  0.5133 -0.4606  0.8956
   54MOL0     O 7004   3.798   8.552   5.079  0.5625 -0.2250 -0.1761
   54MOL0     C 7005   3.829   8.420   5.134 -0.1156 -0.2250  0.0191
   54MOL0     C 7006   3.695   8.347   5.146  0.2891 -0.2023  0.2919
   54MOL0     C 7007   3.710   8.200   5.155  0.1470  0.3591  0.0377
   54MOL0     C 7008   3.570   8.137   5.166  0.2464 -0.4916 -0.0842
   54MOL0     C 7009   3.563   7.984   5.165 -0.8292  0.6012 -0.6481
   54MOL0     C 7010   3.619   7.916   5.289 -0.9787 -0.6049 -0.3721
   54MOL0     C 7011   3.529   7.928   5.407  0.5936  0.3582  0.2869
   54MOL0     C 7012   3.589   7.855   5.526 -0.0766 -0.1701 -0.1372
   54MOL0     N 7013   3.553   7.712   5.530  0.0675  0.3601  0.0788
   54MOL0     C 7014   3.611   7.604   5.456  1.1757 -0.8377  0.8844
   54MOL0     C 7015   3.553   7.486   5.496 -0.3395  0.4478 -0.2208
   54MOL0     C 7016   3.569   7.352   5.426 -0.7382  0.2713  0.4463
   54MOL0     C 7017   3.466   7.243   5.444 -0.3783 -0.3885  0.4148
   54MOL0     C 7018   3.318   7.271   5.398  0.8536 -0.1343  1.0631
   54MOL0     C 7019   3.279   7.414   5.371  0.3717  0.2829  0.7680
   54MOL0     O 7020   3.144   7.389   5.317 -0.0362 -0.4480  0.0519
   54MOL0     C 7021   3.057   7.496   5.308  0.1136  0.4671  0.2790
   54MOL0     C 7022   2.929   7.474   5.353 -0.2712 -0.2364  0.7192
   54MOL0     C 7023   2.840   7.580   5.382  1.1169 -0.1193 -0.5895
   54MOL0     C 7024   2.872   7.711   5.338  0.2681  0.5634  0.2533
   54MOL0     C 7025   2.792   7.829   5.376 -1.2190 -0.0496 -0.0238
   54MOL0     O 7026   2.851   7.953   5.349  0.4899 -0.3588  0.0241
   54MOL0     C 7027   2.803   8.070   5.397  0.6973  0.9347  0.1269
   54MOL0     C 7028   2.830   8.181   5.313  0.2207  0.5480  0.0197
   54MOL0     C 7029   2.808   8.314   5.349 -1.2345 -0.1448 -0.6117
   54MOL0     C 7030   2.738   8.337   5.470 -1.1823  0.1125 -0.1935
   54MOL0     O 7031   2.717   8.465   5.514  0.3021  0.7437  0.8393
   54MOL0     C 7032   2.620   8.533   5.433  0.1374 -0.6661  0.0437
   54MOL0     C 7033   2.484   8.460   5.420  0.1180  0.6179 -0.1339
   54MOL0     C 7034   2.387   8.451   5.545  0.2491  0.3660 -0.3829
   54MOL0     C 7035   2.245   8.392   5.526 -0.3172 -0.2043  2.2390
   54MOL0     C 7036   2.148   8.409   5.641  0.0786  0.4150 -0.9655
   54MOL0     C 7037   2.063   8.532   5.640 -0.1066 -0.1426  0.1032
   54MOL0     C 7038   2.011   8.570   5.778  0.2555 -0.5434 -0.5025
   54MOL0     C 7039   1.914   8.690   5.784 -0.0399 -0.6791  1.1799
   54MOL0    Cl 7040   1.953   8.819   5.674 -0.3869 -0.5062 -0.1524
   54MOL0     C 7041   2.706   8.231   5.559  0.4882  0.0212  0.0681
   54MOL0     C 7042   2.738   8.099   5.524  0.4643 -0.7946 -0.1821
   54MOL0     O 7043   2.691   7.813   5.447 -0.7054  0.2031  0.1656
   54MOL0     C 7044   3.002   7.731   5.276 -0.0559 -0.3387 -0.1553
   54MOL0     C 7045   3.089   7.622   5.266  0.5779  0.1869 -0.8867
   54MOL0     N 7046   3.471   7.515   5.605  0.0566  0.0542  0.5828
   54MOL0     N 7047   3.472   7.647   5.622  0.8115  0.3538  0.0979
   54MOL0     C 7048   4.028   8.624   5.127 -0.5863  0.3782  0.3127
   54MOL0     C 7049   4.115   8.724   5.150 -0.9286 -0.2812  0.7262
   54MOL0     C 7050   4.354   9.107   5.080  0.0130  0.4477 -0.5304
   54MOL0     C 7051   4.472   9.119   5.010 -1.3413 -0.5063  0.5861
   54MOL0     C 7052   4.542   9.241   5.008 -0.3871  1.3449  0.1436
   54MOL0     C 7053   4.492   9.359   5.064  0.0044 -0.5302 -0.4836
   54MOL0     O 7054   4.566   9.472   5.052 -0.7517 -0.0750  0.2560
   54MOL0     C 7055   4.554   9.583   5.139 -0.3420  0.4459 -0.0361
   54MOL0     C 7056   4.682   9.667   5.098  0.8401  0.5542  0.1297
   54MOL0     C 7057   4.700   9.777   5.203  0.0580 -0.8680 -0.0849
   54MOL0     C 7058   4.801   9.873   5.161 -0.9415  0.3923 -0.1816
   54MOL0     C 7059   4.841   9.976   5.252  1.1616  0.4068  1.4499
   54MOL0     C 7060   4.873  10.064   5.320  0.2573  0.2422 -0.9705
   54MOL0     C 7061   4.369   9.354   5.128 -0.4933 -0.3164 -0.0305
   54MOL0     C 7062   4.300   9.230   5.132  0.4729 -0.3345  0.3169
   54MOL0     H 7063   3.915   8.982   5.084 -0.7419 -1.4593 -2.2215
   54MOL0     H 7064   3.760   8.802   5.065 -0.3603  0.3507  0.5125
   54MOL0     H 7065   3.862   8.422   5.238  1.7053 -0.0717 -0.5448
   54MOL0     H 7066   3.892   8.358   5.071 -0.0879 -3.9621  3.2837
   54MOL0     H 7067   3.636   8.374   5.058 -1.8357  3.0320  2.4921
   54MOL0     H 7068   3.635   8.379   5.232 -0.5145  3.2576 -1.3932
   54MOL0     H 7069   3.776   8.164   5.235  2.6591  0.4387 -1.8729
   54MOL0     H 7070   3.752   8.155   5.065 -1.0795  0.0340 -0.3888
   54MOL0     H 7071   3.530   8.172   5.261 -0.3388 -1.2791 -0.0267
   54MOL0     H 7072   3.511   8.176   5.083 -0.6927  0.6403  1.0903
   54MOL0     H 7073   3.618   7.951   5.076  1.2822 -0.7659  1.0453
   54MOL0     H 7074   3.458   7.954   5.159 -0.7685  0.4285 -0.8541
   54MOL0     H 7075   3.714   7.962   5.318  0.5519 -0.8097 -4.4823
   54MOL0     H 7076   3.643   7.813   5.261  0.7837  0.4354 -3.0428
   54MOL0     H 7077   3.509   8.034   5.424  2.6282  0.6038  1.6008
   54MOL0     H 7078   3.441   7.875   5.372  0.3661  1.7674 -1.4261
   54MOL0     H 7079   3.553   7.899   5.620  2.9454 -2.2282  2.1814
   54MOL0     H 7080   3.696   7.881   5.526 -0.3100  0.8455 -0.1855
   54MOL0     H 7081   3.682   7.613   5.373 -1.6412 -0.0923 -1.6068
   54MOL0     H 7082   3.668   7.317   5.457  0.3277  1.4765 -1.4121
   54MOL0     H 7083   3.580   7.382   5.321 -1.3460  5.0332  1.5413
   54MOL0     H 7084   3.457   7.240   5.553 -0.5124  2.8097  0.5904
   54MOL0     H 7085   3.500   7.151   5.395 -1.5002  0.0932 -1.3388
   54MOL0     H 7086   3.308   7.208   5.310  2.3748  0.0433  0.7284
   54MOL0     H 7087   3.251   7.229   5.473  0.3327  1.8280  1.7730
   54MOL0     H 7088   3.335   7.469   5.295 -1.7397  0.8417 -0.4588
   54MOL0     H 7089   3.260   7.467   5.465 -2.8373  2.4791 -0.8916
   54MOL0     H 7090   2.904   7.377   5.395 -1.9405 -0.3116 -0.3451
   54MOL0     H 7091   2.751   7.554   5.438  2.1352 -0.7573  0.7800
   54MOL0     H 7092   2.877   8.163   5.217  1.5677 -0.5134  0.8323
   54MOL0     H 7093   2.820   8.405   5.292 -2.7165  2.0738  2.3481
   54MOL0     H 7094   2.663   8.556   5.335 -1.3515 -1.9605 -0.9433
   54MOL0     H 7095   2.598   8.629   5.482 -0.0663 -0.1709 -0.9946
   54MOL0     H 7096   2.496   8.365   5.368 -2.1185 -0.6199  1.4279
   54MOL0     H 7097   2.436   8.525   5.346 -0.6749  1.3609  0.9843
   54MOL0     H 7098   2.378   8.546   5.598  0.4279  0.8747 -1.2450
   54MOL0     H 7099   2.436   8.386   5.618 -1.3496 -1.9345 -1.2343
   54MOL0     H 7100   2.206   8.432   5.432  0.3240  2.9953  3.2071
   54MOL0     H 7101   2.251   8.283   5.513  4.2072 -0.0819  1.7744
   54MOL0     H 7102   2.196   8.403   5.739 -0.8435  0.2968 -0.5104
   54MOL0     H 7103   2.075   8.329   5.633  2.5232 -2.1235  0.5690
   54MOL0     H 7104   1.986   8.525   5.563 -1.6054 -3.7720  1.7391
   54MOL0     H 7105   2.129   8.615   5.611  0.6292 -0.3044  1.2553
   54MOL0     H 7106   1.955   8.483   5.815 -0.3162  0.8227  2.0826
   54MOL0     H 7107   2.091   8.604   5.844 -0.4258 -0.1207  0.1351
   54MOL0     H 7108   1.902   8.720   5.888 -4.0484  2.1829  0.1228
   54MOL0     H 7109   1.812   8.663   5.757 -0.4431  1.4578  0.3785
   54MOL0     H 7110   2.648   8.260   5.645 -2.0385 -1.7969 -0.9228
   54MOL0     H 7111   2.721   8.012   5.587  0.0927  0.3011  1.2674
   54MOL0     H 7112   3.042   7.824   5.236  1.7685 -1.1258 -0.2845
   54MOL0     H 7113   3.189   7.621   5.224  1.7817  3.3018  1.5423
   54MOL0     H 7114   4.074   8.526   5.139  1.3341  1.3347  1.2729
   54MOL0     H 7115   4.207   8.690   5.195  0.3004  2.1957  0.2723
   54MOL0     H 7116   4.525   9.040   4.957 -0.2447  2.1503 -2.5452
   54MOL0     H 7117   4.632   9.252   4.949  0.0899 -2.5290 -0.0787
   54MOL0     H 7118   4.578   9.564   5.244  2.3850  5.7134  0.6301
   54MOL0     H 7119   4.458   9.632   5.127 -1.0817 -1.4779 -3.1873
   54MOL0     H 7120   4.772   9.606   5.115  0.9649  1.2729  2.4587
   54MOL0     H 7121   4.676   9.701   4.994 -0.9447  2.7566  0.8844
   54MOL0     H 7122   4.724   9.726   5.297  2.1932 -0.3165 -0.2807
   54MOL0     H 7123   4.608   9.834   5.218  0.9672  0.1625  1.9074
   54MOL0     H 7124   4.895   9.819   5.151 -1.1729 -0.3432  1.2560
   54MOL0     H 7125   4.788   9.920   5.064  1.4342  0.3774 -0.5624
   54MOL0     H 7126   4.886  10.151   5.382 -1.0947  1.2228 -1.9981
   54MOL0     H 7127   4.316   9.445   5.156 -2.2499 -0.3555 -2.8684
   54MOL0     H 7128   4.202   9.236   5.177 -0.7125  1.7009 -2.3037
   55MOL0     O 7129   4.618  11.215   0.748 -0.5164  0.2716 -0.1892
   55MOL0     C 7130   4.543  11.125   0.709 -0.0787  0.3990 -0.0556
   55MOL0     O 7131   4.445  11.055   0.787 -0.1596 -0.1555 -0.1592
   55MOL0     C 7132   4.436  11.097   0.918  0.9947  1.0586 -0.9235
   55MOL0     C 7133   4.463  11.008   1.022 -0.1955  0.5954 -0.3744
   55MOL0     C 7134   4.458  11.054   1.150 -0.0379  0.1501 -0.7481
   55MOL0     C 7135   4.396  11.178   1.183 -0.2420  0.4334 -0.1027
   55MOL0     O 7136   4.401  11.212   1.319 -0.6692 -0.0993  0.5966
   55MOL0     C 7137   4.353  11.341   1.363 -0.1909 -0.5748  0.3944
   55MOL0     C 7138   4.199  11.338   1.391  0.2836 -0.0197 -1.1831
   55MOL0     C 7139   4.131  11.469   1.429  0.1162  0.3548  0.2602
   55MOL0     C 7140   3.980  11.468   1.413  0.3989 -0.4332  1.4497
   55MOL0     C 7141   3.920  11.595   1.474  0.6782 -0.7800  0.1687
   55MOL0     C 7142   3.767  11.590   1.495 -0.8986 -0.4657 -0.4773
   55MOL0     C 7143   3.682  11.568   1.378 -0.7179  1.0103 -0.0302
   55MOL0     C 7144   3.537  11.574   1.418  0.1237 -0.2004 -0.3483
   55MOL0     N 7145   3.487  11.712   1.401  0.4354  0.7317 -0.5463
   55MOL0     C 7146   3.443  11.753   1.277 -0.6410 -0.2182 -0.0255
   55MOL0     C 7147   3.381  11.869   1.305 -0.6446  0.3068 -0.1621
   55MOL0     C 7148   3.335  11.956   1.190 -0.1579  0.1619  0.9832
   55MOL0     C 7149   3.202  11.908   1.128 -1.0856 -0.4155 -0.6589
   55MOL0     C 7150   3.094  11.935   1.227 -0.5425 -0.0201 -0.1396
   55MOL0     C 7151   2.966  11.971   1.151  1.0542  0.0961  0.1880
   55MOL0     O 7152   2.901  11.860   1.097 -0.0480  0.6448  0.0567
   55MOL0     C 7153   2.789  11.884   1.029 -1.2456  0.1015  0.2225
   55MOL0     C 7154   2.795  11.858   0.892  1.5666  0.3787 -0.4176
   55MOL0     C 7155   2.677  11.885   0.816 -0.1544  0.2211 -0.3455
   55MOL0     C 7156   2.556  11.924   0.878  0.2154  0.0885 -0.5145
   55MOL0     C 7157   2.421  11.930   0.806 -0.4758 -0.6205  0.5356
   55MOL0     O 7158   2.430  11.915   0.671 -0.0947 -0.4733 -0.0792
   55MOL0     C 7159   2.330  11.918   0.581  0.9390  0.0797  0.0710
   55MOL0     C 7160   2.191  11.926   0.612  0.1206 -0.0158  0.0685
   55MOL0     C 7161   2.097  11.933   0.509  0.4792  0.2152 -0.5112
   55MOL0     C 7162   2.140  11.945   0.376  0.6191 -1.0951  0.0786
   55MOL0     O 7163   2.047  11.953   0.272 -1.0190 -0.1742  1.0401
   55MOL0     C 7164   1.965  11.837   0.258  0.4194 -0.1390 -0.1763
   55MOL0     C 7165   2.040  11.707   0.238  0.8009 -0.3091 -0.1618
   55MOL0     C 7166   1.955  11.585   0.267 -0.3378  0.5088 -1.2493
   55MOL0     C 7167   2.029  11.449   0.242  0.3309 -0.5261 -0.6667
   55MOL0     C 7168   1.924  11.324   0.227 -0.3145  0.3517 -0.4108
   55MOL0     C 7169   1.841  11.285   0.344 -0.4527  0.1782 -0.9488
   55MOL0     C 7170   1.934  11.254   0.471  1.2068 -1.0759 -0.7249
   55MOL0     C 7171   1.846  11.164   0.561  0.1144  0.1574 -0.1823
   55MOL0    Cl 7172   1.917  11.175   0.731 -0.3698 -0.5759 -0.2125
   55MOL0     C 7173   2.274  11.948   0.343  0.7593 -0.1063  0.0930
   55MOL0     C 7174   2.368  11.935   0.443  1.1694 -0.4845 -0.3156
   55MOL0     O 7175   2.323  11.944   0.872  0.7366  0.7625 -0.5055
   55MOL0     C 7176   2.559  11.944   1.020 -0.2229 -0.6876  0.7724
   55MOL0     C 7177   2.679  11.935   1.093 -0.5822  0.1688  1.5779
   55MOL0     N 7178   3.391  11.896   1.445  0.2209  0.2867  0.5270
   55MOL0     N 7179   3.462  11.799   1.497 -0.2981  0.3703  1.2944
   55MOL0     C 7180   4.348  11.257   1.076  0.4792  0.3487 -0.3302
   55MOL0     C 7181   4.378  11.223   0.948 -0.7207  0.5267  0.2834
   55MOL0     C 7182   4.543  11.090   0.571  0.3338  0.1377 -0.5149
   55MOL0     C 7183   4.649  11.133   0.482 -0.3489  0.1396  0.1059
   55MOL0     C 7184   4.649  11.112   0.350  0.3498  0.1941  0.5999
   55MOL0     C 7185   4.543  11.042   0.297  0.4668  0.7489 -0.4181
   55MOL0     O 7186   4.538  11.006   0.164  0.1489  0.4124 -0.3977
   55MOL0     C 7187   4.422  11.027   0.092 -0.1429 -0.5022  0.4818
   55MOL0     C 7188   4.418  10.988  -0.059  0.4410  0.3363  0.8346
   55MOL0     C 7189   4.306  11.045  -0.151  0.0097 -0.1979  0.7309
   55MOL0     C 7190   4.307  10.974  -0.292 -0.4451  0.3593 -0.6579
   55MOL0     C 7191   4.225  11.044  -0.393 -1.3994 -0.3916  0.2856
   55MOL0     C 7192   4.150  11.106  -0.469 -0.1371  0.4856  1.5072
   55MOL0     C 7193   4.444  10.989   0.377 -0.2548  0.2170  0.1513
   55MOL0     C 7194   4.441  11.011   0.519  0.1062 -0.1030  0.1874
   55MOL0     H 7195   4.505  10.911   1.001 -0.5369  0.9434 -2.9447
   55MOL0     H 7196   4.486  10.986   1.230  1.9181  0.0925 -1.4298
   55MOL0     H 7197   4.379  11.423   1.296  0.4836 -1.1836 -0.1109
   55MOL0     H 7198   4.408  11.384   1.447 -0.9403  1.4960 -0.1153
   55MOL0     H 7199   4.187  11.265   1.471  1.0176 -0.5426 -1.5341
   55MOL0     H 7200   4.144  11.300   1.304 -0.4451  2.4817 -1.9012
   55MOL0     H 7201   4.179  11.553   1.378 -0.6118 -0.3190 -1.6343
   55MOL0     H 7202   4.149  11.494   1.534 -0.7786  0.1200  0.4760
   55MOL0     H 7203   3.952  11.467   1.307 -0.0735  1.2705  1.5249
   55MOL0     H 7204   3.947  11.380   1.469  0.4360 -2.0409 -0.9114
   55MOL0     H 7205   3.956  11.692   1.439 -1.9769  1.0919  2.2017
   55MOL0     H 7206   3.960  11.602   1.576 -0.1679  0.8442  0.4173
   55MOL0     H 7207   3.749  11.689   1.537 -0.8987 -0.8560  0.4747
   55MOL0     H 7208   3.740  11.511   1.567  0.5219 -1.6812 -1.2294
   55MOL0     H 7209   3.703  11.644   1.303 -2.7601  0.6008 -1.0669
   55MOL0     H 7210   3.688  11.471   1.327 -1.1571  1.4517 -0.9279
   55MOL0     H 7211   3.526  11.536   1.519 -1.4709  1.0119 -0.0121
   55MOL0     H 7212   3.476  11.507   1.357 -0.8237 -0.0179  0.3869
   55MOL0     H 7213   3.461  11.719   1.175 -1.2059  4.0161 -1.7200
   55MOL0     H 7214   3.417  11.964   1.118  0.8610 -0.4484  2.0312
   55MOL0     H 7215   3.322  12.057   1.232  3.0480  0.9026  0.4760
   55MOL0     H 7216   3.211  11.803   1.098 -1.9858 -0.5538 -0.4748
   55MOL0     H 7217   3.186  11.970   1.039 -1.0954 -0.7332 -0.8781
   55MOL0     H 7218   3.092  11.852   1.298  0.9740 -0.2446 -0.3119
   55MOL0     H 7219   3.113  12.023   1.290 -0.5659  0.9365 -1.4319
   55MOL0     H 7220   2.992  12.043   1.073  2.4769 -1.8438 -1.2072
   55MOL0     H 7221   2.907  12.027   1.225  0.5817  0.2662 -0.3109
   55MOL0     H 7222   2.878  11.824   0.830  0.2953 -1.7464 -1.0629
   55MOL0     H 7223   2.692  11.870   0.709  2.7742  2.4671 -0.3847
   55MOL0     H 7224   2.164  11.901   0.713 -0.9344 -2.6731 -0.7935
   55MOL0     H 7225   1.993  11.931   0.540  1.7263 -1.5665  4.6062
   55MOL0     H 7226   1.901  11.852   0.170 -1.7085 -1.4825  1.0700
   55MOL0     H 7227   1.899  11.831   0.345  0.4968  2.1409  0.0932
   55MOL0     H 7228   2.122  11.686   0.307 -1.5963  0.2677  3.1143
   55MOL0     H 7229   2.082  11.701   0.137  1.7953 -2.7673  0.3266
   55MOL0     H 7230   1.859  11.599   0.218 -1.1565  0.5063  0.2937
   55MOL0     H 7231   1.932  11.585   0.374 -1.8333  2.2870 -1.5261
   55MOL0     H 7232   2.096  11.457   0.156  2.5601  2.6487  1.1715
   55MOL0     H 7233   2.090  11.436   0.331 -1.9025  2.6568  1.5260
   55MOL0     H 7234   1.990  11.239   0.205 -1.0704 -0.7603  1.3742
   55MOL0     H 7235   1.849  11.336   0.149 -2.8490 -0.6959  1.7375
   55MOL0     H 7236   1.779  11.199   0.316 -0.2799 -0.1168 -0.4445
   55MOL0     H 7237   1.783  11.375   0.365 -0.8758 -0.2018 -0.4608
   55MOL0     H 7238   2.025  11.204   0.435  0.4301 -1.3017 -2.5173
   55MOL0     H 7239   1.938  11.350   0.522 -3.6352 -1.0413  0.0422
   55MOL0     H 7240   1.852  11.062   0.521 -1.0098  0.1450 -0.3331
   55MOL0     H 7241   1.742  11.191   0.580  0.3123 -0.3768  1.9368
   55MOL0     H 7242   2.296  11.967   0.238  0.2173 -3.3148 -0.6962
   55MOL0     H 7243   2.474  11.936   0.419  0.5192  1.7368 -3.7280
   55MOL0     H 7244   2.463  11.964   1.066 -0.6560 -2.9925  0.9969
   55MOL0     H 7245   2.669  11.956   1.199 -1.7190 -1.5883  1.8618
   55MOL0     H 7246   4.292  11.348   1.095  1.1617  0.8841 -0.8447
   55MOL0     H 7247   4.355  11.296   0.871  0.4431  0.6875  0.0655
   55MOL0     H 7248   4.730  11.191   0.526 -0.0076 -0.3774  0.1746
   55MOL0     H 7249   4.728  11.147   0.285  0.2652  0.6466  0.7326
   55MOL0     H 7250   4.395  11.133   0.100  2.2114  0.0808  1.5387
   55MOL0     H 7251   4.338  10.977   0.142  0.1003 -1.5515 -0.1292
   55MOL0     H 7252   4.518  11.009  -0.096  1.9323 -0.1912  4.2616
   55MOL0     H 7253   4.410  10.879  -0.073  0.8431  0.5667 -1.7082
   55MOL0     H 7254   4.299  11.154  -0.164 -0.6980 -0.3938 -0.8077
   55MOL0     H 7255   4.215  11.022  -0.095  1.4167 -0.0461  3.2397
   55MOL0     H 7256   4.410  10.970  -0.329 -0.4165  1.3775 -0.7033
   55MOL0     H 7257   4.283  10.867  -0.286  2.4170 -0.4754 -2.2469
   55MOL0     H 7258   4.082  11.163  -0.529 -0.0085  1.5826  2.3718
   55MOL0     H 7259   4.355  10.937   0.341 -0.9790  0.6902  1.1939
   55MOL0     H 7260   4.370  10.959   0.582  0.3992  0.8489  1.3396
   56MOL0     O 7261   4.993   7.919   7.843  0.1092  0.4904  0.4181
   56MOL0     C 7262   4.873   7.890   7.860 -0.0435  0.3801 -0.3358
   56MOL0     O 7263   4.777   7.969   7.932  0.3647 -1.0138  0.7886
   56MOL0     C 7264   4.835   8.070   8.006  1.0766 -0.3389  0.5004
   56MOL0     C 7265   4.936   8.050   8.098 -0.0558 -0.3711  0.2978
   56MOL0     C 7266   4.968   8.164   8.175 -0.1077 -0.5612  0.4644
   56MOL0     C 7267   4.911   8.295   8.159 -0.1435  0.2818 -0.4950
   56MOL0     O 7268   4.959   8.392   8.238 -0.2723 -0.4807 -0.1186
   56MOL0     C 7269   5.088   8.428   8.186  0.1471  1.0262 -0.1745
   56MOL0     C 7270   5.170   8.460   8.307  0.4834 -0.6198 -0.6106
   56MOL0     C 7271   5.140   8.597   8.360  0.0345  0.4673 -0.4254
   56MOL0     C 7272   5.237   8.646   8.465  0.0776  0.4829  0.5193
   56MOL0     C 7273   5.287   8.788   8.457  0.2296 -0.0327  0.0869
   56MOL0     C 7274   5.183   8.893   8.446  0.5290 -0.3128  0.5048
   56MOL0     C 7275   5.216   9.022   8.512  0.1659  1.3639 -1.4194
   56MOL0     C 7276   5.351   9.086   8.487  1.2267 -1.0769  0.9600
   56MOL0     N 7277   5.360   9.112   8.340 -0.0139 -0.2908  0.5279
   56MOL0     C 7278   5.260   9.172   8.256  0.4247  0.2542  0.3877
   56MOL0     C 7279   5.317   9.152   8.134  0.9179 -0.0704  0.3052
   56MOL0     C 7280   5.242   9.181   8.005 -0.9434  0.1977 -0.6828
   56MOL0     C 7281   5.222   9.333   7.973  0.0961 -0.6899  0.2135
   56MOL0     C 7282   5.104   9.400   8.050 -0.2298 -0.3569 -0.1627
   56MOL0     C 7283   5.125   9.554   8.062  0.9014  1.4873 -0.4974
   56MOL0     O 7284   4.995   9.593   8.122  0.1481 -0.2382 -0.1828
   56MOL0     C 7285   4.892   9.655   8.061 -0.3831 -0.5842 -0.2343
   56MOL0     C 7286   4.890   9.654   7.924  0.4488  0.7255  0.1350
   56MOL0     C 7287   4.795   9.724   7.846 -0.3690  0.6564 -0.4808
   56MOL0     C 7288   4.673   9.771   7.909 -1.0850 -0.1610  0.0425
   56MOL0     C 7289   4.561   9.823   7.828 -0.6631  0.5190 -0.5922
   56MOL0     O 7290   4.582   9.821   7.695  0.4024 -0.2691  0.0936
   56MOL0     C 7291   4.475   9.861   7.615 -0.9548 -0.6200  0.1368
   56MOL0     C 7292   4.349   9.800   7.615 -0.0003  0.1086 -0.3217
   56MOL0     C 7293   4.246   9.848   7.530 -0.6932  0.0880 -0.1183
   56MOL0     C 7294   4.265   9.965   7.442 -1.0759 -0.4398 -0.9386
   56MOL0     O 7295   4.164  10.004   7.359 -0.2151 -0.1264 -1.1897
   56MOL0     C 7296   4.162  10.138   7.312 -0.0635  0.0053  0.2629
   56MOL0     C 7297   4.015  10.157   7.284 -0.3351  0.0747  0.0579
   56MOL0     C 7298   3.995  10.280   7.203 -0.2695  0.6756 -0.1516
   56MOL0     C 7299   3.843  10.317   7.191 -0.6987  0.3641 -0.4132
   56MOL0     C 7300   3.831  10.454   7.117 -0.1643 -1.0250  0.1582
   56MOL0     C 7301   3.682  10.514   7.109 -0.6819  0.1771 -0.5868
   56MOL0     C 7302   3.680  10.662   7.046  0.3342 -0.0273 -0.2423
   56MOL0     C 7303   3.546  10.711   6.998 -0.2717 -0.8491  0.3297
   56MOL0    Cl 7304   3.515  10.616   6.846 -0.1568 -0.3851 -0.4744
   56MOL0     C 7305   4.396  10.025   7.441  0.2809 -0.6069  0.0157
   56MOL0     C 7306   4.496   9.966   7.517 -0.3944  0.8430  0.1194
   56MOL0     O 7307   4.453   9.837   7.885 -0.1457  0.2873  0.2793
   56MOL0     C 7308   4.664   9.764   8.053  0.1680 -0.5045 -0.2337
   56MOL0     C 7309   4.776   9.708   8.122 -1.0855 -0.8528  0.5399
   56MOL0     N 7310   5.439   9.091   8.138 -0.3270 -0.1350 -0.0579
   56MOL0     N 7311   5.463   9.067   8.260 -0.6650  0.3480  0.7613
   56MOL0     C 7312   4.804   8.308   8.069 -0.5839 -0.0262 -0.1030
   56MOL0     C 7313   4.775   8.196   7.991  0.9645  0.1625  0.3271
   56MOL0     C 7314   4.830   7.764   7.794  1.2168  0.0104  0.4170
   56MOL0     C 7315   4.699   7.709   7.817  0.7193 -0.2971 -0.2351
   56MOL0     C 7316   4.672   7.581   7.770  0.1755  0.5805 -0.2597
   56MOL0     C 7317   4.757   7.510   7.693  0.3422  0.2291 -0.1857
   56MOL0     O 7318   4.709   7.380   7.689  0.3637 -0.1640 -0.7096
   56MOL0     C 7319   4.799   7.298   7.616 -0.1156 -1.1828  0.4702
   56MOL0     C 7320   4.738   7.161   7.609 -1.1474 -0.0400  0.0969
   56MOL0     C 7321   4.831   7.060   7.543 -0.7004  0.2351  0.5061
   56MOL0     C 7322   4.839   6.931   7.638 -0.0391  0.0032  0.3388
   56MOL0     C 7323   4.894   6.822   7.558  0.2229 -0.3280 -0.5166
   56MOL0     C 7324   4.928   6.736   7.484  0.1893 -0.2459 -0.0513
   56MOL0     C 7325   4.876   7.566   7.647 -0.5629 -0.2428  0.7752
   56MOL0     C 7326   4.906   7.696   7.700  0.8376 -0.0772 -0.5412
   56MOL0     H 7327   4.990   7.957   8.115  3.2421  1.5753  1.4838
   56MOL0     H 7328   5.041   8.145   8.254  0.8818 -1.1116 -0.5519
   56MOL0     H 7329   5.069   8.513   8.120 -0.0010  1.0967 -0.0399
   56MOL0     H 7330   5.141   8.350   8.130  0.6306  1.9177 -0.9943
   56MOL0     H 7331   5.273   8.447   8.272  0.5912 -2.3315  0.2316
   56MOL0     H 7332   5.153   8.391   8.390  1.6268 -0.0219  0.1445
   56MOL0     H 7333   5.038   8.601   8.399 -0.3586 -3.5370 -0.6714
   56MOL0     H 7334   5.145   8.663   8.273 -2.6589  3.1446  1.2500
   56MOL0     H 7335   5.203   8.629   8.568 -0.5753 -2.0775 -0.0467
   56MOL0     H 7336   5.323   8.581   8.447  1.2566  1.9964  0.4922
   56MOL0     H 7337   5.361   8.786   8.375  1.3265 -4.0362  0.9581
   56MOL0     H 7338   5.340   8.816   8.549 -2.1578  0.9911  1.2205
   56MOL0     H 7339   5.087   8.851   8.480 -0.4630  1.4602  0.0245
   56MOL0     H 7340   5.161   8.922   8.343 -2.1759 -0.4181  0.9623
   56MOL0     H 7341   5.134   9.091   8.492 -2.1647 -0.3877  1.2741
   56MOL0     H 7342   5.214   8.998   8.619  0.5672  2.2843 -1.2008
   56MOL0     H 7343   5.435   9.023   8.517  1.3014 -2.6624 -2.1055
   56MOL0     H 7344   5.361   9.185   8.532  1.9574 -1.4110  1.5545
   56MOL0     H 7345   5.163   9.218   8.271  0.9445  1.7575 -0.6368
   56MOL0     H 7346   5.143   9.136   8.022 -1.2460  1.4347  1.0571
   56MOL0     H 7347   5.300   9.139   7.922  1.1252  0.1660  0.7241
   56MOL0     H 7348   5.198   9.342   7.867  1.4907  0.4945 -0.0282
   56MOL0     H 7349   5.322   9.375   7.985  1.5752 -3.4268 -1.4494
   56MOL0     H 7350   5.017   9.358   7.999 -0.3488 -2.1823  1.4508
   56MOL0     H 7351   5.103   9.358   8.151 -2.4681  1.0934  0.4904
   56MOL0     H 7352   5.148   9.612   7.973  1.8133 -0.7220 -1.7700
   56MOL0     H 7353   5.208   9.583   8.127  1.3208 -0.2003 -0.2262
   56MOL0     H 7354   4.961   9.602   7.860 -1.0000 -0.6571 -0.4122
   56MOL0     H 7355   4.807   9.710   7.739 -2.6147 -0.0790 -0.6975
   56MOL0     H 7356   4.321   9.724   7.686 -3.4634  2.4689  1.1250
   56MOL0     H 7357   4.150   9.798   7.534  0.0870 -1.4037  0.7840
   56MOL0     H 7358   4.229  10.169   7.231  1.3304 -1.8290  0.6366
   56MOL0     H 7359   4.176  10.201   7.400 -3.4796 -1.0431  1.7159
   56MOL0     H 7360   3.962  10.169   7.379 -0.2511  0.5304  0.0502
   56MOL0     H 7361   3.980  10.075   7.221  1.1329 -0.6939  0.2220
   56MOL0     H 7362   4.035  10.257   7.104 -1.3731 -2.2130 -0.0524
   56MOL0     H 7363   4.040  10.366   7.253 -0.7730 -0.0226  1.5989
   56MOL0     H 7364   3.786  10.250   7.126 -1.0545  2.4734 -2.3820
   56MOL0     H 7365   3.805  10.335   7.292  0.0873  0.4371 -0.1214
   56MOL0     H 7366   3.853  10.444   7.010 -0.2458  0.4284 -0.0177
   56MOL0     H 7367   3.897  10.526   7.168 -0.8681  0.7040 -1.2705
   56MOL0     H 7368   3.643  10.509   7.210 -0.2946  0.3596 -0.4223
   56MOL0     H 7369   3.637  10.448   7.034 -1.6216 -0.1490  0.2506
   56MOL0     H 7370   3.726  10.724   7.123  2.3143 -0.8660 -0.6841
   56MOL0     H 7371   3.748  10.662   6.961  2.0844 -0.0970  1.1047
   56MOL0     H 7372   3.558  10.814   6.965 -1.7896 -0.7368  0.0668
   56MOL0     H 7373   3.465  10.710   7.072 -1.6727 -2.2548 -1.1381
   56MOL0     H 7374   4.413  10.103   7.367  0.5704 -1.1943 -0.5424
   56MOL0     H 7375   4.596  10.009   7.511  0.4851 -1.2835 -2.0987
   56MOL0     H 7376   4.575   9.794   8.108 -0.1361 -1.9667  0.1345
   56MOL0     H 7377   4.769   9.699   8.230 -0.5403  0.8571  0.7519
   56MOL0     H 7378   4.763   8.407   8.052 -0.5533  0.3756  1.9472
   56MOL0     H 7379   4.700   8.198   7.912  1.0009 -2.3213  0.1575
   56MOL0     H 7380   4.628   7.770   7.872  1.2485  1.4130 -1.3524
   56MOL0     H 7381   4.580   7.530   7.798  1.8206 -2.3360  0.2499
   56MOL0     H 7382   4.901   7.309   7.654  0.4361 -3.5161 -0.1574
   56MOL0     H 7383   4.817   7.348   7.520  3.8213 -0.2944  1.5003
   56MOL0     H 7384   4.714   7.125   7.709 -3.3137 -1.2410 -0.7915
   56MOL0     H 7385   4.645   7.171   7.553 -1.3807 -2.0994  0.0348
   56MOL0     H 7386   4.935   7.094   7.533 -0.7940  0.3218 -0.2463
   56MOL0     H 7387   4.801   7.050   7.438  2.0840  3.0966 -0.7422
   56MOL0     H 7388   4.901   6.966   7.721 -1.1673  0.8431  0.8452
   56MOL0     H 7389   4.744   6.900   7.681  0.3672 -1.4915  0.2113
   56MOL0     H 7390   4.951   6.658   7.414  0.4671 -0.5065  0.3291
   56MOL0     H 7391   4.947   7.510   7.587 -1.5034 -1.7841  1.0472
   56MOL0     H 7392   5.001   7.741   7.672  0.0416  2.1013  0.0499
   57MOL0     O 7393   4.091   7.258   1.660 -0.5365 -0.5543  0.5951
   57MOL0     C 7394   4.062   7.149   1.704  0.1631  0.8766  0.3212
   57MOL0     O 7395   3.942   7.080   1.685 -0.0194 -1.1394 -0.6274
   57MOL0     C 7396   3.826   7.128   1.635  0.4498  0.1376 -0.9276
   57MOL0     C 7397   3.712   7.042   1.654  0.6390  0.5223 -0.2696
   57MOL0     C 7398   3.584   7.087   1.621 -0.5007  0.0479  0.8163
   57MOL0     C 7399   3.565   7.213   1.563 -1.0634  0.5099  0.7224
   57MOL0     O 7400   3.436   7.239   1.538 -0.4213  0.3003  0.0218
   57MOL0     C 7401   3.397   7.355   1.610  0.4241 -0.5938 -0.5325
   57MOL0     C 7402   3.246   7.343   1.645 -0.4824 -0.3377  0.2788
   57MOL0     C 7403   3.192   7.465   1.738 -0.7949 -0.6300 -0.2166
   57MOL0     C 7404   3.239   7.435   1.879 -0.8763 -0.1397  0.5248
   57MOL0     C 7405   3.180   7.532   1.976  0.6621 -0.0858  0.2717
   57MOL0     C 7406   3.033   7.512   2.004  0.3028 -0.6105 -0.4568
   57MOL0     C 7407   2.976   7.609   2.112  0.1179  0.3366  0.7763
   57MOL0     C 7408   2.823   7.578   2.148 -0.1489  0.9571  0.2056
   57MOL0     N 7409   2.733   7.586   2.032 -0.8327  0.7418 -0.7576
   57MOL0     C 7410   2.640   7.686   2.013 -0.7228  0.6454  0.2216
   57MOL0     C 7411   2.548   7.626   1.928  0.4613  1.4380 -0.2652
   57MOL0     C 7412   2.411   7.679   1.910 -0.4133  0.3703  0.0141
   57MOL0     C 7413   2.358   7.686   1.761 -0.0356 -0.4022 -0.5208
   57MOL0     C 7414   2.289   7.552   1.706 -0.3067  1.0914 -0.3728
   57MOL0     C 7415   2.272   7.559   1.554  1.2866  0.1905  0.1107
   57MOL0     O 7416   2.238   7.428   1.502 -0.1902 -0.3499 -0.5887
   57MOL0     C 7417   2.105   7.389   1.480 -0.7205 -1.0613  0.0173
   57MOL0     C 7418   2.079   7.286   1.383 -0.5488  0.1177 -0.5045
   57MOL0     C 7419   1.946   7.248   1.353 -0.1939  0.2334  0.4862
   57MOL0     C 7420   1.840   7.303   1.422 -0.8202  0.2919  0.4503
   57MOL0     C 7421   1.702   7.260   1.402  0.2868 -0.0168  0.9955
   57MOL0     O 7422   1.609   7.330   1.473 -0.6857 -0.1083 -0.4950
   57MOL0     C 7423   1.475   7.306   1.470 -0.2741  0.3974 -0.6642
   57MOL0     C 7424   1.380   7.411   1.456 -0.5854 -0.9560 -0.4233
   57MOL0     C 7425   1.239   7.392   1.440 -0.2045  0.7352 -0.1735
   57MOL0     C 7426   1.198   7.264   1.446  0.6474 -0.0599 -0.1342
   57MOL0     O 7427   1.061   7.249   1.442 -0.2918 -0.3526  0.0532
   57MOL0     C 7428   1.012   7.258   1.576  1.1051 -0.9208 -0.0986
   57MOL0     C 7429   0.893   7.153   1.579 -0.0472  0.1030  1.1819
   57MOL0     C 7430   0.811   7.157   1.709 -0.2763 -0.3346  0.5596
   57MOL0     C 7431   0.716   7.051   1.732  0.2763  0.5390 -0.0881
   57MOL0     C 7432   0.604   7.088   1.832 -0.0897  0.1584  0.7474
   57MOL0     C 7433   0.536   6.962   1.889 -1.5521 -0.1636 -0.6959
   57MOL0     C 7434   0.445   7.000   2.009  0.1977  0.5041  0.0815
   57MOL0     C 7435   0.348   7.120   1.986  0.0996 -0.2738  0.2965
   57MOL0    Cl 7436   0.276   7.096   1.822 -0.3326 -0.1231  0.1904
   57MOL0     C 7437   1.281   7.153   1.460  0.5329 -1.1010 -0.0482
   57MOL0     C 7438   1.419   7.171   1.466 -0.3213 -0.2490 -0.7133
   57MOL0     O 7439   1.679   7.164   1.329 -0.4680  0.3797 -0.4281
   57MOL0     C 7440   1.871   7.417   1.507  0.2776 -0.5134  0.1588
   57MOL0     C 7441   2.002   7.454   1.545 -0.3947 -0.0108 -0.1940
   57MOL0     N 7442   2.595   7.500   1.909  0.2046 -1.0900 -0.3090
   57MOL0     N 7443   2.709   7.478   1.960  1.3207 -0.1567 -0.0459
   57MOL0     C 7444   3.680   7.293   1.534 -0.3734 -0.1783 -0.1998
   57MOL0     C 7445   3.808   7.253   1.576  0.2333  0.3563  0.3486
   57MOL0     C 7446   4.161   7.073   1.788  0.6282 -0.7687  0.1861
   57MOL0     C 7447   4.279   7.143   1.822  0.3700  0.6554 -0.8000
   57MOL0     C 7448   4.385   7.072   1.882  0.2342 -0.1157 -0.4707
   57MOL0     C 7449   4.367   6.934   1.925  0.4970 -0.7267  0.0472
   57MOL0     O 7450   4.457   6.848   1.983  0.1623 -0.4187  0.0223
   57MOL0     C 7451   4.600   6.871   1.981  0.3353  0.5795  0.4437
   57MOL0     C 7452   4.673   6.810   2.097 -0.8086  0.5688 -0.3641
   57MOL0     C 7453   4.646   6.660   2.112  0.2957 -0.7333  1.4656
   57MOL0     C 7454   4.757   6.596   2.196  0.1070  0.2594 -0.8039
   57MOL0     C 7455   4.863   6.543   2.116  0.3400 -0.4397  1.0844
   57MOL0     C 7456   4.937   6.499   2.020  0.2278 -0.6864  0.0562
   57MOL0     C 7457   4.239   6.876   1.897 -0.3044  0.0816  0.3645
   57MOL0     C 7458   4.137   6.944   1.829  1.2615  1.5912  0.0887
   57MOL0     H 7459   3.738   6.944   1.694  2.7011  2.5013  3.8888
   57MOL0     H 7460   3.504   7.014   1.628  1.6748 -2.7249 -1.1489
   57MOL0     H 7461   3.412   7.445   1.550  0.8977 -0.2174  0.1387
   57MOL0     H 7462   3.458   7.360   1.700  0.3622 -0.2352 -0.5115
   57MOL0     H 7463   3.230   7.244   1.688 -0.0416 -0.2717  0.5981
   57MOL0     H 7464   3.182   7.354   1.557 -0.1018  4.2462  0.3505
   57MOL0     H 7465   3.084   7.478   1.736 -0.4502  4.3792  1.2393
   57MOL0     H 7466   3.235   7.560   1.707 -0.6009 -1.6145 -3.2498
   57MOL0     H 7467   3.214   7.333   1.912 -0.4811  0.6717  3.6852
   57MOL0     H 7468   3.347   7.452   1.881 -0.9833  0.6485 -0.1768
   57MOL0     H 7469   3.186   7.634   1.939 -1.3793  0.1943  0.5534
   57MOL0     H 7470   3.235   7.521   2.070 -0.0477 -1.4244  0.5590
   57MOL0     H 7471   3.018   7.406   2.026  0.0623 -0.1978  1.5378
   57MOL0     H 7472   2.980   7.542   1.913  2.4337  2.3203 -0.8513
   57MOL0     H 7473   3.031   7.608   2.207 -2.1200 -0.7980  2.1364
   57MOL0     H 7474   2.981   7.709   2.069  3.3347  1.0926  2.5341
   57MOL0     H 7475   2.790   7.647   2.226  1.2240  0.3773  1.3394
   57MOL0     H 7476   2.814   7.484   2.204 -4.1352  0.7336 -0.5155
   57MOL0     H 7477   2.636   7.785   2.057  1.8138  1.7025 -1.6681
   57MOL0     H 7478   2.417   7.772   1.966  2.2243  0.1601  0.2049
   57MOL0     H 7479   2.345   7.603   1.954  1.7718 -2.5220 -1.3701
   57MOL0     H 7480   2.443   7.713   1.698 -0.1272  0.1666 -0.4019
   57MOL0     H 7481   2.282   7.763   1.750  1.6824  1.9636  2.4987
   57MOL0     H 7482   2.349   7.464   1.732 -1.2144  0.8527  1.0394
   57MOL0     H 7483   2.199   7.543   1.767 -0.1520  1.1137 -0.1398
   57MOL0     H 7484   2.365   7.591   1.505  1.0695 -1.0384 -1.1674
   57MOL0     H 7485   2.191   7.625   1.523  2.5265  2.9539  2.3350
   57MOL0     H 7486   2.167   7.242   1.338 -1.2375  0.0520 -1.8249
   57MOL0     H 7487   1.940   7.173   1.274 -0.2755 -0.0372  0.7444
   57MOL0     H 7488   1.416   7.513   1.461 -1.6521 -0.5751 -0.1848
   57MOL0     H 7489   1.173   7.478   1.431  0.2190  1.1296  0.4651
   57MOL0     H 7490   0.978   7.361   1.585  1.1037 -0.7338 -1.8356
   57MOL0     H 7491   1.087   7.246   1.654  0.9299 -0.0056  0.2173
   57MOL0     H 7492   0.926   7.052   1.553 -1.9326  0.5142 -4.1163
   57MOL0     H 7493   0.819   7.174   1.501  0.5438 -0.0547  0.5698
   57MOL0     H 7494   0.759   7.253   1.712 -1.4160 -0.8142 -1.6830
   57MOL0     H 7495   0.887   7.154   1.788  1.6115 -1.0083 -1.1936
   57MOL0     H 7496   0.667   7.016   1.641  0.0861 -0.3172  0.3324
   57MOL0     H 7497   0.770   6.964   1.771 -0.8349  0.3493  1.0973
   57MOL0     H 7498   0.532   7.156   1.784  0.2559  0.3484  0.4989
   57MOL0     H 7499   0.653   7.145   1.911 -1.1186 -0.3294  1.7863
   57MOL0     H 7500   0.600   6.879   1.921 -1.5784 -1.5891 -3.9694
   57MOL0     H 7501   0.479   6.914   1.810 -1.5760 -1.9890  0.3869
   57MOL0     H 7502   0.385   6.910   2.023 -1.0740  0.8561 -2.4030
   57MOL0     H 7503   0.500   7.027   2.099  0.3349 -1.4946  0.6277
   57MOL0     H 7504   0.400   7.217   1.982 -0.5456  0.1456 -4.9008
   57MOL0     H 7505   0.268   7.119   2.060 -1.9122 -0.4318 -1.7641
   57MOL0     H 7506   1.245   7.052   1.447  4.2907 -2.6963  0.5096
   57MOL0     H 7507   1.479   7.082   1.450 -0.9679 -0.9237  0.5214
   57MOL0     H 7508   1.792   7.472   1.557  0.2215 -0.6489  0.2186
   57MOL0     H 7509   2.026   7.529   1.620 -1.4372  0.4095 -0.2736
   57MOL0     H 7510   3.682   7.392   1.489  0.1093 -0.0048  0.1877
   57MOL0     H 7511   3.887   7.325   1.555 -0.4577  1.0451  0.0633
   57MOL0     H 7512   4.298   7.242   1.780 -2.0889  1.4741 -0.1458
   57MOL0     H 7513   4.474   7.127   1.910  0.0952  0.3859 -1.0166
   57MOL0     H 7514   4.623   6.978   1.982 -1.9160  1.1353  2.1897
   57MOL0     H 7515   4.637   6.845   1.882  0.0355 -2.4158  1.0066
   57MOL0     H 7516   4.779   6.830   2.077 -1.4985  1.3303 -3.9001
   57MOL0     H 7517   4.655   6.858   2.193  1.1680 -1.6639  1.2424
   57MOL0     H 7518   4.658   6.620   2.011  2.2459  1.9399  0.5207
   57MOL0     H 7519   4.544   6.636   2.142  0.4522 -3.0508  0.3680
   57MOL0     H 7520   4.806   6.669   2.260 -1.3462  1.6476 -1.2094
   57MOL0     H 7521   4.720   6.513   2.259  1.2244  0.8737  0.7211
   57MOL0     H 7522   5.015   6.468   1.954 -1.1031 -1.1083 -1.3950
   57MOL0     H 7523   4.223   6.774   1.931 -1.0804 -0.6320 -1.9681
   57MOL0     H 7524   4.053   6.884   1.797  1.3482  1.1771  0.6104
   58MOL0     O 7525   7.189   2.944   5.993 -1.1167  0.3470 -0.4701
   58MOL0     C 7526   7.294   2.989   5.959 -0.0790 -0.1713 -0.8924
   58MOL0     O 7527   7.361   3.095   6.016  0.0552 -0.5190  0.5368
   58MOL0     C 7528   7.279   3.165   6.102  0.2169  0.9096 -0.3984
   58MOL0     C 7529   7.189   3.272   6.056 -0.7722  0.4277 -0.1189
   58MOL0     C 7530   7.109   3.341   6.150 -0.6741  0.0743  0.2039
   58MOL0     C 7531   7.129   3.322   6.287  0.9181 -0.5187  0.7150
   58MOL0     O 7532   7.070   3.406   6.378 -0.0690  0.6405 -0.2153
   58MOL0     C 7533   7.165   3.517   6.396  0.7175 -0.3576 -0.5720
   58MOL0     C 7534   7.089   3.633   6.479  0.1080 -0.5265  1.0594
   58MOL0     C 7535   6.982   3.702   6.386  0.6350  0.3039  0.3905
   58MOL0     C 7536   7.043   3.786   6.278  0.0479 -0.9851  0.5687
   58MOL0     C 7537   7.009   3.937   6.261  0.9603  0.6538 -0.6322
   58MOL0     C 7538   7.019   3.978   6.113  0.3442  0.8765 -0.5265
   58MOL0     C 7539   7.138   3.927   6.027 -0.1580  0.6266  0.5962
   58MOL0     C 7540   7.155   3.994   5.889  0.0925  0.2625 -0.1633
   58MOL0     N 7541   7.228   4.126   5.898  0.1780  1.1525  0.1899
   58MOL0     C 7542   7.163   4.247   5.883  0.5871  0.3762 -0.6990
   58MOL0     C 7543   7.260   4.337   5.896 -0.3182 -0.6793 -0.5339
   58MOL0     C 7544   7.252   4.486   5.893 -0.1159  0.6376  0.6896
   58MOL0     C 7545   7.102   4.525   5.908 -0.3026 -0.6622  0.0421
   58MOL0     C 7546   7.081   4.677   5.917  0.2634  0.2645 -0.6968
   58MOL0     C 7547   7.135   4.742   5.789  1.2940  0.3929 -0.4637
   58MOL0     O 7548   7.117   4.888   5.793  0.2797 -0.4624  0.1691
   58MOL0     C 7549   6.987   4.929   5.811 -1.0880 -0.2806 -0.3931
   58MOL0     C 7550   6.971   5.029   5.902  0.3129  0.2633  0.3403
   58MOL0     C 7551   6.843   5.075   5.931 -0.8440  0.1874  0.2436
   58MOL0     C 7552   6.735   5.035   5.848 -0.0453  0.8993 -0.2823
   58MOL0     C 7553   6.599   5.088   5.867 -0.3907 -0.5873  0.0384
   58MOL0     O 7554   6.596   5.193   5.950 -0.7823 -0.2499  0.1272
   58MOL0     C 7555   6.474   5.256   5.984 -0.8231  0.3026  0.4845
   58MOL0     C 7556   6.479   5.331   6.102 -0.3192 -0.1560  0.6085
   58MOL0     C 7557   6.358   5.371   6.162  0.2710 -0.2011 -0.1963
   58MOL0     C 7558   6.236   5.364   6.087 -0.7800  0.2537 -0.4672
   58MOL0     O 7559   6.122   5.427   6.138 -0.2540  0.9338  0.3778
   58MOL0     C 7560   5.991   5.365   6.094 -0.6579 -0.3913  0.1708
   58MOL0     C 7561   5.885   5.442   6.174  0.7959  0.3576 -0.9233
   58MOL0     C 7562   5.749   5.398   6.127  0.4143  0.8106 -0.3600
   58MOL0     C 7563   5.644   5.494   6.183 -0.4939 -0.6970 -0.0679
   58MOL0     C 7564   5.504   5.422   6.174  1.1810 -0.2410 -0.1905
   58MOL0     C 7565   5.384   5.515   6.202 -0.2752  0.4035 -0.3066
   58MOL0     C 7566   5.366   5.518   6.350  0.2860 -0.7832  0.2620
   58MOL0     C 7567   5.242   5.608   6.386  0.4129  0.5084 -0.0536
   58MOL0    Cl 7568   5.229   5.602   6.571 -0.4818 -0.0525  0.1635
   58MOL0     C 7569   6.242   5.309   5.962 -0.0318  0.0560 -0.8210
   58MOL0     C 7570   6.356   5.262   5.910 -0.4615  0.2947  0.1338
   58MOL0     O 7571   6.506   5.035   5.809 -0.6315 -0.4560 -1.1286
   58MOL0     C 7572   6.760   4.941   5.744  0.7944  0.1415 -1.0234
   58MOL0     C 7573   6.882   4.884   5.731  0.2294  1.6915 -0.4749
   58MOL0     N 7574   7.377   4.274   5.914  0.6075  0.1735  0.5717
   58MOL0     N 7575   7.357   4.153   5.933 -0.2100  0.1389 -0.3348
   58MOL0     C 7576   7.198   3.213   6.329  1.2655 -1.0203 -0.9222
   58MOL0     C 7577   7.276   3.137   6.238 -0.5249 -0.1666 -0.2363
   58MOL0     C 7578   7.367   2.906   5.863  0.2409  0.0660  0.5904
   58MOL0     C 7579   7.313   2.786   5.816  0.2616 -0.0289 -0.4718
   58MOL0     C 7580   7.383   2.704   5.728 -0.6765  0.0490 -1.1654
   58MOL0     C 7581   7.507   2.751   5.680  0.7610 -0.4005 -0.8489
   58MOL0     O 7582   7.574   2.683   5.578  0.3132 -0.1760 -0.2437
   58MOL0     C 7583   7.697   2.623   5.601  0.2193  1.0447 -0.0723
   58MOL0     C 7584   7.734   2.543   5.478  0.3419 -0.0648 -1.4882
   58MOL0     C 7585   7.618   2.445   5.443  0.0599  0.3499  0.3397
   58MOL0     C 7586   7.645   2.332   5.345 -0.6485  0.0891 -0.0718
   58MOL0     C 7587   7.658   2.390   5.216 -0.8258 -0.3035  0.0395
   58MOL0     C 7588   7.669   2.418   5.100  0.3657  0.4672  0.1981
   58MOL0     C 7589   7.557   2.878   5.710  0.9305  0.1952 -0.6704
   58MOL0     C 7590   7.491   2.955   5.802 -0.4092  0.7642 -0.0255
   58MOL0     H 7591   7.162   3.289   5.953 -1.3280  1.3377  0.1617
   58MOL0     H 7592   7.044   3.420   6.114 -0.9056 -0.8013 -1.3682
   58MOL0     H 7593   7.197   3.553   6.298 -0.9832 -0.2788 -1.1353
   58MOL0     H 7594   7.251   3.470   6.443  0.9633 -2.0181 -2.5156
   58MOL0     H 7595   7.161   3.709   6.512  0.8777 -0.3277 -0.9392
   58MOL0     H 7596   7.054   3.584   6.571 -0.5412  0.9812  1.6451
   58MOL0     H 7597   6.927   3.768   6.453  0.2925 -0.8110  1.2470
   58MOL0     H 7598   6.920   3.621   6.347  1.1040 -1.0959  2.3621
   58MOL0     H 7599   7.152   3.786   6.281  0.4500 -4.4929 -3.5285
   58MOL0     H 7600   7.028   3.731   6.184  1.0822  1.2136 -0.9635
   58MOL0     H 7601   7.084   3.997   6.314  0.7794  2.6221 -2.4684
   58MOL0     H 7602   6.909   3.958   6.300  0.0775  0.3432 -2.6019
   58MOL0     H 7603   6.988   4.081   6.090 -1.0154  0.1038 -2.4045
   58MOL0     H 7604   6.938   3.935   6.053  0.5052  2.4698 -1.9955
   58MOL0     H 7605   7.231   3.924   6.085  1.1539  0.0199 -1.4168
   58MOL0     H 7606   7.125   3.824   5.994  3.3880  0.9209 -2.3644
   58MOL0     H 7607   7.057   4.010   5.845 -0.7337 -0.8155  1.1670
   58MOL0     H 7608   7.215   3.926   5.828  1.6505  1.4647 -0.0263
   58MOL0     H 7609   7.056   4.253   5.866  0.4417 -1.8710 -0.9044
   58MOL0     H 7610   7.294   4.525   5.800 -1.0721  2.4298  0.9681
   58MOL0     H 7611   7.309   4.536   5.972 -0.3806  1.3670  0.4268
   58MOL0     H 7612   7.048   4.475   5.989 -1.8969 -2.5153 -2.0232
   58MOL0     H 7613   7.054   4.506   5.811  2.0723  3.1783 -2.1445
   58MOL0     H 7614   6.976   4.699   5.939  0.1160 -2.9309  2.5702
   58MOL0     H 7615   7.134   4.711   6.006 -1.8037  2.5413 -0.2327
   58MOL0     H 7616   7.086   4.697   5.702  0.0719 -1.4899  1.1355
   58MOL0     H 7617   7.241   4.718   5.797  0.4994 -4.3907 -1.3488
   58MOL0     H 7618   7.045   5.070   5.969 -1.3557  0.6212  2.0569
   58MOL0     H 7619   6.837   5.142   6.016 -1.3636 -1.1798  1.3397
   58MOL0     H 7620   6.578   5.338   6.148  0.7835 -3.1668 -1.0698
   58MOL0     H 7621   6.375   5.423   6.255 -0.9311 -3.1040  1.8107
   58MOL0     H 7622   5.985   5.257   6.104 -2.6810 -0.2138  1.3145
   58MOL0     H 7623   5.976   5.387   5.988 -2.4459  0.2370  0.5174
   58MOL0     H 7624   5.912   5.548   6.163  2.1117  0.0468 -0.9013
   58MOL0     H 7625   5.895   5.410   6.278 -4.3413 -1.3085 -0.6690
   58MOL0     H 7626   5.729   5.299   6.169  1.0403  1.8670  2.7053
   58MOL0     H 7627   5.741   5.398   6.018 -1.0498 -0.0180 -0.2836
   58MOL0     H 7628   5.661   5.509   6.290  1.1520 -1.3111 -0.2088
   58MOL0     H 7629   5.646   5.587   6.125 -2.4822 -2.3545 -3.0522
   58MOL0     H 7630   5.498   5.329   6.232  0.5573 -1.3355 -1.9471
   58MOL0     H 7631   5.485   5.398   6.070  2.1758  0.2976 -0.5144
   58MOL0     H 7632   5.295   5.478   6.151  0.2223  0.1175 -0.9824
   58MOL0     H 7633   5.388   5.616   6.160  0.3200  0.0736 -1.0608
   58MOL0     H 7634   5.361   5.426   6.409  0.2052 -0.9916 -0.0714
   58MOL0     H 7635   5.456   5.574   6.378  1.1518 -2.3208  0.6621
   58MOL0     H 7636   5.153   5.575   6.331  1.8906 -5.0364  0.3396
   58MOL0     H 7637   5.268   5.713   6.368  1.7300  0.3327  0.6810
   58MOL0     H 7638   6.155   5.300   5.899 -0.6655 -1.8612  0.2197
   58MOL0     H 7639   6.364   5.222   5.810  0.7453  1.7739 -0.3986
   58MOL0     H 7640   6.671   4.920   5.686  0.3643  0.8736 -0.6319
   58MOL0     H 7641   6.888   4.802   5.661 -4.7819 -0.4272  1.1459
   58MOL0     H 7642   7.203   3.201   6.436 -1.3429  0.4634 -0.5547
   58MOL0     H 7643   7.329   3.057   6.288  0.0210 -0.7119 -1.6440
   58MOL0     H 7644   7.227   2.747   5.869  0.3880 -1.9006 -1.5669
   58MOL0     H 7645   7.345   2.606   5.703  2.3169 -2.2581  2.2022
   58MOL0     H 7646   7.703   2.561   5.691  2.1589  1.8713  0.4319
   58MOL0     H 7647   7.780   2.685   5.637  0.6357  0.0940  0.6600
   58MOL0     H 7648   7.734   2.622   5.402  0.0300  1.1823 -0.2237
   58MOL0     H 7649   7.832   2.496   5.485  0.9288  1.2264 -0.6606
   58MOL0     H 7650   7.542   2.512   5.402 -0.7124  0.3641  1.7506
   58MOL0     H 7651   7.582   2.399   5.535 -2.1222 -1.5210 -1.3319
   58MOL0     H 7652   7.728   2.263   5.361  0.4065  1.3217 -0.0292
   58MOL0     H 7653   7.551   2.277   5.360  1.5003 -2.9949  4.0351
   58MOL0     H 7654   7.669   2.427   4.993 -0.4619  1.3958  0.2637
   58MOL0     H 7655   7.650   2.919   5.671  1.4875 -1.1001 -0.7411
   58MOL0     H 7656   7.539   3.046   5.838  0.8408 -0.8527  2.6262
   59MOL0     O 7657   0.635   6.920   9.817 -0.4640 -0.9014 -0.3696
   59MOL0     C 7658   0.686   6.895   9.927 -0.4636 -0.1526  0.1390
   59MOL0     O 7659   0.632   6.836  10.038 -0.2730 -0.2952 -0.3851
   59MOL0     C 7660   0.523   6.758  10.030 -0.3196  0.3735  0.0433
   59MOL0     C 7661   0.408   6.790   9.964 -0.0210 -0.3413 -0.0231
   59MOL0     C 7662   0.297   6.710   9.953 -0.0502 -0.3136 -0.9108
   59MOL0     C 7663   0.306   6.582  10.026 -0.4450  1.7128  0.9330
   59MOL0     O 7664   0.205   6.482  10.017  0.3824 -0.5171  0.5833
   59MOL0     C 7665   0.098   6.485   9.926  0.1181  0.1949 -0.7971
   59MOL0     C 7666  -0.001   6.385   9.980  0.5070  0.6640 -0.0911
   59MOL0     C 7667  -0.090   6.319   9.876 -0.6564 -0.4046  0.3355
   59MOL0     C 7668  -0.168   6.196   9.926  0.8846  0.4497 -0.2644
   59MOL0     C 7669  -0.303   6.229   9.987 -0.4850  0.1957  0.1193
   59MOL0     C 7670  -0.384   6.100  10.021  0.6744  0.0230 -0.3249
   59MOL0     C 7671  -0.517   6.123  10.088  0.5408  0.3700 -0.2615
   59MOL0     C 7672  -0.609   6.222  10.034 -0.1499 -0.3444 -0.2904
   59MOL0     N 7673  -0.733   6.224  10.107 -0.4319  0.6452  0.4157
   59MOL0     C 7674  -0.754   6.292  10.212  1.2384 -0.1920 -1.2325
   59MOL0     C 7675  -0.887   6.262  10.244 -0.7873  0.6872 -0.5096
   59MOL0     C 7676  -0.974   6.320  10.352 -0.1500 -0.0258  1.0273
   59MOL0     C 7677  -1.039   6.440  10.291 -0.7619 -0.2268 -0.3866
   59MOL0     C 7678  -1.016   6.584  10.356 -0.3420  0.1601 -0.9020
   59MOL0     C 7679  -0.867   6.637  10.349  0.7627 -0.4177 -0.0675
   59MOL0     O 7680  -0.852   6.687  10.217  0.3804  0.6156 -0.5180
   59MOL0     C 7681  -0.728   6.670  10.164 -0.4576  0.1320  1.2263
   59MOL0     C 7682  -0.716   6.658  10.022  1.3683  0.9360 -1.0324
   59MOL0     C 7683  -0.587   6.672   9.956  0.5949 -0.2467 -0.9308
   59MOL0     C 7684  -0.476   6.679  10.024 -0.4186  0.0399 -0.2779
   59MOL0     C 7685  -0.350   6.702   9.955  0.6949  0.6968  1.2269
   59MOL0     O 7686  -0.362   6.765   9.837  0.4924  0.2764  0.3807
   59MOL0     C 7687  -0.254   6.782   9.758 -0.6383 -0.8338  0.4201
   59MOL0     C 7688  -0.147   6.862   9.795 -0.1690  0.1453  0.2743
   59MOL0     C 7689  -0.049   6.899   9.707  0.7641 -0.2804  0.4642
   59MOL0     C 7690  -0.036   6.813   9.585 -0.2513 -0.6056  0.0671
   59MOL0     O 7691   0.074   6.856   9.508  0.2353  0.1587  0.7617
   59MOL0     C 7692   0.115   6.767   9.402 -0.1241 -0.0404  0.0685
   59MOL0     C 7693   0.202   6.649   9.452 -0.3521 -0.0705  0.7032
   59MOL0     C 7694   0.319   6.697   9.536 -0.0185  0.0161 -0.7527
   59MOL0     C 7695   0.398   6.577   9.586  1.1558  0.0235  0.5635
   59MOL0     C 7696   0.524   6.624   9.632 -0.0516  0.7488  0.5970
   59MOL0     C 7697   0.594   6.510   9.714  0.0469  0.2656  0.1947
   59MOL0     C 7698   0.716   6.563   9.788 -0.5456 -0.0758  1.3130
   59MOL0     C 7699   0.828   6.463   9.784  0.9796  0.2742  0.2738
   59MOL0    Cl 7700   0.947   6.515   9.896 -0.0922  0.0981 -0.3302
   59MOL0     C 7701  -0.129   6.721   9.554 -0.1502  0.0128 -0.7618
   59MOL0     C 7702  -0.245   6.711   9.633  0.8056 -0.8263  0.2865
   59MOL0     O 7703  -0.245   6.647   9.996 -0.4178  0.4196 -0.0111
   59MOL0     C 7704  -0.480   6.673  10.166 -0.1436  0.2262  0.2400
   59MOL0     C 7705  -0.607   6.673  10.234  0.1898  0.0676  0.6080
   59MOL0     N 7706  -0.947   6.180  10.151 -0.3633 -0.2869  0.6560
   59MOL0     N 7707  -0.845   6.152  10.075  0.0077  0.9048  0.5263
   59MOL0     C 7708   0.414   6.552  10.106 -0.8735  0.2488 -0.3142
   59MOL0     C 7709   0.520   6.643  10.107  0.0743  0.0267 -0.8129
   59MOL0     C 7710   0.805   6.972   9.969 -1.6644 -0.6606  0.4864
   59MOL0     C 7711   0.906   6.937  10.062  0.2155 -0.6795  0.1016
   59MOL0     C 7712   1.010   7.013  10.091 -0.3779  0.4468 -0.4160
   59MOL0     C 7713   1.022   7.140  10.038 -0.1254  0.5499 -0.0767
   59MOL0     O 7714   1.140   7.202  10.069  0.5318 -0.1407 -0.3996
   59MOL0     C 7715   1.152   7.338  10.036 -0.4359  0.1278 -0.4680
   59MOL0     C 7716   1.071   7.426  10.136 -0.2840 -0.2633 -1.1518
   59MOL0     C 7717   1.113   7.400  10.289 -0.1117 -0.6347  0.7443
   59MOL0     C 7718   1.258   7.449  10.313  0.1210 -0.4361 -0.4774
   59MOL0     C 7719   1.272   7.597  10.312 -0.2766  0.5854 -0.6286
   59MOL0     C 7720   1.296   7.713  10.303  0.4637 -0.5725 -0.3367
   59MOL0     C 7721   0.917   7.185   9.951 -0.5344 -0.3462 -0.2641
   59MOL0     C 7722   0.818   7.102   9.917 -0.1897 -0.6913  0.0353
   59MOL0     H 7723   0.394   6.886   9.915 -0.4872 -1.0881 -1.3962
   59MOL0     H 7724   0.200   6.738   9.914 -0.7605 -2.1303 -0.5727
   59MOL0     H 7725   0.152   6.430   9.849  0.9018 -0.8623  0.4625
   59MOL0     H 7726   0.063   6.584   9.894  1.8854  1.6978  1.5263
   59MOL0     H 7727  -0.069   6.433  10.051  0.6594  0.0177  0.5012
   59MOL0     H 7728   0.055   6.305  10.030 -2.6230 -1.8575 -0.2689
   59MOL0     H 7729  -0.025   6.288   9.794 -1.0975 -1.1969  0.2773
   59MOL0     H 7730  -0.158   6.395   9.837  1.4820  1.1901 -0.4838
   59MOL0     H 7731  -0.193   6.124   9.847 -1.2741 -0.0103  0.7646
   59MOL0     H 7732  -0.118   6.142  10.006 -1.3541 -0.8273  0.3454
   59MOL0     H 7733  -0.363   6.294   9.922 -0.5417 -1.2816 -1.3820
   59MOL0     H 7734  -0.294   6.286  10.079 -2.5388 -1.9086  1.7318
   59MOL0     H 7735  -0.334   6.042  10.099 -1.8805 -0.9660  0.6783
   59MOL0     H 7736  -0.391   6.032   9.935  1.4162  0.3810 -0.6795
   59MOL0     H 7737  -0.563   6.025  10.103  2.2483 -0.2104  1.6826
   59MOL0     H 7738  -0.487   6.160  10.186  1.3966  0.0210 -0.3818
   59MOL0     H 7739  -0.625   6.197   9.929  2.2884 -0.9123 -0.5941
   59MOL0     H 7740  -0.557   6.317  10.047 -0.1555 -0.2933 -0.6494
   59MOL0     H 7741  -0.685   6.369  10.244  1.8719 -1.1274 -0.2576
   59MOL0     H 7742  -0.911   6.339  10.440  1.5822  2.3355 -0.5822
   59MOL0     H 7743  -1.048   6.242  10.371  0.5642 -2.3646 -4.1740
   59MOL0     H 7744  -1.147   6.425  10.300 -0.7571  0.5130  1.3445
   59MOL0     H 7745  -1.015   6.432  10.185 -0.3425 -2.2004 -0.1801
   59MOL0     H 7746  -1.076   6.658  10.303  2.0122  0.4976 -3.3243
   59MOL0     H 7747  -1.045   6.579  10.462  0.3802 -2.3236 -0.7686
   59MOL0     H 7748  -0.794   6.557  10.369  1.7591  1.1911  3.5356
   59MOL0     H 7749  -0.853   6.711  10.429 -0.0964 -0.2301 -0.0878
   59MOL0     H 7750  -0.801   6.635   9.959  1.6840  1.1229 -1.5365
   59MOL0     H 7751  -0.583   6.679   9.847  4.1067  0.7059 -0.8761
   59MOL0     H 7752  -0.155   6.917   9.889 -2.4866  1.5673 -0.6546
   59MOL0     H 7753   0.031   6.967   9.733  0.1461  0.5042  0.3694
   59MOL0     H 7754   0.179   6.827   9.337  2.8461 -0.5689  2.3013
   59MOL0     H 7755   0.030   6.726   9.345  0.8030 -2.1733  0.1063
   59MOL0     H 7756   0.244   6.597   9.366  1.3143 -0.2238  1.5768
   59MOL0     H 7757   0.145   6.577   9.511  2.3691 -0.4455  3.0488
   59MOL0     H 7758   0.282   6.746   9.626 -0.5801  1.1750 -1.5764
   59MOL0     H 7759   0.390   6.758   9.478 -0.6742 -0.6440 -2.3108
   59MOL0     H 7760   0.346   6.509   9.654  0.1531 -3.0136 -2.9024
   59MOL0     H 7761   0.416   6.511   9.500  1.3019  0.7369  0.0295
   59MOL0     H 7762   0.503   6.699   9.709  1.8445  1.5680  0.3837
   59MOL0     H 7763   0.589   6.669   9.557  1.2811 -0.6306  0.8750
   59MOL0     H 7764   0.619   6.428   9.645 -1.6397 -1.4623  1.5400
   59MOL0     H 7765   0.529   6.457   9.783 -0.0840 -0.8973 -0.7916
   59MOL0     H 7766   0.747   6.658   9.744  1.2679 -0.7638  1.0204
   59MOL0     H 7767   0.701   6.595   9.891 -0.1630 -0.8833  1.6258
   59MOL0     H 7768   0.870   6.457   9.683  2.6455 -1.6431  1.0119
   59MOL0     H 7769   0.791   6.366   9.818  0.5067  1.3231  3.0052
   59MOL0     H 7770  -0.117   6.659   9.466  0.8136 -0.8680 -0.0452
   59MOL0     H 7771  -0.338   6.658   9.610  1.8529 -2.1609 -1.1083
   59MOL0     H 7772  -0.389   6.678  10.224  2.0656 -0.7053 -2.8648
   59MOL0     H 7773  -0.607   6.682  10.342 -0.2481  4.2019  0.4554
   59MOL0     H 7774   0.417   6.462  10.168 -0.0605 -0.3730 -1.2224
   59MOL0     H 7775   0.607   6.637  10.172 -0.1516  2.1687 -0.2459
   59MOL0     H 7776   0.918   6.845  10.118 -2.7002  0.7910  3.5360
   59MOL0     H 7777   1.090   6.979  10.155 -1.5367 -3.3827 -0.7837
   59MOL0     H 7778   1.121   7.362   9.934  1.0075 -0.6420 -1.1062
   59MOL0     H 7779   1.257   7.369  10.036 -0.2746  0.2870  3.9330
   59MOL0     H 7780   1.086   7.531  10.110  1.9891 -0.7647 -2.0521
   59MOL0     H 7781   0.964   7.401  10.133 -0.0306 -1.3397 -1.6626
   59MOL0     H 7782   1.101   7.293  10.309 -0.9499 -0.9126 -1.0341
   59MOL0     H 7783   1.043   7.447  10.358 -0.8100  2.0680 -1.6007
   59MOL0     H 7784   1.279   7.409  10.413  0.1553 -2.8849 -1.3872
   59MOL0     H 7785   1.324   7.410  10.234 -3.1612 -0.9328 -3.2225
   59MOL0     H 7786   1.319   7.818  10.311  0.0519 -0.4618 -0.5787
   59MOL0     H 7787   0.928   7.284   9.908  3.5622  1.1017  3.3675
   59MOL0     H 7788   0.734   7.141   9.859 -1.0469 -1.3536  0.8101
   60MOL0     O 7789   3.519   9.404   6.201 -0.2329  0.2511 -0.2373
   60MOL0     C 7790   3.593   9.315   6.166  0.3239  0.2722  0.8178
   60MOL0     O 7791   3.557   9.224   6.075  0.4289 -0.7756  0.2578
   60MOL0     C 7792   3.435   9.224   6.001  0.4524 -0.0408  0.2256
   60MOL0     C 7793   3.386   9.108   5.933  0.1581 -0.5144  0.0282
   60MOL0     C 7794   3.275   9.109   5.850 -0.6670 -0.1093  0.1835
   60MOL0     C 7795   3.198   9.222   5.843  1.0194  0.2662  0.6257
   60MOL0     O 7796   3.086   9.209   5.773 -0.9461  0.5862 -0.2609
   60MOL0     C 7797   2.970   9.277   5.816 -0.9747  0.6911 -1.4150
   60MOL0     C 7798   2.864   9.243   5.711 -0.2731 -0.7134  0.2728
   60MOL0     C 7799   2.743   9.348   5.712 -0.0211  1.0245 -0.5503
   60MOL0     C 7800   2.653   9.351   5.593  0.2547 -0.1669  0.0239
   60MOL0     C 7801   2.519   9.430   5.623 -0.7058 -0.0474 -0.4402
   60MOL0     C 7802   2.543   9.575   5.673  0.1832 -0.8218 -0.1280
   60MOL0     C 7803   2.414   9.670   5.676 -0.2473  0.2705 -0.3416
   60MOL0     C 7804   2.294   9.609   5.757  0.4378 -0.9187 -0.1582
   60MOL0     N 7805   2.300   9.598   5.903  1.0960 -0.3316 -0.5879
   60MOL0     C 7806   2.397   9.649   5.983  0.0857  0.8245 -0.0105
   60MOL0     C 7807   2.365   9.618   6.110  0.0052  0.7851 -0.0052
   60MOL0     C 7808   2.456   9.652   6.229  0.0611  0.4682 -0.0982
   60MOL0     C 7809   2.455   9.553   6.350 -0.2580 -0.3080 -0.4654
   60MOL0     C 7810   2.566   9.606   6.447  0.7972  0.4025 -0.1078
   60MOL0     C 7811   2.533   9.545   6.582  0.0750  0.4501 -1.3908
   60MOL0     O 7812   2.631   9.598   6.672 -0.8038  0.6261  0.2022
   60MOL0     C 7813   2.648   9.539   6.798  0.2985  0.0496 -0.0808
   60MOL0     C 7814   2.758   9.594   6.872  0.2320 -0.6866 -0.3522
   60MOL0     C 7815   2.796   9.553   6.993 -0.4371  0.4363 -0.7738
   60MOL0     C 7816   2.715   9.456   7.061  0.5684  0.2364 -1.4519
   60MOL0     C 7817   2.750   9.400   7.191 -0.4676  0.4200 -0.1023
   60MOL0     O 7818   2.831   9.481   7.278  0.3922  0.4815 -0.1730
   60MOL0     C 7819   2.873   9.431   7.397 -0.2226  0.7903 -0.2567
   60MOL0     C 7820   2.930   9.532   7.474  1.4499  0.8276 -0.6006
   60MOL0     C 7821   2.987   9.498   7.593 -0.9552  0.5652  0.3555
   60MOL0     C 7822   3.007   9.367   7.640  0.1430 -0.7197  0.1230
   60MOL0     O 7823   3.059   9.356   7.768 -0.5929 -0.2705 -0.3561
   60MOL0     C 7824   3.099   9.229   7.814 -0.5504  0.8876  0.1544
   60MOL0     C 7825   3.185   9.236   7.941  0.0407 -0.8360 -0.3335
   60MOL0     C 7826   3.311   9.317   7.927  0.8364 -0.6158 -0.2679
   60MOL0     C 7827   3.328   9.405   8.048 -0.0380  0.6347  0.1905
   60MOL0     C 7828   3.461   9.485   8.039  0.2446  0.3169 -0.1578
   60MOL0     C 7829   3.477   9.598   7.935  0.2411 -0.0741 -0.4030
   60MOL0     C 7830   3.625   9.639   7.950 -0.3996 -0.0910  0.6472
   60MOL0     C 7831   3.649   9.738   8.077  0.1408 -0.2891 -0.4133
   60MOL0    Cl 7832   3.799   9.837   8.043  0.0976 -0.3608 -0.3430
   60MOL0     C 7833   2.955   9.268   7.554  0.9283 -0.5241 -0.1844
   60MOL0     C 7834   2.898   9.300   7.433 -0.1170  0.5100 -1.6407
   60MOL0     O 7835   2.717   9.282   7.201 -0.7318  0.5351  0.2508
   60MOL0     C 7836   2.597   9.410   6.998  0.8293 -0.5034  0.3117
   60MOL0     C 7837   2.568   9.447   6.868  0.7360 -0.1066  1.0647
   60MOL0     N 7838   2.249   9.540   6.109  0.0337 -0.1042 -0.2913
   60MOL0     N 7839   2.216   9.531   5.986  0.8734 -0.0703  0.5243
   60MOL0     C 7840   3.241   9.336   5.895 -0.2118  0.1987 -1.1190
   60MOL0     C 7841   3.366   9.340   5.967 -0.0599 -0.0009  0.5293
   60MOL0     C 7842   3.728   9.313   6.219 -0.0439 -0.3485 -0.1753
   60MOL0     C 7843   3.777   9.414   6.316  0.4062 -0.0624  0.7559
   60MOL0     C 7844   3.907   9.416   6.367  0.1219 -0.5864  0.0453
   60MOL0     C 7845   3.990   9.310   6.335 -0.1645 -0.2055  0.1393
   60MOL0     O 7846   4.124   9.303   6.379  0.4443  0.0450 -0.0167
   60MOL0     C 7847   4.161   9.378   6.500 -0.3309 -0.4165 -0.9048
   60MOL0     C 7848   4.319   9.393   6.489  0.4129  0.3265  0.5752
   60MOL0     C 7849   4.370   9.492   6.381 -0.2841  0.5948 -0.2430
   60MOL0     C 7850   4.523   9.505   6.372 -0.4918  0.5558 -0.0638
   60MOL0     C 7851   4.583   9.374   6.329  0.8749  0.0156  1.4434
   60MOL0     C 7852   4.637   9.281   6.283  0.1154  0.2940  0.1756
   60MOL0     C 7853   3.944   9.219   6.240 -0.1419  0.3664 -0.2341
   60MOL0     C 7854   3.816   9.213   6.183 -0.9040 -1.1821 -0.3212
   60MOL0     H 7855   3.431   9.012   5.959 -0.0450 -0.5670  0.1802
   60MOL0     H 7856   3.243   9.016   5.806 -0.4579 -0.3312  0.4946
   60MOL0     H 7857   2.991   9.383   5.830 -0.8155  0.1955  3.6478
   60MOL0     H 7858   2.937   9.230   5.909 -4.3486  1.2396 -2.1722
   60MOL0     H 7859   2.826   9.142   5.724  1.3125 -1.0780  2.5362
   60MOL0     H 7860   2.909   9.259   5.612  0.0015  1.2645  0.6737
   60MOL0     H 7861   2.780   9.451   5.721 -0.1328  0.8820  2.7187
   60MOL0     H 7862   2.692   9.325   5.806  5.0036 -1.2799  2.0496
   60MOL0     H 7863   2.706   9.422   5.529 -1.6952  2.6423  1.2760
   60MOL0     H 7864   2.649   9.249   5.555  3.4797 -1.1712  1.9890
   60MOL0     H 7865   2.474   9.378   5.708 -1.4834  2.2963  0.6586
   60MOL0     H 7866   2.453   9.433   5.536  1.2127 -1.7071 -2.0599
   60MOL0     H 7867   2.621   9.616   5.608 -0.1553  1.6018  0.8664
   60MOL0     H 7868   2.588   9.589   5.772  0.1155  6.3990 -0.5689
   60MOL0     H 7869   2.451   9.762   5.722  1.1274  0.7258 -2.2264
   60MOL0     H 7870   2.388   9.687   5.571 -1.3589 -1.7257 -0.4414
   60MOL0     H 7871   2.279   9.506   5.724 -0.7676 -0.8813  0.2194
   60MOL0     H 7872   2.213   9.678   5.735  0.9496  0.7070  2.5899
   60MOL0     H 7873   2.489   9.698   5.951 -1.0894  1.8236 -2.0947
   60MOL0     H 7874   2.437   9.748   6.277  3.6358  1.3233 -0.1065
   60MOL0     H 7875   2.559   9.670   6.195 -0.4114  2.3516 -0.6573
   60MOL0     H 7876   2.479   9.448   6.330 -1.0888 -1.1825  2.6458
   60MOL0     H 7877   2.354   9.546   6.390 -0.4022  2.6946 -0.1356
   60MOL0     H 7878   2.667   9.581   6.412  1.2664  1.1724  0.6739
   60MOL0     H 7879   2.546   9.713   6.458 -4.9279 -0.3163 -0.1469
   60MOL0     H 7880   2.553   9.437   6.576  3.7679  0.6873  2.1222
   60MOL0     H 7881   2.429   9.552   6.614  0.0709 -1.5110 -0.8148
   60MOL0     H 7882   2.811   9.678   6.828 -0.0314  1.6144  3.2565
   60MOL0     H 7883   2.880   9.591   7.050 -2.0281  2.0236  0.6494
   60MOL0     H 7884   2.948   9.633   7.438  2.0209  1.3297  0.9967
   60MOL0     H 7885   3.043   9.572   7.650  1.1467 -1.7910  1.5671
   60MOL0     H 7886   3.168   9.189   7.739 -0.1005 -1.3687  1.6704
   60MOL0     H 7887   3.020   9.154   7.824 -2.8408  3.3965  2.4160
   60MOL0     H 7888   3.219   9.135   7.968  4.1328  0.4003 -0.1325
   60MOL0     H 7889   3.109   9.267   8.014  0.0594 -0.2130 -0.5782
   60MOL0     H 7890   3.295   9.378   7.838 -2.1041  0.5809  0.9474
   60MOL0     H 7891   3.397   9.250   7.916  2.0250  0.6052  1.0881
   60MOL0     H 7892   3.250   9.479   8.065 -2.3049 -1.0765 -2.0536
   60MOL0     H 7893   3.335   9.336   8.133 -2.8130 -0.1578 -0.1422
   60MOL0     H 7894   3.548   9.419   8.044  0.6508  0.8872  0.5126
   60MOL0     H 7895   3.472   9.543   8.131  0.7469 -1.0050  0.6525
   60MOL0     H 7896   3.411   9.681   7.964 -0.5709 -0.9873  0.4680
   60MOL0     H 7897   3.457   9.564   7.834  0.9886  0.6672 -0.8152
   60MOL0     H 7898   3.694   9.556   7.933  3.3408  1.9407  4.1238
   60MOL0     H 7899   3.639   9.710   7.868  3.1967 -0.8618  0.4220
   60MOL0     H 7900   3.668   9.686   8.172  0.6543  1.0435  0.2351
   60MOL0     H 7901   3.561   9.799   8.098 -0.1513 -1.2463  1.4235
   60MOL0     H 7902   2.946   9.163   7.579 -5.1002 -1.0172 -2.6373
   60MOL0     H 7903   2.873   9.220   7.364 -0.0575 -2.0971  1.1606
   60MOL0     H 7904   2.519   9.343   7.035  0.0864 -0.6852 -1.4447
   60MOL0     H 7905   2.479   9.414   6.815  2.2283 -0.5511 -1.3026
   60MOL0     H 7906   3.198   9.434   5.877  0.1211  0.6156  0.2544
   60MOL0     H 7907   3.398   9.441   5.989 -2.4085  0.5533  1.7357
   60MOL0     H 7908   3.705   9.484   6.358  1.6009  1.0725  1.0018
   60MOL0     H 7909   3.917   9.494   6.441 -0.0978 -0.6791  0.1739
   60MOL0     H 7910   4.137   9.324   6.593  2.8812  1.2972  1.1072
   60MOL0     H 7911   4.128   9.482   6.504  0.5771 -0.1291  2.7062
   60MOL0     H 7912   4.348   9.443   6.582 -0.3315  2.6152 -0.3688
   60MOL0     H 7913   4.364   9.293   6.488 -3.0509 -1.3885  0.7427
   60MOL0     H 7914   4.337   9.595   6.399  1.2385  1.4602 -2.0394
   60MOL0     H 7915   4.329   9.458   6.286 -2.7658 -1.5428  1.4862
   60MOL0     H 7916   4.542   9.577   6.292  0.3535  1.3736  0.8501
   60MOL0     H 7917   4.573   9.524   6.467 -2.0707  2.0240  0.5147
   60MOL0     H 7918   4.685   9.194   6.243 -0.6059 -0.4531  0.8877
   60MOL0     H 7919   4.013   9.136   6.228  0.8233  1.2500 -0.8645
   60MOL0     H 7920   3.773   9.134   6.124 -3.0479 -0.7929  0.6379
   61MOL0     O 7921   4.574   8.616   8.047 -0.4920  0.1189  0.5975
   61MOL0     C 7922   4.612   8.657   7.937  0.9430 -0.0834  0.5418
   61MOL0     O 7923   4.685   8.765   7.909  0.1448 -0.5489 -0.3566
   61MOL0     C 7924   4.733   8.848   8.011 -0.3325  0.4287  0.8539
   61MOL0     C 7925   4.768   8.973   7.971  0.0433 -0.9544  0.1607
   61MOL0     C 7926   4.789   9.075   8.070 -0.2161 -0.6233 -0.5965
   61MOL0     C 7927   4.823   9.038   8.199 -0.8376 -0.2966 -0.1936
   61MOL0     O 7928   4.862   9.137   8.283  0.5889  0.4028 -0.3883
   61MOL0     C 7929   4.840   9.138   8.426  0.2569  0.5004  0.4150
   61MOL0     C 7930   4.868   9.285   8.478  1.1367  0.7785 -0.1017
   61MOL0     C 7931   4.849   9.297   8.627 -0.4536  0.0998 -0.1072
   61MOL0     C 7932   4.709   9.257   8.673  0.2271 -0.0572  0.7697
   61MOL0     C 7933   4.691   9.250   8.825 -0.3919  0.7498 -0.3368
   61MOL0     C 7934   4.545   9.258   8.872  0.7972  0.0300 -0.2043
   61MOL0     C 7935   4.545   9.231   9.030 -0.7487  1.0957  0.5266
   61MOL0     C 7936   4.418   9.247   9.113  0.4517 -0.5744 -0.0343
   61MOL0     N 7937   4.444   9.290   9.250 -0.1893  0.0075 -0.3818
   61MOL0     C 7938   4.442   9.420   9.300 -0.2854  0.3081 -0.2780
   61MOL0     C 7939   4.512   9.410   9.412  0.7572 -0.7362 -0.1605
   61MOL0     C 7940   4.541   9.527   9.497  0.6582  0.8883 -0.0481
   61MOL0     C 7941   4.669   9.509   9.580 -0.2244  0.5194  0.4616
   61MOL0     C 7942   4.805   9.537   9.508  0.7327  0.9254  0.2980
   61MOL0     C 7943   4.885   9.411   9.477  0.3008 -0.0106 -0.4761
   61MOL0     O 7944   5.019   9.453   9.434  0.5847 -0.5046 -0.2463
   61MOL0     C 7945   5.116   9.348   9.419 -0.5264  0.2394  0.8779
   61MOL0     C 7946   5.069   9.214   9.402 -0.2398  0.6273  0.0166
   61MOL0     C 7947   5.160   9.104   9.395 -0.2236  0.1121 -1.1903
   61MOL0     C 7948   5.299   9.131   9.382 -0.0699  0.6102 -0.7224
   61MOL0     C 7949   5.395   9.029   9.328 -0.4199 -0.0725  0.6334
   61MOL0     O 7950   5.518   9.064   9.287 -0.7796 -0.6239  0.1690
   61MOL0     C 7951   5.619   8.978   9.286 -0.0415 -0.5321 -0.0183
   61MOL0     C 7952   5.615   8.857   9.213 -0.0778 -0.7872 -0.0283
   61MOL0     C 7953   5.725   8.781   9.190 -1.0760  0.2729 -0.3953
   61MOL0     C 7954   5.837   8.801   9.269  0.1758  0.6830 -0.6489
   61MOL0     O 7955   5.926   8.701   9.261 -0.7032  0.0161  0.9451
   61MOL0     C 7956   6.058   8.705   9.311 -0.6873  0.5021  0.1520
   61MOL0     C 7957   6.141   8.812   9.248  0.0394 -0.9085  0.3427
   61MOL0     C 7958   6.151   8.769   9.099 -0.3191 -0.1366  0.4671
   61MOL0     C 7959   6.266   8.666   9.078  0.1461 -0.4158  0.0613
   61MOL0     C 7960   6.298   8.644   8.928  0.7545 -0.3497 -0.2637
   61MOL0     C 7961   6.385   8.749   8.864  0.2727 -0.8802  0.2660
   61MOL0     C 7962   6.326   8.871   8.803 -1.1486  0.3237  0.7430
   61MOL0     C 7963   6.189   8.857   8.730 -0.3050 -0.1942  0.6376
   61MOL0    Cl 7964   6.185   8.719   8.614 -0.0260  0.0046 -0.1362
   61MOL0     C 7965   5.837   8.915   9.350 -0.1685 -0.6734  0.0608
   61MOL0     C 7966   5.734   9.014   9.354  0.1453 -0.3668 -0.1132
   61MOL0     O 7967   5.352   8.911   9.328 -0.0997 -0.0941 -0.9597
   61MOL0     C 7968   5.343   9.265   9.417 -0.1275 -0.8825 -0.4554
   61MOL0     C 7969   5.249   9.364   9.429  0.0012  0.5306 -0.1436
   61MOL0     N 7970   4.547   9.279   9.432  0.3496 -0.3573 -0.5036
   61MOL0     N 7971   4.520   9.214   9.332 -1.0032  0.6124 -0.3222
   61MOL0     C 7972   4.812   8.906   8.230 -0.7663  0.0216 -0.0026
   61MOL0     C 7973   4.759   8.810   8.147  0.0191 -0.8934  0.0888
   61MOL0     C 7974   4.569   8.579   7.817 -0.0512 -0.0981 -1.1600
   61MOL0     C 7975   4.594   8.621   7.685 -0.3169 -0.4726 -0.9662
   61MOL0     C 7976   4.587   8.536   7.576  0.4670 -0.9965  0.5948
   61MOL0     C 7977   4.519   8.416   7.579  0.2269 -1.3377  0.2509
   61MOL0     O 7978   4.493   8.322   7.480  0.8885 -0.8577 -0.8072
   61MOL0     C 7979   4.532   8.362   7.346  0.4939 -0.1235 -0.0083
   61MOL0     C 7980   4.674   8.320   7.332 -1.0152  0.3336  0.0607
   61MOL0     C 7981   4.714   8.356   7.191 -0.0984  0.6851 -1.0829
   61MOL0     C 7982   4.681   8.235   7.098  0.1558  0.5149 -1.2216
   61MOL0     C 7983   4.604   8.269   6.976  0.0172  0.6708  0.7553
   61MOL0     C 7984   4.561   8.281   6.863 -0.0970  0.5428 -0.1705
   61MOL0     C 7985   4.470   8.380   7.704 -0.5511 -0.3743 -0.0921
   61MOL0     C 7986   4.492   8.464   7.819  0.0412  1.2713  0.0754
   61MOL0     H 7987   4.750   9.007   7.870 -0.5635 -0.0294  0.5659
   61MOL0     H 7988   4.785   9.180   8.043 -3.5350 -0.9699 -1.8622
   61MOL0     H 7989   4.908   9.060   8.463  1.5349  0.9235 -0.9499
   61MOL0     H 7990   4.737   9.109   8.449 -0.4588  2.7853  0.3454
   61MOL0     H 7991   4.796   9.346   8.424 -0.8009  0.3857  1.8640
   61MOL0     H 7992   4.966   9.324   8.451  1.0998  3.6379  3.1974
   61MOL0     H 7993   4.871   9.397   8.665  1.7485  0.1609 -1.4128
   61MOL0     H 7994   4.916   9.233   8.685  1.9485  1.9162 -0.7079
   61MOL0     H 7995   4.642   9.338   8.643 -0.6545 -0.7717  0.7578
   61MOL0     H 7996   4.675   9.159   8.638  1.8106 -0.5123  0.4316
   61MOL0     H 7997   4.749   9.334   8.866  1.8736 -0.6558 -0.5058
   61MOL0     H 7998   4.744   9.162   8.860  0.6783  0.8521 -1.6395
   61MOL0     H 7999   4.486   9.184   8.817  1.0569 -1.9932  2.1100
   61MOL0     H 8000   4.506   9.358   8.855 -0.9391 -0.8630 -1.8375
   61MOL0     H 8001   4.573   9.126   9.043 -3.7507 -0.0660 -1.2250
   61MOL0     H 8002   4.630   9.288   9.068  0.6261 -0.5224  0.0025
   61MOL0     H 8003   4.356   9.157   9.118  0.1658 -0.4000 -0.3741
   61MOL0     H 8004   4.361   9.332   9.075 -0.7405  0.0806  2.9514
   61MOL0     H 8005   4.392   9.509   9.262  1.5274  3.0908  3.2220
   61MOL0     H 8006   4.465   9.528   9.576  2.8313  0.7031  2.1773
   61MOL0     H 8007   4.544   9.619   9.438  2.6506  0.8449 -0.0897
   61MOL0     H 8008   4.662   9.413   9.631  1.1319  1.3709  2.3833
   61MOL0     H 8009   4.668   9.586   9.658 -3.6112 -0.8520  1.9350
   61MOL0     H 8010   4.779   9.576   9.409 -1.2986  0.3832  0.5629
   61MOL0     H 8011   4.870   9.611   9.556  1.1535  1.0584 -0.4695
   61MOL0     H 8012   4.820   9.367   9.401 -1.2525  0.4645  0.5308
   61MOL0     H 8013   4.878   9.347   9.565  2.5320 -3.0535 -2.2878
   61MOL0     H 8014   4.962   9.196   9.402 -0.5725  2.3245 -1.4063
   61MOL0     H 8015   5.118   9.006   9.376  0.0027  0.4526 -3.7059
   61MOL0     H 8016   5.518   8.825   9.175  0.3040 -0.7342 -1.0723
   61MOL0     H 8017   5.720   8.702   9.116 -2.1595  0.6532 -0.7523
   61MOL0     H 8018   6.107   8.610   9.291  3.6507  1.8949  2.8545
   61MOL0     H 8019   6.074   8.714   9.419 -0.5435  0.0295  0.1701
   61MOL0     H 8020   6.241   8.813   9.292  0.9028 -2.7887 -1.4154
   61MOL0     H 8021   6.094   8.910   9.259  0.2215 -0.8476  0.5950
   61MOL0     H 8022   6.179   8.861   9.047  0.1743  0.6381  2.0237
   61MOL0     H 8023   6.058   8.748   9.046 -1.2123  4.2186 -0.0776
   61MOL0     H 8024   6.363   8.694   9.120  0.1003 -0.6893  0.3508
   61MOL0     H 8025   6.240   8.570   9.123  0.6873 -1.1316 -1.0973
   61MOL0     H 8026   6.201   8.629   8.878 -0.6416  0.2646  2.0982
   61MOL0     H 8027   6.349   8.548   8.925 -1.3233 -1.4850 -1.4250
   61MOL0     H 8028   6.451   8.708   8.786  0.8316  1.6429 -0.6827
   61MOL0     H 8029   6.460   8.777   8.937 -0.4978  0.6347  0.5107
   61MOL0     H 8030   6.319   8.953   8.876 -0.0469  0.2195  0.9784
   61MOL0     H 8031   6.402   8.915   8.737  0.0477  1.2290  2.6562
   61MOL0     H 8032   6.157   8.949   8.681 -0.6412 -1.4202 -1.5566
   61MOL0     H 8033   6.125   8.831   8.815  0.2774 -0.7293  0.9274
   61MOL0     H 8034   5.919   8.935   9.417 -0.4892  1.1283 -0.0492
   61MOL0     H 8035   5.747   9.111   9.399  1.7478 -0.6175  0.0099
   61MOL0     H 8036   5.447   9.294   9.425 -0.0314  0.0657 -3.6942
   61MOL0     H 8037   5.301   9.459   9.440  1.9166 -0.1560 -2.4441
   61MOL0     H 8038   4.838   8.871   8.329 -0.3545 -0.3183 -0.2276
   61MOL0     H 8039   4.749   8.704   8.168 -1.7331 -0.8176 -0.1966
   61MOL0     H 8040   4.644   8.716   7.671  0.0606 -0.2581  1.3882
   61MOL0     H 8041   4.625   8.569   7.479 -1.3713  0.5795  0.3535
   61MOL0     H 8042   4.505   8.468   7.339 -1.5478 -0.6573 -0.8034
   61MOL0     H 8043   4.474   8.322   7.263 -1.2689  0.4000  0.9296
   61MOL0     H 8044   4.726   8.380   7.407 -1.9000 -0.4093  1.3025
   61MOL0     H 8045   4.696   8.218   7.364  1.7723  1.6280  2.7563
   61MOL0     H 8046   4.819   8.385   7.188 -0.0238  0.9669  1.8177
   61MOL0     H 8047   4.663   8.449   7.164 -0.4429  0.2448 -2.0221
   61MOL0     H 8048   4.775   8.181   7.085 -1.5539 -2.9497 -0.5226
   61MOL0     H 8049   4.613   8.163   7.145 -1.0753  1.6331 -1.2264
   61MOL0     H 8050   4.528   8.289   6.762 -0.1410  0.4315 -0.1649
   61MOL0     H 8051   4.409   8.290   7.702 -0.9884 -0.0767 -0.7846
   61MOL0     H 8052   4.453   8.439   7.917 -1.8510  1.0087 -0.7051
   62MOL0     O 8053   1.967   1.198   0.566 -0.4231  0.6131  0.1650
   62MOL0     C 8054   2.030   1.210   0.463 -0.1465 -0.5931  0.0492
   62MOL0     O 8055   2.116   1.313   0.435 -0.3319 -0.1026 -0.0506
   62MOL0     C 8056   2.105   1.415   0.526  0.0857 -0.2326 -0.2328
   62MOL0     C 8057   1.998   1.502   0.517  0.1303  0.0510  0.1505
   62MOL0     C 8058   1.996   1.622   0.593  0.0759 -0.1149 -0.8891
   62MOL0     C 8059   2.099   1.656   0.680 -0.4096  0.1677 -0.0283
   62MOL0     O 8060   2.121   1.779   0.743 -1.2624  0.7756  0.4018
   62MOL0     C 8061   2.064   1.892   0.677  0.0257 -1.1072  0.4938
   62MOL0     C 8062   2.124   2.015   0.741 -0.1438 -1.2259  0.5863
   62MOL0     C 8063   2.069   2.038   0.885 -0.0903 -0.0107 -1.0097
   62MOL0     C 8064   2.184   2.020   0.994 -0.4393 -0.1313  0.0577
   62MOL0     C 8065   2.154   2.095   1.122  0.3784 -0.1632 -0.3873
   62MOL0     C 8066   2.262   2.136   1.223 -0.4403 -0.0703  0.6992
   62MOL0     C 8067   2.374   2.239   1.179  0.3759 -0.3730  0.1941
   62MOL0     C 8068   2.470   2.255   1.295  0.5646  0.3964  0.0050
   62MOL0     N 8069   2.550   2.130   1.329 -0.6034 -0.0654 -0.0547
   62MOL0     C 8070   2.527   2.039   1.434 -0.4298  0.4393  0.4463
   62MOL0     C 8071   2.600   1.930   1.419  0.1789 -1.4048 -0.3211
   62MOL0     C 8072   2.606   1.821   1.514 -0.3374  0.8984 -0.6843
   62MOL0     C 8073   2.740   1.839   1.596 -0.3588 -0.2562 -0.7169
   62MOL0     C 8074   2.711   1.933   1.714 -0.0106 -0.0514  0.5409
   62MOL0     C 8075   2.840   1.959   1.800  0.3406  0.0350  0.4090
   62MOL0     O 8076   2.817   2.046   1.917 -0.2854 -0.2063 -0.3303
   62MOL0     C 8077   2.922   2.067   2.004 -0.8641 -1.1482  0.5854
   62MOL0     C 8078   2.954   1.988   2.106  0.9630  0.7235 -1.3319
   62MOL0     C 8079   3.055   2.022   2.202 -0.1318  0.3202 -0.2070
   62MOL0     C 8080   3.142   2.131   2.174 -0.2780 -0.1117 -0.7704
   62MOL0     C 8081   3.251   2.156   2.277  0.4290 -0.0504 -0.1911
   62MOL0     O 8082   3.245   2.092   2.389  0.7726  0.4299 -0.2500
   62MOL0     C 8083   3.342   2.076   2.485 -0.0556  0.1187 -0.1148
   62MOL0     C 8084   3.482   2.045   2.452  0.1307  0.6205  0.2781
   62MOL0     C 8085   3.574   2.019   2.555 -0.3451 -1.2057  0.3547
   62MOL0     C 8086   3.539   2.046   2.690 -0.4157  0.9480  0.1510
   62MOL0     O 8087   3.625   2.024   2.790 -0.4867  0.1424  0.4412
   62MOL0     C 8088   3.766   2.022   2.753 -0.2615 -0.3128  0.3434
   62MOL0     C 8089   3.862   2.022   2.873 -0.2296 -0.7258  0.0361
   62MOL0     C 8090   3.832   1.906   2.967  0.0585  0.2501  0.4693
   62MOL0     C 8091   3.944   1.903   3.067  0.0042 -0.4268  1.0862
   62MOL0     C 8092   3.900   1.851   3.203 -0.6724  0.5603  0.8762
   62MOL0     C 8093   3.787   1.908   3.283 -1.0468 -0.2207 -0.8460
   62MOL0     C 8094   3.795   2.060   3.311  0.5875  0.0695  0.5743
   62MOL0     C 8095   3.923   2.112   3.379  0.0596 -0.0325 -0.4458
   62MOL0    Cl 8096   3.909   2.088   3.554 -0.5626 -0.0047  0.1025
   62MOL0     C 8097   3.408   2.073   2.717 -0.6192  0.7639 -0.0835
   62MOL0     C 8098   3.308   2.092   2.622 -0.8430 -0.2165  0.9660
   62MOL0     O 8099   3.339   2.234   2.238 -0.4688  0.0724  0.1870
   62MOL0     C 8100   3.124   2.202   2.060 -0.7704 -0.2174 -0.6306
   62MOL0     C 8101   3.008   2.176   1.986 -0.3335 -1.0817 -0.1078
   62MOL0     N 8102   2.670   1.956   1.300 -0.4210 -0.0304  0.4995
   62MOL0     N 8103   2.646   2.074   1.248 -0.1763 -0.1605 -0.0277
   62MOL0     C 8104   2.205   1.571   0.685  0.2919 -0.0695  0.1644
   62MOL0     C 8105   2.214   1.446   0.617 -0.4411 -0.1181 -0.5931
   62MOL0     C 8106   2.039   1.110   0.353  0.2842  0.0388 -1.2288
   62MOL0     C 8107   2.101   1.138   0.229  0.0159 -0.5002 -0.5232
   62MOL0     C 8108   2.101   1.045   0.127 -0.1396  0.6385  0.3012
   62MOL0     C 8109   2.043   0.915   0.153 -0.1869  0.0534  1.1964
   62MOL0     O 8110   2.037   0.812   0.059  0.7573 -0.2488 -0.0156
   62MOL0     C 8111   2.100   0.817  -0.065  0.1586 -0.2028  0.1251
   62MOL0     C 8112   2.031   0.722  -0.165  0.8295 -0.4115  0.9500
   62MOL0     C 8113   2.082   0.583  -0.136 -0.2858  0.8218 -0.2980
   62MOL0     C 8114   2.019   0.462  -0.226 -0.6521 -0.7614  0.1051
   62MOL0     C 8115   1.874   0.454  -0.207  0.5259 -0.2559 -1.2550
   62MOL0     C 8116   1.758   0.455  -0.180  0.8695  0.0848 -0.4814
   62MOL0     C 8117   1.998   0.880   0.276 -0.1304 -0.0541 -1.0405
   62MOL0     C 8118   1.996   0.977   0.381  1.1211 -0.7849  0.1880
   62MOL0     H 8119   1.922   1.505   0.440 -5.3159  2.7613  4.8593
   62MOL0     H 8120   1.916   1.694   0.576 -0.0306 -0.4922 -2.0337
   62MOL0     H 8121   1.956   1.892   0.694  0.1002 -4.7764  1.9118
   62MOL0     H 8122   2.081   1.909   0.570  1.4338  4.3753  1.3084
   62MOL0     H 8123   2.101   2.105   0.684  1.4634 -0.9365  0.3541
   62MOL0     H 8124   2.233   2.010   0.751 -0.0171  0.9287  0.7368
   62MOL0     H 8125   1.991   1.965   0.912 -0.7703  0.2592 -2.1885
   62MOL0     H 8126   2.024   2.137   0.889  0.3429  0.1832 -0.8803
   62MOL0     H 8127   2.198   1.913   1.016  1.8720  0.4559  1.8518
   62MOL0     H 8128   2.281   2.048   0.951 -0.9065 -1.9921 -2.4632
   62MOL0     H 8129   2.089   2.032   1.184 -0.0064  3.4616  3.2840
   62MOL0     H 8130   2.094   2.184   1.102  1.6266  1.2349  1.7119
   62MOL0     H 8131   2.312   2.052   1.272  2.3937  2.4731  2.5376
   62MOL0     H 8132   2.212   2.182   1.309 -0.4497 -1.1531  1.2883
   62MOL0     H 8133   2.433   2.205   1.093 -1.0795 -0.8380 -0.6661
   62MOL0     H 8134   2.332   2.339   1.164  0.3171 -0.1949  1.5079
   62MOL0     H 8135   2.404   2.262   1.382 -0.1085 -2.9310 -0.0966
   62MOL0     H 8136   2.539   2.338   1.280  0.2627  0.6934  0.2262
   62MOL0     H 8137   2.463   2.061   1.519  0.2956  1.1354  0.8265
   62MOL0     H 8138   2.616   1.742   1.438  2.7364  0.0197  0.4888
   62MOL0     H 8139   2.521   1.802   1.581  0.9208 -0.6797  0.5415
   62MOL0     H 8140   2.819   1.893   1.542 -1.1126  1.1268 -0.4849
   62MOL0     H 8141   2.789   1.743   1.616 -1.6786 -1.1087 -1.3763
   62MOL0     H 8142   2.673   2.030   1.682 -1.9386 -1.4261 -1.6672
   62MOL0     H 8143   2.636   1.890   1.780  1.1602 -1.1026  1.2315
   62MOL0     H 8144   2.920   1.989   1.733 -1.0560 -1.7901 -2.2434
   62MOL0     H 8145   2.871   1.861   1.838  1.7577  1.6428  3.8152
   62MOL0     H 8146   2.882   1.907   2.114  2.6280 -0.6919  0.5315
   62MOL0     H 8147   3.063   1.948   2.281 -1.1917 -0.7788 -1.0912
   62MOL0     H 8148   3.520   2.034   2.351 -0.6579  1.3156 -0.1106
   62MOL0     H 8149   3.679   2.024   2.528 -0.0907  0.7134  1.5245
   62MOL0     H 8150   3.796   2.107   2.691  0.3539 -0.1711  0.8266
   62MOL0     H 8151   3.783   1.928   2.700 -1.6003 -0.5389  0.2772
   62MOL0     H 8152   3.860   2.116   2.929  4.7345 -1.3983  1.7888
   62MOL0     H 8153   3.967   2.017   2.843 -0.3907  0.7482 -0.8961
   62MOL0     H 8154   3.824   1.811   2.913  3.7960 -0.2404  0.5328
   62MOL0     H 8155   3.737   1.925   3.017 -0.6839 -0.2650 -0.7024
   62MOL0     H 8156   4.029   1.846   3.027 -0.3244 -0.0682 -0.1410
   62MOL0     H 8157   3.984   2.003   3.086 -0.8293 -0.1197  1.2397
   62MOL0     H 8158   3.992   1.849   3.261  1.3845  0.1885 -2.1660
   62MOL0     H 8159   3.872   1.747   3.181 -1.7959  1.4338 -2.3705
   62MOL0     H 8160   3.776   1.846   3.372 -2.1108 -0.0973 -0.8734
   62MOL0     H 8161   3.692   1.884   3.233  0.1688 -2.5915 -2.1985
   62MOL0     H 8162   3.775   2.103   3.212  0.7900  1.9551  1.3024
   62MOL0     H 8163   3.711   2.089   3.374  0.5615  0.9838  0.1421
   62MOL0     H 8164   3.929   2.220   3.364  4.1517  0.0610  0.5778
   62MOL0     H 8165   4.014   2.074   3.331  0.9220 -2.7110  2.9262
   62MOL0     H 8166   3.387   2.084   2.823 -1.2779 -1.0514  0.0137
   62MOL0     H 8167   3.212   2.134   2.651 -0.1280  1.3570  1.1584
   62MOL0     H 8168   3.189   2.280   2.022  0.8159 -1.5781 -0.8407
   62MOL0     H 8169   2.987   2.244   1.904 -0.0563 -2.6523 -1.5263
   62MOL0     H 8170   2.283   1.603   0.754 -1.5569  0.8781  1.9280
   62MOL0     H 8171   2.304   1.386   0.613 -1.4875 -1.8740  0.7339
   62MOL0     H 8172   2.163   1.224   0.205  0.2248 -0.8454 -1.2445
   62MOL0     H 8173   2.125   1.067   0.023  1.1964  0.6615  0.5948
   62MOL0     H 8174   2.205   0.792  -0.047  0.5504 -0.1171 -1.7856
   62MOL0     H 8175   2.097   0.919  -0.105 -3.2706  0.4834  1.7576
   62MOL0     H 8176   1.926   0.712  -0.135  0.8253 -1.9223  0.5148
   62MOL0     H 8177   2.044   0.751  -0.269  1.0662  0.8531  1.3160
   62MOL0     H 8178   2.056   0.553  -0.034  0.5300  0.1734 -0.2665
   62MOL0     H 8179   2.192   0.584  -0.138 -0.2707  3.1733 -0.1828
   62MOL0     H 8180   2.033   0.489  -0.331  1.1000 -1.5729  0.0985
   62MOL0     H 8181   2.073   0.367  -0.222 -1.1616 -1.1266 -1.0166
   62MOL0     H 8182   1.655   0.468  -0.156  0.9735  2.2383 -1.0537
   62MOL0     H 8183   1.947   0.785   0.291 -0.2366  0.1458 -0.0332
   62MOL0     H 8184   1.950   0.963   0.478 -2.3219  0.1820 -1.1863
   63MOL0     O 8185   3.553   1.879   3.738 -0.8646  0.8346 -0.0265
   63MOL0     C 8186   3.667   1.825   3.727  0.3559 -0.3717  0.2425
   63MOL0     O 8187   3.769   1.844   3.806 -0.9646  0.0374 -0.0316
   63MOL0     C 8188   3.750   1.919   3.920 -0.4218  0.6421 -0.1240
   63MOL0     C 8189   3.790   2.049   3.922  0.0200 -0.1710  0.1429
   63MOL0     C 8190   3.794   2.121   4.042  0.2379  0.2599 -0.0519
   63MOL0     C 8191   3.762   2.061   4.161  0.4636  0.4360 -0.4626
   63MOL0     O 8192   3.769   2.126   4.283  0.1142 -0.3234 -0.5919
   63MOL0     C 8193   3.711   2.085   4.410  0.9100  0.3630  0.2298
   63MOL0     C 8194   3.818   2.028   4.501 -0.1236  0.3397 -0.1345
   63MOL0     C 8195   3.756   1.949   4.619  0.1342 -0.2552 -0.6845
   63MOL0     C 8196   3.882   1.878   4.687  1.3682 -0.2383  0.2483
   63MOL0     C 8197   3.903   1.724   4.640  0.6159  0.3648  0.4759
   63MOL0     C 8198   4.028   1.680   4.711  0.0235 -0.3959 -0.0224
   63MOL0     C 8199   4.094   1.548   4.672  0.1862 -0.0398 -1.1192
   63MOL0     C 8200   4.160   1.547   4.543 -0.2197  0.5314 -0.2675
   63MOL0     N 8201   4.271   1.636   4.523 -0.3032 -0.2061  0.4543
   63MOL0     C 8202   4.403   1.607   4.544  0.3516  0.2943  0.5754
   63MOL0     C 8203   4.483   1.707   4.491 -0.3927 -0.3777 -0.4700
   63MOL0     C 8204   4.632   1.711   4.493 -0.0307 -1.0881  0.1407
   63MOL0     C 8205   4.705   1.838   4.449  0.4117 -2.1119 -0.1927
   63MOL0     C 8206   4.671   1.972   4.536 -0.1840  0.1308  0.1286
   63MOL0     C 8207   4.682   1.974   4.689 -0.4321  0.2793  0.1043
   63MOL0     O 8208   4.659   2.097   4.748  0.4750 -0.0981  0.0767
   63MOL0     C 8209   4.531   2.152   4.753 -0.5462  0.3060  0.1852
   63MOL0     C 8210   4.518   2.276   4.811 -0.3661 -0.0498 -0.1752
   63MOL0     C 8211   4.396   2.337   4.815  0.2848  0.4452  0.4445
   63MOL0     C 8212   4.277   2.267   4.781 -0.7726 -0.4557  0.0424
   63MOL0     C 8213   4.150   2.333   4.785 -1.1676  0.6975 -0.8118
   63MOL0     O 8214   4.044   2.254   4.785  0.0955  0.7533 -0.1945
   63MOL0     C 8215   3.919   2.317   4.794 -0.1905  0.2494 -0.6081
   63MOL0     C 8216   3.856   2.370   4.680 -0.5857 -1.3871  0.9980
   63MOL0     C 8217   3.742   2.451   4.693 -0.3498  0.8461 -0.6466
   63MOL0     C 8218   3.680   2.474   4.829 -0.7993  1.0412  0.5340
   63MOL0     O 8219   3.569   2.556   4.841 -0.5280 -0.2962 -0.2423
   63MOL0     C 8220   3.573   2.641   4.959 -0.7063 -0.0001  0.5632
   63MOL0     C 8221   3.456   2.606   5.047 -0.9848 -0.2522  0.1215
   63MOL0     C 8222   3.423   2.728   5.137 -0.7044 -0.1831  0.2027
   63MOL0     C 8223   3.328   2.830   5.073 -0.1306  0.2151  0.0859
   63MOL0     C 8224   3.292   2.937   5.172  0.3423  0.8730 -0.1609
   63MOL0     C 8225   3.215   3.056   5.109 -0.7848  0.7174  0.7812
   63MOL0     C 8226   3.097   3.099   5.196 -0.3671 -0.3489 -1.7980
   63MOL0     C 8227   3.074   3.248   5.200 -0.7478  0.8405  0.0959
   63MOL0    Cl 8228   3.026   3.300   5.044  0.1509 -0.1092  0.9247
   63MOL0     C 8229   3.741   2.410   4.939  0.6319  0.3523  0.4681
   63MOL0     C 8230   3.858   2.334   4.921  0.9984 -0.6875  0.2955
   63MOL0     O 8231   4.150   2.450   4.780  0.1338  0.1002 -0.1525
   63MOL0     C 8232   4.299   2.132   4.726 -0.5670 -0.7161  0.3744
   63MOL0     C 8233   4.422   2.071   4.723 -0.2829 -0.4389  0.6071
   63MOL0     N 8234   4.392   1.808   4.447 -0.2428  0.9027 -0.0966
   63MOL0     N 8235   4.272   1.761   4.468 -0.4184 -0.1706 -0.1675
   63MOL0     C 8236   3.704   1.931   4.157 -0.1324 -1.1485 -0.3572
   63MOL0     C 8237   3.707   1.864   4.044  0.3737  0.5845  0.1904
   63MOL0     C 8238   3.681   1.721   3.627  1.0989 -0.0150  0.5442
   63MOL0     C 8239   3.797   1.643   3.620  0.0376  1.1749 -0.2142
   63MOL0     C 8240   3.798   1.543   3.522 -0.7723 -0.3519 -0.1878
   63MOL0     C 8241   3.707   1.533   3.418  0.7659 -0.8252 -0.2194
   63MOL0     O 8242   3.718   1.447   3.317 -0.1387  0.3359 -0.3066
   63MOL0     C 8243   3.761   1.310   3.337  0.2703 -0.6844  0.6342
   63MOL0     C 8244   3.883   1.267   3.253  0.6801 -0.0992 -0.4298
   63MOL0     C 8245   3.888   1.117   3.272 -0.5082 -0.1641 -0.3231
   63MOL0     C 8246   3.798   1.055   3.167  0.3664  0.2102 -0.4890
   63MOL0     C 8247   3.819   0.910   3.176  0.2383  0.1937 -0.4949
   63MOL0     C 8248   3.826   0.792   3.163 -0.6758  0.8235 -1.2101
   63MOL0     C 8249   3.591   1.612   3.424 -0.4234  0.9118  0.5006
   63MOL0     C 8250   3.576   1.704   3.528 -0.2819  0.0484  0.8466
   63MOL0     H 8251   3.835   2.100   3.838  0.6252 -1.0665 -0.0878
   63MOL0     H 8252   3.827   2.223   4.025  1.3105  0.4613  2.7619
   63MOL0     H 8253   3.623   2.020   4.406  0.2735  0.9653  2.9730
   63MOL0     H 8254   3.670   2.176   4.454 -0.5408 -0.7207  1.1863
   63MOL0     H 8255   3.884   2.108   4.535  1.1291 -1.9211  3.2838
   63MOL0     H 8256   3.872   1.950   4.447 -0.0783  1.2047 -1.3873
   63MOL0     H 8257   3.678   1.882   4.581 -0.3285  0.1584 -0.4842
   63MOL0     H 8258   3.717   2.025   4.688  1.3713 -0.6049  0.4311
   63MOL0     H 8259   3.968   1.945   4.682  0.8648  0.4019 -0.1250
   63MOL0     H 8260   3.863   1.881   4.795  2.1738 -0.7387  0.4095
   63MOL0     H 8261   3.924   1.729   4.533 -1.1425 -0.0731  0.0688
   63MOL0     H 8262   3.818   1.660   4.667  0.2363  0.9460  0.6956
   63MOL0     H 8263   3.990   1.683   4.814 -2.7274  2.6879 -0.9385
   63MOL0     H 8264   4.101   1.761   4.696 -0.2429 -0.1264  0.1109
   63MOL0     H 8265   4.165   1.523   4.752  0.8787 -2.3944 -2.3889
   63MOL0     H 8266   4.007   1.483   4.676  0.0147  0.2635  0.8984
   63MOL0     H 8267   4.079   1.563   4.471 -0.6934 -0.8896 -0.0971
   63MOL0     H 8268   4.201   1.446   4.533 -0.1409  0.7382 -2.6296
   63MOL0     H 8269   4.452   1.526   4.598 -0.9616 -0.8704  0.0788
   63MOL0     H 8270   4.675   1.641   4.421  0.9092  0.3423 -0.7324
   63MOL0     H 8271   4.655   1.676   4.594  1.7678 -1.5632 -0.4088
   63MOL0     H 8272   4.668   1.853   4.347 -0.9187 -0.7663  0.4486
   63MOL0     H 8273   4.810   1.811   4.442  0.1189 -2.8200 -5.1660
   63MOL0     H 8274   4.743   2.048   4.502 -3.0067  1.8589 -2.5253
   63MOL0     H 8275   4.568   1.997   4.510 -0.9080 -3.4352 -0.9501
   63MOL0     H 8276   4.784   1.939   4.706  0.2433  2.5242  1.0493
   63MOL0     H 8277   4.624   1.895   4.737 -2.0958  0.7531 -1.0137
   63MOL0     H 8278   4.608   2.335   4.818 -1.7947  2.1610  0.4282
   63MOL0     H 8279   4.390   2.443   4.837  0.4002  0.5927 -0.2122
   63MOL0     H 8280   3.896   2.361   4.579  2.6085  0.0623  2.0291
   63MOL0     H 8281   3.716   2.500   4.599  0.2429 -0.6323 -1.6133
   63MOL0     H 8282   3.550   2.744   4.929 -0.4420 -0.2226 -0.4390
   63MOL0     H 8283   3.675   2.640   4.997 -0.8446 -0.4026  0.9327
   63MOL0     H 8284   3.472   2.518   5.108  1.0293 -0.2415 -0.3085
   63MOL0     H 8285   3.375   2.578   4.980  0.9856 -0.3998 -2.3764
   63MOL0     H 8286   3.517   2.777   5.164 -0.9591  0.2850  0.2482
   63MOL0     H 8287   3.371   2.692   5.226 -1.0399  1.9413  0.9290
   63MOL0     H 8288   3.373   2.885   4.989 -3.1864  2.0876 -0.4707
   63MOL0     H 8289   3.240   2.779   5.032  0.7325 -1.3382  0.0687
   63MOL0     H 8290   3.394   2.966   5.200  0.9653 -3.2727  2.7451
   63MOL0     H 8291   3.237   2.880   5.247  2.6347 -1.5694 -0.2113
   63MOL0     H 8292   3.184   3.028   5.008  0.6647 -0.5199  0.6382
   63MOL0     H 8293   3.292   3.134   5.114 -0.2335  0.1862  0.6991
   63MOL0     H 8294   3.005   3.049   5.163 -1.5499 -1.3626  2.4055
   63MOL0     H 8295   3.119   3.075   5.300  4.3018  1.5289 -2.1147
   63MOL0     H 8296   3.168   3.303   5.215 -1.7492  2.7235 -0.2614
   63MOL0     H 8297   2.996   3.276   5.270 -1.4825  2.1152 -1.1759
   63MOL0     H 8298   3.689   2.418   5.033  1.7028 -3.0082  1.4935
   63MOL0     H 8299   3.892   2.292   5.014 -0.3438  1.0409  1.6391
   63MOL0     H 8300   4.210   2.079   4.692 -1.7616 -0.8728  3.4702
   63MOL0     H 8301   4.436   1.978   4.668  2.3155  0.8286 -1.0964
   63MOL0     H 8302   3.683   1.880   4.251  3.5267 -0.6038  0.9564
   63MOL0     H 8303   3.691   1.756   4.051 -2.7848  0.9756  0.5153
   63MOL0     H 8304   3.882   1.649   3.688 -1.4684  0.4272  1.8336
   63MOL0     H 8305   3.883   1.476   3.520 -0.4238  0.0470  0.8164
   63MOL0     H 8306   3.674   1.262   3.290  1.9581 -0.5865 -2.8910
   63MOL0     H 8307   3.782   1.285   3.441  0.8948 -1.3825  0.3528
   63MOL0     H 8308   3.869   1.298   3.149 -0.0676 -1.9133 -0.9113
   63MOL0     H 8309   3.973   1.317   3.290  2.5431 -0.1805 -4.2607
   63MOL0     H 8310   3.859   1.105   3.377 -0.2831  1.8055  0.0067
   63MOL0     H 8311   3.987   1.072   3.262 -0.9370 -0.7414 -2.2655
   63MOL0     H 8312   3.692   1.071   3.188 -0.2078 -0.3490 -2.7095
   63MOL0     H 8313   3.814   1.088   3.065 -1.7231 -1.4037 -1.4280
   63MOL0     H 8314   3.816   0.688   3.141 -3.6160  0.5299  1.0449
   63MOL0     H 8315   3.521   1.625   3.342 -0.7138  2.1887  0.9211
   63MOL0     H 8316   3.491   1.770   3.514 -2.3450 -2.6816 -0.4514
   64MOL0     O 8317   3.139   3.925   2.362  0.5316 -0.1246  0.9936
   64MOL0     C 8318   3.139   4.008   2.447  0.8635  0.5754 -0.4060
   64MOL0     O 8319   3.232   4.027   2.533  0.4721  0.3339  0.7707
   64MOL0     C 8320   3.343   3.940   2.532  0.2640 -0.8059  0.0046
   64MOL0     C 8321   3.453   3.968   2.462  0.0712  0.4937 -0.1301
   64MOL0     C 8322   3.563   3.871   2.444 -0.5546 -0.1246  0.1178
   64MOL0     C 8323   3.557   3.766   2.539  1.0841  0.7883  0.4856
   64MOL0     O 8324   3.668   3.693   2.529 -0.5783 -0.2228 -0.3988
   64MOL0     C 8325   3.670   3.561   2.574 -0.3100  0.5866  0.8681
   64MOL0     C 8326   3.811   3.505   2.562  0.2808  0.1985  1.0648
   64MOL0     C 8327   3.902   3.575   2.662  0.1144  0.9879  0.9054
   64MOL0     C 8328   4.031   3.503   2.672  0.0868 -0.5618  0.1485
   64MOL0     C 8329   4.159   3.598   2.719  0.0342 -0.8869  0.0566
   64MOL0     C 8330   4.282   3.511   2.727 -0.2397 -0.0769 -0.1182
   64MOL0     C 8331   4.402   3.580   2.785  0.2856  0.5116 -0.2062
   64MOL0     C 8332   4.527   3.491   2.763 -0.2455  0.0336 -0.3798
   64MOL0     N 8333   4.647   3.553   2.808  0.0622  0.3710  0.2520
   64MOL0     C 8334   4.697   3.658   2.739  0.3458 -1.1428  0.1022
   64MOL0     C 8335   4.771   3.711   2.840 -0.2088  0.1782  0.1722
   64MOL0     C 8336   4.871   3.828   2.822 -0.3943 -0.4436 -0.3980
   64MOL0     C 8337   5.003   3.794   2.899  0.4901 -0.0155  0.5935
   64MOL0     C 8338   5.109   3.899   2.869 -0.2963 -0.8442 -0.0924
   64MOL0     C 8339   5.086   4.017   2.955  0.2918  0.9316  0.8573
   64MOL0     O 8340   5.193   4.114   2.959  0.2901 -0.0895  0.2407
   64MOL0     C 8341   5.302   4.088   3.045 -0.0421 -0.6791 -0.1602
   64MOL0     C 8342   5.307   3.992   3.142 -0.3385  0.5992 -0.0227
   64MOL0     C 8343   5.413   3.983   3.233 -0.2619  0.0567 -0.7513
   64MOL0     C 8344   5.522   4.074   3.226  0.0301  0.1135  0.0880
   64MOL0     C 8345   5.617   4.090   3.330 -0.1792  0.5703 -0.1657
   64MOL0     O 8346   5.709   4.195   3.328 -0.1583  0.5415 -0.7788
   64MOL0     C 8347   5.806   4.215   3.423 -1.4091  0.7431 -0.9057
   64MOL0     C 8348   5.939   4.242   3.373  0.5805  0.7873  0.4107
   64MOL0     C 8349   6.035   4.287   3.461 -0.9210  0.3290  0.0938
   64MOL0     C 8350   6.006   4.303   3.604 -0.7740  0.0552  0.5537
   64MOL0     O 8351   6.110   4.348   3.686  0.0956  0.2548 -0.2543
   64MOL0     C 8352   6.080   4.405   3.812  0.3001 -0.3106  0.9967
   64MOL0     C 8353   6.214   4.481   3.841  0.9208  0.5805  1.1637
   64MOL0     C 8354   6.217   4.566   3.964  0.5040 -0.3057 -0.5674
   64MOL0     C 8355   6.354   4.566   4.021  0.1097 -0.4272 -0.2311
   64MOL0     C 8356   6.366   4.626   4.164  0.0262  0.7490 -0.3052
   64MOL0     C 8357   6.308   4.539   4.275 -0.5264 -0.2964  0.5924
   64MOL0     C 8358   6.260   4.620   4.395  0.2495  0.6357 -0.0580
   64MOL0     C 8359   6.249   4.538   4.520  0.1293  0.0820  0.4071
   64MOL0    Cl 8360   6.101   4.427   4.514 -0.1968 -0.3866  0.1143
   64MOL0     C 8361   5.875   4.273   3.650 -0.3240 -0.4709  0.1656
   64MOL0     C 8362   5.778   4.223   3.559 -0.6820  0.4207 -0.8778
   64MOL0     O 8363   5.617   3.996   3.418  0.0611  0.6805 -0.0143
   64MOL0     C 8364   5.515   4.169   3.118 -0.0658  0.7699  0.5401
   64MOL0     C 8365   5.416   4.162   3.016  0.4535 -0.1598  0.1907
   64MOL0     N 8366   4.757   3.646   2.959  0.4770  0.1409 -0.2335
   64MOL0     N 8367   4.681   3.543   2.939 -0.2634 -0.5910  0.1924
   64MOL0     C 8368   3.453   3.752   2.628  0.1694 -0.1802 -0.6241
   64MOL0     C 8369   3.350   3.831   2.619  0.5765 -0.2816 -1.6660
   64MOL0     C 8370   3.009   4.084   2.463 -1.0149 -1.1922  0.0273
   64MOL0     C 8371   2.888   4.040   2.408  0.6875 -0.5735  0.2807
   64MOL0     C 8372   2.771   4.122   2.424  0.1100  0.1226  0.3847
   64MOL0     C 8373   2.769   4.239   2.490  1.4997 -0.2771 -0.4635
   64MOL0     O 8374   2.647   4.308   2.505  0.6983 -0.1544  0.2897
   64MOL0     C 8375   2.623   4.339   2.641  0.3304  0.2175  0.3525
   64MOL0     C 8376   2.480   4.336   2.671  1.1125  0.4940 -0.6901
   64MOL0     C 8377   2.445   4.187   2.681  0.3508 -0.4009  0.2027
   64MOL0     C 8378   2.304   4.169   2.744 -0.8115  0.5507  0.4493
   64MOL0     C 8379   2.255   4.036   2.745  0.0164 -0.4392 -0.4645
   64MOL0     C 8380   2.219   3.925   2.755 -0.3821  0.2965  0.5525
   64MOL0     C 8381   2.893   4.300   2.517 -0.8875 -0.0085  0.3846
   64MOL0     C 8382   3.013   4.222   2.502 -0.5490 -0.0988  0.0183
   64MOL0     H 8383   3.447   4.060   2.405  2.0188  0.4373 -0.5177
   64MOL0     H 8384   3.647   3.886   2.378  0.4265 -1.7019  0.9464
   64MOL0     H 8385   3.602   3.501   2.513  0.8526  0.0759  0.0487
   64MOL0     H 8386   3.638   3.549   2.678 -3.0883 -2.0790 -0.1314
   64MOL0     H 8387   3.853   3.510   2.461 -0.4304 -0.5884  0.7192
   64MOL0     H 8388   3.819   3.400   2.591  5.3560 -0.3454 -1.1735
   64MOL0     H 8389   3.858   3.584   2.762 -1.1772  0.4388  0.4161
   64MOL0     H 8390   3.913   3.677   2.625 -0.6252  1.5313  2.1197
   64MOL0     H 8391   4.003   3.430   2.749  0.4468 -0.9291 -0.0623
   64MOL0     H 8392   4.064   3.446   2.585  0.0433 -0.7589  0.2599
   64MOL0     H 8393   4.135   3.643   2.816 -0.0903  0.9316 -0.7897
   64MOL0     H 8394   4.184   3.686   2.659  1.7468  0.1836  2.1962
   64MOL0     H 8395   4.304   3.468   2.629 -0.3951  2.4949 -1.3863
   64MOL0     H 8396   4.258   3.436   2.802 -2.4312 -0.6911 -1.3551
   64MOL0     H 8397   4.417   3.682   2.748  3.3217 -0.3818 -1.7401
   64MOL0     H 8398   4.386   3.584   2.894 -1.1988 -0.0294 -0.3853
   64MOL0     H 8399   4.538   3.485   2.654  1.6749  1.4001 -0.3183
   64MOL0     H 8400   4.518   3.395   2.814  2.8936  0.4518  1.1984
   64MOL0     H 8401   4.690   3.692   2.636  1.8165  1.3173  0.7106
   64MOL0     H 8402   4.824   3.923   2.849  0.4705 -0.5550  1.6636
   64MOL0     H 8403   4.907   3.847   2.720  0.8448  0.5012  0.1908
   64MOL0     H 8404   5.038   3.692   2.886 -2.3940 -0.8102 -2.5469
   64MOL0     H 8405   4.984   3.782   3.006 -1.8788 -1.1786  0.1172
   64MOL0     H 8406   5.204   3.854   2.898  0.7237 -0.2906 -2.3881
   64MOL0     H 8407   5.113   3.921   2.762  1.1661  0.2048  0.1484
   64MOL0     H 8408   5.046   3.985   3.051 -1.9217 -0.3655 -0.4134
   64MOL0     H 8409   5.004   4.074   2.910  0.5078 -0.1407 -0.9948
   64MOL0     H 8410   5.229   3.920   3.166 -2.0104  2.3347 -0.0890
   64MOL0     H 8411   5.406   3.900   3.303 -3.1492  0.3667 -0.5820
   64MOL0     H 8412   5.967   4.245   3.268 -0.9216  1.5120  0.0052
   64MOL0     H 8413   6.132   4.323   3.427 -1.1906  1.5457  0.5732
   64MOL0     H 8414   6.069   4.318   3.877  0.8269 -1.4301 -0.3693
   64MOL0     H 8415   5.997   4.476   3.823 -0.5249 -1.4244  2.1642
   64MOL0     H 8416   6.214   4.556   3.762 -2.5264 -0.7535 -0.3088
   64MOL0     H 8417   6.307   4.425   3.827  1.5211  1.2613  2.2486
   64MOL0     H 8418   6.141   4.523   4.030  0.3332 -3.1511 -2.4705
   64MOL0     H 8419   6.181   4.668   3.947 -1.4662 -0.9280 -0.3675
   64MOL0     H 8420   6.381   4.461   4.033 -0.2579 -0.3583  1.3863
   64MOL0     H 8421   6.419   4.628   3.958  1.4381  1.2306  2.5979
   64MOL0     H 8422   6.323   4.727   4.165 -0.5794  0.5439  2.1784
   64MOL0     H 8423   6.472   4.645   4.184  0.3556  0.1466 -1.3923
   64MOL0     H 8424   6.374   4.460   4.312  0.2588  1.1908  2.5634
   64MOL0     H 8425   6.222   4.491   4.228 -0.4104  2.1356 -2.4506
   64MOL0     H 8426   6.340   4.693   4.412  0.7850 -0.4289  2.4387
   64MOL0     H 8427   6.162   4.664   4.374 -1.7669 -3.2831  0.2306
   64MOL0     H 8428   6.245   4.599   4.611  1.4987  4.6213 -2.2611
   64MOL0     H 8429   6.338   4.476   4.535  0.2092  0.3134  0.9130
   64MOL0     H 8430   5.831   4.275   3.749 -1.9693  0.9409 -0.5541
   64MOL0     H 8431   5.684   4.193   3.603 -0.4789  1.3090  0.2139
   64MOL0     H 8432   5.603   4.232   3.108 -0.8009  1.9956  1.4211
   64MOL0     H 8433   5.422   4.206   2.918 -1.2773 -0.2886  0.0007
   64MOL0     H 8434   3.459   3.670   2.699 -2.6947 -0.3780 -0.4993
   64MOL0     H 8435   3.274   3.799   2.690  0.3347  0.1185 -1.7420
   64MOL0     H 8436   2.868   3.946   2.358 -2.1329  0.1936 -0.2571
   64MOL0     H 8437   2.688   4.073   2.373 -0.0398 -1.9210  2.4064
   64MOL0     H 8438   2.665   4.436   2.669 -0.2784  0.2829  1.0538
   64MOL0     H 8439   2.675   4.267   2.705 -0.7249 -1.4232 -0.5531
   64MOL0     H 8440   2.447   4.391   2.760 -1.5853 -0.9699 -0.6647
   64MOL0     H 8441   2.437   4.392   2.587  1.6390 -0.2604 -1.4756
   64MOL0     H 8442   2.514   4.121   2.735  2.7872  2.5839  1.0314
   64MOL0     H 8443   2.450   4.158   2.576 -2.4894 -0.2718 -0.0434
   64MOL0     H 8444   2.305   4.204   2.848 -1.1609  0.3356  0.5296
   64MOL0     H 8445   2.234   4.236   2.693 -2.4912  0.6299  2.6831
   64MOL0     H 8446   2.181   3.824   2.752 -2.2468  0.9475 -2.4159
   64MOL0     H 8447   2.900   4.403   2.549  2.3896  0.1532 -0.5304
   64MOL0     H 8448   3.102   4.273   2.539  0.5789  1.0131 -3.7636
   65MOL0     O 8449  10.462   4.107   3.442 -0.5713 -0.1461  0.2919
   65MOL0     C 8450  10.525   4.134   3.544 -0.6589  0.3967  0.1638
   65MOL0     O 8451  10.475   4.123   3.671  1.0486  0.3538  0.1360
   65MOL0     C 8452  10.348   4.072   3.692  0.2639  0.1328 -1.1304
   65MOL0     C 8453  10.301   3.948   3.644  0.4681 -0.1912 -0.7807
   65MOL0     C 8454  10.174   3.907   3.662  0.0797 -0.7943  0.5224
   65MOL0     C 8455  10.088   3.990   3.733  0.0263  0.1223  0.4104
   65MOL0     O 8456   9.952   3.949   3.747 -0.0288 -0.6604  0.2835
   65MOL0     C 8457   9.897   3.975   3.879 -0.9265 -0.6646 -0.0293
   65MOL0     C 8458   9.780   3.880   3.899 -0.5840  0.4800 -0.4668
   65MOL0     C 8459   9.731   3.862   4.044 -0.6716  0.4266 -0.5735
   65MOL0     C 8460   9.722   3.993   4.124 -0.0333  0.0904 -0.8557
   65MOL0     C 8461   9.616   4.095   4.092 -0.4414 -0.7902 -0.0891
   65MOL0     C 8462   9.484   4.033   4.074 -0.3504  0.7815 -0.4336
   65MOL0     C 8463   9.373   4.128   4.118 -1.2457  0.2417 -0.0857
   65MOL0     C 8464   9.246   4.077   4.044  0.0973 -0.8233 -0.2392
   65MOL0     N 8465   9.125   4.096   4.125 -1.1404 -0.2209  0.0368
   65MOL0     C 8466   9.060   3.985   4.187 -0.4104  0.0269  0.0258
   65MOL0     C 8467   8.934   4.040   4.226 -0.1539  0.3332 -0.0744
   65MOL0     C 8468   8.824   3.978   4.303 -0.0348  0.4017 -0.1846
   65MOL0     C 8469   8.722   3.932   4.192  0.1217  0.2795 -0.0022
   65MOL0     C 8470   8.601   3.849   4.219  0.6361 -0.2622  0.2017
   65MOL0     C 8471   8.509   3.879   4.337 -0.0744 -1.6446  0.2927
   65MOL0     O 8472   8.483   3.762   4.412 -1.0824  0.2784  0.1258
   65MOL0     C 8473   8.487   3.786   4.547 -0.3958  0.4122  0.2373
   65MOL0     C 8474   8.584   3.705   4.622  0.3828 -1.0389  1.1862
   65MOL0     C 8475   8.596   3.721   4.757 -0.5148 -0.0288 -0.2838
   65MOL0     C 8476   8.512   3.808   4.826 -0.3228 -0.4654  0.1570
   65MOL0     C 8477   8.508   3.803   4.976  0.0658 -0.4080 -0.3367
   65MOL0     O 8478   8.595   3.715   5.036  0.2233  0.3253  0.1692
   65MOL0     C 8479   8.584   3.698   5.165 -1.1782  0.1002  0.2040
   65MOL0     C 8480   8.473   3.636   5.221 -0.3584  0.1329 -0.4082
   65MOL0     C 8481   8.454   3.613   5.358  0.0923 -0.8430 -0.0834
   65MOL0     C 8482   8.563   3.647   5.440  0.1500  0.2880  0.4684
   65MOL0     O 8483   8.548   3.625   5.572 -0.3177  0.1755 -0.4763
   65MOL0     C 8484   8.641   3.522   5.620 -1.1327  0.8107 -0.1170
   65MOL0     C 8485   8.587   3.473   5.756 -0.1236 -0.2238 -0.0199
   65MOL0     C 8486   8.487   3.362   5.767 -0.2332  0.2801 -0.0428
   65MOL0     C 8487   8.366   3.396   5.671  0.4382  0.3692 -0.7617
   65MOL0     C 8488   8.262   3.284   5.692  0.2969  1.2959 -0.2322
   65MOL0     C 8489   8.155   3.298   5.590 -0.4466 -0.3050 -0.6890
   65MOL0     C 8490   8.040   3.209   5.629 -0.7137 -0.0800  0.0887
   65MOL0     C 8491   7.935   3.201   5.520  0.3754  0.5855  0.3289
   65MOL0    Cl 8492   7.840   3.349   5.497  0.2557 -0.7952  0.3136
   65MOL0     C 8493   8.668   3.732   5.396 -1.0595  0.2685  0.5741
   65MOL0     C 8494   8.676   3.756   5.257  0.1796  0.5887 -0.1087
   65MOL0     O 8495   8.450   3.895   5.027  0.1100 -0.4273  0.3827
   65MOL0     C 8496   8.419   3.882   4.747 -1.0093  0.1373  0.6786
   65MOL0     C 8497   8.406   3.876   4.608  0.7750  0.0894  0.8028
   65MOL0     N 8498   8.939   4.172   4.190  0.2969 -0.4692  0.3120
   65MOL0     N 8499   9.047   4.205   4.128  0.3548 -0.8436  0.3712
   65MOL0     C 8500  10.124   4.127   3.770 -0.1199  0.0162 -0.1939
   65MOL0     C 8501  10.264   4.167   3.747  0.5511 -0.2256 -1.2687
   65MOL0     C 8502  10.668   4.169   3.525  0.3396  0.6708  0.5691
   65MOL0     C 8503  10.721   4.249   3.416  0.2968 -0.4655  0.3220
   65MOL0     C 8504  10.853   4.274   3.396 -0.5021 -0.5398  0.0235
   65MOL0     C 8505  10.950   4.218   3.484  0.5514 -0.7228  0.7966
   65MOL0     O 8506  11.082   4.233   3.455  0.1027  0.5688  0.0557
   65MOL0     C 8507  11.197   4.161   3.514  0.7540  0.0716 -0.5401
   65MOL0     C 8508  11.332   4.168   3.435 -0.0730 -0.7603 -0.1750
   65MOL0     C 8509  11.373   4.319   3.412 -0.5656  0.6322  0.3317
   65MOL0     C 8510  11.511   4.335   3.343  0.5821 -0.5913 -0.7237
   65MOL0     C 8511  11.617   4.305   3.444  0.4701 -0.4392  0.6991
   65MOL0     C 8512  11.696   4.291   3.530  0.6485  1.1801 -0.1897
   65MOL0     C 8513  10.899   4.148   3.593 -0.9541 -0.1334 -0.0565
   65MOL0     C 8514  10.759   4.126   3.615  0.0566 -0.0257 -1.0689
   65MOL0     H 8515  10.377   3.880   3.606  1.6466  0.6304  0.0479
   65MOL0     H 8516  10.132   3.811   3.636 -0.4548 -1.0067  2.0710
   65MOL0     H 8517   9.861   4.078   3.886 -0.8323 -0.5164 -1.4352
   65MOL0     H 8518   9.979   3.957   3.949 -0.0563  2.0165 -0.2422
   65MOL0     H 8519   9.808   3.780   3.864 -2.9761  0.3734 -2.3447
   65MOL0     H 8520   9.700   3.912   3.832  1.1490  1.5767 -2.1304
   65MOL0     H 8521   9.797   3.796   4.101 -3.2674 -0.5459  1.4968
   65MOL0     H 8522   9.630   3.821   4.049 -0.3771 -0.1579  2.3689
   65MOL0     H 8523   9.705   3.964   4.228 -1.3677  3.1634 -0.1072
   65MOL0     H 8524   9.815   4.051   4.130  0.0712 -0.1411 -0.1009
   65MOL0     H 8525   9.656   4.149   4.006  0.8528  0.7830  1.4240
   65MOL0     H 8526   9.609   4.156   4.183 -0.4453 -1.1743  0.1711
   65MOL0     H 8527   9.465   3.944   4.135 -0.5234  0.2069 -1.3052
   65MOL0     H 8528   9.473   4.015   3.966  0.9606  3.6778 -1.1760
   65MOL0     H 8529   9.367   4.117   4.227 -0.9880 -0.7399 -0.1650
   65MOL0     H 8530   9.382   4.234   4.092 -2.1989  0.3365 -0.0865
   65MOL0     H 8531   9.270   3.978   4.004 -0.0309 -1.4839  1.2443
   65MOL0     H 8532   9.215   4.137   3.958 -1.8961 -0.9492  0.3415
   65MOL0     H 8533   9.113   3.891   4.195  2.6040  1.6259  0.2844
   65MOL0     H 8534   8.778   4.052   4.370  0.9710  2.2280 -1.4168
   65MOL0     H 8535   8.853   3.887   4.358 -3.1676 -0.2487  0.5485
   65MOL0     H 8536   8.776   3.875   4.116  0.1230 -2.4495  1.9085
   65MOL0     H 8537   8.689   4.026   4.148  0.1066 -0.9179 -2.7754
   65MOL0     H 8538   8.540   3.844   4.128  1.8017  0.4981 -0.6545
   65MOL0     H 8539   8.637   3.747   4.236 -1.7509 -0.7950  2.5747
   65MOL0     H 8540   8.415   3.928   4.310 -0.9082 -2.6353  1.2961
   65MOL0     H 8541   8.561   3.951   4.402  0.9090 -1.1898 -0.9478
   65MOL0     H 8542   8.641   3.641   4.555  1.0746  2.2789 -1.7344
   65MOL0     H 8543   8.668   3.659   4.808 -0.6970 -2.1928 -2.5019
   65MOL0     H 8544   8.394   3.600   5.156  0.1995  0.5779 -1.3548
   65MOL0     H 8545   8.367   3.583   5.415  1.4369 -3.1654  0.8999
   65MOL0     H 8546   8.735   3.576   5.633 -0.6969 -0.3780  2.0429
   65MOL0     H 8547   8.660   3.439   5.552 -1.7507 -1.5091  2.3805
   65MOL0     H 8548   8.535   3.558   5.800  0.1788 -0.1458  0.1904
   65MOL0     H 8549   8.670   3.441   5.820  2.2024  2.7683 -1.3161
   65MOL0     H 8550   8.453   3.368   5.871  2.1114 -1.5723  0.9102
   65MOL0     H 8551   8.543   3.271   5.748  0.4795  0.7006  0.0220
   65MOL0     H 8552   8.324   3.494   5.696  1.0981  0.4932 -0.1218
   65MOL0     H 8553   8.396   3.402   5.566  2.3502 -0.6268 -0.3129
   65MOL0     H 8554   8.217   3.293   5.792  2.9004 -3.5056  1.6856
   65MOL0     H 8555   8.314   3.188   5.692 -0.1086  1.0452  1.4751
   65MOL0     H 8556   8.190   3.271   5.490  0.2090  1.1515 -0.8907
   65MOL0     H 8557   8.123   3.403   5.598 -1.1207 -0.3974 -1.9056
   65MOL0     H 8558   8.095   3.115   5.637  0.0570  0.1839 -1.6689
   65MOL0     H 8559   7.992   3.234   5.724  1.4784 -0.8161  1.4656
   65MOL0     H 8560   7.865   3.125   5.557 -0.6961  0.5750 -1.5605
   65MOL0     H 8561   7.974   3.178   5.421  2.3262  1.0465  0.9510
   65MOL0     H 8562   8.743   3.760   5.470 -0.4163 -0.6888  0.3084
   65MOL0     H 8563   8.758   3.823   5.230 -2.3138  3.1445 -2.0478
   65MOL0     H 8564   8.356   3.953   4.799  0.9428  0.6505  2.4899
   65MOL0     H 8565   8.333   3.934   4.553  1.8851 -1.2798 -2.3885
   65MOL0     H 8566  10.040   4.181   3.812  0.6560  0.0203  1.4293
   65MOL0     H 8567  10.294   4.270   3.765 -3.1837  0.5039  2.4363
   65MOL0     H 8568  10.654   4.288   3.341 -1.8011  0.5415  2.5752
   65MOL0     H 8569  10.869   4.317   3.297 -1.3479  1.7450  0.8227
   65MOL0     H 8570  11.169   4.057   3.532  3.3271 -0.7240 -0.6122
   65MOL0     H 8571  11.218   4.193   3.616  1.9368  3.3386 -1.6846
   65MOL0     H 8572  11.411   4.111   3.484  0.6301 -1.0382 -1.6022
   65MOL0     H 8573  11.316   4.127   3.335  1.6568  2.9071 -2.1670
   65MOL0     H 8574  11.372   4.381   3.502 -0.0616  1.7456 -0.4033
   65MOL0     H 8575  11.301   4.369   3.345  1.1361 -0.4857 -2.5153
   65MOL0     H 8576  11.532   4.272   3.256  1.7613  0.0709 -0.9461
   65MOL0     H 8577  11.532   4.436   3.307  1.3433 -0.1022  0.9982
   65MOL0     H 8578  11.764   4.266   3.608  0.6523 -1.0151 -0.8444
   65MOL0     H 8579  10.967   4.111   3.668 -0.7179  0.4124  0.0046
   65MOL0     H 8580  10.738   4.084   3.713  2.0324 -1.2422 -1.1086
   66MOL0     O 8581   4.296   9.477   2.018  0.0782  0.2963  0.1511
   66MOL0     C 8582   4.299   9.458   2.141 -0.6044  0.1425  0.1626
   66MOL0     O 8583   4.351   9.552   2.230  0.0330  0.3382 -0.4322
   66MOL0     C 8584   4.405   9.670   2.183 -0.8798 -0.2090 -0.3484
   66MOL0     C 8585   4.382   9.781   2.276  0.4850 -0.6749 -0.1257
   66MOL0     C 8586   4.464   9.893   2.273 -0.5777  0.3869  0.2582
   66MOL0     C 8587   4.571   9.906   2.181 -0.0467 -1.2073  0.9705
   66MOL0     O 8588   4.649  10.029   2.184 -0.4719  0.6469  0.4992
   66MOL0     C 8589   4.773  10.035   2.105 -0.1253 -0.7939 -0.4103
   66MOL0     C 8590   4.850  10.166   2.130  1.0086 -0.1000 -0.0994
   66MOL0     C 8591   4.916  10.174   2.255 -1.4860  1.1429  0.1873
   66MOL0     C 8592   4.942  10.322   2.292  0.3407  0.4818 -0.0591
   66MOL0     C 8593   5.021  10.333   2.428  0.2591 -0.1287  0.0403
   66MOL0     C 8594   5.042  10.480   2.472  1.1567  0.6945 -0.5487
   66MOL0     C 8595   5.073  10.485   2.621  0.5138 -0.3648  0.3232
   66MOL0     C 8596   5.084  10.620   2.679 -0.1335 -0.3995 -0.2421
   66MOL0     N 8597   5.176  10.633   2.791 -0.3616 -0.1193 -0.3725
   66MOL0     C 8598   5.314  10.630   2.772  0.5556  0.9255  0.0590
   66MOL0     C 8599   5.367  10.655   2.892 -0.6520  1.0224 -0.5742
   66MOL0     C 8600   5.511  10.641   2.936 -1.7970 -0.6732  0.0695
   66MOL0     C 8601   5.548  10.496   2.967  0.3169 -0.8867  0.9736
   66MOL0     C 8602   5.566  10.425   2.831  0.3284  0.2238  0.4608
   66MOL0     C 8603   5.608  10.282   2.846 -0.8817 -0.5496 -0.6090
   66MOL0     O 8604   5.652  10.209   2.738  0.5956  0.5207 -0.4577
   66MOL0     C 8605   5.558  10.136   2.670 -0.3856  0.1585 -0.2599
   66MOL0     C 8606   5.608  10.062   2.566  0.1911 -0.4439  0.7802
   66MOL0     C 8607   5.530   9.970   2.488 -0.1054 -0.3654 -1.6563
   66MOL0     C 8608   5.398   9.961   2.515 -0.7985  0.5136  0.3506
   66MOL0     C 8609   5.315   9.878   2.432  0.5345 -0.0148 -0.5497
   66MOL0     O 8610   5.189   9.928   2.424  0.5180 -0.2960 -0.1318
   66MOL0     C 8611   5.074   9.841   2.386 -0.0729 -0.3483 -0.4623
   66MOL0     C 8612   5.077   9.760   2.276  0.6731  1.1822  0.1954
   66MOL0     C 8613   4.960   9.685   2.235  0.6106  0.6879 -0.3485
   66MOL0     C 8614   4.858   9.661   2.321 -0.9551 -0.8740 -0.4215
   66MOL0     O 8615   4.760   9.580   2.281 -0.8893 -0.6487  0.1112
   66MOL0     C 8616   4.696   9.481   2.365  0.2209 -0.1620 -0.5388
   66MOL0     C 8617   4.690   9.341   2.293  1.0451 -0.1640  0.3404
   66MOL0     C 8618   4.655   9.225   2.382 -0.8104 -0.5258  0.1212
   66MOL0     C 8619   4.622   9.102   2.301 -0.3942 -0.6701 -0.4059
   66MOL0     C 8620   4.612   8.969   2.378 -0.6149 -0.1140 -0.0733
   66MOL0     C 8621   4.753   8.942   2.441  0.2144 -0.2174  0.6864
   66MOL0     C 8622   4.784   8.793   2.469  0.1044  0.0354  0.1532
   66MOL0     C 8623   4.915   8.785   2.550  0.5397  0.4464  0.0214
   66MOL0    Cl 8624   5.045   8.752   2.434 -0.1185  0.3164  0.1217
   66MOL0     C 8625   4.856   9.740   2.433  0.0990 -0.0790 -0.3943
   66MOL0     C 8626   4.961   9.832   2.463  0.7068  0.0263 -0.2966
   66MOL0     O 8627   5.357   9.774   2.378  0.3863 -0.4112 -0.2311
   66MOL0     C 8628   5.342  10.039   2.619  0.1229  0.2587 -0.8837
   66MOL0     C 8629   5.419  10.122   2.696  0.8317 -0.9028  0.3322
   66MOL0     N 8630   5.264  10.680   2.979 -0.1317 -0.1458  0.5766
   66MOL0     N 8631   5.158  10.694   2.910  0.5465  0.0567 -0.0120
   66MOL0     C 8632   4.594   9.801   2.095  0.3174 -0.3144 -0.5898
   66MOL0     C 8633   4.514   9.678   2.104 -0.1355 -0.6997 -0.3431
   66MOL0     C 8634   4.257   9.326   2.199 -0.3048 -0.8755 -0.1212
   66MOL0     C 8635   4.314   9.285   2.320  0.0226  1.0546 -0.3230
   66MOL0     C 8636   4.285   9.152   2.368  0.4828  1.1428 -0.1378
   66MOL0     C 8637   4.195   9.070   2.298 -0.3356  0.0450  0.5056
   66MOL0     O 8638   4.144   8.951   2.348 -0.2906  0.2218  0.8198
   66MOL0     C 8639   4.229   8.869   2.433 -0.1457  0.4094 -0.0623
   66MOL0     C 8640   4.174   8.722   2.446 -0.3194 -1.2761  0.1528
   66MOL0     C 8641   4.030   8.713   2.476  0.3272 -0.1121 -0.9059
   66MOL0     C 8642   3.980   8.570   2.446 -0.3845 -0.9502 -0.5182
   66MOL0     C 8643   3.844   8.546   2.497  0.6224 -0.8643 -0.4199
   66MOL0     C 8644   3.738   8.506   2.535  0.1969  0.2916  0.1501
   66MOL0     C 8645   4.140   9.126   2.174  0.7823  0.2481  0.3531
   66MOL0     C 8646   4.176   9.246   2.121 -0.0563 -0.0615 -0.6012
   66MOL0     H 8647   4.311   9.776   2.358  0.9868  1.4382  0.4917
   66MOL0     H 8648   4.438   9.974   2.340 -0.5849  1.2026 -0.7142
   66MOL0     H 8649   4.748  10.030   1.998 -0.7783 -1.9304 -0.2291
   66MOL0     H 8650   4.834   9.948   2.129  0.2792 -0.9228 -1.8049
   66MOL0     H 8651   4.771  10.240   2.144  2.3907  1.5838 -0.8059
   66MOL0     H 8652   4.924  10.194   2.054  3.0990  0.0339  1.8924
   66MOL0     H 8653   5.004  10.112   2.240 -2.0917  0.6192 -1.3245
   66MOL0     H 8654   4.853  10.128   2.332  1.5634 -1.5752  1.2708
   66MOL0     H 8655   5.000  10.363   2.209  3.3878 -2.2930  0.5102
   66MOL0     H 8656   4.842  10.356   2.322  0.2541  0.0293  0.1768
   66MOL0     H 8657   5.114  10.276   2.423  0.0665 -0.3642 -1.6139
   66MOL0     H 8658   4.947  10.289   2.495 -5.1579  2.2168 -3.6207
   66MOL0     H 8659   4.942  10.525   2.464  1.6740  1.8965 -0.3924
   66MOL0     H 8660   5.110  10.530   2.402 -0.2582  1.0508 -1.7435
   66MOL0     H 8661   5.014  10.416   2.682  2.2265  0.3129  2.9214
   66MOL0     H 8662   5.177  10.451   2.621  0.9380  0.7399  2.5876
   66MOL0     H 8663   4.987  10.650   2.718  0.4341  1.1888  0.0333
   66MOL0     H 8664   5.111  10.702   2.612  3.8465 -0.5853  0.8886
   66MOL0     H 8665   5.362  10.592   2.682 -1.4708 -0.2108 -0.6012
   66MOL0     H 8666   5.534  10.695   3.028  2.4187 -1.9120 -0.0211
   66MOL0     H 8667   5.575  10.689   2.861 -0.2796 -4.5762 -1.4228
   66MOL0     H 8668   5.475  10.449   3.034 -2.8731 -0.5328 -1.9611
   66MOL0     H 8669   5.650  10.503   3.006  1.1908 -1.9599 -0.9626
   66MOL0     H 8670   5.467  10.433   2.786 -0.1776  0.2228  1.5548
   66MOL0     H 8671   5.649  10.476   2.781 -0.1835 -0.9481 -1.7108
   66MOL0     H 8672   5.541  10.229   2.915 -4.0932  3.1240 -0.5346
   66MOL0     H 8673   5.699  10.287   2.907 -0.0067 -0.4167 -1.8787
   66MOL0     H 8674   5.712  10.076   2.540 -0.4107  1.5976 -0.8204
   66MOL0     H 8675   5.573   9.912   2.407 -1.4017 -2.4791 -0.9169
   66MOL0     H 8676   5.166   9.767   2.214 -1.5906  1.8680 -3.3270
   66MOL0     H 8677   4.945   9.633   2.141 -1.9939  0.1973  0.2743
   66MOL0     H 8678   4.591   9.501   2.392 -0.3668 -1.8692 -1.3848
   66MOL0     H 8679   4.753   9.480   2.459 -0.8742  0.6080  0.1618
   66MOL0     H 8680   4.792   9.323   2.256  1.3849  2.9593 -0.5545
   66MOL0     H 8681   4.623   9.344   2.207 -2.0968 -0.8856  2.5955
   66MOL0     H 8682   4.560   9.258   2.424 -1.2497  3.9120 -3.6274
   66MOL0     H 8683   4.730   9.203   2.459  0.5526 -1.5925 -1.4517
   66MOL0     H 8684   4.532   9.125   2.244 -0.9212  3.4780  1.7248
   66MOL0     H 8685   4.690   9.085   2.217  0.1440  2.0484 -0.5939
   66MOL0     H 8686   4.587   8.891   2.305  0.3980 -0.4466 -0.0892
   66MOL0     H 8687   4.538   8.961   2.458 -2.5763  1.2314 -1.6435
   66MOL0     H 8688   4.768   8.997   2.534  1.0112  0.0897  0.3777
   66MOL0     H 8689   4.835   8.965   2.372  3.2232  0.8052  4.2826
   66MOL0     H 8690   4.694   8.749   2.514 -1.7817  0.4404 -2.8959
   66MOL0     H 8691   4.792   8.734   2.378 -0.3448 -2.1791  1.4726
   66MOL0     H 8692   4.912   8.694   2.610 -0.4762 -1.0607 -2.1592
   66MOL0     H 8693   4.945   8.871   2.610 -1.0105  0.2375  1.1581
   66MOL0     H 8694   4.761   9.731   2.483 -1.5286  1.4144 -2.9768
   66MOL0     H 8695   4.948   9.901   2.546 -0.1458  0.2807 -0.6235
   66MOL0     H 8696   5.234  10.045   2.634  0.1008 -0.5454 -0.6929
   66MOL0     H 8697   5.371  10.182   2.774  2.7070  0.5577  0.4359
   66MOL0     H 8698   4.678   9.813   2.028  3.2266  0.3297  2.8899
   66MOL0     H 8699   4.547   9.590   2.049  4.5556  0.8508 -0.3919
   66MOL0     H 8700   4.382   9.350   2.376  0.9062  2.1074 -2.4793
   66MOL0     H 8701   4.333   9.104   2.453  0.6987 -2.5371 -2.1162
   66MOL0     H 8702   4.223   8.917   2.532 -1.9382  1.4175 -0.6204
   66MOL0     H 8703   4.332   8.860   2.399 -0.4709 -2.7686 -0.5468
   66MOL0     H 8704   4.191   8.670   2.351  0.6258 -0.4983 -0.1234
   66MOL0     H 8705   4.227   8.663   2.522 -0.1540 -0.5416  0.6168
   66MOL0     H 8706   3.978   8.788   2.416  1.9210  0.2210 -1.9213
   66MOL0     H 8707   4.000   8.740   2.578 -1.0067  0.7264 -1.4876
   66MOL0     H 8708   3.991   8.554   2.338  1.1380  1.6854 -0.8474
   66MOL0     H 8709   4.047   8.503   2.501 -0.6098  0.0520  1.0400
   66MOL0     H 8710   3.645   8.459   2.562  0.2384 -0.2858 -0.6820
   66MOL0     H 8711   4.076   9.056   2.123  1.2297  0.3939 -0.4198
   66MOL0     H 8712   4.130   9.288   2.032 -0.5963  1.7666  0.4972
   67MOL0     O 8713   9.007   9.334   6.135 -0.0760  0.0528  0.2243
   67MOL0     C 8714   8.998   9.209   6.110 -0.2520 -0.5281 -0.1543
   67MOL0     O 8715   8.906   9.143   6.021 -0.5123 -0.1608 -0.6842
   67MOL0     C 8716   8.814   9.211   5.943  0.0112  0.0480  0.5735
   67MOL0     C 8717   8.746   9.131   5.848 -0.1162  0.4171  1.0657
   67MOL0     C 8718   8.645   9.187   5.760  0.2496 -0.9724 -0.8562
   67MOL0     C 8719   8.614   9.325   5.772  0.7847  0.5868 -0.1978
   67MOL0     O 8720   8.516   9.362   5.679 -0.6141  0.4069  0.4239
   67MOL0     C 8721   8.470   9.497   5.647  0.2465 -0.0554 -0.0489
   67MOL0     C 8722   8.324   9.485   5.593  0.1543 -0.2837 -0.5479
   67MOL0     C 8723   8.272   9.602   5.517 -0.6501 -0.0793 -0.3933
   67MOL0     C 8724   8.146   9.559   5.438 -1.1936 -0.9735  0.0518
   67MOL0     C 8725   8.091   9.694   5.377  0.4651  0.8015  0.3944
   67MOL0     C 8726   7.982   9.670   5.285  0.4861  0.7400 -0.2467
   67MOL0     C 8727   7.845   9.681   5.347 -0.5557  0.3412 -0.8990
   67MOL0     C 8728   7.731   9.694   5.247  0.3946  1.2661  1.3584
   67MOL0     N 8729   7.717   9.823   5.170 -0.3472  0.1684 -0.5635
   67MOL0     C 8730   7.793   9.942   5.192  0.7881  0.8766  0.6047
   67MOL0     C 8731   7.739  10.032   5.114  0.3242  0.3973 -0.2594
   67MOL0     C 8732   7.759  10.184   5.098 -0.5447 -0.2834  0.0838
   67MOL0     C 8733   7.908  10.209   5.064 -0.2477 -0.8342  0.1051
   67MOL0     C 8734   7.921  10.361   5.036  0.0099 -0.7818 -0.2168
   67MOL0     C 8735   7.923  10.435   5.173 -0.1890 -0.2541 -1.2270
   67MOL0     O 8736   7.897  10.568   5.142  0.3008  0.0111  0.0506
   67MOL0     C 8737   7.771  10.619   5.146  0.2226  0.2098  0.0559
   67MOL0     C 8738   7.756  10.763   5.119  0.6239  1.2988  0.5168
   67MOL0     C 8739   7.633  10.824   5.110 -0.1484 -0.0509  0.2856
   67MOL0     C 8740   7.518  10.749   5.129  0.4523  0.5636 -0.1182
   67MOL0     C 8741   7.380  10.797   5.102  0.0043 -0.6446 -0.0511
   67MOL0     O 8742   7.356  10.930   5.126  0.4519  0.2220 -0.7001
   67MOL0     C 8743   7.250  10.990   5.074  0.5476 -0.7544 -0.1151
   67MOL0     C 8744   7.129  10.941   5.023 -0.4630  0.3733 -0.6932
   67MOL0     C 8745   7.025  11.027   4.988 -0.4711  0.2478  0.3999
   67MOL0     C 8746   7.038  11.163   4.993 -0.4080  0.3430 -1.2744
   67MOL0     O 8747   6.925  11.241   4.972  0.1711 -0.2719 -0.1251
   67MOL0     C 8748   6.916  11.260   4.828 -0.5970 -1.4114 -0.6057
   67MOL0     C 8749   6.951  11.410   4.783  0.8290 -0.1473 -0.4435
   67MOL0     C 8750   6.850  11.521   4.834  0.1729  0.3568  0.4449
   67MOL0     C 8751   6.913  11.652   4.795 -0.3915  0.2219 -0.0400
   67MOL0     C 8752   6.812  11.764   4.820 -0.7022 -0.3253 -0.8087
   67MOL0     C 8753   6.702  11.772   4.713  0.2107  0.4616 -0.5191
   67MOL0     C 8754   6.620  11.906   4.743 -0.0873 -0.8982  0.0674
   67MOL0     C 8755   6.486  11.921   4.669 -0.7144  1.1369  0.4771
   67MOL0    Cl 8756   6.507  11.920   4.488  0.4018 -0.2042 -0.0948
   67MOL0     C 8757   7.158  11.212   5.045 -0.4460 -0.0206  0.5449
   67MOL0     C 8758   7.264  11.126   5.084  0.0540 -0.3773 -0.6035
   67MOL0     O 8759   7.321  10.728   5.028  0.9247 -0.0698  0.5842
   67MOL0     C 8760   7.535  10.614   5.144  0.4889  0.7754  1.1750
   67MOL0     C 8761   7.654  10.548   5.159 -0.3239 -0.0419 -0.0171
   67MOL0     N 8762   7.644   9.976   5.032 -0.3288 -0.0894 -0.3893
   67MOL0     N 8763   7.633   9.849   5.069 -0.5849 -1.0505 -0.6656
   67MOL0     C 8764   8.672   9.399   5.873  0.5260 -0.1608  0.0038
   67MOL0     C 8765   8.775   9.344   5.951 -1.2048  0.4877 -0.2551
   67MOL0     C 8766   9.099   9.132   6.176  0.4499 -0.4297  0.7241
   67MOL0     C 8767   9.072   9.010   6.239 -0.1484  0.8351 -0.0440
   67MOL0     C 8768   9.184   8.941   6.295 -0.3553 -0.2816  0.2072
   67MOL0     C 8769   9.314   8.984   6.286  1.1451 -0.2158 -0.8306
   67MOL0     O 8770   9.411   8.910   6.353 -0.3504 -0.5118  0.6867
   67MOL0     C 8771   9.550   8.943   6.364  0.0379 -1.0525  0.0906
   67MOL0     C 8772   9.632   8.860   6.464  0.4657  0.8436 -0.3418
   67MOL0     C 8773   9.785   8.882   6.454  0.0118 -0.0224  0.4489
   67MOL0     C 8774   9.840   8.835   6.590 -0.4292  0.7078  0.1346
   67MOL0     C 8775   9.838   8.686   6.589  0.9894 -0.0626  0.4700
   67MOL0     C 8776   9.821   8.570   6.596 -0.6034 -0.0467 -0.7663
   67MOL0     C 8777   9.336   9.102   6.216 -0.0965 -1.2449  0.8765
   67MOL0     C 8778   9.232   9.172   6.161  0.2216 -0.4505  0.6891
   67MOL0     H 8779   8.761   9.026   5.824 -2.8560  0.6622 -2.5391
   67MOL0     H 8780   8.599   9.125   5.685 -2.6187  0.4931 -0.4379
   67MOL0     H 8781   8.537   9.535   5.569 -0.6253  1.8405  0.0630
   67MOL0     H 8782   8.478   9.567   5.730  0.7632 -0.7607  0.5036
   67MOL0     H 8783   8.249   9.472   5.672 -2.9760 -0.3353 -3.3010
   67MOL0     H 8784   8.328   9.397   5.527 -2.1945  0.1292 -1.3436
   67MOL0     H 8785   8.354   9.635   5.453  0.3820 -0.4749  0.6848
   67MOL0     H 8786   8.249   9.689   5.580  0.7579  0.6101 -0.7817
   67MOL0     H 8787   8.176   9.488   5.360  1.6416  0.8370 -0.6683
   67MOL0     H 8788   8.071   9.515   5.505 -1.9396  0.4318  0.1764
   67MOL0     H 8789   8.171   9.748   5.325  1.5338  0.2817  1.4383
   67MOL0     H 8790   8.054   9.761   5.455  0.7816  2.5700 -0.9046
   67MOL0     H 8791   8.000   9.574   5.235  1.5901  1.6042 -1.5734
   67MOL0     H 8792   7.992   9.752   5.213  0.0739 -0.4396 -1.6920
   67MOL0     H 8793   7.822   9.601   5.418 -1.4019 -0.4003 -1.9767
   67MOL0     H 8794   7.832   9.765   5.416 -1.9598 -0.9882  0.5520
   67MOL0     H 8795   7.643   9.676   5.310 -0.4269  0.1741 -0.0258
   67MOL0     H 8796   7.740   9.612   5.176  1.1901  0.7475  2.0310
   67MOL0     H 8797   7.867   9.960   5.269  1.2406 -0.5274  0.5309
   67MOL0     H 8798   7.720  10.236   5.185  1.4415  0.7508  0.4188
   67MOL0     H 8799   7.695  10.221   5.017 -3.0261  0.9256  2.4772
   67MOL0     H 8800   7.937  10.162   4.970  1.9210 -0.4629  0.5201
   67MOL0     H 8801   7.974  10.179   5.146  0.6619  2.5872  0.8154
   67MOL0     H 8802   8.009  10.372   4.973 -1.8949 -3.9349 -3.8590
   67MOL0     H 8803   7.834  10.399   4.982  1.3992  2.7332 -0.1972
   67MOL0     H 8804   8.018  10.430   5.226 -1.1409 -1.2338  0.4941
   67MOL0     H 8805   7.851  10.384   5.239  0.9170  0.1821  0.3676
   67MOL0     H 8806   7.843  10.825   5.099  0.8903  0.9960  0.7297
   67MOL0     H 8807   7.627  10.927   5.074  1.6183 -0.0849 -0.2138
   67MOL0     H 8808   7.120  10.833   5.013  2.4956  0.2372 -3.3102
   67MOL0     H 8809   6.930  10.987   4.952  0.4255 -0.5702 -1.2096
   67MOL0     H 8810   6.821  11.226   4.786 -2.5213  3.2399 -0.6060
   67MOL0     H 8811   6.994  11.198   4.784  0.4051  1.1048 -2.6558
   67MOL0     H 8812   6.946  11.406   4.674  0.9726 -1.8930 -0.4085
   67MOL0     H 8813   7.055  11.420   4.814  2.3574 -3.2744 -3.8374
   67MOL0     H 8814   6.839  11.521   4.942 -0.8119  1.0679  0.3547
   67MOL0     H 8815   6.754  11.500   4.786  0.0568 -2.3454  1.6689
   67MOL0     H 8816   7.000  11.668   4.860 -0.1473  0.1453 -0.3419
   67MOL0     H 8817   6.956  11.671   4.696  1.3861 -1.4571  0.3430
   67MOL0     H 8818   6.859  11.861   4.809  0.4748 -0.9746 -1.7768
   67MOL0     H 8819   6.773  11.751   4.921 -1.9240 -1.1793 -1.3512
   67MOL0     H 8820   6.638  11.683   4.716 -1.6900  1.7161 -1.9061
   67MOL0     H 8821   6.753  11.758   4.618  1.4258 -2.5211  0.4330
   67MOL0     H 8822   6.576  11.900   4.844 -2.6218 -1.9917 -1.0023
   67MOL0     H 8823   6.681  11.994   4.724 -0.0237 -0.6892  1.1328
   67MOL0     H 8824   6.433  12.007   4.713 -0.1622  1.2493  0.9313
   67MOL0     H 8825   6.423  11.836   4.695 -1.0185  0.5536 -1.9093
   67MOL0     H 8826   7.174  11.318   5.066  0.0828 -0.2305  1.2376
   67MOL0     H 8827   7.349  11.167   5.138 -1.6564 -0.5716  2.4651
   67MOL0     H 8828   7.457  10.539   5.157  0.9537  0.2960  1.2383
   67MOL0     H 8829   7.650  10.440   5.160  4.8200 -0.4681 -0.5967
   67MOL0     H 8830   8.645   9.502   5.891 -3.1188 -0.5653 -2.1038
   67MOL0     H 8831   8.817   9.409   6.027 -4.1669 -0.5281  2.4984
   67MOL0     H 8832   8.975   8.964   6.226 -0.8515  2.5632 -1.2993
   67MOL0     H 8833   9.171   8.849   6.352 -0.2989  0.4886  1.5187
   67MOL0     H 8834   9.551   9.048   6.394 -0.6587 -0.1095 -2.8324
   67MOL0     H 8835   9.589   8.951   6.262  0.5842  1.0126  0.4224
   67MOL0     H 8836   9.600   8.893   6.563  1.5967 -0.2237  0.4054
   67MOL0     H 8837   9.600   8.756   6.455  1.4373  0.2678  2.0701
   67MOL0     H 8838   9.821   8.985   6.441 -1.5735  0.7683  1.9334
   67MOL0     H 8839   9.822   8.827   6.367 -1.2951 -2.7736  1.5253
   67MOL0     H 8840   9.941   8.872   6.611 -0.2505  0.8573 -0.9638
   67MOL0     H 8841   9.773   8.864   6.671  0.0187  0.0223  0.7612
   67MOL0     H 8842   9.802   8.468   6.620  5.7948 -1.3166  0.6769
   67MOL0     H 8843   9.433   9.151   6.207 -1.3314  1.2507  0.5105
   67MOL0     H 8844   9.252   9.261   6.102 -2.4207 -1.3549 -1.8302
   68MOL0     O 8845   9.530   1.300  11.259  0.8253  0.3012  0.5392
   68MOL0     C 8846   9.471   1.231  11.174 -0.1566 -0.4970  0.1345
   68MOL0     O 8847   9.373   1.142  11.206  0.7820 -0.5679  0.3332
   68MOL0     C 8848   9.282   1.162  11.310  0.1116  0.6094  0.4195
   68MOL0     C 8849   9.258   1.280  11.384 -0.2138  0.5389  0.1924
   68MOL0     C 8850   9.158   1.282  11.489 -0.6391  0.9880 -0.0665
   68MOL0     C 8851   9.086   1.161  11.521 -0.1313 -0.0472  0.2361
   68MOL0     O 8852   8.992   1.154  11.626 -0.0964  0.0955 -0.2172
   68MOL0     C 8853   8.871   1.080  11.600 -0.2957 -0.1837  0.6023
   68MOL0     C 8854   8.757   1.148  11.680  0.3481 -0.6049  0.0155
   68MOL0     C 8855   8.632   1.050  11.705 -0.1413 -0.4345 -0.0863
   68MOL0     C 8856   8.689   0.929  11.784 -0.1454  0.9965  0.2389
   68MOL0     C 8857   8.591   0.848  11.861  0.5076  0.7114  0.1673
   68MOL0     C 8858   8.578   0.878  12.008  0.7681  0.1750 -0.8471
   68MOL0     C 8859   8.436   0.856  12.073 -0.1494 -1.1934  0.8779
   68MOL0     C 8860   8.395   0.701  12.056  0.3939  0.9008 -0.0678
   68MOL0     N 8861   8.250   0.672  12.088  1.3422  0.5542  0.1226
   68MOL0     C 8862   8.197   0.697  12.204 -0.3549 -0.9706  0.2185
   68MOL0     C 8863   8.073   0.635  12.203  0.3234 -0.4520  0.3283
   68MOL0     C 8864   7.969   0.628  12.315 -0.1919 -0.8485 -0.6023
   68MOL0     C 8865   7.865   0.526  12.286 -0.8349 -0.0189  0.2992
   68MOL0     C 8866   7.813   0.470  12.426  0.0661 -0.0495  0.6203
   68MOL0     C 8867   7.693   0.373  12.417 -0.6318 -0.4818  0.4659
   68MOL0     O 8868   7.569   0.439  12.392  0.0816 -0.3191 -0.6213
   68MOL0     C 8869   7.449   0.370  12.400  0.4285 -0.2155  0.8296
   68MOL0     C 8870   7.441   0.233  12.418 -0.4642  0.1151  0.3739
   68MOL0     C 8871   7.326   0.162  12.415  0.2801 -0.1715 -0.2187
   68MOL0     C 8872   7.202   0.231  12.395 -0.2926  0.3939  0.1351
   68MOL0     C 8873   7.072   0.154  12.400 -0.3888  0.9742 -0.4291
   68MOL0     O 8874   6.958   0.228  12.420  0.1872 -0.0606 -0.0993
   68MOL0     C 8875   6.847   0.156  12.421  0.8521 -1.0431  0.1187
   68MOL0     C 8876   6.761   0.127  12.311 -0.3169  0.2502 -0.7198
   68MOL0     C 8877   6.643   0.051  12.336 -0.7014 -0.7140  0.9558
   68MOL0     C 8878   6.620  -0.017  12.453 -0.0392  0.0982  0.1979
   68MOL0     O 8879   6.518  -0.098  12.493 -0.0816 -0.3364  0.3285
   68MOL0     C 8880   6.395  -0.061  12.439  0.1992 -0.3062  0.2575
   68MOL0     C 8881   6.279  -0.147  12.496 -0.5246  0.4045  0.1017
   68MOL0     C 8882   6.265  -0.136  12.647 -0.1294 -0.0219 -0.7422
   68MOL0     C 8883   6.181  -0.246  12.698  0.2354  0.6774  0.0646
   68MOL0     C 8884   6.019  -0.223  12.670  0.2865 -0.2694  0.2882
   68MOL0     C 8885   5.946  -0.327  12.764  0.0246  0.5050 -0.0573
   68MOL0     C 8886   5.798  -0.345  12.732 -0.1089  0.3622  0.3918
   68MOL0     C 8887   5.741  -0.436  12.614 -0.5330 -0.4981 -0.4729
   68MOL0    Cl 8888   5.728  -0.598  12.677 -0.3446  0.0582 -0.3811
   68MOL0     C 8889   6.718   0.001  12.554 -0.6666 -0.5956 -0.1495
   68MOL0     C 8890   6.820   0.098  12.538 -0.2164 -0.3877 -1.3617
   68MOL0     O 8891   7.079   0.029  12.401  0.0373 -0.0167  0.0686
   68MOL0     C 8892   7.208   0.371  12.372 -0.0873 -0.5912  0.5706
   68MOL0     C 8893   7.328   0.441  12.374 -1.9846  0.6191 -0.5890
   68MOL0     N 8894   8.052   0.575  12.077 -0.0290 -0.2649  0.2712
   68MOL0     N 8895   8.157   0.595  12.012 -1.0366  0.2207 -0.0050
   68MOL0     C 8896   9.119   1.038  11.452 -0.6474 -0.5520  1.0642
   68MOL0     C 8897   9.221   1.046  11.349  0.4527 -0.4165 -0.2782
   68MOL0     C 8898   9.525   1.236  11.039  0.0392  0.8096  0.5358
   68MOL0     C 8899   9.644   1.308  11.011 -0.8984 -0.5393 -0.9370
   68MOL0     C 8900   9.717   1.284  10.895 -0.6108 -0.3476  0.5605
   68MOL0     C 8901   9.671   1.185  10.803 -0.0385 -0.3354  0.6436
   68MOL0     O 8902   9.734   1.151  10.685  0.6503  0.1687  0.4851
   68MOL0     C 8903   9.862   1.195  10.655 -0.7138 -0.4189  0.9294
   68MOL0     C 8904   9.977   1.150  10.737  0.0248 -1.0537 -0.8660
   68MOL0     C 8905   9.971   0.998  10.761 -0.2111 -0.1805 -0.4261
   68MOL0     C 8906  10.025   0.973  10.903  0.1195  0.3209  0.9745
   68MOL0     C 8907  10.046   0.835  10.933 -0.5891  0.7643  0.8254
   68MOL0     C 8908  10.076   0.722  10.950 -0.5549  0.6608  1.0344
   68MOL0     C 8909   9.550   1.126  10.821  0.5242  0.1640 -0.0203
   68MOL0     C 8910   9.476   1.148  10.938  0.4955  0.2093  0.6092
   68MOL0     H 8911   9.318   1.369  11.369  0.7182 -0.3163 -1.3375
   68MOL0     H 8912   9.145   1.376  11.541  1.8254  0.9910  0.6859
   68MOL0     H 8913   8.894   0.973  11.603  0.5680 -0.0835 -1.0245
   68MOL0     H 8914   8.838   1.099  11.497 -0.6508 -1.4944  0.4510
   68MOL0     H 8915   8.714   1.228  11.619 -1.6672 -0.0406  2.0231
   68MOL0     H 8916   8.794   1.208  11.764  1.3484  2.8041 -2.6652
   68MOL0     H 8917   8.593   1.003  11.614 -0.2477 -1.2048  0.3437
   68MOL0     H 8918   8.553   1.107  11.756 -0.3328 -2.8664  2.6322
   68MOL0     H 8919   8.735   0.861  11.712 -0.3106  0.8351  0.2863
   68MOL0     H 8920   8.773   0.956  11.849 -1.0958  1.7646  1.1871
   68MOL0     H 8921   8.617   0.742  11.853  0.5517  0.6540  1.0175
   68MOL0     H 8922   8.495   0.870  11.814  0.0333 -1.3793  0.0410
   68MOL0     H 8923   8.619   0.977  12.029  0.4564  0.5969 -2.1489
   68MOL0     H 8924   8.650   0.808  12.052 -1.4033 -0.2681  2.4503
   68MOL0     H 8925   8.437   0.869  12.182  2.6540 -1.0026  0.9066
   68MOL0     H 8926   8.357   0.916  12.027  1.0273 -0.1871  0.1014
   68MOL0     H 8927   8.454   0.633  12.119 -0.7653  1.1439  1.3388
   68MOL0     H 8928   8.416   0.673  11.952 -2.0153  0.0599 -0.3959
   68MOL0     H 8929   8.251   0.742  12.287  0.7014  1.0757 -1.4671
   68MOL0     H 8930   7.922   0.725  12.330 -1.8361 -1.6484 -0.2326
   68MOL0     H 8931   8.014   0.613  12.413 -0.9629  0.2430 -0.0597
   68MOL0     H 8932   7.886   0.442  12.219  1.7571 -1.4235  2.6952
   68MOL0     H 8933   7.784   0.583  12.240 -0.2164 -1.6199 -3.1369
   68MOL0     H 8934   7.880   0.410  12.489  0.8847 -0.0782 -0.2454
   68MOL0     H 8935   7.793   0.550  12.497  1.6444 -0.3791  1.4973
   68MOL0     H 8936   7.689   0.318  12.512 -1.4405  0.3500  0.9324
   68MOL0     H 8937   7.711   0.300  12.338 -2.1034 -0.9734  0.5615
   68MOL0     H 8938   7.531   0.175  12.440 -1.7252 -2.9740 -1.7888
   68MOL0     H 8939   7.315   0.057  12.441  3.6949 -0.2169  1.6951
   68MOL0     H 8940   6.790   0.165  12.213 -1.5040 -1.1113 -1.6353
   68MOL0     H 8941   6.565   0.044  12.261 -0.3727 -0.1870  0.5598
   68MOL0     H 8942   6.401  -0.049  12.331  2.4374 -1.6369  0.1744
   68MOL0     H 8943   6.377   0.031  12.496  1.0674 -1.5389  2.7098
   68MOL0     H 8944   6.289  -0.249  12.455 -1.8541 -0.0744  0.9010
   68MOL0     H 8945   6.194  -0.102  12.444 -1.3030  2.9616  3.2498
   68MOL0     H 8946   6.229  -0.033  12.656  1.8582  0.7430 -1.1637
   68MOL0     H 8947   6.365  -0.142  12.691 -1.9059 -2.7084  3.5613
   68MOL0     H 8948   6.212  -0.343  12.660  0.3536 -0.3358  2.6017
   68MOL0     H 8949   6.172  -0.253  12.806 -0.2814 -0.2949 -0.0280
   68MOL0     H 8950   5.981  -0.217  12.568 -0.9497  3.9597  0.7880
   68MOL0     H 8951   6.007  -0.122  12.712  2.8580 -0.0153  0.5666
   68MOL0     H 8952   5.953  -0.288  12.866  1.3987  1.9107 -0.6487
   68MOL0     H 8953   5.998  -0.423  12.760 -0.8686 -0.1968  2.7585
   68MOL0     H 8954   5.765  -0.393  12.825 -2.9190 -0.0205 -0.7170
   68MOL0     H 8955   5.745  -0.250  12.728 -2.2056 -0.7915 -1.2657
   68MOL0     H 8956   5.807  -0.412  12.530 -0.6901  3.5074  0.3350
   68MOL0     H 8957   5.641  -0.400  12.587 -0.9488  0.9995  2.6331
   68MOL0     H 8958   6.733  -0.056  12.646 -1.0079 -2.2985 -1.1151
   68MOL0     H 8959   6.890   0.112  12.620 -0.3843 -0.7551 -1.1511
   68MOL0     H 8960   7.125   0.433  12.340  1.6530 -0.0480 -3.4046
   68MOL0     H 8961   7.346   0.543  12.342  1.8516  0.1936 -0.2870
   68MOL0     H 8962   9.073   0.944  11.480  1.1244 -1.2001  1.9373
   68MOL0     H 8963   9.250   0.956  11.296 -2.3233 -0.3400 -2.2137
   68MOL0     H 8964   9.692   1.372  11.085 -3.7080  1.0338 -0.3044
   68MOL0     H 8965   9.805   1.344  10.878 -1.7651  1.0745 -0.7319
   68MOL0     H 8966   9.857   1.303  10.671 -5.0235 -0.3983  0.4170
   68MOL0     H 8967   9.878   1.166  10.551  0.8501 -4.2577  2.0757
   68MOL0     H 8968  10.068   1.158  10.676 -0.0486  0.6403 -0.7856
   68MOL0     H 8969   9.992   1.221  10.818 -4.4398 -0.8186  0.0052
   68MOL0     H 8970  10.021   0.950  10.676  0.4286 -1.5138  0.6755
   68MOL0     H 8971   9.872   0.954  10.748  0.2965 -0.8980 -2.1501
   68MOL0     H 8972  10.116   1.030  10.923  0.5267 -0.0140  0.1017
   68MOL0     H 8973   9.946   0.989  10.978 -3.8234 -1.0330 -2.5100
   68MOL0     H 8974  10.112   0.624  10.972  0.7796  0.2126 -2.5539
   68MOL0     H 8975   9.498   1.064  10.748 -0.2508  0.8851 -0.1004
   68MOL0     H 8976   9.381   1.096  10.947  0.8595 -0.5889 -0.1089
   69MOL0     O 8977   1.515   4.882  10.417  0.1720  0.7493 -0.1808
   69MOL0     C 8978   1.597   4.921  10.335 -1.0306 -0.7428  0.7152
   69MOL0     O 8979   1.582   4.917  10.202  0.9996  0.1126  0.0684
   69MOL0     C 8980   1.449   4.921  10.156  0.6764  0.2814  1.1326
   69MOL0     C 8981   1.416   5.031  10.074  0.0682  0.0348 -1.1756
   69MOL0     C 8982   1.286   5.048  10.032  1.1344 -0.2331 -0.9335
   69MOL0     C 8983   1.182   4.958  10.061  0.9486 -0.1766  0.5543
   69MOL0     O 8984   1.061   4.985  10.006  0.5405  0.2791 -0.0739
   69MOL0     C 8985   1.051   4.909   9.879  0.3247 -0.1914  0.2923
   69MOL0     C 8986   0.913   4.934   9.826 -0.5874 -0.9619 -0.7474
   69MOL0     C 8987   0.912   5.077   9.771 -0.5038  0.0122 -0.4867
   69MOL0     C 8988   0.777   5.119   9.698 -0.3225 -0.6319  0.0414
   69MOL0     C 8989   0.686   5.169   9.806  0.2429 -0.2653 -0.1248
   69MOL0     C 8990   0.546   5.151   9.758  0.3250  0.1263 -0.1098
   69MOL0     C 8991   0.509   4.997   9.751  1.0976  0.5572 -0.2937
   69MOL0     C 8992   0.350   4.977   9.776 -0.2490 -0.1706  0.3363
   69MOL0     N 8993   0.307   4.853   9.710 -0.2580 -0.0527 -1.3910
   69MOL0     C 8994   0.339   4.722   9.752 -0.2541  0.2578 -0.1571
   69MOL0     C 8995   0.275   4.643   9.658 -0.4771 -0.4331  0.3982
   69MOL0     C 8996   0.270   4.490   9.655 -1.3650 -0.4822 -0.9846
   69MOL0     C 8997   0.136   4.441   9.623  0.3314  0.2372 -0.4342
   69MOL0     C 8998   0.029   4.491   9.725 -0.0699 -0.2762 -0.2488
   69MOL0     C 8999  -0.100   4.417   9.685  0.5686 -0.0241 -0.3089
   69MOL0     O 9000  -0.193   4.457   9.779  0.5754 -0.7531  0.3623
   69MOL0     C 9001  -0.250   4.350   9.837 -0.0038  0.5239  1.3735
   69MOL0     C 9002  -0.178   4.295   9.937 -0.8049 -0.4181 -0.8531
   69MOL0     C 9003  -0.225   4.188  10.012 -0.3714  0.6860 -0.0330
   69MOL0     C 9004  -0.340   4.119   9.973 -0.1158  0.6764  0.6005
   69MOL0     C 9005  -0.387   3.997  10.050  0.0243  0.4814  0.0993
   69MOL0     O 9006  -0.510   3.950  10.027  0.8951  0.5533  0.1870
   69MOL0     C 9007  -0.554   3.830  10.089  0.6638 -0.2950 -0.3447
   69MOL0     C 9008  -0.691   3.824  10.102 -0.3054 -0.5356 -0.4083
   69MOL0     C 9009  -0.751   3.724  10.177 -0.6595 -0.3042 -0.6861
   69MOL0     C 9010  -0.677   3.620  10.226 -0.1827  0.4597 -0.1409
   69MOL0     O 9011  -0.746   3.521  10.300 -1.4530 -0.6788  0.0828
   69MOL0     C 9012  -0.677   3.412  10.365  0.2579 -0.2180 -0.5258
   69MOL0     C 9013  -0.765   3.322  10.457 -0.1499  0.3213  0.4550
   69MOL0     C 9014  -0.671   3.231  10.545  0.2019 -0.0077  0.4077
   69MOL0     C 9015  -0.744   3.167  10.664  0.4593  0.6313 -0.7043
   69MOL0     C 9016  -0.758   3.268  10.782  0.3089  0.6215 -0.7605
   69MOL0     C 9017  -0.784   3.196  10.920  0.6481  0.7461  0.6649
   69MOL0     C 9018  -0.859   3.273  11.035 -0.8646  0.1643 -0.1165
   69MOL0     C 9019  -0.779   3.397  11.082  0.1125 -1.1258 -0.9344
   69MOL0    Cl 9020  -0.878   3.479  11.204 -0.2014  0.0760  0.0578
   69MOL0     C 9021  -0.536   3.623  10.225 -0.5040 -0.0411 -0.5661
   69MOL0     C 9022  -0.477   3.728  10.153  0.2947 -0.6244  0.2079
   69MOL0     O 9023  -0.318   3.971  10.148 -0.1622  0.0765  0.1733
   69MOL0     C 9024  -0.414   4.170   9.867 -0.3117  0.1276 -0.1456
   69MOL0     C 9025  -0.376   4.291   9.810 -0.0155 -0.2049  0.3914
   69MOL0     N 9026   0.208   4.716   9.561 -0.2155 -0.3335  0.5626
   69MOL0     N 9027   0.240   4.840   9.586 -0.2836 -0.7530  0.3623
   69MOL0     C 9028   1.212   4.845  10.139 -0.0246  0.0719 -0.2968
   69MOL0     C 9029   1.343   4.828  10.190  0.4542  0.5374  0.3189
   69MOL0     C 9030   1.732   4.956  10.373  0.5647  0.3072  0.2541
   69MOL0     C 9031   1.768   4.983  10.506 -0.2462  0.9823 -0.1021
   69MOL0     C 9032   1.899   5.017  10.542  0.6209  0.4820 -0.4263
   69MOL0     C 9033   2.000   5.041  10.449 -0.2126 -0.0200 -0.8710
   69MOL0     O 9034   2.122   5.084  10.481  0.1067  0.0519  0.2749
   69MOL0     C 9035   2.151   5.124  10.611 -0.0304 -0.5242 -0.6200
   69MOL0     C 9036   2.306   5.147  10.613  0.6810  0.2842 -1.7436
   69MOL0     C 9037   2.348   5.206  10.746 -0.0127 -0.1660 -0.4497
   69MOL0     C 9038   2.494   5.235  10.749  0.5298 -1.0709 -0.4661
   69MOL0     C 9039   2.569   5.115  10.715  0.2570  0.5543 -0.1056
   69MOL0     C 9040   2.624   5.011  10.696 -0.3584  0.7912 -0.0562
   69MOL0     C 9041   1.965   5.032  10.316 -0.1166 -0.2300  0.9337
   69MOL0     C 9042   1.840   4.994  10.280 -0.1756 -0.4417 -0.1083
   69MOL0     H 9043   1.479   5.118  10.063 -2.0606  1.8704  0.2847
   69MOL0     H 9044   1.260   5.128   9.964 -3.2221 -0.8408 -0.2607
   69MOL0     H 9045   1.065   4.802   9.893  1.3824 -0.2767 -1.2931
   69MOL0     H 9046   1.126   4.958   9.817 -2.8219  0.0827 -3.6780
   69MOL0     H 9047   0.845   4.925   9.911 -0.6143  1.8972 -0.3608
   69MOL0     H 9048   0.900   4.851   9.756  2.1108 -1.9534 -0.2165
   69MOL0     H 9049   0.991   5.095   9.697  0.2678  0.9498  0.5241
   69MOL0     H 9050   0.939   5.150   9.848  0.4287  0.4187 -1.1804
   69MOL0     H 9051   0.810   5.198   9.629 -0.2418 -2.1633 -1.7652
   69MOL0     H 9052   0.743   5.035   9.638  1.9357  0.1649 -2.5711
   69MOL0     H 9053   0.691   5.278   9.807 -1.3068 -0.1534 -1.2445
   69MOL0     H 9054   0.687   5.126   9.906  2.3868 -0.6268 -0.2369
   69MOL0     H 9055   0.539   5.198   9.660 -1.0961  0.8197  0.3078
   69MOL0     H 9056   0.499   5.204   9.841  2.0471 -0.4819  1.3243
   69MOL0     H 9057   0.532   4.938   9.662 -1.0014 -0.8427  0.0058
   69MOL0     H 9058   0.566   4.947   9.830  1.7885  1.7756 -0.0037
   69MOL0     H 9059   0.306   5.063   9.724  1.1297  0.9904  1.0059
   69MOL0     H 9060   0.314   4.965   9.879 -0.8924 -2.0017 -0.0649
   69MOL0     H 9061   0.393   4.703   9.844  1.4864 -0.1149 -1.2100
   69MOL0     H 9062   0.300   4.458   9.755 -2.2054 -0.3656 -0.6917
   69MOL0     H 9063   0.338   4.453   9.577 -2.5800 -1.1718 -1.7488
   69MOL0     H 9064   0.144   4.333   9.639 -3.7987 -0.5138 -2.0826
   69MOL0     H 9065   0.111   4.467   9.519  1.5191  1.8065 -0.3588
   69MOL0     H 9066   0.051   4.481   9.831  2.8702  1.7684 -0.5649
   69MOL0     H 9067   0.008   4.597   9.713  3.9165  0.6705 -0.1028
   69MOL0     H 9068  -0.097   4.308   9.677 -2.5618 -0.2440  0.3317
   69MOL0     H 9069  -0.123   4.461   9.587  0.4265  1.7913  0.5022
   69MOL0     H 9070  -0.088   4.343   9.974 -1.4975 -1.2534  2.1655
   69MOL0     H 9071  -0.168   4.157  10.099 -4.0723  0.0643  2.3926
   69MOL0     H 9072  -0.749   3.905  10.059  1.3959  3.1274  3.5001
   69MOL0     H 9073  -0.857   3.704  10.172 -0.1417 -4.7952  1.5272
   69MOL0     H 9074  -0.606   3.452  10.437 -0.5284 -0.4802  0.4112
   69MOL0     H 9075  -0.613   3.360  10.293  1.5352  2.1787 -1.2108
   69MOL0     H 9076  -0.832   3.261  10.395  1.8428 -0.3647 -1.1504
   69MOL0     H 9077  -0.827   3.388  10.518 -1.4906  0.8713 -1.3840
   69MOL0     H 9078  -0.582   3.288  10.574  2.4621 -0.9837 -3.7216
   69MOL0     H 9079  -0.643   3.151  10.475 -0.5069 -0.4796  0.6508
   69MOL0     H 9080  -0.840   3.117  10.648 -0.8091  2.5433  0.5356
   69MOL0     H 9081  -0.682   3.084  10.700  0.2706  1.1774  0.9689
   69MOL0     H 9082  -0.844   3.333  10.762 -0.0431  0.0105 -1.2609
   69MOL0     H 9083  -0.669   3.328  10.799 -0.9366  2.2786  0.2256
   69MOL0     H 9084  -0.691   3.151  10.955 -0.2944 -2.1351 -0.2811
   69MOL0     H 9085  -0.845   3.109  10.896  2.9752 -0.6890 -0.3047
   69MOL0     H 9086  -0.954   3.303  10.991  0.2540 -0.5896 -3.2880
   69MOL0     H 9087  -0.876   3.206  11.120 -2.6369 -0.7152 -1.1095
   69MOL0     H 9088  -0.782   3.457  10.990 -3.1832  2.0283  0.9804
   69MOL0     H 9089  -0.675   3.378  11.107 -0.2948 -2.2177  0.0367
   69MOL0     H 9090  -0.480   3.540  10.267 -3.0009 -2.1963 -1.2123
   69MOL0     H 9091  -0.369   3.722  10.149  0.4976  1.3187  1.4814
   69MOL0     H 9092  -0.499   4.110   9.838  1.8114 -1.6675 -3.2438
   69MOL0     H 9093  -0.442   4.344   9.742 -2.3673 -1.9014  1.1940
   69MOL0     H 9094   1.129   4.784  10.173  0.0311 -0.0752 -0.4269
   69MOL0     H 9095   1.375   4.742  10.249 -0.0889 -0.7084 -1.1551
   69MOL0     H 9096   1.691   4.979  10.581 -0.8809  2.3690 -0.6460
   69MOL0     H 9097   1.927   5.009  10.646  1.3419 -1.1261 -0.7082
   69MOL0     H 9098   2.125   5.062  10.698  2.6720  0.9112  1.3638
   69MOL0     H 9099   2.099   5.218  10.629  0.2946 -0.7384  1.8229
   69MOL0     H 9100   2.348   5.047  10.597 -1.6963 -0.7647 -1.8681
   69MOL0     H 9101   2.341   5.213  10.533  3.0753 -0.1545 -1.1174
   69MOL0     H 9102   2.325   5.132  10.824 -0.9774 -0.4276 -0.9527
   69MOL0     H 9103   2.305   5.305  10.761 -3.6145 -0.6667 -4.8904
   69MOL0     H 9104   2.527   5.318  10.685  0.4483  1.7100  2.8209
   69MOL0     H 9105   2.517   5.257  10.853 -0.5935 -0.4920 -0.3214
   69MOL0     H 9106   2.681   4.930  10.656 -0.9898 -0.7823  2.0586
   69MOL0     H 9107   2.038   5.056  10.239 -0.3429 -0.8811  0.5153
   69MOL0     H 9108   1.813   4.979  10.177  0.8270 -0.6545 -0.3566
   70MOL0     O 9109  10.438   7.054   1.501 -0.0284  0.1521  0.2817
   70MOL0     C 9110  10.526   7.144   1.507  0.4297  0.0890  0.2671
   70MOL0     O 9111  10.508   7.268   1.576  0.3057  0.0784  0.1624
   70MOL0     C 9112  10.385   7.316   1.606 -0.1689 -0.3871 -0.6448
   70MOL0     C 9113  10.374   7.458   1.593  1.3770 -0.1870  0.2882
   70MOL0     C 9114  10.255   7.515   1.632 -0.3435 -0.5732 -1.1568
   70MOL0     C 9115  10.150   7.446   1.687  0.4516  0.6235 -1.0442
   70MOL0     O 9116  10.047   7.515   1.750 -0.2573  0.0626 -0.1705
   70MOL0     C 9117  10.068   7.616   1.850 -0.3693  0.0312 -0.1700
   70MOL0     C 9118  10.108   7.551   1.985 -0.1213  0.0916 -0.6445
   70MOL0     C 9119  10.005   7.464   2.051  1.2476  1.5065 -1.4691
   70MOL0     C 9120  10.030   7.451   2.205  0.9652 -0.5848 -0.8117
   70MOL0     C 9121   9.929   7.365   2.284 -0.2313 -0.4086  0.3101
   70MOL0     C 9122   9.776   7.400   2.261 -0.0291  0.2251  0.2629
   70MOL0     C 9123   9.751   7.542   2.310  0.4243 -0.4199  1.0232
   70MOL0     C 9124   9.612   7.592   2.290  0.7003 -0.9384  0.4207
   70MOL0     N 9125   9.566   7.576   2.149 -0.5895  0.2856  0.9121
   70MOL0     C 9126   9.641   7.614   2.042 -1.1403  0.2138  0.2130
   70MOL0     C 9127   9.558   7.596   1.935  0.7124  0.1612 -0.4428
   70MOL0     C 9128   9.594   7.627   1.798  0.2876 -0.2485  0.6402
   70MOL0     C 9129   9.688   7.518   1.754 -0.0508  0.1529  0.2393
   70MOL0     C 9130   9.622   7.382   1.725  0.4798 -0.6113 -0.0891
   70MOL0     C 9131   9.721   7.278   1.658  0.6521  0.1986  0.2890
   70MOL0     O 9132   9.661   7.149   1.652 -0.1954  0.2092  0.7686
   70MOL0     C 9133   9.561   7.118   1.572  0.4414 -0.1778  0.7787
   70MOL0     C 9134   9.533   7.184   1.444  0.4924  0.0320  0.0237
   70MOL0     C 9135   9.442   7.138   1.350  0.2572  0.6044 -0.4059
   70MOL0     C 9136   9.360   7.028   1.384  0.3415 -0.1810 -0.9770
   70MOL0     C 9137   9.250   6.978   1.293 -0.3032 -0.5700 -0.0800
   70MOL0     O 9138   9.191   7.067   1.200  0.0843 -0.5401 -0.7168
   70MOL0     C 9139   9.084   7.026   1.130  0.5629  0.4083  0.2591
   70MOL0     C 9140   8.985   6.957   1.194  0.6760 -0.4999  0.6339
   70MOL0     C 9141   8.877   6.913   1.118  0.1423 -0.6487 -0.0352
   70MOL0     C 9142   8.874   6.933   0.984 -0.5599 -0.5695 -0.4397
   70MOL0     O 9143   8.785   6.852   0.915 -0.0461  0.4382  0.2436
   70MOL0     C 9144   8.741   6.899   0.778 -0.4357  0.5650  0.2559
   70MOL0     C 9145   8.595   6.929   0.760 -0.5353  0.0473  0.3281
   70MOL0     C 9146   8.558   7.062   0.823 -0.0395 -0.1690 -0.3138
   70MOL0     C 9147   8.556   7.183   0.737  0.0214  0.1464  0.2337
   70MOL0     C 9148   8.487   7.295   0.811 -0.2519 -0.4854 -0.4717
   70MOL0     C 9149   8.490   7.423   0.725  0.1358  0.5585  0.3110
   70MOL0     C 9150   8.396   7.525   0.794 -0.3582  0.2103  0.7656
   70MOL0     C 9151   8.425   7.676   0.760  0.2376  0.0202 -0.0332
   70MOL0    Cl 9152   8.284   7.775   0.804  0.5028  0.2781 -0.6685
   70MOL0     C 9153   8.983   6.987   0.916  0.0776 -0.4226 -0.1922
   70MOL0     C 9154   9.077   7.055   0.990  0.3379  0.2230  0.5096
   70MOL0     O 9155   9.242   6.854   1.275  0.1597 -0.3278  0.0641
   70MOL0     C 9156   9.375   6.954   1.508  0.4858 -0.8046  0.9441
   70MOL0     C 9157   9.472   7.008   1.599 -0.0547  1.2502 -0.5675
   70MOL0     N 9158   9.433   7.555   1.980 -0.3809 -0.7394 -0.6202
   70MOL0     N 9159   9.440   7.545   2.105  0.2179 -0.3392  0.4667
   70MOL0     C 9160  10.151   7.309   1.681 -0.8405 -0.3718 -0.0816
   70MOL0     C 9161  10.265   7.243   1.636  0.1010 -0.2691  0.0746
   70MOL0     C 9162  10.653   7.126   1.425  0.0711 -0.0062  0.4234
   70MOL0     C 9163  10.762   7.215   1.427 -0.9104  0.4253 -1.0861
   70MOL0     C 9164  10.884   7.201   1.352  0.0224 -0.6496 -0.0288
   70MOL0     C 9165  10.896   7.085   1.274 -0.6011  1.0704  0.2728
   70MOL0     O 9166  10.997   7.037   1.189 -0.2808  0.3662  0.0630
   70MOL0     C 9167  11.129   7.089   1.203  0.0117 -0.3090  0.5546
   70MOL0     C 9168  11.188   7.033   1.335  0.2586  0.2454  0.1735
   70MOL0     C 9169  11.152   6.888   1.376 -0.3775 -0.1286 -1.0401
   70MOL0     C 9170  11.170   6.798   1.258  0.0736 -0.2562  0.7374
   70MOL0     C 9171  11.173   6.651   1.286  0.7806  0.9078 -0.3097
   70MOL0     C 9172  11.174   6.525   1.285  0.6800 -0.0087  1.0938
   70MOL0     C 9173  10.793   6.994   1.274  0.0726  0.1431 -0.4676
   70MOL0     C 9174  10.672   7.018   1.342 -0.0105  0.3527 -0.2731
   70MOL0     H 9175  10.456   7.520   1.558  1.8225  1.0530  3.2246
   70MOL0     H 9176  10.241   7.622   1.638  1.2093 -0.3764  3.9026
   70MOL0     H 9177   9.966   7.655   1.858 -1.5181 -2.8718  0.5832
   70MOL0     H 9178  10.133   7.699   1.820  1.6909 -1.9403 -1.4341
   70MOL0     H 9179  10.129   7.636   2.052 -2.3444  2.6337 -2.9129
   70MOL0     H 9180  10.200   7.493   1.970 -0.1915  0.1363 -1.2745
   70MOL0     H 9181  10.012   7.368   1.999 -1.3130  0.4180  0.0035
   70MOL0     H 9182   9.910   7.513   2.027  1.1338  0.5056 -3.3073
   70MOL0     H 9183  10.132   7.412   2.216  1.2247  0.1929 -0.3121
   70MOL0     H 9184  10.025   7.556   2.236  0.2589 -0.8077 -0.1485
   70MOL0     H 9185   9.964   7.370   2.387  0.0721 -3.3083  0.4284
   70MOL0     H 9186   9.947   7.264   2.246 -0.2698 -1.5754  3.1487
   70MOL0     H 9187   9.717   7.322   2.309 -2.9944  0.8625 -2.0053
   70MOL0     H 9188   9.740   7.394   2.157  0.1948  0.4104  0.1739
   70MOL0     H 9189   9.781   7.569   2.412  1.9429  2.3044 -0.0433
   70MOL0     H 9190   9.819   7.612   2.261 -1.0756  2.0132  2.2063
   70MOL0     H 9191   9.604   7.697   2.320 -1.3898 -1.1340  0.6964
   70MOL0     H 9192   9.548   7.524   2.347  0.0838 -0.1608  0.6724
   70MOL0     H 9193   9.746   7.639   2.050 -0.7343 -0.7999 -1.4825
   70MOL0     H 9194   9.647   7.722   1.786  1.8053 -1.3914 -2.7792
   70MOL0     H 9195   9.510   7.627   1.728  0.9476 -1.5486 -0.2001
   70MOL0     H 9196   9.767   7.512   1.830 -1.0822 -2.6691  1.2011
   70MOL0     H 9197   9.738   7.551   1.662 -2.3544 -0.7184 -1.4210
   70MOL0     H 9198   9.586   7.338   1.818  2.4488 -1.1143  0.4913
   70MOL0     H 9199   9.535   7.391   1.660 -1.1856  2.1178  2.3025
   70MOL0     H 9200   9.821   7.276   1.702  0.5783 -0.6643  0.4436
   70MOL0     H 9201   9.736   7.318   1.558  2.0355  3.1801  1.5659
   70MOL0     H 9202   9.596   7.264   1.406  0.3349 -0.0024 -0.3135
   70MOL0     H 9203   9.436   7.176   1.249 -1.0947 -1.2621 -1.0798
   70MOL0     H 9204   8.993   6.952   1.302  1.4681  3.0466  0.8496
   70MOL0     H 9205   8.789   6.864   1.161  0.7370 -1.6160  0.1125
   70MOL0     H 9206   8.753   6.817   0.706 -1.5476 -2.1822  2.9788
   70MOL0     H 9207   8.799   6.984   0.742  0.3616  0.4565  1.2616
   70MOL0     H 9208   8.547   6.840   0.802  2.4144  0.2166  4.6592
   70MOL0     H 9209   8.570   6.922   0.654  1.0949 -2.1971  0.0177
   70MOL0     H 9210   8.624   7.088   0.906 -1.4146  0.1060  0.7294
   70MOL0     H 9211   8.457   7.045   0.861  0.6529 -1.6451  0.9935
   70MOL0     H 9212   8.653   7.222   0.706 -1.7992  3.4266 -1.9840
   70MOL0     H 9213   8.498   7.153   0.649 -0.8087  0.4379  0.6700
   70MOL0     H 9214   8.530   7.307   0.911 -0.3695 -0.5861 -0.4078
   70MOL0     H 9215   8.383   7.265   0.826 -0.5915  0.9805  0.3559
   70MOL0     H 9216   8.468   7.401   0.620 -2.8948 -0.1462  0.9825
   70MOL0     H 9217   8.589   7.467   0.712  0.1627  0.0998 -1.2242
   70MOL0     H 9218   8.297   7.502   0.755  0.4203  1.3962 -2.2067
   70MOL0     H 9219   8.395   7.504   0.901 -1.3716  0.2452  0.7692
   70MOL0     H 9220   8.446   7.689   0.653 -1.0660  1.7954 -0.1126
   70MOL0     H 9221   8.513   7.694   0.822  1.1319 -2.5341 -0.4112
   70MOL0     H 9222   8.993   7.004   0.810 -1.5928  2.2710 -0.0483
   70MOL0     H 9223   9.168   7.097   0.947  0.2248  1.2269  1.2398
   70MOL0     H 9224   9.306   6.873   1.529 -1.8921  1.5321  2.8840
   70MOL0     H 9225   9.497   6.944   1.683 -3.5862 -1.0853 -1.0880
   70MOL0     H 9226  10.076   7.240   1.718 -0.1554 -1.3263 -0.4499
   70MOL0     H 9227  10.257   7.136   1.626 -1.7975  0.0324 -2.7498
   70MOL0     H 9228  10.749   7.302   1.489  0.8605 -2.2455  3.5459
   70MOL0     H 9229  10.966   7.272   1.353 -0.8408  0.3754  0.2874
   70MOL0     H 9230  11.120   7.197   1.216  2.9372 -0.2536  3.5551
   70MOL0     H 9231  11.197   7.079   1.118  2.2995 -0.0578  2.2661
   70MOL0     H 9232  11.297   7.044   1.344  0.5652 -2.2671  0.1605
   70MOL0     H 9233  11.142   7.084   1.421 -1.0956 -1.4302  0.4880
   70MOL0     H 9234  11.052   6.898   1.417 -0.2199  2.0393 -1.0888
   70MOL0     H 9235  11.205   6.851   1.464 -4.0243  2.1612  2.4472
   70MOL0     H 9236  11.105   6.813   1.171  1.5164 -1.0107 -0.5135
   70MOL0     H 9237  11.272   6.816   1.221 -0.8137  2.3618 -0.7427
   70MOL0     H 9238  11.167   6.418   1.279 -0.0953  0.1139 -0.9576
   70MOL0     H 9239  10.798   6.905   1.214  0.0803  1.0571 -1.8672
   70MOL0     H 9240  10.583   6.958   1.325 -0.8714  0.5015  3.0881
   71MOL0     O 9241   0.646   6.483   9.291 -0.1948 -0.0422 -0.4556
   71MOL0     C 9242   0.712   6.538   9.213  0.2094  1.2654 -0.7602
   71MOL0     O 9243   0.662   6.608   9.107  0.3140 -0.2725  0.3040
   71MOL0     C 9244   0.525   6.628   9.088  0.2799 -1.0038  0.3770
   71MOL0     C 9245   0.442   6.518   9.065  0.1202  0.8413 -0.7771
   71MOL0     C 9246   0.308   6.547   9.056 -0.5369  0.4154  0.3650
   71MOL0     C 9247   0.256   6.675   9.041 -0.1268 -0.2061  0.5208
   71MOL0     O 9248   0.126   6.708   9.000 -0.1700 -0.3384  0.2826
   71MOL0     C 9249   0.031   6.610   8.979 -0.0647  0.5269  0.7327
   71MOL0     C 9250  -0.107   6.665   8.976  0.6032  0.6945  0.1493
   71MOL0     C 9251  -0.150   6.695   9.124 -0.2725 -0.3118  0.3499
   71MOL0     C 9252  -0.292   6.741   9.144  0.2598 -0.2406  0.3523
   71MOL0     C 9253  -0.339   6.712   9.283 -1.0770 -0.5603 -0.2533
   71MOL0     C 9254  -0.486   6.753   9.301 -0.8169  0.3687  0.8708
   71MOL0     C 9255  -0.504   6.909   9.290  0.3926  0.9489  0.1887
   71MOL0     C 9256  -0.477   6.994   9.417 -0.1343 -0.2479 -0.2955
   71MOL0     N 9257  -0.582   6.974   9.517 -0.3206 -0.0933  0.0246
   71MOL0     C 9258  -0.651   7.067   9.596 -1.1179 -0.8415 -0.1168
   71MOL0     C 9259  -0.730   6.994   9.675 -0.4631  0.1107 -0.7423
   71MOL0     C 9260  -0.811   7.064   9.789 -0.4840  0.1325 -0.5986
   71MOL0     C 9261  -0.861   6.969   9.899 -0.2710 -0.7943  0.1137
   71MOL0     C 9262  -0.950   7.044   9.997  1.1829 -0.6115  0.1639
   71MOL0     C 9263  -1.016   6.943  10.090 -1.1297  1.2202 -0.0977
   71MOL0     O 9264  -1.142   6.989  10.129  0.7018  0.1105 -0.1944
   71MOL0     C 9265  -1.187   6.925  10.240 -0.2431  0.1053  0.7683
   71MOL0     C 9266  -1.286   6.824  10.223 -0.1665 -0.2822  0.1227
   71MOL0     C 9267  -1.341   6.748  10.330 -0.3439 -0.0106  0.0934
   71MOL0     C 9268  -1.294   6.782  10.453  0.8466 -0.7076 -1.4392
   71MOL0     C 9269  -1.354   6.711  10.569 -0.0237 -0.3989  0.0100
   71MOL0     O 9270  -1.497   6.706  10.568 -0.4247  0.1383 -0.1825
   71MOL0     C 9271  -1.566   6.637  10.666 -0.7227  0.4590 -0.1403
   71MOL0     C 9272  -1.682   6.691  10.700 -0.6418  0.0129  1.4119
   71MOL0     C 9273  -1.764   6.626  10.794  0.2327 -0.0695  0.6345
   71MOL0     C 9274  -1.725   6.517  10.863 -1.0343  0.6651 -0.0762
   71MOL0     O 9275  -1.794   6.473  10.971  0.0453 -0.5041 -0.1941
   71MOL0     C 9276  -1.771   6.346  11.037 -0.2761 -0.4127 -0.5687
   71MOL0     C 9277  -1.817   6.375  11.186 -0.8591 -0.3385 -0.1705
   71MOL0     C 9278  -1.968   6.386  11.214 -0.2225 -0.7953 -0.1328
   71MOL0     C 9279  -1.985   6.388  11.366  0.0808  0.6376 -0.5025
   71MOL0     C 9280  -2.129   6.436  11.401  0.6558 -0.1467 -0.6943
   71MOL0     C 9281  -2.139   6.464  11.551 -0.1719  0.5469  0.2157
   71MOL0     C 9282  -2.101   6.345  11.643 -0.2106  0.5182  0.5521
   71MOL0     C 9283  -2.138   6.391  11.787  0.3234 -1.0414  0.1634
   71MOL0    Cl 9284  -2.313   6.444  11.794  0.3567 -0.3342 -0.0550
   71MOL0     C 9285  -1.598   6.463  10.821 -0.0918  0.0150 -0.0380
   71MOL0     C 9286  -1.532   6.513  10.717 -0.3912 -0.1507 -0.6566
   71MOL0     O 9287  -1.282   6.681  10.664  0.7872 -0.4968 -0.2302
   71MOL0     C 9288  -1.206   6.887  10.475 -0.2125  0.3885 -0.4349
   71MOL0     C 9289  -1.151   6.956  10.368  0.0141  0.0941 -0.6593
   71MOL0     N 9290  -0.719   6.858   9.641 -0.4500 -0.5346  0.7775
   71MOL0     N 9291  -0.638   6.852   9.538 -0.2940  0.5275 -0.0590
   71MOL0     C 9292   0.346   6.781   9.064 -1.5773 -0.3127  0.6300
   71MOL0     C 9293   0.480   6.765   9.089 -0.3464  0.2752  0.4297
   71MOL0     C 9294   0.861   6.542   9.234  0.4954  0.0299  0.4577
   71MOL0     C 9295   0.916   6.499   9.357 -0.7756 -0.2652 -0.6404
   71MOL0     C 9296   1.051   6.516   9.376  0.2642  0.0231  0.1002
   71MOL0     C 9297   1.139   6.550   9.274 -1.4885  0.5507  1.0363
   71MOL0     O 9298   1.274   6.576   9.296  0.7137  0.1800  0.1309
   71MOL0     C 9299   1.373   6.478   9.266 -0.0961  0.0736 -0.4181
   71MOL0     C 9300   1.501   6.530   9.340  0.5612 -0.0528  0.0868
   71MOL0     C 9301   1.623   6.453   9.296 -0.5222 -0.0849 -0.2052
   71MOL0     C 9302   1.757   6.492   9.380  0.3556  0.3325  0.4333
   71MOL0     C 9303   1.792   6.633   9.374 -0.8351  0.8021 -0.1293
   71MOL0     C 9304   1.825   6.749   9.388  0.5855  0.0090 -1.3619
   71MOL0     C 9305   1.085   6.575   9.149 -0.4654  0.6068  0.1274
   71MOL0     C 9306   0.948   6.573   9.132  0.2374  0.6772 -0.7175
   71MOL0     H 9307   0.490   6.423   9.085 -0.5401  0.7615  0.5522
   71MOL0     H 9308   0.253   6.454   9.044 -1.2320  1.1168 -3.2468
   71MOL0     H 9309   0.030   6.528   9.052 -2.2086 -1.7231 -1.5923
   71MOL0     H 9310   0.058   6.562   8.884 -0.8945  1.2230  0.1326
   71MOL0     H 9311  -0.175   6.599   8.923 -0.4431  1.5221  0.4416
   71MOL0     H 9312  -0.110   6.753   8.911  0.7956  0.2656 -0.4465
   71MOL0     H 9313  -0.081   6.772   9.161 -0.0962  1.1772 -2.7388
   71MOL0     H 9314  -0.134   6.605   9.182 -1.5537  0.2847  1.6984
   71MOL0     H 9315  -0.287   6.848   9.121  1.6316 -0.3673  0.0290
   71MOL0     H 9316  -0.345   6.686   9.065 -0.5180  1.0762 -0.0762
   71MOL0     H 9317  -0.277   6.772   9.350 -1.3176 -2.9314  2.2968
   71MOL0     H 9318  -0.317   6.607   9.305  0.5983 -0.4954 -1.3997
   71MOL0     H 9319  -0.518   6.711   9.397 -3.0960 -2.3232 -0.8854
   71MOL0     H 9320  -0.548   6.702   9.226 -1.3787  0.4944  1.2383
   71MOL0     H 9321  -0.442   6.954   9.212 -1.7352  1.5943 -1.1878
   71MOL0     H 9322  -0.604   6.943   9.263  0.3907  1.0035  0.2618
   71MOL0     H 9323  -0.461   7.100   9.396  1.1993 -0.1072  1.2275
   71MOL0     H 9324  -0.389   6.955   9.470 -0.9311  0.6338  1.7842
   71MOL0     H 9325  -0.624   7.172   9.594 -0.1979 -1.0730 -0.2927
   71MOL0     H 9326  -0.898   7.109   9.739  0.8453  1.7842 -1.5227
   71MOL0     H 9327  -0.737   7.132   9.832  0.6375 -1.3133 -0.1785
   71MOL0     H 9328  -0.774   6.923   9.947 -0.9518 -0.5072  1.6745
   71MOL0     H 9329  -0.917   6.886   9.855  0.1527 -0.2922 -1.4437
   71MOL0     H 9330  -0.889   7.110  10.059  0.3715  1.4625 -1.1511
   71MOL0     H 9331  -1.026   7.097   9.940 -1.7880 -0.2239  4.0314
   71MOL0     H 9332  -0.945   6.924  10.171  0.0243  2.7611 -0.7123
   71MOL0     H 9333  -1.042   6.847  10.045  0.3745 -0.3841  2.2212
   71MOL0     H 9334  -1.313   6.806  10.119  1.0989 -0.2603 -0.2324
   71MOL0     H 9335  -1.403   6.660  10.317  2.3116 -2.8399  4.0560
   71MOL0     H 9336  -1.732   6.781  10.666 -2.8600 -1.6560 -0.0085
   71MOL0     H 9337  -1.859   6.671  10.820 -0.0077  0.2638 -0.7517
   71MOL0     H 9338  -1.666   6.313  11.039 -0.3198 -0.5476  1.1658
   71MOL0     H 9339  -1.837   6.266  11.001 -3.5110  1.9094 -0.2473
   71MOL0     H 9340  -1.773   6.470  11.218 -0.1311  0.0118 -2.0718
   71MOL0     H 9341  -1.780   6.295  11.250 -0.4978  0.9285  1.2512
   71MOL0     H 9342  -2.022   6.298  11.178  1.6849 -0.4041 -4.5473
   71MOL0     H 9343  -2.007   6.471  11.157  0.0465 -1.0828 -0.7591
   71MOL0     H 9344  -1.967   6.284  11.394  1.4238  0.6825 -1.1553
   71MOL0     H 9345  -1.917   6.456  11.419 -2.2348  2.4595  0.3283
   71MOL0     H 9346  -2.203   6.360  11.373 -0.8210 -0.0163  2.4124
   71MOL0     H 9347  -2.161   6.528  11.352  4.1308  3.5777  3.2639
   71MOL0     H 9348  -2.246   6.486  11.558  0.0672  1.8665 -0.0388
   71MOL0     H 9349  -2.075   6.550  11.569 -0.6358  1.2375 -1.2239
   71MOL0     H 9350  -2.169   6.261  11.622 -1.1472  1.5133 -0.5575
   71MOL0     H 9351  -1.996   6.318  11.632 -0.2742  0.0663  1.0074
   71MOL0     H 9352  -2.080   6.477  11.823  1.1252 -1.6896  0.4500
   71MOL0     H 9353  -2.130   6.307  11.856 -1.0439 -0.5215  0.9853
   71MOL0     H 9354  -1.572   6.366  10.863 -1.2990  0.2777  1.4304
   71MOL0     H 9355  -1.445   6.463  10.676 -0.0623 -1.1918  1.1873
   71MOL0     H 9356  -1.181   6.909  10.578  2.2068  0.4217 -0.9470
   71MOL0     H 9357  -1.079   7.035  10.390 -0.8102  0.1472  2.3771
   71MOL0     H 9358   0.312   6.883   9.065  1.2418  0.7184  1.1471
   71MOL0     H 9359   0.550   6.847   9.098  3.3177 -1.9850 -3.5666
   71MOL0     H 9360   0.854   6.469   9.441  1.3236 -2.1006  0.3518
   71MOL0     H 9361   1.098   6.507   9.473  1.3469  2.5892 -0.0937
   71MOL0     H 9362   1.404   6.467   9.162 -0.7005  0.4290 -0.6423
   71MOL0     H 9363   1.350   6.378   9.302  1.3401  0.2329  1.0522
   71MOL0     H 9364   1.502   6.639   9.332 -2.6340 -0.0525 -1.5257
   71MOL0     H 9365   1.487   6.528   9.449 -4.9689 -0.0888 -0.3826
   71MOL0     H 9366   1.640   6.468   9.189  0.1984 -1.1512 -0.2552
   71MOL0     H 9367   1.602   6.346   9.303 -0.4588 -0.2953 -2.5115
   71MOL0     H 9368   1.725   6.450   9.476 -0.8705 -0.3523 -0.2550
   71MOL0     H 9369   1.841   6.438   9.335  2.2948  1.6631  2.2746
   71MOL0     H 9370   1.860   6.847   9.415 -0.7350  0.5096 -1.4023
   71MOL0     H 9371   1.150   6.607   9.069  0.6947 -0.8986  0.4111
   71MOL0     H 9372   0.894   6.598   9.041 -2.1963  0.2197  0.4898
   72MOL0     O 9373   5.299   0.103   9.867  0.2448  0.0365 -0.1066
   72MOL0     C 9374   5.232   0.106   9.967 -0.7037  0.5134 -0.1879
   72MOL0     O 9375   5.095   0.099   9.976  0.1324  0.6130 -0.9833
   72MOL0     C 9376   5.012   0.101   9.870 -0.8126  0.0220  0.4724
   72MOL0     C 9377   4.908   0.199   9.867 -0.2533  0.4046 -0.2158
   72MOL0     C 9378   4.815   0.201   9.756 -0.2020 -0.4846 -0.8066
   72MOL0     C 9379   4.804   0.092   9.661 -1.0439 -1.1407 -0.7083
   72MOL0     O 9380   4.713   0.081   9.552 -0.0572 -0.5151 -1.2746
   72MOL0     C 9381   4.640   0.204   9.515  0.4231 -0.5231  0.2365
   72MOL0     C 9382   4.546   0.176   9.393 -0.5306  0.3690  0.1386
   72MOL0     C 9383   4.481   0.301   9.342 -0.3236 -0.8072 -0.9064
   72MOL0     C 9384   4.402   0.295   9.208 -0.1191 -0.1993 -0.0433
   72MOL0     C 9385   4.289   0.199   9.201 -0.2800  0.3163  0.6404
   72MOL0     C 9386   4.238   0.220   9.058 -0.2489  0.7864 -0.5606
   72MOL0     C 9387   4.122   0.128   9.014  0.0299 -0.0370 -1.0484
   72MOL0     C 9388   4.169  -0.022   9.005 -0.1161  0.4957 -0.2084
   72MOL0     N 9389   4.057  -0.108   8.965  0.6093  0.1014  0.0356
   72MOL0     C 9390   4.050  -0.247   8.992  0.1506  0.0972  0.1089
   72MOL0     C 9391   3.925  -0.281   8.954  1.3947  0.2432 -0.0825
   72MOL0     C 9392   3.859  -0.415   8.945 -0.1112  0.5931 -0.6704
   72MOL0     C 9393   3.719  -0.410   9.020  0.3873  0.3627  1.3377
   72MOL0     C 9394   3.614  -0.518   8.982  0.7719 -0.8713  1.0950
   72MOL0     C 9395   3.665  -0.656   9.012  0.2671 -0.3309 -0.4871
   72MOL0     O 9396   3.643  -0.748   8.907 -0.6274  0.2421 -0.2464
   72MOL0     C 9397   3.744  -0.828   8.873 -0.2825  0.2983  0.7555
   72MOL0     C 9398   3.878  -0.796   8.864  0.6595 -0.5229  0.4896
   72MOL0     C 9399   3.972  -0.880   8.812 -0.9227 -0.7484 -0.2252
   72MOL0     C 9400   3.929  -0.995   8.749  0.1111  0.0142 -0.3555
   72MOL0     C 9401   4.030  -1.075   8.675  0.1659  0.2763  0.5205
   72MOL0     O 9402   4.150  -1.004   8.648  0.2117  0.1860  0.0717
   72MOL0     C 9403   4.223  -1.065   8.547 -0.7232 -0.3588 -0.8508
   72MOL0     C 9404   4.331  -1.144   8.586 -0.3784 -0.5879  0.0872
   72MOL0     C 9405   4.407  -1.198   8.493 -0.0338 -0.8652  0.8184
   72MOL0     C 9406   4.383  -1.174   8.356 -0.2129  0.7706  0.0189
   72MOL0     O 9407   4.476  -1.207   8.263 -0.6320 -0.0213 -0.2151
   72MOL0     C 9408   4.521  -1.096   8.171 -1.5674 -0.0637 -0.0257
   72MOL0     C 9409   4.656  -1.152   8.099 -0.3164 -0.5853 -0.5440
   72MOL0     C 9410   4.781  -1.161   8.193  0.2415  0.4660 -0.5069
   72MOL0     C 9411   4.763  -1.257   8.315 -0.1797 -0.6684 -0.2087
   72MOL0     C 9412   4.887  -1.275   8.407 -0.0152 -0.5569  0.0681
   72MOL0     C 9413   4.879  -1.402   8.497 -0.5608 -0.1652  0.5341
   72MOL0     C 9414   4.754  -1.398   8.588 -0.6610 -0.4683  0.3657
   72MOL0     C 9415   4.640  -1.472   8.534 -0.4837  0.5157  0.3386
   72MOL0    Cl 9416   4.689  -1.634   8.515 -0.1655  0.1474 -0.0259
   72MOL0     C 9417   4.268  -1.096   8.321  0.5825 -0.8914  0.2703
   72MOL0     C 9418   4.185  -1.043   8.414  0.1676 -0.0487 -0.6948
   72MOL0     O 9419   4.001  -1.186   8.632  0.7517  0.4835  0.3911
   72MOL0     C 9420   3.794  -1.028   8.747  0.0709  0.1065  0.2123
   72MOL0     C 9421   3.709  -0.939   8.810  0.2437  0.4053  0.0628
   72MOL0     N 9422   3.865  -0.165   8.907  0.3933 -0.6468  0.5469
   72MOL0     N 9423   3.947  -0.071   8.903  0.1063 -0.2202 -0.4972
   72MOL0     C 9424   4.904   0.002   9.669 -1.2956 -0.3079 -0.1281
   72MOL0     C 9425   5.004   0.006   9.763  0.4185  0.0789 -0.4010
   72MOL0     C 9426   5.306   0.121  10.098  0.5237  0.8778  0.2298
   72MOL0     C 9427   5.439   0.091  10.104 -0.3771 -0.0164 -0.6703
   72MOL0     C 9428   5.507   0.125  10.224 -0.5831  0.1624 -0.2854
   72MOL0     C 9429   5.437   0.187  10.329  0.6954  0.0967  0.7843
   72MOL0     O 9430   5.489   0.224  10.453  0.2726 -0.7399  0.9312
   72MOL0     C 9431   5.629   0.210  10.490 -0.0579  0.3908  0.4711
   72MOL0     C 9432   5.734   0.288  10.419 -0.1434 -0.7592  0.4267
   72MOL0     C 9433   5.704   0.430  10.449  0.1874 -0.5906  0.3996
   72MOL0     C 9434   5.817   0.535  10.417 -0.1448 -0.5178 -0.2383
   72MOL0     C 9435   5.940   0.515  10.493  0.0728  0.5957 -0.0675
   72MOL0     C 9436   6.023   0.482  10.577 -0.8161 -0.0878  0.8129
   72MOL0     C 9437   5.300   0.197  10.315 -0.7019 -0.6398 -0.4201
   72MOL0     C 9438   5.227   0.176  10.197 -0.2397 -0.2717 -0.2320
   72MOL0     H 9439   4.898   0.282   9.936 -1.3835  0.0045  0.1321
   72MOL0     H 9440   4.739   0.278   9.761 -2.7272 -2.8962  1.4915
   72MOL0     H 9441   4.709   0.273   9.467 -3.0161  1.5805 -2.1536
   72MOL0     H 9442   4.583   0.243   9.599 -1.7262 -1.0832 -0.8887
   72MOL0     H 9443   4.465   0.105   9.413 -2.7990  2.7019 -0.2677
   72MOL0     H 9444   4.603   0.131   9.311 -4.1145 -2.1213 -1.2605
   72MOL0     H 9445   4.562   0.374   9.334  1.1889 -2.2923  0.0456
   72MOL0     H 9446   4.416   0.350   9.416  0.3921 -0.4474 -0.5082
   72MOL0     H 9447   4.374   0.399   9.192  4.4071  1.1000 -1.0981
   72MOL0     H 9448   4.477   0.268   9.133  0.6721 -3.1656  1.6401
   72MOL0     H 9449   4.208   0.217   9.273 -0.7823 -0.3211  0.2485
   72MOL0     H 9450   4.325   0.096   9.200  2.5874  1.1253 -2.9502
   72MOL0     H 9451   4.321   0.191   8.994  1.5037 -0.6686  2.1987
   72MOL0     H 9452   4.219   0.328   9.050 -0.0966  0.8114 -0.5984
   72MOL0     H 9453   4.058   0.126   9.103  1.3695  3.6546  0.1644
   72MOL0     H 9454   4.073   0.160   8.921  2.2835  2.1984 -1.5945
   72MOL0     H 9455   4.210  -0.063   9.098  1.9085 -0.3418 -1.4283
   72MOL0     H 9456   4.252  -0.032   8.936 -0.6067  2.7971 -1.2317
   72MOL0     H 9457   4.130  -0.315   9.020 -0.1326 -1.0547 -1.6560
   72MOL0     H 9458   3.923  -0.485   8.999  1.4092  2.4137 -0.0189
   72MOL0     H 9459   3.847  -0.450   8.842 -2.1155 -3.5185  0.7174
   72MOL0     H 9460   3.660  -0.320   8.999 -2.8199 -2.1046 -1.3525
   72MOL0     H 9461   3.739  -0.415   9.127 -0.0753  1.4855  1.4908
   72MOL0     H 9462   3.518  -0.497   9.030 -0.0084  1.8197 -1.3854
   72MOL0     H 9463   3.603  -0.515   8.873 -0.6707 -1.2126  1.2113
   72MOL0     H 9464   3.619  -0.676   9.110 -0.6746  5.5143  0.6872
   72MOL0     H 9465   3.772  -0.647   9.035 -0.0442 -2.6371  2.5068
   72MOL0     H 9466   3.909  -0.705   8.913 -4.7772  0.5360  2.7629
   72MOL0     H 9467   4.077  -0.857   8.796 -0.9225 -1.5618 -1.4944
   72MOL0     H 9468   4.367  -1.150   8.688 -0.1411  2.0092  0.2225
   72MOL0     H 9469   4.495  -1.254   8.523 -0.3034 -2.9071 -1.7888
   72MOL0     H 9470   4.538  -1.001   8.224  0.6939 -0.6886  0.5084
   72MOL0     H 9471   4.443  -1.080   8.096 -1.0173  1.3696 -0.3371
   72MOL0     H 9472   4.671  -1.098   8.005  1.3242  2.1442  1.1391
   72MOL0     H 9473   4.636  -1.256   8.072  0.5217 -1.0309  0.4881
   72MOL0     H 9474   4.809  -1.060   8.227 -0.8904  0.4503  0.5439
   72MOL0     H 9475   4.858  -1.211   8.134  1.8224  0.7430  1.2042
   72MOL0     H 9476   4.682  -1.217   8.377  0.3255 -1.7214  1.1898
   72MOL0     H 9477   4.731  -1.353   8.272 -2.7894  1.5623 -3.7642
   72MOL0     H 9478   4.866  -1.185   8.465 -0.2493 -0.0032 -0.8644
   72MOL0     H 9479   4.985  -1.268   8.359 -0.8861 -0.9940 -1.8557
   72MOL0     H 9480   4.972  -1.407   8.554  0.7809  4.3039 -0.8732
   72MOL0     H 9481   4.883  -1.488   8.429  0.5194  1.4296 -1.5302
   72MOL0     H 9482   4.783  -1.441   8.685  1.2255  0.4104  0.2278
   72MOL0     H 9483   4.709  -1.299   8.592  0.4837  0.4047 -4.0404
   72MOL0     H 9484   4.612  -1.436   8.435 -1.4254 -2.9445 -0.7868
   72MOL0     H 9485   4.562  -1.475   8.610  1.2100  0.5351  2.1753
   72MOL0     H 9486   4.246  -1.068   8.219  1.3984 -0.8154  0.1094
   72MOL0     H 9487   4.095  -0.983   8.399  0.6709  0.5691 -1.2431
   72MOL0     H 9488   3.770  -1.118   8.691 -0.7168  1.1242 -1.1615
   72MOL0     H 9489   3.606  -0.968   8.824 -0.4504  1.0972 -2.8604
   72MOL0     H 9490   4.903  -0.069   9.586 -1.7021 -2.4067  1.5671
   72MOL0     H 9491   5.073  -0.077   9.750 -0.7661 -0.9529 -0.2946
   72MOL0     H 9492   5.492   0.055  10.017 -0.1257 -2.3064  0.3452
   72MOL0     H 9493   5.613   0.101  10.227 -0.7879 -0.8858 -0.7612
   72MOL0     H 9494   5.642   0.109  10.451  1.8327  1.6103 -2.4452
   72MOL0     H 9495   5.636   0.221  10.598 -0.4484  2.0253  0.3653
   72MOL0     H 9496   5.835   0.257  10.451  0.7054 -0.1852 -1.5691
   72MOL0     H 9497   5.730   0.269  10.312  3.3913  2.2347 -0.4740
   72MOL0     H 9498   5.693   0.431  10.558  0.3374 -1.7295  0.4319
   72MOL0     H 9499   5.614   0.473  10.405 -0.0078  1.5428  2.6442
   72MOL0     H 9500   5.841   0.534  10.310  3.5468 -1.3847  0.4501
   72MOL0     H 9501   5.787   0.637  10.442 -0.0832 -1.0351  2.1197
   72MOL0     H 9502   6.093   0.444  10.648 -1.9371 -2.4214  0.7701
   72MOL0     H 9503   5.251   0.221  10.409  1.8584 -4.5224  2.2292
   72MOL0     H 9504   5.124   0.208  10.193  0.1478  1.5332  2.2711
   73MOL0     O 9505   8.722  10.788   3.191  0.4044  0.1606 -0.3913
   73MOL0     C 9506   8.643  10.829   3.278  0.5969 -0.6314 -0.6963
   73MOL0     O 9507   8.686  10.886   3.394 -0.0987  0.1602  0.5596
   73MOL0     C 9508   8.816  10.880   3.425  0.2746 -1.2203 -0.4696
   73MOL0     C 9509   8.882  11.006   3.430 -0.3670 -0.1962 -0.6994
   73MOL0     C 9510   9.018  10.996   3.446  0.6431  1.2214  0.8174
   73MOL0     C 9511   9.081  10.876   3.480 -0.7479  0.6073  0.1600
   73MOL0     O 9512   9.217  10.881   3.494  1.4899  0.0158 -0.1498
   73MOL0     C 9513   9.292  10.756   3.477 -0.1090 -0.2834 -0.5593
   73MOL0     C 9514   9.275  10.697   3.332 -0.3979  1.2384  0.2246
   73MOL0     C 9515   9.389  10.600   3.303  0.9880 -0.1560 -0.7015
   73MOL0     C 9516   9.365  10.463   3.359  0.3275  0.7289 -0.6935
   73MOL0     C 9517   9.475  10.366   3.336 -0.2779  0.7055 -0.5366
   73MOL0     C 9518   9.613  10.413   3.387 -0.3350 -0.5294  0.6705
   73MOL0     C 9519   9.741  10.328   3.361 -0.8092  0.1097  0.2459
   73MOL0     C 9520   9.727  10.184   3.416 -0.1735  0.3597 -0.4721
   73MOL0     N 9521   9.670  10.177   3.551 -0.6945 -0.5050  0.1939
   73MOL0     C 9522   9.740  10.155   3.668  0.0369  1.2960  0.3595
   73MOL0     C 9523   9.650  10.161   3.765  1.0244  0.1500  0.1307
   73MOL0     C 9524   9.646  10.130   3.908 -0.5506  0.1492 -0.0870
   73MOL0     C 9525   9.607  10.257   3.996  0.4095  0.6829  0.3484
   73MOL0     C 9526   9.657  10.242   4.146 -0.5136 -0.9666 -0.6660
   73MOL0     C 9527   9.621  10.383   4.202 -0.7007  0.4044  0.8589
   73MOL0     O 9528   9.487  10.425   4.177  0.3983  0.0809  0.8655
   73MOL0     C 9529   9.375  10.393   4.252 -0.2530 -0.5656  0.3316
   73MOL0     C 9530   9.377  10.350   4.381 -0.6690 -0.7763  0.7255
   73MOL0     C 9531   9.274  10.343   4.471  0.0563  0.0030 -0.0008
   73MOL0     C 9532   9.154  10.388   4.431  0.1910  0.0570 -0.3254
   73MOL0     C 9533   9.044  10.394   4.518 -0.0713 -0.3479 -0.7207
   73MOL0     O 9534   9.066  10.451   4.637 -0.1092  0.2945  0.4903
   73MOL0     C 9535   8.977  10.441   4.738  0.1595 -0.6230  0.7886
   73MOL0     C 9536   8.867  10.349   4.755 -1.0208 -0.2744 -0.1049
   73MOL0     C 9537   8.768  10.370   4.844 -0.7045 -0.4139  0.2109
   73MOL0     C 9538   8.765  10.481   4.930  0.0401  0.0684  1.4044
   73MOL0     O 9539   8.663  10.491   5.009  0.1570 -0.3595 -0.3191
   73MOL0     C 9540   8.653  10.586   5.116  0.3114  0.1460  0.0327
   73MOL0     C 9541   8.718  10.556   5.246 -0.0240 -0.5654 -0.7486
   73MOL0     C 9542   8.702  10.686   5.333 -0.4277 -0.2074 -0.4411
   73MOL0     C 9543   8.749  10.682   5.475 -0.4654 -0.2592  0.3638
   73MOL0     C 9544   8.892  10.634   5.491  0.0890 -0.6454 -0.0117
   73MOL0     C 9545   8.992  10.746   5.457 -0.2600  0.0591 -0.2103
   73MOL0     C 9546   9.112  10.699   5.383  0.8698 -0.3954  0.5284
   73MOL0     C 9547   9.091  10.648   5.241 -0.1307 -0.1378 -0.3295
   73MOL0    Cl 9548   9.076  10.469   5.234  0.2118 -0.1776  0.2496
   73MOL0     C 9549   8.874  10.573   4.912  0.6107 -0.4309  0.0102
   73MOL0     C 9550   8.974  10.558   4.815 -1.0465  0.1141 -0.5711
   73MOL0     O 9551   8.937  10.355   4.468  0.1705 -0.7904  0.3486
   73MOL0     C 9552   9.148  10.438   4.303 -0.0796  0.2643  0.3690
   73MOL0     C 9553   9.256  10.437   4.206  1.3376  0.7613 -1.8717
   73MOL0     N 9554   9.527  10.192   3.707  0.2340  1.0592  0.3177
   73MOL0     N 9555   9.542  10.193   3.583 -0.3516 -0.6553  0.1096
   73MOL0     C 9556   9.007  10.763   3.486 -0.4153  0.3484 -0.1842
   73MOL0     C 9557   8.870  10.758   3.462  0.1491 -0.1857  0.7935
   73MOL0     C 9558   8.505  10.806   3.256 -0.4113 -0.5214  0.0162
   73MOL0     C 9559   8.453  10.735   3.149 -0.0411 -0.7681  0.1520
   73MOL0     C 9560   8.308  10.728   3.135 -0.3744 -0.7049  0.6140
   73MOL0     C 9561   8.217  10.791   3.221  1.3708 -0.1486 -0.3220
   73MOL0     O 9562   8.075  10.784   3.219  0.1905  0.8179 -0.2941
   73MOL0     C 9563   8.013  10.887   3.145  0.0343  0.1712  0.8777
   73MOL0     C 9564   7.869  10.903   3.196  0.3075  0.2522  0.4175
   73MOL0     C 9565   7.773  10.966   3.103 -0.1109 -0.3247 -0.8569
   73MOL0     C 9566   7.643  11.000   3.177 -0.1667 -1.0447  0.0259
   73MOL0     C 9567   7.543  11.088   3.110  0.4519  0.4461  0.7178
   73MOL0     C 9568   7.468  11.176   3.063  0.6226  0.1848  0.4666
   73MOL0     C 9569   8.268  10.860   3.322  0.2848 -0.7396 -0.3341
   73MOL0     C 9570   8.410  10.870   3.347 -0.2680  0.0861 -0.2012
   73MOL0     H 9571   8.828  11.098   3.414  1.8401  1.7108  1.8921
   73MOL0     H 9572   9.074  11.089   3.437  3.4773  0.0639  4.2382
   73MOL0     H 9573   9.262  10.675   3.544 -2.7397  1.5999  0.7784
   73MOL0     H 9574   9.399  10.778   3.482 -0.2272  0.7067 -1.8728
   73MOL0     H 9575   9.295  10.777   3.260  0.7863  0.1264 -0.7146
   73MOL0     H 9576   9.176  10.659   3.307 -0.3805  1.8520 -0.8449
   73MOL0     H 9577   9.483  10.641   3.342  0.3749 -0.8922  1.7746
   73MOL0     H 9578   9.402  10.584   3.196 -1.0433  0.5110 -1.1049
   73MOL0     H 9579   9.349  10.464   3.467 -2.7252 -1.6166 -0.9864
   73MOL0     H 9580   9.275  10.416   3.317  0.4413 -0.4666  0.3350
   73MOL0     H 9581   9.466  10.351   3.228  0.4733  1.7574 -0.7604
   73MOL0     H 9582   9.443  10.267   3.371 -2.0076  1.5896  0.5165
   73MOL0     H 9583   9.602  10.434   3.494 -0.6481 -0.0553  0.5439
   73MOL0     H 9584   9.623  10.515   3.349  0.7613 -1.4429 -1.6860
   73MOL0     H 9585   9.764  10.325   3.254 -3.2375 -1.1540 -0.3113
   73MOL0     H 9586   9.827  10.383   3.401 -2.6823  2.0597  1.8054
   73MOL0     H 9587   9.826  10.137   3.418 -0.1800  0.3141 -1.2285
   73MOL0     H 9588   9.659  10.125   3.355 -0.0468  0.2479 -0.5067
   73MOL0     H 9589   9.841  10.120   3.685 -0.9962 -2.4159 -0.2977
   73MOL0     H 9590   9.753  10.122   3.931 -0.7268  1.5575  1.4293
   73MOL0     H 9591   9.593  10.042   3.945  1.2481 -0.0572  2.2545
   73MOL0     H 9592   9.498  10.266   3.996 -0.0804 -3.2846 -1.4928
   73MOL0     H 9593   9.654  10.347   3.955 -1.1935  1.0577 -0.7388
   73MOL0     H 9594   9.589  10.172   4.195 -4.0388  1.6685 -1.4077
   73MOL0     H 9595   9.764  10.226   4.163 -0.3123  0.8921  0.0550
   73MOL0     H 9596   9.694  10.451   4.157 -1.0882  0.9373  1.0218
   73MOL0     H 9597   9.646  10.378   4.308 -2.2007  2.1102  1.3485
   73MOL0     H 9598   9.470  10.327   4.432  0.4473  1.4171 -0.1836
   73MOL0     H 9599   9.286  10.289   4.565  1.6451 -1.4835 -1.0108
   73MOL0     H 9600   8.861  10.251   4.710  0.7436 -1.0163  1.1415
   73MOL0     H 9601   8.701  10.285   4.853  1.9327 -2.4231  2.2599
   73MOL0     H 9602   8.544  10.589   5.129  0.3394  0.1539  0.2818
   73MOL0     H 9603   8.691  10.685   5.088 -2.1929  1.2358  0.2110
   73MOL0     H 9604   8.821  10.525   5.226  0.2897 -1.3294  1.7876
   73MOL0     H 9605   8.675  10.469   5.296 -2.2827  1.6143  1.3741
   73MOL0     H 9606   8.597  10.717   5.338 -1.0501 -1.9083 -1.5939
   73MOL0     H 9607   8.757  10.764   5.281  0.3344  1.9753  3.2982
   73MOL0     H 9608   8.728  10.771   5.534  0.1277 -0.2250  0.5221
   73MOL0     H 9609   8.689  10.606   5.527 -0.5320 -0.8908 -0.6112
   73MOL0     H 9610   8.909  10.544   5.431 -0.3026 -1.0828  0.5274
   73MOL0     H 9611   8.899  10.612   5.598 -2.1386  0.4871  0.4339
   73MOL0     H 9612   9.021  10.801   5.546  0.6939  1.5066 -1.3644
   73MOL0     H 9613   8.931  10.819   5.401  0.6550  2.7371  2.0694
   73MOL0     H 9614   9.178  10.787   5.384 -0.8842  0.9724  0.9908
   73MOL0     H 9615   9.150  10.615   5.441 -0.1929 -1.4179 -0.2141
   73MOL0     H 9616   9.179  10.686   5.189 -0.6642  1.7922  0.0813
   73MOL0     H 9617   8.998  10.692   5.205 -0.7016  0.2272  1.4555
   73MOL0     H 9618   8.873  10.657   4.980 -1.5588 -1.3422  1.2328
   73MOL0     H 9619   9.039  10.644   4.803 -0.7623  0.3846  2.3378
   73MOL0     H 9620   9.050  10.471   4.270  0.9002  1.3511 -1.6607
   73MOL0     H 9621   9.252  10.491   4.112 -1.4946  0.7142 -1.8796
   73MOL0     H 9622   9.052  10.667   3.508  2.9719  1.7771 -0.3177
   73MOL0     H 9623   8.821  10.662   3.467 -2.2282  0.9988  2.3130
   73MOL0     H 9624   8.518  10.705   3.066  0.8839 -0.3988  0.7219
   73MOL0     H 9625   8.253  10.679   3.055 -2.5814 -0.3762  1.8814
   73MOL0     H 9626   8.015  10.863   3.038  2.3863  0.6438  0.7547
   73MOL0     H 9627   8.057  10.987   3.145 -0.3371  0.3603 -0.9684
   73MOL0     H 9628   7.823  10.806   3.218 -0.2959  0.6662  1.0196
   73MOL0     H 9629   7.872  10.964   3.286 -3.0599 -0.8708  1.4502
   73MOL0     H 9630   7.754  10.908   3.012 -1.0432  0.0129 -0.8939
   73MOL0     H 9631   7.817  11.061   3.069 -1.4425  1.1868  1.3699
   73MOL0     H 9632   7.598  10.905   3.206 -1.7617 -0.6398 -0.9911
   73MOL0     H 9633   7.655  11.049   3.274 -1.6588 -0.5756  0.0035
   73MOL0     H 9634   7.400  11.247   3.020  1.8803 -0.2347 -2.3958
   73MOL0     H 9635   8.208  10.928   3.381 -2.0330 -0.1325 -3.1816
   73MOL0     H 9636   8.443  10.937   3.426 -3.7303 -0.7952  2.2081
   74MOL0     O 9637   2.093   6.848   3.765  0.6480 -0.3230  0.3049
   74MOL0     C 9638   1.977   6.797   3.764 -0.8110  0.4367  0.2641
   74MOL0     O 9639   1.938   6.679   3.830  0.1745  0.1111 -0.4888
   74MOL0     C 9640   2.035   6.617   3.901 -0.5394 -0.0183 -0.2069
   74MOL0     C 9641   2.027   6.649   4.038 -0.2073 -0.1565 -0.1710
   74MOL0     C 9642   2.124   6.593   4.124 -0.6288  0.2056 -0.0031
   74MOL0     C 9643   2.223   6.505   4.074  0.1890 -0.4754 -0.7042
   74MOL0     O 9644   2.293   6.450   4.180  0.5005 -0.8418 -0.0478
   74MOL0     C 9645   2.388   6.334   4.172 -0.2624 -0.8862  0.0916
   74MOL0     C 9646   2.504   6.371   4.089 -0.0399 -0.2145  0.9233
   74MOL0     C 9647   2.590   6.244   4.057 -0.5166 -0.2125  0.0810
   74MOL0     C 9648   2.739   6.276   4.068  0.2415 -0.0343  0.3732
   74MOL0     C 9649   2.827   6.158   3.997  0.0253 -0.6950 -0.1633
   74MOL0     C 9650   2.885   6.060   4.102  0.5341 -0.5453 -0.8224
   74MOL0     C 9651   2.975   5.959   4.039  0.4085 -0.5013  0.3673
   74MOL0     C 9652   2.992   5.822   4.111  0.0005 -0.0107  0.5711
   74MOL0     N 9653   3.099   5.734   4.053 -0.4476  0.7650  0.3207
   74MOL0     C 9654   3.091   5.638   3.953 -0.7950 -0.6036 -0.0726
   74MOL0     C 9655   3.221   5.601   3.933 -0.4201 -0.2654  0.3071
   74MOL0     C 9656   3.264   5.488   3.847  0.3388  0.5059  0.2190
   74MOL0     C 9657   3.344   5.384   3.929 -1.1073 -0.2710  0.0681
   74MOL0     C 9658   3.360   5.254   3.842 -0.1158 -0.1920  0.0508
   74MOL0     C 9659   3.441   5.131   3.900  0.7309  0.6875 -0.0249
   74MOL0     O 9660   3.575   5.166   3.890 -0.1951  0.1325 -0.0488
   74MOL0     C 9661   3.656   5.124   3.999  0.4576 -0.0471 -0.0214
   74MOL0     C 9662   3.709   5.220   4.088 -0.7853  0.3013  0.2177
   74MOL0     C 9663   3.791   5.173   4.197  0.6193 -0.1685  0.8455
   74MOL0     C 9664   3.835   5.040   4.198 -0.2448  0.1635 -0.3157
   74MOL0     C 9665   3.920   4.988   4.312  0.8741 -1.0491  0.7008
   74MOL0     O 9666   3.930   4.852   4.321  0.8516 -0.3252 -0.0820
   74MOL0     C 9667   3.981   4.776   4.429  0.4287  0.4605 -0.2582
   74MOL0     C 9668   4.014   4.829   4.556  0.2477  0.4284 -0.4501
   74MOL0     C 9669   4.066   4.741   4.648 -0.7657 -0.3710 -0.7233
   74MOL0     C 9670   4.077   4.600   4.635 -0.7608 -0.3651 -0.2305
   74MOL0     O 9671   4.134   4.519   4.730  0.1188 -0.8446  0.1347
   74MOL0     C 9672   4.266   4.554   4.776 -0.0073 -0.7665 -0.5426
   74MOL0     C 9673   4.359   4.435   4.779  0.1523  0.6481 -0.2206
   74MOL0     C 9674   4.384   4.363   4.641  0.6830  0.1120  0.2115
   74MOL0     C 9675   4.496   4.259   4.646 -0.0015  0.6475  0.8988
   74MOL0     C 9676   4.566   4.256   4.507  0.0230 -0.4160  0.2159
   74MOL0     C 9677   4.671   4.146   4.500  0.3675  0.1465 -0.1380
   74MOL0     C 9678   4.753   4.152   4.370 -0.3684 -0.5300  1.0376
   74MOL0     C 9679   4.885   4.067   4.374 -0.3747 -0.6527 -0.5988
   74MOL0    Cl 9680   4.856   3.889   4.405  0.5684 -0.2539  0.1906
   74MOL0     C 9681   4.033   4.549   4.514  0.7254 -0.8093  0.7961
   74MOL0     C 9682   3.990   4.640   4.410  0.6688 -1.0324  0.0063
   74MOL0     O 9683   3.968   5.066   4.380  0.2660  0.0551  0.2800
   74MOL0     C 9684   3.781   4.946   4.111  0.1126 -0.2661 -1.5671
   74MOL0     C 9685   3.692   4.992   4.005 -0.4883 -0.6463  0.3283
   74MOL0     N 9686   3.299   5.682   4.011 -0.9774 -0.0006 -0.1490
   74MOL0     N 9687   3.227   5.761   4.090  0.6654 -0.3357  1.2594
   74MOL0     C 9688   2.239   6.485   3.938  0.8683 -0.3708  0.9390
   74MOL0     C 9689   2.140   6.536   3.858 -0.1855 -1.2168  0.4396
   74MOL0     C 9690   1.882   6.859   3.674  0.2540 -0.5893  0.2973
   74MOL0     C 9691   1.765   6.792   3.639  0.9412 -0.5249  0.1671
   74MOL0     C 9692   1.669   6.853   3.553  0.7785  1.0519  0.2590
   74MOL0     C 9693   1.682   6.985   3.510 -0.3049 -0.6385 -0.0191
   74MOL0     O 9694   1.579   7.045   3.438  0.5914  0.5796 -0.0679
   74MOL0     C 9695   1.617   7.136   3.341  0.2768 -0.6701  0.3004
   74MOL0     C 9696   1.488   7.180   3.259 -0.7176  0.1700 -0.0271
   74MOL0     C 9697   1.453   7.062   3.165  0.0400 -0.2503  0.1195
   74MOL0     C 9698   1.337   7.091   3.077 -0.2384 -0.3220 -0.1255
   74MOL0     C 9699   1.207   7.085   3.152 -0.7513 -0.8468 -0.2654
   74MOL0     C 9700   1.112   7.101   3.222  0.2493 -0.4421  0.1300
   74MOL0     C 9701   1.792   7.053   3.551  0.4569  0.4515 -0.4586
   74MOL0     C 9702   1.898   6.986   3.614  0.6755  0.7532  0.8053
   74MOL0     H 9703   1.949   6.709   4.083  0.1007 -0.3089  0.5894
   74MOL0     H 9704   2.117   6.619   4.229  0.8359 -0.9987  0.4146
   74MOL0     H 9705   2.335   6.245   4.136 -0.2201 -0.2270 -1.7173
   74MOL0     H 9706   2.429   6.305   4.269  1.6797 -0.4580 -0.5640
   74MOL0     H 9707   2.554   6.446   4.151 -0.7495  0.1624  1.0645
   74MOL0     H 9708   2.483   6.414   3.990  0.5848 -2.4720 -0.2583
   74MOL0     H 9709   2.561   6.204   3.960 -1.9933  1.9476 -0.4388
   74MOL0     H 9710   2.573   6.163   4.128 -0.8471  0.2660  0.5559
   74MOL0     H 9711   2.758   6.372   4.020 -0.7094 -1.0966 -2.3235
   74MOL0     H 9712   2.755   6.286   4.176 -3.3626 -0.1489  1.0208
   74MOL0     H 9713   2.907   6.214   3.948  1.8925 -3.0368  0.0399
   74MOL0     H 9714   2.760   6.107   3.928 -0.5212  1.3166 -1.2042
   74MOL0     H 9715   2.804   6.019   4.162  0.5613  0.7461  0.1524
   74MOL0     H 9716   2.942   6.108   4.182  6.2312 -4.3453 -1.9942
   74MOL0     H 9717   2.940   5.949   3.936 -2.9408  2.0601  1.0925
   74MOL0     H 9718   3.078   5.996   4.038  0.3247 -0.2225  1.0226
   74MOL0     H 9719   2.895   5.771   4.112  0.5616 -1.0987  1.1266
   74MOL0     H 9720   3.029   5.854   4.209  0.8809 -1.1949  0.6382
   74MOL0     H 9721   2.998   5.594   3.918 -3.7984  2.1226  3.5667
   74MOL0     H 9722   3.327   5.529   3.767 -0.3973  0.7984 -0.2268
   74MOL0     H 9723   3.175   5.447   3.798  0.0905  0.4617  0.7071
   74MOL0     H 9724   3.283   5.363   4.018 -1.1547 -0.6237 -0.0456
   74MOL0     H 9725   3.446   5.418   3.949 -0.7099 -1.5874  0.4037
   74MOL0     H 9726   3.255   5.227   3.830 -0.1172  0.3239 -1.2139
   74MOL0     H 9727   3.406   5.272   3.745  0.2493 -0.8172  0.1062
   74MOL0     H 9728   3.442   5.052   3.824 -1.7318 -2.0998  2.6068
   74MOL0     H 9729   3.404   5.087   3.993  1.2606 -5.7075 -2.3465
   74MOL0     H 9730   3.669   5.319   4.067 -0.1517  0.4879 -0.1292
   74MOL0     H 9731   3.820   5.246   4.272 -0.7485  0.5250  0.7277
   74MOL0     H 9732   4.023   4.933   4.586  2.8916  0.1428 -0.0396
   74MOL0     H 9733   4.083   4.786   4.746  2.3247 -0.3599 -1.1755
   74MOL0     H 9734   4.259   4.593   4.878  2.9297  0.3483 -0.6722
   74MOL0     H 9735   4.309   4.631   4.711 -2.8900 -0.7101 -2.5799
   74MOL0     H 9736   4.320   4.351   4.836  2.6797 -1.9251 -1.9921
   74MOL0     H 9737   4.459   4.464   4.814  0.4282 -1.3628  0.7676
   74MOL0     H 9738   4.414   4.442   4.571  2.7364  1.4241  2.4275
   74MOL0     H 9739   4.290   4.327   4.597 -0.5784  2.3442  0.9025
   74MOL0     H 9740   4.573   4.285   4.720  2.2685  0.2080 -1.1705
   74MOL0     H 9741   4.449   4.163   4.667  0.8847 -0.5911 -2.2554
   74MOL0     H 9742   4.613   4.353   4.487  0.6804 -0.7236  0.2475
   74MOL0     H 9743   4.492   4.240   4.428  1.3890 -1.7233 -0.8634
   74MOL0     H 9744   4.626   4.047   4.510  4.4365 -1.8035  0.9836
   74MOL0     H 9745   4.750   4.162   4.574 -2.0314  1.0521  2.4537
   74MOL0     H 9746   4.696   4.108   4.288  0.7082 -2.1211  1.1016
   74MOL0     H 9747   4.793   4.252   4.348  4.7678 -2.2222  1.2700
   74MOL0     H 9748   4.949   4.110   4.452 -1.9422 -0.6304  0.7175
   74MOL0     H 9749   4.938   4.077   4.279  3.4077 -0.3254  1.3178
   74MOL0     H 9750   4.038   4.444   4.488  0.8741 -0.8216  0.8770
   74MOL0     H 9751   3.971   4.594   4.313  3.8998 -0.9018 -0.8314
   74MOL0     H 9752   3.806   4.841   4.102 -1.3623 -0.7631 -0.3759
   74MOL0     H 9753   3.643   4.929   3.932  1.8234  0.7112 -2.6249
   74MOL0     H 9754   2.305   6.407   3.901  3.6815  1.1866  2.3217
   74MOL0     H 9755   2.138   6.528   3.749 -2.3576 -0.0266  0.3435
   74MOL0     H 9756   1.734   6.691   3.663  0.0148 -1.0429 -2.7425
   74MOL0     H 9757   1.584   6.795   3.520  1.1254 -0.2385  1.5268
   74MOL0     H 9758   1.692   7.098   3.270  0.9403  2.5014 -0.8436
   74MOL0     H 9759   1.663   7.218   3.396  0.3366 -3.5223  5.0062
   74MOL0     H 9760   1.404   7.200   3.326 -1.7842 -0.0016 -1.2687
   74MOL0     H 9761   1.505   7.268   3.196  0.0312  0.5109  0.6255
   74MOL0     H 9762   1.439   6.971   3.224  0.1450  0.8309  1.8846
   74MOL0     H 9763   1.539   7.056   3.097  0.4225 -0.2801  0.6050
   74MOL0     H 9764   1.347   7.184   3.022  2.6989  0.1634  1.0265
   74MOL0     H 9765   1.335   7.020   2.994  1.0599  0.6556 -1.0304
   74MOL0     H 9766   1.026   7.095   3.285  0.8283  1.8599  1.2150
   74MOL0     H 9767   1.805   7.156   3.519 -4.8178  1.5185  0.0295
   74MOL0     H 9768   1.976   7.054   3.646  1.6910  0.0123 -0.0223
   75MOL0     O 9769   8.235   9.967   7.421 -0.1771  0.7435  0.3573
   75MOL0     C 9770   8.164   9.922   7.517 -1.2445  0.5036 -0.6702
   75MOL0     O 9771   8.215   9.863   7.631  0.1020  0.3137  0.2567
   75MOL0     C 9772   8.347   9.847   7.651 -0.6443 -0.1077 -0.6128
   75MOL0     C 9773   8.397   9.883   7.779  0.2965  0.4329  0.3291
   75MOL0     C 9774   8.530   9.882   7.808 -0.1354  0.5810  0.0331
   75MOL0     C 9775   8.633   9.838   7.715  0.5649 -0.9892 -0.8836
   75MOL0     O 9776   8.766   9.853   7.739 -0.8455  0.1053  0.4461
   75MOL0     C 9777   8.796   9.933   7.845  0.1229  0.2953  0.3000
   75MOL0     C 9778   8.946   9.947   7.840  0.6058  0.5674 -0.2647
   75MOL0     C 9779   9.021   9.809   7.862 -1.2986 -0.0763 -0.0086
   75MOL0     C 9780   9.158   9.815   7.915 -0.6563 -0.0732  0.8288
   75MOL0     C 9781   9.248   9.862   7.798 -0.5510  0.2088 -0.5449
   75MOL0     C 9782   9.376   9.924   7.848 -0.8146  0.9735 -0.6372
   75MOL0     C 9783   9.480   9.956   7.728 -0.3606 -0.3376 -0.4811
   75MOL0     C 9784   9.592  10.054   7.764  0.8023 -0.4129 -0.5396
   75MOL0     N 9785   9.687  10.067   7.652 -0.9145 -0.2809  0.5954
   75MOL0     C 9786   9.669  10.146   7.541  0.5111  0.3114  0.3630
   75MOL0     C 9787   9.790  10.149   7.487  0.1507  0.3617 -0.0612
   75MOL0     C 9788   9.838  10.220   7.362 -0.7462 -0.1456  0.7405
   75MOL0     C 9789   9.740  10.338   7.298  0.3987  1.0875 -0.3408
   75MOL0     C 9790   9.721  10.452   7.402 -0.1034 -0.0059 -0.0715
   75MOL0     C 9791   9.592  10.536   7.386 -0.4034 -0.1889 -0.2041
   75MOL0     O 9792   9.482  10.447   7.356 -0.2517 -0.0735  0.3798
   75MOL0     C 9793   9.354  10.507   7.351 -0.4321  0.2197  0.5179
   75MOL0     C 9794   9.243  10.429   7.338  0.2957  0.2357 -0.0213
   75MOL0     C 9795   9.120  10.481   7.325 -0.5539 -0.5349 -0.1549
   75MOL0     C 9796   9.104  10.619   7.309 -0.3443 -0.0153 -0.1311
   75MOL0     C 9797   8.974  10.678   7.282  0.9019 -1.3764 -0.0989
   75MOL0     O 9798   8.874  10.586   7.286 -0.3685 -0.6625 -0.1893
   75MOL0     C 9799   8.745  10.619   7.280 -0.2566 -0.8875 -0.4248
   75MOL0     C 9800   8.679  10.717   7.357  1.1892  0.6034 -0.0552
   75MOL0     C 9801   8.531  10.730   7.352 -1.1445  0.8137 -0.0787
   75MOL0     C 9802   8.465  10.657   7.251  0.3043  0.2877  1.3608
   75MOL0     O 9803   8.327  10.663   7.231 -0.4846  0.0111 -0.8140
   75MOL0     C 9804   8.263  10.769   7.304  0.2861  0.0061 -0.7311
   75MOL0     C 9805   8.114  10.785   7.258 -1.4212 -0.8389 -1.2546
   75MOL0     C 9806   8.057  10.644   7.222  0.7597  0.3933 -0.7561
   75MOL0     C 9807   7.918  10.624   7.281  0.0368  0.9224 -0.6324
   75MOL0     C 9808   7.817  10.717   7.215 -0.6816 -0.6129 -0.0741
   75MOL0     C 9809   7.684  10.721   7.297 -0.0041  0.2613  0.1438
   75MOL0     C 9810   7.563  10.780   7.206 -0.7578 -0.8240 -0.9189
   75MOL0     C 9811   7.465  10.863   7.274  0.3882  0.6359 -0.1797
   75MOL0    Cl 9812   7.416  10.788   7.435 -0.1163 -0.3302  0.0520
   75MOL0     C 9813   8.528  10.570   7.172 -0.6035 -0.0907 -0.3007
   75MOL0     C 9814   8.662  10.555   7.187 -0.2200  0.6748 -0.0181
   75MOL0     O 9815   8.958  10.796   7.267 -0.9222  0.5161  0.2657
   75MOL0     C 9816   9.218  10.701   7.330  0.2355  0.3934  0.2761
   75MOL0     C 9817   9.337  10.644   7.359  0.1666 -0.2034 -0.1731
   75MOL0     N 9818   9.881  10.080   7.562 -0.0655 -0.2021 -0.3873
   75MOL0     N 9819   9.816  10.032   7.659  0.3655 -0.0913  0.9114
   75MOL0     C 9820   8.587   9.795   7.592  0.9258 -0.4312 -0.6743
   75MOL0     C 9821   8.445   9.801   7.560  0.6976  0.4205 -0.1467
   75MOL0     C 9822   8.020   9.952   7.518 -0.4682 -0.5418 -0.2735
   75MOL0     C 9823   7.943   9.917   7.633 -0.3101 -0.1999  0.9219
   75MOL0     C 9824   7.810   9.940   7.647  0.3624 -0.7599 -0.0235
   75MOL0     C 9825   7.740   9.988   7.541  0.3872 -0.1251 -0.1696
   75MOL0     O 9826   7.599   9.985   7.558  0.0460  0.0554 -1.0259
   75MOL0     C 9827   7.517  10.037   7.455 -0.9328  1.0449 -0.4668
   75MOL0     C 9828   7.470   9.924   7.358 -0.1388  0.1576  0.1365
   75MOL0     C 9829   7.360   9.833   7.417  1.4881 -0.0932  0.0911
   75MOL0     C 9830   7.286   9.746   7.306  0.5424  0.1986  0.7208
   75MOL0     C 9831   7.255   9.820   7.187  1.1105  0.7113 -0.1226
   75MOL0     C 9832   7.216   9.880   7.090  0.5709  0.2094  0.2308
   75MOL0     C 9833   7.811  10.025   7.427 -0.0219 -0.7543 -0.3031
   75MOL0     C 9834   7.948  10.011   7.413 -0.4975 -0.8013  0.4602
   75MOL0     H 9835   8.331   9.919   7.857 -0.1869  2.6481 -1.0066
   75MOL0     H 9836   8.549   9.918   7.909  2.7243 -2.7188  0.8339
   75MOL0     H 9837   8.765   9.885   7.938 -0.9668 -0.1126 -0.2606
   75MOL0     H 9838   8.750  10.032   7.841 -2.8801 -0.8321  2.6509
   75MOL0     H 9839   8.978  10.027   7.909  3.1074  0.6693 -1.4458
   75MOL0     H 9840   8.972   9.986   7.741 -0.2360 -2.8340 -1.9699
   75MOL0     H 9841   9.017   9.745   7.774  1.0660 -0.0496 -0.1961
   75MOL0     H 9842   8.975   9.760   7.948 -1.4914 -0.1559 -0.1571
   75MOL0     H 9843   9.176   9.877   8.003  1.6400 -1.9238  1.7952
   75MOL0     H 9844   9.204   9.720   7.946  0.6080  0.0298 -0.5850
   75MOL0     H 9845   9.204   9.941   7.735  1.0360  0.2760 -1.6178
   75MOL0     H 9846   9.287   9.780   7.738  2.6052 -0.2982  1.8984
   75MOL0     H 9847   9.416   9.864   7.930  0.3992 -0.6950 -2.3376
   75MOL0     H 9848   9.350  10.022   7.888  0.3073  0.9730  0.1384
   75MOL0     H 9849   9.532   9.867   7.692  0.9403  0.1384  0.1612
   75MOL0     H 9850   9.404   9.995   7.659 -3.1496 -4.0339  0.1493
   75MOL0     H 9851   9.649  10.019   7.850 -1.9687  1.0715  2.0879
   75MOL0     H 9852   9.551  10.150   7.798  2.4560 -0.4798  1.8360
   75MOL0     H 9853   9.576  10.188   7.504 -0.7751 -1.9301  0.8697
   75MOL0     H 9854   9.844  10.146   7.281  2.1968 -0.6830  1.3194
   75MOL0     H 9855   9.933  10.266   7.390 -1.3140  1.1302  0.5960
   75MOL0     H 9856   9.644  10.294   7.272  0.8993  0.5786 -1.3551
   75MOL0     H 9857   9.785  10.376   7.206  2.4877 -2.6702 -1.0433
   75MOL0     H 9858   9.716  10.400   7.498  0.3049 -0.4521 -0.2909
   75MOL0     H 9859   9.802  10.524   7.390  2.0639 -2.1635  0.8483
   75MOL0     H 9860   9.613  10.612   7.310  0.4447 -0.6266 -0.4233
   75MOL0     H 9861   9.570  10.579   7.484  0.2162 -1.8901  0.7155
   75MOL0     H 9862   9.261  10.322   7.344  0.9774  0.3673  0.3696
   75MOL0     H 9863   9.030  10.420   7.318 -0.2647 -1.2722  1.9819
   75MOL0     H 9864   8.740  10.759   7.437  3.4911 -2.0661 -0.2332
   75MOL0     H 9865   8.487  10.794   7.427 -3.9242  2.2946 -2.7622
   75MOL0     H 9866   8.321  10.860   7.285 -2.3071  1.8774 -0.1290
   75MOL0     H 9867   8.258  10.753   7.412 -2.1932 -0.8350 -0.9165
   75MOL0     H 9868   8.115  10.857   7.175  3.6863  3.0927  1.6419
   75MOL0     H 9869   8.059  10.828   7.342  1.4218 -2.7513  1.8223
   75MOL0     H 9870   8.107  10.560   7.271 -2.2014 -1.0656 -0.0325
   75MOL0     H 9871   8.062  10.637   7.113  2.0084  1.5029 -0.8041
   75MOL0     H 9872   7.877  10.527   7.253  2.4755 -0.7738  1.2711
   75MOL0     H 9873   7.922  10.627   7.390  0.1414 -0.1300 -0.5996
   75MOL0     H 9874   7.790  10.686   7.113 -0.5973  1.4660 -0.7866
   75MOL0     H 9875   7.864  10.815   7.204 -1.6300 -0.3880 -3.0181
   75MOL0     H 9876   7.695  10.784   7.386 -1.6785 -0.7030  1.0901
   75MOL0     H 9877   7.663  10.618   7.326 -1.0131  0.0035 -1.4224
   75MOL0     H 9878   7.608  10.828   7.119 -2.7722  1.9583 -0.5479
   75MOL0     H 9879   7.505  10.694   7.170 -0.4509 -1.8011  0.8069
   75MOL0     H 9880   7.377  10.884   7.213  0.9539 -1.0241 -1.6315
   75MOL0     H 9881   7.504  10.963   7.294 -0.2545  0.5145  1.9117
   75MOL0     H 9882   8.477  10.516   7.093 -0.5462  0.0926 -0.4639
   75MOL0     H 9883   8.699  10.477   7.120  0.6498  0.8978  0.1866
   75MOL0     H 9884   9.219  10.808   7.310  2.2211  0.0380 -2.0449
   75MOL0     H 9885   9.417  10.716   7.377 -1.6910  1.7444  0.7042
   75MOL0     H 9886   8.664   9.791   7.515 -0.1371  4.4772 -2.3544
   75MOL0     H 9887   8.418   9.770   7.460  0.0071 -0.6888  0.3593
   75MOL0     H 9888   7.996   9.877   7.719 -0.3326 -0.3447  0.8685
   75MOL0     H 9889   7.763   9.940   7.745  0.4766  2.4353  0.1652
   75MOL0     H 9890   7.559  10.122   7.399 -0.6521  1.1754 -0.0629
   75MOL0     H 9891   7.428  10.074   7.507 -1.1670 -2.1661  1.6922
   75MOL0     H 9892   7.424   9.987   7.281 -0.9846  1.3483  1.5615
   75MOL0     H 9893   7.550   9.862   7.316 -0.3080 -0.7689  1.1288
   75MOL0     H 9894   7.289   9.895   7.472  2.3752 -1.6743  3.2893
   75MOL0     H 9895   7.408   9.779   7.500 -0.5626 -0.7109  0.9477
   75MOL0     H 9896   7.345   9.657   7.283 -0.2443 -0.5307  1.4212
   75MOL0     H 9897   7.192   9.705   7.345  1.0167  0.6194  2.4172
   75MOL0     H 9898   7.158   9.922   7.011 -0.8865 -0.4192  0.9234
   75MOL0     H 9899   7.755  10.055   7.339 -0.7122  0.5702  0.5625
   75MOL0     H 9900   8.000  10.057   7.330 -1.3301  0.4555  0.6204
   76MOL0     O 9901   9.225   6.945   7.953 -0.4763  0.0016  0.1685
   76MOL0     C 9902   9.272   6.857   7.874 -0.8546  0.7765 -0.3943
   76MOL0     O 9903   9.229   6.829   7.752 -0.6023 -0.9548 -0.6495
   76MOL0     C 9904   9.130   6.911   7.694  0.4599 -0.2997  0.6045
   76MOL0     C 9905   9.152   7.050   7.677  0.2997  0.4021  0.3759
   76MOL0     C 9906   9.053   7.129   7.613 -0.0848  0.2872 -0.1556
   76MOL0     C 9907   8.938   7.073   7.557 -0.2824 -0.9899 -0.5590
   76MOL0     O 9908   8.850   7.154   7.496 -0.5118 -0.3849  0.3057
   76MOL0     C 9909   8.777   7.250   7.575  0.2504  0.6098  0.8810
   76MOL0     C 9910   8.661   7.304   7.499  0.3131  0.0721 -0.1738
   76MOL0     C 9911   8.569   7.391   7.583 -0.6426  0.3153 -0.2094
   76MOL0     C 9912   8.465   7.457   7.491  0.0989 -0.5085 -0.6972
   76MOL0     C 9913   8.364   7.536   7.585  0.6314 -0.2473 -0.3941
   76MOL0     C 9914   8.277   7.629   7.505 -0.3367 -0.7099  1.2098
   76MOL0     C 9915   8.209   7.734   7.592  0.7626 -0.3011  0.2740
   76MOL0     C 9916   8.116   7.663   7.687 -0.3521  0.7057  0.1797
   76MOL0     N 9917   8.033   7.761   7.760  0.0405  0.0426  0.1860
   76MOL0     C 9918   8.074   7.841   7.861  0.8760  1.1376 -0.0461
   76MOL0     C 9919   7.957   7.899   7.913 -0.2151  0.1269 -0.0878
   76MOL0     C 9920   7.951   7.994   8.025  0.5394 -0.0129  0.3271
   76MOL0     C 9921   8.019   8.124   7.972  0.2115  0.7283  0.0719
   76MOL0     C 9922   8.012   8.225   8.087 -0.7165  0.2129 -0.6073
   76MOL0     C 9923   7.878   8.291   8.110  0.7459  0.0147 -0.2026
   76MOL0     O 9924   7.901   8.381   8.213  0.4554  0.2449 -0.0925
   76MOL0     C 9925   7.818   8.483   8.243  0.0640 -0.8475 -0.3444
   76MOL0     C 9926   7.866   8.584   8.330 -0.5254  0.1373  0.8223
   76MOL0     C 9927   7.784   8.689   8.375  0.9915 -0.1164 -0.6425
   76MOL0     C 9928   7.648   8.694   8.334 -0.5444  0.6516 -0.4714
   76MOL0     C 9929   7.556   8.795   8.389 -1.1742  0.1114  0.8738
   76MOL0     O 9930   7.601   8.886   8.474 -0.1177  0.1383  0.3135
   76MOL0     C 9931   7.524   8.954   8.563 -0.9250  0.1137 -0.0446
   76MOL0     C 9932   7.391   8.999   8.551  0.1369  0.3363  0.5125
   76MOL0     C 9933   7.325   9.070   8.650 -0.1979 -0.4553  0.0811
   76MOL0     C 9934   7.407   9.111   8.764 -0.4668 -0.1758  0.0162
   76MOL0     O 9935   7.355   9.178   8.873  0.4444 -0.4881 -0.0507
   76MOL0     C 9936   7.216   9.154   8.908 -0.6116 -0.0248 -0.3198
   76MOL0     C 9937   7.139   9.286   8.864  0.3435  0.5795  0.1958
   76MOL0     C 9938   7.176   9.347   8.732 -0.2781  0.0218 -0.1534
   76MOL0     C 9939   7.102   9.483   8.709  0.1120 -0.5256  0.1857
   76MOL0     C 9940   6.952   9.461   8.688  0.2574 -0.0791  0.6147
   76MOL0     C 9941   6.877   9.598   8.674 -0.3712 -0.1762  0.5235
   76MOL0     C 9942   6.747   9.568   8.615  0.9091  0.1536 -0.2975
   76MOL0     C 9943   6.665   9.693   8.608  0.3100  0.0290 -0.4574
   76MOL0    Cl 9944   6.516   9.661   8.527  0.1250  0.3574  0.1355
   76MOL0     C 9945   7.539   9.074   8.773  0.1719 -0.8383 -0.0819
   76MOL0     C 9946   7.605   9.004   8.674 -0.1771 -0.6070  1.0641
   76MOL0     O 9947   7.436   8.771   8.363  0.2015  0.7069 -0.1918
   76MOL0     C 9948   7.608   8.588   8.245 -0.6701 -0.1168 -0.6040
   76MOL0     C 9949   7.689   8.490   8.205  0.4927  0.3551  0.0380
   76MOL0     N 9950   7.852   7.848   7.832 -0.4788 -0.3011  1.3573
   76MOL0     N 9951   7.892   7.764   7.750 -0.5143 -0.3705  0.4928
   76MOL0     C 9952   8.916   6.938   7.577  0.3572  0.4352 -0.8396
   76MOL0     C 9953   9.010   6.855   7.641  0.5330  0.7985  0.3633
   76MOL0     C 9954   9.384   6.776   7.922 -0.2411 -0.3322 -0.1937
   76MOL0     C 9955   9.451   6.696   7.829  0.6524  0.8233  1.4147
   76MOL0     C 9956   9.558   6.616   7.873 -0.1620  0.0551 -0.1934
   76MOL0     C 9957   9.622   6.637   8.003 -1.3567  0.4411 -0.1889
   76MOL0     O 9958   9.740   6.575   8.047  0.0049  0.3087  0.1659
   76MOL0     C 9959   9.827   6.512   7.957 -0.7572  0.3638 -0.1822
   76MOL0     C 9960   9.898   6.607   7.856  0.4960  0.2838 -0.5409
   76MOL0     C 9961   9.986   6.520   7.764  0.4792 -0.2998 -0.4097
   76MOL0     C 9962  10.105   6.594   7.699  0.0382  0.7022  0.9545
   76MOL0     C 9963  10.066   6.629   7.560  0.2251 -0.5122  0.0950
   76MOL0     C 9964  10.028   6.684   7.457 -0.4217  0.0840  0.7355
   76MOL0     C 9965   9.552   6.714   8.092 -0.6682 -1.2123  0.7614
   76MOL0     C 9966   9.425   6.781   8.057 -0.6180 -0.6560  0.1878
   76MOL0     H 9967   9.245   7.098   7.707  3.0085 -2.6837 -2.2877
   76MOL0     H 9968   9.068   7.233   7.585 -1.3846  1.0879  1.8847
   76MOL0     H 9969   8.847   7.333   7.587  2.1609 -0.5428 -1.3853
   76MOL0     H 9970   8.757   7.203   7.671 -2.4796 -2.5279 -1.0090
   76MOL0     H 9971   8.598   7.222   7.465  0.1855  0.6372 -1.3533
   76MOL0     H 9972   8.700   7.358   7.412 -1.5261  0.4972 -0.7829
   76MOL0     H 9973   8.626   7.470   7.634 -0.4765 -0.9089  1.5784
   76MOL0     H 9974   8.521   7.329   7.659  0.0034 -2.7688 -2.1416
   76MOL0     H 9975   8.506   7.531   7.422 -0.8513  0.3799 -0.3461
   76MOL0     H 9976   8.420   7.371   7.440  3.5426 -3.4603  0.8203
   76MOL0     H 9977   8.425   7.601   7.649  0.3278 -1.1581  0.8653
   76MOL0     H 9978   8.312   7.469   7.654  2.8129 -3.3214 -1.5052
   76MOL0     H 9979   8.203   7.573   7.447  1.4754 -1.7365 -0.2094
   76MOL0     H 9980   8.350   7.677   7.439  0.4044 -1.8569  1.1548
   76MOL0     H 9981   8.279   7.801   7.643  0.8202  1.1000 -1.5304
   76MOL0     H 9982   8.142   7.798   7.534 -2.1011 -2.9409  0.3869
   76MOL0     H 9983   8.172   7.617   7.769 -0.7861 -0.5623 -0.2099
   76MOL0     H 9984   8.051   7.588   7.640  2.2291 -1.3949 -0.3264
   76MOL0     H 9985   8.169   7.866   7.907  0.4649 -0.8940  2.1231
   76MOL0     H 9986   8.009   7.960   8.111  1.6574 -1.7565 -1.0458
   76MOL0     H 9987   7.844   8.011   8.042  0.7291  1.8552 -0.1493
   76MOL0     H 9988   7.957   8.172   7.896 -0.0908  0.5210  0.1850
   76MOL0     H 9989   8.118   8.098   7.934  0.2022 -0.4783  0.8356
   76MOL0     H 9990   8.041   8.182   8.183 -0.1941  3.2565  0.7034
   76MOL0     H 9991   8.087   8.303   8.068  0.9907 -0.6082  2.1280
   76MOL0     H 9992   7.816   8.206   8.138  1.7175 -0.7608 -0.3438
   76MOL0     H 9993   7.839   8.342   8.021 -1.5836 -0.9749  0.1865
   76MOL0     H 9994   7.966   8.572   8.369 -1.0797  1.8553  3.0160
   76MOL0     H 9995   7.803   8.746   8.466 -0.1870 -2.8028  1.4125
   76MOL0     H 9996   7.325   8.960   8.474  0.3095  2.3719 -0.7465
   76MOL0     H 9997   7.217   9.084   8.649  0.0483  2.1063  0.8719
   76MOL0     H 9998   7.208   9.146   9.017  0.8673  1.2319 -0.0872
   76MOL0     H 9999   7.174   9.064   8.863  0.2016 -2.1939  2.9211
   76MOL0     H10000   7.152   9.361   8.942  3.0905  0.0935  0.3139
   76MOL0     H10001   7.033   9.258   8.861  0.8285 -2.1381  3.1070
   76MOL0     H10002   7.138   9.279   8.655 -0.9988  2.4176 -2.0477
   76MOL0     H10003   7.284   9.363   8.729  0.1142 -1.7235  1.9832
   76MOL0     H10004   7.113   9.541   8.802  0.5237 -0.9742  0.4200
   76MOL0     H10005   7.152   9.537   8.628  1.4003  1.3494  2.1100
   76MOL0     H10006   6.904   9.393   8.759 -3.3520 -0.5449 -1.9686
   76MOL0     H10007   6.934   9.398   8.599 -0.6465 -0.7575  1.2650
   76MOL0     H10008   6.937   9.659   8.606  0.0343  0.5680  1.5217
   76MOL0     H10009   6.865   9.636   8.776  1.5694 -1.4533  1.2892
   76MOL0     H10010   6.772   9.536   8.514  4.2420  0.2489  0.3791
   76MOL0     H10011   6.691   9.489   8.666  0.9579 -0.9984 -1.9554
   76MOL0     H10012   6.722   9.764   8.547 -2.3504  0.5915 -2.4521
   76MOL0     H10013   6.649   9.752   8.699  0.9335 -3.0883  1.8743
   76MOL0     H10014   7.595   9.111   8.858 -0.5313 -0.2779  0.1413
   76MOL0     H10015   7.709   8.979   8.695 -0.4098 -0.7494  2.1323
   76MOL0     H10016   7.501   8.583   8.226 -1.0281 -0.6635  1.3846
   76MOL0     H10017   7.653   8.416   8.134  0.2945  1.8376 -1.4621
   76MOL0     H10018   8.827   6.889   7.539 -0.2201  0.0854  0.8723
   76MOL0     H10019   8.972   6.753   7.650 -1.2203  1.2388 -1.2687
   76MOL0     H10020   9.412   6.682   7.729 -2.0498 -0.0524  2.5139
   76MOL0     H10021   9.607   6.546   7.806  2.9353  2.3099 -0.5178
   76MOL0     H10022   9.785   6.426   7.905  1.5540 -1.6605  1.1303
   76MOL0     H10023   9.898   6.462   8.023 -2.5561 -1.4021  0.4956
   76MOL0     H10024   9.827   6.668   7.799 -0.1395  0.3273  0.2783
   76MOL0     H10025   9.949   6.681   7.919 -0.8722  1.2820 -0.5584
   76MOL0     H10026   9.921   6.463   7.698  3.3643 -2.3614 -1.6959
   76MOL0     H10027  10.035   6.452   7.835  0.6165  1.5755  1.3867
   76MOL0     H10028  10.122   6.690   7.749 -0.8714  1.5562 -0.2895
   76MOL0     H10029  10.193   6.529   7.697  0.1182  0.6683 -2.7643
   76MOL0     H10030  10.003   6.750   7.376  0.9151 -0.6283 -0.3046
   76MOL0     H10031   9.582   6.728   8.195 -1.1220  2.7048  0.5052
   76MOL0     H10032   9.370   6.848   8.122  3.5413  0.2884  3.1349
   77MOL0     O10033   0.882   6.542   3.919 -0.6788  0.2378  0.6884
   77MOL0     C10034   0.868   6.545   4.039 -0.5654 -0.0162  0.0056
   77MOL0     O10035   0.756   6.526   4.103  0.9181  0.5937  0.0898
   77MOL0     C10036   0.631   6.506   4.034  0.0235 -0.8928 -0.3789
   77MOL0     C10037   0.592   6.556   3.913  0.0178 -0.4416 -0.6776
   77MOL0     C10038   0.460   6.540   3.864  0.6369  0.3763  0.1426
   77MOL0     C10039   0.373   6.474   3.946  0.5938 -0.2414 -0.2366
   77MOL0     O10040   0.243   6.458   3.909 -0.6226  0.0973  0.6544
   77MOL0     C10041   0.198   6.517   3.781 -0.1240  0.4905  0.3898
   77MOL0     C10042   0.044   6.497   3.768 -1.0029 -0.6249 -0.7091
   77MOL0     C10043  -0.020   6.604   3.855  0.3983  0.0006 -0.2009
   77MOL0     C10044  -0.026   6.732   3.771 -0.3012 -0.6909 -0.7237
   77MOL0     C10045  -0.146   6.815   3.804  0.0067  0.4546 -0.9354
   77MOL0     C10046  -0.151   6.964   3.755 -0.1531 -0.3623  0.1417
   77MOL0     C10047  -0.057   7.069   3.823 -0.2641  0.3314  0.4171
   77MOL0     C10048  -0.104   7.110   3.969  0.4098 -0.3244  0.6967
   77MOL0     N10049  -0.045   7.238   4.021 -0.4724  0.6622 -0.3015
   77MOL0     C10050   0.019   7.262   4.146  0.1767 -0.6765  0.0262
   77MOL0     C10051   0.065   7.390   4.126 -0.3524  0.3340 -0.7549
   77MOL0     C10052   0.138   7.466   4.228  0.2435  0.2253  0.1731
   77MOL0     C10053   0.279   7.508   4.175  0.2556  0.5744  0.3068
   77MOL0     C10054   0.354   7.598   4.272  0.9880  0.4308 -0.0795
   77MOL0     C10055   0.491   7.628   4.222 -0.2671 -0.1216  0.9988
   77MOL0     O10056   0.490   7.705   4.102  0.2713 -0.0188  1.3262
   77MOL0     C10057   0.466   7.836   4.105 -0.0164 -0.7282  0.0216
   77MOL0     C10058   0.407   7.896   3.997  0.0563  0.8153  0.0438
   77MOL0     C10059   0.375   8.034   3.994  0.7501  1.2142 -0.1206
   77MOL0     C10060   0.389   8.106   4.110 -0.0401 -0.3459 -0.1259
   77MOL0     C10061   0.364   8.250   4.107  0.3452  0.1274  0.2696
   77MOL0     O10062   0.413   8.324   4.213 -0.7854 -0.3642  0.3620
   77MOL0     C10063   0.393   8.456   4.225  0.3096 -0.1480 -0.6415
   77MOL0     C10064   0.272   8.512   4.256 -0.4235 -0.3743 -0.7553
   77MOL0     C10065   0.272   8.649   4.277  0.1799 -0.1380  0.7085
   77MOL0     C10066   0.380   8.730   4.249 -0.5203  0.2875  0.3331
   77MOL0     O10067   0.361   8.866   4.263  0.0024 -1.1105 -0.3826
   77MOL0     C10068   0.474   8.960   4.258 -0.2557 -0.0817 -0.2626
   77MOL0     C10069   0.437   9.107   4.290  0.2270 -0.3407 -1.1042
   77MOL0     C10070   0.312   9.151   4.226  0.6499  0.2873 -0.9563
   77MOL0     C10071   0.324   9.180   4.074 -0.4456 -0.2724  0.6503
   77MOL0     C10072   0.171   9.195   4.023  0.1211 -0.6347 -0.5775
   77MOL0     C10073   0.097   9.303   4.097 -0.1650  0.3072 -0.3781
   77MOL0     C10074  -0.041   9.327   4.052  0.2767 -0.6246  0.9346
   77MOL0     C10075  -0.125   9.231   4.118  0.1763  0.5873 -1.3506
   77MOL0    Cl10076  -0.296   9.267   4.076  0.3007  0.1151  0.0532
   77MOL0     C10077   0.510   8.680   4.216  0.6902 -1.0268 -0.2131
   77MOL0     C10078   0.507   8.542   4.194 -0.0865 -0.3769 -0.8389
   77MOL0     O10079   0.307   8.299   4.011 -0.0771  0.2890 -0.2017
   77MOL0     C10080   0.451   8.051   4.224  0.9239 -0.3695 -0.3357
   77MOL0     C10081   0.481   7.913   4.223 -0.0145 -0.6013 -0.5142
   77MOL0     N10082   0.024   7.435   4.007 -0.1377 -0.4857 -0.2875
   77MOL0     N10083  -0.042   7.352   3.943 -1.2800  0.3928  1.0060
   77MOL0     C10084   0.406   6.434   4.079 -0.1889 -0.0584 -0.0713
   77MOL0     C10085   0.540   6.458   4.111 -0.0468  0.2945  0.6234
   77MOL0     C10086   0.989   6.546   4.123  0.3453  0.1136 -0.4941
   77MOL0     C10087   0.998   6.497   4.253  0.1033 -0.1281  1.0766
   77MOL0     C10088   1.120   6.509   4.315 -0.5122 -0.0055 -0.4585
   77MOL0     C10089   1.234   6.576   4.273 -0.0938  0.4504  0.6682
   77MOL0     O10090   1.355   6.596   4.327 -0.5779 -0.2220  1.2737
   77MOL0     C10091   1.389   6.543   4.459  0.3521 -0.3713 -0.0053
   77MOL0     C10092   1.426   6.661   4.552  0.1904 -0.4029 -0.5808
   77MOL0     C10093   1.368   6.804   4.519 -0.1128  0.1015  0.0929
   77MOL0     C10094   1.412   6.936   4.582 -0.0676  0.5992 -0.3737
   77MOL0     C10095   1.455   6.905   4.717 -0.9035  0.4505 -0.6568
   77MOL0     C10096   1.509   6.889   4.824 -0.2585  0.9450  0.5298
   77MOL0     C10097   1.227   6.624   4.143  0.1561  0.4630  0.2527
   77MOL0     C10098   1.102   6.604   4.070  0.6241 -0.2420 -0.8323
   77MOL0     H10099   0.667   6.614   3.860 -0.4576  1.0589  0.2569
   77MOL0     H10100   0.446   6.579   3.764 -1.5081 -0.9457 -0.1284
   77MOL0     H10101   0.250   6.477   3.694  2.2567 -1.7158  2.6296
   77MOL0     H10102   0.226   6.622   3.768  0.3536  0.5882  2.0082
   77MOL0     H10103   0.013   6.394   3.790  1.0425 -0.9674  0.8201
   77MOL0     H10104   0.015   6.506   3.663 -1.0300  0.6849 -0.6072
   77MOL0     H10105   0.034   6.629   3.947 -2.9027  0.0622  1.8862
   77MOL0     H10106  -0.119   6.566   3.881  0.1873 -1.1166 -2.4726
   77MOL0     H10107   0.073   6.775   3.790 -0.3286 -1.1731  0.6245
   77MOL0     H10108  -0.033   6.711   3.664  0.6179 -1.6614 -0.6219
   77MOL0     H10109  -0.159   6.820   3.912 -0.2122 -2.4226 -0.7360
   77MOL0     H10110  -0.229   6.759   3.762 -1.8250  1.1330  1.5702
   77MOL0     H10111  -0.248   7.012   3.762  0.5370  1.3078 -1.2298
   77MOL0     H10112  -0.124   6.959   3.649 -2.7157 -0.0633 -0.5737
   77MOL0     H10113   0.044   7.027   3.814 -0.2686  0.8255 -4.8388
   77MOL0     H10114  -0.046   7.158   3.760 -0.1214  1.3406  1.7945
   77MOL0     H10115  -0.082   7.035   4.046  0.5533  0.2551  1.2377
   77MOL0     H10116  -0.213   7.118   3.962  0.4543 -0.7956 -0.6853
   77MOL0     H10117   0.024   7.196   4.232  0.0936 -1.7634 -0.7853
   77MOL0     H10118   0.142   7.405   4.319  0.2408  0.9346  0.6566
   77MOL0     H10119   0.071   7.546   4.263  0.0700  0.4884 -0.7486
   77MOL0     H10120   0.259   7.572   4.088 -0.7063  1.5061  1.1976
   77MOL0     H10121   0.335   7.422   4.136 -2.7041 -1.3994  0.0639
   77MOL0     H10122   0.289   7.684   4.284 -2.2057 -1.7478 -0.5171
   77MOL0     H10123   0.358   7.539   4.365  1.2246 -1.2927 -1.1308
   77MOL0     H10124   0.540   7.533   4.197 -1.5175 -0.2061 -1.4257
   77MOL0     H10125   0.547   7.673   4.304  0.2694 -1.5713  1.4641
   77MOL0     H10126   0.392   7.832   3.911 -1.7301 -0.7294  1.4085
   77MOL0     H10127   0.334   8.071   3.901  0.3502 -1.6443 -1.1660
   77MOL0     H10128   0.187   8.447   4.271  0.5786 -1.4066  0.6983
   77MOL0     H10129   0.181   8.697   4.310 -0.7242 -0.7110 -0.8144
   77MOL0     H10130   0.516   8.942   4.158 -1.4261 -1.4378 -0.5418
   77MOL0     H10131   0.549   8.942   4.336 -1.2413 -2.4280  0.2108
   77MOL0     H10132   0.514   9.182   4.270 -0.0355  0.9309  2.0504
   77MOL0     H10133   0.418   9.121   4.396 -0.2936 -0.1675 -1.2151
   77MOL0     H10134   0.300   9.247   4.276 -0.2574 -0.6717  0.7800
   77MOL0     H10135   0.237   9.077   4.254  1.4961 -0.0822  0.4356
   77MOL0     H10136   0.377   9.273   4.053 -1.4051 -0.1143 -1.2956
   77MOL0     H10137   0.383   9.109   4.015  1.0621  0.4802  1.1881
   77MOL0     H10138   0.114   9.102   4.030  0.8144 -1.1894 -1.9731
   77MOL0     H10139   0.181   9.220   3.917 -1.5432  0.2361 -0.5638
   77MOL0     H10140   0.163   9.391   4.088 -0.2757  0.4664  0.3539
   77MOL0     H10141   0.089   9.270   4.201  1.3500  3.5875  0.9427
   77MOL0     H10142  -0.065   9.431   4.074 -0.0018 -0.0478 -1.7656
   77MOL0     H10143  -0.060   9.312   3.945  0.0413 -0.3885  0.9435
   77MOL0     H10144  -0.118   9.219   4.227 -0.0688  2.5234 -1.0754
   77MOL0     H10145  -0.096   9.130   4.087  4.5669  1.2801 -0.1821
   77MOL0     H10146   0.592   8.750   4.207  0.2853 -0.6560 -1.1684
   77MOL0     H10147   0.601   8.491   4.176 -0.2734 -0.0457 -2.9891
   77MOL0     H10148   0.459   8.097   4.322 -0.1655  1.2570 -0.9723
   77MOL0     H10149   0.534   7.870   4.307  0.4858 -0.2223 -0.6247
   77MOL0     H10150   0.328   6.386   4.137 -1.3996  1.2050 -0.5927
   77MOL0     H10151   0.569   6.428   4.211  0.3505 -2.5491 -0.2534
   77MOL0     H10152   0.919   6.432   4.291  0.5491 -3.1457 -2.5371
   77MOL0     H10153   1.130   6.459   4.411  0.7626 -0.5153 -0.8435
   77MOL0     H10154   1.481   6.485   4.446  0.5963  0.0068  0.0167
   77MOL0     H10155   1.317   6.481   4.514 -0.1887 -0.3738 -0.7101
   77MOL0     H10156   1.389   6.632   4.651 -1.4231  1.1175 -0.6821
   77MOL0     H10157   1.533   6.680   4.555 -0.3207  3.4486 -0.8586
   77MOL0     H10158   1.259   6.791   4.524  0.0590 -2.4604 -1.1673
   77MOL0     H10159   1.377   6.814   4.411 -2.4598 -2.3844 -0.4544
   77MOL0     H10160   1.497   6.971   4.522 -0.1481 -1.2254 -1.6345
   77MOL0     H10161   1.330   7.009   4.580 -0.1785  0.4716 -1.8259
   77MOL0     H10162   1.557   6.874   4.918 -0.0481 -2.1070  0.0396
   77MOL0     H10163   1.311   6.674   4.096 -0.7129  0.1335 -1.7396
   77MOL0     H10164   1.096   6.641   3.968  1.8088  0.6693 -0.6081
   78MOL0     O10165   7.477   3.767   5.852 -0.0275  0.0699  0.6757
   78MOL0     C10166   7.402   3.691   5.907  0.1382  0.1697 -0.5515
   78MOL0     O10167   7.395   3.668   6.043  0.0961  0.3176  0.4488
   78MOL0     C10168   7.486   3.731   6.123  0.6838  0.0796  0.3171
   78MOL0     C10169   7.561   3.651   6.208 -0.4550  0.5450  0.3422
   78MOL0     C10170   7.645   3.704   6.302 -1.1494 -0.5164 -0.1133
   78MOL0     C10171   7.666   3.845   6.318  0.1555 -0.1169 -0.0700
   78MOL0     O10172   7.769   3.900   6.397  0.4004 -0.2294 -0.4416
   78MOL0     C10173   7.778   3.841   6.528 -0.3588 -0.0178 -0.4471
   78MOL0     C10174   7.838   3.942   6.632  0.3585  0.2468 -0.5636
   78MOL0     C10175   7.733   4.042   6.686  0.1330 -0.0725  1.0474
   78MOL0     C10176   7.800   4.131   6.793  0.6712  1.2470 -0.5225
   78MOL0     C10177   7.709   4.242   6.831 -0.4736 -0.4508  0.3734
   78MOL0     C10178   7.756   4.316   6.958  0.5043  0.3424  0.7315
   78MOL0     C10179   7.769   4.231   7.093 -0.0774  1.1564  0.4010
   78MOL0     C10180   7.641   4.176   7.139  0.1894 -0.3918  0.7588
   78MOL0     N10181   7.640   4.086   7.244 -0.9306  1.1589 -0.3140
   78MOL0     C10182   7.696   4.112   7.364 -0.1905 -0.8189 -1.1198
   78MOL0     C10183   7.636   4.032   7.454 -0.1918  0.4127  0.6313
   78MOL0     C10184   7.677   4.032   7.607  0.0811 -0.0517  1.0448
   78MOL0     C10185   7.563   4.112   7.679 -1.1204 -0.2343  0.3241
   78MOL0     C10186   7.584   4.112   7.828 -0.1698  0.1606 -1.5606
   78MOL0     C10187   7.490   4.200   7.914  0.2169  0.2652  0.7667
   78MOL0     O10188   7.357   4.175   7.882  0.1975 -0.5559  0.1770
   78MOL0     C10189   7.258   4.228   7.963  0.7401  0.2275 -0.8199
   78MOL0     C10190   7.259   4.314   8.078 -0.6715 -0.8043 -0.3673
   78MOL0     C10191   7.145   4.350   8.151 -0.1392 -0.1352 -0.5768
   78MOL0     C10192   7.017   4.304   8.120  0.5611  0.0203 -0.6024
   78MOL0     C10193   6.901   4.344   8.204 -0.2626 -0.1563  0.2925
   78MOL0     O10194   6.777   4.318   8.159 -0.6816 -0.1662  1.1257
   78MOL0     C10195   6.672   4.362   8.230  0.5155  0.0579 -0.2848
   78MOL0     C10196   6.593   4.464   8.177 -0.5655  0.0078  0.0297
   78MOL0     C10197   6.475   4.509   8.242  1.3367 -0.1845  0.8917
   78MOL0     C10198   6.430   4.445   8.363 -0.1407  0.5745  0.2726
   78MOL0     O10199   6.318   4.492   8.421  0.6832 -0.0460 -0.4164
   78MOL0     C10200   6.251   4.433   8.531 -0.0589  0.1765 -0.3610
   78MOL0     C10201   6.111   4.495   8.574 -0.7720 -0.0526  0.3008
   78MOL0     C10202   6.107   4.649   8.582 -0.7330 -0.3329 -0.9557
   78MOL0     C10203   5.967   4.705   8.599 -0.0703  0.9272  0.1276
   78MOL0     C10204   5.890   4.689   8.471 -0.9578 -0.1345  0.3233
   78MOL0     C10205   5.754   4.766   8.460 -1.4806  0.7192 -0.1977
   78MOL0     C10206   5.665   4.716   8.342 -0.8818  0.0618  0.4279
   78MOL0     C10207   5.520   4.769   8.334  0.0803  0.4434  0.1741
   78MOL0    Cl10208   5.429   4.723   8.480  0.0450 -0.0185  0.1719
   78MOL0     C10209   6.505   4.339   8.415 -0.0896  0.5837 -0.0158
   78MOL0     C10210   6.627   4.296   8.347 -0.4468 -1.0140 -0.1798
   78MOL0     O10211   6.936   4.388   8.311  0.0088  0.0996 -0.8617
   78MOL0     C10212   7.016   4.223   8.013  0.0170  0.0739 -0.4161
   78MOL0     C10213   7.126   4.187   7.938 -0.3043  0.1030 -0.2636
   78MOL0     N10214   7.534   3.971   7.388  0.1973 -0.1191  0.2044
   78MOL0     N10215   7.534   4.002   7.266 -0.6024  0.5529 -0.7268
   78MOL0     C10216   7.599   3.929   6.225  0.5306  0.4287 -0.3278
   78MOL0     C10217   7.502   3.866   6.139  0.4160 -0.2631  0.2467
   78MOL0     C10218   7.293   3.644   5.822 -0.5142  0.4384 -0.0451
   78MOL0     C10219   7.180   3.585   5.876  0.0487  0.0278  0.1178
   78MOL0     C10220   7.070   3.549   5.797  0.6309  0.2851  0.8105
   78MOL0     C10221   7.068   3.555   5.651  0.0396 -0.4193  0.6684
   78MOL0     O10222   6.982   3.508   5.563 -0.1439  0.3593  0.7738
   78MOL0     C10223   6.874   3.425   5.605  0.5721 -0.0603 -0.1127
   78MOL0     C10224   6.873   3.292   5.528 -0.3625 -0.0197  0.1782
   78MOL0     C10225   7.007   3.214   5.543  0.3617 -0.4113  0.8340
   78MOL0     C10226   7.022   3.090   5.452 -0.7497 -0.2990  0.0922
   78MOL0     C10227   7.022   3.129   5.316 -0.6396  0.1311  0.0441
   78MOL0     C10228   7.047   3.152   5.202 -0.1535 -0.7333  0.3429
   78MOL0     C10229   7.182   3.611   5.597 -0.1917  1.0125 -0.1868
   78MOL0     C10230   7.294   3.654   5.682 -0.5078 -0.2455 -0.4010
   78MOL0     H10231   7.539   3.545   6.209 -0.8878  0.6160 -0.3559
   78MOL0     H10232   7.690   3.633   6.370 -1.2484  0.7374  1.2982
   78MOL0     H10233   7.845   3.755   6.518 -1.7222 -0.8865 -2.9585
   78MOL0     H10234   7.675   3.829   6.563 -0.8494  1.0520 -1.4398
   78MOL0     H10235   7.910   4.006   6.580 -0.6184  1.4768 -0.4432
   78MOL0     H10236   7.882   3.889   6.717  0.5686  1.2264 -0.0413
   78MOL0     H10237   7.646   3.985   6.719  0.2097 -0.5904  0.3814
   78MOL0     H10238   7.705   4.097   6.595  1.9908 -0.3236  0.2849
   78MOL0     H10239   7.821   4.067   6.879 -0.3878 -0.0992 -1.2331
   78MOL0     H10240   7.896   4.164   6.751 -0.0219  1.8542 -1.6963
   78MOL0     H10241   7.610   4.203   6.858 -0.3504 -1.3370 -0.4132
   78MOL0     H10242   7.704   4.311   6.747 -2.1358 -1.9535 -0.8452
   78MOL0     H10243   7.681   4.395   6.971  0.0613  0.2021 -0.7615
   78MOL0     H10244   7.854   4.362   6.943  1.3882 -2.2404 -2.7801
   78MOL0     H10245   7.843   4.151   7.084 -0.4365  0.6056  1.9849
   78MOL0     H10246   7.804   4.289   7.179  0.2880 -2.3078  2.8247
   78MOL0     H10247   7.601   4.123   7.053 -1.2797  1.0371  0.5055
   78MOL0     H10248   7.569   4.258   7.152 -0.3435 -0.6202 -0.6226
   78MOL0     H10249   7.770   4.185   7.397  0.1175 -3.1573  4.4980
   78MOL0     H10250   7.766   4.093   7.624 -1.3149  1.8494  1.8236
   78MOL0     H10251   7.686   3.927   7.637  0.5688 -0.3634 -0.1114
   78MOL0     H10252   7.468   4.077   7.638 -1.4720 -0.3041  1.1763
   78MOL0     H10253   7.583   4.213   7.642  1.4637 -0.6022  0.5166
   78MOL0     H10254   7.561   4.009   7.858  3.3293 -0.1030  0.7734
   78MOL0     H10255   7.686   4.139   7.855 -0.8630 -0.4300  2.2226
   78MOL0     H10256   7.510   4.303   7.883 -1.2241 -0.4068 -2.8703
   78MOL0     H10257   7.519   4.183   8.018  3.7348 -0.8450 -0.2561
   78MOL0     H10258   7.352   4.357   8.112  0.3507 -1.9746 -1.5926
   78MOL0     H10259   7.156   4.420   8.233  3.5552 -0.6780 -0.4417
   78MOL0     H10260   6.631   4.503   8.083 -2.7397 -0.4415 -1.1103
   78MOL0     H10261   6.409   4.586   8.202  0.0652 -0.8317  1.6770
   78MOL0     H10262   6.320   4.454   8.613  0.7068 -2.9820 -0.0720
   78MOL0     H10263   6.248   4.325   8.515 -1.4982 -0.0156  0.8903
   78MOL0     H10264   6.095   4.463   8.677  2.0233 -3.5750 -0.1434
   78MOL0     H10265   6.029   4.465   8.508 -1.8651 -2.3819  2.5365
   78MOL0     H10266   6.150   4.692   8.491 -0.2853 -2.7184 -1.9451
   78MOL0     H10267   6.179   4.687   8.656  1.8475 -1.6369 -2.6660
   78MOL0     H10268   5.917   4.659   8.685 -0.6634 -3.1464 -2.1234
   78MOL0     H10269   5.961   4.813   8.614 -4.5503  1.1668 -1.9060
   78MOL0     H10270   5.866   4.586   8.446 -2.9110  0.5599 -0.9244
   78MOL0     H10271   5.952   4.712   8.384  0.1437 -1.2570  0.7848
   78MOL0     H10272   5.763   4.874   8.474 -0.1637  0.4792  0.9677
   78MOL0     H10273   5.707   4.731   8.553  1.6167  0.2682  1.3169
   78MOL0     H10274   5.707   4.748   8.247 -1.5431  2.2803  0.8056
   78MOL0     H10275   5.654   4.608   8.351  0.0795 -0.2303 -1.4745
   78MOL0     H10276   5.466   4.720   8.252 -1.3206  3.7973 -1.0933
   78MOL0     H10277   5.523   4.877   8.317  0.9319  0.7388  1.9873
   78MOL0     H10278   6.471   4.294   8.507 -1.2235 -1.8104 -1.5090
   78MOL0     H10279   6.670   4.211   8.399  0.4640  0.2993  1.3124
   78MOL0     H10280   6.928   4.167   7.982 -1.1586 -0.3100  3.0576
   78MOL0     H10281   7.109   4.120   7.855  2.4666  0.8117 -1.5313
   78MOL0     H10282   7.624   4.034   6.217 -0.0179  0.5258 -0.9030
   78MOL0     H10283   7.452   3.936   6.073  0.3913  0.0967  0.6398
   78MOL0     H10284   7.172   3.575   5.984  0.7163 -3.0652 -0.0166
   78MOL0     H10285   6.984   3.520   5.856 -1.6328  4.6032  0.0039
   78MOL0     H10286   6.779   3.470   5.573 -0.7371  0.6369  4.0707
   78MOL0     H10287   6.862   3.405   5.712 -0.2700 -2.8453 -0.6535
   78MOL0     H10288   6.777   3.248   5.558  0.1195  1.1002  3.7520
   78MOL0     H10289   6.862   3.321   5.423 -0.3279 -2.5967 -0.6244
   78MOL0     H10290   7.012   3.185   5.649  0.9253  1.2233  1.2959
   78MOL0     H10291   7.083   3.286   5.512 -0.0194  0.5769  2.0734
   78MOL0     H10292   7.113   3.035   5.476 -1.0050 -1.8328 -2.1772
   78MOL0     H10293   6.937   3.021   5.462 -0.8372 -0.5841 -2.2339
   78MOL0     H10294   7.060   3.182   5.100 -2.7618  1.8560  0.6141
   78MOL0     H10295   7.199   3.625   5.491  2.8704  0.0151  0.0884
   78MOL0     H10296   7.383   3.696   5.634 -0.0199  0.2813  0.9283
   79MOL0     O10297   4.057   8.421   8.128 -0.0801  0.7403  0.5871
   79MOL0     C10298   3.943   8.378   8.134  0.3020 -0.3137 -0.2017
   79MOL0     O10299   3.881   8.298   8.037  0.0419  0.0353  0.0293
   79MOL0     C10300   3.944   8.290   7.914  0.4907  0.2293  0.6316
   79MOL0     C10301   4.042   8.196   7.892  0.5621 -0.0861  0.8359
   79MOL0     C10302   4.092   8.178   7.767 -0.4353 -0.2292  0.2515
   79MOL0     C10303   4.058   8.263   7.665  0.3891  0.3771  0.2457
   79MOL0     O10304   4.106   8.246   7.533  0.6106 -0.9374 -0.4353
   79MOL0     C10305   4.103   8.122   7.465 -0.1626 -0.9773  0.2847
   79MOL0     C10306   3.978   8.046   7.465  0.0076  0.3463  0.9460
   79MOL0     C10307   3.847   8.110   7.433 -0.9290 -0.4559 -1.7813
   79MOL0     C10308   3.848   8.180   7.291 -1.5119 -0.1551 -0.2254
   79MOL0     C10309   3.695   8.212   7.263 -0.6293 -0.5665 -0.2387
   79MOL0     C10310   3.686   8.345   7.181 -0.8592 -0.7652 -1.2332
   79MOL0     C10311   3.547   8.372   7.109  0.6556 -1.1062 -0.3847
   79MOL0     C10312   3.426   8.386   7.207 -0.5781 -0.7004  0.3497
   79MOL0     N10313   3.439   8.510   7.290 -0.2955  0.1568  1.0587
   79MOL0     C10314   3.524   8.528   7.387 -0.3574 -0.1729 -0.3196
   79MOL0     C10315   3.523   8.665   7.405 -0.7052  0.0015  0.1442
   79MOL0     C10316   3.593   8.733   7.519 -0.8912  0.2887  0.2869
   79MOL0     C10317   3.747   8.740   7.533  0.4705  0.4426 -0.5409
   79MOL0     C10318   3.769   8.808   7.671 -0.3356 -0.6487 -0.0463
   79MOL0     C10319   3.923   8.811   7.715  0.0623 -0.0634  0.2721
   79MOL0     O10320   3.933   8.749   7.841  0.4207  0.1681  0.8724
   79MOL0     C10321   3.897   8.818   7.949 -0.2356 -0.2060  0.0397
   79MOL0     C10322   3.870   8.952   7.950  0.1381  0.6054  0.2196
   79MOL0     C10323   3.835   9.006   8.072 -0.0064  0.5127  0.1645
   79MOL0     C10324   3.841   8.934   8.191 -0.5758 -0.2326  0.1067
   79MOL0     C10325   3.820   9.000   8.325  0.7178  0.8605  0.6580
   79MOL0     O10326   3.778   8.913   8.427 -0.0787 -0.7310 -0.0704
   79MOL0     C10327   3.759   8.968   8.558 -0.8139 -0.7105  0.6572
   79MOL0     C10328   3.843   8.927   8.657 -0.4933 -0.3022  0.2737
   79MOL0     C10329   3.815   8.964   8.795  0.1465 -0.4075  0.0050
   79MOL0     C10330   3.688   9.025   8.826  0.5937 -0.0536  1.3650
   79MOL0     O10331   3.650   9.064   8.946  0.5808 -0.3442  0.4373
   79MOL0     C10332   3.715   9.000   9.059 -0.5193 -0.1515 -0.1477
   79MOL0     C10333   3.605   8.978   9.162  0.0128  0.2329 -0.6436
   79MOL0     C10334   3.659   8.932   9.293 -0.0065  0.8388  0.2518
   79MOL0     C10335   3.745   9.031   9.370 -0.7470 -0.3604 -0.5775
   79MOL0     C10336   3.692   9.181   9.365  0.0456  0.1503 -0.0756
   79MOL0     C10337   3.760   9.289   9.449  0.4379 -0.3251  1.0057
   79MOL0     C10338   3.708   9.431   9.410  0.6878 -0.6930  0.0932
   79MOL0     C10339   3.554   9.442   9.415  0.5802  0.5318  0.7081
   79MOL0    Cl10340   3.498   9.602   9.448 -0.2148  0.5182  0.3444
   79MOL0     C10341   3.612   9.076   8.714  0.2906  0.0113  0.3955
   79MOL0     C10342   3.645   9.043   8.580 -0.6086 -0.5931  0.1095
   79MOL0     O10343   3.837   9.122   8.343 -0.0999 -0.2053  0.3504
   79MOL0     C10344   3.876   8.807   8.190  0.4928  0.3179 -0.5346
   79MOL0     C10345   3.906   8.746   8.065 -0.6017  0.0168 -0.3405
   79MOL0     N10346   3.421   8.717   7.333 -0.1169  0.0264  0.3792
   79MOL0     N10347   3.377   8.625   7.254  0.7548  0.0394 -0.3777
   79MOL0     C10348   3.973   8.368   7.684  0.6849 -1.0386 -0.2867
   79MOL0     C10349   3.919   8.383   7.812 -0.7078  0.7223  0.1434
   79MOL0     C10350   3.869   8.414   8.251 -0.0625  0.5429 -0.0009
   79MOL0     C10351   3.729   8.414   8.263 -0.1825 -0.4889  0.7991
   79MOL0     C10352   3.655   8.445   8.374  0.2446  0.3621  0.2687
   79MOL0     C10353   3.719   8.489   8.486 -0.8043  0.1727 -0.0247
   79MOL0     O10354   3.650   8.500   8.603  0.4246  0.0989  0.0073
   79MOL0     C10355   3.686   8.604   8.699 -0.0150  0.0505  0.4062
   79MOL0     C10356   3.562   8.669   8.754  0.2945  0.0784  0.7513
   79MOL0     C10357   3.532   8.688   8.901  0.1107 -0.5792 -1.2253
   79MOL0     C10358   3.503   8.552   8.977  0.4719  0.2221  0.3854
   79MOL0     C10359   3.522   8.550   9.125  0.2336 -0.4093 -0.6648
   79MOL0     C10360   3.540   8.559   9.244  0.2448 -0.1299 -0.8088
   79MOL0     C10361   3.862   8.497   8.481  0.1994  0.0994  0.6343
   79MOL0     C10362   3.927   8.455   8.366 -0.1438  0.5975  0.6971
   79MOL0     H10363   4.061   8.126   7.974 -1.5456 -0.0824  1.3815
   79MOL0     H10364   4.146   8.087   7.740 -2.2709 -1.2964  0.0027
   79MOL0     H10365   4.179   8.052   7.501 -2.5642 -4.5892 -1.0937
   79MOL0     H10366   4.132   8.136   7.361  2.0996  1.0673  1.0933
   79MOL0     H10367   3.964   8.010   7.567 -0.8903 -0.4503  0.5635
   79MOL0     H10368   3.985   7.964   7.392 -1.7639  1.5360 -0.6461
   79MOL0     H10369   3.837   8.184   7.512  2.4867  0.7151 -2.2666
   79MOL0     H10370   3.774   8.030   7.447  0.7982 -1.7865  0.1189
   79MOL0     H10371   3.911   8.269   7.294  1.0757 -1.8897  0.3611
   79MOL0     H10372   3.899   8.116   7.218 -3.5534 -0.0401 -1.8288
   79MOL0     H10373   3.644   8.223   7.359  0.2676 -1.4458  0.3536
   79MOL0     H10374   3.647   8.129   7.210 -2.3746  0.3719 -0.2002
   79MOL0     H10375   3.764   8.346   7.103 -1.9123  0.2520 -2.3112
   79MOL0     H10376   3.709   8.432   7.243  0.2156 -1.6404 -0.3543
   79MOL0     H10377   3.563   8.459   7.045  0.7699 -0.9925 -0.2005
   79MOL0     H10378   3.529   8.294   7.035  0.7830 -0.1585 -1.4462
   79MOL0     H10379   3.429   8.294   7.266  2.4879  0.3803  2.0956
   79MOL0     H10380   3.331   8.380   7.152 -1.4652 -0.4472  1.7977
   79MOL0     H10381   3.586   8.455   7.438  1.7562  0.3247 -2.0340
   79MOL0     H10382   3.557   8.681   7.608 -0.5717  0.8496  0.7499
   79MOL0     H10383   3.545   8.831   7.510 -2.1609 -0.4290 -1.2599
   79MOL0     H10384   3.787   8.803   7.453  1.7821  0.9485  0.4789
   79MOL0     H10385   3.791   8.640   7.540  2.9058  1.3993 -1.1860
   79MOL0     H10386   3.723   8.906   7.660  1.4999  0.3812  0.9672
   79MOL0     H10387   3.709   8.759   7.747  0.0557  0.1407  0.7816
   79MOL0     H10388   3.965   8.912   7.707 -1.8633  0.6276 -3.0334
   79MOL0     H10389   3.976   8.748   7.643  0.3714 -0.9300  1.2331
   79MOL0     H10390   3.845   9.010   7.862  0.4926 -1.1041 -1.0568
   79MOL0     H10391   3.798   9.108   8.074  4.8824  2.6048 -0.8913
   79MOL0     H10392   3.928   8.867   8.629  0.0199  0.4474  0.1785
   79MOL0     H10393   3.894   8.960   8.870  1.2144  3.6661 -0.6169
   79MOL0     H10394   3.791   9.071   9.092  0.3878 -1.5974  0.9829
   79MOL0     H10395   3.763   8.903   9.044 -1.2372 -0.5485  0.0431
   79MOL0     H10396   3.536   8.897   9.136 -0.3202 -0.8359  3.0531
   79MOL0     H10397   3.550   9.072   9.175  1.0708  1.3014 -3.1280
   79MOL0     H10398   3.724   8.844   9.290 -0.1788  0.6907  0.7269
   79MOL0     H10399   3.579   8.906   9.363  1.1300 -3.2854  0.3082
   79MOL0     H10400   3.753   9.003   9.475 -0.4298 -0.9616 -0.7608
   79MOL0     H10401   3.849   9.028   9.337 -0.5159 -0.5335  0.1496
   79MOL0     H10402   3.590   9.163   9.400 -0.0947 -3.1872 -1.8126
   79MOL0     H10403   3.691   9.212   9.260  1.3345 -3.9842 -1.5436
   79MOL0     H10404   3.869   9.283   9.445  0.7776  2.6997  3.1260
   79MOL0     H10405   3.734   9.260   9.551 -0.1306 -1.1766  0.6368
   79MOL0     H10406   3.741   9.505   9.482 -1.0180  0.2056  0.0125
   79MOL0     H10407   3.732   9.455   9.306  2.8670  0.1788  0.7603
   79MOL0     H10408   3.515   9.381   9.496 -0.5936  1.8610  1.1741
   79MOL0     H10409   3.503   9.400   9.328  0.6663 -0.4049  1.1070
   79MOL0     H10410   3.530   9.146   8.727 -0.4825 -1.0042  1.2088
   79MOL0     H10411   3.583   9.067   8.494  2.1939  2.7905 -1.1806
   79MOL0     H10412   3.896   8.739   8.272 -1.6750 -0.1567 -0.3587
   79MOL0     H10413   3.912   8.638   8.056 -3.9163 -0.2412 -0.5706
   79MOL0     H10414   3.943   8.442   7.610  1.2916  3.1439  3.2794
   79MOL0     H10415   3.847   8.458   7.840 -1.5482 -0.0400  0.0601
   79MOL0     H10416   3.681   8.386   8.170 -1.3003  2.0145  0.5303
   79MOL0     H10417   3.546   8.441   8.370  0.2257 -0.4841  1.3191
   79MOL0     H10418   3.752   8.670   8.643 -0.4735 -0.1395 -0.3642
   79MOL0     H10419   3.739   8.558   8.783 -0.3487 -0.5584  0.2848
   79MOL0     H10420   3.555   8.772   8.718 -1.2783 -0.2267  0.1358
   79MOL0     H10421   3.482   8.603   8.719  0.9382 -1.5719  2.2419
   79MOL0     H10422   3.454   8.763   8.911  0.0806 -0.3945 -2.6506
   79MOL0     H10423   3.624   8.734   8.937 -0.7139  2.3333 -2.5864
   79MOL0     H10424   3.405   8.528   8.935  0.5080 -3.9029  2.2326
   79MOL0     H10425   3.567   8.470   8.942 -3.5882 -2.8765 -0.5172
   79MOL0     H10426   3.546   8.559   9.351 -3.1888 -2.0953 -0.4714
   79MOL0     H10427   3.919   8.520   8.571  0.4015  0.6186  0.3817
   79MOL0     H10428   4.034   8.438   8.373  0.0283  1.9435  1.9888
   80MOL0     O10429  11.106   8.793   0.469 -0.4756 -0.1174 -0.1087
   80MOL0     C10430  11.062   8.821   0.580 -0.2937 -0.1842  0.5062
   80MOL0     O10431  10.934   8.864   0.607 -0.9150  0.3288  0.6375
   80MOL0     C10432  10.850   8.902   0.498  0.7387 -0.1945 -0.0602
   80MOL0     C10433  10.725   8.844   0.485 -0.2944 -0.5195 -1.5542
   80MOL0     C10434  10.651   8.869   0.373  0.0934 -0.3222  0.1625
   80MOL0     C10435  10.694   8.949   0.268  0.5788 -0.6218  0.2344
   80MOL0     O10436  10.633   8.962   0.141  0.1659  0.4934 -0.7083
   80MOL0     C10437  10.495   8.923   0.109 -0.3729 -0.0876 -0.5380
   80MOL0     C10438  10.406   9.017   0.187  0.1844 -0.2052  0.1857
   80MOL0     C10439  10.263   9.026   0.130 -0.5127 -0.5716  0.2508
   80MOL0     C10440  10.180   9.110   0.228  0.1455  0.4614  0.2310
   80MOL0     C10441  10.035   9.095   0.180 -0.1874  0.5362  0.2202
   80MOL0     C10442   9.958   9.219   0.222  0.5319  0.4841  0.5378
   80MOL0     C10443   9.996   9.331   0.129  0.3047  0.4676 -0.6312
   80MOL0     C10444   9.884   9.368   0.039  0.4200  0.6297 -0.5394
   80MOL0     N10445   9.923   9.438  -0.078  0.1035 -0.3634  0.5538
   80MOL0     C10446   9.990   9.559  -0.071  0.6772  0.5068  0.7282
   80MOL0     C10447  10.005   9.588  -0.200  0.5857 -0.3742  0.0807
   80MOL0     C10448  10.079   9.708  -0.248  0.0436 -0.8605 -0.3897
   80MOL0     C10449  10.213   9.677  -0.320  1.3161  0.4677 -0.5766
   80MOL0     C10450  10.234   9.764  -0.438  0.2778 -0.3663  0.0311
   80MOL0     C10451  10.148   9.713  -0.555 -0.2089  0.3622 -0.7251
   80MOL0     O10452  10.180   9.783  -0.671  0.0720 -0.3292  0.8418
   80MOL0     C10453  10.140   9.724  -0.788  1.3224 -0.7377  1.5520
   80MOL0     C10454  10.021   9.646  -0.809 -0.6270  0.5580 -0.6546
   80MOL0     C10455   9.993   9.576  -0.928  0.9232 -0.8677  0.1857
   80MOL0     C10456  10.081   9.589  -1.031 -0.1643 -1.0931  0.4194
   80MOL0     C10457  10.053   9.535  -1.166  0.5628  0.0492 -0.1463
   80MOL0     O10458  10.157   9.533  -1.259 -0.0437  0.4858  1.6091
   80MOL0     C10459  10.150   9.456  -1.376 -0.2182  0.3915 -0.1696
   80MOL0     C10460  10.075   9.339  -1.393  0.2456 -0.3143  0.5700
   80MOL0     C10461  10.085   9.263  -1.511  0.6809 -0.1458 -1.6043
   80MOL0     C10462  10.166   9.302  -1.617  0.8163  0.4785  0.6640
   80MOL0     O10463  10.180   9.216  -1.729 -0.7348  0.0881 -0.0002
   80MOL0     C10464  10.310   9.153  -1.749  0.8570 -0.6574  0.0848
   80MOL0     C10465  10.368   9.073  -1.633  1.0372 -0.1611  0.9880
   80MOL0     C10466  10.278   8.959  -1.599 -0.2284  0.2549 -0.6860
   80MOL0     C10467  10.236   8.864  -1.715 -0.6840 -1.1949  0.9108
   80MOL0     C10468  10.155   8.732  -1.675 -0.1608 -0.6580  0.2028
   80MOL0     C10469  10.027   8.760  -1.600  0.3182  0.0145  0.8952
   80MOL0     C10470   9.930   8.843  -1.675 -0.0011 -0.3998  1.5138
   80MOL0     C10471   9.798   8.843  -1.607  0.3770 -0.2925  0.3133
   80MOL0    Cl10472   9.698   8.715  -1.664 -0.8590  0.1345  0.2324
   80MOL0     C10473  10.238   9.422  -1.602 -0.0816  0.6615 -0.9181
   80MOL0     C10474  10.231   9.486  -1.481  0.0976 -0.1499 -0.5487
   80MOL0     O10475   9.943   9.489  -1.186  0.8830  0.0784 -0.7095
   80MOL0     C10476  10.197   9.669  -1.016  0.0728  0.1778  0.2769
   80MOL0     C10477  10.216   9.741  -0.902 -0.1137  0.2142 -1.0888
   80MOL0     N10478   9.946   9.496  -0.284 -0.0999  0.9142  0.4751
   80MOL0     N10479   9.887   9.410  -0.209 -0.2434 -0.5336 -0.4305
   80MOL0     C10480  10.812   9.018   0.289 -0.5194 -0.5087 -0.6687
   80MOL0     C10481  10.892   8.995   0.408 -0.0633 -0.3040  0.1673
   80MOL0     C10482  11.153   8.791   0.689 -0.4402 -0.3161  0.1201
   80MOL0     C10483  11.276   8.739   0.680  0.0326  0.2991 -1.2298
   80MOL0     C10484  11.360   8.720   0.792  0.0891  0.0583  0.1244
   80MOL0     C10485  11.325   8.744   0.919  0.8963  1.1347 -0.0276
   80MOL0     O10486  11.407   8.712   1.025  0.4639 -0.1547 -0.6281
   80MOL0     C10487  11.549   8.745   1.013 -0.0516 -0.3774 -0.2739
   80MOL0     C10488  11.612   8.794   1.139  0.4035 -0.3406  0.6545
   80MOL0     C10489  11.554   8.937   1.168  0.3854 -0.2409 -0.6072
   80MOL0     C10490  11.605   8.995   1.299  0.6327  0.3797  0.1458
   80MOL0     C10491  11.541   9.129   1.326 -0.7218  0.3726 -0.3142
   80MOL0     C10492  11.502   9.239   1.350 -0.0885  0.1525  0.3482
   80MOL0     C10493  11.202   8.802   0.942  0.5885  0.6037 -0.4057
   80MOL0     C10494  11.117   8.822   0.825  0.3419 -0.1413  0.1282
   80MOL0     H10495  10.682   8.789   0.568 -0.9564  1.1140 -0.7697
   80MOL0     H10496  10.545   8.842   0.370 -1.2174  4.0425  0.3471
   80MOL0     H10497  10.470   8.818   0.129  1.1101 -0.5994 -1.2754
   80MOL0     H10498  10.465   8.938   0.005 -0.4407 -1.8465 -0.8105
   80MOL0     H10499  10.450   9.117   0.184  2.6405 -1.1647  0.8783
   80MOL0     H10500  10.410   8.980   0.291  3.3214 -3.6055 -0.9168
   80MOL0     H10501  10.222   8.925   0.122  0.1496 -0.8510  0.3375
   80MOL0     H10502  10.277   9.083   0.038 -1.6987  1.8032  1.4300
   80MOL0     H10503  10.178   9.073   0.331 -1.5408 -0.5287 -0.1176
   80MOL0     H10504  10.216   9.213   0.218  0.5179  0.1549 -2.2262
   80MOL0     H10505   9.991   9.011   0.234  0.5390  0.1555  0.2342
   80MOL0     H10506  10.020   9.082   0.073 -1.4871  0.7393  0.3587
   80MOL0     H10507   9.978   9.246   0.327 -0.6612 -0.3326  1.0018
   80MOL0     H10508   9.850   9.202   0.221  0.3261  1.6408  1.1575
   80MOL0     H10509  10.022   9.413   0.197 -0.4464  1.0977 -1.0802
   80MOL0     H10510  10.092   9.326   0.078  2.8326  2.3268  3.4767
   80MOL0     H10511   9.810   9.429   0.090  2.2154  0.1343  2.9965
   80MOL0     H10512   9.835   9.275   0.009  0.4418 -0.1463  1.6807
   80MOL0     H10513  10.027   9.620   0.010  1.0570  0.0438  0.9084
   80MOL0     H10514  10.095   9.773  -0.161  1.0755 -2.4079  0.6210
   80MOL0     H10515  10.007   9.753  -0.317 -3.0503 -4.2838  0.2410
   80MOL0     H10516  10.201   9.573  -0.353  2.9680 -0.3365  1.1863
   80MOL0     H10517  10.290   9.679  -0.243 -2.1934  2.5005  3.2171
   80MOL0     H10518  10.204   9.865  -0.408  1.4514  0.5677 -1.8009
   80MOL0     H10519  10.337   9.760  -0.472  0.0181 -2.4484 -0.6565
   80MOL0     H10520  10.042   9.708  -0.530 -0.0715 -1.4103 -0.3664
   80MOL0     H10521  10.181   9.609  -0.569  0.5167  0.3385  0.8453
   80MOL0     H10522   9.953   9.636  -0.725 -1.1907  1.8052 -0.9529
   80MOL0     H10523   9.903   9.516  -0.939  1.6067 -1.7513 -0.7703
   80MOL0     H10524  10.016   9.303  -1.309 -0.9822  1.2176  0.4160
   80MOL0     H10525  10.026   9.172  -1.507 -3.2538  2.1264 -2.9354
   80MOL0     H10526  10.380   9.234  -1.771 -0.4827  0.5547  0.1402
   80MOL0     H10527  10.305   9.090  -1.838  0.6520  2.5566 -2.3604
   80MOL0     H10528  10.384   9.134  -1.544 -1.8211  0.2565  1.2798
   80MOL0     H10529  10.469   9.035  -1.655  2.0096  1.6865  2.0004
   80MOL0     H10530  10.187   9.009  -1.563 -1.1538  0.3878 -3.0414
   80MOL0     H10531  10.332   8.911  -1.517 -1.5156  0.5900  0.4032
   80MOL0     H10532  10.170   8.917  -1.784  1.2518 -2.0769 -1.8168
   80MOL0     H10533  10.325   8.835  -1.773 -2.5441 -2.2354 -1.6289
   80MOL0     H10534  10.223   8.664  -1.624 -1.3960 -0.6351  2.0037
   80MOL0     H10535  10.136   8.676  -1.767  0.4800 -1.0401  0.3025
   80MOL0     H10536  10.049   8.809  -1.504 -0.3420  0.8737  0.6244
   80MOL0     H10537   9.975   8.666  -1.578 -0.7942  0.2970 -0.3548
   80MOL0     H10538   9.965   8.946  -1.689  0.8154 -0.9869 -1.5998
   80MOL0     H10539   9.932   8.809  -1.779  2.0918 -0.9782  1.6971
   80MOL0     H10540   9.746   8.931  -1.644 -2.7673 -3.7496 -4.7717
   80MOL0     H10541   9.821   8.844  -1.500  0.6450  4.5209  0.4179
   80MOL0     H10542  10.293   9.450  -1.692 -2.3657  0.8355 -2.3232
   80MOL0     H10543  10.292   9.575  -1.466  1.8213 -1.2912 -0.4721
   80MOL0     H10544  10.279   9.679  -1.087  1.5572 -0.9370  1.7495
   80MOL0     H10545  10.311   9.790  -0.886 -0.3181  0.0072  1.1035
   80MOL0     H10546  10.850   9.085   0.212 -1.6418  0.0036 -0.8053
   80MOL0     H10547  10.996   9.025   0.414 -0.1716 -0.1343  1.7100
   80MOL0     H10548  11.311   8.702   0.584  1.4523 -2.4433  0.2305
   80MOL0     H10549  11.454   8.672   0.766  1.0964  1.8630  0.3251
   80MOL0     H10550  11.561   8.814   0.929  0.1319  2.3413  1.8375
   80MOL0     H10551  11.595   8.649   0.988 -2.6368 -1.8943  0.3675
   80MOL0     H10552  11.589   8.722   1.218  0.6886 -2.3879 -1.0274
   80MOL0     H10553  11.720   8.796   1.119  0.1279  0.5852 -0.9721
   80MOL0     H10554  11.446   8.929   1.154  0.6415 -3.9620 -1.4542
   80MOL0     H10555  11.579   9.004   1.084 -4.4314  2.1034 -0.5161
   80MOL0     H10556  11.583   8.919   1.375 -2.4107 -0.0812 -1.0413
   80MOL0     H10557  11.713   9.010   1.303  0.7748 -0.7116  1.2038
   80MOL0     H10558  11.451   9.332   1.363  0.1218  0.6041 -1.7451
   80MOL0     H10559  11.191   8.837   1.044  0.9339  0.9826 -0.4965
   80MOL0     H10560  11.028   8.882   0.842  1.1534  0.8394  1.0471
   81MOL0     O10561  10.348   3.615   8.931  0.1224 -0.7643  0.1372
   81MOL0     C10562  10.285   3.714   8.916  0.3843  0.2938  0.6261
   81MOL0     O10563  10.340   3.843   8.932 -0.2901  0.1060 -0.0216
   81MOL0     C10564  10.462   3.883   8.966  0.4282  1.0305  0.2427
   81MOL0     C10565  10.467   3.996   9.046 -1.1592 -0.5219  1.0890
   81MOL0     C10566  10.596   4.039   9.087 -0.4153 -0.1305  0.6570
   81MOL0     C10567  10.709   3.972   9.055 -0.2156  0.5330  1.1668
   81MOL0     O10568  10.834   4.016   9.081 -0.6096 -0.1293  0.2808
   81MOL0     C10569  10.864   4.141   9.161 -0.6414  0.3648 -0.1138
   81MOL0     C10570  10.853   4.259   9.067 -0.7225 -0.2455  0.9422
   81MOL0     C10571  10.873   4.386   9.147  0.5737 -0.4559  0.8756
   81MOL0     C10572  10.802   4.505   9.074  0.6223  0.6708  0.3645
   81MOL0     C10573  10.780   4.631   9.155 -0.7014  0.6996 -0.6167
   81MOL0     C10574  10.687   4.719   9.092  0.1980  0.2793 -0.3678
   81MOL0     C10575  10.702   4.870   9.144 -0.1683 -0.4778 -0.1661
   81MOL0     C10576  10.683   4.883   9.298 -0.0108  0.1535  0.3649
   81MOL0     N10577  10.554   4.841   9.352 -0.0579 -0.7964 -0.4742
   81MOL0     C10578  10.435   4.889   9.302  0.5441 -0.2548 -0.2001
   81MOL0     C10579  10.335   4.809   9.349 -1.1295 -0.5752 -0.0322
   81MOL0     C10580  10.191   4.827   9.317  0.6083  0.8298  0.5235
   81MOL0     C10581  10.160   4.832   9.168  0.5045 -0.1575  0.4286
   81MOL0     C10582  10.095   4.964   9.127  0.1331  0.3759 -0.0760
   81MOL0     C10583  10.200   5.084   9.135  0.6612  0.4602  0.0472
   81MOL0     O10584  10.317   5.054   9.054 -0.1589  0.0158  0.0239
   81MOL0     C10585  10.322   5.080   8.918  0.3088 -0.4435  0.8054
   81MOL0     C10586  10.219   5.126   8.840  0.7435 -1.2072 -0.0462
   81MOL0     C10587  10.228   5.146   8.693 -0.0901  0.0605 -1.0538
   81MOL0     C10588  10.349   5.136   8.640 -0.5819  0.6033 -0.0011
   81MOL0     C10589  10.380   5.181   8.503 -0.8020  0.4085  0.7272
   81MOL0     O10590  10.513   5.204   8.479  0.9166 -0.0190 -0.9654
   81MOL0     C10591  10.544   5.261   8.362  0.6212  1.0254  0.3921
   81MOL0     C10592  10.503   5.388   8.332 -0.0755 -0.4469  0.3943
   81MOL0     C10593  10.520   5.443   8.206  0.5401 -0.3904  0.5463
   81MOL0     C10594  10.580   5.373   8.104  0.3838 -0.2829  0.2613
   81MOL0     O10595  10.597   5.429   7.979 -0.0061  0.0007  0.2490
   81MOL0     C10596  10.582   5.330   7.871 -0.1909  0.6511  0.6780
   81MOL0     C10597  10.633   5.385   7.739  0.5821  0.3093 -1.0012
   81MOL0     C10598  10.782   5.430   7.772  0.2484 -0.1466 -0.0027
   81MOL0     C10599  10.842   5.521   7.655 -0.0641 -0.9122  0.3575
   81MOL0     C10600  10.888   5.430   7.540  1.0123  0.4704 -0.0464
   81MOL0     C10601  10.927   5.506   7.419  0.7153  0.8058  0.5903
   81MOL0     C10602  10.975   5.414   7.305 -0.4880 -0.5935 -0.1424
   81MOL0     C10603  11.023   5.493   7.177  0.4658  0.0981  1.0858
   81MOL0    Cl10604  11.080   5.380   7.049 -0.2587 -0.0438 -0.4860
   81MOL0     C10605  10.629   5.245   8.143  0.0427  0.2326  1.0031
   81MOL0     C10606  10.611   5.185   8.264 -0.1860  0.1166  0.3341
   81MOL0     O10607  10.287   5.185   8.422  0.2375  0.6749  0.2853
   81MOL0     C10608  10.455   5.089   8.714  0.0059 -0.0484  0.1616
   81MOL0     C10609  10.439   5.058   8.850 -0.5665 -0.0243  0.3723
   81MOL0     N10610  10.391   4.717   9.437 -0.0232  0.2580  0.5673
   81MOL0     N10611  10.520   4.740   9.437 -0.6865  0.5163 -0.9921
   81MOL0     C10612  10.703   3.849   8.985  0.0298 -0.0693  1.0561
   81MOL0     C10613  10.575   3.807   8.955  0.1011  0.0600  0.1794
   81MOL0     C10614  10.140   3.702   8.882 -0.4082  0.2219 -1.3409
   81MOL0     C10615  10.072   3.574   8.887  0.8196 -0.7029 -0.3403
   81MOL0     C10616   9.938   3.570   8.854 -0.9397 -1.3223 -0.4231
   81MOL0     C10617   9.868   3.680   8.816  0.8274 -0.1991 -1.1507
   81MOL0     O10618   9.730   3.680   8.788  0.0554  0.0877  0.7070
   81MOL0     C10619   9.669   3.562   8.728 -0.8132  0.6371  0.8412
   81MOL0     C10620   9.598   3.480   8.836  0.2894 -0.2635 -0.1066
   81MOL0     C10621   9.521   3.368   8.761  0.5332  0.3085 -0.1236
   81MOL0     C10622   9.396   3.314   8.818  0.4028 -0.3463 -0.5591
   81MOL0     C10623   9.296   3.409   8.876  0.1018  0.3057 -0.3495
   81MOL0     C10624   9.228   3.488   8.933  0.0861  0.0579  0.1484
   81MOL0     C10625   9.928   3.808   8.821 -0.7746 -0.4340  0.5776
   81MOL0     C10626  10.062   3.818   8.862  0.0333  0.2282 -0.2204
   81MOL0     H10627  10.371   4.026   9.088 -2.0271 -1.0373 -0.4644
   81MOL0     H10628  10.597   4.123   9.154  2.1226  2.9991 -2.8738
   81MOL0     H10629  10.972   4.137   9.174 -0.6073  1.5479  0.0573
   81MOL0     H10630  10.817   4.143   9.259  1.3119  0.4758  0.8543
   81MOL0     H10631  10.756   4.244   9.018 -0.0102 -5.0845  0.5076
   81MOL0     H10632  10.929   4.256   8.989 -0.9308  0.8462  0.6832
   81MOL0     H10633  10.979   4.401   9.172 -0.1451  2.7206  2.5484
   81MOL0     H10634  10.825   4.365   9.243 -0.6797 -1.1316  0.1168
   81MOL0     H10635  10.863   4.541   8.991 -1.0267  0.2642 -1.0755
   81MOL0     H10636  10.706   4.470   9.035  0.4046  1.4707  0.1542
   81MOL0     H10637  10.874   4.672   9.192 -1.9401  1.8058  1.5140
   81MOL0     H10638  10.735   4.603   9.251  2.9136  2.2908  1.7325
   81MOL0     H10639  10.580   4.697   9.104  0.3516 -1.7950 -2.1200
   81MOL0     H10640  10.705   4.721   8.984  1.4205 -2.1742 -0.2864
   81MOL0     H10641  10.798   4.917   9.121 -0.4032  1.8891  3.0421
   81MOL0     H10642  10.625   4.931   9.096  2.1923  1.9372 -1.1598
   81MOL0     H10643  10.705   4.986   9.329  0.8179  0.5502 -1.3870
   81MOL0     H10644  10.754   4.819   9.352 -0.3823 -1.7152 -1.2394
   81MOL0     H10645  10.428   4.970   9.230  1.4251  0.3804  0.4097
   81MOL0     H10646  10.151   4.922   9.355 -2.2123  0.9287 -2.2237
   81MOL0     H10647  10.128   4.750   9.362 -0.9145  1.8077  0.1488
   81MOL0     H10648  10.101   4.751   9.124 -0.7089  2.1053 -2.4488
   81MOL0     H10649  10.253   4.819   9.112  1.7697 -2.6700  2.8826
   81MOL0     H10650  10.061   4.950   9.025  2.5356  2.5139 -1.2860
   81MOL0     H10651  10.008   4.991   9.188 -0.3572  0.3195 -0.7469
   81MOL0     H10652  10.235   5.078   9.238  1.2376 -0.5826 -0.1907
   81MOL0     H10653  10.149   5.179   9.116  2.7298  2.0479  1.9483
   81MOL0     H10654  10.117   5.138   8.874  0.2682  0.0459 -1.7528
   81MOL0     H10655  10.139   5.181   8.643 -2.9275 -2.1952  2.0245
   81MOL0     H10656  10.453   5.452   8.404  1.1613 -1.8195  2.5857
   81MOL0     H10657  10.486   5.542   8.180  1.8937  0.3265  1.3569
   81MOL0     H10658  10.476   5.301   7.880  0.2056 -0.7091  1.2225
   81MOL0     H10659  10.649   5.248   7.898  0.4837  1.3879  1.2797
   81MOL0     H10660  10.574   5.472   7.709  1.8108  1.6888  0.3506
   81MOL0     H10661  10.639   5.305   7.665  0.0148  1.1805 -2.0110
   81MOL0     H10662  10.847   5.347   7.800  0.9780  0.6953  0.8667
   81MOL0     H10663  10.775   5.492   7.862  0.1639 -0.2562  0.0669
   81MOL0     H10664  10.770   5.600   7.634  0.1353  0.2013  3.3366
   81MOL0     H10665  10.933   5.578   7.674 -1.0586  2.9890 -4.4755
   81MOL0     H10666  10.814   5.353   7.513  0.4290  1.1350 -0.3627
   81MOL0     H10667  10.970   5.369   7.580 -0.7827 -1.4473  0.9432
   81MOL0     H10668  11.011   5.570   7.448  1.1852 -0.3689  1.9448
   81MOL0     H10669  10.843   5.566   7.384  0.9496  0.0144 -1.4467
   81MOL0     H10670  11.052   5.347   7.345 -1.3355 -1.3019  0.3346
   81MOL0     H10671  10.884   5.368   7.264 -1.5712  1.0212  0.3806
   81MOL0     H10672  11.096   5.561   7.220 -0.1693  0.8078  1.0654
   81MOL0     H10673  10.951   5.563   7.133  0.8087 -1.5806 -2.5117
   81MOL0     H10674  10.662   5.168   8.074 -1.8796 -0.4090  0.7365
   81MOL0     H10675  10.640   5.082   8.280 -0.9541 -0.1577  0.0369
   81MOL0     H10676  10.551   5.073   8.666  0.4587  0.3110  0.9275
   81MOL0     H10677  10.524   5.011   8.898 -2.2626 -2.4014  1.2738
   81MOL0     H10678  10.798   3.798   8.981  1.1261  1.8896  0.6116
   81MOL0     H10679  10.574   3.704   8.921  0.7226  0.3257 -0.6899
   81MOL0     H10680  10.122   3.487   8.928 -0.1383 -0.6143  1.1028
   81MOL0     H10681   9.883   3.476   8.857 -1.4218 -1.1520 -2.5984
   81MOL0     H10682   9.753   3.507   8.686  1.0925  3.2791  0.9428
   81MOL0     H10683   9.604   3.593   8.645 -0.8562  0.4398  0.8006
   81MOL0     H10684   9.675   3.431   8.897 -0.4338 -1.2359  0.0405
   81MOL0     H10685   9.543   3.549   8.900 -0.3914 -1.5476  0.7251
   81MOL0     H10686   9.587   3.282   8.744  0.0477  0.2794 -2.0613
   81MOL0     H10687   9.488   3.405   8.664 -1.6861 -2.8642 -0.7246
   81MOL0     H10688   9.334   3.251   8.753 -2.4468 -2.8239  4.0355
   81MOL0     H10689   9.432   3.254   8.902 -0.7304  2.9798  2.5355
   81MOL0     H10690   9.177   3.565   8.987 -1.8242 -0.4439 -0.8600
   81MOL0     H10691   9.875   3.891   8.775 -2.1475 -1.9429 -0.6912
   81MOL0     H10692  10.124   3.907   8.849  4.2484 -2.5734 -1.5591
   82MOL0     O10693   2.993  10.403   6.775  0.1592  0.9319 -0.4780
   82MOL0     C10694   3.030  10.348   6.673  0.2002  0.6665 -0.2134
   82MOL0     O10695   3.076  10.225   6.663 -0.9071 -0.5207 -0.3748
   82MOL0     C10696   3.077  10.138   6.768  0.6023 -0.5083 -1.0148
   82MOL0     C10697   2.977  10.125   6.874  0.8216  0.6237  0.6348
   82MOL0     C10698   2.979  10.019   6.972 -0.9016 -0.0934 -0.2420
   82MOL0     C10699   3.093   9.939   6.976  0.5344  0.2574 -0.0887
   82MOL0     O10700   3.101   9.853   7.084  0.2458  0.0876 -0.3190
   82MOL0     C10701   3.231   9.810   7.117 -0.8404  0.2151  0.7010
   82MOL0     C10702   3.217   9.714   7.228 -0.3401 -0.7579 -0.3931
   82MOL0     C10703   3.348   9.637   7.266  0.5090 -0.0325 -0.6898
   82MOL0     C10704   3.319   9.531   7.371  0.9033 -0.0272  0.1551
   82MOL0     C10705   3.442   9.466   7.429 -0.6506 -0.6509  0.7068
   82MOL0     C10706   3.418   9.335   7.513  0.4863 -0.3253  0.0310
   82MOL0     C10707   3.552   9.280   7.575  0.0964  1.0477  0.3029
   82MOL0     C10708   3.640   9.213   7.466  0.3379  0.1370 -0.7517
   82MOL0     N10709   3.774   9.182   7.519 -0.1932  0.0258 -0.8260
   82MOL0     C10710   3.877   9.159   7.430  0.4769 -0.4134 -0.2963
   82MOL0     C10711   3.984   9.130   7.516  0.9474  0.5449  0.4369
   82MOL0     C10712   4.118   9.107   7.456  1.0162  0.0354  0.2281
   82MOL0     C10713   4.196   9.239   7.411  0.5335 -0.0746 -0.2951
   82MOL0     C10714   4.260   9.317   7.521 -1.3688  0.0494  0.3555
   82MOL0     C10715   4.264   9.474   7.514 -0.1361 -0.8050 -0.3359
   82MOL0     O10716   4.337   9.515   7.398 -0.0943  0.0381 -0.0009
   82MOL0     C10717   4.474   9.546   7.404  0.2531 -0.7768  1.2703
   82MOL0     C10718   4.564   9.484   7.487  0.8065 -1.1489 -1.0814
   82MOL0     C10719   4.704   9.514   7.493  0.2747  0.1628 -0.2655
   82MOL0     C10720   4.756   9.604   7.400  0.4083  0.0463 -1.0298
   82MOL0     C10721   4.898   9.641   7.424  0.5948  0.2989 -0.3292
   82MOL0     O10722   4.973   9.569   7.507  0.4195  0.2321  0.6115
   82MOL0     C10723   5.108   9.595   7.509 -0.5335 -0.5384 -0.7356
   82MOL0     C10724   5.162   9.665   7.618  0.9708 -1.0615  0.1989
   82MOL0     C10725   5.301   9.673   7.627 -0.6356  0.0219  0.4211
   82MOL0     C10726   5.394   9.608   7.541  0.8978  0.3745 -0.1703
   82MOL0     O10727   5.529   9.614   7.566 -0.1709  0.0730  0.0858
   82MOL0     C10728   5.626   9.566   7.463  0.7472  0.1268  0.2326
   82MOL0     C10729   5.769   9.607   7.487 -0.5071 -0.2842 -1.0444
   82MOL0     C10730   5.853   9.532   7.389  0.4354 -0.3870 -0.3801
   82MOL0     C10731   6.008   9.549   7.415 -0.0265  0.2804  0.1751
   82MOL0     C10732   6.058   9.683   7.385 -0.8318 -0.1902  0.5191
   82MOL0     C10733   6.193   9.703   7.456 -0.1190 -0.0439  1.2539
   82MOL0     C10734   6.252   9.836   7.399 -0.5689 -0.0460 -0.1003
   82MOL0     C10735   6.367   9.873   7.496  0.1763 -0.1937 -0.3436
   82MOL0    Cl10736   6.441  10.022   7.450  0.2522 -0.1836  0.1290
   82MOL0     C10737   5.331   9.538   7.435 -0.4260 -0.0559  0.2392
   82MOL0     C10738   5.195   9.530   7.419 -0.5984 -0.1038  0.0630
   82MOL0     O10739   4.935   9.742   7.371 -0.0719  0.3975  1.0699
   82MOL0     C10740   4.673   9.662   7.308 -0.3735 -0.3295 -0.3971
   82MOL0     C10741   4.530   9.641   7.315 -0.8774 -0.0777 -0.0640
   82MOL0     N10742   3.946   9.144   7.638 -0.4945 -0.1377 -0.5891
   82MOL0     N10743   3.825   9.168   7.650  0.3981  0.3699  1.0944
   82MOL0     C10744   3.187   9.950   6.875 -0.6713  0.3040  0.3547
   82MOL0     C10745   3.182  10.051   6.775  0.3470 -0.0562  0.3887
   82MOL0     C10746   3.027  10.431   6.554 -0.0240 -0.3513  0.6933
   82MOL0     C10747   3.060  10.563   6.566 -0.4472  0.2738 -0.2477
   82MOL0     C10748   3.077  10.640   6.454 -1.1520  0.3843  0.2361
   82MOL0     C10749   3.054  10.582   6.334  0.1883  0.2523  1.0887
   82MOL0     O10750   3.083  10.656   6.221  0.0147  0.1237  0.1618
   82MOL0     C10751   3.186  10.615   6.133 -0.5113 -0.5086  1.1786
   82MOL0     C10752   3.283  10.727   6.117  0.0740  0.1821 -0.3701
   82MOL0     C10753   3.370  10.721   5.994  0.5488 -0.0513  0.8415
   82MOL0     C10754   3.461  10.848   5.954  1.2370  0.4340 -0.0100
   82MOL0     C10755   3.394  10.981   5.933  0.4951  0.5790 -0.3560
   82MOL0     C10756   3.339  11.093   5.921  0.0554 -0.1409 -1.0559
   82MOL0     C10757   3.025  10.448   6.317  0.0769  0.6904 -0.5200
   82MOL0     C10758   3.016  10.370   6.430  0.1108  0.0863  0.5034
   82MOL0     H10759   2.889  10.188   6.879 -0.2508 -0.6394 -1.1444
   82MOL0     H10760   2.909  10.006   7.054  2.2036 -1.3002  2.3807
   82MOL0     H10761   3.293   9.897   7.139 -0.2509 -0.7450  3.1490
   82MOL0     H10762   3.281   9.765   7.030 -1.5597  2.9361 -1.2725
   82MOL0     H10763   3.133   9.646   7.213  0.3207 -1.7102  0.1414
   82MOL0     H10764   3.192   9.781   7.311  1.7025 -0.2175 -0.1671
   82MOL0     H10765   3.423   9.703   7.310 -2.7565  1.7106  2.9443
   82MOL0     H10766   3.389   9.591   7.176 -1.4467  1.9672 -2.7265
   82MOL0     H10767   3.269   9.568   7.461  1.2308 -0.3269  0.4641
   82MOL0     H10768   3.249   9.465   7.320  1.2419  0.5233 -1.0590
   82MOL0     H10769   3.502   9.537   7.488  1.0070  0.8205 -2.5104
   82MOL0     H10770   3.509   9.436   7.348 -0.3585 -0.7808  0.9903
   82MOL0     H10771   3.390   9.254   7.444 -0.2600  0.2888 -0.4156
   82MOL0     H10772   3.337   9.353   7.585  0.6466 -0.7928  0.3294
   82MOL0     H10773   3.596   9.363   7.631  2.8380 -1.1145  1.5743
   82MOL0     H10774   3.525   9.206   7.651 -1.4765  2.4819  1.2047
   82MOL0     H10775   3.638   9.267   7.371 -1.6966 -0.6651 -1.2138
   82MOL0     H10776   3.585   9.120   7.446 -1.7040  1.4046 -1.3134
   82MOL0     H10777   3.881   9.164   7.322  2.4509  0.4672 -0.2157
   82MOL0     H10778   4.132   9.030   7.379 -1.7044 -0.2397 -0.0704
   82MOL0     H10779   4.184   9.059   7.529 -1.8625 -1.1201  2.2319
   82MOL0     H10780   4.121   9.303   7.365 -0.2154  0.1815  1.2204
   82MOL0     H10781   4.270   9.210   7.337 -0.1703 -1.9963 -0.3138
   82MOL0     H10782   4.214   9.297   7.617 -1.4744 -3.8174 -0.3695
   82MOL0     H10783   4.362   9.281   7.536 -2.5425 -2.7982  2.0926
   82MOL0     H10784   4.306   9.513   7.607 -4.5357 -0.5313  1.7763
   82MOL0     H10785   4.161   9.512   7.507  0.6831  1.2870 -3.4158
   82MOL0     H10786   4.515   9.419   7.559  0.0646  2.0193  1.5262
   82MOL0     H10787   4.767   9.480   7.575  3.6416  3.3784 -1.2492
   82MOL0     H10788   5.104   9.724   7.688 -0.4726 -0.1605 -1.6541
   82MOL0     H10789   5.331   9.729   7.715  0.9985  2.0083 -1.3097
   82MOL0     H10790   5.602   9.597   7.361  3.5283  0.2154 -0.5041
   82MOL0     H10791   5.625   9.457   7.470 -1.0558  0.0404 -0.8070
   82MOL0     H10792   5.791   9.582   7.592 -1.0210 -0.5716 -1.0009
   82MOL0     H10793   5.785   9.715   7.477 -0.2305 -0.1176  0.8443
   82MOL0     H10794   5.828   9.559   7.286  0.5187  0.5547 -0.1563
   82MOL0     H10795   5.834   9.425   7.405 -2.2323  0.2557  1.3788
   82MOL0     H10796   6.045   9.517   7.513  3.3022 -0.5980 -1.2198
   82MOL0     H10797   6.061   9.483   7.345 -2.0648 -0.4430 -0.7756
   82MOL0     H10798   5.994   9.761   7.428 -2.4431 -1.8526  1.3304
   82MOL0     H10799   6.053   9.700   7.277 -3.6866  1.0442  0.7410
   82MOL0     H10800   6.249   9.613   7.431 -2.1855 -0.9088 -0.5948
   82MOL0     H10801   6.181   9.702   7.565 -0.0856  0.4784  1.2666
   82MOL0     H10802   6.280   9.830   7.293 -0.0105  1.7095 -0.0705
   82MOL0     H10803   6.173   9.912   7.393  0.7483  1.3998  0.2414
   82MOL0     H10804   6.440   9.792   7.480 -0.8624 -1.1132 -0.5902
   82MOL0     H10805   6.337   9.878   7.601  1.4137 -0.2131  0.0309
   82MOL0     H10806   5.402   9.494   7.366  1.0287 -1.1898  2.3430
   82MOL0     H10807   5.155   9.479   7.332  0.3333 -1.2302  0.2862
   82MOL0     H10808   4.721   9.726   7.235  3.1620 -0.5461  1.5153
   82MOL0     H10809   4.465   9.695   7.246 -1.2270 -2.8121 -2.0629
   82MOL0     H10810   3.266   9.879   6.851 -1.6543 -0.3485 -1.0971
   82MOL0     H10811   3.267  10.064   6.709  0.7649 -1.6651  0.5662
   82MOL0     H10812   3.086  10.605   6.664 -0.1024  2.3688 -1.1716
   82MOL0     H10813   3.124  10.737   6.441 -0.3072  0.0125  0.3857
   82MOL0     H10814   3.148  10.596   6.032  2.0782 -0.2456  0.0726
   82MOL0     H10815   3.248  10.535   6.174  1.6256  1.0549  1.1465
   82MOL0     H10816   3.237  10.826   6.112  0.6499  0.4039 -2.0255
   82MOL0     H10817   3.341  10.740   6.209 -2.2465 -0.3300  1.2502
   82MOL0     H10818   3.310  10.691   5.908  2.0963 -1.8228  0.2951
   82MOL0     H10819   3.441  10.639   6.009 -0.6517 -1.5788 -1.2160
   82MOL0     H10820   3.541  10.867   6.027  0.5748 -0.1033  0.8705
   82MOL0     H10821   3.508  10.830   5.856  0.1246  0.8187 -0.6352
   82MOL0     H10822   3.294  11.190   5.928  0.8086  0.2268 -1.1946
   82MOL0     H10823   3.023  10.410   6.216 -1.6594 -0.5447 -0.0835
   82MOL0     H10824   3.020  10.262   6.431 -0.1040  0.0713  1.8846
   83MOL0     O10825  10.985   0.989   2.116  0.2093 -0.5100  0.4478
   83MOL0     C10826  11.001   1.037   2.003  0.0078  0.9222 -0.5257
   83MOL0     O10827  11.102   1.113   1.963  0.0908 -0.1829 -0.1147
   83MOL0     C10828  11.215   1.108   2.045 -1.2237 -0.6273  0.2756
   83MOL0     C10829  11.216   1.164   2.178  1.7850  0.1666 -0.0868
   83MOL0     C10830  11.334   1.150   2.262  0.4582 -1.1311  0.9797
   83MOL0     C10831  11.449   1.100   2.203  0.2388  0.5129  0.5548
   83MOL0     O10832  11.565   1.091   2.274  0.7496 -0.4255 -0.7188
   83MOL0     C10833  11.667   1.174   2.218 -0.6161 -0.0398 -0.0346
   83MOL0     C10834  11.804   1.097   2.238 -0.5385 -0.2446  0.3794
   83MOL0     C10835  11.790   0.966   2.168  0.4649  0.6057  0.2103
   83MOL0     C10836  11.932   0.896   2.160 -0.3994  0.0414 -0.9346
   83MOL0     C10837  11.986   0.838   2.296  0.0059 -0.0170  0.4305
   83MOL0     C10838  11.912   0.709   2.369 -0.3371 -0.7734  0.2980
   83MOL0     C10839  11.835   0.624   2.267  0.0670  0.3501  0.2857
   83MOL0     C10840  11.766   0.500   2.324  0.0181  0.1123 -0.0035
   83MOL0     N10841  11.722   0.437   2.204 -0.2336 -0.3605  0.5832
   83MOL0     C10842  11.597   0.395   2.199  0.8888 -1.0362 -0.6207
   83MOL0     C10843  11.595   0.316   2.093 -0.2724 -0.0947 -0.3590
   83MOL0     C10844  11.492   0.218   2.049 -0.2784  0.0240 -0.6377
   83MOL0     C10845  11.352   0.239   2.091 -0.0749 -0.4551  0.0812
   83MOL0     C10846  11.258   0.129   2.043 -0.9467  0.5380  0.1742
   83MOL0     C10847  11.119   0.177   2.029 -0.7323  0.2263 -0.4113
   83MOL0     O10848  11.080   0.220   1.903 -0.1362 -0.4564 -0.4657
   83MOL0     C10849  10.985   0.132   1.846 -0.2024 -0.0227 -1.1421
   83MOL0     C10850  11.018   0.087   1.723  0.2465  0.2263 -0.4175
   83MOL0     C10851  10.940  -0.005   1.659  0.6567 -0.5090 -0.2384
   83MOL0     C10852  10.819  -0.040   1.708 -0.5374 -0.0401 -0.8492
   83MOL0     C10853  10.721  -0.102   1.628  0.8216 -0.3612  0.4725
   83MOL0     O10854  10.584  -0.105   1.679 -0.1591 -0.0600  0.1090
   83MOL0     C10855  10.486  -0.185   1.623  0.9672 -0.7760 -0.5945
   83MOL0     C10856  10.394  -0.243   1.709  0.9003  1.3780  0.5952
   83MOL0     C10857  10.279  -0.312   1.662  0.0564 -0.6014  0.0569
   83MOL0     C10858  10.260  -0.332   1.526 -0.4431  0.8140  0.0022
   83MOL0     O10859  10.155  -0.393   1.456  0.1728  0.0833  0.1297
   83MOL0     C10860  10.069  -0.494   1.514 -0.8913  0.4519 -0.2381
   83MOL0     C10861   9.988  -0.581   1.424  0.4105 -0.5500  0.3009
   83MOL0     C10862  10.088  -0.674   1.341 -0.3065 -0.2944 -0.6009
   83MOL0     C10863  10.012  -0.724   1.219  0.2407 -0.2610  0.4717
   83MOL0     C10864  10.079  -0.836   1.144 -0.0634  1.0028 -0.3027
   83MOL0     C10865  10.055  -0.821   0.989 -0.4797  0.2966 -0.0251
   83MOL0     C10866  10.084  -0.949   0.919  0.6182 -0.1386  0.0142
   83MOL0     C10867  10.057  -0.931   0.770 -1.2868 -0.3038 -0.2121
   83MOL0    Cl10868  10.174  -0.834   0.681 -0.1257 -0.5632  0.1658
   83MOL0     C10869  10.355  -0.283   1.442  0.0530  0.2963  0.3685
   83MOL0     C10870  10.460  -0.204   1.486  0.2575 -0.1506 -0.2763
   83MOL0     O10871  10.760  -0.169   1.531 -0.8029 -0.2980  0.1113
   83MOL0     C10872  10.783   0.002   1.843 -0.5254 -0.0014  0.1986
   83MOL0     C10873  10.869   0.089   1.916  0.0970 -0.0829 -0.0631
   83MOL0     N10874  11.721   0.308   2.035  0.5035  0.2653  0.6074
   83MOL0     N10875  11.801   0.383   2.106 -0.0763  0.5448  0.2034
   83MOL0     C10876  11.449   1.056   2.071 -1.3201 -0.3751  0.1751
   83MOL0     C10877  11.345   1.065   1.988  0.8794 -0.5851 -0.2583
   83MOL0     C10878  10.886   1.021   1.911 -0.6492 -0.6280  0.0877
   83MOL0     C10879  10.883   1.111   1.795  0.2946 -0.5475 -0.2932
   83MOL0     C10880  10.772   1.102   1.696 -0.3313  0.9358 -1.1905
   83MOL0     C10881  10.674   1.010   1.722 -0.5035 -0.3854 -0.1565
   83MOL0     O10882  10.594   0.997   1.606  0.7338  0.1518 -1.0590
   83MOL0     C10883  10.528   0.874   1.592 -0.5582 -0.6816  0.5299
   83MOL0     C10884  10.391   0.904   1.665 -0.2504  0.7078 -0.4561
   83MOL0     C10885  10.266   0.871   1.585 -0.9295 -0.4204 -0.6092
   83MOL0     C10886  10.232   0.732   1.556 -0.1559 -0.2871  0.0357
   83MOL0     C10887  10.206   0.653   1.680 -0.3103 -0.6896  0.7263
   83MOL0     C10888  10.180   0.573   1.765 -0.6002  0.4664  0.4702
   83MOL0     C10889  10.673   0.922   1.828 -1.6215 -0.2240 -0.5128
   83MOL0     C10890  10.780   0.924   1.924  0.7320 -0.1419  0.2395
   83MOL0     H10891  11.117   1.190   2.213  1.6933 -1.0514  0.6347
   83MOL0     H10892  11.344   1.171   2.368  1.9454 -1.1623  0.8643
   83MOL0     H10893  11.675   1.262   2.283  3.3966  0.0769 -0.4210
   83MOL0     H10894  11.671   1.203   2.113  1.3780 -2.5843 -0.7685
   83MOL0     H10895  11.832   1.095   2.343 -1.9554  1.0097  0.8152
   83MOL0     H10896  11.885   1.154   2.190  0.8392 -0.2411  2.5976
   83MOL0     H10897  11.758   0.996   2.067  0.0907  3.6956  1.1658
   83MOL0     H10898  11.715   0.900   2.213  0.6372 -1.5535 -2.3760
   83MOL0     H10899  11.933   0.817   2.084 -1.3157 -2.3919  1.4208
   83MOL0     H10900  12.010   0.970   2.140 -1.9333  2.3010  1.0029
   83MOL0     H10901  11.982   0.922   2.366 -3.0854 -0.0215  0.3801
   83MOL0     H10902  12.091   0.809   2.288  0.2788 -0.3207  3.5858
   83MOL0     H10903  11.849   0.726   2.458 -1.5969 -3.9109  0.1625
   83MOL0     H10904  11.992   0.656   2.422 -2.1086 -0.1810  3.8680
   83MOL0     H10905  11.767   0.681   2.204  1.3745  1.1838 -0.4252
   83MOL0     H10906  11.916   0.592   2.201  0.4010  3.6642 -1.0796
   83MOL0     H10907  11.686   0.513   2.397 -0.5010 -0.4366 -0.4603
   83MOL0     H10908  11.847   0.444   2.372 -0.2320 -1.5548 -1.4227
   83MOL0     H10909  11.511   0.409   2.264  1.8058 -0.4789  0.4926
   83MOL0     H10910  11.541   0.131   2.094  2.5342  1.4080 -0.7738
   83MOL0     H10911  11.483   0.202   1.941 -0.9366  1.1118 -0.7562
   83MOL0     H10912  11.318   0.335   2.050 -0.4586 -1.5002 -2.1901
   83MOL0     H10913  11.348   0.248   2.200 -0.0902 -0.5893  0.0918
   83MOL0     H10914  11.282   0.107   1.939  0.1205 -1.5922  0.7997
   83MOL0     H10915  11.268   0.039   2.106  2.5931  0.6868  0.0287
   83MOL0     H10916  11.102   0.252   2.107  2.2641 -1.2762  1.9118
   83MOL0     H10917  11.053   0.100   2.069  0.1671 -0.3988 -0.1083
   83MOL0     H10918  11.114   0.118   1.684  3.4638 -3.1053  3.8630
   83MOL0     H10919  10.963  -0.041   1.559  0.3122  0.6934 -0.7614
   83MOL0     H10920  10.399  -0.241   1.818 -1.7118 -1.3934  0.9084
   83MOL0     H10921  10.218  -0.369   1.731 -1.7672  1.4171  0.1926
   83MOL0     H10922  10.007  -0.447   1.591  1.2936  2.6415  0.3474
   83MOL0     H10923  10.128  -0.564   1.574 -2.0228 -1.7869 -1.6284
   83MOL0     H10924   9.926  -0.513   1.364  1.1873 -0.8153 -0.8134
   83MOL0     H10925   9.929  -0.647   1.488  0.3775  0.5595  1.4587
   83MOL0     H10926  10.111  -0.758   1.407 -2.8263  1.8831  3.4376
   83MOL0     H10927  10.175  -0.612   1.316 -0.3821  1.7605  3.4184
   83MOL0     H10928   9.914  -0.746   1.262  0.4477  1.0390  1.6988
   83MOL0     H10929   9.988  -0.645   1.146  0.0256 -1.7109 -1.0968
   83MOL0     H10930  10.045  -0.931   1.186 -1.1638  1.0603 -1.0269
   83MOL0     H10931  10.183  -0.827   1.178 -0.6033 -3.1508  3.2058
   83MOL0     H10932  10.124  -0.744   0.951  1.5839 -1.2377  0.4098
   83MOL0     H10933   9.955  -0.785   0.963 -0.2900  2.0924  1.4976
   83MOL0     H10934  10.184  -0.991   0.938  0.3257 -0.7662  0.2033
   83MOL0     H10935  10.021  -1.027   0.962  3.2523 -2.5768 -0.2292
   83MOL0     H10936   9.958  -0.890   0.751 -0.9036  0.5479 -0.4150
   83MOL0     H10937  10.074  -1.026   0.718 -0.0760 -0.2913  0.1241
   83MOL0     H10938  10.320  -0.281   1.339 -2.1998 -0.5359  1.0546
   83MOL0     H10939  10.528  -0.173   1.406 -1.2710  0.6116 -1.3268
   83MOL0     H10940  10.688  -0.030   1.883  0.3745  0.3979  2.8781
   83MOL0     H10941  10.834   0.109   2.017  0.6081  1.8520 -0.2287
   83MOL0     H10942  11.539   1.021   2.021  0.1843  3.2438  0.0342
   83MOL0     H10943  11.360   1.032   1.886  1.8068 -0.0552 -0.2994
   83MOL0     H10944  10.945   1.198   1.775 -0.1307  1.6876  5.8987
   83MOL0     H10945  10.772   1.169   1.611  2.1391  2.4522 -0.1198
   83MOL0     H10946  10.581   0.789   1.637  0.5012 -0.4431 -0.2458
   83MOL0     H10947  10.518   0.849   1.486  2.0343 -0.2225  0.1291
   83MOL0     H10948  10.396   0.850   1.760  5.9905  0.2810 -0.6123
   83MOL0     H10949  10.381   1.009   1.694 -0.5900  0.9716 -1.4753
   83MOL0     H10950  10.271   0.909   1.483  0.4326  0.7508 -0.1394
   83MOL0     H10951  10.189   0.919   1.646  1.6051  0.4273  2.1636
   83MOL0     H10952  10.140   0.729   1.496 -2.5327  1.7938  3.2158
   83MOL0     H10953  10.316   0.696   1.496 -0.4986  0.5561 -0.9941
   83MOL0     H10954  10.161   0.510   1.850 -0.4697  1.3066  1.1398
   83MOL0     H10955  10.596   0.846   1.835 -0.4660 -1.2858  3.3729
   83MOL0     H10956  10.784   0.862   2.013  1.6757 -1.5106 -0.7311
   84MOL0     O10957   0.805   1.704  11.192 -0.5140 -0.2242  0.3515
   84MOL0     C10958   0.770   1.747  11.082  0.7265  0.2076 -0.6378
   84MOL0     O10959   0.662   1.839  11.063 -0.2194 -0.2358  0.3544
   84MOL0     C10960   0.640   1.931  11.160  0.3864  0.0788  0.7701
   84MOL0     C10961   0.738   1.994  11.230 -0.2744 -0.2308 -0.1414
   84MOL0     C10962   0.710   2.097  11.318 -0.3478  0.0695  0.2449
   84MOL0     C10963   0.586   2.139  11.339  0.4404 -0.4912 -0.0898
   84MOL0     O10964   0.564   2.234  11.432  0.4177 -0.1249  0.2116
   84MOL0     C10965   0.431   2.261  11.478 -0.0934  0.1040 -1.0865
   84MOL0     C10966   0.444   2.390  11.560  0.4551  0.1179  0.0016
   84MOL0     C10967   0.317   2.440  11.625  0.7971  1.1750  0.7986
   84MOL0     C10968   0.231   2.322  11.696  0.0196 -0.1884  0.7416
   84MOL0     C10969   0.168   2.371  11.824  0.5051  0.1210 -0.2173
   84MOL0     C10970   0.088   2.262  11.897 -0.2636 -0.1242 -1.0645
   84MOL0     C10971   0.012   2.335  12.017 -0.3323  0.3366  0.1161
   84MOL0     C10972  -0.041   2.248  12.133  0.3384  0.9845  0.2589
   84MOL0     N10973  -0.118   2.127  12.079  0.0522  0.3822 -0.3346
   84MOL0     C10974  -0.251   2.124  12.034  1.0751 -0.0504  0.1823
   84MOL0     C10975  -0.259   2.008  11.969  0.4794  0.3019 -0.2119
   84MOL0     C10976  -0.385   1.951  11.895 -0.9695  0.0244  0.2836
   84MOL0     C10977  -0.432   2.040  11.789 -0.1076 -0.0471 -0.9528
   84MOL0     C10978  -0.321   2.091  11.690 -0.1009 -0.2165  0.1402
   84MOL0     C10979  -0.315   1.987  11.572  0.6155  0.3820 -0.7689
   84MOL0     O10980  -0.208   1.988  11.477 -0.0008 -0.7890  0.6652
   84MOL0     C10981  -0.070   1.985  11.523  0.1308  0.1797  0.2962
   84MOL0     C10982   0.048   2.011  11.442 -0.4192  0.1152  0.1408
   84MOL0     C10983   0.176   1.985  11.490  0.7183 -0.0503  1.0438
   84MOL0     C10984   0.198   1.918  11.604  1.0718 -0.0695  0.5459
   84MOL0     C10985   0.337   1.899  11.648 -0.1690 -0.2645  0.1120
   84MOL0     O10986   0.431   1.874  11.550 -0.4379  0.4733 -0.1760
   84MOL0     C10987   0.566   1.890  11.581  0.3647 -0.4165 -0.6516
   84MOL0     C10988   0.641   1.789  11.541 -0.2616  0.0993  0.0331
   84MOL0     C10989   0.774   1.796  11.560  0.7680 -0.7187 -0.3944
   84MOL0     C10990   0.835   1.894  11.643  0.6017 -0.0630  0.5821
   84MOL0     O10991   0.971   1.904  11.651  0.0737  0.4599  0.4200
   84MOL0     C10992   1.047   1.895  11.529  0.3743  0.4370 -0.5035
   84MOL0     C10993   1.112   2.035  11.494  0.6054  0.1792  0.0377
   84MOL0     C10994   1.202   2.038  11.375 -1.0029 -0.3950 -0.0077
   84MOL0     C10995   1.132   1.995  11.247  0.8253 -0.0577  1.5270
   84MOL0     C10996   1.225   1.989  11.125 -0.3192  0.3677  0.2827
   84MOL0     C10997   1.312   1.859  11.126  0.1281 -0.0562  0.3555
   84MOL0     C10998   1.414   1.871  11.008 -0.3537 -0.1607 -0.1994
   84MOL0     C10999   1.419   1.743  10.911  0.4618  0.3841  0.2975
   84MOL0    Cl11000   1.508   1.795  10.763  0.4473 -0.5157  0.1749
   84MOL0     C11001   0.750   1.995  11.695  1.1990  0.5113  0.2801
   84MOL0     C11002   0.611   1.989  11.659 -0.3249 -1.5679 -0.6418
   84MOL0     O11003   0.355   1.900  11.774 -0.1594  0.1149 -0.2795
   84MOL0     C11004   0.088   1.894  11.685  0.5468  0.1319  0.2468
   84MOL0     C11005  -0.043   1.929  11.652 -0.0051  1.0305 -0.1238
   84MOL0     N11006  -0.142   1.936  11.999  0.0713 -0.2264 -1.0727
   84MOL0     N11007  -0.071   2.003  12.077  0.3896  1.0016 -0.4751
   84MOL0     C11008   0.485   2.076  11.280  0.5520  0.3088 -0.5310
   84MOL0     C11009   0.510   1.973  11.190 -0.1431 -0.5271  0.3376
   84MOL0     C11010   0.811   1.679  10.965 -0.3435  0.4091 -0.1232
   84MOL0     C11011   0.837   1.537  10.954 -0.3466  0.3215 -0.7181
   84MOL0     C11012   0.874   1.479  10.831 -0.6466 -0.4863  0.0039
   84MOL0     C11013   0.897   1.567  10.725  0.4218 -0.3670 -0.1610
   84MOL0     O11014   0.946   1.530  10.601  0.0964 -0.1818  0.5019
   84MOL0     C11015   1.009   1.402  10.583 -0.7643  0.2504  0.5738
   84MOL0     C11016   1.144   1.400  10.656 -0.2493 -0.2323  0.1517
   84MOL0     C11017   1.201   1.265  10.703  0.3012  0.7483  0.0492
   84MOL0     C11018   1.278   1.278  10.832 -0.3405  0.2164  0.4703
   84MOL0     C11019   1.398   1.357  10.815 -0.6271  0.6131  0.5090
   84MOL0     C11020   1.507   1.414  10.809  0.2845  0.1747  0.6385
   84MOL0     C11021   0.864   1.699  10.741  0.3141 -0.0886 -0.5724
   84MOL0     C11022   0.822   1.756  10.854  1.3445 -0.3311 -0.2334
   84MOL0     H11023   0.843   1.967  11.234  0.3014  1.8072 -0.6172
   84MOL0     H11024   0.787   2.147  11.375 -1.1028  0.4121  0.9839
   84MOL0     H11025   0.386   2.185  11.542 -2.1318  2.6606  0.6757
   84MOL0     H11026   0.361   2.293  11.400 -1.1418 -1.6264 -0.9049
   84MOL0     H11027   0.494   2.467  11.501  3.3511 -1.3318  0.3848
   84MOL0     H11028   0.510   2.362  11.643  0.9441 -4.1384 -1.5601
   84MOL0     H11029   0.256   2.489  11.549  0.9313  2.5009  1.5251
   84MOL0     H11030   0.337   2.510  11.706  1.2746  0.3979  1.3725
   84MOL0     H11031   0.154   2.278  11.632 -1.2449 -2.0413  3.3619
   84MOL0     H11032   0.289   2.232  11.719 -1.4141 -1.5026 -0.6040
   84MOL0     H11033   0.110   2.461  11.800 -0.7376 -1.1331 -2.1610
   84MOL0     H11034   0.250   2.399  11.891  2.5464 -1.1016 -2.1116
   84MOL0     H11035   0.159   2.185  11.928  0.4118  0.8427 -0.1061
   84MOL0     H11036   0.016   2.220  11.827 -0.1340 -2.4224  0.0968
   84MOL0     H11037   0.079   2.406  12.067 -0.5807  0.9412 -0.3938
   84MOL0     H11038  -0.067   2.393  11.968 -1.5501 -1.9995 -0.8316
   84MOL0     H11039  -0.097   2.302  12.209  1.8485 -1.6391  3.4623
   84MOL0     H11040   0.041   2.208  12.193 -1.5610  0.8464  2.9489
   84MOL0     H11041  -0.321   2.207  12.037 -1.5706 -2.1450  1.4684
   84MOL0     H11042  -0.454   1.936  11.979  1.7826  1.0152  2.9148
   84MOL0     H11043  -0.349   1.855  11.858  0.5415 -0.1699  2.1138
   84MOL0     H11044  -0.472   2.133  11.831  0.5973  0.3873 -1.2213
   84MOL0     H11045  -0.513   1.987  11.738  2.6058 -2.5868 -2.9439
   84MOL0     H11046  -0.351   2.190  11.655  0.7422  0.0838  0.2540
   84MOL0     H11047  -0.220   2.100  11.732 -0.4757  1.4712  0.7746
   84MOL0     H11048  -0.406   1.995  11.513 -1.3209  0.2219  1.9838
   84MOL0     H11049  -0.323   1.887  11.617 -2.7290  1.1310  0.5789
   84MOL0     H11050   0.020   2.067  11.354 -2.9355  0.1861  0.9131
   84MOL0     H11051   0.256   2.017  11.424  0.5344  4.7059  2.7213
   84MOL0     H11052   0.602   1.718  11.468 -0.5051  1.0448 -0.7746
   84MOL0     H11053   0.828   1.722  11.502 -0.9063 -1.9940 -0.4081
   84MOL0     H11054   0.991   1.875  11.437 -1.5771  4.3880 -0.3792
   84MOL0     H11055   1.123   1.821  11.554  0.4016  0.8015  0.5230
   84MOL0     H11056   1.164   2.068  11.584 -0.8430  0.4500  0.7999
   84MOL0     H11057   1.043   2.118  11.478  0.9461  0.6445  0.9150
   84MOL0     H11058   1.285   1.971  11.400 -1.5804 -1.9674 -1.9818
   84MOL0     H11059   1.239   2.140  11.365  1.7023 -1.2030  0.7003
   84MOL0     H11060   1.091   1.894  11.256 -4.5727  1.4180 -1.9701
   84MOL0     H11061   1.041   2.054  11.238 -0.9349 -2.5100  2.3953
   84MOL0     H11062   1.295   2.071  11.144  0.0375  0.2571 -0.5204
   84MOL0     H11063   1.164   1.993  11.034  2.5703 -0.4370 -1.8620
   84MOL0     H11064   1.244   1.775  11.109 -2.5762  2.4013 -2.1477
   84MOL0     H11065   1.366   1.849  11.221  0.1595 -2.4321  0.1505
   84MOL0     H11066   1.385   1.955  10.943  2.0041  0.4182 -0.5997
   84MOL0     H11067   1.512   1.889  11.053  0.6654 -0.2202 -2.2828
   84MOL0     H11068   1.315   1.717  10.889  0.9896 -0.6263 -1.1604
   84MOL0     H11069   1.485   1.672  10.961 -0.6432  0.1419  1.4414
   84MOL0     H11070   0.798   2.083  11.737 -1.8672  1.9419  1.0078
   84MOL0     H11071   0.551   2.075  11.687 -0.7727 -2.3785  1.0386
   84MOL0     H11072   0.109   1.862  11.787 -1.4818  1.1952  1.0576
   84MOL0     H11073  -0.111   1.911  11.734 -1.1547 -1.0080 -1.4650
   84MOL0     H11074   0.379   2.098  11.285 -0.0859 -2.5490  0.7469
   84MOL0     H11075   0.423   1.935  11.136 -0.4262  1.4251 -0.6617
   84MOL0     H11076   0.834   1.460  11.030 -0.1619 -1.4711 -2.4475
   84MOL0     H11077   0.876   1.371  10.822 -2.2007 -0.3993 -1.8440
   84MOL0     H11078   1.018   1.375  10.478 -2.1775  0.4840  0.3772
   84MOL0     H11079   0.953   1.325  10.638 -1.3852 -0.2139 -0.6785
   84MOL0     H11080   1.218   1.449  10.592  1.3572  2.4416  3.6710
   84MOL0     H11081   1.147   1.467  10.743  0.6845 -1.2452  0.9323
   84MOL0     H11082   1.263   1.216  10.627 -1.1364  0.1432 -0.7918
   84MOL0     H11083   1.120   1.196  10.732 -1.1569  0.6531 -3.6948
   84MOL0     H11084   1.216   1.335  10.901 -2.8335 -0.9150 -0.6953
   84MOL0     H11085   1.291   1.175  10.868 -0.5127  0.2373  0.5925
   84MOL0     H11086   1.602   1.462  10.799 -0.2182  0.7656 -1.9719
   84MOL0     H11087   0.892   1.758  10.655 -0.2362  0.3671 -0.4442
   84MOL0     H11088   0.798   1.861  10.866  1.6208 -0.3413  0.4887
   85MOL0     O11089   8.650   1.877   0.106  0.0362 -0.0567  0.9005
   85MOL0     C11090   8.590   1.771   0.122 -0.4993  0.2953 -0.0837
   85MOL0     O11091   8.461   1.761   0.183 -0.0259 -0.0284  0.2343
   85MOL0     C11092   8.411   1.884   0.206  0.1085 -0.6252 -1.3158
   85MOL0     C11093   8.419   1.949   0.330  0.3482  0.5486  0.3240
   85MOL0     C11094   8.365   2.071   0.361  1.5128 -0.1228 -0.1613
   85MOL0     C11095   8.288   2.143   0.270  0.3107  0.2807  0.3618
   85MOL0     O11096   8.215   2.260   0.297  0.1828  0.1256 -0.0573
   85MOL0     C11097   8.291   2.374   0.358 -0.3980 -0.5757  0.3537
   85MOL0     C11098   8.361   2.451   0.246 -0.5719  0.4368 -0.6497
   85MOL0     C11099   8.265   2.529   0.159 -0.1505  0.6120  0.3979
   85MOL0     C11100   8.209   2.654   0.240  0.1243 -0.1600 -0.5690
   85MOL0     C11101   8.109   2.730   0.154 -0.0100  0.0122 -0.0397
   85MOL0     C11102   8.034   2.841   0.241 -1.4349 -0.6945  0.3992
   85MOL0     C11103   7.928   2.916   0.154 -0.3741 -0.8602 -0.2228
   85MOL0     C11104   7.997   3.006   0.054 -0.2922 -0.2031  1.0545
   85MOL0     N11105   7.882   3.082  -0.016  0.1024 -0.0062  0.4088
   85MOL0     C11106   7.834   3.210   0.016 -0.7625  0.4126  0.0516
   85MOL0     C11107   7.719   3.214  -0.046  0.4376  0.6464  0.1104
   85MOL0     C11108   7.640   3.340  -0.056  0.6491 -1.0292 -0.8059
   85MOL0     C11109   7.572   3.370  -0.188 -0.5542 -0.2597 -0.7067
   85MOL0     C11110   7.464   3.477  -0.174 -0.1440 -0.0123 -0.4321
   85MOL0     C11111   7.413   3.548  -0.294  0.4022 -0.7999 -0.0451
   85MOL0     O11112   7.340   3.670  -0.253 -0.3731  0.1713 -0.2624
   85MOL0     C11113   7.200   3.671  -0.282 -0.6290  0.0716  0.8548
   85MOL0     C11114   7.148   3.790  -0.321 -0.4910  0.3366 -0.1967
   85MOL0     C11115   7.007   3.812  -0.330 -1.0650 -0.0891 -0.4664
   85MOL0     C11116   6.921   3.701  -0.320  0.3423 -0.0757  0.4902
   85MOL0     C11117   6.775   3.714  -0.344 -0.3726 -0.3711 -0.8153
   85MOL0     O11118   6.742   3.818  -0.430 -0.3240 -0.2948  0.3451
   85MOL0     C11119   6.610   3.824  -0.458  0.5537 -0.3715  0.1758
   85MOL0     C11120   6.544   3.776  -0.567  0.2921  0.1084  0.7091
   85MOL0     C11121   6.404   3.794  -0.574  0.1295  0.0268 -0.0314
   85MOL0     C11122   6.330   3.849  -0.468 -0.3160 -0.5424 -0.4430
   85MOL0     O11123   6.193   3.855  -0.479  0.3304 -0.4548  0.0605
   85MOL0     C11124   6.121   3.887  -0.355 -0.2712 -0.2898  0.4486
   85MOL0     C11125   5.969   3.875  -0.377  0.1409 -1.3627 -0.0136
   85MOL0     C11126   5.892   3.920  -0.244 -0.1076  0.3588 -0.1217
   85MOL0     C11127   5.738   3.934  -0.271 -0.9197  0.0924  0.4846
   85MOL0     C11128   5.668   3.981  -0.138 -0.5287 -0.4189 -1.0251
   85MOL0     C11129   5.517   3.989  -0.157  0.4670 -0.3300  0.5092
   85MOL0     C11130   5.460   4.031  -0.029 -0.0620 -0.6443  0.2409
   85MOL0     C11131   5.302   4.021  -0.021  0.4789  0.0816  0.5419
   85MOL0    Cl11132   5.210   4.066  -0.169  0.0668  0.2459 -0.3221
   85MOL0     C11133   6.403   3.880  -0.352 -0.7575  0.8927 -0.2839
   85MOL0     C11134   6.539   3.882  -0.358 -0.2533 -0.4016  0.1424
   85MOL0     O11135   6.693   3.646  -0.282  0.2510  0.1748  0.2354
   85MOL0     C11136   6.976   3.577  -0.288 -0.5130 -0.0016  0.3255
   85MOL0     C11137   7.110   3.571  -0.266 -0.3853 -0.6561 -0.1089
   85MOL0     N11138   7.685   3.100  -0.117 -1.0075 -0.2265  0.2679
   85MOL0     N11139   7.794   3.025  -0.095  1.2397 -0.6691  0.5671
   85MOL0     C11140   8.280   2.088   0.143 -0.0563  0.9311 -0.7622
   85MOL0     C11141   8.338   1.959   0.111  0.2447 -0.4634  0.5760
   85MOL0     C11142   8.659   1.648   0.064 -1.2513 -0.5648  0.3491
   85MOL0     C11143   8.591   1.526   0.060 -0.7731 -0.3586 -1.2449
   85MOL0     C11144   8.658   1.417   0.003  0.1022  0.0235 -0.4120
   85MOL0     C11145   8.780   1.425  -0.061 -0.1916  0.5048 -1.2222
   85MOL0     O11146   8.827   1.309  -0.113 -0.5157  0.4619 -0.0736
   85MOL0     C11147   8.954   1.309  -0.184  0.3766  0.3468  0.1357
   85MOL0     C11148   8.948   1.362  -0.328  0.6783  0.8744  0.3788
   85MOL0     C11149   9.084   1.357  -0.403 -0.0919 -0.3307 -0.7599
   85MOL0     C11150   9.078   1.421  -0.538 -0.5383  0.0635  1.3494
   85MOL0     C11151   8.977   1.356  -0.616  0.7559 -0.1271  0.3827
   85MOL0     C11152   8.894   1.313  -0.700  0.2165 -0.0110 -0.4560
   85MOL0     C11153   8.839   1.550  -0.070 -1.2469 -0.3815 -0.3812
   85MOL0     C11154   8.773   1.659  -0.007 -0.3440  0.4441  0.9423
   85MOL0     H11155   8.466   1.898   0.413  0.6500 -2.3908 -1.4917
   85MOL0     H11156   8.388   2.127   0.450 -0.9362 -0.1931  0.5953
   85MOL0     H11157   8.367   2.344   0.431  2.0611  0.8842 -1.4494
   85MOL0     H11158   8.225   2.445   0.409 -0.1075 -0.7493  0.9754
   85MOL0     H11159   8.413   2.385   0.176 -1.4056  1.8655 -2.7216
   85MOL0     H11160   8.435   2.516   0.295  1.4475 -2.9216  1.1188
   85MOL0     H11161   8.182   2.463   0.131  1.0900 -0.4744 -0.8988
   85MOL0     H11162   8.307   2.573   0.068 -1.4883  0.7530 -0.1817
   85MOL0     H11163   8.155   2.627   0.331  0.8012 -0.6961 -0.3089
   85MOL0     H11164   8.282   2.728   0.273  1.3882 -2.4634  2.2739
   85MOL0     H11165   8.038   2.667   0.100  0.9047 -0.9494 -0.1591
   85MOL0     H11166   8.163   2.771   0.068 -2.1716  0.0839 -1.4549
   85MOL0     H11167   8.115   2.896   0.290 -1.4129 -0.8140  0.4976
   85MOL0     H11168   7.986   2.801   0.331  0.6861 -0.0122  1.9296
   85MOL0     H11169   7.873   2.835   0.104 -0.6463 -1.2678  0.6973
   85MOL0     H11170   7.864   2.970   0.224  2.5604  2.8141 -0.0694
   85MOL0     H11171   8.051   2.958  -0.028  0.6950  1.2138  0.8338
   85MOL0     H11172   8.067   3.074   0.103 -0.5910 -2.3971  4.8658
   85MOL0     H11173   7.890   3.271   0.087 -3.4519 -1.6756  4.3811
   85MOL0     H11174   7.703   3.429  -0.042 -0.9260 -0.1408  1.2883
   85MOL0     H11175   7.569   3.348   0.027  2.8153  1.9109  0.9583
   85MOL0     H11176   7.521   3.279  -0.221 -0.7176 -0.8846  1.1497
   85MOL0     H11177   7.654   3.389  -0.257  1.8526 -2.1297  1.4097
   85MOL0     H11178   7.374   3.431  -0.132  2.3411 -3.6422  1.4678
   85MOL0     H11179   7.501   3.556  -0.107 -1.4251  0.0720  0.2143
   85MOL0     H11180   7.362   3.473  -0.355  1.3575 -1.6856  0.2262
   85MOL0     H11181   7.501   3.580  -0.351  0.7607  0.3670  1.1026
   85MOL0     H11182   7.218   3.872  -0.336  1.8351 -1.5292 -0.0127
   85MOL0     H11183   6.959   3.908  -0.346  1.1625  1.4598  1.4547
   85MOL0     H11184   6.595   3.730  -0.651  1.4488 -3.7685  3.2526
   85MOL0     H11185   6.360   3.783  -0.673 -0.9546  0.5788  0.3731
   85MOL0     H11186   6.140   3.990  -0.322 -1.5158 -0.0092  0.3430
   85MOL0     H11187   6.145   3.816  -0.275  0.1791  0.4982  1.0412
   85MOL0     H11188   5.922   3.784  -0.416  0.1182 -1.4940  0.3151
   85MOL0     H11189   5.946   3.951  -0.452  0.1763  1.9040  3.0230
   85MOL0     H11190   5.933   4.012  -0.201  0.5623 -0.1307  0.3000
   85MOL0     H11191   5.917   3.838  -0.176  4.4161  1.9068  0.4167
   85MOL0     H11192   5.718   4.014  -0.343 -0.3088 -0.7430 -0.6375
   85MOL0     H11193   5.694   3.838  -0.300  0.9934 -0.4524 -0.8266
   85MOL0     H11194   5.710   4.076  -0.104 -2.3192 -0.3966  1.4200
   85MOL0     H11195   5.693   3.910  -0.060  3.0384  0.6261 -1.0652
   85MOL0     H11196   5.472   3.896  -0.193 -0.4477 -0.0488  0.8942
   85MOL0     H11197   5.501   4.064  -0.235  1.2618 -2.2726 -1.6493
   85MOL0     H11198   5.498   3.968   0.053  2.6216  3.0793  2.1779
   85MOL0     H11199   5.494   4.132  -0.004 -2.5836 -0.0695  1.6571
   85MOL0     H11200   5.269   4.076   0.067 -2.4417 -0.2055 -0.2772
   85MOL0     H11201   5.265   3.918  -0.009 -1.6569  0.3717 -2.5338
   85MOL0     H11202   6.349   3.899  -0.259  1.4413  0.4355  1.1766
   85MOL0     H11203   6.586   3.921  -0.268  1.7179 -0.6473 -0.7388
   85MOL0     H11204   6.910   3.490  -0.289 -1.8693  0.8903 -2.7997
   85MOL0     H11205   7.154   3.483  -0.220 -0.2911 -0.7229 -0.3264
   85MOL0     H11206   8.228   2.144   0.066 -2.2617 -0.6185 -0.4955
   85MOL0     H11207   8.321   1.923   0.010 -0.5776  2.2446 -0.3245
   85MOL0     H11208   8.497   1.520   0.114 -0.1101  0.7243  0.0980
   85MOL0     H11209   8.597   1.327   0.003 -1.0130  0.7428  1.0007
   85MOL0     H11210   8.979   1.204  -0.199  0.0284  0.5884 -2.7147
   85MOL0     H11211   9.034   1.355  -0.125  0.0296  0.9423  0.1506
   85MOL0     H11212   8.879   1.297  -0.384 -0.2714  1.3875  0.9316
   85MOL0     H11213   8.904   1.462  -0.329 -0.4623  0.4823  2.9176
   85MOL0     H11214   9.128   1.258  -0.417 -1.2732 -1.1182  0.8135
   85MOL0     H11215   9.146   1.428  -0.347 -1.4494  1.6392 -1.6253
   85MOL0     H11216   9.066   1.530  -0.535  2.7695  0.6594 -1.3409
   85MOL0     H11217   9.177   1.404  -0.581 -1.3246 -0.2282 -0.4442
   85MOL0     H11218   8.818   1.290  -0.771 -0.5001 -1.9001  0.8506
   85MOL0     H11219   8.932   1.561  -0.124 -1.3666  3.3587 -0.1129
   85MOL0     H11220   8.828   1.752  -0.017 -0.6477  0.3641 -5.0887
   86MOL0     O11221   5.374   0.962   8.801 -0.4408  0.4112 -0.1809
   86MOL0     C11222   5.383   0.839   8.827 -0.2306 -0.5222  0.0331
   86MOL0     O11223   5.276   0.758   8.863 -0.2673 -1.1486 -0.1124
   86MOL0     C11224   5.150   0.818   8.876 -0.1614  0.1196  0.3372
   86MOL0     C11225   5.124   0.932   8.960 -1.0088  0.2686  0.4157
   86MOL0     C11226   5.002   0.987   8.956  0.2859  0.8366 -0.1684
   86MOL0     C11227   4.894   0.931   8.884 -1.3066 -0.4875  0.5448
   86MOL0     O11228   4.773   1.001   8.893 -0.0919  0.3050  0.6546
   86MOL0     C11229   4.661   0.961   8.802 -0.1990  0.2403 -0.3367
   86MOL0     C11230   4.549   1.046   8.838 -0.3926 -0.1784  0.5056
   86MOL0     C11231   4.531   1.066   8.990  0.3121 -0.2441  0.1778
   86MOL0     C11232   4.405   1.145   9.012 -0.2160  0.2270 -0.0768
   86MOL0     C11233   4.385   1.174   9.163  0.5871 -0.7549  0.2049
   86MOL0     C11234   4.257   1.246   9.200 -0.3267  0.4116  0.2570
   86MOL0     C11235   4.119   1.218   9.142 -0.4020 -0.1006  0.2502
   86MOL0     C11236   4.071   1.071   9.139 -0.0687 -0.7869  0.0807
   86MOL0     N11237   3.955   1.055   9.061  0.2962  0.4810 -0.9434
   86MOL0     C11238   3.825   1.035   9.102 -0.7397  0.0183 -0.1108
   86MOL0     C11239   3.749   1.054   9.000 -0.1953  0.4423 -0.0594
   86MOL0     C11240   3.606   1.015   8.992  0.1787 -1.2448  0.2475
   86MOL0     C11241   3.566   0.880   9.045  0.8333 -0.6535  0.0114
   86MOL0     C11242   3.633   0.748   8.996 -0.1399 -0.8269 -0.1872
   86MOL0     C11243   3.631   0.731   8.841 -0.1240 -0.7151 -1.0570
   86MOL0     O11244   3.643   0.600   8.799 -0.6259  0.2393  0.5709
   86MOL0     C11245   3.543   0.509   8.810 -0.3865 -0.9194  0.1106
   86MOL0     C11246   3.547   0.377   8.756  0.2123 -0.4174  0.2271
   86MOL0     C11247   3.443   0.290   8.776  0.3063 -0.0537  0.3026
   86MOL0     C11248   3.330   0.323   8.844  0.7837  0.4732 -0.0283
   86MOL0     C11249   3.223   0.231   8.862  0.3506 -0.1808 -0.8676
   86MOL0     O11250   3.226   0.118   8.791 -0.3157  0.1074  0.1555
   86MOL0     C11251   3.127   0.008   8.810  1.1060 -0.6434 -0.6031
   86MOL0     C11252   3.169  -0.124   8.845  0.7961  0.2956 -0.4355
   86MOL0     C11253   3.074  -0.223   8.849  0.4908 -0.0835  0.1301
   86MOL0     C11254   2.940  -0.203   8.836 -0.1888 -0.4234  0.3488
   86MOL0     O11255   2.865  -0.310   8.821  0.5668  0.2481  0.1946
   86MOL0     C11256   2.729  -0.314   8.870  0.3818  0.9812 -0.1259
   86MOL0     C11257   2.664  -0.454   8.835  0.8110 -0.2729  0.9068
   86MOL0     C11258   2.519  -0.452   8.831 -0.2805  0.2620 -0.1581
   86MOL0     C11259   2.467  -0.591   8.780  0.6924 -0.2991 -0.2432
   86MOL0     C11260   2.321  -0.603   8.747  0.3014  0.4270 -0.7908
   86MOL0     C11261   2.283  -0.725   8.667  0.2220 -0.6450  0.8199
   86MOL0     C11262   2.267  -0.842   8.761 -0.4884  0.1881  0.4029
   86MOL0     C11263   2.136  -0.857   8.841  0.3216 -0.8045  0.2328
   86MOL0    Cl11264   2.009  -0.963   8.771  0.0239  0.0272  0.2434
   86MOL0     C11265   2.892  -0.067   8.837  0.0038  0.7363 -0.3092
   86MOL0     C11266   2.986   0.035   8.819  0.0601 -0.4813  0.7919
   86MOL0     O11267   3.127   0.267   8.925  0.4644 -0.1418 -0.3381
   86MOL0     C11268   3.314   0.451   8.889  0.2117 -0.0276 -0.4174
   86MOL0     C11269   3.419   0.546   8.872  0.4439  0.0371  0.2320
   86MOL0     N11270   3.837   1.072   8.895 -0.1725 -0.0476  0.3030
   86MOL0     N11271   3.959   1.081   8.935 -0.4421  0.1186 -0.4674
   86MOL0     C11272   4.919   0.814   8.798 -0.0195  0.5976  0.0520
   86MOL0     C11273   5.051   0.758   8.788 -0.0786  0.4410 -0.7637
   86MOL0     C11274   5.519   0.778   8.835 -0.0411  0.3256  0.6470
   86MOL0     C11275   5.540   0.639   8.854 -0.2914  0.7429 -0.1158
   86MOL0     C11276   5.661   0.576   8.838 -0.1862 -0.6573  0.6160
   86MOL0     C11277   5.775   0.649   8.787  0.3536 -0.2781 -0.1042
   86MOL0     O11278   5.893   0.581   8.768 -0.5765 -0.3797 -0.3943
   86MOL0     C11279   6.014   0.653   8.752 -0.4850 -0.6880 -0.1782
   86MOL0     C11280   6.023   0.694   8.601  0.2901 -0.2085 -0.6129
   86MOL0     C11281   6.145   0.632   8.532  0.2007 -0.1013  0.0770
   86MOL0     C11282   6.263   0.729   8.510  0.7831 -0.2821  0.1937
   86MOL0     C11283   6.374   0.671   8.425  0.6955  0.4969 -0.7712
   86MOL0     C11284   6.462   0.617   8.367  0.0887  0.4622 -0.0645
   86MOL0     C11285   5.755   0.790   8.766  0.6884 -0.0659 -0.4875
   86MOL0     C11286   5.627   0.844   8.781 -1.8042 -1.0693  0.5403
   86MOL0     H11287   5.202   0.978   9.018  0.0685 -1.2794  0.2548
   86MOL0     H11288   4.979   1.075   9.015  1.5454 -0.4656  2.4381
   86MOL0     H11289   4.630   0.859   8.824  0.4052 -0.2940 -1.7862
   86MOL0     H11290   4.691   0.965   8.697  0.3439 -0.5257 -0.2172
   86MOL0     H11291   4.460   0.994   8.803  0.1160 -1.2491  0.7653
   86MOL0     H11292   4.568   1.147   8.801 -1.2386 -0.7591 -1.6581
   86MOL0     H11293   4.619   1.119   9.027 -0.8345  2.4729 -0.7913
   86MOL0     H11294   4.518   0.963   9.025 -1.2156 -1.2056 -2.8213
   86MOL0     H11295   4.404   1.243   8.963 -0.4717  2.1890  3.5631
   86MOL0     H11296   4.322   1.092   8.965 -0.8103  1.2211 -0.1578
   86MOL0     H11297   4.465   1.242   9.195 -0.1929  0.5068 -0.4386
   86MOL0     H11298   4.385   1.081   9.220 -2.2945 -1.8964 -1.4138
   86MOL0     H11299   4.272   1.354   9.190  0.7173  0.4161  1.4635
   86MOL0     H11300   4.255   1.222   9.307  0.0689  0.3595  0.2566
   86MOL0     H11301   4.050   1.280   9.199 -1.2178 -2.2001  1.6663
   86MOL0     H11302   4.121   1.258   9.040 -5.0089  0.5151  0.1928
   86MOL0     H11303   4.049   1.038   9.242  0.6956  2.9936  1.6416
   86MOL0     H11304   4.159   1.019   9.102 -0.7690 -0.8850 -1.5164
   86MOL0     H11305   3.800   1.008   9.204  0.9703 -1.5298 -0.0355
   86MOL0     H11306   3.577   1.008   8.887 -3.1913 -1.4428  1.1049
   86MOL0     H11307   3.541   1.094   9.031 -1.7941 -1.7305 -1.8421
   86MOL0     H11308   3.459   0.861   9.037  1.2491 -4.8505  1.8094
   86MOL0     H11309   3.584   0.895   9.152 -2.4360 -0.5812  0.6357
   86MOL0     H11310   3.733   0.744   9.040 -0.7239  0.7429  1.3736
   86MOL0     H11311   3.579   0.662   9.037  0.0650 -2.6707 -3.4074
   86MOL0     H11312   3.721   0.778   8.800  3.2955 -1.4621  4.4597
   86MOL0     H11313   3.538   0.778   8.808  0.0998  0.8658  0.4104
   86MOL0     H11314   3.642   0.349   8.713 -0.6143  0.1585 -2.1261
   86MOL0     H11315   3.452   0.195   8.723  1.6658 -1.5655  3.0143
   86MOL0     H11316   3.274  -0.149   8.855  0.5059  0.0277  3.0711
   86MOL0     H11317   3.122  -0.320   8.861  0.6319  0.2129  2.5743
   86MOL0     H11318   2.677  -0.233   8.818  2.5800 -0.4175 -5.1502
   86MOL0     H11319   2.728  -0.315   8.979  2.3891 -1.4428 -0.0337
   86MOL0     H11320   2.703  -0.532   8.902  0.7240 -0.2220  1.0188
   86MOL0     H11321   2.693  -0.491   8.736 -1.2104  0.6996 -0.0931
   86MOL0     H11322   2.494  -0.371   8.762  1.6023  1.4866  0.5143
   86MOL0     H11323   2.466  -0.444   8.927 -0.1573 -4.7355  0.6163
   86MOL0     H11324   2.520  -0.618   8.688  0.1058  0.2166 -0.7444
   86MOL0     H11325   2.488  -0.670   8.852 -3.0683 -0.0696  1.3443
   86MOL0     H11326   2.293  -0.515   8.690 -0.8105 -0.3216 -1.4382
   86MOL0     H11327   2.257  -0.600   8.836 -0.5149 -0.6431 -1.3184
   86MOL0     H11328   2.364  -0.735   8.594 -0.1626 -1.2135  0.4621
   86MOL0     H11329   2.188  -0.713   8.614  0.0157 -0.5641  1.2037
   86MOL0     H11330   2.279  -0.925   8.691  3.4960  1.3917 -0.6034
   86MOL0     H11331   2.355  -0.857   8.825  1.6996  1.3083 -2.1389
   86MOL0     H11332   2.092  -0.759   8.859  0.6167 -0.1176 -2.4091
   86MOL0     H11333   2.158  -0.884   8.945  4.2833 -0.6254 -0.3948
   86MOL0     H11334   2.791  -0.038   8.813 -0.7233 -1.8643 -0.6921
   86MOL0     H11335   2.952   0.136   8.799  0.4944  0.4513  4.1327
   86MOL0     H11336   3.222   0.488   8.934  0.2186  0.4690 -0.7969
   86MOL0     H11337   3.392   0.649   8.895  0.1896  0.2744 -1.0486
   86MOL0     H11338   4.838   0.764   8.745  0.2928  0.9719 -0.8008
   86MOL0     H11339   5.063   0.667   8.732  1.3223 -0.5569  1.0545
   86MOL0     H11340   5.462   0.574   8.890  0.3589  0.8957  1.6648
   86MOL0     H11341   5.681   0.471   8.853  0.8580 -0.8640 -1.7585
   86MOL0     H11342   6.097   0.585   8.772  0.5344  0.5105 -0.1667
   86MOL0     H11343   6.037   0.735   8.821  1.6129  1.5999 -3.3009
   86MOL0     H11344   5.932   0.655   8.554 -1.1762  1.8932  0.3519
   86MOL0     H11345   6.018   0.803   8.600  2.1686 -0.1080 -1.1181
   86MOL0     H11346   6.121   0.587   8.435 -2.2125  0.3612  0.4007
   86MOL0     H11347   6.173   0.555   8.605  0.1642  1.5687  1.9517
   86MOL0     H11348   6.227   0.824   8.470  0.4594 -0.9374 -1.1306
   86MOL0     H11349   6.305   0.759   8.606  0.5630 -2.4720  1.0474
   86MOL0     H11350   6.552   0.571   8.332  0.2927  2.0448 -1.7792
   86MOL0     H11351   5.835   0.859   8.743  0.8191 -0.2437 -0.5632
   86MOL0     H11352   5.614   0.949   8.759 -0.8041 -0.5356  2.3053
   87MOL0     O11353   5.552   3.017   2.099  0.3989 -0.6434 -0.6487
   87MOL0     C11354   5.547   2.920   2.021  0.4571  0.9509 -0.2164
   87MOL0     O11355   5.428   2.870   1.965 -0.0542 -0.2546  0.2694
   87MOL0     C11356   5.319   2.944   1.986 -0.1843  0.1824  0.4489
   87MOL0     C11357   5.300   3.058   1.905 -1.1597 -0.5169 -0.4538
   87MOL0     C11358   5.192   3.139   1.934  0.6970  0.2772  0.0541
   87MOL0     C11359   5.090   3.105   2.026 -0.3344 -0.3253  0.3924
   87MOL0     O11360   4.984   3.184   2.035 -0.1414 -0.0670 -0.2561
   87MOL0     C11361   5.016   3.296   2.115  0.5382 -0.8020  0.3835
   87MOL0     C11362   4.900   3.393   2.101  0.7950 -0.4431 -0.0324
   87MOL0     C11363   4.851   3.393   1.951  1.0661 -0.6750 -0.7840
   87MOL0     C11364   4.725   3.482   1.947 -1.3723  0.5641 -0.5513
   87MOL0     C11365   4.665   3.502   1.811  0.5375  0.2405 -0.0315
   87MOL0     C11366   4.519   3.547   1.822 -0.4160 -0.5183  1.1485
   87MOL0     C11367   4.470   3.564   1.677  0.1195 -0.3945  0.3348
   87MOL0     C11368   4.325   3.618   1.673  0.2010 -0.4970  0.1891
   87MOL0     N11369   4.291   3.662   1.539 -0.3805  0.0635 -0.0328
   87MOL0     C11370   4.182   3.748   1.510 -0.0428  1.0256  0.0162
   87MOL0     C11371   4.160   3.733   1.379 -0.3657 -0.7300  0.4517
   87MOL0     C11372   4.072   3.823   1.290  0.0206  0.2482 -0.6979
   87MOL0     C11373   3.944   3.743   1.261  0.2818  0.2421 -0.2391
   87MOL0     C11374   3.835   3.826   1.197 -0.1570 -0.0817  0.1663
   87MOL0     C11375   3.850   3.838   1.048  0.3246 -0.6100 -0.2484
   87MOL0     O11376   3.724   3.883   1.003 -0.6948 -1.2572 -0.4726
   87MOL0     C11377   3.708   3.898   0.864  0.2845 -0.1763 -0.3077
   87MOL0     C11378   3.607   3.983   0.831 -0.1515 -0.0005 -0.6649
   87MOL0     C11379   3.574   4.010   0.698 -0.3366  0.9440 -0.4423
   87MOL0     C11380   3.630   3.937   0.595  0.9919 -0.6023 -0.4692
   87MOL0     C11381   3.585   3.965   0.451 -1.5569  0.0400 -0.6552
   87MOL0     O11382   3.684   3.941   0.351 -0.2269 -0.1014 -0.4592
   87MOL0     C11383   3.653   3.974   0.219 -0.6429  0.6284 -0.5470
   87MOL0     C11384   3.562   4.071   0.171  0.4385  0.0358 -0.6606
   87MOL0     C11385   3.556   4.088   0.037 -0.9418 -0.1479  0.2205
   87MOL0     C11386   3.629   4.007  -0.058 -0.5155  0.7686  0.7720
   87MOL0     O11387   3.606   3.997  -0.199  0.2157 -0.3452  0.5480
   87MOL0     C11388   3.484   4.048  -0.257 -0.5192  0.1261 -0.8141
   87MOL0     C11389   3.459   3.994  -0.395 -0.7161  0.0176  0.5690
   87MOL0     C11390   3.352   4.063  -0.471  0.4443  0.1196  0.5692
   87MOL0     C11391   3.409   4.190  -0.548 -0.0973 -0.4523 -0.3326
   87MOL0     C11392   3.501   4.150  -0.656 -0.8098 -0.3528  0.2426
   87MOL0     C11393   3.516   4.266  -0.755  0.0633 -1.0272 -0.0783
   87MOL0     C11394   3.572   4.234  -0.890 -0.5559  0.4928  0.6380
   87MOL0     C11395   3.719   4.179  -0.879  0.3052 -0.7280 -0.0103
   87MOL0    Cl11396   3.824   4.290  -0.790 -0.1328 -0.2964 -0.0184
   87MOL0     C11397   3.711   3.905  -0.006  0.0025  0.1399 -0.8219
   87MOL0     C11398   3.720   3.892   0.129  0.2439  0.3803  0.4015
   87MOL0     O11399   3.474   4.018   0.439 -0.1696 -0.2953 -0.2419
   87MOL0     C11400   3.734   3.845   0.624  0.2091 -0.4455  0.2445
   87MOL0     C11401   3.774   3.827   0.761 -1.2680 -1.2283  0.7499
   87MOL0     N11402   4.249   3.640   1.329  0.4975 -0.4750 -0.5169
   87MOL0     N11403   4.318   3.599   1.421 -0.5371  0.1126  0.0014
   87MOL0     C11404   5.109   2.988   2.102 -0.5254  0.3899  0.2801
   87MOL0     C11405   5.223   2.914   2.088  0.3483  0.1098  0.1109
   87MOL0     C11406   5.670   2.837   2.006 -0.1632  0.1627  0.3393
   87MOL0     C11407   5.765   2.856   2.105  0.3335  0.1129 -0.6106
   87MOL0     C11408   5.876   2.776   2.111 -0.3296  0.4981  0.3404
   87MOL0     C11409   5.894   2.679   2.010 -0.5243  0.6647 -1.3880
   87MOL0     O11410   6.005   2.595   1.990 -0.1023 -0.3741  0.2474
   87MOL0     C11411   6.105   2.584   2.094 -0.1841 -0.2719 -0.8008
   87MOL0     C11412   6.207   2.482   2.053  0.2104 -0.1174 -0.4143
   87MOL0     C11413   6.152   2.342   2.067 -0.2232 -0.1088 -0.7773
   87MOL0     C11414   6.216   2.243   1.977  0.1070 -0.1038  0.2335
   87MOL0     C11415   6.161   2.109   2.015  0.0641 -1.3346 -0.4644
   87MOL0     C11416   6.100   2.005   2.034 -0.0240  0.6136  0.3443
   87MOL0     C11417   5.795   2.657   1.918 -0.3317 -0.3169  1.7422
   87MOL0     C11418   5.684   2.741   1.915  0.0514  0.2194 -0.3174
   87MOL0     H11419   5.377   3.102   1.843  1.2513 -0.7119  2.1910
   87MOL0     H11420   5.195   3.236   1.886 -0.0245  0.9425  1.3079
   87MOL0     H11421   5.105   3.347   2.079 -1.5609  0.7766 -3.1607
   87MOL0     H11422   5.023   3.268   2.220  0.7785 -0.3651  0.4843
   87MOL0     H11423   4.936   3.490   2.137 -0.2722  0.4917 -1.3536
   87MOL0     H11424   4.816   3.365   2.165 -0.1402  3.5299  0.7122
   87MOL0     H11425   4.816   3.292   1.927  2.8897 -1.6098  0.2396
   87MOL0     H11426   4.925   3.413   1.873  1.9654 -2.7576 -0.5393
   87MOL0     H11427   4.660   3.437   2.023  1.2398 -1.9329  0.4169
   87MOL0     H11428   4.755   3.583   1.975 -1.0143  0.0724  0.9631
   87MOL0     H11429   4.678   3.407   1.759 -0.3213 -0.2150  0.5581
   87MOL0     H11430   4.729   3.574   1.759  2.0019 -0.2220  1.0373
   87MOL0     H11431   4.521   3.642   1.876  2.1754 -0.3393  0.8444
   87MOL0     H11432   4.470   3.467   1.879  0.3417 -0.5032  1.8357
   87MOL0     H11433   4.532   3.632   1.618  2.2175 -0.7427  1.9867
   87MOL0     H11434   4.465   3.466   1.628 -1.3149 -1.1229  1.8180
   87MOL0     H11435   4.325   3.701   1.745  1.0303  1.3191 -1.7774
   87MOL0     H11436   4.249   3.548   1.707  1.7233 -1.9997  0.6708
   87MOL0     H11437   4.129   3.813   1.578  1.4784  1.8228  0.4803
   87MOL0     H11438   4.135   3.843   1.203  1.2705  1.1868  0.3708
   87MOL0     H11439   4.045   3.918   1.338 -3.2772 -1.0299  0.1800
   87MOL0     H11440   3.904   3.699   1.352  2.2906 -0.7035  0.2502
   87MOL0     H11441   3.981   3.663   1.196  1.2114  0.5358 -0.0903
   87MOL0     H11442   3.734   3.785   1.205 -1.3840  2.7703  0.3523
   87MOL0     H11443   3.822   3.925   1.242 -2.8402 -1.0331  1.7431
   87MOL0     H11444   3.874   3.735   1.018  0.6161 -0.6188  0.0153
   87MOL0     H11445   3.936   3.898   1.017  0.3144 -0.6073 -0.2715
   87MOL0     H11446   3.571   4.052   0.908  0.4554  1.0786 -1.3174
   87MOL0     H11447   3.488   4.075   0.684 -1.1615  0.5025  2.0946
   87MOL0     H11448   3.490   4.126   0.230  1.1498  0.7582 -0.4449
   87MOL0     H11449   3.491   4.168   0.004  3.8394  2.6833 -3.8124
   87MOL0     H11450   3.494   4.156  -0.245  3.4616 -0.1461 -0.6142
   87MOL0     H11451   3.398   4.017  -0.197 -0.2722  0.0094 -0.5207
   87MOL0     H11452   3.429   3.889  -0.393 -0.9492  0.0220 -1.2733
   87MOL0     H11453   3.562   4.001  -0.429 -1.3002  1.8077 -1.0088
   87MOL0     H11454   3.273   4.105  -0.409  0.7771  0.6973  0.6077
   87MOL0     H11455   3.312   3.994  -0.546  0.9606 -2.1748  2.2659
   87MOL0     H11456   3.323   4.240  -0.592  0.1413  0.2250 -0.0440
   87MOL0     H11457   3.454   4.262  -0.479 -0.9519  0.5322 -0.7935
   87MOL0     H11458   3.470   4.055  -0.699 -1.7158 -0.1659  0.4559
   87MOL0     H11459   3.602   4.139  -0.618 -0.4464  2.7023  0.4650
   87MOL0     H11460   3.575   4.344  -0.708 -1.3460  0.1483 -0.1832
   87MOL0     H11461   3.415   4.307  -0.771 -0.6377 -2.4305  0.5470
   87MOL0     H11462   3.508   4.159  -0.937 -0.3679  0.9699 -0.4136
   87MOL0     H11463   3.567   4.320  -0.957 -2.9014  0.0672  0.1993
   87MOL0     H11464   3.761   4.154  -0.977  1.3460  1.2028 -0.1129
   87MOL0     H11465   3.727   4.098  -0.805  0.6469  1.5915  2.6459
   87MOL0     H11466   3.766   3.832  -0.065  2.5440 -0.9670  2.5475
   87MOL0     H11467   3.800   3.829   0.166  2.6442  3.3902  0.7355
   87MOL0     H11468   3.783   3.784   0.550  2.2002 -1.8060  2.5553
   87MOL0     H11469   3.857   3.762   0.789  0.1056  0.5883  1.0771
   87MOL0     H11470   5.035   2.955   2.174 -2.2630  1.6419 -0.8313
   87MOL0     H11471   5.245   2.831   2.154  0.8287 -1.2706 -1.6811
   87MOL0     H11472   5.751   2.931   2.183 -0.3496 -0.8410  0.2165
   87MOL0     H11473   5.954   2.784   2.186 -0.5537  1.6217  0.4644
   87MOL0     H11474   6.048   2.552   2.182 -3.1243 -0.7212 -2.7490
   87MOL0     H11475   6.152   2.682   2.105 -2.4239  0.6477  1.4822
   87MOL0     H11476   6.254   2.485   1.955 -1.6009 -3.4475 -1.5310
   87MOL0     H11477   6.288   2.501   2.124 -0.0371  1.2666 -0.4921
   87MOL0     H11478   6.045   2.351   2.042 -0.0561  3.9731 -0.6703
   87MOL0     H11479   6.155   2.318   2.173  1.8803  0.9045 -0.5636
   87MOL0     H11480   6.194   2.275   1.875 -0.0032 -0.7467  0.0491
   87MOL0     H11481   6.325   2.229   1.985  0.6414  1.8579 -2.2984
   87MOL0     H11482   6.045   1.915   2.052  0.3165  0.4899  0.8014
   87MOL0     H11483   5.803   2.578   1.845  0.3435 -0.7335  2.2584
   87MOL0     H11484   5.608   2.729   1.839  0.1342  0.7657 -0.4871
   88MOL0     O11485  10.316   7.234  10.571  0.1312 -0.1590 -0.5808
   88MOL0     C11486  10.369   7.293  10.661  0.1147 -1.2383  0.6303
   88MOL0     O11487  10.362   7.265  10.793  1.2237 -0.0936 -0.0920
   88MOL0     C11488  10.302   7.160  10.851 -0.1432  0.8744 -0.3065
   88MOL0     C11489  10.184   7.107  10.789  0.1812 -0.2943  0.4855
   88MOL0     C11490  10.095   7.030  10.856 -0.6643  0.1958 -0.0944
   88MOL0     C11491  10.123   6.976  10.986  0.2653 -0.4901  0.7734
   88MOL0     O11492  10.041   6.886  11.053 -0.3225  0.8060  0.0889
   88MOL0     C11493   9.952   6.801  10.973  0.2261 -0.0258 -0.9487
   88MOL0     C11494   9.915   6.681  11.063  0.1299 -0.8845  1.0445
   88MOL0     C11495  10.030   6.579  11.066  0.1015  0.4478 -0.1183
   88MOL0     C11496  10.006   6.452  11.149  1.2665 -0.7197 -0.7301
   88MOL0     C11497   9.992   6.498  11.297  0.3397  1.1968  0.4291
   88MOL0     C11498  10.021   6.376  11.391 -0.4593 -0.0684  0.7274
   88MOL0     C11499  10.047   6.424  11.531  0.2428  0.3548 -0.3090
   88MOL0     C11500   9.912   6.473  11.593  0.7301 -0.1156 -0.2592
   88MOL0     N11501   9.824   6.363  11.620  0.9891  0.5496 -0.0817
   88MOL0     C11502   9.850   6.253  11.701 -0.6199 -0.2610  1.1158
   88MOL0     C11503   9.751   6.169  11.664 -0.9122 -0.3779  0.2499
   88MOL0     C11504   9.733   6.032  11.724 -0.4160 -0.2965  0.1154
   88MOL0     C11505   9.692   5.929  11.617  0.2551  0.6365 -0.2891
   88MOL0     C11506   9.712   5.782  11.681  0.3846  0.4594  0.0700
   88MOL0     C11507   9.644   5.757  11.812  0.7743 -0.4869 -0.1636
   88MOL0     O11508   9.510   5.797  11.802  0.1890  0.7561 -0.1631
   88MOL0     C11509   9.414   5.707  11.773  0.6069 -0.3103 -0.3565
   88MOL0     C11510   9.288   5.731  11.843  0.6594 -0.0267  0.5118
   88MOL0     C11511   9.185   5.639  11.832 -0.1968 -0.4559 -0.5737
   88MOL0     C11512   9.188   5.520  11.767  0.4737 -0.9442  0.7297
   88MOL0     C11513   9.091   5.410  11.768  0.0278  1.0392 -0.3537
   88MOL0     O11514   9.108   5.285  11.694  0.3137  0.5956 -1.2215
   88MOL0     C11515   8.999   5.195  11.674 -0.0376  0.3580  0.0281
   88MOL0     C11516   8.907   5.161  11.773 -0.6532  0.2422 -0.4089
   88MOL0     C11517   8.816   5.052  11.757  0.5484 -0.1791  0.4872
   88MOL0     C11518   8.808   4.985  11.631  0.2319 -0.5587  0.0828
   88MOL0     O11519   8.728   4.872  11.627 -0.4564 -0.1297 -0.1080
   88MOL0     C11520   8.584   4.887  11.625  0.3493 -0.2929 -0.9466
   88MOL0     C11521   8.525   4.778  11.725 -0.5547 -0.0872  0.1392
   88MOL0     C11522   8.369   4.763  11.727 -0.2622 -0.0237  0.9593
   88MOL0     C11523   8.308   4.752  11.591  0.5879  0.2218  0.6406
   88MOL0     C11524   8.182   4.670  11.595 -0.2541  0.0721  0.4838
   88MOL0     C11525   8.210   4.517  11.618  0.9125  0.0996  0.3375
   88MOL0     C11526   8.307   4.458  11.516  0.2549 -0.4970  0.5393
   88MOL0     C11527   8.273   4.314  11.487 -0.3390  0.1706  0.2176
   88MOL0    Cl11528   8.284   4.214  11.640 -0.4277 -0.3648 -0.0851
   88MOL0     C11529   8.895   5.023  11.536 -0.8824  0.7642 -0.0186
   88MOL0     C11530   8.980   5.128  11.546 -0.6075 -0.6113 -0.1847
   88MOL0     O11531   8.992   5.436  11.837 -1.0896  0.3493 -0.0785
   88MOL0     C11532   9.307   5.494  11.696  0.7085 -0.0216 -0.5642
   88MOL0     C11533   9.418   5.579  11.696 -0.5609 -0.0233 -1.2886
   88MOL0     N11534   9.675   6.232  11.575 -0.1390 -0.1872  0.0376
   88MOL0     N11535   9.712   6.350  11.549 -0.1225 -0.0810  1.0359
   88MOL0     C11536  10.232   7.036  11.046 -0.2103 -0.6808 -0.2096
   88MOL0     C11537  10.324   7.131  10.981 -0.0266  0.2473 -0.6740
   88MOL0     C11538  10.465   7.396  10.618  0.0796  0.1810 -0.6209
   88MOL0     C11539  10.532   7.468  10.717 -0.1066 -0.5836 -0.5837
   88MOL0     C11540  10.627   7.564  10.674  0.1394 -0.5799 -0.0914
   88MOL0     C11541  10.660   7.588  10.543 -0.5587  0.4686 -0.0303
   88MOL0     O11542  10.751   7.673  10.475 -0.2495  0.0125 -1.1493
   88MOL0     C11543  10.810   7.773  10.558 -1.1256  0.4359 -0.6663
   88MOL0     C11544  10.854   7.878  10.447  0.4240  0.9216 -0.6556
   88MOL0     C11545  10.924   7.997  10.515 -0.4094  0.1535  0.1047
   88MOL0     C11546  10.817   8.081  10.568 -0.5329 -0.1512 -0.1965
   88MOL0     C11547  10.858   8.220  10.617 -0.0057 -0.5301 -0.2722
   88MOL0     C11548  10.879   8.331  10.667 -0.6134  0.2643 -1.4039
   88MOL0     C11549  10.596   7.507  10.451  0.6485 -0.3078 -0.1764
   88MOL0     C11550  10.505   7.408  10.484  0.3208  0.0797  0.4376
   88MOL0     H11551  10.144   7.140  10.694 -3.4828 -0.7055  1.7257
   88MOL0     H11552  10.002   6.998  10.809 -0.5189 -2.3043  1.1716
   88MOL0     H11553  10.005   6.764  10.885  3.1584 -1.4869  1.2464
   88MOL0     H11554   9.869   6.867  10.948  0.6432  1.4727  1.3339
   88MOL0     H11555   9.823   6.638  11.022 -0.2507  0.0112  0.9233
   88MOL0     H11556   9.893   6.707  11.167 -0.4264  2.5922  0.1827
   88MOL0     H11557  10.113   6.641  11.101 -2.1972  4.3010 -0.9504
   88MOL0     H11558  10.046   6.538  10.965 -0.3920  0.7994 -0.3432
   88MOL0     H11559   9.909   6.414  11.116  0.5871  1.9029 -2.0229
   88MOL0     H11560  10.092   6.387  11.131  2.4938  1.4039 -3.4190
   88MOL0     H11561   9.892   6.534  11.321 -0.0102  0.5157  0.0382
   88MOL0     H11562  10.074   6.566  11.320 -0.1491  1.8228  0.3253
   88MOL0     H11563  10.112   6.323  11.361 -0.6122  0.7479 -1.3213
   88MOL0     H11564   9.935   6.309  11.383 -0.4561 -0.1477  1.2618
   88MOL0     H11565  10.081   6.342  11.595 -2.0410 -0.3926  0.0577
   88MOL0     H11566  10.118   6.507  11.538  2.1543 -1.1767 -0.5021
   88MOL0     H11567   9.857   6.551  11.539 -2.5942 -3.7429 -2.6656
   88MOL0     H11568   9.940   6.515  11.690  0.9616 -1.7699  0.4057
   88MOL0     H11569   9.929   6.225  11.770 -1.3512  0.5970  2.3444
   88MOL0     H11570   9.663   6.035  11.808 -1.9690  0.9069 -1.1474
   88MOL0     H11571   9.832   5.999  11.754 -0.4102 -0.7802 -0.4141
   88MOL0     H11572   9.758   5.953  11.533 -0.6536  1.7385 -0.7097
   88MOL0     H11573   9.587   5.949  11.591 -0.4463 -3.0055 -0.8583
   88MOL0     H11574   9.681   5.713  11.603  3.1940  1.5364 -2.2123
   88MOL0     H11575   9.821   5.775  11.693  0.4040 -0.8726 -0.7326
   88MOL0     H11576   9.672   5.803  11.907 -0.2476 -0.4914  0.1521
   88MOL0     H11577   9.654   5.652  11.837  2.5643 -0.5599 -1.0298
   88MOL0     H11578   9.271   5.820  11.902  0.1578  1.0736 -1.2117
   88MOL0     H11579   9.097   5.684  11.878 -0.1649  3.0475 -3.4918
   88MOL0     H11580   8.914   5.206  11.872  0.4649 -0.7161 -0.0337
   88MOL0     H11581   8.746   5.016  11.832 -1.3543  1.9233 -0.1922
   88MOL0     H11582   8.547   4.865  11.525 -0.4269  0.1737 -0.7673
   88MOL0     H11583   8.545   4.982  11.664 -0.4689 -0.2398 -1.8598
   88MOL0     H11584   8.546   4.811  11.827 -2.0078 -0.3521  0.5350
   88MOL0     H11585   8.572   4.685  11.692  1.1092  0.9806 -0.6458
   88MOL0     H11586   8.331   4.851  11.780 -0.9171  0.9924 -1.1108
   88MOL0     H11587   8.340   4.675  11.786  1.2894 -1.2053  0.0174
   88MOL0     H11588   8.290   4.856  11.563  0.9011 -0.3920 -2.0361
   88MOL0     H11589   8.388   4.710  11.529  1.7946 -1.4814  3.1663
   88MOL0     H11590   8.123   4.684  11.504 -1.3542 -0.5699  1.0824
   88MOL0     H11591   8.120   4.707  11.677 -1.0168 -1.8375  0.8107
   88MOL0     H11592   8.118   4.458  11.622  1.1251 -0.2971 -0.4467
   88MOL0     H11593   8.255   4.508  11.718  1.3019  0.6191  0.2163
   88MOL0     H11594   8.309   4.522  11.427  0.2918 -2.2025 -0.7372
   88MOL0     H11595   8.404   4.457  11.567 -0.0707  0.3436  1.1861
   88MOL0     H11596   8.343   4.284  11.409  3.4929 -1.0793  3.7766
   88MOL0     H11597   8.170   4.308  11.449 -0.6393 -0.3621  1.0913
   88MOL0     H11598   8.905   4.956  11.451  1.8684  0.2571  0.5998
   88MOL0     H11599   9.053   5.152  11.470  0.5890 -0.6078  0.9402
   88MOL0     H11600   9.307   5.395  11.651  3.9725 -0.2464 -0.2682
   88MOL0     H11601   9.509   5.551  11.644 -0.1789 -0.4421 -0.4090
   88MOL0     H11602  10.239   7.021  11.153 -1.7680 -0.6179 -0.0700
   88MOL0     H11603  10.407   7.182  11.030  0.8440  0.0956 -1.9567
   88MOL0     H11604  10.491   7.474  10.817 -2.0368 -2.1339 -1.2115
   88MOL0     H11605  10.682   7.598  10.761 -0.8078 -0.7175  0.5765
   88MOL0     H11606  10.902   7.753  10.613 -0.3806  1.8799 -1.3322
   88MOL0     H11607  10.742   7.824  10.627  1.1302  2.5615  0.1281
   88MOL0     H11608  10.932   7.827  10.390 -0.5691 -3.5609  1.5366
   88MOL0     H11609  10.768   7.895  10.381 -0.7160 -1.0256  0.2340
   88MOL0     H11610  10.988   8.052  10.446  0.4868 -0.7063  0.2301
   88MOL0     H11611  10.992   7.964  10.594 -2.0413  1.7344  2.2977
   88MOL0     H11612  10.734   8.088  10.498 -1.2835  0.5324  0.7172
   88MOL0     H11613  10.781   8.027  10.656 -0.8598 -0.5887 -0.5974
   88MOL0     H11614  10.906   8.423  10.716  0.5913 -1.1214  0.7170
   88MOL0     H11615  10.633   7.505  10.349 -1.5448 -0.5131 -1.0345
   88MOL0     H11616  10.470   7.356  10.396  5.3013 -3.1023 -0.0324
   89MOL0     O11617  10.909   2.334   3.586  0.8100 -0.4289 -0.4951
   89MOL0     C11618  10.992   2.391   3.651  0.1140 -0.2577 -0.0591
   89MOL0     O11619  10.972   2.506   3.722  0.5099  0.7234  0.0394
   89MOL0     C11620  10.840   2.551   3.713 -0.8503  0.7425  0.3140
   89MOL0     C11621  10.799   2.645   3.619 -0.1283 -0.1567 -0.0146
   89MOL0     C11622  10.670   2.696   3.620  0.4307 -1.0731 -0.5545
   89MOL0     C11623  10.571   2.657   3.716  1.0441  0.9189  0.5378
   89MOL0     O11624  10.459   2.736   3.723  0.0281 -0.7440  0.1522
   89MOL0     C11625  10.375   2.732   3.840  0.3072  0.0851 -0.3374
   89MOL0     C11626  10.260   2.830   3.830 -0.1275  0.3704  0.4756
   89MOL0     C11627  10.156   2.794   3.715 -0.9419  0.9612 -0.6653
   89MOL0     C11628  10.062   2.910   3.698 -0.4591 -0.0200 -0.0817
   89MOL0     C11629   9.943   2.882   3.601 -0.9379 -0.2313 -0.3126
   89MOL0     C11630   9.872   3.010   3.554 -0.0906 -0.8161  0.1744
   89MOL0     C11631   9.732   2.979   3.493  0.2897  0.6851  0.0219
   89MOL0     C11632   9.741   2.908   3.356 -0.5458  0.4168 -1.0974
   89MOL0     N11633   9.604   2.856   3.335 -0.6859  0.2944 -0.3759
   89MOL0     C11634   9.497   2.943   3.327 -0.9017 -0.3232 -0.2313
   89MOL0     C11635   9.389   2.870   3.312 -0.5640  0.6310 -0.1631
   89MOL0     C11636   9.262   2.927   3.290  0.5117 -0.0053  0.2478
   89MOL0     C11637   9.215   2.915   3.150  0.6872  0.3229 -0.3164
   89MOL0     C11638   9.189   2.768   3.107  0.7670  0.4426 -0.4616
   89MOL0     C11639   9.045   2.726   3.131  0.3306 -0.2962 -0.3288
   89MOL0     O11640   9.015   2.601   3.074  0.6547 -0.3152 -0.3080
   89MOL0     C11641   8.898   2.550   3.120 -0.5976  0.6256  0.3325
   89MOL0     C11642   8.773   2.604   3.097  0.6031  0.1601 -0.1634
   89MOL0     C11643   8.650   2.540   3.141 -0.0473  1.3917  0.4343
   89MOL0     C11644   8.656   2.416   3.207  0.6463 -0.3213  0.1016
   89MOL0     C11645   8.523   2.350   3.239 -0.8713 -0.2203  0.8926
   89MOL0     O11646   8.411   2.427   3.223  0.2870 -0.5135 -0.4506
   89MOL0     C11647   8.297   2.359   3.235 -0.3710  0.1668  0.1835
   89MOL0     C11648   8.265   2.226   3.180  0.1073  0.1313 -0.5258
   89MOL0     C11649   8.141   2.170   3.221 -0.2414 -0.0179 -0.2562
   89MOL0     C11650   8.058   2.231   3.315 -0.3095  0.7962  0.1813
   89MOL0     O11651   7.933   2.190   3.351  0.0067 -0.0118 -0.0587
   89MOL0     C11652   7.867   2.071   3.310 -0.2256  0.6081  0.2454
   89MOL0     C11653   7.743   2.066   3.402  0.6298  0.8852 -0.1615
   89MOL0     C11654   7.771   2.055   3.552 -0.0568 -0.0475  0.0418
   89MOL0     C11655   7.844   1.935   3.592 -0.2169  0.5670 -0.1203
   89MOL0     C11656   8.000   1.961   3.622  0.4993 -0.1827 -0.2907
   89MOL0     C11657   8.017   2.032   3.755  0.0981  0.5018 -0.5641
   89MOL0     C11658   8.162   2.045   3.798  0.1919 -0.4019  0.5423
   89MOL0     C11659   8.232   2.146   3.705  0.6125  0.3750 -0.0069
   89MOL0    Cl11660   8.391   2.178   3.786  0.1437 -0.6236  0.0556
   89MOL0     C11661   8.091   2.363   3.352  0.6941 -0.8273  1.2717
   89MOL0     C11662   8.200   2.427   3.307 -0.2704  0.1845  0.4178
   89MOL0     O11663   8.529   2.236   3.271 -0.3984  0.2662  0.4639
   89MOL0     C11664   8.780   2.368   3.240  0.1790 -0.2801  0.5663
   89MOL0     C11665   8.894   2.430   3.196  0.8109 -0.3365  0.2958
   89MOL0     N11666   9.435   2.740   3.300 -0.0889  0.2648 -0.0263
   89MOL0     N11667   9.564   2.732   3.303 -0.6263 -0.1962  0.5424
   89MOL0     C11668  10.610   2.547   3.803 -1.4257 -0.4861  0.2245
   89MOL0     C11669  10.745   2.510   3.807  0.4377  0.1021 -0.2075
   89MOL0     C11670  11.141   2.350   3.644 -0.4225 -0.4664  0.0574
   89MOL0     C11671  11.245   2.443   3.651 -0.3376 -0.0100 -0.9518
   89MOL0     C11672  11.381   2.406   3.642 -0.1700  1.0098  0.0862
   89MOL0     C11673  11.421   2.273   3.627 -0.3115 -0.2263 -0.1445
   89MOL0     O11674  11.549   2.223   3.635  0.9717  0.1356 -1.2948
   89MOL0     C11675  11.649   2.311   3.593 -0.3718  0.9620  0.0276
   89MOL0     C11676  11.722   2.379   3.717 -0.2773 -0.1144  0.5052
   89MOL0     C11677  11.853   2.444   3.680  0.2274  0.1004 -0.2849
   89MOL0     C11678  11.848   2.570   3.590  0.2333  1.1630 -0.0402
   89MOL0     C11679  11.815   2.528   3.456 -0.8070  0.3503 -0.4304
   89MOL0     C11680  11.787   2.499   3.338  0.2289  0.0606 -0.6403
   89MOL0     C11681  11.317   2.177   3.619 -0.2484 -0.5610 -0.0326
   89MOL0     C11682  11.179   2.215   3.617 -0.2508 -0.3369 -0.0473
   89MOL0     H11683  10.870   2.686   3.547 -2.2313  0.7818 -1.6653
   89MOL0     H11684  10.670   2.794   3.573  0.6044  1.0234  3.3338
   89MOL0     H11685  10.436   2.763   3.925 -1.6087 -0.4566  1.3293
   89MOL0     H11686  10.337   2.629   3.848  0.5626  0.1301  2.4369
   89MOL0     H11687  10.320   2.920   3.817 -1.0886  0.8231 -1.0663
   89MOL0     H11688  10.208   2.844   3.926 -0.2244  4.4363  0.0127
   89MOL0     H11689  10.097   2.707   3.747 -0.8150  1.2647  0.4158
   89MOL0     H11690  10.194   2.761   3.618 -0.8115  0.0670 -0.3254
   89MOL0     H11691  10.010   2.931   3.792 -0.9259 -1.2646 -0.0407
   89MOL0     H11692  10.116   2.997   3.661 -1.3001  0.0279 -1.2609
   89MOL0     H11693   9.866   2.828   3.658 -0.6493 -0.8711 -0.5232
   89MOL0     H11694   9.981   2.832   3.512 -2.7161 -0.1424 -1.1826
   89MOL0     H11695   9.930   3.057   3.474 -4.4080  2.6584 -1.3444
   89MOL0     H11696   9.855   3.091   3.626  1.6355  0.8088 -1.1469
   89MOL0     H11697   9.680   2.924   3.572  1.3212 -1.0685 -0.4760
   89MOL0     H11698   9.678   3.073   3.480  1.0967  1.1848  0.2046
   89MOL0     H11699   9.818   2.832   3.364 -0.4279  0.6787  0.5490
   89MOL0     H11700   9.776   2.964   3.268  3.7988 -1.0814 -0.5634
   89MOL0     H11701   9.495   3.051   3.330  1.8529 -0.0907 -2.7794
   89MOL0     H11702   9.268   3.035   3.308  0.9083  0.0430 -0.1538
   89MOL0     H11703   9.196   2.884   3.366 -0.2761  0.3379 -0.2392
   89MOL0     H11704   9.288   2.961   3.083  1.7545  0.5293  0.9472
   89MOL0     H11705   9.125   2.978   3.146  0.8497  0.5286 -0.7379
   89MOL0     H11706   9.206   2.775   2.999  1.4664 -0.5605 -0.4337
   89MOL0     H11707   9.250   2.690   3.154  1.1634  0.6340 -0.6547
   89MOL0     H11708   8.979   2.794   3.077 -0.2334 -1.6669 -1.4391
   89MOL0     H11709   9.026   2.734   3.238  2.6932  0.9245  0.0736
   89MOL0     H11710   8.754   2.701   3.052  1.9707  0.3521 -0.3548
   89MOL0     H11711   8.555   2.587   3.120  0.1737  1.6502 -0.0088
   89MOL0     H11712   8.325   2.157   3.122  0.2322  1.0873 -1.5720
   89MOL0     H11713   8.108   2.071   3.191  0.6888 -0.8679  1.3506
   89MOL0     H11714   7.919   1.976   3.316 -1.4531 -0.0263  1.3851
   89MOL0     H11715   7.837   2.095   3.207 -1.3921  3.7037  1.1795
   89MOL0     H11716   7.682   1.980   3.373  0.8102 -0.2298  2.4844
   89MOL0     H11717   7.685   2.157   3.383  1.3335  1.1570 -1.0880
   89MOL0     H11718   7.680   2.069   3.612  0.1763  1.0742  0.1568
   89MOL0     H11719   7.832   2.141   3.583 -1.3374  0.3212  1.7435
   89MOL0     H11720   7.797   1.890   3.680 -1.6037  0.8280 -0.6972
   89MOL0     H11721   7.839   1.860   3.513 -2.4703  1.6123 -1.0652
   89MOL0     H11722   8.047   2.009   3.536 -0.1900 -1.1482 -1.2401
   89MOL0     H11723   8.044   1.861   3.632 -0.6095 -0.7477 -0.8715
   89MOL0     H11724   7.955   1.983   3.831 -2.4860  1.5511 -1.8799
   89MOL0     H11725   7.979   2.132   3.733  0.6069  0.1144 -3.7087
   89MOL0     H11726   8.162   2.098   3.894  0.4045  0.5805  0.0135
   89MOL0     H11727   8.220   1.955   3.819  2.2334  0.9027  0.7138
   89MOL0     H11728   8.181   2.242   3.697  0.8922  0.6622  1.3291
   89MOL0     H11729   8.250   2.109   3.604 -1.0568  1.1599 -0.6180
   89MOL0     H11730   8.006   2.412   3.398  0.4133 -1.2025  1.1578
   89MOL0     H11731   8.227   2.528   3.339 -1.0790  0.9928 -1.3161
   89MOL0     H11732   8.788   2.270   3.285  2.2006 -0.6707 -0.5574
   89MOL0     H11733   8.990   2.405   3.241  0.2076  1.3178  2.7280
   89MOL0     H11734  10.537   2.507   3.873 -2.0350 -0.7854 -0.5725
   89MOL0     H11735  10.781   2.432   3.874  1.8404  0.8745 -0.0336
   89MOL0     H11736  11.213   2.544   3.676  3.0869  1.1015 -0.4000
   89MOL0     H11737  11.448   2.490   3.656 -0.9461  1.5365  0.7187
   89MOL0     H11738  11.604   2.390   3.533  1.6260  0.7208 -1.9038
   89MOL0     H11739  11.722   2.267   3.525 -0.9178  2.0517 -1.2985
   89MOL0     H11740  11.658   2.452   3.767  1.9043  2.6775 -0.5680
   89MOL0     H11741  11.759   2.298   3.780 -1.7229 -2.2015 -1.1568
   89MOL0     H11742  11.925   2.372   3.641 -0.8456  0.0314 -2.2910
   89MOL0     H11743  11.896   2.472   3.776 -0.8344 -1.5330  0.7072
   89MOL0     H11744  11.772   2.633   3.637 -1.2643 -0.9244  0.4615
   89MOL0     H11745  11.945   2.621   3.588  0.4918  0.9593  2.8127
   89MOL0     H11746  11.784   2.472   3.234 -0.4557 -3.4225  0.1553
   89MOL0     H11747  11.357   2.076   3.615  1.8011  0.1452  1.2216
   89MOL0     H11748  11.100   2.144   3.596  1.5870 -2.4126 -0.3563
   90MOL0     O11749   6.255  10.055  10.506  0.3048 -0.0741 -0.1020
   90MOL0     C11750   6.167  10.084  10.425  0.0444 -0.6382  0.2422
   90MOL0     O11751   6.164  10.198  10.347  0.1838 -0.6250 -0.0467
   90MOL0     C11752   6.262  10.293  10.350 -0.6353 -0.4448  0.3787
   90MOL0     C11753   6.400  10.270  10.320  0.8270  0.5688  0.5788
   90MOL0     C11754   6.486  10.374  10.299  0.1232  0.9705 -0.4048
   90MOL0     C11755   6.451  10.513  10.313  0.2262  0.1879  0.1915
   90MOL0     O11756   6.536  10.616  10.286 -0.3918 -0.4497  0.7814
   90MOL0     C11757   6.668  10.585  10.234  0.3223  0.2672 -0.1579
   90MOL0     C11758   6.716  10.708  10.160 -0.1616 -0.6060 -0.6009
   90MOL0     C11759   6.859  10.696  10.102  0.4157 -0.2854  0.2390
   90MOL0     C11760   6.958  10.713  10.215 -0.0124 -0.8663  0.7159
   90MOL0     C11761   7.100  10.717  10.160 -0.8789 -1.0524 -0.1369
   90MOL0     C11762   7.196  10.678  10.272 -0.3084 -0.6874 -0.3601
   90MOL0     C11763   7.215  10.776  10.393  0.7885 -0.4474 -0.4112
   90MOL0     C11764   7.331  10.749  10.484  0.7424  0.9296  0.6597
   90MOL0     N11765   7.336  10.851  10.587 -0.3234  0.3789 -0.4107
   90MOL0     C11766   7.289  10.836  10.714  1.5160  0.8615  1.2978
   90MOL0     C11767   7.298  10.955  10.778  0.2837  0.6454  0.1577
   90MOL0     C11768   7.267  10.983  10.927 -0.4522  0.4765  0.5511
   90MOL0     C11769   7.117  10.946  10.959  0.3054 -0.3916 -0.3292
   90MOL0     C11770   7.095  10.970  11.113 -0.9681 -0.0668  0.2574
   90MOL0     C11771   6.952  10.957  11.169 -0.1822 -0.0766 -0.0126
   90MOL0     O11772   6.886  10.852  11.115 -0.0866 -0.4162  0.9146
   90MOL0     C11773   6.757  10.833  11.135 -0.1003  0.7062  0.3603
   90MOL0     C11774   6.689  10.730  11.058  0.3977 -0.1705 -0.0687
   90MOL0     C11775   6.558  10.704  11.093 -0.9058 -0.3676  0.6765
   90MOL0     C11776   6.482  10.773  11.194 -0.1652 -0.0199 -0.4889
   90MOL0     C11777   6.332  10.751  11.201  0.2225  0.6481  0.3263
   90MOL0     O11778   6.280  10.793  11.318  0.3035 -0.4937  0.1574
   90MOL0     C11779   6.143  10.825  11.331 -0.1111 -0.4983 -0.1937
   90MOL0     C11780   6.081  10.825  11.458 -0.6468  0.6575  0.2018
   90MOL0     C11781   5.943  10.834  11.467 -1.1830 -0.7510  1.2475
   90MOL0     C11782   5.864  10.864  11.355  0.8020 -0.0917 -1.2474
   90MOL0     O11783   5.731  10.877  11.379  0.6957 -0.7824 -0.3190
   90MOL0     C11784   5.656  10.936  11.264  1.3158  0.1564 -0.1829
   90MOL0     C11785   5.516  10.989  11.305  0.1636  0.4609 -0.3194
   90MOL0     C11786   5.449  11.049  11.186 -0.0240 -0.3325 -0.1079
   90MOL0     C11787   5.414  10.943  11.081  0.2618 -0.7855 -0.5852
   90MOL0     C11788   5.297  11.000  10.990 -0.2321 -0.5941 -0.0283
   90MOL0     C11789   5.293  10.948  10.848  0.3346  0.1194 -0.5844
   90MOL0     C11790   5.275  10.792  10.857 -0.1259  0.5477  0.3121
   90MOL0     C11791   5.291  10.730  10.721  0.3214  1.3487 -0.4031
   90MOL0    Cl11792   5.307  10.544  10.727  0.0124 -0.2629  0.0882
   90MOL0     C11793   5.927  10.886  11.229  0.2242  0.3130 -0.0449
   90MOL0     C11794   6.068  10.872  11.224  0.1087 -0.2561 -0.2696
   90MOL0     O11795   6.267  10.691  11.123 -0.1326  0.4133  0.6651
   90MOL0     C11796   6.549  10.869  11.273  0.2078 -0.1014 -0.2720
   90MOL0     C11797   6.681  10.897  11.242 -1.2538 -0.4916  1.4519
   90MOL0     N11798   7.345  11.043  10.687  1.0124 -1.4868 -0.2793
   90MOL0     N11799   7.376  10.982  10.575 -0.0908  0.4171  0.6978
   90MOL0     C11800   6.320  10.539  10.330 -0.2939 -0.9017 -0.1914
   90MOL0     C11801   6.224  10.430  10.348 -0.2576 -0.2389  0.0601
   90MOL0     C11802   6.074   9.981  10.376  0.7437  1.1198 -0.5543
   90MOL0     C11803   5.966  10.014  10.291 -0.4342 -0.5261  0.4899
   90MOL0     C11804   5.885   9.915  10.233  0.0467  0.4319 -0.9313
   90MOL0     C11805   5.919   9.779  10.261  0.8131  0.4294 -0.5502
   90MOL0     O11806   5.820   9.688  10.233  0.0576 -0.1974  0.0848
   90MOL0     C11807   5.816   9.551  10.266  0.3487  0.6365  0.1071
   90MOL0     C11808   5.772   9.536  10.416 -1.4715 -0.1822  0.4712
   90MOL0     C11809   5.653   9.609  10.464 -0.5821 -0.0093  0.6820
   90MOL0     C11810   5.678   9.758  10.514  0.0627  0.1570  0.5304
   90MOL0     C11811   5.773   9.764  10.618  0.0579 -0.0485 -0.1884
   90MOL0     C11812   5.845   9.774  10.710 -0.4068  0.4796  0.1519
   90MOL0     C11813   6.036   9.747  10.335  0.3985  0.1967 -0.5041
   90MOL0     C11814   6.110   9.844  10.392 -0.5018  0.4102 -0.1356
   90MOL0     H11815   6.454  10.176  10.312  2.3099  1.1531  2.7634
   90MOL0     H11816   6.584  10.347  10.260  0.1966  1.0201 -0.2570
   90MOL0     H11817   6.667  10.516  10.149  0.6636  0.5660 -0.4086
   90MOL0     H11818   6.730  10.550  10.317 -1.4076 -5.0189 -0.7162
   90MOL0     H11819   6.710  10.788  10.234 -0.7212  1.8463 -3.1164
   90MOL0     H11820   6.648  10.731  10.077  1.7649 -2.4202 -2.8467
   90MOL0     H11821   6.868  10.774  10.026  1.2636 -1.2255 -0.6541
   90MOL0     H11822   6.879  10.600  10.054  0.4217  0.9479 -2.4034
   90MOL0     H11823   6.934  10.800  10.276 -2.0335 -0.7944 -0.1215
   90MOL0     H11824   6.936  10.624  10.275 -2.7701  0.2939  1.5725
   90MOL0     H11825   7.118  10.822  10.133 -3.1535 -1.5206 -4.2599
   90MOL0     H11826   7.121  10.657  10.071  0.5619  1.7646 -1.8159
   90MOL0     H11827   7.291  10.668  10.218 -1.0619  0.2294 -1.9490
   90MOL0     H11828   7.172  10.586  10.326  1.0433 -1.0302 -0.3044
   90MOL0     H11829   7.209  10.876  10.349 -5.5992 -0.1349  0.1499
   90MOL0     H11830   7.126  10.760  10.456  1.7015 -2.4752  0.4800
   90MOL0     H11831   7.422  10.760  10.425 -0.8191 -4.2057 -3.4204
   90MOL0     H11832   7.339  10.653  10.535 -0.0237  0.6624  0.2996
   90MOL0     H11833   7.246  10.746  10.756 -2.9057  2.5342  0.8138
   90MOL0     H11834   7.286  11.089  10.946  2.8269  0.3810 -1.3932
   90MOL0     H11835   7.334  10.925  10.992  0.5658 -0.4617 -1.2677
   90MOL0     H11836   7.090  10.843  10.934  0.5431 -0.7609  0.8907
   90MOL0     H11837   7.052  11.018  10.908 -0.0208 -0.2038  0.3358
   90MOL0     H11838   7.167  10.907  11.166 -0.2515  0.7988  0.3419
   90MOL0     H11839   7.134  11.071  11.131 -1.4761  0.4281 -1.3130
   90MOL0     H11840   6.893  11.048  11.157 -0.3457 -0.2717 -0.7448
   90MOL0     H11841   6.957  10.932  11.276 -1.5517 -3.3624 -0.5855
   90MOL0     H11842   6.735  10.672  10.979 -0.3185 -0.9021  0.0294
   90MOL0     H11843   6.507  10.634  11.029  1.0387 -2.7684  1.5936
   90MOL0     H11844   6.154  10.807  11.536  1.7784  2.7772 -1.4304
   90MOL0     H11845   5.893  10.829  11.564 -1.3952 -0.0373  1.1831
   90MOL0     H11846   5.651  10.855  11.191  3.1191  1.4124 -1.7771
   90MOL0     H11847   5.710  11.017  11.215 -0.2748  0.7657 -0.9913
   90MOL0     H11848   5.530  11.061  11.386 -0.6160 -0.5121  0.7043
   90MOL0     H11849   5.451  10.906  11.333 -1.2087  0.6859 -2.5392
   90MOL0     H11850   5.513  11.125  11.139  0.9939 -0.3467  1.1773
   90MOL0     H11851   5.367  11.102  11.234  1.4169 -0.5452  2.7874
   90MOL0     H11852   5.498  10.943  11.011 -1.4867  3.4486 -3.0918
   90MOL0     H11853   5.390  10.841  11.113  1.2914 -1.6252 -2.3496
   90MOL0     H11854   5.322  11.106  10.975 -1.2057 -0.6691 -2.7192
   90MOL0     H11855   5.199  10.982  11.035 -0.7086  0.5243 -0.5613
   90MOL0     H11856   5.380  10.980  10.791 -1.3298  2.1901 -2.1401
   90MOL0     H11857   5.208  10.987  10.791 -1.9765 -2.6990  0.6335
   90MOL0     H11858   5.366  10.748  10.899  1.1299 -0.6449 -3.3108
   90MOL0     H11859   5.186  10.747  10.904 -1.1843 -0.7161 -2.6356
   90MOL0     H11860   5.385  10.762  10.674 -0.5731  2.8828 -1.2265
   90MOL0     H11861   5.200  10.753  10.665  0.1649  0.3052 -0.5843
   90MOL0     H11862   5.881  10.898  11.131  1.9057 -0.5048 -0.9758
   90MOL0     H11863   6.104  10.880  11.122  0.6260  1.9505  0.0269
   90MOL0     H11864   6.484  10.923  11.341 -0.1668 -1.3442  0.3811
   90MOL0     H11865   6.717  10.971  11.312 -0.8978  0.3366  0.4261
   90MOL0     H11866   6.293  10.643  10.316  0.9240 -0.9249 -3.7066
   90MOL0     H11867   6.116  10.437  10.359 -0.1270 -1.2001  2.5165
   90MOL0     H11868   5.929  10.114  10.274  2.6828  0.3897 -1.7115
   90MOL0     H11869   5.808   9.942  10.162  0.2967  0.0498 -1.3486
   90MOL0     H11870   5.920   9.519  10.262  1.4842  3.8241  1.0456
   90MOL0     H11871   5.752   9.496  10.196  0.1240  2.1873 -0.9409
   90MOL0     H11872   5.746   9.431  10.432  1.2379 -1.1702 -1.1178
   90MOL0     H11873   5.864   9.566  10.466  1.1177  2.1990 -4.9158
   90MOL0     H11874   5.606   9.540  10.535  0.7767  1.0599  2.7171
   90MOL0     H11875   5.581   9.611  10.381  0.4620 -0.4969 -0.2707
   90MOL0     H11876   5.712   9.830  10.439  1.0921  2.2618  2.8596
   90MOL0     H11877   5.585   9.798  10.554  0.5665  1.5854  0.3535
   90MOL0     H11878   5.925   9.768  10.781  0.6259 -2.5529 -1.0939
   90MOL0     H11879   6.064   9.647  10.365 -1.7465 -0.3450 -0.0693
   90MOL0     H11880   6.203   9.817  10.440 -0.9413  2.8008  2.3341
   91MOL0     O11881   4.638   5.631   8.368 -0.4811  0.4633 -0.2948
   91MOL0     C11882   4.728   5.588   8.438 -0.8093  0.5718  0.9039
   91MOL0     O11883   4.725   5.582   8.573  0.5957  0.5859 -0.8594
   91MOL0     C11884   4.592   5.592   8.626 -0.7176  0.5887 -0.0377
   91MOL0     C11885   4.537   5.723   8.647  0.4299 -0.3309 -0.7639
   91MOL0     C11886   4.396   5.735   8.692 -0.3888 -0.3764 -0.4521
   91MOL0     C11887   4.320   5.617   8.715 -1.1528 -0.2912 -0.2640
   91MOL0     O11888   4.188   5.639   8.757  0.2587 -0.4988  0.3562
   91MOL0     C11889   4.108   5.531   8.797 -0.8091 -0.2604 -0.1941
   91MOL0     C11890   3.974   5.588   8.871 -0.3112  0.2459  0.1688
   91MOL0     C11891   4.017   5.644   9.017  0.5068 -0.0086 -0.3996
   91MOL0     C11892   3.902   5.696   9.112  0.5744  0.1093  0.4265
   91MOL0     C11893   3.945   5.725   9.249 -0.9393 -0.2802  0.4137
   91MOL0     C11894   3.823   5.779   9.324 -0.2609 -0.2852 -0.6994
   91MOL0     C11895   3.840   5.795   9.473  0.4960 -0.1530 -0.0748
   91MOL0     C11896   3.750   5.900   9.535 -0.7962 -0.2536  0.0493
   91MOL0     N11897   3.613   5.856   9.508  0.3201 -0.5696  0.1490
   91MOL0     C11898   3.537   5.907   9.402 -0.3613 -0.1764 -0.8117
   91MOL0     C11899   3.426   5.828   9.413  0.8654  0.0011  0.1158
   91MOL0     C11900   3.312   5.834   9.311 -1.0660 -0.1679 -0.2799
   91MOL0     C11901   3.214   5.945   9.350  0.6829  0.1998  0.8460
   91MOL0     C11902   3.123   5.984   9.231  0.1837 -0.9763 -0.2150
   91MOL0     C11903   2.982   5.926   9.239  0.1135  0.2045  0.0270
   91MOL0     O11904   2.877   5.999   9.174 -0.4339  0.1197 -0.0784
   91MOL0     C11905   2.854   5.998   9.036 -0.9031 -0.9328 -1.1867
   91MOL0     C11906   2.745   6.074   9.003 -0.3682  0.5231 -0.0341
   91MOL0     C11907   2.706   6.076   8.868 -0.5470 -0.9161 -0.1175
   91MOL0     C11908   2.787   6.027   8.766 -0.5156  1.0655 -0.7341
   91MOL0     C11909   2.739   6.026   8.617 -0.1372  0.2939 -0.1116
   91MOL0     O11910   2.603   6.052   8.601  0.0667 -0.7199  0.2200
   91MOL0     C11911   2.546   6.027   8.481  0.1474  0.6663  0.3363
   91MOL0     C11912   2.576   5.938   8.376 -0.5142 -0.2638 -0.1216
   91MOL0     C11913   2.484   5.929   8.272  0.1183  0.2492 -0.0396
   91MOL0     C11914   2.359   5.995   8.276 -0.4260 -0.1726  0.2905
   91MOL0     O11915   2.272   5.996   8.170 -0.2843  0.4551  0.4721
   91MOL0     C11916   2.280   5.892   8.063  0.2790  0.1571 -0.3307
   91MOL0     C11917   2.157   5.917   7.974 -0.3596 -0.1001  0.0412
   91MOL0     C11918   2.144   5.818   7.844 -0.0903 -1.2160  0.0244
   91MOL0     C11919   2.081   5.689   7.894 -0.0369  0.7826  0.5888
   91MOL0     C11920   2.023   5.598   7.773 -0.2500 -0.5217 -0.6750
   91MOL0     C11921   1.926   5.487   7.810  0.1365  0.2383 -0.4651
   91MOL0     C11922   1.978   5.382   7.905  0.4631 -0.3247  0.0351
   91MOL0     C11923   2.079   5.293   7.842 -0.1666  1.2648  0.5039
   91MOL0    Cl11924   2.191   5.229   7.961 -0.8873  0.1435  0.7788
   91MOL0     C11925   2.340   6.090   8.370 -1.1446  0.1221  0.4946
   91MOL0     C11926   2.427   6.098   8.470  0.0548  0.4168 -0.7445
   91MOL0     O11927   2.828   5.999   8.535  0.1459  0.0067  0.6472
   91MOL0     C11928   2.904   5.946   8.807 -0.3524  0.1568 -0.0308
   91MOL0     C11929   2.932   5.937   8.941 -0.4743  0.7317  0.5997
   91MOL0     N11930   3.427   5.749   9.521 -0.2726 -0.6139 -1.0217
   91MOL0     N11931   3.540   5.760   9.576  0.0659 -0.9339  1.0903
   91MOL0     C11932   4.389   5.493   8.701 -0.1540 -0.5123  0.3893
   91MOL0     C11933   4.517   5.477   8.651 -1.1715 -1.4304 -0.8645
   91MOL0     C11934   4.857   5.546   8.381  0.0054  0.0774 -0.0361
   91MOL0     C11935   4.873   5.527   8.244 -0.2699 -1.0512  0.9159
   91MOL0     C11936   4.997   5.496   8.198 -0.3499  0.3077  0.1334
   91MOL0     C11937   5.100   5.469   8.286  0.6239 -0.1211 -0.3568
   91MOL0     O11938   5.225   5.438   8.252  0.0248  1.5822  0.1256
   91MOL0     C11939   5.235   5.374   8.118 -0.1324  0.3255 -0.0061
   91MOL0     C11940   5.370   5.307   8.131 -0.4258 -0.0116  0.2354
   91MOL0     C11941   5.366   5.185   8.221  0.6696 -0.5070 -0.1466
   91MOL0     C11942   5.360   5.045   8.150  0.2618  0.0813  0.1776
   91MOL0     C11943   5.491   5.023   8.085  0.2119  0.6769 -0.1825
   91MOL0     C11944   5.600   5.003   8.055 -1.2702 -0.4700  0.4442
   91MOL0     C11945   5.084   5.469   8.418 -0.5775 -0.8517  0.2442
   91MOL0     C11946   4.963   5.510   8.470  0.0474 -0.2687  0.1762
   91MOL0     H11947   4.587   5.818   8.638  0.4987 -0.4108 -1.2584
   91MOL0     H11948   4.363   5.830   8.733 -0.3380 -1.2071  1.5819
   91MOL0     H11949   4.160   5.464   8.866 -1.5082 -0.2729  0.3348
   91MOL0     H11950   4.069   5.491   8.702 -0.1599  1.2277 -1.1108
   91MOL0     H11951   3.894   5.514   8.880 -0.5186  0.4069 -0.3110
   91MOL0     H11952   3.929   5.662   8.804 -2.8046 -1.2821  0.0030
   91MOL0     H11953   4.091   5.724   9.020  0.6977 -0.0196 -2.7454
   91MOL0     H11954   4.063   5.559   9.069 -0.9932 -0.4770  0.2174
   91MOL0     H11955   3.861   5.791   9.077  1.7283  0.0489 -1.1721
   91MOL0     H11956   3.821   5.622   9.111  2.0680 -1.7018 -2.8044
   91MOL0     H11957   4.028   5.796   9.257 -1.7797  0.7048  0.6000
   91MOL0     H11958   3.974   5.626   9.286  0.0991 -0.1246  0.0339
   91MOL0     H11959   3.747   5.702   9.305  0.1316 -0.4808 -1.5191
   91MOL0     H11960   3.785   5.873   9.283 -2.4502 -0.3519  0.9509
   91MOL0     H11961   3.822   5.698   9.521  2.3358  0.6823  2.4879
   91MOL0     H11962   3.945   5.818   9.489  1.4946 -1.7685 -3.3363
   91MOL0     H11963   3.781   6.000   9.502 -3.7427  1.9883  3.3615
   91MOL0     H11964   3.761   5.905   9.643  2.5665 -0.8791 -0.1585
   91MOL0     H11965   3.570   5.984   9.333  1.8242 -0.2010  0.1258
   91MOL0     H11966   3.272   5.732   9.314  0.7837 -0.9207  1.2210
   91MOL0     H11967   3.343   5.853   9.208  0.2339  0.4291  0.1899
   91MOL0     H11968   3.275   6.030   9.382  4.2985 -2.7726  2.7308
   91MOL0     H11969   3.154   5.912   9.435  1.0378 -0.3617  0.8872
   91MOL0     H11970   3.116   6.093   9.236  0.5352 -0.9819  0.4375
   91MOL0     H11971   3.167   5.963   9.133  0.0836 -0.8966 -0.2779
   91MOL0     H11972   2.946   5.922   9.342  1.9916  1.1244  0.7801
   91MOL0     H11973   2.982   5.823   9.204  1.0624 -0.7926  2.7591
   91MOL0     H11974   2.698   6.144   9.071  1.1442  2.2363 -0.6851
   91MOL0     H11975   2.621   6.136   8.837  0.3096  0.4642  0.1422
   91MOL0     H11976   2.668   5.881   8.364  0.2019  1.0324 -1.1814
   91MOL0     H11977   2.499   5.866   8.185  0.8088  1.0049 -0.4863
   91MOL0     H11978   2.269   5.789   8.099 -4.0936  0.6233  0.1440
   91MOL0     H11979   2.372   5.917   8.009 -0.5031  1.0992 -1.2522
   91MOL0     H11980   2.174   6.019   7.936  0.6731 -0.4590 -0.4848
   91MOL0     H11981   2.069   5.909   8.038 -0.5540  0.2435 -0.1757
   91MOL0     H11982   2.236   5.810   7.784 -1.1010  3.0794 -2.5106
   91MOL0     H11983   2.077   5.876   7.781  0.5597 -0.0932  0.3413
   91MOL0     H11984   2.161   5.637   7.948 -0.8451 -1.0488  0.1040
   91MOL0     H11985   2.013   5.703   7.978  0.8963 -3.4726  2.3312
   91MOL0     H11986   2.112   5.552   7.730  0.5495 -1.9977  2.2956
   91MOL0     H11987   1.974   5.657   7.695  1.5997 -0.7664 -2.0926
   91MOL0     H11988   1.889   5.434   7.722 -3.2533  3.1486 -0.9912
   91MOL0     H11989   1.834   5.534   7.846 -1.4083 -1.8072 -1.5631
   91MOL0     H11990   2.011   5.430   7.997 -2.2156  2.0673 -0.1032
   91MOL0     H11991   1.897   5.319   7.943 -2.1197  1.9722 -1.2732
   91MOL0     H11992   2.130   5.331   7.753  1.4773 -0.6939  0.5305
   91MOL0     H11993   2.015   5.212   7.806  0.9249  0.1191  1.0477
   91MOL0     H11994   2.247   6.146   8.367 -0.3539  1.4316 -0.5449
   91MOL0     H11995   2.405   6.171   8.547 -0.2879 -0.4789  0.0218
   91MOL0     H11996   2.957   5.896   8.727  2.7919 -0.6031  2.3354
   91MOL0     H11997   3.024   5.890   8.975  0.5513  3.0089  1.1298
   91MOL0     H11998   4.338   5.403   8.736 -2.4080 -0.9609 -3.4555
   91MOL0     H11999   4.548   5.376   8.629 -3.9139 -2.6583  0.4540
   91MOL0     H12000   4.803   5.551   8.163 -0.0875  0.0344  1.0676
   91MOL0     H12001   5.012   5.480   8.091 -0.7563 -0.9297  0.2492
   91MOL0     H12002   5.230   5.452   8.042  2.8059  1.3960  0.7636
   91MOL0     H12003   5.154   5.301   8.109  1.0739 -0.7935 -3.3774
   91MOL0     H12004   5.403   5.268   8.034 -0.7373 -0.1412  0.1806
   91MOL0     H12005   5.441   5.380   8.172 -1.9070  0.7478  1.5882
   91MOL0     H12006   5.274   5.190   8.280  0.5587  0.9474 -0.4149
   91MOL0     H12007   5.435   5.179   8.305 -2.8727  0.3968  3.0806
   91MOL0     H12008   5.340   4.959   8.214 -1.0645 -1.0091 -1.5948
   91MOL0     H12009   5.276   5.043   8.079  1.7578  1.1676 -1.7172
   91MOL0     H12010   5.697   4.972   8.021 -1.0348  1.9602 -1.3163
   91MOL0     H12011   5.172   5.449   8.478 -0.5397  0.8445  0.8087
   91MOL0     H12012   4.954   5.505   8.578  2.9676 -0.2821  0.5019
   92MOL0     O12013   2.184   7.089   4.693 -0.9552  0.1464  0.1065
   92MOL0     C12014   2.100   6.994   4.709 -1.2127  0.3720  0.0601
   92MOL0     O12015   2.120   6.891   4.800  0.4353  1.5031  1.0913
   92MOL0     C12016   2.210   6.909   4.904 -0.5142 -0.4328 -0.5101
   92MOL0     C12017   2.206   7.016   4.992 -0.5372 -0.2264  0.6471
   92MOL0     C12018   2.306   7.028   5.084  1.0514 -0.3026 -0.4583
   92MOL0     C12019   2.396   6.922   5.105 -1.1004 -0.2769 -1.4499
   92MOL0     O12020   2.474   6.908   5.225 -0.0262 -0.7180  0.4438
   92MOL0     C12021   2.562   7.018   5.263  0.0574  0.0920  0.6223
   92MOL0     C12022   2.701   7.017   5.193  0.7575 -0.1533 -0.7153
   92MOL0     C12023   2.804   7.101   5.282  0.6928  0.4566 -0.3200
   92MOL0     C12024   2.946   7.118   5.229 -0.1432 -0.4743  0.0290
   92MOL0     C12025   2.945   7.166   5.081  0.1268 -0.1392  0.2102
   92MOL0     C12026   3.093   7.149   5.030 -0.0891  0.1666  0.6591
   92MOL0     C12027   3.084   7.183   4.879 -0.5275 -0.9322 -0.4186
   92MOL0     C12028   3.224   7.180   4.797 -0.5159 -0.4488  0.2275
   92MOL0     N12029   3.320   7.271   4.857 -0.7025  0.7445  0.4929
   92MOL0     C12030   3.289   7.396   4.897  0.0265  0.3115 -1.0801
   92MOL0     C12031   3.410   7.453   4.923  0.5863  0.3066 -0.0319
   92MOL0     C12032   3.439   7.586   4.998 -0.9203  0.6679  0.5572
   92MOL0     C12033   3.521   7.676   4.901  0.0042  0.5834  0.0637
   92MOL0     C12034   3.422   7.733   4.802  0.5651  0.9984  0.3092
   92MOL0     C12035   3.494   7.825   4.695  0.7930 -0.7234  0.1823
   92MOL0     O12036   3.581   7.914   4.758 -0.8347 -0.3843 -0.2171
   92MOL0     C12037   3.625   8.029   4.688  0.3700 -0.8745 -0.0640
   92MOL0     C12038   3.571   8.078   4.564 -0.2508 -0.1173 -0.7213
   92MOL0     C12039   3.623   8.199   4.526 -0.7140  0.5672  0.1247
   92MOL0     C12040   3.718   8.274   4.601 -0.3386  1.0278  0.3576
   92MOL0     C12041   3.785   8.398   4.561  0.8631 -0.2981  0.0499
   92MOL0     O12042   3.852   8.466   4.650 -0.5012 -0.5151 -0.1236
   92MOL0     C12043   3.917   8.584   4.615 -0.2354  0.1512 -0.4777
   92MOL0     C12044   3.960   8.671   4.723  0.1801 -0.0037  0.5754
   92MOL0     C12045   4.020   8.790   4.697 -1.1966 -0.0242 -0.6346
   92MOL0     C12046   4.061   8.818   4.567 -0.0490 -0.4632  1.0285
   92MOL0     O12047   4.125   8.934   4.531 -0.9954  1.0775 -0.1859
   92MOL0     C12048   4.223   8.980   4.630  0.2990  0.1871  0.5553
   92MOL0     C12049   4.289   9.089   4.556  0.6393  0.6839 -0.4489
   92MOL0     C12050   4.401   9.167   4.633  0.9109  0.7288  0.1369
   92MOL0     C12051   4.484   9.256   4.536  0.4613 -0.8949  0.6708
   92MOL0     C12052   4.616   9.309   4.601 -0.1226 -0.0851  0.1437
   92MOL0     C12053   4.668   9.449   4.545 -0.7011 -0.7303 -0.2060
   92MOL0     C12054   4.594   9.562   4.610 -0.8885  0.6302  0.4087
   92MOL0     C12055   4.640   9.702   4.571  0.7535  0.4136 -0.4745
   92MOL0    Cl12056   4.819   9.722   4.591 -0.0239 -0.2887  0.5055
   92MOL0     C12057   4.045   8.731   4.460 -0.2385 -0.4299  0.6289
   92MOL0     C12058   3.977   8.606   4.487 -0.0776 -0.7670 -0.0345
   92MOL0     O12059   3.761   8.434   4.441 -0.7981  0.0250 -0.4115
   92MOL0     C12060   3.774   8.210   4.719  0.5637  0.1918 -0.0724
   92MOL0     C12061   3.718   8.098   4.765  0.2793  0.2677  0.1639
   92MOL0     N12062   3.508   7.364   4.895 -0.2404 -0.1040 -0.3627
   92MOL0     N12063   3.454   7.264   4.853 -0.3833  0.4135 -0.1202
   92MOL0     C12064   2.396   6.813   5.016  0.2912 -0.5951 -0.2560
   92MOL0     C12065   2.304   6.812   4.916  0.0177 -1.0279  0.3578
   92MOL0     C12066   2.004   6.961   4.596  1.7421 -0.4340  0.0831
   92MOL0     C12067   1.988   7.046   4.490 -1.0426 -0.5203  0.7814
   92MOL0     C12068   1.907   7.026   4.375 -0.6299 -0.7126 -0.0422
   92MOL0     C12069   1.833   6.907   4.381 -1.3758  0.9841  0.2447
   92MOL0     O12070   1.738   6.886   4.285 -0.2575 -0.0151  0.7898
   92MOL0     C12071   1.693   6.747   4.257 -0.4987  0.4604 -0.4083
   92MOL0     C12072   1.588   6.760   4.156  0.9430  0.1901  0.0183
   92MOL0     C12073   1.646   6.828   4.033  0.3020 -0.3560  0.8095
   92MOL0     C12074   1.534   6.859   3.934  0.7007 -0.8292  0.0345
   92MOL0     C12075   1.510   6.741   3.856 -0.3809  0.1509 -1.1990
   92MOL0     C12076   1.474   6.635   3.811  1.5177  1.6688 -0.2057
   92MOL0     C12077   1.849   6.822   4.492  0.3263  0.2571 -0.2126
   92MOL0     C12078   1.933   6.845   4.601 -1.2796 -0.6174 -0.2918
   92MOL0     H12079   2.136   7.099   4.986  1.0774  1.1465  0.0684
   92MOL0     H12080   2.309   7.122   5.138  0.7242 -0.5310 -0.0368
   92MOL0     H12081   2.574   7.024   5.372 -4.8534  1.9664  1.3431
   92MOL0     H12082   2.513   7.114   5.244 -0.1922 -0.0209  0.6892
   92MOL0     H12083   2.668   7.070   5.103 -0.9743 -0.0124 -0.0361
   92MOL0     H12084   2.737   6.916   5.175 -0.0004 -1.2172  2.8894
   92MOL0     H12085   2.809   7.057   5.381 -2.0982 -0.3958 -0.4650
   92MOL0     H12086   2.771   7.203   5.304  0.9999  0.5737 -0.4014
   92MOL0     H12087   3.006   7.186   5.289 -1.9917 -0.4279  1.9133
   92MOL0     H12088   3.003   7.026   5.244  1.8253  0.4481 -1.3403
   92MOL0     H12089   2.897   7.264   5.076 -2.5382 -1.1023  3.2516
   92MOL0     H12090   2.875   7.097   5.032 -2.3616  1.4107  1.3943
   92MOL0     H12091   3.136   7.049   5.039  0.8113  0.5108  0.3002
   92MOL0     H12092   3.163   7.210   5.089 -1.0750 -1.0567  3.2849
   92MOL0     H12093   3.015   7.111   4.834  0.9862 -1.5527 -1.8545
   92MOL0     H12094   3.038   7.282   4.874 -0.2737 -0.7948 -0.1081
   92MOL0     H12095   3.214   7.218   4.695  0.7635  0.3308  0.3753
   92MOL0     H12096   3.264   7.080   4.783  0.5877 -0.0953  0.7521
   92MOL0     H12097   3.191   7.443   4.906  0.3844  2.1271 -4.6686
   92MOL0     H12098   3.502   7.562   5.084 -1.9098 -0.4779  0.9856
   92MOL0     H12099   3.352   7.640   5.036 -0.1727  1.4128  1.2628
   92MOL0     H12100   3.592   7.610   4.850 -0.9845  1.3086 -2.3448
   92MOL0     H12101   3.570   7.760   4.953  0.5392  0.9375 -0.9901
   92MOL0     H12102   3.352   7.664   4.753  0.5872 -0.6919  2.5233
   92MOL0     H12103   3.352   7.788   4.865 -1.2216  2.0181 -2.3598
   92MOL0     H12104   3.419   7.877   4.635  1.0068  0.4198  0.8801
   92MOL0     H12105   3.555   7.758   4.635  1.1137 -0.4504  0.2028
   92MOL0     H12106   3.503   8.012   4.511  0.6537 -2.1492  0.5343
   92MOL0     H12107   3.596   8.241   4.429  0.3788 -1.7122 -1.2390
   92MOL0     H12108   3.919   8.646   4.820 -3.8856  0.2610 -0.8621
   92MOL0     H12109   4.034   8.868   4.772  1.6695 -0.2700 -0.7928
   92MOL0     H12110   4.294   8.901   4.654  0.6616  0.0707 -0.8191
   92MOL0     H12111   4.170   9.025   4.714  1.6434  1.1070  0.9489
   92MOL0     H12112   4.210   9.153   4.517 -1.4284 -1.5620 -0.1533
   92MOL0     H12113   4.333   9.030   4.475 -2.3298 -1.7520 -0.4565
   92MOL0     H12114   4.468   9.095   4.680 -0.5665  0.0271  1.2562
   92MOL0     H12115   4.354   9.236   4.704  0.6026 -1.7946  2.5679
   92MOL0     H12116   4.507   9.190   4.451 -0.2950  1.4967 -1.5101
   92MOL0     H12117   4.421   9.338   4.501  2.0367 -0.4666 -1.3536
   92MOL0     H12118   4.693   9.234   4.582  1.0909  1.3915 -1.0982
   92MOL0     H12119   4.585   9.322   4.705  0.0116  2.2620 -0.0495
   92MOL0     H12120   4.674   9.461   4.436 -1.2077  0.9536 -0.0770
   92MOL0     H12121   4.770   9.448   4.586 -0.9134 -1.6835  0.3075
   92MOL0     H12122   4.489   9.557   4.581 -0.7786  2.0576 -0.3172
   92MOL0     H12123   4.616   9.548   4.716 -0.2375 -2.3509 -0.0321
   92MOL0     H12124   4.584   9.769   4.637 -2.2852  0.1267 -2.5508
   92MOL0     H12125   4.616   9.735   4.470 -1.7614 -0.8811 -0.3835
   92MOL0     H12126   4.090   8.764   4.367 -1.4387  0.4939  0.3533
   92MOL0     H12127   3.974   8.531   4.408 -0.8917  0.5701 -1.3318
   92MOL0     H12128   3.859   8.252   4.771  0.2870 -0.4588  0.9428
   92MOL0     H12129   3.743   8.050   4.860  0.1326 -1.3942 -0.5966
   92MOL0     H12130   2.461   6.730   5.042  4.3269  1.9020 -1.5722
   92MOL0     H12131   2.309   6.732   4.842  0.6732 -2.2203  1.6477
   92MOL0     H12132   2.037   7.142   4.485  0.5522 -1.3719 -1.0891
   92MOL0     H12133   1.898   7.106   4.303  2.2334 -0.5681 -0.3415
   92MOL0     H12134   1.643   6.698   4.341 -2.7616 -2.9409 -3.4283
   92MOL0     H12135   1.773   6.679   4.228 -1.1284 -0.9507  1.0375
   92MOL0     H12136   1.544   6.664   4.128 -0.6067 -0.0918  3.0837
   92MOL0     H12137   1.506   6.823   4.192  0.8589  2.7448 -3.9729
   92MOL0     H12138   1.729   6.766   3.997  1.1067  0.5027  1.1535
   92MOL0     H12139   1.682   6.926   4.064 -1.1512 -0.6918  3.9264
   92MOL0     H12140   1.435   6.886   3.974  1.2213  2.7653 -0.7560
   92MOL0     H12141   1.551   6.942   3.864 -0.8762 -1.0722 -0.6873
   92MOL0     H12142   1.442   6.545   3.763 -0.2136 -0.8224  4.9348
   92MOL0     H12143   1.775   6.742   4.498  0.6778 -0.4862 -3.6200
   92MOL0     H12144   1.932   6.776   4.685  2.3697 -4.0827 -2.7199
   93MOL0     O12145  10.582   8.474   0.373 -0.0460  0.3065  0.0096
   93MOL0     C12146  10.557   8.524   0.484 -0.4888  0.8206 -0.0464
   93MOL0     O12147  10.654   8.532   0.582  1.1862 -0.0268 -0.1869
   93MOL0     C12148  10.763   8.455   0.579  0.3299  1.1545  0.8615
   93MOL0     C12149  10.751   8.319   0.584 -0.5072  0.4336 -0.8667
   93MOL0     C12150  10.866   8.240   0.578 -0.1299  0.5612 -0.1710
   93MOL0     C12151  10.993   8.302   0.555  0.1398  0.3401  0.1327
   93MOL0     O12152  11.109   8.225   0.539  0.4551  0.3726  0.3173
   93MOL0     C12153  11.242   8.280   0.540 -0.2553 -0.3764 -0.3209
   93MOL0     C12154  11.352   8.176   0.554  0.0384  0.0842  0.1071
   93MOL0     C12155  11.498   8.239   0.541 -0.4798  0.0786 -0.0067
   93MOL0     C12156  11.549   8.232   0.399 -0.1424  0.6514  0.6871
   93MOL0     C12157  11.698   8.256   0.356 -0.2855 -0.3777 -0.0272
   93MOL0     C12158  11.730   8.406   0.323  0.0955 -0.3518  0.0938
   93MOL0     C12159  11.888   8.438   0.329  0.6664 -0.1715  0.0945
   93MOL0     C12160  11.979   8.355   0.243 -0.3102  0.0824  0.7193
   93MOL0     N12161  11.945   8.361   0.101  0.6495  0.7532 -0.6580
   93MOL0     C12162  11.916   8.478   0.032  0.3302  0.0185 -1.1932
   93MOL0     C12163  11.917   8.439  -0.102 -0.0535 -0.5231 -0.3399
   93MOL0     C12164  11.922   8.522  -0.229  0.1747  0.2673 -0.2580
   93MOL0     C12165  12.068   8.518  -0.286 -0.7772  0.8775 -0.5034
   93MOL0     C12166  12.096   8.384  -0.364  0.5994  0.1183 -0.7501
   93MOL0     C12167  12.247   8.364  -0.380 -0.6416  0.4155  0.2286
   93MOL0     O12168  12.308   8.475  -0.453 -0.6792 -0.6653 -0.3555
   93MOL0     C12169  12.277   8.489  -0.589 -0.3123 -1.3247  0.3127
   93MOL0     C12170  12.197   8.405  -0.670  0.8095 -0.7449 -0.2311
   93MOL0     C12171  12.169   8.438  -0.808 -0.9403  0.1442 -0.6059
   93MOL0     C12172  12.246   8.536  -0.881 -0.7838  0.2052  0.0877
   93MOL0     C12173  12.224   8.558  -1.029  0.7174 -0.2188  0.2492
   93MOL0     O12174  12.307   8.655  -1.089 -0.3942 -0.1215  0.2551
   93MOL0     C12175  12.311   8.683  -1.225  0.0212  0.0583 -0.7146
   93MOL0     C12176  12.356   8.807  -1.271  0.3488  0.0393  0.1622
   93MOL0     C12177  12.383   8.838  -1.405 -0.3064  0.0392 -0.2893
   93MOL0     C12178  12.343   8.747  -1.505 -0.1891 -0.2728 -0.2764
   93MOL0     O12179  12.356   8.764  -1.642 -0.9333 -0.3023 -0.1632
   93MOL0     C12180  12.380   8.902  -1.699  0.0231 -0.9998 -0.0525
   93MOL0     C12181  12.386   8.885  -1.856  0.5414 -0.0427 -0.2163
   93MOL0     C12182  12.359   9.017  -1.914 -0.6451  0.3759 -0.1750
   93MOL0     C12183  12.348   9.009  -2.069 -0.2193 -0.2774 -0.2754
   93MOL0     C12184  12.306   9.137  -2.133  0.4051 -0.7064  0.0482
   93MOL0     C12185  12.397   9.258  -2.122  0.2185  0.6834  0.3608
   93MOL0     C12186  12.328   9.387  -2.186 -0.3971 -0.7967  0.1963
   93MOL0     C12187  12.440   9.502  -2.197  1.0135  0.4755  0.5773
   93MOL0    Cl12188  12.359   9.650  -2.175 -0.1647 -0.0727 -0.0660
   93MOL0     C12189  12.308   8.620  -1.463 -0.7111 -0.4393 -0.0651
   93MOL0     C12190  12.276   8.594  -1.332 -0.3724  0.4762  0.1343
   93MOL0     O12191  12.134   8.498  -1.090 -0.0948 -0.3761  0.5459
   93MOL0     C12192  12.343   8.604  -0.804  0.5106 -0.7715  1.1983
   93MOL0     C12193  12.345   8.590  -0.663  0.1636 -0.0012  0.0895
   93MOL0     N12194  11.917   8.297  -0.102  0.8328  0.6284 -0.1730
   93MOL0     N12195  11.940   8.252   0.021  0.6522  0.7642  0.4805
   93MOL0     C12196  11.001   8.444   0.557  0.0856 -0.0301  0.4910
   93MOL0     C12197  10.885   8.516   0.560 -0.4554  0.5127  0.5162
   93MOL0     C12198  10.436   8.599   0.508  0.5837  0.3342 -0.7216
   93MOL0     C12199  10.373   8.654   0.393 -0.3411 -0.6938  1.3677
   93MOL0     C12200  10.254   8.719   0.413  0.1598  0.0919 -0.6243
   93MOL0     C12201  10.204   8.756   0.544  0.7526  0.4827  0.5051
   93MOL0     O12202  10.090   8.833   0.546 -0.5555  0.5828 -0.3059
   93MOL0     C12203  10.068   8.899   0.669  0.2517 -0.6485 -0.1501
   93MOL0     C12204  10.158   9.026   0.689  0.0246  0.4629 -0.3664
   93MOL0     C12205  10.076   9.135   0.629 -0.7408 -0.0334 -0.6145
   93MOL0     C12206  10.151   9.262   0.595 -0.2725  0.6188  0.1245
   93MOL0     C12207  10.208   9.315   0.724 -0.2689 -0.7784  0.4508
   93MOL0     C12208  10.263   9.366   0.811  0.4387 -0.4754  0.3031
   93MOL0     C12209  10.266   8.694   0.652  0.0548  0.2712  0.1936
   93MOL0     C12210  10.386   8.619   0.636 -0.3545  0.2085  0.5635
   93MOL0     H12211  10.650   8.279   0.576 -0.4838  0.3904 -0.9463
   93MOL0     H12212  10.860   8.132   0.567 -1.3266  0.7525 -1.7652
   93MOL0     H12213  11.245   8.338   0.632 -3.8598 -1.0822  0.3919
   93MOL0     H12214  11.273   8.348   0.460 -1.2226  0.3845 -0.0664
   93MOL0     H12215  11.336   8.094   0.483 -3.3994 -0.2970  1.1484
   93MOL0     H12216  11.344   8.120   0.647 -0.4686  0.1847  0.1232
   93MOL0     H12217  11.572   8.178   0.594  0.6021  0.7664 -0.6950
   93MOL0     H12218  11.507   8.335   0.592  4.1134  0.1454 -0.5326
   93MOL0     H12219  11.535   8.128   0.366 -0.2281  0.4854  1.2382
   93MOL0     H12220  11.485   8.294   0.336  0.8317  2.8283  1.7478
   93MOL0     H12221  11.724   8.206   0.262 -0.5979 -0.6500  0.0291
   93MOL0     H12222  11.776   8.221   0.424  3.1301  0.9645 -2.9535
   93MOL0     H12223  11.671   8.472   0.387 -0.8223  1.8503 -2.8074
   93MOL0     H12224  11.693   8.422   0.221  0.5812  2.9210  0.3425
   93MOL0     H12225  11.904   8.545   0.314  1.1898 -0.0674  1.3329
   93MOL0     H12226  11.910   8.406   0.431 -0.8224  0.3622  0.6205
   93MOL0     H12227  11.970   8.253   0.283 -1.7753  0.0315  0.3157
   93MOL0     H12228  12.077   8.402   0.256 -0.7802  1.6164 -0.9168
   93MOL0     H12229  11.895   8.577   0.072 -1.7788 -1.1490  0.9036
   93MOL0     H12230  11.905   8.625  -0.195 -1.8206  0.0043 -0.3362
   93MOL0     H12231  11.840   8.498  -0.297 -0.0155  1.9824 -0.7015
   93MOL0     H12232  12.138   8.530  -0.203 -0.6737  2.7685 -0.8238
   93MOL0     H12233  12.080   8.609  -0.345 -0.1528  0.6218 -0.7802
   93MOL0     H12234  12.063   8.289  -0.319  0.0043  0.3929 -0.5975
   93MOL0     H12235  12.041   8.404  -0.456 -4.4294  2.8212  2.3826
   93MOL0     H12236  12.266   8.269  -0.430  0.0510 -0.2182  1.6068
   93MOL0     H12237  12.303   8.352  -0.287 -0.5910  0.6507  0.2304
   93MOL0     H12238  12.153   8.321  -0.619  0.1889  0.3071  1.0116
   93MOL0     H12239  12.106   8.367  -0.860 -0.6107  1.1455 -2.4613
   93MOL0     H12240  12.373   8.884  -1.197  1.2117  0.8008 -0.7884
   93MOL0     H12241  12.411   8.942  -1.423  0.0771 -0.3186 -1.8780
   93MOL0     H12242  12.480   8.938  -1.675 -0.0918  2.6497 -3.8060
   93MOL0     H12243  12.309   8.979  -1.668  3.0874  2.0549 -0.0666
   93MOL0     H12244  12.332   8.799  -1.896  2.9753 -2.1954  0.8485
   93MOL0     H12245  12.490   8.859  -1.877  0.0716 -1.5615 -0.7880
   93MOL0     H12246  12.444   9.084  -1.899  0.6730 -1.0858 -0.9081
   93MOL0     H12247  12.258   9.039  -1.877 -1.4495  1.8691 -2.9488
   93MOL0     H12248  12.444   8.975  -2.108  1.4288  1.5394  1.9273
   93MOL0     H12249  12.278   8.929  -2.096  0.9394 -0.4779 -3.0243
   93MOL0     H12250  12.208   9.161  -2.090 -0.0112 -1.1194 -0.6573
   93MOL0     H12251  12.297   9.124  -2.241 -0.0905  0.8596 -0.1255
   93MOL0     H12252  12.488   9.232  -2.176 -0.1610 -0.0950  0.0902
   93MOL0     H12253  12.415   9.270  -2.015 -2.9117 -0.3505  1.1306
   93MOL0     H12254  12.288   9.366  -2.285 -2.8104 -0.3051  0.9952
   93MOL0     H12255  12.245   9.414  -2.119  0.8261  0.6101  1.2133
   93MOL0     H12256  12.476   9.502  -2.300 -6.2317  4.1589 -2.6749
   93MOL0     H12257  12.508   9.499  -2.112  1.2702 -1.0086  0.3472
   93MOL0     H12258  12.267   8.545  -1.529 -1.4446  0.9906 -1.3010
   93MOL0     H12259  12.250   8.491  -1.311  1.1644 -0.6291 -2.7903
   93MOL0     H12260  12.399   8.683  -0.854 -0.3962 -1.2246 -0.6221
   93MOL0     H12261  12.396   8.661  -0.598  0.1663 -0.8862  1.0909
   93MOL0     H12262  11.086   8.503   0.523 -0.8775  1.1802  0.1002
   93MOL0     H12263  10.887   8.623   0.538  0.0762 -0.0605 -2.7258
   93MOL0     H12264  10.410   8.643   0.292  1.2319  2.0400  1.5461
   93MOL0     H12265  10.210   8.762   0.324  3.1956  3.5152 -0.7063
   93MOL0     H12266  10.069   8.835   0.757  2.7515 -0.6235 -0.0909
   93MOL0     H12267   9.962   8.924   0.680  0.7825  2.1372 -0.4908
   93MOL0     H12268  10.176   9.042   0.796 -0.3793  3.2568 -0.6343
   93MOL0     H12269  10.256   9.009   0.644  0.7677 -0.2456  1.4286
   93MOL0     H12270  10.000   9.166   0.702 -1.3039  1.5408 -1.7977
   93MOL0     H12271  10.038   9.099   0.533 -0.0624 -3.7959  0.3737
   93MOL0     H12272  10.230   9.247   0.522 -1.0072  2.5037 -1.1505
   93MOL0     H12273  10.092   9.343   0.551  0.2737  1.7031  1.2924
   93MOL0     H12274  10.337   9.401   0.880  1.6809 -0.5846 -0.9410
   93MOL0     H12275  10.228   8.693   0.754  2.5348 -0.1904  1.1967
   93MOL0     H12276  10.420   8.584   0.733 -2.6406 -0.5814  1.1470
   94MOL0     O12277   1.039   4.258   2.369 -0.0160  0.0115  0.5229
   94MOL0     C12278   1.087   4.299   2.475  0.3264  0.4281 -0.1321
   94MOL0     O12279   1.032   4.272   2.596 -0.1890  0.7475 -0.0757
   94MOL0     C12280   0.933   4.173   2.600 -1.1921 -0.2021  0.7952
   94MOL0     C12281   0.819   4.216   2.667 -0.2860 -0.6778 -0.0596
   94MOL0     C12282   0.711   4.122   2.683 -0.9311  0.1196  0.3594
   94MOL0     C12283   0.725   3.986   2.635  0.2882 -0.4837 -0.2712
   94MOL0     O12284   0.627   3.880   2.623 -0.3819 -0.5699 -0.0538
   94MOL0     C12285   0.497   3.915   2.682 -0.2279 -0.2250 -0.4048
   94MOL0     C12286   0.399   3.796   2.678 -0.2568  0.0818 -0.5639
   94MOL0     C12287   0.262   3.843   2.741 -1.5673  0.4803  0.2413
   94MOL0     C12288   0.160   3.738   2.719 -0.3061  1.4223 -0.0390
   94MOL0     C12289   0.024   3.774   2.769 -0.1613  0.3283  0.1275
   94MOL0     C12290  -0.078   3.695   2.694  0.1685 -0.0777 -0.4582
   94MOL0     C12291  -0.224   3.764   2.721  0.3292  0.2804 -0.0017
   94MOL0     C12292  -0.337   3.680   2.654  0.6178  0.5109  0.4001
   94MOL0     N12293  -0.473   3.724   2.696  0.8843 -0.8859 -0.2485
   94MOL0     C12294  -0.546   3.825   2.637  0.1402  0.8398 -0.0990
   94MOL0     C12295  -0.662   3.839   2.704  0.3772 -0.3669 -0.6498
   94MOL0     C12296  -0.775   3.943   2.665  0.1109  0.6143 -0.4175
   94MOL0     C12297  -0.886   3.879   2.571  0.2954 -0.5057 -0.3039
   94MOL0     C12298  -0.833   3.853   2.435  0.3887 -0.5078 -1.0820
   94MOL0     C12299  -0.941   3.823   2.333 -0.0025 -0.2451  0.3738
   94MOL0     O12300  -1.007   3.953   2.302 -0.3563  0.9218 -0.7766
   94MOL0     C12301  -1.124   3.947   2.239  0.7235  0.5011  0.9615
   94MOL0     C12302  -1.189   3.837   2.187  0.2441  0.2644 -0.1730
   94MOL0     C12303  -1.325   3.843   2.160  0.0172 -0.3634 -0.2285
   94MOL0     C12304  -1.395   3.967   2.181  0.7796 -0.7391  0.6334
   94MOL0     C12305  -1.545   3.975   2.162  0.0605 -0.2116  0.6158
   94MOL0     O12306  -1.612   3.864   2.131 -1.0085  0.2726 -0.5120
   94MOL0     C12307  -1.743   3.858   2.173 -0.7475  0.2355 -0.9770
   94MOL0     C12308  -1.847   3.869   2.087 -0.7980 -0.4274 -0.0057
   94MOL0     C12309  -1.977   3.858   2.130  0.1345  0.1149 -0.0027
   94MOL0     C12310  -2.006   3.830   2.262  0.2493 -0.6847 -0.0168
   94MOL0     O12311  -2.134   3.840   2.305  0.5934 -0.4754  0.7575
   94MOL0     C12312  -2.181   3.763   2.424 -0.1549 -0.4789 -0.4422
   94MOL0     C12313  -2.315   3.817   2.464 -0.1111 -0.8644  0.9490
   94MOL0     C12314  -2.427   3.751   2.376 -0.3490 -0.5818 -1.1050
   94MOL0     C12315  -2.564   3.817   2.402  0.8921 -0.2074 -0.0353
   94MOL0     C12316  -2.665   3.759   2.305 -0.6861  1.6398 -0.6975
   94MOL0     C12317  -2.771   3.854   2.266 -0.5755 -0.1987  1.1693
   94MOL0     C12318  -2.888   3.775   2.177 -0.7562 -0.2325 -0.5410
   94MOL0     C12319  -2.945   3.645   2.239 -0.1932 -0.9074 -0.9229
   94MOL0    Cl12320  -2.834   3.503   2.203 -0.3347 -0.0467 -0.4298
   94MOL0     C12321  -1.899   3.800   2.345 -0.0000  0.3957  1.1911
   94MOL0     C12322  -1.763   3.815   2.305  0.6487 -0.2129  0.5300
   94MOL0     O12323  -1.596   4.082   2.186  0.2579 -0.1824 -0.3134
   94MOL0     C12324  -1.317   4.077   2.216 -0.2438 -0.6286  1.3867
   94MOL0     C12325  -1.187   4.069   2.241  0.3481  1.1508 -0.1943
   94MOL0     N12326  -0.680   3.724   2.780 -0.8368 -0.2429 -0.5243
   94MOL0     N12327  -0.560   3.663   2.783  1.4634 -0.7954 -0.4468
   94MOL0     C12328   0.846   3.945   2.588  0.0956 -0.9356  0.1953
   94MOL0     C12329   0.957   4.039   2.581 -0.0234 -0.0616 -0.3623
   94MOL0     C12330   1.216   4.369   2.485  0.9114  0.1422  0.4231
   94MOL0     C12331   1.258   4.413   2.611 -0.1863 -0.0876 -0.9423
   94MOL0     C12332   1.384   4.473   2.627 -0.0431 -0.0841  0.9269
   94MOL0     C12333   1.474   4.487   2.525  0.1354 -0.8661  0.4558
   94MOL0     O12334   1.598   4.553   2.524  0.7316 -0.2095 -0.1022
   94MOL0     C12335   1.651   4.599   2.655 -0.7781  0.4395 -0.3694
   94MOL0     C12336   1.799   4.619   2.623  0.6034 -0.0793  1.5318
   94MOL0     C12337   1.870   4.487   2.605 -1.3351 -0.0125  0.5560
   94MOL0     C12338   2.027   4.505   2.606  0.7923 -0.3246  1.0964
   94MOL0     C12339   2.084   4.574   2.486 -0.1102  1.1895 -0.8780
   94MOL0     C12340   2.143   4.627   2.395 -1.1311 -0.4390 -0.8166
   94MOL0     C12341   1.434   4.437   2.403  0.8046  0.1092  1.4286
   94MOL0     C12342   1.312   4.378   2.374 -0.2923  0.3020 -0.7207
   94MOL0     H12343   0.798   4.313   2.709 -1.0784 -0.1340 -1.6419
   94MOL0     H12344   0.616   4.152   2.727 -2.2647  0.0902 -2.3005
   94MOL0     H12345   0.442   3.994   2.629  2.1004  2.0777  0.3442
   94MOL0     H12346   0.526   3.945   2.783  2.2239  1.8900 -1.6069
   94MOL0     H12347   0.439   3.716   2.741  0.2151  1.3650  0.8335
   94MOL0     H12348   0.387   3.760   2.576 -1.6878 -0.4226 -0.2390
   94MOL0     H12349   0.235   3.938   2.694  1.9342  0.6241 -1.8476
   94MOL0     H12350   0.277   3.861   2.848  0.0203  0.1657  0.0960
   94MOL0     H12351   0.148   3.709   2.614 -0.0406  1.4179 -0.0686
   94MOL0     H12352   0.195   3.646   2.767 -0.5837 -0.9731 -3.9249
   94MOL0     H12353  -0.008   3.873   2.736 -2.4781 -0.7103 -0.9766
   94MOL0     H12354   0.019   3.767   2.878  0.4517  0.1387  0.1449
   94MOL0     H12355  -0.071   3.591   2.726 -1.9855  0.3499  1.7577
   94MOL0     H12356  -0.055   3.684   2.588 -1.4803  0.4916 -0.8994
   94MOL0     H12357  -0.239   3.759   2.829  2.7740  2.9643  0.5552
   94MOL0     H12358  -0.224   3.863   2.676 -0.4284 -0.0605 -0.8044
   94MOL0     H12359  -0.330   3.581   2.698  0.1733  0.0253 -0.5873
   94MOL0     H12360  -0.324   3.670   2.545  3.8181 -1.2984  0.8251
   94MOL0     H12361  -0.522   3.893   2.556 -0.2148  0.9625 -0.1011
   94MOL0     H12362  -0.731   4.039   2.634  0.7637 -1.0493 -5.6524
   94MOL0     H12363  -0.833   3.944   2.757 -0.8334 -3.9764 -0.7144
   94MOL0     H12364  -0.971   3.945   2.557  1.3954  0.7427 -1.3533
   94MOL0     H12365  -0.916   3.780   2.608  1.1393 -0.1336  1.4382
   94MOL0     H12366  -0.792   3.943   2.386 -1.5747  0.6815 -0.6577
   94MOL0     H12367  -0.758   3.774   2.429  0.1249 -0.6909 -2.4118
   94MOL0     H12368  -1.003   3.747   2.381  3.8988 -2.2259  2.7438
   94MOL0     H12369  -0.888   3.791   2.243  1.7882  0.2115  1.2235
   94MOL0     H12370  -1.128   3.750   2.162 -0.8561 -0.7413  0.5548
   94MOL0     H12371  -1.385   3.759   2.126  0.0201  0.5644 -2.6887
   94MOL0     H12372  -1.815   3.880   1.984 -1.4297 -2.5817 -0.4709
   94MOL0     H12373  -2.062   3.871   2.063  0.1087 -0.0308  0.0013
   94MOL0     H12374  -2.104   3.772   2.501  0.7743 -0.1077 -1.3879
   94MOL0     H12375  -2.190   3.660   2.390  0.8546 -0.4729 -0.7844
   94MOL0     H12376  -2.313   3.927   2.462  2.7203 -0.7479  3.5706
   94MOL0     H12377  -2.322   3.793   2.571 -1.1155 -0.5822  0.9554
   94MOL0     H12378  -2.442   3.651   2.419 -2.6179  0.9018  1.9387
   94MOL0     H12379  -2.400   3.750   2.270 -2.1165  0.0401 -1.5943
   94MOL0     H12380  -2.607   3.811   2.503 -2.5574 -1.9317 -1.4540
   94MOL0     H12381  -2.564   3.924   2.380 -0.8113  0.7226  3.6238
   94MOL0     H12382  -2.719   3.677   2.354 -0.5859  2.4894  0.9063
   94MOL0     H12383  -2.613   3.724   2.216 -1.9846  0.1259 -0.9048
   94MOL0     H12384  -2.729   3.936   2.206  1.0126 -1.2513  0.7830
   94MOL0     H12385  -2.828   3.897   2.349 -3.0507 -0.8469 -0.0869
   94MOL0     H12386  -2.968   3.846   2.156  0.7029  0.9676 -2.3019
   94MOL0     H12387  -2.852   3.744   2.079 -1.4202 -1.8020 -0.3227
   94MOL0     H12388  -3.050   3.638   2.208 -1.2381  5.1814 -0.0893
   94MOL0     H12389  -2.945   3.660   2.347  1.1339  1.9379 -1.2367
   94MOL0     H12390  -1.915   3.753   2.441  1.7456 -0.9386  0.8830
   94MOL0     H12391  -1.678   3.785   2.365  0.9574 -0.5947 -0.0914
   94MOL0     H12392  -1.362   4.175   2.227 -1.2362 -0.8634 -0.2775
   94MOL0     H12393  -1.135   4.163   2.259 -1.3396  2.3987 -1.5014
   94MOL0     H12394   0.846   3.838   2.567 -0.9098 -1.2510  1.6782
   94MOL0     H12395   1.058   4.005   2.559 -0.2458 -1.7075  0.9701
   94MOL0     H12396   1.205   4.402   2.705  0.0352 -0.8689 -0.8994
   94MOL0     H12397   1.429   4.499   2.722  0.2064  0.3555  0.6908
   94MOL0     H12398   1.638   4.522   2.732 -0.1079  0.5963 -0.0958
   94MOL0     H12399   1.605   4.694   2.683  2.1362  0.7488  4.4747
   94MOL0     H12400   1.800   4.665   2.524 -1.3175 -1.9410  0.5641
   94MOL0     H12401   1.853   4.676   2.699  1.9767  0.6316  0.0897
   94MOL0     H12402   1.837   4.438   2.513  2.3516 -0.2641 -0.7970
   94MOL0     H12403   1.835   4.431   2.692 -1.6481 -0.5506  0.0852
   94MOL0     H12404   2.064   4.545   2.700  0.5772  0.8355  0.7020
   94MOL0     H12405   2.068   4.404   2.599  3.6857  0.7917  0.3216
   94MOL0     H12406   2.182   4.692   2.319  2.0291 -1.8530 -0.5787
   94MOL0     H12407   1.511   4.440   2.327 -0.4631 -1.6547 -0.0064
   94MOL0     H12408   1.292   4.327   2.280  0.7394 -1.6448  0.0418
   95MOL0     O12409   8.303   8.742   6.458  0.4341  0.4421 -0.4225
   95MOL0     C12410   8.345   8.782   6.353 -1.0517  0.4818  0.4711
   95MOL0     O12411   8.283   8.872   6.269  0.3054  0.2478 -0.3344
   95MOL0     C12412   8.146   8.898   6.295 -0.3045 -0.8113  0.2840
   95MOL0     C12413   8.100   9.030   6.324  0.7250  0.2569 -0.0177
   95MOL0     C12414   7.965   9.055   6.322 -0.1844 -0.8656 -0.0354
   95MOL0     C12415   7.862   8.961   6.299 -0.4078  0.0819  0.8260
   95MOL0     O12416   7.728   8.990   6.297 -0.1330 -0.1155 -0.5228
   95MOL0     C12417   7.679   9.119   6.327  0.1816  0.1046  1.3218
   95MOL0     C12418   7.533   9.097   6.291  0.1162 -0.2715  0.4874
   95MOL0     C12419   7.453   9.224   6.302 -0.4648 -0.3405  0.5849
   95MOL0     C12420   7.303   9.205   6.271 -0.1360  1.6349  0.2592
   95MOL0     C12421   7.224   9.330   6.249  0.1419  0.0402  0.1668
   95MOL0     C12422   7.084   9.301   6.187 -0.4280  0.1741 -0.1256
   95MOL0     C12423   6.991   9.413   6.201  0.3151 -0.0992 -1.0557
   95MOL0     C12424   6.878   9.391   6.107 -0.8082  0.1116 -1.0812
   95MOL0     N12425   6.813   9.521   6.077 -0.5438  0.0942  1.0770
   95MOL0     C12426   6.825   9.574   5.953  0.6174 -0.0518 -0.3576
   95MOL0     C12427   6.757   9.687   5.957  0.1245 -1.6186  0.2104
   95MOL0     C12428   6.750   9.802   5.855  0.3394  0.2026 -0.3495
   95MOL0     C12429   6.714   9.756   5.714  0.8320  0.7101  0.5060
   95MOL0     C12430   6.748   9.848   5.595  0.0810 -0.3036 -0.6984
   95MOL0     C12431   6.894   9.891   5.583  0.3449  0.4794  1.1465
   95MOL0     O12432   6.989   9.790   5.566 -0.6072 -0.1408  0.0015
   95MOL0     C12433   7.051   9.732   5.672  0.0507 -0.2761 -0.1328
   95MOL0     C12434   7.084   9.798   5.792 -0.5671  0.2544 -0.3699
   95MOL0     C12435   7.170   9.743   5.896  0.2319 -0.0855 -0.2711
   95MOL0     C12436   7.228   9.617   5.872 -0.0966  0.6295 -0.1389
   95MOL0     C12437   7.324   9.558   5.957  0.1398  0.0436 -0.1686
   95MOL0     O12438   7.339   9.624   6.079  0.3234  0.5362 -0.5992
   95MOL0     C12439   7.451   9.599   6.161  0.0737 -0.4793  0.4407
   95MOL0     C12440   7.428   9.643   6.291 -0.0652 -0.3295 -0.4189
   95MOL0     C12441   7.525   9.643   6.386 -0.3093  0.0203 -0.2134
   95MOL0     C12442   7.653   9.593   6.362 -0.7234 -0.1419  0.1562
   95MOL0     O12443   7.759   9.611   6.439 -0.4332  0.6716 -0.0441
   95MOL0     C12444   7.814   9.495   6.509 -0.4139 -0.5052  1.2770
   95MOL0     C12445   7.949   9.520   6.583  0.1630  0.4899  0.0176
   95MOL0     C12446   8.063   9.593   6.497  0.0838 -0.1260  1.3185
   95MOL0     C12447   8.192   9.614   6.580  0.5656 -0.8138 -0.7954
   95MOL0     C12448   8.318   9.648   6.512 -0.0101  0.1710  0.2618
   95MOL0     C12449   8.427   9.660   6.621 -0.2373 -0.0328 -0.2656
   95MOL0     C12450   8.564   9.654   6.560 -0.0175  0.1067  0.5201
   95MOL0     C12451   8.655   9.741   6.648  1.0825 -0.8588  0.0893
   95MOL0    Cl12452   8.620   9.911   6.623  0.0045  0.0001 -0.1843
   95MOL0     C12453   7.674   9.542   6.231  0.1047  0.8849 -0.1866
   95MOL0     C12454   7.571   9.535   6.138  0.8210  1.3182 -0.1601
   95MOL0     O12455   7.372   9.451   5.937 -0.0901  0.2856  0.6231
   95MOL0     C12456   7.201   9.544   5.749  0.1578 -0.4838  0.4157
   95MOL0     C12457   7.105   9.602   5.651 -0.6612  0.3284  0.0140
   95MOL0     N12458   6.687   9.690   6.077  0.3095  0.1586  0.4554
   95MOL0     N12459   6.728   9.593   6.154 -0.8933 -0.5066 -0.7790
   95MOL0     C12460   7.911   8.829   6.277  0.5192 -0.3017  0.2643
   95MOL0     C12461   8.048   8.797   6.269  0.4232 -0.2316 -0.5427
   95MOL0     C12462   8.483   8.748   6.309 -0.0775  0.3189 -0.1167
   95MOL0     C12463   8.542   8.784   6.184  0.4718 -0.4739  0.3060
   95MOL0     C12464   8.669   8.746   6.144  0.9871  0.2367 -0.7946
   95MOL0     C12465   8.752   8.678   6.228  0.8357  0.1553 -0.1859
   95MOL0     O12466   8.875   8.635   6.180 -0.0409  0.4543 -0.3446
   95MOL0     C12467   8.981   8.584   6.269  0.2691  0.3741  0.0951
   95MOL0     C12468   9.108   8.553   6.191 -0.9120  0.3291 -0.5358
   95MOL0     C12469   9.210   8.483   6.287 -0.5012 -0.4511  0.5337
   95MOL0     C12470   9.255   8.574   6.401  0.3131 -0.5427 -0.5536
   95MOL0     C12471   9.318   8.503   6.517  0.3004 -0.7428  0.4592
   95MOL0     C12472   9.374   8.437   6.596  0.9243  0.3250 -0.2153
   95MOL0     C12473   8.695   8.634   6.355  0.0163 -1.2140 -0.4394
   95MOL0     C12474   8.571   8.686   6.391 -1.2296 -0.1947  0.2177
   95MOL0     H12475   8.174   9.109   6.332  0.0061  1.3416 -2.7847
   95MOL0     H12476   7.943   9.161   6.335  1.2366 -0.3980 -1.1261
   95MOL0     H12477   7.712   9.196   6.256 -0.6938 -1.5231 -0.9970
   95MOL0     H12478   7.685   9.149   6.432 -2.8933  0.5517  1.4414
   95MOL0     H12479   7.491   9.015   6.350 -0.6094 -0.4126 -0.2056
   95MOL0     H12480   7.525   9.047   6.194 -1.0052 -3.5643  2.1141
   95MOL0     H12481   7.479   9.292   6.220 -0.2238 -2.7122 -1.4233
   95MOL0     H12482   7.463   9.255   6.406 -0.1122  1.8901 -0.0572
   95MOL0     H12483   7.303   9.159   6.171  0.7063  0.2041  0.8896
   95MOL0     H12484   7.247   9.136   6.334 -0.5337  1.7322  0.0150
   95MOL0     H12485   7.266   9.400   6.176 -1.0384  2.0225  1.3118
   95MOL0     H12486   7.229   9.380   6.346  1.7250  0.4980 -0.1255
   95MOL0     H12487   7.043   9.208   6.229 -1.5427  0.7664  0.1508
   95MOL0     H12488   7.106   9.286   6.081  0.9337  0.9995  0.0218
   95MOL0     H12489   6.964   9.405   6.307 -0.5707  2.1421 -1.0560
   95MOL0     H12490   7.047   9.507   6.190  0.5336 -0.2473 -1.2330
   95MOL0     H12491   6.803   9.321   6.144 -0.4276 -1.4691 -3.1474
   95MOL0     H12492   6.905   9.345   6.012 -3.0002  0.2249 -1.8226
   95MOL0     H12493   6.879   9.536   5.866  1.0456 -4.1070  1.4252
   95MOL0     H12494   6.848   9.851   5.856  1.0531 -1.1705 -0.7231
   95MOL0     H12495   6.676   9.881   5.870 -0.1324  0.0447 -1.6879
   95MOL0     H12496   6.607   9.737   5.720  1.3744 -2.7200  1.1786
   95MOL0     H12497   6.773   9.669   5.683 -1.0873  0.1330 -1.8226
   95MOL0     H12498   6.705   9.798   5.508 -0.8412  1.8266 -1.5490
   95MOL0     H12499   6.688   9.939   5.589 -0.0775 -0.3915 -0.4692
   95MOL0     H12500   6.919   9.949   5.672  1.9478 -1.8151  2.2720
   95MOL0     H12501   6.902   9.944   5.487  1.5980 -3.3005 -1.0192
   95MOL0     H12502   7.053   9.901   5.804 -1.1939  0.2187 -1.4850
   95MOL0     H12503   7.205   9.793   5.987  0.1432  0.5056 -0.5578
   95MOL0     H12504   7.339   9.702   6.312  0.6683  1.2568 -1.5889
   95MOL0     H12505   7.520   9.699   6.479  0.5623 -2.2002  1.2479
   95MOL0     H12506   7.838   9.423   6.431 -0.1325 -0.3732  1.2419
   95MOL0     H12507   7.736   9.456   6.576 -1.7240  1.3658  0.9146
   95MOL0     H12508   7.993   9.424   6.613 -0.0153  0.0029 -1.2358
   95MOL0     H12509   7.927   9.585   6.668  1.8361 -0.0188  0.8758
   95MOL0     H12510   8.019   9.685   6.459  1.6599 -0.1488 -0.7530
   95MOL0     H12511   8.080   9.534   6.407 -1.8109  0.9667  0.1944
   95MOL0     H12512   8.153   9.696   6.641 -1.6054 -1.1327 -1.6463
   95MOL0     H12513   8.201   9.532   6.652 -0.7801 -3.1159 -3.0672
   95MOL0     H12514   8.303   9.740   6.455  0.1295 -1.3255 -2.3825
   95MOL0     H12515   8.352   9.567   6.447  6.5048  0.0947  2.9386
   95MOL0     H12516   8.405   9.575   6.686 -3.2757 -1.4403 -2.8935
   95MOL0     H12517   8.406   9.758   6.665 -0.0917 -1.3245  2.9966
   95MOL0     H12518   8.595   9.551   6.541 -2.0590 -0.7665  1.5440
   95MOL0     H12519   8.556   9.704   6.463  1.0634 -0.8914 -0.1086
   95MOL0     H12520   8.760   9.720   6.626  1.4060  1.3627 -0.7486
   95MOL0     H12521   8.643   9.724   6.756 -0.9738  1.6619  0.3440
   95MOL0     H12522   7.775   9.509   6.207 -0.2635 -1.0214  0.7057
   95MOL0     H12523   7.605   9.501   6.041  0.9372 -0.1523  0.3777
   95MOL0     H12524   7.244   9.448   5.726 -0.8893 -0.5187 -1.6397
   95MOL0     H12525   7.094   9.541   5.563 -0.4537 -0.1607  0.3217
   95MOL0     H12526   7.838   8.754   6.246  0.2679 -0.1272  0.4241
   95MOL0     H12527   8.062   8.692   6.242 -1.0236 -0.5023 -0.3033
   95MOL0     H12528   8.483   8.841   6.113 -3.0407 -3.5962  0.4392
   95MOL0     H12529   8.691   8.779   6.043 -3.1131  1.0258 -1.6126
   95MOL0     H12530   8.959   8.499   6.334  1.9241 -1.3789 -1.5031
   95MOL0     H12531   9.013   8.665   6.335  0.9845 -1.9728  2.8287
   95MOL0     H12532   9.078   8.490   6.107  1.4182 -4.4314  1.8472
   95MOL0     H12533   9.156   8.646   6.158 -0.1090 -0.7813 -2.6522
   95MOL0     H12534   9.292   8.446   6.225 -0.5891  0.2325 -0.0045
   95MOL0     H12535   9.161   8.395   6.330  1.1989  0.0135  3.7274
   95MOL0     H12536   9.336   8.640   6.369 -0.7698  0.5940 -1.0585
   95MOL0     H12537   9.180   8.644   6.442  0.9055  0.4720 -1.1552
   95MOL0     H12538   9.427   8.367   6.658 -0.4693 -1.3176 -0.7766
   95MOL0     H12539   8.758   8.589   6.431  1.9971  2.7487  0.5602
   95MOL0     H12540   8.546   8.654   6.492 -0.8718  4.0305  1.8860
   96MOL0     O12541  11.385   1.385   5.327 -0.3417  0.3585 -0.1155
   96MOL0     C12542  11.422   1.324   5.226 -0.4839  1.1712  0.7439
   96MOL0     O12543  11.370   1.206   5.179 -0.6615  0.0988 -0.2091
   96MOL0     C12544  11.248   1.166   5.222 -0.0642  0.5911  0.0848
   96MOL0     C12545  11.158   1.159   5.123  0.7526  0.1637  0.0961
   96MOL0     C12546  11.020   1.114   5.148 -0.3639 -0.0789 -0.7860
   96MOL0     C12547  10.980   1.084   5.283 -0.9810  0.1466  0.3996
   96MOL0     O12548  10.852   1.047   5.322  0.2711  0.4927  0.6445
   96MOL0     C12549  10.752   1.023   5.221  0.2808  0.0919 -0.5723
   96MOL0     C12550  10.615   1.007   5.274 -0.0824 -0.1408 -0.5953
   96MOL0     C12551  10.537   1.139   5.298  0.3945 -0.4733  0.2926
   96MOL0     C12552  10.407   1.100   5.365  0.8514 -0.5830  0.3868
   96MOL0     C12553  10.314   1.222   5.396  0.0052 -0.6610 -0.3496
   96MOL0     C12554  10.177   1.189   5.451  0.0426  0.2489  0.1354
   96MOL0     C12555  10.098   1.293   5.495  0.6478 -0.6989 -0.8654
   96MOL0     C12556  10.001   1.361   5.399  0.2682 -0.5475 -0.1879
   96MOL0     N12557   9.903   1.273   5.328 -0.0583  0.5232  0.7090
   96MOL0     C12558   9.784   1.221   5.371 -0.4058 -1.0021 -0.4999
   96MOL0     C12559   9.725   1.157   5.265 -0.6624 -0.3651 -0.4191
   96MOL0     C12560   9.594   1.080   5.255  0.4054 -0.0373 -0.4706
   96MOL0     C12561   9.474   1.154   5.181 -0.4088 -0.5605 -0.1287
   96MOL0     C12562   9.331   1.126   5.234 -0.4966 -0.3780 -1.1214
   96MOL0     C12563   9.226   1.210   5.161 -0.2606  0.8796 -0.0578
   96MOL0     O12564   9.210   1.146   5.040  0.0907 -0.4564  0.0383
   96MOL0     C12565   9.123   1.203   4.948 -0.4715  0.2994  0.9298
   96MOL0     C12566   9.027   1.121   4.892  0.2222  0.6161  0.5706
   96MOL0     C12567   8.945   1.158   4.787 -0.5727  0.2964  0.4734
   96MOL0     C12568   8.965   1.285   4.727  0.2597  1.0982  0.1939
   96MOL0     C12569   8.880   1.334   4.612 -0.1909  0.7545  0.4772
   96MOL0     O12570   8.755   1.276   4.600  0.1565 -0.0375 -0.0739
   96MOL0     C12571   8.673   1.283   4.493  0.3316 -0.4261 -0.4098
   96MOL0     C12572   8.689   1.357   4.370  0.8073  0.1031 -0.1395
   96MOL0     C12573   8.598   1.353   4.266  0.5582 -0.2787  0.2194
   96MOL0     C12574   8.488   1.268   4.277 -0.9896 -0.6536  1.1998
   96MOL0     O12575   8.391   1.280   4.177 -0.1788 -0.4691 -0.1971
   96MOL0     C12576   8.264   1.213   4.196 -0.4302  0.4287  0.1848
   96MOL0     C12577   8.266   1.084   4.112 -0.5165 -0.4734  0.8034
   96MOL0     C12578   8.121   1.042   4.067 -0.3446 -0.8653  0.6033
   96MOL0     C12579   8.133   0.912   3.995 -0.6406  0.5234  0.2864
   96MOL0     C12580   8.007   0.882   3.911  0.3452  0.5471 -0.1465
   96MOL0     C12581   7.999   0.729   3.892  0.0926 -0.8063  0.1244
   96MOL0     C12582   7.869   0.684   3.824 -0.4700  0.0055 -0.2689
   96MOL0     C12583   7.895   0.699   3.674  0.8805  0.7705 -0.2558
   96MOL0    Cl12584   7.738   0.658   3.585  0.0857 -0.5223 -0.4861
   96MOL0     C12585   8.475   1.189   4.394 -0.1212  1.1505 -0.0190
   96MOL0     C12586   8.563   1.195   4.502  0.2870 -0.0418  0.5758
   96MOL0     O12587   8.928   1.415   4.534 -0.2972  0.6156 -0.2656
   96MOL0     C12588   9.058   1.369   4.779  0.5928  1.5470 -0.5416
   96MOL0     C12589   9.135   1.328   4.891 -0.8924 -0.7741 -0.2374
   96MOL0     N12590   9.813   1.170   5.162  0.0210  0.0904  0.1985
   96MOL0     N12591   9.921   1.233   5.196 -0.5727  0.4140 -0.6336
   96MOL0     C12592  11.079   1.100   5.383 -0.6819  0.9629 -0.1412
   96MOL0     C12593  11.218   1.135   5.353 -0.1080 -0.4625 -0.7520
   96MOL0     C12594  11.552   1.362   5.174  0.4195  0.3934  1.0397
   96MOL0     C12595  11.636   1.451   5.246 -0.5388  0.2966 -0.9544
   96MOL0     C12596  11.747   1.506   5.172  0.6290 -0.4169 -0.0440
   96MOL0     C12597  11.779   1.478   5.041 -0.8556 -0.7112  0.6404
   96MOL0     O12598  11.879   1.549   4.969 -0.3482  0.4339 -0.5513
   96MOL0     C12599  11.845   1.683   4.945 -0.0525 -0.5882  0.3737
   96MOL0     C12600  11.882   1.787   5.049 -0.3563  0.7122 -0.9286
   96MOL0     C12601  12.030   1.781   5.080  0.0914 -0.1834 -0.2125
   96MOL0     C12602  12.045   1.884   5.191 -0.2065 -0.2090 -0.1189
   96MOL0     C12603  12.183   1.895   5.230  0.8084 -0.1605  0.1969
   96MOL0     C12604  12.299   1.911   5.272 -0.9175 -0.3947  0.1171
   96MOL0     C12605  11.705   1.376   4.980 -0.2120  0.0730 -0.2493
   96MOL0     C12606  11.601   1.316   5.052  0.8074  0.1582  0.4014
   96MOL0     H12607  11.177   1.184   5.019  2.1041 -0.6896  0.1081
   96MOL0     H12608  10.951   1.115   5.064  0.4373  2.0165 -1.4842
   96MOL0     H12609  10.781   0.932   5.168 -0.3045 -2.0664  2.5437
   96MOL0     H12610  10.739   1.096   5.140  0.8347  1.4464  0.5085
   96MOL0     H12611  10.632   0.955   5.369  1.6825  4.6913  2.1098
   96MOL0     H12612  10.552   0.939   5.216 -0.8809 -1.0106  1.2052
   96MOL0     H12613  10.509   1.189   5.205  1.9290 -1.5376 -0.8035
   96MOL0     H12614  10.606   1.201   5.357 -0.3620 -0.3996  1.1172
   96MOL0     H12615  10.357   1.036   5.293  1.9265  0.4649 -1.3658
   96MOL0     H12616  10.426   1.059   5.465  0.0683  0.9876  1.2121
   96MOL0     H12617  10.306   1.269   5.298  0.5094 -1.0997 -0.6047
   96MOL0     H12618  10.362   1.298   5.458 -1.8711  2.0434 -1.9764
   96MOL0     H12619  10.202   1.124   5.535 -0.1139 -1.1071 -0.8276
   96MOL0     H12620  10.117   1.134   5.377 -1.3429  0.7708  0.8280
   96MOL0     H12621  10.043   1.264   5.585  2.1315  0.9953  0.6729
   96MOL0     H12622  10.161   1.369   5.542 -0.8942 -0.3128  0.6555
   96MOL0     H12623  10.052   1.411   5.317  1.7237  0.2211  1.1363
   96MOL0     H12624   9.933   1.430   5.451 -0.9203 -1.9729  0.2021
   96MOL0     H12625   9.754   1.240   5.474  2.2435  3.2278 -0.2721
   96MOL0     H12626   9.559   1.071   5.358  2.0504 -0.2534  0.0975
   96MOL0     H12627   9.591   0.983   5.205 -0.5330 -2.1893  3.3991
   96MOL0     H12628   9.491   1.135   5.075  2.0088  3.0569 -0.5824
   96MOL0     H12629   9.486   1.263   5.180  1.2683 -0.7078  0.1821
   96MOL0     H12630   9.310   1.019   5.222  2.9148 -1.4033  0.5520
   96MOL0     H12631   9.320   1.158   5.338 -0.3329  1.1211 -1.5432
   96MOL0     H12632   9.245   1.317   5.154 -2.4723  1.2593 -1.0506
   96MOL0     H12633   9.132   1.201   5.215 -1.9898  3.3367 -2.4029
   96MOL0     H12634   9.014   1.020   4.932  1.8082  0.1141 -0.1003
   96MOL0     H12635   8.882   1.081   4.744 -0.9316  0.0124  1.4821
   96MOL0     H12636   8.769   1.429   4.377  0.8331  0.0509  0.1031
   96MOL0     H12637   8.603   1.441   4.203 -1.8455  0.2037  0.6122
   96MOL0     H12638   8.176   1.266   4.158 -2.1782 -0.9938  1.9963
   96MOL0     H12639   8.235   1.200   4.301  2.6243  0.6068  1.1425
   96MOL0     H12640   8.310   1.007   4.176 -2.8003 -0.6778  2.2342
   96MOL0     H12641   8.332   1.088   4.024 -0.1581 -3.8546  0.7899
   96MOL0     H12642   8.083   1.124   4.005 -2.8157 -0.8499  2.0034
   96MOL0     H12643   8.039   1.044   4.139  1.3630  2.7849  2.7145
   96MOL0     H12644   8.222   0.909   3.932  2.1686 -0.8462  3.9761
   96MOL0     H12645   8.148   0.833   4.069  0.0402  1.8366  1.6073
   96MOL0     H12646   8.010   0.943   3.820  0.6302  0.9238  0.1126
   96MOL0     H12647   7.920   0.921   3.964 -2.9115 -2.3304 -2.9342
   96MOL0     H12648   7.987   0.684   3.991  0.3242 -1.0941  0.0250
   96MOL0     H12649   8.085   0.683   3.841 -1.0307 -2.0824 -0.6775
   96MOL0     H12650   7.843   0.580   3.842  0.4371 -0.2232 -0.2090
   96MOL0     H12651   7.786   0.753   3.841  0.3348  2.0339 -3.6114
   96MOL0     H12652   7.976   0.630   3.648 -0.7506 -1.8799  1.3090
   96MOL0     H12653   7.922   0.803   3.653  0.1091  1.7265  2.9509
   96MOL0     H12654   8.401   1.111   4.406  0.9370 -0.2843 -2.2254
   96MOL0     H12655   8.554   1.123   4.583 -0.2914  0.9018  1.3716
   96MOL0     H12656   9.065   1.467   4.733  0.4592  1.0000 -1.7830
   96MOL0     H12657   9.216   1.381   4.941  1.8092 -3.5911 -1.2852
   96MOL0     H12658  11.055   1.100   5.489  2.6733  1.5604  0.7193
   96MOL0     H12659  11.290   1.158   5.429  1.9542  2.3011 -3.3129
   96MOL0     H12660  11.607   1.499   5.339  0.4164  2.7121 -1.8072
   96MOL0     H12661  11.811   1.582   5.216  1.3301 -1.8818  1.5810
   96MOL0     H12662  11.737   1.676   4.931 -0.1916  0.0017  1.1005
   96MOL0     H12663  11.872   1.720   4.845 -1.9004  3.0705  1.0669
   96MOL0     H12664  11.853   1.886   5.012  0.8210  1.7135  0.6933
   96MOL0     H12665  11.810   1.766   5.129 -2.0054  1.1206 -2.2332
   96MOL0     H12666  12.094   1.805   4.994  1.6002 -2.7153  0.1162
   96MOL0     H12667  12.061   1.685   5.121  0.5543 -1.5952 -3.4959
   96MOL0     H12668  12.014   1.984   5.162 -0.9740 -0.8715 -1.6895
   96MOL0     H12669  11.981   1.856   5.275  0.1979  0.8044  0.5499
   96MOL0     H12670  12.396   1.930   5.313 -1.0528  0.0687  0.2180
   96MOL0     H12671  11.709   1.348   4.875 -2.5884 -0.0454 -0.3474
   96MOL0     H12672  11.543   1.241   4.999  1.8016 -1.5420  1.5961
   97MOL0     O12673   9.639   9.235   8.748  0.3428  0.6462  0.5459
   97MOL0     C12674   9.691   9.151   8.827  0.1015  0.2054  0.3534
   97MOL0     O12675   9.646   9.112   8.949 -0.4210  0.0244  1.2796
   97MOL0     C12676   9.567   9.192   9.016  0.6561 -0.2873  0.0671
   97MOL0     C12677   9.427   9.189   8.982  0.3977  0.0324  0.0514
   97MOL0     C12678   9.349   9.240   9.085  0.9871 -0.4731  0.2135
   97MOL0     C12679   9.395   9.290   9.201  0.0145  0.8935  0.7751
   97MOL0     O12680   9.297   9.315   9.294 -1.2380 -0.7890  0.0025
   97MOL0     C12681   9.335   9.406   9.402 -0.0500 -0.0623  0.4995
   97MOL0     C12682   9.356   9.557   9.364  0.4238  0.2248  0.7083
   97MOL0     C12683   9.221   9.614   9.313 -0.0024 -0.2348  0.4778
   97MOL0     C12684   9.247   9.757   9.262  0.0517  0.3357 -0.1378
   97MOL0     C12685   9.243   9.757   9.111 -0.1346 -0.1993 -0.1594
   97MOL0     C12686   9.358   9.685   9.055 -0.6151 -0.0423 -0.9355
   97MOL0     C12687   9.376   9.685   8.903 -0.5835 -0.3273  0.2334
   97MOL0     C12688   9.320   9.562   8.836  1.3703 -0.0146 -0.7994
   97MOL0     N12689   9.371   9.570   8.703  0.0609 -0.2300  0.9570
   97MOL0     C12690   9.481   9.497   8.660 -0.1475 -0.0302 -0.1896
   97MOL0     C12691   9.483   9.519   8.528 -0.8291  0.1338  0.6849
   97MOL0     C12692   9.587   9.463   8.434 -0.8817  0.4330 -1.0580
   97MOL0     C12693   9.546   9.338   8.369 -0.0457 -0.1687 -0.0864
   97MOL0     C12694   9.467   9.363   8.233  0.0707 -0.5844 -0.8318
   97MOL0     C12695   9.399   9.241   8.184 -0.1785  0.9987 -0.8492
   97MOL0     O12696   9.315   9.269   8.074  0.3099  0.6965 -0.6319
   97MOL0     C12697   9.188   9.323   8.070  0.0203 -0.3942 -0.0010
   97MOL0     C12698   9.140   9.370   7.947  0.7790 -0.6247  0.1721
   97MOL0     C12699   9.011   9.435   7.944 -0.7754 -0.3880 -0.3881
   97MOL0     C12700   8.937   9.462   8.057  0.0813 -0.7033  1.2218
   97MOL0     C12701   8.798   9.529   8.046  0.8586  0.2109 -0.2935
   97MOL0     O12702   8.714   9.530   8.156 -0.3895  0.1803  0.9706
   97MOL0     C12703   8.578   9.551   8.119  0.3152 -0.2289  0.4311
   97MOL0     C12704   8.480   9.464   8.139  0.6962  1.3827  0.2929
   97MOL0     C12705   8.342   9.482   8.132  0.9601 -0.4633 -0.4840
   97MOL0     C12706   8.295   9.606   8.086  0.2437  0.6162 -0.5426
   97MOL0     O12707   8.161   9.643   8.079 -0.3513 -0.2009  0.6610
   97MOL0     C12708   8.081   9.596   8.191 -0.1299 -0.1769  0.0759
   97MOL0     C12709   7.945   9.664   8.196  0.0496  0.0546 -0.9979
   97MOL0     C12710   7.898   9.668   8.341  0.5370  0.0467 -0.7144
   97MOL0     C12711   7.952   9.795   8.411  0.5916  0.1125  0.4102
   97MOL0     C12712   7.841   9.903   8.428 -0.0227  0.5948 -0.0578
   97MOL0     C12713   7.903  10.023   8.499  0.1553  0.2528  0.7083
   97MOL0     C12714   7.807  10.136   8.498  0.7468 -0.4232  0.0429
   97MOL0     C12715   7.831  10.249   8.605 -0.1803  0.1221 -0.2047
   97MOL0    Cl12716   8.006  10.274   8.601 -0.3985  0.5458 -0.4084
   97MOL0     C12717   8.391   9.698   8.055 -0.6101  0.7743 -0.0990
   97MOL0     C12718   8.526   9.674   8.075 -0.5514  0.1174 -0.1065
   97MOL0     O12719   8.776   9.594   7.945  0.1477  1.0950 -0.4819
   97MOL0     C12720   8.986   9.413   8.181  0.5019 -0.0842 -0.8616
   97MOL0     C12721   9.108   9.341   8.186 -0.1484 -0.1685  0.0163
   97MOL0     N12722   9.389   9.607   8.490 -0.0431 -0.2370 -0.2284
   97MOL0     N12723   9.322   9.640   8.595  0.0642  0.5634  0.0238
   97MOL0     C12724   9.532   9.296   9.223 -1.0669 -0.9219 -0.7480
   97MOL0     C12725   9.624   9.254   9.132  0.6415 -0.2829  0.2781
   97MOL0     C12726   9.801   9.084   8.760 -0.0368  0.6360 -0.1405
   97MOL0     C12727   9.880   8.996   8.842  0.4887  0.0715 -0.7695
   97MOL0     C12728   9.985   8.924   8.787 -0.1997  1.0940  0.2435
   97MOL0     C12729  10.014   8.929   8.647 -0.4389  0.4153 -0.3959
   97MOL0     O12730  10.111   8.844   8.606 -0.3900  0.3514 -0.2329
   97MOL0     C12731  10.172   8.859   8.477 -0.3116  1.2896  0.3142
   97MOL0     C12732  10.228   8.723   8.420 -1.6028 -0.0219  0.4213
   97MOL0     C12733  10.366   8.677   8.471  0.6603  0.2068 -0.7083
   97MOL0     C12734  10.325   8.582   8.588 -1.3880 -0.1154  0.8173
   97MOL0     C12735  10.443   8.511   8.637 -0.5908  0.1943 -0.1283
   97MOL0     C12736  10.533   8.439   8.682 -0.1103 -0.5896  0.0669
   97MOL0     C12737   9.941   9.023   8.571  0.0663  0.3024  0.0645
   97MOL0     C12738   9.848   9.109   8.634 -0.4070  0.6643 -0.2617
   97MOL0     H12739   9.398   9.130   8.896 -0.6995  2.5874 -1.4397
   97MOL0     H12740   9.243   9.215   9.086  1.4368 -2.6858  2.2908
   97MOL0     H12741   9.425   9.373   9.454  1.1857 -0.8769 -1.9989
   97MOL0     H12742   9.252   9.408   9.474 -0.0836 -1.1476  0.5016
   97MOL0     H12743   9.432   9.561   9.286  0.0455 -0.5555  0.2965
   97MOL0     H12744   9.389   9.607   9.456  1.7648 -1.5715  1.2654
   97MOL0     H12745   9.160   9.624   9.402  2.6708  0.5408  2.3571
   97MOL0     H12746   9.163   9.557   9.240 -0.5978  0.7935  0.1256
   97MOL0     H12747   9.164   9.819   9.297 -0.2086 -0.4948  0.7470
   97MOL0     H12748   9.345   9.795   9.293 -0.5037  0.7460  1.1531
   97MOL0     H12749   9.254   9.859   9.073 -0.1388  0.0906  0.5957
   97MOL0     H12750   9.151   9.710   9.075 -1.5224 -0.6183  3.5506
   97MOL0     H12751   9.365   9.582   9.089 -2.6131 -0.1421 -0.7030
   97MOL0     H12752   9.453   9.729   9.084 -0.3149 -1.2326 -0.0467
   97MOL0     H12753   9.332   9.772   8.854  2.1703 -0.1669 -2.2625
   97MOL0     H12754   9.485   9.690   8.887 -0.8661  3.7756 -1.5253
   97MOL0     H12755   9.211   9.564   8.842  1.4093  1.8732  0.0342
   97MOL0     H12756   9.359   9.471   8.884  1.6543  1.4654  1.9576
   97MOL0     H12757   9.533   9.426   8.724 -3.2119 -1.0909  1.3382
   97MOL0     H12758   9.664   9.432   8.505 -3.1078 -1.0099  0.8980
   97MOL0     H12759   9.616   9.547   8.371 -0.1825  1.2835  0.3616
   97MOL0     H12760   9.476   9.277   8.428  0.7527 -0.2718  0.7836
   97MOL0     H12761   9.638   9.281   8.352 -0.2166 -0.2517 -0.7547
   97MOL0     H12762   9.389   9.437   8.251  0.0603 -0.4996 -1.2227
   97MOL0     H12763   9.530   9.405   8.154 -1.2903  1.3766 -0.9279
   97MOL0     H12764   9.345   9.200   8.270  0.2128 -0.3770 -1.2197
   97MOL0     H12765   9.468   9.164   8.148 -0.7887 -1.1121  2.1024
   97MOL0     H12766   9.205   9.347   7.863 -0.3609 -0.7702 -0.7003
   97MOL0     H12767   8.982   9.449   7.840 -0.4812 -2.8194 -0.8659
   97MOL0     H12768   8.508   9.365   8.172 -4.9874 -1.1459 -1.1684
   97MOL0     H12769   8.268   9.405   8.150  1.3815 -0.0746  4.1200
   97MOL0     H12770   8.140   9.612   8.282 -0.6551 -0.3804  0.4554
   97MOL0     H12771   8.069   9.487   8.187  0.4323 -0.2646  0.6483
   97MOL0     H12772   7.878   9.610   8.129 -0.3526 -0.3128 -0.3067
   97MOL0     H12773   7.946   9.770   8.169  0.9656  0.0007 -1.2012
   97MOL0     H12774   7.925   9.577   8.396 -1.3793 -0.4128 -0.4539
   97MOL0     H12775   7.788   9.672   8.348  0.6475  0.0480  1.5480
   97MOL0     H12776   7.990   9.763   8.509 -1.5325  2.6704  2.1846
   97MOL0     H12777   8.039   9.844   8.367  0.4466 -0.4789 -0.5591
   97MOL0     H12778   7.751   9.876   8.484  1.0033  1.8963  2.3652
   97MOL0     H12779   7.816   9.933   8.326  1.9062 -3.3219 -1.9162
   97MOL0     H12780   7.990  10.055   8.442  0.5004 -1.0671  0.4635
   97MOL0     H12781   7.945   9.983   8.592  0.9046 -0.4614  0.0802
   97MOL0     H12782   7.814  10.195   8.406  4.4171  0.0242  0.4659
   97MOL0     H12783   7.707  10.092   8.510  0.5587 -0.0435 -0.0974
   97MOL0     H12784   7.803  10.222   8.707 -0.7087 -0.8946 -0.6125
   97MOL0     H12785   7.775  10.340   8.581  1.6849  1.0746 -1.2290
   97MOL0     H12786   8.361   9.801   8.036 -1.3519  0.3671 -1.2587
   97MOL0     H12787   8.601   9.748   8.049 -0.8915 -0.4693 -3.0978
   97MOL0     H12788   8.924   9.435   8.267 -0.4128 -3.0322 -0.6275
   97MOL0     H12789   9.140   9.304   8.283 -0.6791  3.6930  1.8294
   97MOL0     H12790   9.568   9.318   9.324  1.1999 -1.0691 -1.4707
   97MOL0     H12791   9.729   9.258   9.158  0.6743  3.5229  0.1267
   97MOL0     H12792   9.856   8.983   8.947 -1.3419  0.3140 -1.1323
   97MOL0     H12793  10.040   8.850   8.845 -1.3526  1.3583  1.7392
   97MOL0     H12794  10.257   8.927   8.481  0.0567  0.8952 -0.5103
   97MOL0     H12795  10.097   8.896   8.406 -1.5359 -0.2595  0.7341
   97MOL0     H12796  10.154   8.644   8.404 -0.7190 -0.4534 -2.0201
   97MOL0     H12797  10.244   8.761   8.318 -2.2828 -0.6819  0.0539
   97MOL0     H12798  10.441   8.751   8.502  0.1880 -0.3663  2.1041
   97MOL0     H12799  10.403   8.614   8.389  1.6914  0.0019 -0.0949
   97MOL0     H12800  10.289   8.638   8.674  0.3423 -0.2208  1.6628
   97MOL0     H12801  10.243   8.514   8.565 -2.3604  0.1930  3.1135
   97MOL0     H12802  10.602   8.364   8.716  0.4940 -0.1455 -0.1581
   97MOL0     H12803   9.952   9.037   8.464 -1.0673 -0.8847 -0.2485
   97MOL0     H12804   9.797   9.170   8.559 -0.3469  0.0952 -0.7679
   98MOL0     O12805   5.103   0.034   4.874  1.0580 -0.1139 -0.7088
   98MOL0     C12806   5.137   0.137   4.922  0.3616  0.4668  0.2693
   98MOL0     O12807   5.063   0.217   4.996 -0.4906 -0.4051 -0.3929
   98MOL0     C12808   4.932   0.182   5.031 -0.0399 -1.3449 -0.2880
   98MOL0     C12809   4.836   0.192   4.934  0.0501  0.0294  0.1674
   98MOL0     C12810   4.707   0.169   4.970  0.1102 -0.1610  0.0328
   98MOL0     C12811   4.671   0.132   5.101  0.5531 -0.3587  0.1293
   98MOL0     O12812   4.539   0.091   5.136  0.0718  0.2166 -0.4137
   98MOL0     C12813   4.499   0.096   5.268  0.2060  0.6799  0.2476
   98MOL0     C12814   4.338   0.108   5.281 -0.0974 -0.1074 -0.1628
   98MOL0     C12815   4.288   0.252   5.302  0.6453  0.6055  0.4446
   98MOL0     C12816   4.139   0.278   5.267  0.5465  0.6899  0.2667
   98MOL0     C12817   4.047   0.225   5.382 -0.0947 -0.7317 -0.1866
   98MOL0     C12818   3.901   0.294   5.355 -0.3591 -0.1990  0.2114
   98MOL0     C12819   3.807   0.259   5.473  0.7866  0.4629  0.3973
   98MOL0     C12820   3.826   0.342   5.595  0.0540 -1.3458  0.6263
   98MOL0     N12821   3.705   0.427   5.609 -0.3325  0.1057  0.2363
   98MOL0     C12822   3.668   0.528   5.517 -0.5141 -0.2642 -0.0290
   98MOL0     C12823   3.549   0.585   5.568 -1.4642  0.0408 -1.0922
   98MOL0     C12824   3.469   0.689   5.501  0.2299  0.1060 -0.4085
   98MOL0     C12825   3.385   0.619   5.383 -0.4107 -0.1378 -0.2176
   98MOL0     C12826   3.285   0.714   5.310 -1.1988  0.4358  0.1001
   98MOL0     C12827   3.185   0.636   5.218 -0.4357 -0.6101 -0.0714
   98MOL0     O12828   3.193   0.491   5.235  0.3564  1.1664 -0.3236
   98MOL0     C12829   3.175   0.415   5.124  0.3222  0.5091  1.1918
   98MOL0     C12830   3.083   0.434   5.016 -0.2254 -0.2963  0.0511
   98MOL0     C12831   3.075   0.341   4.908 -0.0322  0.5936 -0.7036
   98MOL0     C12832   3.160   0.226   4.912  0.1846 -0.6356 -0.1986
   98MOL0     C12833   3.146   0.139   4.793 -0.4244  0.4111  0.5784
   98MOL0     O12834   3.237   0.047   4.773 -0.0214 -0.4836 -1.0637
   98MOL0     C12835   3.220  -0.040   4.662  0.3107 -0.1281  0.7843
   98MOL0     C12836   3.109  -0.118   4.646 -1.0621 -0.0899  0.9532
   98MOL0     C12837   3.110  -0.222   4.549  0.2451  0.2192  0.1122
   98MOL0     C12838   3.214  -0.227   4.453 -0.3539 -0.0111  1.0281
   98MOL0     O12839   3.215  -0.322   4.355  0.2131  0.1968 -0.0030
   98MOL0     C12840   3.099  -0.373   4.298 -0.6955  0.3993 -0.7912
   98MOL0     C12841   3.123  -0.431   4.159 -0.6048 -0.0287  0.4807
   98MOL0     C12842   3.201  -0.559   4.159  0.9566 -0.1872 -0.8161
   98MOL0     C12843   3.247  -0.586   4.016  0.4662 -0.2861 -0.3090
   98MOL0     C12844   3.332  -0.712   4.010  0.4077  0.2156  0.6361
   98MOL0     C12845   3.387  -0.733   3.870  0.5813  0.6020 -0.3149
   98MOL0     C12846   3.477  -0.860   3.863 -0.4673 -0.1288  0.2688
   98MOL0     C12847   3.535  -0.887   3.725  0.7205 -0.5988 -0.4419
   98MOL0    Cl12848   3.632  -1.021   3.731 -0.2646 -0.0368 -0.4160
   98MOL0     C12849   3.326  -0.144   4.470 -0.4892 -0.1484  0.1739
   98MOL0     C12850   3.320  -0.046   4.570  0.3730 -0.5063 -0.0447
   98MOL0     O12851   3.054   0.163   4.712 -0.1515  0.0228 -0.0562
   98MOL0     C12852   3.246   0.200   5.025 -0.1830 -0.1363 -0.2351
   98MOL0     C12853   3.246   0.290   5.126  1.1177 -0.3779  0.6873
   98MOL0     N12854   3.525   0.518   5.686  0.8320  0.1622  0.2990
   98MOL0     N12855   3.618   0.437   5.712  0.0267  0.2103 -0.4109
   98MOL0     C12856   4.774   0.137   5.195 -1.0702 -0.2440  0.0710
   98MOL0     C12857   4.909   0.168   5.163  0.3237 -0.1184  0.1675
   98MOL0     C12858   5.274   0.173   4.911  0.6713  0.2930  0.4223
   98MOL0     C12859   5.334   0.270   4.992  0.7742 -0.3120  0.0617
   98MOL0     C12860   5.471   0.305   4.974  0.1397  0.0894 -0.5268
   98MOL0     C12861   5.552   0.243   4.876 -0.2650  0.1109 -0.3919
   98MOL0     O12862   5.681   0.267   4.839  0.3133 -1.0819 -0.0936
   98MOL0     C12863   5.754   0.371   4.900  0.7564  0.9460 -0.1910
   98MOL0     C12864   5.793   0.318   5.034  0.1442 -0.3972 -0.3392
   98MOL0     C12865   5.861   0.428   5.119  0.8625 -0.0805  0.2039
   98MOL0     C12866   5.888   0.371   5.266  0.0593  0.0852  0.1228
   98MOL0     C12867   5.966   0.249   5.271 -0.7767 -0.2679 -0.1326
   98MOL0     C12868   6.025   0.147   5.303  0.0271 -0.6704  0.2469
   98MOL0     C12869   5.492   0.140   4.802  0.5499  0.0014  0.5823
   98MOL0     C12870   5.357   0.102   4.823  0.0404 -0.3032 -0.4520
   98MOL0     H12871   4.872   0.215   4.834 -1.4173 -2.8035 -1.1132
   98MOL0     H12872   4.630   0.179   4.894 -0.8467  2.0563  1.1940
   98MOL0     H12873   4.538   0.175   5.333 -3.1214  1.2885  1.6830
   98MOL0     H12874   4.529  -0.001   5.310  2.1760 -0.7773 -3.9502
   98MOL0     H12875   4.305   0.055   5.370  1.4987 -4.1929 -1.7734
   98MOL0     H12876   4.286   0.055   5.202  1.3433  1.1025 -2.0204
   98MOL0     H12877   4.347   0.311   5.231 -1.0517 -0.3929 -1.9718
   98MOL0     H12878   4.315   0.292   5.400  1.5659  2.4881 -0.5234
   98MOL0     H12879   4.134   0.385   5.248  1.1262  1.0856  2.2023
   98MOL0     H12880   4.098   0.237   5.174 -2.7489  2.3606  0.8267
   98MOL0     H12881   4.088   0.263   5.475  2.3179  2.9616 -2.5093
   98MOL0     H12882   4.018   0.119   5.382  0.4222 -0.8761  0.4245
   98MOL0     H12883   3.853   0.260   5.263  0.5492 -0.1921 -0.2870
   98MOL0     H12884   3.919   0.402   5.346  2.6326 -0.4845  1.4994
   98MOL0     H12885   3.702   0.275   5.444  0.4774  0.7627  1.6490
   98MOL0     H12886   3.815   0.154   5.501 -1.2395  1.0608  3.6801
   98MOL0     H12887   3.919   0.399   5.583 -0.1137 -1.7051 -3.8957
   98MOL0     H12888   3.841   0.278   5.683  1.6290 -0.7428  0.8412
   98MOL0     H12889   3.730   0.544   5.429  0.4577 -0.3145  0.6326
   98MOL0     H12890   3.530   0.773   5.467  0.1603 -1.3673 -4.7963
   98MOL0     H12891   3.409   0.729   5.584  3.7534 -0.1567  2.5156
   98MOL0     H12892   3.324   0.548   5.441 -0.2090  1.1070  1.6297
   98MOL0     H12893   3.451   0.576   5.307 -1.2360  2.3759 -2.4991
   98MOL0     H12894   3.244   0.791   5.375  0.4788  2.7341 -1.4389
   98MOL0     H12895   3.357   0.769   5.250 -1.2867 -1.5824 -2.0167
   98MOL0     H12896   3.227   0.650   5.118 -2.0529  3.0168 -0.3923
   98MOL0     H12897   3.081   0.669   5.222  0.3607  2.0983  2.7589
   98MOL0     H12898   3.011   0.515   5.005 -0.8871 -0.9696 -0.6419
   98MOL0     H12899   3.003   0.358   4.828 -1.4110 -2.2687 -0.1929
   98MOL0     H12900   3.019  -0.097   4.702 -3.1187 -1.3389 -1.6735
   98MOL0     H12901   3.021  -0.284   4.551 -0.3723  1.0808  1.7730
   98MOL0     H12902   3.026  -0.292   4.283 -0.3585  0.4436 -2.3153
   98MOL0     H12903   3.052  -0.445   4.366  0.0864 -0.7386 -1.4314
   98MOL0     H12904   3.184  -0.363   4.099  1.6714 -1.7478  0.7226
   98MOL0     H12905   3.027  -0.437   4.107  0.3268  0.9919 -1.4573
   98MOL0     H12906   3.137  -0.639   4.198 -2.8910  2.6921 -0.5988
   98MOL0     H12907   3.288  -0.544   4.223  0.3096  1.6780 -0.2914
   98MOL0     H12908   3.158  -0.594   3.953  1.6566  0.7075 -2.2221
   98MOL0     H12909   3.312  -0.503   3.985  1.2025  0.2286  2.3385
   98MOL0     H12910   3.283  -0.804   4.044 -0.0896 -0.7098 -2.2801
   98MOL0     H12911   3.421  -0.707   4.073  2.4774 -0.5814 -2.0503
   98MOL0     H12912   3.438  -0.639   3.843 -1.3466  0.8618 -3.5896
   98MOL0     H12913   3.295  -0.745   3.813  0.7971 -1.5261 -0.2671
   98MOL0     H12914   3.557  -0.841   3.935  2.0670 -3.1868 -1.4970
   98MOL0     H12915   3.431  -0.956   3.891  0.7070 -0.9467 -0.4868
   98MOL0     H12916   3.593  -0.796   3.707 -0.2929  0.7250  2.3922
   98MOL0     H12917   3.450  -0.898   3.657  0.0837  2.0548 -0.2162
   98MOL0     H12918   3.410  -0.130   4.403  0.1377  1.8155  1.2855
   98MOL0     H12919   3.400   0.028   4.564 -0.9697  0.9513 -0.7310
   98MOL0     H12920   3.308   0.111   5.026  0.0033 -0.0535  2.4375
   98MOL0     H12921   3.314   0.255   5.202  2.3801  1.6115  0.5513
   98MOL0     H12922   4.752   0.125   5.301 -0.6407  1.8509  0.4304
   98MOL0     H12923   4.985   0.192   5.237  2.6544  1.3709 -2.5169
   98MOL0     H12924   5.272   0.333   5.054 -1.5418 -1.5979 -0.7985
   98MOL0     H12925   5.522   0.376   5.038  0.6019 -0.2213 -0.5440
   98MOL0     H12926   5.685   0.454   4.916 -0.1244  0.8060 -2.7972
   98MOL0     H12927   5.834   0.405   4.834 -0.0163  2.4611 -0.3699
   98MOL0     H12928   5.713   0.281   5.099  1.5953  0.3130  1.9855
   98MOL0     H12929   5.868   0.241   5.016  1.0686 -0.2569  2.3748
   98MOL0     H12930   5.786   0.508   5.126  0.0067 -0.8338 -0.0885
   98MOL0     H12931   5.951   0.470   5.074  0.8281  1.1274  1.1948
   98MOL0     H12932   5.930   0.451   5.327 -0.3064  0.9539 -0.7418
   98MOL0     H12933   5.791   0.353   5.314 -0.1736 -1.0611 -0.7375
   98MOL0     H12934   6.088   0.066   5.333  1.2488  0.6138  1.3138
   98MOL0     H12935   5.536   0.076   4.726 -0.8439 -2.7879  1.9441
   98MOL0     H12936   5.308   0.027   4.762 -2.1190  0.3154  0.4225
   99MOL0     O12937   2.199   6.335  10.784 -0.4713 -0.2391 -0.8810
   99MOL0     C12938   2.234   6.364  10.671  0.7552 -0.4146 -0.3700
   99MOL0     O12939   2.345   6.318  10.601  1.0022  0.2144  0.0282
   99MOL0     C12940   2.445   6.251  10.668 -0.1872 -0.0495 -0.9812
   99MOL0     C12941   2.412   6.132  10.737  0.7893 -1.0642 -0.9383
   99MOL0     C12942   2.501   6.067  10.818 -0.7507 -0.9215 -0.7132
   99MOL0     C12943   2.639   6.117  10.816 -0.6452  0.2725  0.1130
   99MOL0     O12944   2.727   6.047  10.891 -0.4271  0.0400  0.3305
   99MOL0     C12945   2.832   6.132  10.940  0.2740 -0.6370  0.2092
   99MOL0     C12946   2.886   6.056  11.059 -0.3214  1.3125 -0.1871
   99MOL0     C12947   2.967   6.153  11.143  0.3345  0.3128  0.5189
   99MOL0     C12948   3.011   6.084  11.267  0.2975  0.5336  0.9337
   99MOL0     C12949   3.065   6.184  11.368 -0.3676 -0.2600  0.4166
   99MOL0     C12950   3.120   6.110  11.497  0.2276  0.6015 -0.0531
   99MOL0     C12951   3.142   6.201  11.614  0.0731  0.0076  0.1117
   99MOL0     C12952   3.229   6.322  11.588 -0.2162  0.7025 -1.0322
   99MOL0     N12953   3.244   6.416  11.699 -0.0508  0.6381 -0.1682
   99MOL0     C12954   3.141   6.472  11.770  0.5831 -0.0279 -1.7289
   99MOL0     C12955   3.200   6.507  11.895  0.0506  0.3225  0.7414
   99MOL0     C12956   3.137   6.583  12.013  0.2410 -0.5842  0.2856
   99MOL0     C12957   3.191   6.533  12.153  0.0393  0.2774 -1.2854
   99MOL0     C12958   3.115   6.403  12.199  1.1279 -0.7412  0.2524
   99MOL0     C12959   3.208   6.283  12.181  0.3918  0.3591 -0.0107
   99MOL0     O12960   3.162   6.172  12.256 -0.0509 -0.0632  0.1557
   99MOL0     C12961   3.232   6.053  12.253  0.4253 -0.0158  0.7114
   99MOL0     C12962   3.161   5.932  12.257 -0.6972  0.3870  0.2502
   99MOL0     C12963   3.217   5.810  12.230 -0.4860  0.8615  0.6804
   99MOL0     C12964   3.354   5.796  12.198  0.3658 -0.5374 -0.1832
   99MOL0     C12965   3.424   5.671  12.183 -0.4080  0.1403  0.4096
   99MOL0     O12966   3.511   5.655  12.077  0.7160 -1.0498 -0.7953
   99MOL0     C12967   3.570   5.536  12.055  0.4998 -0.0010 -0.5145
   99MOL0     C12968   3.708   5.517  12.055  0.9162 -0.4349  0.3067
   99MOL0     C12969   3.764   5.395  12.016  0.1083 -0.9351  0.0538
   99MOL0     C12970   3.680   5.292  11.978  0.1162 -0.5391  0.3803
   99MOL0     O12971   3.737   5.179  11.929  0.7307 -0.7454 -0.6524
   99MOL0     C12972   3.720   5.143  11.792 -0.1515 -0.0720  0.8849
   99MOL0     C12973   3.738   4.991  11.784  0.0966 -0.2264 -0.2605
   99MOL0     C12974   3.681   4.944  11.653 -0.0035 -1.1996  0.3794
   99MOL0     C12975   3.677   4.795  11.654 -0.1236 -0.4940 -0.1076
   99MOL0     C12976   3.643   4.731  11.518  0.8883  0.1215  0.4014
   99MOL0     C12977   3.493   4.733  11.482 -0.4498 -0.4239  0.0803
   99MOL0     C12978   3.448   4.661  11.353  0.4678  1.2686  1.0396
   99MOL0     C12979   3.481   4.508  11.326 -0.4151 -0.9942 -0.4618
   99MOL0    Cl12980   3.472   4.428  11.485  0.3700 -0.1060  0.2592
   99MOL0     C12981   3.536   5.311  11.974  0.5256 -0.1950  0.3868
   99MOL0     C12982   3.484   5.429  12.027  0.0057 -0.0981 -0.2329
   99MOL0     O12983   3.401   5.591  12.273 -0.5909 -0.2795 -0.1556
   99MOL0     C12984   3.424   5.914  12.183 -0.5548 -0.4650 -0.6166
   99MOL0     C12985   3.362   6.038  12.210  0.6253  0.5945  0.4816
   99MOL0     N12986   3.333   6.475  11.890 -0.1717  0.3989 -0.1081
   99MOL0     N12987   3.354   6.430  11.774 -0.2310  0.8632 -0.1753
   99MOL0     C12988   2.668   6.237  10.741 -0.3597 -0.5325 -1.2829
   99MOL0     C12989   2.574   6.301  10.668  1.0126 -0.7910  0.3913
   99MOL0     C12990   2.137   6.438  10.595  0.9119  0.7713 -0.7711
   99MOL0     C12991   2.001   6.456  10.645 -0.1471  0.3993 -0.2431
   99MOL0     C12992   1.915   6.537  10.564  0.3482 -0.2738  0.7407
   99MOL0     C12993   1.952   6.592  10.451 -0.6300 -0.8663 -0.9946
   99MOL0     O12994   1.843   6.657  10.385  0.0653  1.0465 -0.7569
   99MOL0     C12995   1.878   6.697  10.253 -0.2874  0.0802 -0.2261
   99MOL0     C12996   1.754   6.735  10.176  1.4555  0.2748  0.9537
   99MOL0     C12997   1.667   6.851  10.244 -0.5663  0.2429 -0.0858
   99MOL0     C12998   1.525   6.855  10.165  0.1667 -0.0729  0.4855
   99MOL0     C12999   1.431   6.961  10.212 -0.6441  0.6171 -0.3389
   99MOL0     C13000   1.356   7.048  10.246  1.0895  0.8019  0.2411
   99MOL0     C13001   2.079   6.573  10.398  0.9319 -0.5468  0.2688
   99MOL0     C13002   2.168   6.496  10.470 -0.1399  0.6008 -0.5068
   99MOL0     H13003   2.313   6.088  10.738 -1.1380  2.6710 -2.7479
   99MOL0     H13004   2.475   5.988  10.887 -0.0331  2.6808  4.2030
   99MOL0     H13005   2.787   6.223  10.980 -0.1356 -1.0383  0.6832
   99MOL0     H13006   2.906   6.163  10.866 -0.8195  0.3118 -0.5113
   99MOL0     H13007   2.948   5.972  11.027 -0.0669  0.7559  1.6040
   99MOL0     H13008   2.794   6.021  11.109  0.8999 -1.2023  0.4552
   99MOL0     H13009   2.896   6.233  11.164 -0.3141 -0.3803  0.9893
   99MOL0     H13010   3.054   6.196  11.092 -0.2478 -0.0714 -0.8585
   99MOL0     H13011   2.926   6.022  11.297  2.8529 -2.8907  1.7250
   99MOL0     H13012   3.093   6.015  11.247  0.1181  0.9684 -1.5829
   99MOL0     H13013   2.984   6.253  11.394 -0.3614 -0.3871  0.7898
   99MOL0     H13014   3.147   6.249  11.336 -0.8761  0.7612  1.1247
   99MOL0     H13015   3.215   6.062  11.470 -1.0339  0.1108 -4.3257
   99MOL0     H13016   3.053   6.027  11.522  0.4254  0.3835 -0.2430
   99MOL0     H13017   3.043   6.241  11.638 -1.3180 -0.7455 -3.6467
   99MOL0     H13018   3.178   6.140  11.697 -1.0716 -0.1378  0.5084
   99MOL0     H13019   3.177   6.386  11.515 -2.6115  0.1514  0.0715
   99MOL0     H13020   3.329   6.293  11.555  1.3091  1.0686  2.8150
   99MOL0     H13021   3.041   6.492  11.732  0.6848  0.5275 -1.7158
   99MOL0     H13022   3.028   6.576  12.011  0.0670  1.7771 -1.3747
   99MOL0     H13023   3.153   6.690  11.997 -1.0842 -0.5607 -1.0585
   99MOL0     H13024   3.178   6.602  12.237 -1.0643 -0.9525 -0.4121
   99MOL0     H13025   3.298   6.514  12.153 -0.3966 -2.7473 -2.6990
   99MOL0     H13026   3.082   6.408  12.303  3.3542 -1.3173  1.0480
   99MOL0     H13027   3.025   6.383  12.140  1.0982 -3.5989  1.1029
   99MOL0     H13028   3.310   6.313  12.206  0.7983  1.3464 -2.5686
   99MOL0     H13029   3.207   6.263  12.074 -0.8543  1.8406 -0.3183
   99MOL0     H13030   3.057   5.944  12.283 -1.1752  1.1203 -1.8249
   99MOL0     H13031   3.151   5.725  12.248 -1.8427  1.2782 -1.8471
   99MOL0     H13032   3.772   5.601  12.081 -1.0214  0.8535  1.1350
   99MOL0     H13033   3.864   5.365  12.042 -0.8061 -1.2731  3.6342
   99MOL0     H13034   3.788   5.191  11.722 -2.7219  0.7016 -1.2238
   99MOL0     H13035   3.618   5.173  11.764  0.4690  0.3883 -1.0395
   99MOL0     H13036   3.672   4.934  11.850  0.7216 -2.7560 -1.6985
   99MOL0     H13037   3.837   4.961  11.819 -0.1196  0.6853  1.2233
   99MOL0     H13038   3.743   4.970  11.567 -0.9484 -1.0146 -0.2557
   99MOL0     H13039   3.586   4.992  11.629  1.3134  0.6860 -1.4473
   99MOL0     H13040   3.769   4.746  11.686  0.4014  0.2784 -0.3980
   99MOL0     H13041   3.602   4.762  11.727 -3.1326  0.2805 -2.6236
   99MOL0     H13042   3.679   4.629  11.526 -0.5747 -0.5745 -1.2725
   99MOL0     H13043   3.696   4.780  11.436  1.7789 -1.0136  0.2884
   99MOL0     H13044   3.465   4.839  11.482  2.7458  0.5978  2.8877
   99MOL0     H13045   3.449   4.695  11.575  2.3302 -1.0540  1.2515
   99MOL0     H13046   3.339   4.668  11.360  0.4712 -0.0181  3.1769
   99MOL0     H13047   3.478   4.721  11.267  2.2622 -1.0833 -0.0605
   99MOL0     H13048   3.584   4.514  11.290  0.0274 -0.7158  0.8067
   99MOL0     H13049   3.425   4.453  11.249 -0.7670  0.4836 -1.3008
   99MOL0     H13050   3.469   5.232  11.940 -0.3839  1.4882 -2.0380
   99MOL0     H13051   3.378   5.444  12.007 -0.2588  0.6141  1.5031
   99MOL0     H13052   3.529   5.902  12.162 -0.6058 -0.7238 -0.7205
   99MOL0     H13053   3.413   6.133  12.198 -2.0275  2.2331  1.1833
   99MOL0     H13054   2.770   6.275  10.738  0.0466 -1.3233  1.0880
   99MOL0     H13055   2.601   6.392  10.614 -2.0332 -0.3529 -0.6421
   99MOL0     H13056   1.967   6.407  10.736 -1.1808 -1.3164 -1.5033
   99MOL0     H13057   1.815   6.565  10.595  0.1651 -0.6089  0.4663
   99MOL0     H13058   1.927   6.615  10.200  0.6305  0.3794  0.1496
   99MOL0     H13059   1.959   6.770  10.264  0.0074 -0.6606  4.8834
   99MOL0     H13060   1.774   6.771  10.074 -0.2305 -1.0628  0.1044
   99MOL0     H13061   1.702   6.639  10.167 -1.9452  2.0768 -1.5486
   99MOL0     H13062   1.727   6.942  10.233  0.9928 -0.8773 -1.4815
   99MOL0     H13063   1.650   6.821  10.348  1.2343 -1.9150 -0.3179
   99MOL0     H13064   1.544   6.879  10.060  0.3784  0.7711  0.7047
   99MOL0     H13065   1.482   6.755  10.167  0.8579 -0.3625  1.1721
   99MOL0     H13066   1.286   7.121  10.278  1.2912  2.1936 -2.2404
   99MOL0     H13067   2.116   6.618  10.307  1.5213  0.5930  1.0445
   99MOL0     H13068   2.267   6.483  10.428 -1.3800  0.4069 -3.6377
  100MOL0     O13069   2.597   3.313   1.139  0.1701 -0.5827  0.7442
  100MOL0     C13070   2.547   3.231   1.061 -0.3302  0.8063 -0.0748
  100MOL0     O13071   2.407   3.226   1.033  0.0618 -0.4819  0.4821
  100MOL0     C13072   2.336   3.340   1.031  0.3522 -0.4488  0.2386
  100MOL0     C13073   2.231   3.368   1.126  0.1132 -1.1380  0.2576
  100MOL0     C13074   2.148   3.470   1.111  0.3954 -0.5403 -0.2262
  100MOL0     C13075   2.157   3.562   1.003 -0.9610 -0.8601 -0.1313
  100MOL0     O13076   2.070   3.658   0.971  0.4959  0.0675  0.1366
  100MOL0     C13077   2.109   3.789   0.994 -0.4984  0.2060  0.4021
  100MOL0     C13078   1.982   3.877   0.951 -0.6324  0.5165  0.7308
  100MOL0     C13079   1.853   3.832   1.023 -0.1304 -0.0853  0.0026
  100MOL0     C13080   1.846   3.857   1.176 -0.1163  0.0093 -0.9984
  100MOL0     C13081   1.713   3.827   1.239  0.0842 -0.4000  0.0949
  100MOL0     C13082   1.694   3.897   1.375  0.3228 -0.8213 -0.0951
  100MOL0     C13083   1.558   3.867   1.439  0.6771 -0.3688  0.0223
  100MOL0     C13084   1.433   3.935   1.372 -0.5415  0.6144 -0.1418
  100MOL0     N13085   1.310   3.910   1.445 -0.6568  0.0177 -0.3042
  100MOL0     C13086   1.192   3.970   1.404  0.2135  1.1060 -0.1168
  100MOL0     C13087   1.111   3.976   1.521  0.1456  0.8990  0.0511
  100MOL0     C13088   0.968   4.016   1.535 -0.3838 -0.8461  0.1235
  100MOL0     C13089   0.861   3.912   1.555 -0.0121  0.4085  0.2698
  100MOL0     C13090   0.721   3.969   1.569  0.8334 -0.1169  0.0935
  100MOL0     C13091   0.623   3.853   1.591  0.1582  0.4138  0.7145
  100MOL0     O13092   0.497   3.898   1.552 -0.0076  0.5482  0.1112
  100MOL0     C13093   0.408   3.971   1.631 -0.7166  0.0094  0.1368
  100MOL0     C13094   0.291   4.010   1.569  0.4344 -0.5157  0.6060
  100MOL0     C13095   0.196   4.088   1.629  0.8917  0.1970 -0.7531
  100MOL0     C13096   0.220   4.129   1.768  0.4304  0.7514 -0.4307
  100MOL0     C13097   0.127   4.217   1.842 -0.0323  0.0014 -0.6538
  100MOL0     O13098   0.186   4.305   1.934  0.7632  0.1678  0.3690
  100MOL0     C13099   0.112   4.370   2.032  0.5011  0.6542  0.7970
  100MOL0     C13100   0.012   4.304   2.101  0.0575  0.5024  0.1622
  100MOL0     C13101  -0.078   4.369   2.181  1.0275  0.2898 -1.2026
  100MOL0     C13102  -0.071   4.503   2.212 -0.7260 -0.1458 -0.2666
  100MOL0     O13103  -0.169   4.564   2.288 -0.0478  0.1342  0.2456
  100MOL0     C13104  -0.190   4.704   2.262 -1.0403 -0.1139  0.3243
  100MOL0     C13105  -0.326   4.761   2.319  0.6927  0.5189 -0.0424
  100MOL0     C13106  -0.448   4.673   2.304  0.3563 -0.1401  0.8394
  100MOL0     C13107  -0.576   4.739   2.350  0.3077  0.4640 -0.2939
  100MOL0     C13108  -0.695   4.651   2.321  0.7259 -0.5872  0.2292
  100MOL0     C13109  -0.828   4.719   2.330 -0.0915 -0.4041 -0.5503
  100MOL0     C13110  -0.937   4.647   2.262 -0.4577  0.4374 -0.2165
  100MOL0     C13111  -1.075   4.709   2.279  0.2664 -0.0046 -0.8252
  100MOL0    Cl13112  -1.197   4.576   2.228 -0.0339  0.6501  0.0125
  100MOL0     C13113   0.039   4.569   2.159 -0.2206  0.4891  0.0808
  100MOL0     C13114   0.125   4.507   2.063  0.4463 -0.2536  0.1253
  100MOL0     O13115   0.011   4.214   1.808  0.6712 -0.4228  0.4655
  100MOL0     C13116   0.343   4.086   1.826  0.3371 -0.4036 -0.6248
  100MOL0     C13117   0.437   4.013   1.765  0.3824  1.4939  0.7965
  100MOL0     N13118   1.184   3.909   1.614 -0.2501  0.6744 -1.5311
  100MOL0     N13119   1.297   3.876   1.571  0.8756  0.1529 -0.8605
  100MOL0     C13120   2.270   3.545   0.918 -0.2220 -0.1814  0.2113
  100MOL0     C13121   2.361   3.442   0.928 -0.1733  1.5339 -0.4034
  100MOL0     C13122   2.639   3.129   0.992  0.5019 -0.3352 -0.2549
  100MOL0     C13123   2.779   3.163   0.975 -0.0447  0.8197  0.5581
  100MOL0     C13124   2.856   3.072   0.904  0.0689 -0.0054 -0.5369
  100MOL0     C13125   2.814   2.936   0.858 -0.1922 -1.0230  0.2726
  100MOL0     O13126   2.895   2.841   0.797  0.4403 -0.3497  0.7293
  100MOL0     C13127   3.040   2.867   0.778  0.5233 -0.0947  0.3636
  100MOL0     C13128   3.116   2.852   0.911 -0.6591 -0.4260  0.0086
  100MOL0     C13129   3.107   2.727   0.995 -0.0309 -0.2187 -0.4732
  100MOL0     C13130   3.222   2.636   0.961 -0.3769 -0.2133 -0.2805
  100MOL0     C13131   3.188   2.516   1.037 -0.5732  0.0540 -0.2787
  100MOL0     C13132   3.149   2.429   1.104 -0.6078  0.9067 -0.0242
  100MOL0     C13133   2.683   2.913   0.877  0.2290  0.1930  0.0514
  100MOL0     C13134   2.595   3.014   0.928 -0.1595  0.0231  0.3699
  100MOL0     H13135   2.224   3.297   1.208  1.7585  0.1091  1.5461
  100MOL0     H13136   2.057   3.482   1.169  0.4923  2.2587 -0.4941
  100MOL0     H13137   2.189   3.827   0.930 -0.2840 -1.8178 -0.6013
  100MOL0     H13138   2.147   3.798   1.096  3.3729 -3.1517 -0.4884
  100MOL0     H13139   1.968   3.865   0.843  2.3405  1.1406  0.1849
  100MOL0     H13140   2.012   3.980   0.972 -0.9090  0.4091  1.7012
  100MOL0     H13141   1.840   3.724   1.013 -3.7301  0.3214 -1.2875
  100MOL0     H13142   1.766   3.875   0.973 -0.6830 -1.4648 -0.2787
  100MOL0     H13143   1.928   3.805   1.227  0.2456  0.6921 -0.8742
  100MOL0     H13144   1.868   3.963   1.193  2.0915 -0.4455 -0.7390
  100MOL0     H13145   1.712   3.717   1.242 -1.9858 -0.7225 -4.3495
  100MOL0     H13146   1.640   3.856   1.164 -1.3877 -1.5507  1.0200
  100MOL0     H13147   1.694   4.003   1.348  1.3942 -0.8946 -0.3930
  100MOL0     H13148   1.775   3.873   1.444 -2.4382 -1.6313  3.1188
  100MOL0     H13149   1.535   3.761   1.454 -2.7014  0.7465  5.7210
  100MOL0     H13150   1.561   3.908   1.540  0.0773 -0.9435  0.2845
  100MOL0     H13151   1.441   3.901   1.268  0.6066  2.2320 -0.6277
  100MOL0     H13152   1.450   4.043   1.373  0.4511  0.4716  1.3350
  100MOL0     H13153   1.174   4.003   1.302 -4.3552  0.4564  0.2898
  100MOL0     H13154   0.942   4.082   1.452  2.0727  1.6907  1.1845
  100MOL0     H13155   0.971   4.080   1.624  2.4939 -1.1431  0.3457
  100MOL0     H13156   0.887   3.847   1.638  1.6634 -0.7475 -1.0762
  100MOL0     H13157   0.855   3.847   1.467  1.5223 -1.1991  1.2886
  100MOL0     H13158   0.723   4.046   1.646  1.3634  1.7849 -1.7115
  100MOL0     H13159   0.693   4.020   1.476 -0.0980  1.4131  1.1744
  100MOL0     H13160   0.620   3.817   1.694  0.4155 -0.2911  0.4853
  100MOL0     H13161   0.657   3.771   1.526  1.1548  0.1240  1.5729
  100MOL0     H13162   0.282   3.980   1.465  2.1358 -0.9353  0.5422
  100MOL0     H13163   0.109   4.114   1.571  2.6944  0.5333 -3.4774
  100MOL0     H13164  -0.001   4.198   2.079  1.6988  0.6067 -1.6396
  100MOL0     H13165  -0.162   4.306   2.209  1.2672  0.1579 -0.7808
  100MOL0     H13166  -0.183   4.729   2.156 -1.3043 -3.2805 -0.5362
  100MOL0     H13167  -0.112   4.762   2.312  0.2437  0.6852 -2.4035
  100MOL0     H13168  -0.350   4.862   2.285  1.5652  1.4203  1.8456
  100MOL0     H13169  -0.314   4.764   2.428  2.5986 -1.3057 -0.1465
  100MOL0     H13170  -0.425   4.578   2.351 -1.8227 -0.7079  0.8625
  100MOL0     H13171  -0.448   4.659   2.196 -0.3118 -1.5381  1.0091
  100MOL0     H13172  -0.576   4.773   2.454  1.2500 -0.4126  0.0095
  100MOL0     H13173  -0.585   4.828   2.287 -2.5576  2.5591  2.7250
  100MOL0     H13174  -0.704   4.567   2.391  0.2387  1.0059  2.1392
  100MOL0     H13175  -0.689   4.616   2.217 -2.7329 -0.8635 -0.0227
  100MOL0     H13176  -0.816   4.822   2.296 -0.0634 -0.0726  0.4354
  100MOL0     H13177  -0.856   4.736   2.435 -0.5655 -0.1175 -0.7159
  100MOL0     H13178  -0.913   4.648   2.155  1.0594  3.0189  0.0722
  100MOL0     H13179  -0.935   4.543   2.297 -0.0254  0.6700  0.4497
  100MOL0     H13180  -1.089   4.798   2.217  0.7858 -0.2115 -1.2384
  100MOL0     H13181  -1.090   4.737   2.384 -0.6885  0.5873 -1.0987
  100MOL0     H13182   0.046   4.677   2.162 -1.2431  0.5750 -0.1403
  100MOL0     H13183   0.187   4.561   1.993  1.3061 -0.9353  0.3423
  100MOL0     H13184   0.358   4.107   1.932 -1.1350  2.7794 -0.9390
  100MOL0     H13185   0.525   3.976   1.816  0.8135 -0.6153 -1.2543
  100MOL0     H13186   2.284   3.605   0.828  4.6034  0.2789  1.0045
  100MOL0     H13187   2.440   3.426   0.856  1.1333  0.5700  1.1832
  100MOL0     H13188   2.829   3.242   1.031  0.1490 -0.0792  1.6749
  100MOL0     H13189   2.962   3.089   0.882 -0.1341 -1.3962 -2.9529
  100MOL0     H13190   3.067   2.963   0.733 -1.2851  1.7193  2.8401
  100MOL0     H13191   3.076   2.784   0.716 -0.8394 -0.6830  0.3167
  100MOL0     H13192   3.217   2.881   0.881 -1.8977  2.0474 -2.2459
  100MOL0     H13193   3.091   2.937   0.975 -1.8291  0.1119 -1.1068
  100MOL0     H13194   3.004   2.689   1.001  0.1060 -0.4682  0.3814
  100MOL0     H13195   3.142   2.764   1.091  0.2922  0.5761 -0.8910
  100MOL0     H13196   3.215   2.610   0.855  2.1390 -5.2830  0.4527
  100MOL0     H13197   3.322   2.674   0.987 -0.1105 -3.0438  3.7965
  100MOL0     H13198   3.123   2.345   1.167  2.9607 -0.7191 -0.4559
  100MOL0     H13199   2.651   2.817   0.838  0.1114  1.1603 -2.4187
  100MOL0     H13200   2.489   2.991   0.930  0.2638 -2.2344  0.2015
  101MOL0     O13201   9.287  11.320   9.672 -0.0907 -0.7325  0.8308
  101MOL0     C13202   9.295  11.437   9.652 -0.6240 -0.5219  0.4609
  101MOL0     O13203   9.274  11.531   9.745  0.7401 -0.1392  0.7167
  101MOL0     C13204   9.207  11.491   9.856 -0.3468 -0.2705  0.4759
  101MOL0     C13205   9.265  11.472   9.988 -0.1516 -0.4820  1.1260
  101MOL0     C13206   9.181  11.449  10.094 -0.2908  0.3907 -0.4582
  101MOL0     C13207   9.046  11.428  10.077 -0.7216  1.1893  1.3253
  101MOL0     O13208   8.966  11.408  10.192 -0.3416 -0.0726 -0.1366
  101MOL0     C13209   8.841  11.332  10.164 -0.9348  0.8392 -0.4850
  101MOL0     C13210   8.770  11.295  10.283  0.5269  0.7616  0.6923
  101MOL0     C13211   8.690  11.412  10.337 -1.1765 -0.3277 -0.2744
  101MOL0     C13212   8.606  11.371  10.462  0.2406  0.7010  0.4650
  101MOL0     C13213   8.535  11.489  10.517 -0.5229  0.0989  0.4221
  101MOL0     C13214   8.588  11.520  10.654 -1.2587  0.5722  0.8513
  101MOL0     C13215   8.512  11.636  10.715  0.4424 -0.4819  0.8540
  101MOL0     C13216   8.468  11.608  10.862 -0.8433  0.6286 -0.0979
  101MOL0     N13217   8.574  11.616  10.957 -0.4956  0.4672  0.1134
  101MOL0     C13218   8.583  11.530  11.059  0.5830 -0.1409 -0.3186
  101MOL0     C13219   8.690  11.583  11.126  0.5482  0.4066 -0.2087
  101MOL0     C13220   8.761  11.512  11.236  0.0862 -1.2746 -0.1538
  101MOL0     C13221   8.684  11.491  11.365 -0.2624 -0.4830 -0.8616
  101MOL0     C13222   8.745  11.406  11.475 -0.1009  0.3959 -0.3858
  101MOL0     C13223   8.786  11.269  11.421 -0.4008 -0.2176  0.3074
  101MOL0     O13224   8.696  11.212  11.327 -0.5418  0.7152  0.1320
  101MOL0     C13225   8.724  11.090  11.269  0.7232  0.2586 -0.1705
  101MOL0     C13226   8.625  11.053  11.176 -1.1200 -1.1171  0.4158
  101MOL0     C13227   8.637  10.937  11.105  0.4800 -0.2770 -0.2587
  101MOL0     C13228   8.745  10.853  11.125  0.2477  1.3244  0.1522
  101MOL0     C13229   8.756  10.732  11.028 -0.3798  0.2124 -0.1557
  101MOL0     O13230   8.645  10.707  10.947  0.3243 -1.1110 -0.0453
  101MOL0     C13231   8.660  10.609  10.850  0.0780  0.4466 -0.4225
  101MOL0     C13232   8.736  10.628  10.727  0.3484 -0.0242 -0.2365
  101MOL0     C13233   8.758  10.517  10.645 -0.7967 -0.5902 -0.4170
  101MOL0     C13234   8.720  10.389  10.686  0.7688  0.0458 -0.0290
  101MOL0     O13235   8.746  10.277  10.602  0.0078 -0.3993  0.2182
  101MOL0     C13236   8.746  10.298  10.457  0.2798  0.3870 -0.5724
  101MOL0     C13237   8.653  10.199  10.390  0.5699  0.1594  0.5461
  101MOL0     C13238   8.512  10.223  10.442 -0.3790  0.2115 -0.5051
  101MOL0     C13239   8.398  10.151  10.361 -0.4922  0.0408 -0.6221
  101MOL0     C13240   8.405  10.002  10.415  0.1815  0.0573 -0.1961
  101MOL0     C13241   8.292   9.920  10.383 -0.5826 -0.1474 -0.6734
  101MOL0     C13242   8.235   9.919  10.240 -0.3415  1.0661 -0.2467
  101MOL0     C13243   8.117   9.815  10.242 -0.5096 -0.5643 -0.4245
  101MOL0    Cl13244   8.038   9.806  10.091 -0.2300 -0.3136 -0.1352
  101MOL0     C13245   8.648  10.368  10.801 -0.2180 -1.5641 -0.4441
  101MOL0     C13246   8.621  10.474  10.889 -0.1863  0.6166  0.0619
  101MOL0     O13247   8.853  10.654  11.036  0.6945  0.4000 -0.8305
  101MOL0     C13248   8.848  10.891  11.212 -1.0720 -1.0042  0.9231
  101MOL0     C13249   8.837  11.015  11.280 -0.0010 -0.2375 -0.4363
  101MOL0     N13250   8.734  11.702  11.075  0.7612 -0.5989 -0.1479
  101MOL0     N13251   8.666  11.716  10.965  0.4082  0.4953  0.1817
  101MOL0     C13252   8.987  11.434   9.949 -0.2170 -0.4378 -0.5482
  101MOL0     C13253   9.072  11.472   9.843  0.5854  0.5413  0.2400
  101MOL0     C13254   9.354  11.485   9.523 -0.3049  0.7189 -0.5516
  101MOL0     C13255   9.396  11.389   9.429 -0.2135  1.2152  0.4707
  101MOL0     C13256   9.428  11.439   9.293  0.0027  0.2397 -0.6037
  101MOL0     C13257   9.447  11.579   9.269  1.2274 -0.2855 -0.3946
  101MOL0     O13258   9.499  11.629   9.151  0.3751 -0.3056 -0.0919
  101MOL0     C13259   9.520  11.772   9.143  0.0542 -0.5108  1.0546
  101MOL0     C13260   9.593  11.809   9.011  0.4644  0.6409 -1.0797
  101MOL0     C13261   9.659  11.942   9.036  0.8498  0.4995  0.0719
  101MOL0     C13262   9.563  12.066   9.049 -0.0029  1.4924  0.7386
  101MOL0     C13263   9.617  12.188   9.055  0.8675 -0.2077  0.3919
  101MOL0     C13264   9.667  12.303   9.070  0.5424  0.0082  0.4179
  101MOL0     C13265   9.394  11.665   9.372  0.7128 -0.3867  0.8796
  101MOL0     C13266   9.367  11.620   9.498  0.2461  0.0676  0.2005
  101MOL0     H13267   9.367  11.507  10.005  0.3115 -1.1426 -0.1073
  101MOL0     H13268   9.218  11.454  10.196 -3.2067 -1.0695  0.8110
  101MOL0     H13269   8.872  11.235  10.125  5.3863  1.4824  1.8382
  101MOL0     H13270   8.767  11.375  10.096  0.3309  2.2778 -1.0195
  101MOL0     H13271   8.836  11.260  10.364  1.5959 -3.0118 -1.5995
  101MOL0     H13272   8.696  11.219  10.257  0.4183  1.0400  0.1865
  101MOL0     H13273   8.634  11.454  10.253 -0.6457  2.7874  0.7912
  101MOL0     H13274   8.766  11.486  10.365  2.2384 -2.5222 -2.9044
  101MOL0     H13275   8.535  11.292  10.435  2.1973 -1.0465  0.1537
  101MOL0     H13276   8.679  11.324  10.529  0.6824 -2.4194 -1.9840
  101MOL0     H13277   8.428  11.467  10.525 -0.6121 -0.0747 -1.0511
  101MOL0     H13278   8.546  11.578  10.454  1.7892 -2.3958 -3.0121
  101MOL0     H13279   8.693  11.546  10.646 -1.6348  1.7748 -0.5150
  101MOL0     H13280   8.579  11.423  10.706 -1.0234 -0.4369 -0.9137
  101MOL0     H13281   8.577  11.725  10.717  5.4239 -3.6708 -0.3346
  101MOL0     H13282   8.427  11.665  10.653  1.4719  1.1156  0.0936
  101MOL0     H13283   8.419  11.510  10.872  0.6391 -0.0329  1.0491
  101MOL0     H13284   8.387  11.672  10.898 -2.9674 -2.3244  0.7708
  101MOL0     H13285   8.535  11.435  11.080  0.5949 -0.3234 -1.0844
  101MOL0     H13286   8.855  11.563  11.258 -1.1311  1.2563 -0.4272
  101MOL0     H13287   8.781  11.415  11.190 -0.9925 -0.3602 -2.7714
  101MOL0     H13288   8.591  11.444  11.333 -1.3072  1.2422 -0.5216
  101MOL0     H13289   8.666  11.585  11.419  0.5945 -1.8132  1.9786
  101MOL0     H13290   8.822  11.457  11.534  1.2292 -1.5969 -0.3028
  101MOL0     H13291   8.672  11.381  11.552  1.3956  0.7545  1.2199
  101MOL0     H13292   8.828  11.205  11.499  2.2901  0.1606 -0.7054
  101MOL0     H13293   8.871  11.282  11.353 -0.4756 -4.5389 -0.8920
  101MOL0     H13294   8.543  11.121  11.153 -0.0587 -0.0541 -0.3442
  101MOL0     H13295   8.560  10.908  11.034  2.5622  1.1349 -3.2910
  101MOL0     H13296   8.774  10.728  10.711 -3.7592  1.6840 -0.6096
  101MOL0     H13297   8.810  10.538  10.552 -1.9801  0.4936 -0.8614
  101MOL0     H13298   8.847  10.271  10.425  0.1799 -1.0557  0.2563
  101MOL0     H13299   8.724  10.401  10.425  1.7612  0.3593 -1.7950
  101MOL0     H13300   8.685  10.096  10.408  3.3414  0.6533 -0.9953
  101MOL0     H13301   8.651  10.212  10.281 -0.9386  0.6789  0.6120
  101MOL0     H13302   8.493  10.330  10.436  0.8045  0.5084  0.4653
  101MOL0     H13303   8.505  10.202  10.550 -3.7823  2.4337 -0.1632
  101MOL0     H13304   8.300  10.196  10.378  0.5695  1.3664  2.9265
  101MOL0     H13305   8.421  10.147  10.254 -3.3273 -0.1168 -1.3164
  101MOL0     H13306   8.405  10.004  10.524 -0.6291 -1.7532 -0.1182
  101MOL0     H13307   8.495   9.949  10.382 -0.4027 -0.4057 -1.1218
  101MOL0     H13308   8.208   9.957  10.442 -1.4931 -2.9982 -0.0352
  101MOL0     H13309   8.319   9.823  10.425 -0.7565  0.4432  0.8622
  101MOL0     H13310   8.184  10.014  10.225 -0.3485  0.7665 -2.4524
  101MOL0     H13311   8.303   9.892  10.158 -0.0165 -0.5092  0.5007
  101MOL0     H13312   8.040   9.856  10.308  2.8922 -0.2936  3.8056
  101MOL0     H13313   8.147   9.718  10.283 -0.7239  0.3278  2.0508
  101MOL0     H13314   8.615  10.273  10.844  2.0089 -0.9440  3.0172
  101MOL0     H13315   8.569  10.452  10.982 -0.9935 -2.0628 -0.9237
  101MOL0     H13316   8.939  10.834  11.224 -0.8909 -0.8422  0.3458
  101MOL0     H13317   8.925  11.044  11.337  0.5121 -1.0308 -0.8084
  101MOL0     H13318   8.879  11.429   9.939 -0.0853 -1.7892 -1.5758
  101MOL0     H13319   9.026  11.494   9.747  0.0276 -1.7991 -0.0751
  101MOL0     H13320   9.384  11.282   9.443 -1.4802  1.4669  1.5154
  101MOL0     H13321   9.447  11.374   9.207  0.0112 -0.2092 -0.2689
  101MOL0     H13322   9.564  11.813   9.234 -2.5207  6.1164 -0.1859
  101MOL0     H13323   9.416  11.804   9.128  0.7871  1.3395 -0.4748
  101MOL0     H13324   9.680  11.742   9.005  1.8742  2.2414  0.5272
  101MOL0     H13325   9.528  11.795   8.923 -0.0423  0.8901 -0.7464
  101MOL0     H13326   9.732  11.950   8.955  0.9280  1.9111  0.2737
  101MOL0     H13327   9.719  11.936   9.127  0.3551  4.2621  0.7792
  101MOL0     H13328   9.496  12.065   8.962  2.3659 -3.2368 -1.3490
  101MOL0     H13329   9.508  12.060   9.144 -0.3811 -0.2588  0.4404
  101MOL0     H13330   9.717  12.396   9.090 -3.5043  2.0329  2.4340
  101MOL0     H13331   9.381  11.773   9.364 -1.3304 -0.5974  0.9206
  101MOL0     H13332   9.325  11.693   9.566 -1.6807 -1.3770  0.6589
  102MOL0     O13333   6.160   4.458   1.561  0.1145 -0.0182 -0.2396
  102MOL0     C13334   6.217   4.428   1.671 -0.4560  0.1109 -0.0957
  102MOL0     O13335   6.266   4.509   1.774  0.7719  0.0074  0.5150
  102MOL0     C13336   6.279   4.639   1.748  0.5710 -0.6759  0.6231
  102MOL0     C13337   6.241   4.734   1.850 -0.2477  0.3399 -0.4572
  102MOL0     C13338   6.264   4.868   1.826 -0.3792 -0.2101  0.7733
  102MOL0     C13339   6.311   4.924   1.701 -0.0104 -0.0699  0.0395
  102MOL0     O13340   6.334   5.061   1.678 -0.6113  0.1852  0.2440
  102MOL0     C13341   6.456   5.078   1.602  0.9554  0.1377 -0.0866
  102MOL0     C13342   6.497   5.229   1.626 -0.1696  0.4248 -0.1085
  102MOL0     C13343   6.420   5.323   1.531  0.2046 -0.6911 -0.0454
  102MOL0     C13344   6.278   5.321   1.554  0.6543 -0.7045  0.3173
  102MOL0     C13345   6.207   5.447   1.501 -0.3074 -0.1182 -1.2284
  102MOL0     C13346   6.060   5.435   1.515  0.4797 -0.3204 -0.8216
  102MOL0     C13347   6.001   5.574   1.496 -0.0195  0.0267  0.2382
  102MOL0     C13348   5.987   5.654   1.625 -0.8479  0.2486 -0.1451
  102MOL0     N13349   5.884   5.756   1.600  0.1314  0.1804  0.9389
  102MOL0     C13350   5.749   5.756   1.652 -0.2118 -0.2739 -0.2285
  102MOL0     C13351   5.691   5.878   1.615 -1.3462 -0.2081  0.0117
  102MOL0     C13352   5.558   5.926   1.646  0.1506 -0.1429  0.0492
  102MOL0     C13353   5.560   6.019   1.765 -1.0323  0.4563  0.2446
  102MOL0     C13354   5.421   6.058   1.805  0.5532 -0.7887  0.2399
  102MOL0     C13355   5.365   6.152   1.693  0.2616  0.8612 -0.4752
  102MOL0     O13356   5.251   6.217   1.752 -0.3509 -0.3172  0.7830
  102MOL0     C13357   5.196   6.317   1.676  0.2975  0.2313  0.6417
  102MOL0     C13358   5.074   6.367   1.725  0.1324 -0.1060 -0.0351
  102MOL0     C13359   5.005   6.464   1.670  0.1340  0.0303 -1.3128
  102MOL0     C13360   5.068   6.531   1.560  0.5472  0.1066 -0.1371
  102MOL0     C13361   4.997   6.638   1.485  0.1272 -0.9722 -0.5311
  102MOL0     O13362   4.860   6.633   1.490  0.5107 -0.9793  0.0106
  102MOL0     C13363   4.790   6.725   1.414  0.1899 -0.7975  0.5937
  102MOL0     C13364   4.792   6.860   1.442  0.2616 -0.2053  0.1193
  102MOL0     C13365   4.703   6.949   1.379 -0.3073  0.2389  0.3160
  102MOL0     C13366   4.604   6.902   1.281 -0.3582  0.5229 -0.0516
  102MOL0     O13367   4.526   6.977   1.201 -0.2421  0.4389 -0.3120
  102MOL0     C13368   4.535   7.125   1.227 -0.1075  0.3450  0.2229
  102MOL0     C13369   4.414   7.187   1.149  0.3123  0.1595 -0.3039
  102MOL0     C13370   4.411   7.341   1.142 -0.0149  0.6790 -0.9396
  102MOL0     C13371   4.528   7.393   1.044  0.6173  0.1956 -0.0183
  102MOL0     C13372   4.492   7.534   1.005  1.0635 -0.1849  0.0792
  102MOL0     C13373   4.383   7.528   0.890  0.5067 -0.7800  0.7121
  102MOL0     C13374   4.394   7.641   0.786 -0.0456 -0.1665 -0.9438
  102MOL0     C13375   4.374   7.783   0.850 -0.2022  0.3317  0.4000
  102MOL0    Cl13376   4.533   7.853   0.905 -0.2858  0.0816  0.3721
  102MOL0     C13377   4.602   6.761   1.268  0.1108  0.6707 -0.3509
  102MOL0     C13378   4.684   6.677   1.338  0.3246  0.1804 -0.3317
  102MOL0     O13379   5.062   6.704   1.406  0.0962 -0.4363 -0.0225
  102MOL0     C13380   5.198   6.489   1.505  0.5657  0.0972  0.7657
  102MOL0     C13381   5.261   6.375   1.561  0.3639 -0.4850 -0.2975
  102MOL0     N13382   5.794   5.955   1.555 -0.1269 -0.3256  0.0041
  102MOL0     N13383   5.896   5.881   1.552  0.3032  0.3394 -0.1277
  102MOL0     C13384   6.332   4.824   1.593  0.3123 -1.3356 -0.6100
  102MOL0     C13385   6.326   4.692   1.620  0.2608  0.0418  0.2222
  102MOL0     C13386   6.224   4.284   1.702 -0.4763 -0.7155 -0.7309
  102MOL0     C13387   6.304   4.239   1.802  0.4567  1.0566 -0.3815
  102MOL0     C13388   6.324   4.096   1.817  0.5749 -0.4662  0.7150
  102MOL0     C13389   6.276   4.010   1.721  0.8709 -0.2914  0.4787
  102MOL0     O13390   6.325   3.880   1.718  0.1607 -0.8811 -0.0674
  102MOL0     C13391   6.244   3.788   1.646  0.2532  0.4291  0.2696
  102MOL0     C13392   6.308   3.651   1.651 -0.4735  0.2118 -0.4523
  102MOL0     C13393   6.225   3.540   1.583  0.4462  0.3743 -1.3606
  102MOL0     C13394   6.277   3.395   1.609  0.4897 -0.0720 -0.1367
  102MOL0     C13395   6.227   3.337   1.733  0.3044 -0.2326  1.2244
  102MOL0     C13396   6.178   3.307   1.837  0.7672 -0.0173 -0.5289
  102MOL0     C13397   6.192   4.056   1.618  0.3218 -0.0131 -0.7886
  102MOL0     C13398   6.164   4.195   1.617 -0.0721 -0.6779  0.7586
  102MOL0     H13399   6.213   4.709   1.952  0.3672  1.2409 -0.0510
  102MOL0     H13400   6.245   4.932   1.912 -0.8963 -0.3586  0.7729
  102MOL0     H13401   6.446   5.055   1.496 -1.3219  0.1204  0.0742
  102MOL0     H13402   6.534   5.015   1.645  1.0386 -0.3502 -0.9500
  102MOL0     H13403   6.601   5.237   1.591 -0.7651 -2.6117 -3.0426
  102MOL0     H13404   6.494   5.257   1.732  2.1505  1.9985 -0.3709
  102MOL0     H13405   6.440   5.299   1.426  0.5451  0.5131 -0.2642
  102MOL0     H13406   6.464   5.421   1.551 -1.4651 -0.3100  2.1722
  102MOL0     H13407   6.223   5.232   1.522 -1.0159  0.9427 -1.7389
  102MOL0     H13408   6.254   5.320   1.660 -0.1592 -0.1908  0.1433
  102MOL0     H13409   6.227   5.448   1.394  1.0279 -0.8584 -1.0061
  102MOL0     H13410   6.235   5.535   1.559  1.0925 -1.5049  0.3093
  102MOL0     H13411   6.030   5.399   1.613 -0.3836  3.8066  0.6377
  102MOL0     H13412   6.020   5.366   1.440  0.3553 -0.4135 -0.6698
  102MOL0     H13413   6.061   5.636   1.429 -0.7361  2.9848  2.1483
  102MOL0     H13414   5.902   5.563   1.449  0.4026  1.3989 -1.0716
  102MOL0     H13415   6.078   5.712   1.639 -1.9591  1.7717  1.0543
  102MOL0     H13416   5.959   5.584   1.704 -0.8226  0.9968  0.5325
  102MOL0     H13417   5.698   5.690   1.722 -1.0038  2.6331  2.1676
  102MOL0     H13418   5.499   5.835   1.660  0.6865 -0.3364  1.1792
  102MOL0     H13419   5.515   5.978   1.559 -2.0497 -0.8634  0.6399
  102MOL0     H13420   5.617   6.112   1.761 -1.0735  0.5086  0.9112
  102MOL0     H13421   5.607   5.958   1.842  0.0234  0.7729 -0.1361
  102MOL0     H13422   5.363   5.972   1.838  2.6620 -2.3317  0.1189
  102MOL0     H13423   5.440   6.125   1.889  2.4159 -1.3959  0.3309
  102MOL0     H13424   5.335   6.086   1.610 -1.1348  0.1453  0.5514
  102MOL0     H13425   5.442   6.227   1.675 -0.4855  1.2125 -2.5600
  102MOL0     H13426   5.027   6.294   1.789  0.1429  2.0740  2.6518
  102MOL0     H13427   4.903   6.475   1.705  1.0283  2.0619  0.9415
  102MOL0     H13428   4.871   6.887   1.511 -0.4610  2.3941  0.0410
  102MOL0     H13429   4.723   7.054   1.393 -0.6652  0.7560 -2.4812
  102MOL0     H13430   4.635   7.158   1.200  0.5320  0.2116  2.2612
  102MOL0     H13431   4.518   7.151   1.332 -0.1101 -2.1459  0.9129
  102MOL0     H13432   4.324   7.141   1.190 -0.0210  1.0727 -0.0106
  102MOL0     H13433   4.421   7.160   1.043  1.2992  1.7204 -0.6697
  102MOL0     H13434   4.434   7.385   1.240 -0.0103 -1.7387  0.2386
  102MOL0     H13435   4.314   7.370   1.100 -0.5569 -0.3065 -0.4191
  102MOL0     H13436   4.622   7.388   1.100  0.0449 -4.0539  0.8919
  102MOL0     H13437   4.533   7.330   0.955  2.0895 -0.1291  0.2687
  102MOL0     H13438   4.578   7.576   0.953  1.0808 -1.0656 -0.6370
  102MOL0     H13439   4.450   7.587   1.090 -0.8785 -1.5175  0.0308
  102MOL0     H13440   4.279   7.534   0.925  0.8956 -0.3880  1.8681
  102MOL0     H13441   4.401   7.440   0.828 -3.6720 -0.1791 -1.7118
  102MOL0     H13442   4.484   7.646   0.724 -1.4036  1.8898 -2.9376
  102MOL0     H13443   4.310   7.622   0.718 -1.1739  1.4853 -0.0805
  102MOL0     H13444   4.308   7.777   0.938  1.1983 -0.1511  1.4455
  102MOL0     H13445   4.335   7.843   0.767 -0.2599  0.0554  0.2272
  102MOL0     H13446   4.530   6.723   1.197 -0.1468 -1.0071  0.7443
  102MOL0     H13447   4.665   6.572   1.317  0.5006  0.3677 -1.5070
  102MOL0     H13448   5.251   6.535   1.421  0.4006  0.2081  0.7211
  102MOL0     H13449   5.358   6.345   1.523  0.3598 -1.0948  0.1580
  102MOL0     H13450   6.359   4.853   1.493  0.7202 -1.6281 -0.5853
  102MOL0     H13451   6.349   4.617   1.546 -0.8015 -2.5219  2.3119
  102MOL0     H13452   6.345   4.308   1.875 -1.5469  1.6517  0.2587
  102MOL0     H13453   6.396   4.068   1.894  0.7579  0.1166  0.7632
  102MOL0     H13454   6.220   3.817   1.543 -4.3001  2.1284  1.5813
  102MOL0     H13455   6.148   3.767   1.693  0.0461 -3.0170 -1.3360
  102MOL0     H13456   6.402   3.662   1.598 -0.3661  5.0274  0.3276
  102MOL0     H13457   6.324   3.621   1.755 -1.3752  1.6685  0.1327
  102MOL0     H13458   6.227   3.553   1.475 -3.1911 -0.7519 -1.6959
  102MOL0     H13459   6.117   3.547   1.601  0.0946 -2.0404 -2.2143
  102MOL0     H13460   6.252   3.328   1.527  2.3194 -0.8599 -0.1125
  102MOL0     H13461   6.387   3.397   1.613  0.5169  1.7471 -0.6127
  102MOL0     H13462   6.126   3.275   1.925 -2.0405 -2.6456 -2.8920
  102MOL0     H13463   6.152   4.012   1.527 -1.9979  2.0184 -0.8818
  102MOL0     H13464   6.109   4.234   1.532  1.1450 -0.3708  0.0906
  103MOL0     O13465  11.115   1.325   9.986  0.1337 -0.2280  0.0791
  103MOL0     C13466  11.091   1.207   9.953 -0.2030 -0.4308 -0.4664
  103MOL0     O13467  11.080   1.161   9.828 -0.1679  0.6014 -1.0754
  103MOL0     C13468  11.093   1.234   9.714  0.4723  0.2407  0.1131
  103MOL0     C13469  11.118   1.155   9.599  0.3999 -0.2766 -0.4711
  103MOL0     C13470  11.145   1.215   9.474 -0.3294 -0.0270  0.3825
  103MOL0     C13471  11.133   1.354   9.464 -0.0600  0.1988  0.0049
  103MOL0     O13472  11.165   1.422   9.357 -0.5087 -0.7230  0.0604
  103MOL0     C13473  11.295   1.395   9.293  0.6084 -0.7616 -0.0315
  103MOL0     C13474  11.339   1.529   9.213 -0.2339 -0.1006 -0.4666
  103MOL0     C13475  11.234   1.589   9.122 -0.0443  0.3026 -0.2139
  103MOL0     C13476  11.165   1.491   9.033  0.6697  0.5751 -0.0298
  103MOL0     C13477  11.109   1.550   8.908 -0.0871 -0.3253 -0.5250
  103MOL0     C13478  10.978   1.614   8.943 -0.3976 -0.3738 -0.3883
  103MOL0     C13479  10.897   1.649   8.817 -0.9545 -0.2176  0.7511
  103MOL0     C13480  10.749   1.666   8.846 -0.5313  0.0531  0.1369
  103MOL0     N13481  10.688   1.684   8.708  0.1436  0.2356 -0.1634
  103MOL0     C13482  10.710   1.798   8.634 -0.8480  0.0394  0.5481
  103MOL0     C13483  10.647   1.780   8.515  0.6280 -0.1747  0.0023
  103MOL0     C13484  10.662   1.883   8.408 -0.1567  0.3346 -0.4113
  103MOL0     C13485  10.795   1.933   8.389 -0.8217  0.5669  0.8818
  103MOL0     C13486  10.893   1.824   8.349  0.3205  0.4125 -0.4291
  103MOL0     C13487  10.864   1.726   8.240  0.0712 -0.8680  0.2318
  103MOL0     O13488  10.894   1.766   8.103 -0.7904  0.1243  1.0401
  103MOL0     C13489  10.785   1.836   8.047 -1.3797 -0.9917  0.2403
  103MOL0     C13490  10.812   1.972   8.019  0.7052  0.1492 -0.2952
  103MOL0     C13491  10.716   2.055   7.957 -0.1029  0.1195  0.1818
  103MOL0     C13492  10.593   2.006   7.916 -1.4619 -0.3659  0.6862
  103MOL0     C13493  10.496   2.094   7.863 -0.1063  0.1451 -0.1099
  103MOL0     O13494  10.373   2.030   7.863  0.3210 -0.4194  0.0332
  103MOL0     C13495  10.253   2.096   7.829 -0.1492  0.6099  0.9118
  103MOL0     C13496  10.151   2.009   7.786  0.1913  0.9074 -1.1179
  103MOL0     C13497  10.030   2.065   7.738 -0.2543 -0.5733 -0.0565
  103MOL0     C13498  10.010   2.206   7.729  0.1249  0.7762 -0.5001
  103MOL0     O13499   9.887   2.263   7.693  0.9032  0.2346  0.1147
  103MOL0     C13500   9.778   2.167   7.685  0.8668  0.6137  0.6284
  103MOL0     C13501   9.651   2.248   7.670 -1.3858 -0.0430 -0.6410
  103MOL0     C13502   9.527   2.166   7.651  0.9430 -1.0814 -0.0399
  103MOL0     C13503   9.423   2.270   7.612  0.0031  0.3952 -0.5735
  103MOL0     C13504   9.288   2.200   7.603 -0.4366  0.3543  0.6255
  103MOL0     C13505   9.176   2.300   7.570  0.2767  0.2027 -0.1793
  103MOL0     C13506   9.047   2.227   7.554  0.9646  0.1026  0.2943
  103MOL0     C13507   8.932   2.332   7.547  0.6280  0.6281  0.2333
  103MOL0    Cl13508   8.785   2.257   7.510  0.0506 -0.1693  0.9009
  103MOL0     C13509  10.115   2.287   7.763  0.2610  0.1221 -1.1240
  103MOL0     C13510  10.236   2.238   7.812 -0.0977  0.8868 -0.1804
  103MOL0     O13511  10.525   2.200   7.808 -0.1716  0.6087 -0.0046
  103MOL0     C13512  10.575   1.867   7.926  0.8044  0.1821  0.3221
  103MOL0     C13513  10.667   1.785   7.998 -0.0472  0.0764  0.6151
  103MOL0     N13514  10.586   1.655   8.520  0.3147 -0.4212 -0.2487
  103MOL0     N13515  10.603   1.601   8.639 -0.4629  0.2683  0.1653
  103MOL0     C13516  11.106   1.429   9.577 -0.5486  0.1419 -0.3518
  103MOL0     C13517  11.094   1.370   9.707  0.1022 -0.3004  0.7197
  103MOL0     C13518  11.104   1.109  10.068  0.1778  0.7486 -0.2041
  103MOL0     C13519  11.126   1.156  10.203  1.2943  0.4180  0.1645
  103MOL0     C13520  11.126   1.069  10.311 -0.2224  0.2689 -0.5563
  103MOL0     C13521  11.147   0.930  10.288 -1.1403 -0.1499 -0.3329
  103MOL0     O13522  11.168   0.827  10.384  0.0039  0.9784  0.4387
  103MOL0     C13523  11.214   0.871  10.512 -0.7009  0.0675 -0.6763
  103MOL0     C13524  11.321   0.772  10.558 -0.2213  0.2010 -0.2856
  103MOL0     C13525  11.362   0.801  10.704 -0.0989  1.2503  0.2451
  103MOL0     C13526  11.397   0.679  10.785 -0.7420  0.2310  0.1103
  103MOL0     C13527  11.365   0.693  10.931  0.3247 -0.5379 -0.1040
  103MOL0     C13528  11.315   0.687  11.037 -0.3946  0.2798  0.6067
  103MOL0     C13529  11.124   0.884  10.160  0.8515 -0.6781 -0.3244
  103MOL0     C13530  11.108   0.964  10.045 -0.7875 -0.0627 -0.1233
  103MOL0     H13531  11.139   1.049   9.597  1.3280 -0.1325  0.6020
  103MOL0     H13532  11.184   1.158   9.390  3.9964  1.2385  1.2919
  103MOL0     H13533  11.277   1.316   9.220  0.6043  1.2371 -2.3312
  103MOL0     H13534  11.373   1.364   9.363  0.7449 -2.3814 -0.8717
  103MOL0     H13535  11.432   1.508   9.160 -1.1804  2.8322 -3.6640
  103MOL0     H13536  11.366   1.598   9.294 -0.3416 -0.7281  0.1130
  103MOL0     H13537  11.278   1.670   9.063 -2.7468  2.3896  0.4246
  103MOL0     H13538  11.163   1.630   9.194 -0.0008 -0.0050  0.0062
  103MOL0     H13539  11.234   1.410   9.010 -1.1485 -0.8499 -0.6799
  103MOL0     H13540  11.085   1.449   9.094 -1.5022  1.2806 -2.2287
  103MOL0     H13541  11.082   1.463   8.848 -1.0964 -0.9257  0.7409
  103MOL0     H13542  11.173   1.612   8.845  2.4270 -3.4232 -1.2948
  103MOL0     H13543  10.999   1.700   9.007  1.4173  0.0076 -1.4312
  103MOL0     H13544  10.918   1.537   8.993 -0.5869 -1.4892 -2.2609
  103MOL0     H13545  10.950   1.724   8.758  0.0690 -0.7530  0.9819
  103MOL0     H13546  10.907   1.556   8.761 -0.1153  0.3436 -0.0463
  103MOL0     H13547  10.728   1.754   8.907  2.0632 -0.2375  1.6213
  103MOL0     H13548  10.710   1.579   8.900 -2.3054  2.3701  2.9294
  103MOL0     H13549  10.780   1.877   8.657 -1.1624  0.2944  0.6199
  103MOL0     H13550  10.600   1.972   8.421 -0.2783  0.3238 -0.9067
  103MOL0     H13551  10.620   1.850   8.312 -0.9175  0.9102 -0.2957
  103MOL0     H13552  10.828   1.978   8.483  0.1094  0.1818  0.7498
  103MOL0     H13553  10.779   1.992   8.299 -1.9779 -0.9708  0.0115
  103MOL0     H13554  10.985   1.873   8.317  0.4422 -0.6238 -1.7854
  103MOL0     H13555  10.915   1.758   8.434 -0.2489 -2.7353 -2.5564
  103MOL0     H13556  10.762   1.688   8.238  0.0247 -0.7219 -0.7002
  103MOL0     H13557  10.917   1.633   8.263 -2.3307 -2.0335  1.3053
  103MOL0     H13558  10.899   2.027   8.053 -0.5393  0.7054  2.2757
  103MOL0     H13559  10.750   2.157   7.945 -2.3436  0.6377 -2.8168
  103MOL0     H13560  10.160   1.901   7.796 -0.9071  0.9707  1.4261
  103MOL0     H13561   9.949   1.996   7.721  1.5915 -2.3052 -2.5982
  103MOL0     H13562   9.763   2.108   7.776 -0.8527 -0.4586 -0.2924
  103MOL0     H13563   9.795   2.118   7.588  2.4053  2.0469  0.1334
  103MOL0     H13564   9.674   2.316   7.588  0.1348 -0.3661 -0.5006
  103MOL0     H13565   9.635   2.296   7.767  0.9540 -1.6777  0.6621
  103MOL0     H13566   9.512   2.123   7.751 -0.9285  1.7343  1.0063
  103MOL0     H13567   9.543   2.093   7.571 -3.0796 -1.4065 -0.7554
  103MOL0     H13568   9.417   2.344   7.692  0.2088 -0.6967  0.4828
  103MOL0     H13569   9.448   2.312   7.514  1.5767  3.0837  0.8656
  103MOL0     H13570   9.262   2.164   7.703 -1.4725  1.1005  0.6370
  103MOL0     H13571   9.280   2.126   7.523 -0.5965  0.4881  0.5170
  103MOL0     H13572   9.200   2.359   7.481 -3.4669 -0.7569 -2.0178
  103MOL0     H13573   9.166   2.368   7.656 -0.9384  2.1698 -1.7714
  103MOL0     H13574   9.054   2.182   7.455 -0.3314  1.4041 -0.4263
  103MOL0     H13575   9.017   2.154   7.629 -3.4909  0.0053 -1.3296
  103MOL0     H13576   8.957   2.404   7.469 -0.6536 -0.6996 -1.4555
  103MOL0     H13577   8.927   2.379   7.646  1.7387  2.2832 -0.4598
  103MOL0     H13578  10.111   2.395   7.775 -1.7153 -0.0244 -0.1755
  103MOL0     H13579  10.314   2.306   7.845  0.9265 -1.0166  1.5691
  103MOL0     H13580  10.494   1.809   7.882  1.8218 -0.1913 -1.1424
  103MOL0     H13581  10.648   1.681   8.020  0.1201 -0.1245 -0.1420
  103MOL0     H13582  11.101   1.537   9.574 -0.1752  0.1402 -2.2452
  103MOL0     H13583  11.086   1.440   9.790  5.9181  3.5170 -1.2657
  103MOL0     H13584  11.137   1.262  10.221 -1.1128  1.1447 -2.1053
  103MOL0     H13585  11.126   1.097  10.415 -1.5179 -1.0135 -0.1830
  103MOL0     H13586  11.132   0.878  10.585  1.7847  0.5578  2.2852
  103MOL0     H13587  11.256   0.969  10.492 -2.3921  1.1661  0.8077
  103MOL0     H13588  11.278   0.672  10.542  2.4818 -0.9237 -1.1541
  103MOL0     H13589  11.415   0.783  10.502  0.8246  1.9527  1.6844
  103MOL0     H13590  11.284   0.866  10.744 -2.3351 -1.2337  0.1655
  103MOL0     H13591  11.449   0.866  10.722  3.3121 -2.7180 -0.3418
  103MOL0     H13592  11.334   0.598  10.747 -0.4862  0.9896 -2.1286
  103MOL0     H13593  11.502   0.651  10.775 -0.5531  0.5757  1.0423
  103MOL0     H13594  11.263   0.677  11.130  1.1116  1.8557  1.6608
  103MOL0     H13595  11.111   0.778  10.141 -1.8647 -0.7588  1.4025
  103MOL0     H13596  11.119   0.930   9.943  2.0685 -4.2199  1.3184
  104MOL0     O13597   7.594   6.027   4.623  0.2150  0.2786 -0.2247
  104MOL0     C13598   7.710   6.063   4.616 -0.0908  0.7331  1.2051
  104MOL0     O13599   7.771   6.158   4.696 -0.6277 -0.6635  0.1909
  104MOL0     C13600   7.678   6.228   4.775 -0.3038 -0.4484 -0.0658
  104MOL0     C13601   7.698   6.223   4.912 -0.3328  0.5536 -0.5002
  104MOL0     C13602   7.639   6.308   4.997  0.4512 -0.4066  0.1152
  104MOL0     C13603   7.545   6.410   4.942  0.1518  0.2167  0.2935
  104MOL0     O13604   7.467   6.472   5.031  0.7946 -0.4820 -0.9465
  104MOL0     C13605   7.390   6.594   4.987 -0.3144  0.3007  0.3503
  104MOL0     C13606   7.336   6.678   5.104 -1.1851  1.1042  0.8620
  104MOL0     C13607   7.447   6.727   5.211 -1.6645  0.1316 -0.1066
  104MOL0     C13608   7.404   6.797   5.330  0.5055  0.4343 -0.1428
  104MOL0     C13609   7.305   6.729   5.414  0.5388 -0.3833 -0.6360
  104MOL0     C13610   7.281   6.797   5.552 -0.9450  0.4698  0.1644
  104MOL0     C13611   7.237   6.938   5.533  0.3917  0.3017 -1.0835
  104MOL0     C13612   7.227   6.994   5.679 -0.5131  0.4276  0.4676
  104MOL0     N13613   7.116   6.938   5.755 -0.0611 -0.2453  0.2289
  104MOL0     C13614   6.988   6.990   5.765  0.0868  1.0164 -0.2492
  104MOL0     C13615   6.931   6.913   5.870  0.7109 -0.7124 -0.4452
  104MOL0     C13616   6.790   6.923   5.928 -0.4230 -1.2342  0.2974
  104MOL0     C13617   6.793   7.014   6.053  0.3576 -0.0829 -0.4038
  104MOL0     C13618   6.875   6.948   6.164 -0.7163  0.7753  0.0614
  104MOL0     C13619   6.870   7.014   6.302  0.3126  1.4644  0.6285
  104MOL0     O13620   6.989   6.973   6.383 -0.0970 -0.0857  0.7345
  104MOL0     C13621   6.988   7.020   6.517  0.4629  0.0263  0.0223
  104MOL0     C13622   7.106   7.000   6.592 -0.3596 -0.0774  0.0320
  104MOL0     C13623   7.105   7.005   6.731 -0.0216  0.4133 -0.3582
  104MOL0     C13624   6.992   7.048   6.791 -0.3796 -0.3527  0.3348
  104MOL0     C13625   6.992   7.061   6.937  0.5654  0.7281  0.6462
  104MOL0     O13626   7.083   6.995   7.014 -0.3992  0.1572 -0.2336
  104MOL0     C13627   7.048   6.954   7.142 -0.2393  0.8003  0.4307
  104MOL0     C13628   7.147   6.977   7.240 -1.0931  0.9156 -0.5069
  104MOL0     C13629   7.136   6.915   7.367 -0.0176 -0.2324  0.1561
  104MOL0     C13630   7.011   6.853   7.397  0.0317  0.3951 -0.1045
  104MOL0     O13631   6.991   6.786   7.524 -0.0052 -0.4414 -1.5233
  104MOL0     C13632   6.982   6.880   7.633  0.6549  0.4032  0.5272
  104MOL0     C13633   6.925   6.820   7.764  0.1447 -0.5041  1.6070
  104MOL0     C13634   6.910   6.929   7.866  0.4849  0.1694 -0.2848
  104MOL0     C13635   6.848   6.882   8.009 -0.2995  0.0332  0.4571
  104MOL0     C13636   6.845   6.997   8.119 -0.8211  0.3392  0.8842
  104MOL0     C13637   6.734   7.088   8.072  0.2622 -0.2751  0.5029
  104MOL0     C13638   6.701   7.176   8.191  0.6318  0.6578 -0.3757
  104MOL0     C13639   6.620   7.293   8.152 -0.0216 -1.1148 -0.6982
  104MOL0    Cl13640   6.444   7.263   8.093 -0.0759  0.0574  0.4485
  104MOL0     C13641   6.917   6.833   7.296 -0.8761 -0.5768  0.5141
  104MOL0     C13642   6.929   6.884   7.172 -0.3297  0.4778 -0.7436
  104MOL0     O13643   6.892   7.111   6.989 -0.2198  0.3087 -0.1206
  104MOL0     C13644   6.881   7.087   6.720  0.1772 -0.1190 -0.4870
  104MOL0     C13645   6.877   7.071   6.579  0.5997  0.4358 -0.4056
  104MOL0     N13646   7.035   6.817   5.903  0.1176  0.1089  1.2489
  104MOL0     N13647   7.140   6.834   5.837 -0.3802 -0.3276 -0.0192
  104MOL0     C13648   7.523   6.413   4.807 -0.7513  0.4095  0.1715
  104MOL0     C13649   7.598   6.326   4.720 -0.3797 -0.5472  0.1378
  104MOL0     C13650   7.792   5.981   4.528  0.9043  0.5676  0.1793
  104MOL0     C13651   7.747   5.940   4.397  0.9291 -0.7255  0.2630
  104MOL0     C13652   7.832   5.887   4.300  0.2219  0.1697 -0.1728
  104MOL0     C13653   7.970   5.863   4.328  0.3041 -1.0255 -0.4713
  104MOL0     O13654   8.065   5.818   4.229  0.2550  0.4850 -0.4282
  104MOL0     C13655   8.021   5.768   4.107  1.0241 -0.2502 -0.5595
  104MOL0     C13656   8.144   5.753   4.030  0.4988  0.9624 -0.3742
  104MOL0     C13657   8.089   5.690   3.900 -0.8660 -0.4063 -0.3642
  104MOL0     C13658   8.195   5.635   3.808  0.0807  0.1008  0.7123
  104MOL0     C13659   8.149   5.614   3.668  0.5040 -0.2564  0.2140
  104MOL0     C13660   8.109   5.608   3.553 -0.8264  0.0821 -0.4713
  104MOL0     C13661   8.011   5.884   4.455  0.3304 -1.0864  0.2848
  104MOL0     C13662   7.928   5.949   4.551 -0.2594 -0.9527 -0.0017
  104MOL0     H13663   7.768   6.158   4.965 -1.9899 -0.6764  0.2568
  104MOL0     H13664   7.644   6.317   5.105 -2.8290  1.8417  0.2451
  104MOL0     H13665   7.313   6.569   4.913  0.5221 -1.7773  0.1212
  104MOL0     H13666   7.453   6.655   4.922 -1.0598 -0.6814 -1.3767
  104MOL0     H13667   7.266   6.619   5.164  0.7066 -0.6689  1.4293
  104MOL0     H13668   7.293   6.774   5.076 -1.5487  1.9969  4.0852
  104MOL0     H13669   7.522   6.776   5.148 -3.6563  0.4787 -2.3505
  104MOL0     H13670   7.499   6.635   5.241  0.6642  1.0416 -1.0894
  104MOL0     H13671   7.489   6.826   5.392 -2.2465  1.6290  3.4542
  104MOL0     H13672   7.360   6.892   5.297 -1.0938  0.1878  1.1472
  104MOL0     H13673   7.339   6.628   5.441 -1.0350 -0.2855  2.1140
  104MOL0     H13674   7.207   6.724   5.366 -0.4027 -1.0075  1.2335
  104MOL0     H13675   7.378   6.798   5.604 -1.0977  2.9440  0.5094
  104MOL0     H13676   7.213   6.737   5.613 -0.1579 -0.7981 -0.1428
  104MOL0     H13677   7.312   6.992   5.475  1.6736 -0.1599  0.0940
  104MOL0     H13678   7.139   6.951   5.485  0.4399  2.9226 -0.6566
  104MOL0     H13679   7.207   7.101   5.665 -0.4083  0.2099 -1.6319
  104MOL0     H13680   7.327   6.977   5.721 -0.5896 -2.9324 -0.4943
  104MOL0     H13681   6.941   7.076   5.720 -2.2388  0.7455  1.5127
  104MOL0     H13682   6.763   6.822   5.960  1.9713 -1.6358  1.2612
  104MOL0     H13683   6.714   6.957   5.857  0.6535 -1.9500 -1.2566
  104MOL0     H13684   6.687   7.020   6.080  0.1465 -2.8353 -0.2865
  104MOL0     H13685   6.824   7.116   6.032 -2.8144  1.7231  2.5246
  104MOL0     H13686   6.827   6.850   6.168  2.5548 -0.9308  2.9769
  104MOL0     H13687   6.982   6.937   6.147 -0.7487  0.4405  0.0777
  104MOL0     H13688   6.781   6.975   6.352  1.3443 -0.2043  1.2224
  104MOL0     H13689   6.872   7.123   6.294  1.6411  1.3342 -1.6248
  104MOL0     H13690   7.196   6.962   6.545 -0.6355 -0.9564  0.2123
  104MOL0     H13691   7.200   6.993   6.782  0.6570  1.1570 -1.4105
  104MOL0     H13692   7.235   7.036   7.217 -1.3755  0.5695 -2.7114
  104MOL0     H13693   7.208   6.942   7.444 -0.1279  1.9785 -0.4427
  104MOL0     H13694   6.920   6.965   7.602 -1.4410 -1.3075 -0.1716
  104MOL0     H13695   7.080   6.915   7.666  1.0101  0.5994 -0.6742
  104MOL0     H13696   6.988   6.740   7.805  3.2084  1.3185  0.7465
  104MOL0     H13697   6.828   6.779   7.735 -0.2357 -0.6040  2.9466
  104MOL0     H13698   6.845   7.008   7.828  1.2627  0.3281 -1.3496
  104MOL0     H13699   7.008   6.965   7.900 -0.4785  0.2443  2.6978
  104MOL0     H13700   6.749   6.839   7.997  0.8435 -2.6154 -0.3318
  104MOL0     H13701   6.915   6.808   8.055  0.9079  2.6608  3.3146
  104MOL0     H13702   6.940   7.050   8.113 -1.6529  1.9757  1.5176
  104MOL0     H13703   6.830   6.956   8.220  0.7663  1.0409  1.4304
  104MOL0     H13704   6.646   7.027   8.053  1.4974 -1.6741 -1.0050
  104MOL0     H13705   6.770   7.141   7.983  0.6696 -1.8892 -0.3265
  104MOL0     H13706   6.645   7.110   8.258  0.0634  1.5545  0.0569
  104MOL0     H13707   6.792   7.214   8.238  0.5653  0.3626 -0.0010
  104MOL0     H13708   6.674   7.342   8.071  0.5117 -1.2775 -0.4434
  104MOL0     H13709   6.611   7.355   8.242 -0.2886  1.7609 -2.5702
  104MOL0     H13710   6.835   6.762   7.308 -0.1096 -1.3277  1.5066
  104MOL0     H13711   6.844   6.867   7.106 -1.7622  2.3394  0.5271
  104MOL0     H13712   6.784   7.106   6.765  0.5273  3.2129 -0.9019
  104MOL0     H13713   6.795   7.105   6.517  0.4490  0.0834 -0.4030
  104MOL0     H13714   7.468   6.494   4.760  2.5152  1.0332 -3.0819
  104MOL0     H13715   7.580   6.335   4.613  0.9257 -1.3535 -0.1803
  104MOL0     H13716   7.643   5.961   4.372  1.0737 -3.3133 -3.0985
  104MOL0     H13717   7.778   5.866   4.208 -1.8634  1.7763  0.6017
  104MOL0     H13718   7.964   5.845   4.054  0.7896  1.1980  1.6550
  104MOL0     H13719   7.964   5.677   4.124 -0.6229  0.9042  0.4749
  104MOL0     H13720   8.187   5.850   4.004 -2.2295  2.4756  0.4467
  104MOL0     H13721   8.221   5.688   4.073 -2.5612 -2.2127  0.7588
  104MOL0     H13722   8.026   5.763   3.848 -1.2526 -0.0531  0.5851
  104MOL0     H13723   8.028   5.604   3.930  0.4800 -2.6025 -3.4269
  104MOL0     H13724   8.273   5.712   3.797  1.1398 -1.0073  0.2695
  104MOL0     H13725   8.257   5.553   3.843 -1.9709 -2.3659 -1.0996
  104MOL0     H13726   8.096   5.609   3.447  0.8492 -3.1584 -0.8495
  104MOL0     H13727   8.112   5.859   4.486 -0.6258 -1.2814  3.6541
  104MOL0     H13728   7.980   5.972   4.644 -0.1793  1.4045 -0.5757
  105MOL0     O13729   1.818   4.751   5.684 -0.2714  0.3319 -1.0907
  105MOL0     C13730   1.923   4.709   5.738  0.4726 -0.3315  0.3951
  105MOL0     O13731   1.931   4.596   5.819  0.3640  0.0788  0.8471
  105MOL0     C13732   1.840   4.491   5.810 -1.6928 -0.7847  0.4249
  105MOL0     C13733   1.799   4.429   5.926  0.5351 -0.1483  0.2916
  105MOL0     C13734   1.720   4.310   5.913 -0.1159 -0.2639 -0.7123
  105MOL0     C13735   1.687   4.263   5.784 -0.1105  0.8050 -0.3440
  105MOL0     O13736   1.608   4.144   5.783 -0.7724 -0.0826  0.0498
  105MOL0     C13737   1.578   4.100   5.655 -0.5349  0.6475  0.4447
  105MOL0     C13738   1.483   3.979   5.671 -0.4164  0.0162  0.0374
  105MOL0     C13739   1.345   4.028   5.720 -0.5655  0.1793  0.4190
  105MOL0     C13740   1.226   3.935   5.675 -0.1854  1.7570  0.3954
  105MOL0     C13741   1.093   3.974   5.757 -0.7724 -0.2578 -0.3792
  105MOL0     C13742   0.953   3.924   5.713  0.3769  0.3057 -0.6952
  105MOL0     C13743   0.862   3.861   5.822  0.5111 -0.2735  0.2701
  105MOL0     C13744   0.744   3.785   5.763  0.7322 -1.1655 -0.0284
  105MOL0     N13745   0.629   3.876   5.743  0.3689  0.1546  0.7272
  105MOL0     C13746   0.627   3.990   5.664  1.6985  1.0967  0.8335
  105MOL0     C13747   0.507   4.047   5.692  0.3753 -0.0643  0.4177
  105MOL0     C13748   0.455   4.175   5.648  0.0869 -0.4521  0.6058
  105MOL0     C13749   0.344   4.167   5.543 -0.0367 -0.3545  0.8346
  105MOL0     C13750   0.234   4.264   5.578  1.1422 -0.0788  0.0949
  105MOL0     C13751   0.137   4.313   5.458 -0.3073  0.0977 -0.6503
  105MOL0     O13752   0.083   4.186   5.411 -0.1768  0.3408  0.2258
  105MOL0     C13753  -0.035   4.142   5.461 -0.8121 -0.6008  1.0032
  105MOL0     C13754  -0.105   4.195   5.578  0.1215 -0.4885  0.0267
  105MOL0     C13755  -0.225   4.146   5.618  0.3218 -0.2112 -0.1760
  105MOL0     C13756  -0.283   4.034   5.551  0.2946  0.5881  0.3154
  105MOL0     C13757  -0.415   3.973   5.580  0.0507  0.9913 -0.6760
  105MOL0     O13758  -0.445   3.858   5.514  0.4723  0.2017 -0.1911
  105MOL0     C13759  -0.569   3.794   5.544 -0.6257 -0.7371 -0.5845
  105MOL0     C13760  -0.589   3.712   5.656  0.6763 -0.1547 -0.2033
  105MOL0     C13761  -0.710   3.635   5.671 -0.4773  0.7348 -0.1231
  105MOL0     C13762  -0.825   3.647   5.592  0.6128  0.0750 -0.4143
  105MOL0     O13763  -0.948   3.584   5.599  0.4993 -0.1729  0.7860
  105MOL0     C13764  -1.018   3.561   5.718 -0.5548 -0.2833 -0.2930
  105MOL0     C13765  -1.141   3.475   5.690 -0.1839  1.6270  0.7272
  105MOL0     C13766  -1.205   3.500   5.556 -0.3195 -1.0503  0.5336
  105MOL0     C13767  -1.348   3.440   5.556  0.0168  0.2292  0.3275
  105MOL0     C13768  -1.394   3.430   5.418  0.2952 -0.4856  0.8887
  105MOL0     C13769  -1.528   3.360   5.417 -0.7278 -0.2199  0.3639
  105MOL0     C13770  -1.587   3.358   5.269  0.2044  0.1304  0.0219
  105MOL0     C13771  -1.725   3.284   5.275 -0.0012  0.0055  0.6088
  105MOL0    Cl13772  -1.759   3.154   5.153  0.1261 -0.0052  0.0269
  105MOL0     C13773  -0.808   3.746   5.498  0.7597 -0.7245 -0.5282
  105MOL0     C13774  -0.682   3.814   5.467  0.0522 -0.0414  0.5594
  105MOL0     O13775  -0.488   4.020   5.662 -0.2742  0.7200 -0.2263
  105MOL0     C13776  -0.208   3.976   5.446 -0.5653 -0.6078  0.4261
  105MOL0     C13777  -0.090   4.032   5.402  0.0249  1.2332  0.3682
  105MOL0     N13778   0.453   3.979   5.794  0.2629  0.0556  0.0068
  105MOL0     N13779   0.523   3.874   5.818 -0.7551  0.5613  0.2849
  105MOL0     C13780   1.735   4.330   5.670  0.2906  0.3412  0.6735
  105MOL0     C13781   1.807   4.446   5.688  0.2719  0.0211  0.1693
  105MOL0     C13782   2.049   4.786   5.731  0.8442  0.2165  1.0616
  105MOL0     C13783   2.174   4.737   5.770  0.5867  0.2904  0.2081
  105MOL0     C13784   2.289   4.823   5.758  0.2206 -0.1807 -0.6216
  105MOL0     C13785   2.274   4.957   5.714 -0.5027 -0.3718 -0.1859
  105MOL0     O13786   2.384   5.039   5.730 -0.0888  0.0450 -0.0469
  105MOL0     C13787   2.363   5.184   5.738  0.2927  0.5561  0.7767
  105MOL0     C13788   2.491   5.253   5.771 -0.0016  0.0129  0.9350
  105MOL0     C13789   2.559   5.222   5.904  0.2256  0.3136  0.1605
  105MOL0     C13790   2.666   5.325   5.923  0.5703 -0.3904 -0.1179
  105MOL0     C13791   2.784   5.309   5.837  0.3079 -0.1295 -0.2238
  105MOL0     C13792   2.878   5.286   5.769  0.6745  0.3294 -0.1560
  105MOL0     C13793   2.153   5.004   5.664  0.2978  0.7885  1.2851
  105MOL0     C13794   2.047   4.921   5.675  0.6160  1.1004 -0.4466
  105MOL0     H13795   1.828   4.476   6.020  0.8208  1.2709 -0.4828
  105MOL0     H13796   1.685   4.260   6.003  2.2809 -2.0043 -0.6496
  105MOL0     H13797   1.674   4.085   5.606 -0.8936  0.1694 -0.1378
  105MOL0     H13798   1.521   4.165   5.587  0.1287  0.1485 -0.6128
  105MOL0     H13799   1.534   3.901   5.729 -0.3759 -0.6602 -0.8745
  105MOL0     H13800   1.481   3.952   5.565  2.7433  2.0776 -0.6844
  105MOL0     H13801   1.330   4.133   5.695  0.3398  0.3568  0.5735
  105MOL0     H13802   1.358   4.026   5.829 -0.1539 -0.6145  0.3682
  105MOL0     H13803   1.224   3.942   5.566  0.3441 -0.8454  0.1636
  105MOL0     H13804   1.243   3.828   5.689 -0.3362  1.6676 -0.0888
  105MOL0     H13805   1.091   4.083   5.750 -2.4996 -0.3762 -2.4106
  105MOL0     H13806   1.100   3.936   5.860 -0.6129  0.9889  0.0855
  105MOL0     H13807   0.969   3.842   5.643 -1.4729 -0.7181  0.0113
  105MOL0     H13808   0.898   4.006   5.666  0.6064  2.0406  1.8400
  105MOL0     H13809   0.914   3.783   5.878  0.8351  0.0046  0.3630
  105MOL0     H13810   0.830   3.949   5.880  0.5594 -0.3492  0.4107
  105MOL0     H13811   0.720   3.706   5.834 -2.5286  0.8434  1.3593
  105MOL0     H13812   0.772   3.748   5.664  0.9090  0.0685 -0.4587
  105MOL0     H13813   0.700   4.030   5.594 -1.3983  1.9831 -2.1876
  105MOL0     H13814   0.533   4.237   5.602 -1.9196  0.5072 -1.6855
  105MOL0     H13815   0.421   4.222   5.741 -1.7007  4.2565 -2.0697
  105MOL0     H13816   0.308   4.065   5.530  0.9373 -0.4924 -1.2087
  105MOL0     H13817   0.380   4.200   5.445 -2.8201  1.3481  0.2787
  105MOL0     H13818   0.171   4.218   5.655 -0.8227 -0.4628 -1.6415
  105MOL0     H13819   0.270   4.360   5.614 -1.4245  0.7189  0.7365
  105MOL0     H13820   0.197   4.364   5.383  0.8522  2.5054  1.7313
  105MOL0     H13821   0.047   4.371   5.481 -2.8478 -4.3430  1.9894
  105MOL0     H13822  -0.065   4.272   5.643 -2.2895 -0.1877  1.2508
  105MOL0     H13823  -0.283   4.192   5.697  1.7395  0.2425  0.6338
  105MOL0     H13824  -0.515   3.711   5.735  1.1940 -2.7406 -0.6493
  105MOL0     H13825  -0.712   3.559   5.748  2.1380 -1.0171 -1.6262
  105MOL0     H13826  -1.062   3.653   5.757  0.5967  0.2725 -0.2630
  105MOL0     H13827  -0.946   3.527   5.793 -1.1035  0.1183  0.4255
  105MOL0     H13828  -1.223   3.487   5.761 -2.2644 -2.7095 -0.5596
  105MOL0     H13829  -1.110   3.370   5.679  2.6674  2.6091 -2.5428
  105MOL0     H13830  -1.149   3.453   5.475  4.1212 -0.3960  2.8736
  105MOL0     H13831  -1.206   3.606   5.529  1.3849 -1.6471 -2.2885
  105MOL0     H13832  -1.327   3.338   5.589  2.5842  0.3233 -0.7898
  105MOL0     H13833  -1.419   3.510   5.602 -1.2811 -0.6845 -0.2228
  105MOL0     H13834  -1.336   3.359   5.360  1.2366  0.8065  0.1813
  105MOL0     H13835  -1.390   3.533   5.379  0.2989  0.1598  2.5033
  105MOL0     H13836  -1.589   3.418   5.487  1.8113  3.0303  0.1238
  105MOL0     H13837  -1.518   3.258   5.453 -0.9740  0.3506  2.1482
  105MOL0     H13838  -1.608   3.456   5.224  0.8213  0.8843  1.3106
  105MOL0     H13839  -1.514   3.310   5.204 -0.2573 -0.1692 -0.2749
  105MOL0     H13840  -1.799   3.364   5.269  0.5195  0.4214 -0.5066
  105MOL0     H13841  -1.738   3.232   5.370  0.6084 -2.1585 -0.4263
  105MOL0     H13842  -0.891   3.743   5.427  2.0058 -2.2607 -2.0317
  105MOL0     H13843  -0.672   3.881   5.382  1.9018  2.1920  2.3995
  105MOL0     H13844  -0.233   3.877   5.411  2.4604 -2.6273  3.3564
  105MOL0     H13845  -0.035   3.981   5.324 -0.3810  0.2157  0.7344
  105MOL0     H13846   1.715   4.282   5.574  0.6771  0.5723  0.4745
  105MOL0     H13847   1.848   4.491   5.598  1.9991  1.3700  1.5505
  105MOL0     H13848   2.187   4.635   5.807  5.5557  0.5014 -0.3168
  105MOL0     H13849   2.389   4.794   5.789 -0.7654 -0.2710  2.8201
  105MOL0     H13850   2.291   5.201   5.818 -0.8583  0.8531 -0.2772
  105MOL0     H13851   2.329   5.225   5.642  2.3927 -0.1675 -0.3456
  105MOL0     H13852   2.559   5.207   5.698 -0.4054 -1.9496  1.7215
  105MOL0     H13853   2.482   5.360   5.753  1.6807 -0.0205 -0.3367
  105MOL0     H13854   2.591   5.118   5.906  3.3766  1.0487  5.4223
  105MOL0     H13855   2.490   5.251   5.983  0.3450  0.7236  0.1183
  105MOL0     H13856   2.628   5.425   5.903  3.9356  0.5436 -2.9389
  105MOL0     H13857   2.686   5.322   6.030 -2.8507 -0.7138  0.6119
  105MOL0     H13858   2.968   5.253   5.721  1.0903 -0.2332  0.9663
  105MOL0     H13859   2.148   5.110   5.641  2.0326  0.1143 -3.2107
  105MOL0     H13860   1.950   4.967   5.660  1.4871  2.8661 -1.0015
  106MOL0     O13861   9.600   1.382   2.083  0.0326 -0.0156 -0.5560
  106MOL0     C13862   9.600   1.391   2.207 -0.5703  0.6739  0.0859
  106MOL0     O13863   9.673   1.475   2.289 -0.3800 -0.4535  0.4939
  106MOL0     C13864   9.784   1.551   2.253 -0.0719  0.0369 -0.7235
  106MOL0     C13865   9.869   1.596   2.360 -0.1152 -0.1665  0.0792
  106MOL0     C13866   9.979   1.671   2.328  0.0193 -0.2520 -0.2961
  106MOL0     C13867   9.995   1.723   2.200 -0.5301  1.6162  0.7653
  106MOL0     O13868  10.089   1.799   2.150 -0.3408  0.6105  0.4624
  106MOL0     C13869  10.223   1.786   2.188 -0.4069  0.2084 -0.0524
  106MOL0     C13870  10.310   1.904   2.147 -0.9953 -0.1610  0.0886
  106MOL0     C13871  10.451   1.863   2.165  0.1379  0.3005 -0.4095
  106MOL0     C13872  10.551   1.972   2.122  0.0598 -0.0820  1.0095
  106MOL0     C13873  10.701   1.925   2.150 -0.2484  0.1582 -0.3135
  106MOL0     C13874  10.795   2.049   2.167 -0.5153  0.5997  0.1940
  106MOL0     C13875  10.945   2.004   2.167  0.1530 -0.3400  0.1112
  106MOL0     C13876  11.033   2.126   2.135  0.1149 -0.5681  0.1452
  106MOL0     N13877  11.182   2.121   2.163 -0.4615 -0.1780 -0.2239
  106MOL0     C13878  11.254   2.000   2.182  0.5000 -0.1400 -0.0400
  106MOL0     C13879  11.380   2.042   2.178  0.3637 -0.1308 -0.7283
  106MOL0     C13880  11.509   1.959   2.183  0.3973 -0.2443  0.0191
  106MOL0     C13881  11.492   1.822   2.116 -0.4250  0.6317  0.6255
  106MOL0     C13882  11.459   1.694   2.200 -0.9804 -0.4767 -0.6113
  106MOL0     C13883  11.461   1.584   2.108 -0.2146 -0.5709 -0.4110
  106MOL0     O13884  11.381   1.602   1.986 -0.0569  0.2513 -0.2507
  106MOL0     C13885  11.246   1.583   1.997 -0.1600 -0.1184  0.4511
  106MOL0     C13886  11.174   1.663   1.917  0.1431 -0.1454  0.1113
  106MOL0     C13887  11.032   1.662   1.925  0.1519 -0.0067  0.0048
  106MOL0     C13888  10.966   1.567   2.004 -0.4153 -0.6132 -0.1959
  106MOL0     C13889  10.823   1.549   2.007  0.1196 -0.1224  0.2757
  106MOL0     O13890  10.768   1.431   2.041  0.6872 -0.3877  0.6770
  106MOL0     C13891  10.631   1.417   2.015  1.0007 -0.1621 -0.3988
  106MOL0     C13892  10.584   1.328   1.920  0.4335 -0.2239 -0.7570
  106MOL0     C13893  10.449   1.292   1.918  0.1371 -0.4375  0.5062
  106MOL0     C13894  10.348   1.362   1.990  0.0575  0.3202 -0.2420
  106MOL0     O13895  10.220   1.330   1.962  1.3077 -0.1112  0.9507
  106MOL0     C13896  10.106   1.404   2.011 -0.1187 -0.4136  0.3145
  106MOL0     C13897   9.975   1.326   1.981 -0.2970  0.6347 -0.1397
  106MOL0     C13898   9.956   1.189   2.063 -0.4245 -0.3792  0.0850
  106MOL0     C13899   9.825   1.113   2.015  0.0888 -0.8160  1.0951
  106MOL0     C13900   9.798   0.974   2.070 -0.6039  0.4665 -0.4677
  106MOL0     C13901   9.781   0.975   2.222 -0.9130 -0.2607  0.0292
  106MOL0     C13902   9.750   0.841   2.283 -0.1659  0.0027  0.5271
  106MOL0     C13903   9.830   0.810   2.411 -0.3869  0.3987  0.2339
  106MOL0    Cl13904   9.830   0.935   2.535 -0.0567  0.7382  0.2587
  106MOL0     C13905  10.391   1.458   2.084 -0.0257  0.8281  0.4885
  106MOL0     C13906  10.531   1.489   2.086 -1.1171  0.6890  0.4676
  106MOL0     O13907  10.763   1.647   1.959  0.5597 -0.1431  0.2683
  106MOL0     C13908  11.048   1.478   2.089  0.4142  0.2104  0.2239
  106MOL0     C13909  11.182   1.490   2.083 -0.6488  0.1114  0.2901
  106MOL0     N13910  11.379   2.183   2.166  0.2157  0.9335 -0.5035
  106MOL0     N13911  11.265   2.229   2.167 -0.0650 -0.1510 -0.2829
  106MOL0     C13912   9.904   1.692   2.094 -0.2175 -0.5501  0.1777
  106MOL0     C13913   9.803   1.606   2.124  0.8587 -0.5572 -0.2608
  106MOL0     C13914   9.522   1.287   2.277 -0.4899 -1.2314 -0.6368
  106MOL0     C13915   9.560   1.257   2.415  1.0199 -0.3861  0.5740
  106MOL0     C13916   9.491   1.156   2.483 -0.4629  0.5871  1.0220
  106MOL0     C13917   9.390   1.079   2.418 -0.3605  0.1014 -0.5552
  106MOL0     O13918   9.353   0.963   2.485  1.3859 -0.1254  0.1816
  106MOL0     C13919   9.297   0.979   2.613  1.3957 -0.0043 -0.5406
  106MOL0     C13920   9.239   0.847   2.659 -0.3212 -0.5769  0.9053
  106MOL0     C13921   9.128   0.802   2.571 -0.4697 -0.0936 -0.3914
  106MOL0     C13922   9.121   0.652   2.580  0.0438 -0.0303  0.6693
  106MOL0     C13923   9.223   0.597   2.483 -0.0226 -0.1049  0.1771
  106MOL0     C13924   9.321   0.559   2.420 -0.4313  0.2382 -0.3217
  106MOL0     C13925   9.359   1.114   2.284 -0.7478 -0.1042 -0.2980
  106MOL0     C13926   9.425   1.210   2.216 -0.1102  0.8885  0.8435
  106MOL0     H13927   9.842   1.561   2.459 -1.9125 -2.1938 -1.0190
  106MOL0     H13928  10.052   1.697   2.405 -0.4544  0.0236  0.0643
  106MOL0     H13929  10.273   1.702   2.139  1.7019  0.6500  1.2430
  106MOL0     H13930  10.232   1.777   2.296 -0.4208  0.7209 -0.0063
  106MOL0     H13931  10.284   2.001   2.188 -4.0270 -0.8426 -0.0303
  106MOL0     H13932  10.303   1.919   2.039 -0.7308  0.5384  0.1657
  106MOL0     H13933  10.469   1.770   2.111 -0.4674  0.1184 -0.3044
  106MOL0     H13934  10.458   1.849   2.273 -1.2567 -1.2207 -0.4908
  106MOL0     H13935  10.546   1.997   2.016  3.6730  0.3146  0.8173
  106MOL0     H13936  10.518   2.058   2.181  2.5173  1.1127  0.7826
  106MOL0     H13937  10.733   1.858   2.070 -0.3983 -2.7660  1.8648
  106MOL0     H13938  10.701   1.854   2.234 -2.1991 -0.6366 -0.9141
  106MOL0     H13939  10.775   2.098   2.263 -1.2604  0.8083 -0.0640
  106MOL0     H13940  10.782   2.132   2.097 -0.3961 -1.1706 -2.0179
  106MOL0     H13941  10.969   1.970   2.268  0.4955 -1.4814 -0.3332
  106MOL0     H13942  10.973   1.920   2.102  3.5447  0.1869  0.6873
  106MOL0     H13943  11.008   2.207   2.203 -1.4808  1.5194 -2.6996
  106MOL0     H13944  11.021   2.166   2.034 -3.0438  1.3277  1.1327
  106MOL0     H13945  11.223   1.896   2.178 -0.3514  0.0384  1.4301
  106MOL0     H13946  11.535   1.941   2.287 -2.2355  0.0589  0.8203
  106MOL0     H13947  11.592   2.011   2.135  0.3841  1.7346  2.0194
  106MOL0     H13948  11.585   1.792   2.068 -0.5878 -4.0748  2.7134
  106MOL0     H13949  11.428   1.833   2.028 -1.4785 -2.2507  0.9416
  106MOL0     H13950  11.534   1.672   2.276 -0.2183  3.7936  0.1202
  106MOL0     H13951  11.363   1.703   2.251 -1.4884  1.8955 -1.8336
  106MOL0     H13952  11.440   1.491   2.163  3.7253 -0.9458  0.7657
  106MOL0     H13953  11.561   1.587   2.064 -0.5726 -2.9630 -1.5996
  106MOL0     H13954  11.223   1.742   1.861  3.2309 -2.1000 -0.1411
  106MOL0     H13955  10.976   1.723   1.855 -0.0672 -0.4844 -0.2440
  106MOL0     H13956  10.645   1.265   1.855 -0.9839  0.9518 -3.3991
  106MOL0     H13957  10.421   1.205   1.859  0.6502 -1.9234  2.3635
  106MOL0     H13958  10.104   1.494   1.950  1.8579 -0.2068  0.5023
  106MOL0     H13959  10.119   1.433   2.116  1.8611  2.6810 -0.6577
  106MOL0     H13960   9.976   1.311   1.873 -0.4283  1.4139 -0.2559
  106MOL0     H13961   9.894   1.398   1.994  0.8768  2.6060 -2.7083
  106MOL0     H13962   9.942   1.220   2.168  1.1214 -0.1828  0.2488
  106MOL0     H13963  10.041   1.123   2.049  1.4595  1.1856  3.0892
  106MOL0     H13964   9.736   1.173   2.035  0.0182 -0.5318  0.0327
  106MOL0     H13965   9.833   1.111   1.906 -0.7724 -2.1597  1.0364
  106MOL0     H13966   9.872   0.898   2.046 -0.9539 -0.5445  1.4871
  106MOL0     H13967   9.707   0.936   2.023 -0.6519  1.2926 -1.0784
  106MOL0     H13968   9.704   1.044   2.256 -1.4963  0.1143 -1.9040
  106MOL0     H13969   9.875   1.015   2.262 -0.9185 -0.6142  0.4029
  106MOL0     H13970   9.646   0.840   2.318 -0.8948  0.1094 -1.4848
  106MOL0     H13971   9.751   0.756   2.214  0.7372 -0.7676  1.4508
  106MOL0     H13972   9.935   0.801   2.382 -0.1807 -0.7536  1.2673
  106MOL0     H13973   9.807   0.715   2.459  0.0230 -0.2240 -0.7877
  106MOL0     H13974  10.326   1.521   2.143 -2.8123 -2.7353  1.5701
  106MOL0     H13975  10.558   1.582   2.134  1.9114 -1.2914  2.9997
  106MOL0     H13976  10.993   1.406   2.149 -1.0731  1.1838  0.0988
  106MOL0     H13977  11.234   1.426   2.153 -1.5344  1.3789  2.1942
  106MOL0     H13978   9.922   1.731   1.994  0.1346  0.3307  0.5675
  106MOL0     H13979   9.717   1.585   2.061  0.3861  0.8724 -0.1264
  106MOL0     H13980   9.635   1.311   2.471  0.3298 -1.2863  2.4317
  106MOL0     H13981   9.523   1.136   2.585 -1.7617  0.0921  1.3578
  106MOL0     H13982   9.232   1.065   2.632  2.1811  0.5631 -0.3636
  106MOL0     H13983   9.373   0.989   2.690  1.9295 -1.0171 -0.9193
  106MOL0     H13984   9.320   0.776   2.643  2.3457  2.1145  1.5039
  106MOL0     H13985   9.208   0.866   2.763  1.6473  2.0259  1.1242
  106MOL0     H13986   9.155   0.826   2.468 -1.7246 -0.1692 -0.7503
  106MOL0     H13987   9.034   0.846   2.606 -1.3501 -1.8845 -0.4077
  106MOL0     H13988   9.138   0.614   2.680  0.2972 -1.8452 -0.0335
  106MOL0     H13989   9.017   0.624   2.561 -0.1095 -0.6183  2.2294
  106MOL0     H13990   9.400   0.528   2.355  0.2825 -0.3706  0.8040
  106MOL0     H13991   9.281   1.051   2.242  0.0305 -2.1063  1.1005
  106MOL0     H13992   9.395   1.217   2.112 -1.8999 -4.1410  0.7543
  107MOL0     O13993  10.865   6.292   5.410  0.1364  0.2786 -0.1567
  107MOL0     C13994  10.963   6.367   5.386  0.6815  0.2452  0.1014
  107MOL0     O13995  11.067   6.331   5.307 -0.2920 -0.4686 -0.5301
  107MOL0     C13996  11.095   6.201   5.281 -0.2486 -0.0473  0.1022
  107MOL0     C13997  11.044   6.082   5.332 -0.8104  0.2134 -0.9663
  107MOL0     C13998  11.095   5.953   5.312 -0.3728 -0.0972 -0.0310
  107MOL0     C13999  11.203   5.941   5.219 -0.2050 -0.0310  0.7089
  107MOL0     O14000  11.288   5.837   5.204  0.9278  0.3425  0.3497
  107MOL0     C14001  11.273   5.728   5.294  0.1074 -0.1344 -1.0514
  107MOL0     C14002  11.338   5.599   5.232 -0.8820 -0.6015  0.8583
  107MOL0     C14003  11.351   5.493   5.348 -1.5854  0.8987  0.3370
  107MOL0     C14004  11.478   5.510   5.437 -0.4040  0.0333 -0.0205
  107MOL0     C14005  11.483   5.412   5.560  0.5660  0.1058  0.4969
  107MOL0     C14006  11.526   5.273   5.517  0.2761  1.0157  0.4994
  107MOL0     C14007  11.528   5.169   5.636  0.0063 -0.4182 -0.4675
  107MOL0     C14008  11.602   5.229   5.749  0.0025  0.0308 -0.8039
  107MOL0     N14009  11.608   5.119   5.849 -0.7917  0.5533  0.0352
  107MOL0     C14010  11.492   5.081   5.912  0.8179 -0.8662  0.1036
  107MOL0     C14011  11.513   4.960   5.952 -0.1612 -0.0983  0.2898
  107MOL0     C14012  11.414   4.872   6.021 -0.4861 -0.0461  0.6264
  107MOL0     C14013  11.485   4.794   6.134 -0.0746 -0.6755 -0.6158
  107MOL0     C14014  11.402   4.689   6.222  0.2014 -0.5725 -0.1124
  107MOL0     C14015  11.368   4.578   6.135  0.3829 -0.0708 -0.2453
  107MOL0     O14016  11.304   4.474   6.209 -0.4178  0.1165  0.3074
  107MOL0     C14017  11.173   4.475   6.232  1.0968  0.7982 -0.3907
  107MOL0     C14018  11.085   4.583   6.247 -0.8625 -0.5249 -0.4553
  107MOL0     C14019  10.946   4.572   6.271  0.1910  0.4891 -0.7543
  107MOL0     C14020  10.885   4.440   6.290 -0.5840 -0.2595  0.4361
  107MOL0     C14021  10.735   4.431   6.317 -1.2290  1.5138  0.3849
  107MOL0     O14022  10.690   4.304   6.338  0.6541 -0.1471  0.2693
  107MOL0     C14023  10.557   4.282   6.374  0.3805  0.2243 -0.6266
  107MOL0     C14024  10.510   4.258   6.501  0.4910 -0.1442 -0.3262
  107MOL0     C14025  10.378   4.229   6.514 -0.1631 -0.2561 -0.5669
  107MOL0     C14026  10.287   4.196   6.410 -0.8285  0.5204  1.0562
  107MOL0     O14027  10.160   4.151   6.442 -0.0696 -0.1484  0.2185
  107MOL0     C14028  10.078   4.069   6.362  0.3319 -0.2513 -0.8241
  107MOL0     C14029   9.939   4.081   6.421  0.4167  1.3200 -0.6074
  107MOL0     C14030   9.848   4.176   6.349 -0.3942 -0.4325  0.5771
  107MOL0     C14031   9.905   4.316   6.367 -0.3256  0.4216  0.4142
  107MOL0     C14032   9.807   4.429   6.321 -0.0393  0.5559  0.4263
  107MOL0     C14033   9.696   4.449   6.428  0.2009 -0.5003 -1.0446
  107MOL0     C14034   9.735   4.536   6.555 -0.4848  0.1528  0.6076
  107MOL0     C14035   9.724   4.685   6.539  0.3773 -0.3195 -0.1674
  107MOL0    Cl14036   9.545   4.721   6.514  0.1284 -0.3550 -0.0466
  107MOL0     C14037  10.347   4.203   6.284  0.2637  0.4240 -0.2377
  107MOL0     C14038  10.478   4.248   6.267  0.4835 -0.2808  0.1254
  107MOL0     O14039  10.680   4.537   6.341  0.4020  0.8955  0.3010
  107MOL0     C14040  10.972   4.329   6.288 -0.0821  0.3319 -0.7660
  107MOL0     C14041  11.113   4.353   6.259 -0.3532 -0.3804 -0.1761
  107MOL0     N14042  11.637   4.921   5.908  0.8448  0.3979  0.1834
  107MOL0     N14043  11.695   5.015   5.843 -0.0134 -0.1002  0.2194
  107MOL0     C14044  11.253   6.057   5.166 -0.5468  0.4387 -0.4151
  107MOL0     C14045  11.195   6.188   5.176 -0.7459  0.4895 -0.2558
  107MOL0     C14046  10.956   6.502   5.432  0.3490 -0.4049  0.6601
  107MOL0     C14047  10.840   6.579   5.425  0.3090  0.6191 -0.1182
  107MOL0     C14048  10.841   6.709   5.471 -0.0923 -0.8494 -0.4662
  107MOL0     C14049  10.959   6.768   5.514 -0.6532 -0.6922 -0.0152
  107MOL0     O14050  10.949   6.899   5.549  0.0835 -0.2873  0.1514
  107MOL0     C14051  11.060   6.955   5.611 -0.5097  0.9322  0.3969
  107MOL0     C14052  11.010   7.082   5.671  0.9502 -0.7346 -0.5485
  107MOL0     C14053  10.927   7.049   5.796 -0.9202  0.4863  0.2637
  107MOL0     C14054  10.846   7.171   5.852 -0.0600  0.0224 -0.2368
  107MOL0     C14055  10.747   7.213   5.754  0.1843  0.4218 -0.3202
  107MOL0     C14056  10.655   7.252   5.682 -0.1985 -0.4805 -0.4337
  107MOL0     C14057  11.075   6.694   5.526 -0.7256 -0.8129  0.7041
  107MOL0     C14058  11.074   6.564   5.479 -0.0751 -0.5281  0.1666
  107MOL0     H14059  10.965   6.084   5.406  0.5352 -0.3535  0.5317
  107MOL0     H14060  11.075   5.868   5.377 -2.5908  0.2602 -0.1758
  107MOL0     H14061  11.169   5.697   5.310 -0.2161  0.4595 -1.9408
  107MOL0     H14062  11.323   5.757   5.387  1.7509  0.4560 -2.0859
  107MOL0     H14063  11.432   5.633   5.188 -1.6060  0.7022  0.2841
  107MOL0     H14064  11.273   5.555   5.156 -1.5566  1.3208  0.2775
  107MOL0     H14065  11.373   5.397   5.301  2.3410  0.9207  1.8183
  107MOL0     H14066  11.268   5.506   5.419 -2.8236 -3.6270  0.0568
  107MOL0     H14067  11.566   5.506   5.372 -0.6007 -1.3903 -0.2330
  107MOL0     H14068  11.476   5.605   5.492  2.4701 -0.1185  0.5113
  107MOL0     H14069  11.391   5.414   5.619  1.1880 -2.0927  1.6263
  107MOL0     H14070  11.562   5.454   5.623  1.6117  1.7588 -1.8000
  107MOL0     H14071  11.612   5.273   5.449  0.2161  5.0919  0.1996
  107MOL0     H14072  11.448   5.229   5.454  0.4456  1.3748  0.0351
  107MOL0     H14073  11.426   5.152   5.671 -0.3106 -3.5216 -2.4405
  107MOL0     H14074  11.571   5.071   5.611  5.7865  1.9901 -1.6938
  107MOL0     H14075  11.543   5.313   5.787 -1.3258 -0.5788 -1.4723
  107MOL0     H14076  11.704   5.259   5.724  2.6780 -6.8146 -0.1358
  107MOL0     H14077  11.402   5.142   5.911  2.7655  2.2815 -2.7263
  107MOL0     H14078  11.360   4.804   5.955 -0.3470 -0.6934  1.1674
  107MOL0     H14079  11.339   4.932   6.072 -0.3908  2.0020 -1.5089
  107MOL0     H14080  11.525   4.873   6.198 -0.2676 -1.3480  0.3676
  107MOL0     H14081  11.575   4.740   6.104  1.1530  0.5444  0.6960
  107MOL0     H14082  11.465   4.657   6.306 -0.8537  0.9503  1.3312
  107MOL0     H14083  11.305   4.727   6.258 -0.1587 -2.1498  0.6551
  107MOL0     H14084  11.461   4.537   6.094  0.6949  1.3846 -1.0532
  107MOL0     H14085  11.309   4.609   6.049  2.0870  2.7898 -0.4971
  107MOL0     H14086  11.113   4.685   6.222  1.1030 -0.1979  2.5021
  107MOL0     H14087  10.880   4.658   6.269  0.1174  0.5100  1.3124
  107MOL0     H14088  10.569   4.267   6.592  0.9684 -2.6583 -0.3259
  107MOL0     H14089  10.338   4.220   6.614  2.7902  0.7376  0.7943
  107MOL0     H14090  10.103   3.962   6.367 -0.4737 -0.4003  0.9939
  107MOL0     H14091  10.081   4.106   6.259  2.9846 -2.5282 -1.6958
  107MOL0     H14092   9.938   4.113   6.526 -2.4012  2.0723 -0.7959
  107MOL0     H14093   9.887   3.984   6.418  1.2344  0.8820 -3.2316
  107MOL0     H14094   9.752   4.174   6.402 -0.7065 -2.0529  0.0171
  107MOL0     H14095   9.836   4.140   6.246 -0.4294  0.6071  0.2121
  107MOL0     H14096   9.946   4.335   6.467 -1.3228 -1.2716  1.1962
  107MOL0     H14097   9.979   4.326   6.287  0.2554 -0.6445  0.8003
  107MOL0     H14098   9.762   4.400   6.225 -0.6882  1.2573  0.5076
  107MOL0     H14099   9.870   4.517   6.311  0.0802  0.2809 -1.8575
  107MOL0     H14100   9.643   4.362   6.468  1.1102  0.0232  1.5202
  107MOL0     H14101   9.612   4.504   6.383 -0.7508 -0.5621  0.5705
  107MOL0     H14102   9.686   4.498   6.645  0.3665  1.4126  1.6401
  107MOL0     H14103   9.841   4.515   6.571  0.4215  1.5635 -2.6893
  107MOL0     H14104   9.783   4.727   6.456  0.6956 -0.5128 -0.0418
  107MOL0     H14105   9.739   4.718   6.642  0.1168 -4.4728  1.3786
  107MOL0     H14106  10.271   4.183   6.209  0.1439  4.3468 -1.4014
  107MOL0     H14107  10.504   4.287   6.169 -2.2681  1.4606 -0.0091
  107MOL0     H14108  10.949   4.225   6.306  0.9002  0.6512  3.5206
  107MOL0     H14109  11.177   4.265   6.252 -1.7833 -1.6871  2.0355
  107MOL0     H14110  11.332   6.047   5.092 -2.9618 -0.8897 -3.0419
  107MOL0     H14111  11.235   6.268   5.115  0.4534 -0.9066 -1.3732
  107MOL0     H14112  10.749   6.528   5.395  0.9793 -1.1982  0.7652
  107MOL0     H14113  10.756   6.776   5.468  0.7256  0.5195  2.6953
  107MOL0     H14114  11.144   6.968   5.542  1.0185 -0.9578  1.7711
  107MOL0     H14115  11.095   6.904   5.701 -0.7890  1.6218  0.9049
  107MOL0     H14116  11.101   7.131   5.707  0.6461  0.5511 -1.4743
  107MOL0     H14117  10.954   7.146   5.603 -0.2734 -1.3356 -0.1476
  107MOL0     H14118  10.985   7.009   5.880  0.9649  2.9034  0.2275
  107MOL0     H14119  10.850   6.975   5.772  0.2997 -0.8799  0.3578
  107MOL0     H14120  10.804   7.140   5.948 -0.1754 -1.6462 -0.7985
  107MOL0     H14121  10.914   7.251   5.882 -0.8595  0.2295  1.0932
  107MOL0     H14122  10.582   7.292   5.615  1.0207  1.1174 -0.8793
  107MOL0     H14123  11.172   6.737   5.548  0.2481 -3.0665  1.1624
  107MOL0     H14124  11.164   6.505   5.494  1.9931  2.1075 -1.0867
  108MOL0     O14125   1.001   3.292   4.815  0.5082 -0.3506  1.1265
  108MOL0     C14126   1.077   3.199   4.811 -0.0656 -0.8161  0.6006
  108MOL0     O14127   1.217   3.213   4.809  0.3616 -0.3454 -0.3843
  108MOL0     C14128   1.283   3.331   4.824 -0.2442  0.0470  0.4014
  108MOL0     C14129   1.241   3.462   4.805 -0.1045 -0.1589 -0.4159
  108MOL0     C14130   1.337   3.565   4.809  0.0905 -0.0885  0.0835
  108MOL0     C14131   1.469   3.548   4.850  0.4342  1.0092  0.3901
  108MOL0     O14132   1.566   3.647   4.865  0.7665  0.2052  0.0782
  108MOL0     C14133   1.658   3.669   4.757  0.0524  0.3806 -0.0431
  108MOL0     C14134   1.618   3.778   4.657  0.4843 -0.2396  0.1337
  108MOL0     C14135   1.624   3.921   4.722  0.3411  1.1906  0.0770
  108MOL0     C14136   1.770   3.984   4.727  0.5389  0.7651  0.0133
  108MOL0     C14137   1.776   4.095   4.829  0.0977 -0.7786  0.6034
  108MOL0     C14138   1.796   4.049   4.979  0.5256 -0.6138  0.2505
  108MOL0     C14139   1.949   4.012   5.012  0.0009 -0.4504  0.4822
  108MOL0     C14140   1.992   4.002   5.155 -0.2100  0.2821 -0.7338
  108MOL0     N14141   1.879   3.940   5.225  0.0785 -0.3793 -0.0464
  108MOL0     C14142   1.837   3.809   5.238  0.4136 -0.0575 -0.5765
  108MOL0     C14143   1.721   3.813   5.309  0.3264  0.6120  0.0375
  108MOL0     C14144   1.648   3.696   5.357 -0.0673 -0.0156  0.4256
  108MOL0     C14145   1.560   3.610   5.253 -0.6087 -1.6475 -1.2867
  108MOL0     C14146   1.491   3.698   5.150  0.3645 -0.6877 -0.5391
  108MOL0     C14147   1.395   3.807   5.208  0.1202 -0.6735  0.7886
  108MOL0     O14148   1.321   3.758   5.323  0.4776  0.3521 -0.5349
  108MOL0     C14149   1.215   3.678   5.318  0.4732 -0.3816 -0.2257
  108MOL0     C14150   1.137   3.653   5.432 -0.1325 -1.0000 -0.2473
  108MOL0     C14151   1.030   3.563   5.417 -0.2908  0.4016 -0.9625
  108MOL0     C14152   1.007   3.491   5.299 -0.1138  0.0902  0.2808
  108MOL0     C14153   0.888   3.405   5.289  0.6621  0.1082  1.0474
  108MOL0     O14154   0.849   3.350   5.414 -0.3855  0.0423 -0.2221
  108MOL0     C14155   0.771   3.242   5.428  0.1020 -0.3198  0.9648
  108MOL0     C14156   0.664   3.219   5.342  0.2542 -0.2590 -0.2136
  108MOL0     C14157   0.607   3.090   5.343  0.3548 -0.0593  0.2649
  108MOL0     C14158   0.633   2.998   5.447  0.5182 -0.6630  0.6425
  108MOL0     O14159   0.574   2.868   5.454  0.8952  0.2293 -0.7451
  108MOL0     C14160   0.429   2.865   5.437 -0.6340 -0.2536  0.1542
  108MOL0     C14161   0.357   2.742   5.478  1.1138  0.2777 -0.8627
  108MOL0     C14162   0.203   2.764   5.456 -1.1365 -1.1147  0.6441
  108MOL0     C14163   0.117   2.671   5.543 -0.4019  1.1482 -0.6722
  108MOL0     C14164  -0.029   2.655   5.501  0.3980  0.5410 -0.0069
  108MOL0     C14165  -0.116   2.554   5.573  0.8762  0.3146  0.1646
  108MOL0     C14166  -0.267   2.575   5.537 -0.2314  0.3841  0.2633
  108MOL0     C14167  -0.323   2.710   5.579 -0.4978  0.0396  0.3713
  108MOL0    Cl14168  -0.502   2.732   5.576  0.0266 -0.2145  0.4975
  108MOL0     C14169   0.732   3.028   5.539 -0.0815 -0.7174  0.0975
  108MOL0     C14170   0.795   3.147   5.523  0.2736 -0.0138 -0.4405
  108MOL0     O14171   0.846   3.361   5.182  0.8575  0.7299  0.9232
  108MOL0     C14172   1.080   3.522   5.185 -0.9286  0.4040 -1.0179
  108MOL0     C14173   1.184   3.611   5.197 -0.3021 -1.3225  0.3541
  108MOL0     N14174   1.691   3.949   5.337 -0.6966  0.8990  0.6524
  108MOL0     N14175   1.787   4.022   5.281  0.4773  0.0046  0.9903
  108MOL0     C14176   1.514   3.425   4.874  0.1897 -0.6312  0.0695
  108MOL0     C14177   1.424   3.316   4.854 -0.6577 -0.6416 -0.4092
  108MOL0     C14178   1.036   3.060   4.802 -0.2549  0.0688  0.4733
  108MOL0     C14179   1.122   2.945   4.803  0.4644 -0.5388 -0.0275
  108MOL0     C14180   1.067   2.813   4.787  0.1965  0.5275 -0.6155
  108MOL0     C14181   0.927   2.795   4.774  1.4630 -0.0307 -0.2184
  108MOL0     O14182   0.877   2.670   4.770  0.1960  0.4693 -0.2984
  108MOL0     C14183   0.850   2.619   4.904 -0.2191 -0.8930  0.0816
  108MOL0     C14184   0.849   2.471   4.881 -1.5540  0.8985 -0.0378
  108MOL0     C14185   0.832   2.390   5.005  0.3228 -0.1968  0.4372
  108MOL0     C14186   0.875   2.254   4.971 -0.2076  0.5783 -0.2758
  108MOL0     C14187   0.760   2.170   4.932  0.2149 -0.7685 -1.0962
  108MOL0     C14188   0.666   2.098   4.903 -0.6709  0.5586  0.4223
  108MOL0     C14189   0.847   2.910   4.772  0.7868  0.4454 -0.2487
  108MOL0     C14190   0.898   3.037   4.780  0.4058  0.9541 -0.3705
  108MOL0     H14191   1.135   3.483   4.787 -0.9012 -2.7263  0.8658
  108MOL0     H14192   1.311   3.669   4.791 -0.5983 -0.5035 -1.4473
  108MOL0     H14193   1.685   3.573   4.713 -1.3843 -0.0033 -0.1245
  108MOL0     H14194   1.749   3.698   4.811  1.3076 -3.0376 -0.1035
  108MOL0     H14195   1.518   3.749   4.621  0.6111 -0.1283 -0.3183
  108MOL0     H14196   1.687   3.775   4.572  1.0844  2.8959  0.4175
  108MOL0     H14197   1.584   3.925   4.823  0.0970 -1.2611  0.1345
  108MOL0     H14198   1.552   3.971   4.657  0.8700 -2.5451 -3.8807
  108MOL0     H14199   1.847   3.908   4.746  0.5292  1.2659  2.3591
  108MOL0     H14200   1.786   4.033   4.630  3.0707  3.4172  1.5812
  108MOL0     H14201   1.688   4.160   4.828  1.4424  1.1599  1.0731
  108MOL0     H14202   1.858   4.160   4.794 -1.1382 -0.4708 -2.0219
  108MOL0     H14203   1.712   3.982   4.996  0.1992 -0.5131 -0.8674
  108MOL0     H14204   1.783   4.139   5.040  0.2703 -0.5303  0.0705
  108MOL0     H14205   1.965   3.916   4.963 -0.1649 -0.2581  0.0450
  108MOL0     H14206   2.003   4.091   4.958 -1.4388 -0.9248 -1.8013
  108MOL0     H14207   2.005   4.103   5.194 -2.3153 -0.2717  1.6119
  108MOL0     H14208   2.084   3.944   5.165 -1.4061 -1.2791  3.8189
  108MOL0     H14209   1.897   3.728   5.198  0.8163  1.6586 -3.8601
  108MOL0     H14210   1.577   3.754   5.417  2.7816  3.5156  0.7413
  108MOL0     H14211   1.705   3.622   5.414 -1.8552  0.5530  3.1236
  108MOL0     H14212   1.480   3.563   5.311 -2.5903  3.6336  0.8861
  108MOL0     H14213   1.623   3.546   5.191  1.1079  0.1684 -1.4960
  108MOL0     H14214   1.569   3.748   5.092 -0.9586  1.0486 -0.9041
  108MOL0     H14215   1.432   3.628   5.089  3.5446 -5.0424  0.8327
  108MOL0     H14216   1.333   3.844   5.127  1.1118  2.3912  1.3067
  108MOL0     H14217   1.456   3.884   5.255  3.3291 -0.3135 -3.3963
  108MOL0     H14218   1.161   3.715   5.517  2.7946 -1.6330 -0.5199
  108MOL0     H14219   0.961   3.557   5.500 -1.6691  0.1620 -2.0719
  108MOL0     H14220   0.628   3.296   5.274  1.8355  0.8570  0.1661
  108MOL0     H14221   0.533   3.064   5.268  2.7338  0.5068 -2.4790
  108MOL0     H14222   0.413   2.879   5.330  2.3464  1.9947 -0.1338
  108MOL0     H14223   0.390   2.943   5.503  0.3694 -1.7258  2.6491
  108MOL0     H14224   0.373   2.736   5.586  2.4991  0.7913 -1.0288
  108MOL0     H14225   0.401   2.656   5.427  0.5125  0.5489 -1.8629
  108MOL0     H14226   0.166   2.770   5.353 -0.9601  2.5870  0.6624
  108MOL0     H14227   0.190   2.869   5.485 -2.6824 -0.7521 -1.1999
  108MOL0     H14228   0.170   2.576   5.547 -2.2260 -0.0445 -2.5873
  108MOL0     H14229   0.126   2.714   5.643  1.9909  0.7811 -0.6827
  108MOL0     H14230  -0.025   2.621   5.397  2.2496  0.1539  0.1613
  108MOL0     H14231  -0.065   2.758   5.497  3.4509  1.6748 -1.1658
  108MOL0     H14232  -0.103   2.561   5.681  0.5127 -2.7777  0.4795
  108MOL0     H14233  -0.091   2.454   5.538 -1.9838 -1.6922  3.2611
  108MOL0     H14234  -0.296   2.563   5.432 -0.6483  1.0145  0.2984
  108MOL0     H14235  -0.332   2.504   5.589 -0.8956  1.3061  0.7340
  108MOL0     H14236  -0.297   2.783   5.502  3.1324 -2.0454 -0.6132
  108MOL0     H14237  -0.292   2.744   5.678  2.3326 -1.3372  0.0501
  108MOL0     H14238   0.776   2.949   5.599  1.0743 -1.2555 -1.4225
  108MOL0     H14239   0.873   3.179   5.592  0.3052 -0.6192 -0.1939
  108MOL0     H14240   1.055   3.472   5.092  0.1495 -3.9559  0.7805
  108MOL0     H14241   1.231   3.647   5.106 -2.5279  0.5263 -0.1433
  108MOL0     H14242   1.613   3.413   4.916  1.2343  0.6803 -1.8312
  108MOL0     H14243   1.473   3.224   4.885  1.5705  1.0359  1.3920
  108MOL0     H14244   1.228   2.951   4.822  0.7153  0.9591 -1.5938
  108MOL0     H14245   1.131   2.725   4.787  0.3906  0.3998  3.9384
  108MOL0     H14246   0.756   2.650   4.950  1.3171  1.6091  1.7474
  108MOL0     H14247   0.934   2.649   4.967  0.6500 -0.5401 -1.1940
  108MOL0     H14248   0.753   2.452   4.832 -1.7352 -1.8064  1.2126
  108MOL0     H14249   0.938   2.453   4.820 -0.6430 -0.1823  1.5527
  108MOL0     H14250   0.728   2.398   5.036  1.3576  3.7132  3.7423
  108MOL0     H14251   0.879   2.440   5.090  0.7666  0.3315 -0.1079
  108MOL0     H14252   0.951   2.246   4.893  0.5829  0.7889  0.4581
  108MOL0     H14253   0.920   2.212   5.062  1.1185  3.7652  0.6937
  108MOL0     H14254   0.586   2.033   4.875 -2.3817  1.3044  3.2249
  108MOL0     H14255   0.739   2.896   4.772  0.2248  2.8243 -4.4974
  108MOL0     H14256   0.831   3.122   4.789  0.2366  0.9431 -1.4739
  109MOL0     O14257  11.217  10.280   7.991  0.5139 -0.1136  0.3569
  109MOL0     C14258  11.327  10.223   8.006 -0.3829  0.1152 -0.4501
  109MOL0     O14259  11.337  10.091   8.048 -0.0482  0.2274  0.1295
  109MOL0     C14260  11.228  10.007   8.046 -0.0662  0.1500  0.1273
  109MOL0     C14261  11.213   9.903   7.957 -0.4241  0.7267 -0.4210
  109MOL0     C14262  11.096   9.819   7.962 -0.5116 -0.7147  0.2998
  109MOL0     C14263  10.990   9.845   8.051 -0.4411  0.3414  0.1220
  109MOL0     O14264  10.888   9.756   8.059 -1.2050 -0.7357  0.0056
  109MOL0     C14265  10.766   9.819   8.105 -0.1026 -0.0032  0.1485
  109MOL0     C14266  10.647   9.734   8.081 -0.2501  0.0220 -0.7442
  109MOL0     C14267  10.607   9.734   7.937  0.0610  0.3837  0.0397
  109MOL0     C14268  10.525   9.603   7.915 -0.3457  0.2972 -0.3762
  109MOL0     C14269  10.422   9.644   7.794 -0.7102 -0.1062  0.7029
  109MOL0     C14270  10.338   9.524   7.752 -0.9388 -0.1998 -0.3279
  109MOL0     C14271  10.258   9.564   7.624  0.3315 -0.0859 -1.2285
  109MOL0     C14272  10.172   9.467   7.556  0.1722 -0.3940 -0.5419
  109MOL0     N14273  10.041   9.447   7.628 -0.4605  0.2045  0.0697
  109MOL0     C14274   9.916   9.432   7.578  0.2591  0.1821  0.7270
  109MOL0     C14275   9.839   9.358   7.666  0.0705  0.0282  0.3304
  109MOL0     C14276   9.695   9.329   7.637 -0.3516  0.4964 -0.7331
  109MOL0     C14277   9.597   9.443   7.678 -0.5016  0.9122 -1.0899
  109MOL0     C14278   9.576   9.450   7.820 -0.0874 -0.5995 -0.2965
  109MOL0     C14279   9.559   9.592   7.869 -1.0315 -0.0093  0.1711
  109MOL0     O14280   9.670   9.676   7.841  0.0089  0.0819  0.6216
  109MOL0     C14281   9.785   9.670   7.911  0.6914 -0.5808 -0.2271
  109MOL0     C14282   9.903   9.712   7.854 -0.7033  0.0573  0.2001
  109MOL0     C14283  10.023   9.717   7.921 -0.3165  0.6075  0.7128
  109MOL0     C14284  10.031   9.669   8.053  0.0264 -0.5128  0.2578
  109MOL0     C14285  10.154   9.684   8.126 -0.1539 -0.1634 -1.1348
  109MOL0     O14286  10.153   9.614   8.247 -0.5928  0.3716  0.0537
  109MOL0     C14287  10.241   9.646   8.341  0.7466  0.3996 -0.0943
  109MOL0     C14288  10.195   9.726   8.447  0.3028 -0.2333  0.4707
  109MOL0     C14289  10.284   9.793   8.532  0.8193  0.7541 -0.1115
  109MOL0     C14290  10.418   9.759   8.526 -0.3740 -0.2385 -0.3173
  109MOL0     O14291  10.505   9.812   8.616  0.4250 -0.3205 -0.0858
  109MOL0     C14292  10.457   9.872   8.738  0.4358  0.1299  0.3200
  109MOL0     C14293  10.566   9.861   8.851  0.1562 -0.7214 -0.4389
  109MOL0     C14294  10.710   9.912   8.811 -0.1351 -0.5214 -0.0787
  109MOL0     C14295  10.793   9.953   8.936  0.1783  0.2648 -0.6236
  109MOL0     C14296  10.921  10.017   8.904 -1.0496 -1.0007  0.0607
  109MOL0     C14297  11.020  10.030   9.021 -0.4591  0.1273 -1.4471
  109MOL0     C14298  11.160  10.073   8.990  0.6417 -0.2974  1.1169
  109MOL0     C14299  11.169  10.194   8.909  0.0555 -0.0401  0.0216
  109MOL0    Cl14300  11.334  10.237   8.913 -0.1580 -0.4747  0.1145
  109MOL0     C14301  10.469   9.668   8.443 -0.3942 -0.3020  1.3796
  109MOL0     C14302  10.380   9.611   8.347  0.3278  0.6656  0.4151
  109MOL0     O14303  10.236   9.759   8.090 -0.1236 -0.2342  0.9109
  109MOL0     C14304   9.915   9.603   8.111 -0.0854 -0.4103  0.3598
  109MOL0     C14305   9.793   9.620   8.040 -0.4508  0.4609  0.4157
  109MOL0     N14306   9.927   9.341   7.778  0.2689 -0.5439 -0.6345
  109MOL0     N14307  10.044   9.379   7.749 -0.4684  0.1026  0.3570
  109MOL0     C14308  11.009   9.958   8.136  1.6627  0.0518 -0.7456
  109MOL0     C14309  11.127  10.032   8.141  0.3807  0.1388  0.0659
  109MOL0     C14310  11.451  10.302   8.002 -0.4957  0.2030 -0.3225
  109MOL0     C14311  11.578  10.237   7.979  0.2296 -0.6166  0.2321
  109MOL0     C14312  11.697  10.313   7.968 -0.0490 -0.0977  0.3355
  109MOL0     C14313  11.696  10.448   7.976  0.2274  0.7714  0.5844
  109MOL0     O14314  11.816  10.504   7.988  0.3423 -1.2318  0.3835
  109MOL0     C14315  11.840  10.616   8.076  0.8803  1.3970 -0.0844
  109MOL0     C14316  11.983  10.668   8.057  0.2411  0.3537 -0.7869
  109MOL0     C14317  11.988  10.742   7.928  0.4476  0.0026 -0.0790
  109MOL0     C14318  12.123  10.751   7.860 -0.5157 -0.1722 -0.7629
  109MOL0     C14319  12.213  10.846   7.920  0.0273  0.6360  0.5423
  109MOL0     C14320  12.286  10.907   7.991 -0.6249 -0.0394  0.0908
  109MOL0     C14321  11.574  10.515   8.002 -0.3555  0.1185  0.5255
  109MOL0     C14322  11.448  10.443   8.007  0.4409  0.3412 -0.7279
  109MOL0     H14323  11.284   9.897   7.875 -0.8886  2.8691 -1.0486
  109MOL0     H14324  11.071   9.733   7.900  1.6777 -2.3443  1.5324
  109MOL0     H14325  10.745   9.912   8.052 -1.3048 -0.0452  0.5102
  109MOL0     H14326  10.781   9.842   8.211  4.4262  4.8467 -1.1079
  109MOL0     H14327  10.565   9.771   8.143 -0.6818 -0.8179 -0.8034
  109MOL0     H14328  10.681   9.636   8.115 -2.2263  0.2361  2.2865
  109MOL0     H14329  10.691   9.735   7.868 -1.8857  0.0920 -2.4743
  109MOL0     H14330  10.542   9.821   7.922  0.0572  0.5312  0.8442
  109MOL0     H14331  10.592   9.523   7.881 -1.0120  0.4808 -2.2364
  109MOL0     H14332  10.459   9.578   7.999 -1.6527  2.0554 -0.8172
  109MOL0     H14333  10.478   9.675   7.705  0.5086  1.5182  1.9407
  109MOL0     H14334  10.360   9.723   7.837  1.2021  0.6432  2.2483
  109MOL0     H14335  10.282   9.503   7.844 -1.1968  0.4249 -0.3404
  109MOL0     H14336  10.396   9.434   7.733  0.4736  0.5946  0.1429
  109MOL0     H14337  10.187   9.637   7.663  2.3954  1.3734 -0.0131
  109MOL0     H14338  10.322   9.610   7.549  0.2524 -0.3651 -1.4681
  109MOL0     H14339  10.219   9.368   7.550 -0.6968 -0.8790  0.3825
  109MOL0     H14340  10.140   9.509   7.460 -3.7226  0.7353  1.0567
  109MOL0     H14341   9.870   9.475   7.490 -0.8577 -0.1863  1.1180
  109MOL0     H14342   9.673   9.234   7.685  2.0146  0.3584  0.2078
  109MOL0     H14343   9.683   9.317   7.529 -1.3443  1.3659 -0.7331
  109MOL0     H14344   9.499   9.427   7.631 -1.1674  0.2813  0.4094
  109MOL0     H14345   9.640   9.537   7.642 -2.4285  2.1999 -0.2152
  109MOL0     H14346   9.486   9.400   7.858  0.7236  0.6173  3.5907
  109MOL0     H14347   9.654   9.412   7.886 -4.4437 -1.7072  4.8416
  109MOL0     H14348   9.524   9.590   7.973 -4.2125 -1.6426 -0.7833
  109MOL0     H14349   9.478   9.624   7.803 -0.1803  1.7269 -0.0907
  109MOL0     H14350   9.895   9.755   7.754  1.9463  0.0432 -0.1098
  109MOL0     H14351  10.106   9.766   7.871 -2.1266  2.9490 -0.1708
  109MOL0     H14352  10.096   9.768   8.464  0.1956 -0.9999  1.9270
  109MOL0     H14353  10.235   9.870   8.591 -1.6559 -0.7349 -0.0512
  109MOL0     H14354  10.370   9.818   8.778  2.7232 -3.2294  1.1907
  109MOL0     H14355  10.427   9.977   8.733  0.9818  0.3134  0.7723
  109MOL0     H14356  10.581   9.754   8.867 -0.1452 -0.6357  0.4745
  109MOL0     H14357  10.525   9.915   8.937 -0.5859  1.0881 -1.8632
  109MOL0     H14358  10.704  10.008   8.760  0.9049 -0.4133 -0.0295
  109MOL0     H14359  10.752   9.838   8.741  3.2478  1.3624 -0.2293
  109MOL0     H14360  10.743  10.011   9.014  1.6032  2.3104 -1.1502
  109MOL0     H14361  10.807   9.857   8.986 -0.0391  0.9035  0.7058
  109MOL0     H14362  10.898  10.122   8.882 -0.2484 -0.8973 -0.3434
  109MOL0     H14363  10.964   9.980   8.810 -3.9168  1.6865 -2.5657
  109MOL0     H14364  11.029   9.931   9.067  1.5007  1.0850  0.4623
  109MOL0     H14365  10.986  10.100   9.098  1.0754 -2.9727  2.3654
  109MOL0     H14366  11.207  10.081   9.088  0.4609 -1.7740  1.3420
  109MOL0     H14367  11.224   9.997   8.945  1.2104  0.5136  0.5250
  109MOL0     H14368  11.100  10.261   8.961  1.7933  2.5254 -0.8000
  109MOL0     H14369  11.140  10.178   8.805 -0.6363  0.2130  0.1676
  109MOL0     H14370  10.573   9.638   8.431 -0.3423  0.0642  0.8352
  109MOL0     H14371  10.413   9.537   8.274  0.1860  0.6386  0.3794
  109MOL0     H14372   9.906   9.561   8.210  0.5255  0.2639  0.7058
  109MOL0     H14373   9.704   9.583   8.090 -0.7807  0.0830 -0.4156
  109MOL0     H14374  10.927   9.984   8.204  1.3086  1.6723 -1.7487
  109MOL0     H14375  11.138  10.123   8.199  0.7427  0.6295 -0.7592
  109MOL0     H14376  11.573  10.129   7.971  0.1094 -0.4510 -2.7819
  109MOL0     H14377  11.795  10.267   7.955  1.1066  1.5117  2.6398
  109MOL0     H14378  11.815  10.589   8.180 -3.8248 -0.5913 -1.4686
  109MOL0     H14379  11.769  10.698   8.067 -0.9324 -0.1152 -0.1235
  109MOL0     H14380  12.021  10.728   8.140  1.5688  1.2081 -1.9508
  109MOL0     H14381  12.045  10.579   8.048 -0.7927 -0.4753  0.1017
  109MOL0     H14382  11.943  10.841   7.928  1.0096  0.2608 -0.1669
  109MOL0     H14383  11.932  10.689   7.851  1.4683  1.6989 -2.0814
  109MOL0     H14384  12.165  10.651   7.875 -0.0268  0.2452  0.8972
  109MOL0     H14385  12.115  10.779   7.754 -0.0374  1.3373 -0.4334
  109MOL0     H14386  12.360  10.951   8.054  1.3952 -2.7607 -0.2084
  109MOL0     H14387  11.576  10.623   8.014  0.4613  0.4819 -2.1390
  109MOL0     H14388  11.352  10.491   8.019  0.9032  1.2206 -0.4542
  110MOL0     O14389   7.353   3.289   1.104  0.2853 -0.2049  0.2263
  110MOL0     C14390   7.388   3.168   1.106 -0.1885 -0.5844 -0.4861
  110MOL0     O14391   7.320   3.074   1.173  0.7295 -0.3205 -0.4611
  110MOL0     C14392   7.203   3.103   1.232  0.4872  0.4684 -0.7521
  110MOL0     C14393   7.117   2.997   1.226  0.4814 -0.2724  0.5352
  110MOL0     C14394   6.991   3.005   1.296 -0.5306 -0.9226  0.0159
  110MOL0     C14395   6.953   3.125   1.366 -1.2361  0.1159 -0.3619
  110MOL0     O14396   6.842   3.130   1.443 -0.5251  0.5177 -0.5665
  110MOL0     C14397   6.746   3.025   1.433 -1.1740  0.2579 -1.0798
  110MOL0     C14398   6.629   3.042   1.532 -0.0174 -0.3227 -0.3661
  110MOL0     C14399   6.659   3.049   1.677  0.2766 -0.1172 -0.0956
  110MOL0     C14400   6.560   3.129   1.754  0.1319 -0.2322  1.0429
  110MOL0     C14401   6.605   3.140   1.892 -0.7929 -0.1477 -0.3601
  110MOL0     C14402   6.507   3.228   1.980 -0.2927 -1.6112  0.5707
  110MOL0     C14403   6.564   3.249   2.122  0.2806 -0.2788  0.5704
  110MOL0     C14404   6.674   3.359   2.119  0.4044 -0.0758 -0.2164
  110MOL0     N14405   6.656   3.480   2.195  1.0021 -1.3079 -0.4715
  110MOL0     C14406   6.629   3.606   2.147 -0.5163  0.8288  0.2401
  110MOL0     C14407   6.635   3.688   2.256 -0.7926 -0.2380 -0.5380
  110MOL0     C14408   6.625   3.839   2.246  0.1555  0.0578  0.7955
  110MOL0     C14409   6.509   3.895   2.330 -0.6992  0.1337  0.8542
  110MOL0     C14410   6.497   4.042   2.317 -0.4120  0.1443  0.9912
  110MOL0     C14411   6.487   4.111   2.451 -0.0614 -0.3502  0.2558
  110MOL0     O14412   6.491   4.247   2.416  0.0842 -0.7125  0.1047
  110MOL0     C14413   6.493   4.321   2.527 -0.4458  0.2103 -0.3353
  110MOL0     C14414   6.375   4.379   2.573  0.2676  0.5094  0.9725
  110MOL0     C14415   6.379   4.444   2.691  0.7201 -0.6592 -0.1361
  110MOL0     C14416   6.493   4.484   2.751  1.0856 -0.3365 -0.0278
  110MOL0     C14417   6.499   4.587   2.852  0.2728 -0.5419 -0.0578
  110MOL0     O14418   6.616   4.628   2.910 -0.5802 -0.7692  0.9588
  110MOL0     C14419   6.620   4.696   3.029  0.5762  0.4462 -0.2516
  110MOL0     C14420   6.583   4.833   3.020  0.6652 -0.1493 -0.1280
  110MOL0     C14421   6.593   4.913   3.133 -0.0718 -1.1271 -0.0786
  110MOL0     C14422   6.614   4.858   3.258  0.1362 -0.1981  0.1625
  110MOL0     O14423   6.602   4.927   3.377 -0.6928 -0.5245 -0.2754
  110MOL0     C14424   6.517   5.041   3.385 -0.2738 -0.7985 -0.5890
  110MOL0     C14425   6.373   5.019   3.351  0.2429 -0.1451  0.6410
  110MOL0     C14426   6.299   5.147   3.311 -0.1966 -0.1868  0.0684
  110MOL0     C14427   6.279   5.248   3.426 -0.6753  0.5476 -0.6942
  110MOL0     C14428   6.189   5.369   3.385  0.0560 -0.2503 -0.1223
  110MOL0     C14429   6.239   5.451   3.272  0.2248  0.5660  0.4204
  110MOL0     C14430   6.143   5.572   3.250  0.9065 -0.0310 -0.2776
  110MOL0     C14431   6.213   5.678   3.155  0.0070  0.6611 -0.5675
  110MOL0    Cl14432   6.369   5.760   3.218  0.0855  0.6555 -0.3160
  110MOL0     C14433   6.651   4.728   3.269  0.8488  0.3255  1.2075
  110MOL0     C14434   6.658   4.645   3.154 -0.4400  0.3851 -0.2325
  110MOL0     O14435   6.392   4.628   2.897 -0.2802 -0.3465 -0.3514
  110MOL0     C14436   6.615   4.414   2.713  0.0768  0.4678 -0.5861
  110MOL0     C14437   6.616   4.336   2.598 -0.0026 -0.0964 -0.5562
  110MOL0     N14438   6.662   3.618   2.370  0.1808 -0.1724 -0.0439
  110MOL0     N14439   6.670   3.492   2.336 -0.2764 -0.4852  0.0282
  110MOL0     C14440   7.042   3.233   1.368  0.4049  0.7557 -0.6417
  110MOL0     C14441   7.171   3.222   1.308  0.4107  0.3453 -0.3742
  110MOL0     C14442   7.491   3.122   1.011 -0.4292 -0.0660  0.0037
  110MOL0     C14443   7.547   3.208   0.911 -0.4297 -0.3987 -0.3676
  110MOL0     C14444   7.649   3.168   0.825  1.1955  0.4966  0.6821
  110MOL0     C14445   7.687   3.038   0.820 -0.6743  0.8657  0.0257
  110MOL0     O14446   7.797   3.010   0.731  0.2985 -0.7526 -0.0575
  110MOL0     C14447   7.876   2.900   0.768  0.1066  0.9522  0.8461
  110MOL0     C14448   7.998   2.913   0.678 -0.6420  0.2684  0.7638
  110MOL0     C14449   8.066   3.059   0.681  0.1109  0.3232  1.0088
  110MOL0     C14450   8.180   3.079   0.576  0.4826  0.3074  0.5400
  110MOL0     C14451   8.257   2.954   0.554 -0.7729  0.8663 -0.4917
  110MOL0     C14452   8.316   2.843   0.547 -0.4878  0.0335  0.7406
  110MOL0     C14453   7.622   2.946   0.906 -0.3215  0.6807 -0.6617
  110MOL0     C14454   7.533   2.990   1.000  0.0552  0.3194 -0.0442
  110MOL0     H14455   7.169   2.914   1.178  2.4570  1.1076  0.1714
  110MOL0     H14456   6.937   2.911   1.288  1.1630 -1.8527 -0.9147
  110MOL0     H14457   6.792   2.933   1.469 -0.4173  0.8844 -0.4224
  110MOL0     H14458   6.708   3.004   1.332 -0.0291 -1.6314 -1.1539
  110MOL0     H14459   6.563   2.956   1.515  0.3376 -0.4943 -0.8950
  110MOL0     H14460   6.578   3.133   1.500 -2.5204 -2.1361 -1.9023
  110MOL0     H14461   6.757   3.098   1.680  1.6494 -2.7166  1.0678
  110MOL0     H14462   6.664   2.949   1.719 -2.7364 -0.3214 -0.0266
  110MOL0     H14463   6.543   3.229   1.712  1.4749  0.4963  2.1784
  110MOL0     H14464   6.458   3.090   1.748 -0.2086  0.7532 -0.0013
  110MOL0     H14465   6.706   3.181   1.894  0.1703 -2.3765 -0.1861
  110MOL0     H14466   6.608   3.040   1.937  1.2528 -0.2024 -0.5455
  110MOL0     H14467   6.410   3.179   1.989 -0.6222 -1.0523  0.0286
  110MOL0     H14468   6.494   3.327   1.936  0.7114 -0.5293  2.5629
  110MOL0     H14469   6.482   3.285   2.184 -1.7602 -0.6985 -1.7545
  110MOL0     H14470   6.589   3.157   2.175 -3.4432 -2.1818 -0.6290
  110MOL0     H14471   6.692   3.384   2.014  2.7357 -0.4248  0.0485
  110MOL0     H14472   6.762   3.316   2.168  1.0125  0.2540 -0.9936
  110MOL0     H14473   6.609   3.621   2.041  4.0249 -0.7994 -1.1032
  110MOL0     H14474   6.605   3.860   2.141  0.8465  2.0290  1.0352
  110MOL0     H14475   6.716   3.890   2.279  0.6173 -0.6808  0.7019
  110MOL0     H14476   6.531   3.872   2.435 -0.4732 -0.7500  0.6215
  110MOL0     H14477   6.410   3.852   2.313 -0.1710 -0.5052 -0.8028
  110MOL0     H14478   6.577   4.073   2.249 -0.7505 -1.4108 -0.1546
  110MOL0     H14479   6.412   4.064   2.252 -0.9595 -2.3185  0.7756
  110MOL0     H14480   6.574   4.083   2.512  1.6252  1.2321 -1.3162
  110MOL0     H14481   6.394   4.080   2.499  0.5888 -0.4432  1.4885
  110MOL0     H14482   6.279   4.361   2.524  0.5062  0.4397  0.5238
  110MOL0     H14483   6.282   4.481   2.723 -0.4823 -3.6328  0.0494
  110MOL0     H14484   6.552   4.878   2.926  1.0999  0.8362  0.1962
  110MOL0     H14485   6.564   5.017   3.137  3.6451  0.1060 -1.0470
  110MOL0     H14486   6.554   5.122   3.321  2.2725 -1.8991 -0.6246
  110MOL0     H14487   6.522   5.076   3.489 -2.5127  2.4265 -1.4096
  110MOL0     H14488   6.325   4.958   3.428 -1.7283  1.6496  0.9415
  110MOL0     H14489   6.378   4.950   3.266  0.3352 -0.1251  0.6296
  110MOL0     H14490   6.202   5.125   3.264  0.0068  2.8627 -2.0409
  110MOL0     H14491   6.362   5.207   3.245  0.1509  1.0715  1.4968
  110MOL0     H14492   6.237   5.197   3.513  3.7287 -1.4353  0.5438
  110MOL0     H14493   6.376   5.280   3.465 -1.5826  3.7894 -0.8018
  110MOL0     H14494   6.167   5.429   3.474  1.4292 -0.7913  0.6096
  110MOL0     H14495   6.099   5.317   3.350 -0.6396 -0.5129  1.8951
  110MOL0     H14496   6.254   5.384   3.186  0.7535 -0.6763  1.4336
  110MOL0     H14497   6.342   5.487   3.280 -0.1473  2.9753 -3.4281
  110MOL0     H14498   6.046   5.544   3.208  0.1973 -0.1546  1.3345
  110MOL0     H14499   6.115   5.614   3.347 -2.6634 -3.0808  0.2606
  110MOL0     H14500   6.139   5.757   3.142  1.4480  2.0821 -0.4785
  110MOL0     H14501   6.213   5.630   3.057 -6.3590 -3.6027  0.8884
  110MOL0     H14502   6.672   4.684   3.366  2.0519 -1.7556  0.0846
  110MOL0     H14503   6.684   4.541   3.171  0.2156  0.7654  1.2028
  110MOL0     H14504   6.708   4.431   2.766  0.1432  0.8285 -0.8154
  110MOL0     H14505   6.706   4.288   2.560 -0.7081 -3.3259  1.4042
  110MOL0     H14506   7.022   3.319   1.432 -0.4112 -1.2703  1.9860
  110MOL0     H14507   7.236   3.307   1.325 -0.3304  1.4274 -2.6315
  110MOL0     H14508   7.511   3.310   0.922 -3.0426 -1.4679  2.6887
  110MOL0     H14509   7.684   3.235   0.747 -1.1000 -1.2358 -2.0133
  110MOL0     H14510   7.831   2.802   0.750 -1.1547  2.0336 -2.8786
  110MOL0     H14511   7.916   2.906   0.869  0.0767 -1.7033  1.0858
  110MOL0     H14512   8.069   2.834   0.707 -0.6451  0.2549  0.7358
  110MOL0     H14513   7.979   2.889   0.573  1.2730  1.4992  0.0659
  110MOL0     H14514   8.111   3.087   0.777  1.3454  2.2848 -0.0591
  110MOL0     H14515   7.987   3.131   0.659 -0.2754 -0.3258  0.1902
  110MOL0     H14516   8.147   3.115   0.478 -0.1399  0.2221  0.7130
  110MOL0     H14517   8.252   3.151   0.614  2.0118 -1.2855  0.8209
  110MOL0     H14518   8.358   2.745   0.534 -0.5596  0.1875 -0.8400
  110MOL0     H14519   7.651   2.841   0.904 -2.8224 -0.1668 -4.8665
  110MOL0     H14520   7.489   2.919   1.069 -0.4869 -0.1229 -0.8393
  111MOL0     O14521   6.152   7.175   5.124 -0.4928  0.7083 -0.4513
  111MOL0     C14522   6.261   7.215   5.084  0.2972 -0.3836  0.1386
  111MOL0     O14523   6.277   7.313   4.985 -0.9557  0.7557 -0.6973
  111MOL0     C14524   6.168   7.383   4.947 -0.1545 -0.2147  0.4111
  111MOL0     C14525   6.091   7.479   5.013 -0.3359  0.5315 -0.1702
  111MOL0     C14526   5.972   7.519   4.963 -0.2485 -0.7623 -0.2289
  111MOL0     C14527   5.924   7.479   4.845 -0.2505 -0.0775  0.4018
  111MOL0     O14528   5.819   7.545   4.800  0.4159  0.0611 -0.1695
  111MOL0     C14529   5.700   7.457   4.800  0.0167 -1.1217  1.2417
  111MOL0     C14530   5.578   7.548   4.796 -0.1908 -1.0000  0.1078
  111MOL0     C14531   5.454   7.473   4.757  0.0738 -0.6877 -0.7199
  111MOL0     C14532   5.343   7.582   4.749 -0.2028 -0.2991 -0.3627
  111MOL0     C14533   5.208   7.532   4.712 -0.0711  0.4639  0.8420
  111MOL0     C14534   5.160   7.425   4.816  0.3022  0.0616 -0.1545
  111MOL0     C14535   5.008   7.379   4.797 -0.2205 -0.0961  0.0095
  111MOL0     C14536   4.999   7.284   4.677  0.5172 -0.1968 -0.9601
  111MOL0     N14537   4.857   7.246   4.649 -0.0366  0.0879 -0.3521
  111MOL0     C14538   4.767   7.304   4.564  0.3821  0.3278 -1.2422
  111MOL0     C14539   4.676   7.210   4.549  0.8747 -0.2486 -0.6887
  111MOL0     C14540   4.569   7.213   4.434  1.0840  0.3205  0.3273
  111MOL0     C14541   4.421   7.185   4.466 -0.8922 -1.2029 -0.4699
  111MOL0     C14542   4.402   7.077   4.573  0.0267  0.7416 -0.4475
  111MOL0     C14543   4.251   7.035   4.593 -0.9247  0.1370  0.6873
  111MOL0     O14544   4.173   7.148   4.623  0.0929  0.6186  0.5536
  111MOL0     C14545   4.184   7.187   4.758 -0.2240 -0.6407  0.7322
  111MOL0     C14546   4.211   7.320   4.781  1.2242 -0.1603 -1.1499
  111MOL0     C14547   4.227   7.362   4.914 -1.1307 -0.2041 -0.4793
  111MOL0     C14548   4.229   7.268   5.024  0.1660  0.6435  0.1689
  111MOL0     C14549   4.256   7.310   5.162 -0.0999  0.3726 -0.5675
  111MOL0     O14550   4.329   7.418   5.174  0.4907  0.1348  0.2973
  111MOL0     C14551   4.343   7.465   5.299  0.3485  0.2169 -0.3596
  111MOL0     C14552   4.267   7.568   5.349 -0.7048  0.1932  1.1108
  111MOL0     C14553   4.300   7.628   5.466  0.0169 -0.6561  0.0081
  111MOL0     C14554   4.401   7.578   5.553  1.0857 -0.2513 -0.4680
  111MOL0     O14555   4.425   7.638   5.679 -0.4695  0.3741  0.4035
  111MOL0     C14556   4.512   7.565   5.762  0.2515 -1.1646 -0.0659
  111MOL0     C14557   4.510   7.644   5.892 -0.9865 -0.8888  0.2395
  111MOL0     C14558   4.626   7.631   5.987 -0.4146 -1.0369 -0.3993
  111MOL0     C14559   4.753   7.706   5.940  0.1669 -0.1328 -0.2728
  111MOL0     C14560   4.727   7.861   5.937 -0.0915  0.1087 -0.0855
  111MOL0     C14561   4.652   7.919   6.057  0.2906 -0.6782  0.2755
  111MOL0     C14562   4.656   8.077   6.047 -0.4205 -0.8361  0.0935
  111MOL0     C14563   4.528   8.124   6.117 -0.7397  0.6500 -0.1772
  111MOL0    Cl14564   4.557   8.121   6.288  0.5939 -0.3661 -0.1665
  111MOL0     C14565   4.482   7.476   5.498 -0.4034 -0.5431  0.5236
  111MOL0     C14566   4.447   7.421   5.371 -0.0850 -0.5838 -0.3477
  111MOL0     O14567   4.219   7.236   5.251  0.0115 -0.6528  0.2370
  111MOL0     C14568   4.194   7.137   4.995  0.2353  0.6812 -0.2806
  111MOL0     C14569   4.177   7.094   4.864 -0.5789  0.3434 -0.1345
  111MOL0     N14570   4.702   7.098   4.627  0.2108 -0.3334  0.2988
  111MOL0     N14571   4.805   7.128   4.691 -0.3308  0.6963  0.9984
  111MOL0     C14572   6.003   7.403   4.756 -0.8633  0.3803 -0.5002
  111MOL0     C14573   6.127   7.348   4.815  1.0551 -0.6260  1.1198
  111MOL0     C14574   6.380   7.139   5.131  0.6754  0.2877  0.4641
  111MOL0     C14575   6.505   7.164   5.079 -0.4484  0.1060 -0.1618
  111MOL0     C14576   6.611   7.092   5.122  0.7848 -0.4951 -0.5393
  111MOL0     C14577   6.591   6.996   5.221  0.1582 -0.1482  0.0358
  111MOL0     O14578   6.703   6.940   5.263  0.0625  0.0205 -0.2253
  111MOL0     C14579   6.708   6.799   5.295 -0.2822 -0.2204 -0.2922
  111MOL0     C14580   6.829   6.748   5.370 -0.0665 -0.2690  0.2957
  111MOL0     C14581   6.820   6.777   5.525  0.0819 -1.3908  0.1052
  111MOL0     C14582   6.722   6.695   5.607 -0.2006  0.4129  0.0841
  111MOL0     C14583   6.793   6.577   5.646  1.6538  0.1752 -0.4863
  111MOL0     C14584   6.849   6.477   5.672  0.2545 -0.0942  0.3933
  111MOL0     C14585   6.467   6.968   5.281 -0.3118 -0.1007 -0.9686
  111MOL0     C14586   6.358   7.037   5.228  0.3616  0.1994 -0.0451
  111MOL0     H14587   6.125   7.519   5.108  0.7649  3.8185 -1.7877
  111MOL0     H14588   5.915   7.595   5.016 -1.0885 -1.2731 -0.3958
  111MOL0     H14589   5.692   7.420   4.902  0.3944 -4.0892  0.3059
  111MOL0     H14590   5.697   7.380   4.722 -1.0873 -1.6667  1.7939
  111MOL0     H14591   5.608   7.632   4.732  0.8725  0.5383  2.5075
  111MOL0     H14592   5.564   7.583   4.898  0.1024  0.8136 -0.4364
  111MOL0     H14593   5.432   7.397   4.832 -2.3720 -1.2506 -1.8741
  111MOL0     H14594   5.457   7.416   4.663 -2.8414  2.9945 -3.3855
  111MOL0     H14595   5.338   7.647   4.836 -1.7187 -0.1286 -0.5429
  111MOL0     H14596   5.366   7.646   4.664  1.3072 -2.0237 -1.3338
  111MOL0     H14597   5.208   7.485   4.613 -1.6474 -1.0931  1.5167
  111MOL0     H14598   5.134   7.613   4.709 -1.9124 -1.0859  2.0982
  111MOL0     H14599   5.158   7.466   4.917 -1.8627 -1.0884  0.3221
  111MOL0     H14600   5.215   7.330   4.821 -3.4107 -2.1864  1.5946
  111MOL0     H14601   4.977   7.321   4.885 -3.2288 -0.6441 -1.3201
  111MOL0     H14602   4.951   7.469   4.776 -0.7086 -0.4232 -0.0920
  111MOL0     H14603   5.059   7.193   4.682 -1.9349 -1.9296 -1.3182
  111MOL0     H14604   5.018   7.348   4.590 -0.9747  4.0075  1.4916
  111MOL0     H14605   4.788   7.396   4.509  3.7160 -0.3698 -1.3647
  111MOL0     H14606   4.600   7.140   4.359 -0.2044  1.2017 -1.1155
  111MOL0     H14607   4.564   7.308   4.380 -5.7523  1.0790  1.4183
  111MOL0     H14608   4.372   7.153   4.374  0.3511  0.1577 -1.6435
  111MOL0     H14609   4.375   7.275   4.508 -1.0284 -2.0761  1.3494
  111MOL0     H14610   4.462   6.995   4.534 -1.0403 -1.1896  1.7639
  111MOL0     H14611   4.444   7.101   4.671  0.9253 -2.6940  0.1448
  111MOL0     H14612   4.251   6.950   4.662 -0.4939 -1.3821 -1.0908
  111MOL0     H14613   4.213   6.989   4.501 -1.0959  2.9816 -0.7698
  111MOL0     H14614   4.227   7.370   4.686  4.5161 -0.3509 -0.8011
  111MOL0     H14615   4.254   7.465   4.933 -0.2571 -0.8005  1.8153
  111MOL0     H14616   4.193   7.613   5.283  0.0995 -0.7940 -0.5060
  111MOL0     H14617   4.239   7.711   5.503  0.2189 -0.1308 -0.7989
  111MOL0     H14618   4.609   7.574   5.712 -0.2264  2.0071 -0.6180
  111MOL0     H14619   4.485   7.460   5.776 -0.7639 -0.6412  2.5108
  111MOL0     H14620   4.416   7.628   5.946 -2.7553  0.7641 -2.1445
  111MOL0     H14621   4.511   7.747   5.854 -0.4096 -1.0701 -0.2324
  111MOL0     H14622   4.647   7.525   6.005 -1.9017 -1.2509  0.2593
  111MOL0     H14623   4.611   7.672   6.087  1.2874  4.5097 -2.1010
  111MOL0     H14624   4.823   7.685   6.022 -2.6025 -2.8508  1.6090
  111MOL0     H14625   4.781   7.667   5.841 -3.5671  4.6010 -3.6611
  111MOL0     H14626   4.666   7.883   5.849 -1.8225  1.7090  1.4152
  111MOL0     H14627   4.821   7.915   5.923 -1.3765  2.2645 -1.0448
  111MOL0     H14628   4.700   7.889   6.151 -0.2618 -0.7850  0.5235
  111MOL0     H14629   4.547   7.890   6.053  0.2613 -0.4420 -1.6334
  111MOL0     H14630   4.749   8.118   6.087 -1.7458  0.9344  1.5226
  111MOL0     H14631   4.658   8.115   5.945  0.0566  1.0433  0.7620
  111MOL0     H14632   4.437   8.069   6.089 -0.4135  1.1887 -2.3985
  111MOL0     H14633   4.517   8.229   6.089  4.8147  1.3657 -0.6797
  111MOL0     H14634   4.567   7.433   5.551 -0.6546 -4.6496 -1.9783
  111MOL0     H14635   4.503   7.340   5.325  0.2316  0.2640 -1.5137
  111MOL0     H14636   4.191   7.056   5.067  1.8944 -0.2047 -1.1495
  111MOL0     H14637   4.136   6.996   4.841 -2.3624  1.3748 -1.6019
  111MOL0     H14638   5.955   7.377   4.662 -0.3013 -0.9716 -0.4395
  111MOL0     H14639   6.171   7.276   4.747  0.8063 -0.1479  0.4474
  111MOL0     H14640   6.524   7.249   5.013 -1.6086 -0.3830 -1.1660
  111MOL0     H14641   6.710   7.117   5.085 -0.1593  2.3088 -1.4004
  111MOL0     H14642   6.714   6.759   5.193  2.9607  3.1901 -1.6648
  111MOL0     H14643   6.619   6.770   5.350 -1.3114 -1.4469 -2.4607
  111MOL0     H14644   6.839   6.641   5.352  1.9868  0.3601 -3.1243
  111MOL0     H14645   6.924   6.784   5.330 -0.4177  0.3675  0.0120
  111MOL0     H14646   6.782   6.880   5.532  0.1474 -1.3758  0.2358
  111MOL0     H14647   6.922   6.781   5.565  0.6123  2.7522 -1.1825
  111MOL0     H14648   6.686   6.753   5.692  1.2803 -1.9843  2.4904
  111MOL0     H14649   6.631   6.663   5.555 -1.6213  0.7439  2.2544
  111MOL0     H14650   6.897   6.386   5.702  0.3792  0.6293  2.5700
  111MOL0     H14651   6.449   6.905   5.367 -2.1401  2.2893  0.5177
  111MOL0     H14652   6.261   7.011   5.268  0.5685  0.8501  0.8975
  112MOL0     O14653   3.078   8.836   6.083 -0.2263  0.0745 -0.1053
  112MOL0     C14654   3.080   8.920   6.162  0.1400 -0.4747 -0.0861
  112MOL0     O14655   2.975   9.007   6.197  0.0312  0.2634  0.3204
  112MOL0     C14656   2.857   9.021   6.136 -0.3849  0.0484  0.2213
  112MOL0     C14657   2.819   8.976   6.014 -0.3054 -0.0894 -0.5196
  112MOL0     C14658   2.704   9.001   5.945 -0.9213 -0.4239 -0.6395
  112MOL0     C14659   2.602   9.075   6.009 -0.0367  0.4043  0.2248
  112MOL0     O14660   2.485   9.073   5.934  0.5751  1.3191  0.4541
  112MOL0     C14661   2.362   9.100   5.998 -1.2734 -0.1753  0.6340
  112MOL0     C14662   2.256   9.121   5.888 -0.0235 -0.5496 -0.4495
  112MOL0     C14663   2.222   8.990   5.818  0.6703  0.5122  0.6514
  112MOL0     C14664   2.334   8.943   5.721 -0.3697 -0.8083 -1.3054
  112MOL0     C14665   2.277   8.904   5.589  0.0820  0.0239  0.4222
  112MOL0     C14666   2.388   8.901   5.471 -0.0573 -0.0042 -0.3533
  112MOL0     C14667   2.414   9.045   5.431  0.0585  0.7587  1.0250
  112MOL0     C14668   2.494   9.059   5.304 -1.0760 -0.3022  0.6460
  112MOL0     N14669   2.625   8.989   5.305  0.6365  0.3514  0.0169
  112MOL0     C14670   2.754   9.038   5.335  0.1238 -0.9458  0.4365
  112MOL0     C14671   2.840   8.943   5.320  0.3123  0.1695  0.3779
  112MOL0     C14672   2.986   8.948   5.344  0.0582  0.6936 -0.4171
  112MOL0     C14673   3.029   8.984   5.487 -0.0603 -1.1796 -0.4738
  112MOL0     C14674   2.958   8.910   5.604 -0.0750 -0.6898 -0.9636
  112MOL0     C14675   2.965   8.753   5.595 -0.9441  0.5694 -0.1733
  112MOL0     O14676   3.099   8.729   5.538  0.3949 -0.0419  1.2195
  112MOL0     C14677   3.203   8.736   5.623 -0.5002  0.1139 -0.4935
  112MOL0     C14678   3.215   8.692   5.756 -0.4776 -0.1559 -0.3986
  112MOL0     C14679   3.338   8.709   5.832 -0.7673  0.2909  0.3564
  112MOL0     C14680   3.443   8.777   5.776  0.0314 -0.0254 -0.3870
  112MOL0     C14681   3.566   8.814   5.851 -0.2664 -0.7866 -0.8228
  112MOL0     O14682   3.678   8.862   5.778 -0.0050 -0.1101 -0.0398
  112MOL0     C14683   3.790   8.916   5.838  1.0208  0.4463 -0.8104
  112MOL0     C14684   3.841   8.895   5.969 -0.2290 -0.1424  0.8485
  112MOL0     C14685   3.965   8.949   6.008 -0.1143 -0.0054  0.2090
  112MOL0     C14686   4.038   9.038   5.924 -0.1809 -0.4098  0.9655
  112MOL0     O14687   4.156   9.095   5.968  0.6681 -0.4174  0.5283
  112MOL0     C14688   4.222   9.192   5.880 -0.0337 -0.0917  0.1884
  112MOL0     C14689   4.341   9.266   5.946  0.2971 -0.5250  0.0215
  112MOL0     C14690   4.362   9.396   5.866 -0.4575  0.6041  0.1159
  112MOL0     C14691   4.508   9.444   5.858  0.2668  0.5594 -0.1069
  112MOL0     C14692   4.521   9.572   5.770  0.2238  0.2291  0.7823
  112MOL0     C14693   4.653   9.648   5.782 -0.1571  0.6217 -0.4740
  112MOL0     C14694   4.643   9.777   5.696  0.3485  0.9934  0.5789
  112MOL0     C14695   4.776   9.840   5.676  0.1015 -0.9717 -0.3585
  112MOL0    Cl14696   4.758  10.009   5.600  0.5615  0.3571  0.1026
  112MOL0     C14697   3.984   9.055   5.793  0.5400 -0.0612  0.2023
  112MOL0     C14698   3.857   9.009   5.759 -1.0217  0.0169  0.0534
  112MOL0     O14699   3.552   8.805   5.970 -0.1476 -0.4971  0.0619
  112MOL0     C14700   3.433   8.825   5.646 -0.6734  0.5767 -0.3238
  112MOL0     C14701   3.323   8.798   5.571 -0.1005 -0.2246 -0.1366
  112MOL0     N14702   2.766   8.835   5.276  0.2946 -0.1954  0.3894
  112MOL0     N14703   2.642   8.857   5.277 -0.6665 -0.2083 -0.5157
  112MOL0     C14704   2.634   9.130   6.134  0.4936 -0.0016  1.0677
  112MOL0     C14705   2.758   9.101   6.191  0.6389  0.3233  0.7496
  112MOL0     C14706   3.204   8.956   6.229  0.2727  0.1598  0.0447
  112MOL0     C14707   3.320   8.891   6.188  0.6157  0.0793 -0.4350
  112MOL0     C14708   3.442   8.917   6.250 -0.5761  0.9453  0.7962
  112MOL0     C14709   3.452   9.004   6.354  0.1044 -0.9981 -0.8635
  112MOL0     O14710   3.555   9.049   6.429 -0.0265 -0.5423  0.5330
  112MOL0     C14711   3.665   8.955   6.458  0.8995 -0.0273 -0.3533
  112MOL0     C14712   3.764   9.029   6.548 -0.3601  0.8023  0.3235
  112MOL0     C14713   3.885   8.943   6.586  0.4023 -0.0722 -0.0133
  112MOL0     C14714   4.010   9.012   6.645 -0.8490  0.0047  0.0308
  112MOL0     C14715   3.981   9.050   6.783 -0.0481 -0.2777 -0.0035
  112MOL0     C14716   3.964   9.069   6.901  0.1315 -0.0211  0.1958
  112MOL0     C14717   3.330   9.069   6.397 -0.7560  0.2732 -0.2914
  112MOL0     C14718   3.211   9.051   6.333 -0.2006 -0.0238  0.0812
  112MOL0     H14719   2.890   8.910   5.964 -1.1223  0.4196 -2.4414
  112MOL0     H14720   2.670   8.960   5.850 -2.1437  2.4112 -1.5466
  112MOL0     H14721   2.365   9.190   6.060  1.2898 -1.0499  1.9033
  112MOL0     H14722   2.332   9.012   6.056  1.4415  0.0923  2.6528
  112MOL0     H14723   2.296   9.189   5.813  0.0938  0.0547  0.1509
  112MOL0     H14724   2.175   9.175   5.938  1.1557  1.4690 -0.5980
  112MOL0     H14725   2.128   9.001   5.762  1.0412  0.1925 -0.0526
  112MOL0     H14726   2.205   8.906   5.885  3.4025 -3.2940 -2.9173
  112MOL0     H14727   2.421   9.010   5.716  0.1131 -1.4817 -1.9907
  112MOL0     H14728   2.383   8.857   5.767  2.4108  0.6559 -1.3151
  112MOL0     H14729   2.194   8.971   5.566 -1.4916 -1.8323  0.4006
  112MOL0     H14730   2.224   8.808   5.588  1.8498 -0.9911  0.3045
  112MOL0     H14731   2.348   8.859   5.378  0.2385 -1.2208  0.0514
  112MOL0     H14732   2.479   8.847   5.498  0.5869  0.9888 -0.4963
  112MOL0     H14733   2.317   9.091   5.412  1.0222  2.4130 -0.2248
  112MOL0     H14734   2.458   9.097   5.517 -0.5562 -0.0658  1.8503
  112MOL0     H14735   2.530   9.162   5.297 -0.3690 -0.5940 -0.3942
  112MOL0     H14736   2.435   9.045   5.213  3.8143 -1.6001 -2.7545
  112MOL0     H14737   2.772   9.140   5.367 -0.6596  0.7846 -3.8873
  112MOL0     H14738   3.034   9.028   5.287 -1.6021  2.1174  0.0926
  112MOL0     H14739   3.026   8.849   5.323  2.9009  1.9115 -1.2807
  112MOL0     H14740   3.017   9.092   5.499  0.3885 -1.2095  0.3002
  112MOL0     H14741   3.135   8.959   5.496 -0.4247 -2.2477  1.3423
  112MOL0     H14742   2.999   8.940   5.701 -2.0482  1.3176 -0.6924
  112MOL0     H14743   2.854   8.942   5.602 -0.2806 -1.2011  0.4363
  112MOL0     H14744   2.886   8.708   5.535 -1.0562 -1.7298  1.5680
  112MOL0     H14745   2.951   8.703   5.691  0.1963 -0.3602 -0.4609
  112MOL0     H14746   3.129   8.650   5.808  0.3323  0.7318  1.7909
  112MOL0     H14747   3.340   8.671   5.934  1.6208 -0.0431  0.2321
  112MOL0     H14748   3.784   8.837   6.040 -0.1280  0.2487  1.2505
  112MOL0     H14749   4.011   8.944   6.106  3.8603  1.8272 -1.3478
  112MOL0     H14750   4.145   9.263   5.847 -0.7221 -1.2026 -0.6716
  112MOL0     H14751   4.255   9.131   5.796 -0.2351 -2.3937  1.6963
  112MOL0     H14752   4.426   9.198   5.954  1.2300  0.8245  3.8366
  112MOL0     H14753   4.316   9.284   6.051 -1.3531  0.9860 -0.5768
  112MOL0     H14754   4.299   9.459   5.930 -0.4480 -1.0021  1.7973
  112MOL0     H14755   4.324   9.391   5.763 -0.0071  2.5829 -0.1772
  112MOL0     H14756   4.561   9.451   5.953 -1.4615  1.0651  0.8570
  112MOL0     H14757   4.559   9.361   5.809  0.8922 -0.0046  1.4461
  112MOL0     H14758   4.432   9.633   5.788 -0.8074 -0.7279 -0.8562
  112MOL0     H14759   4.504   9.536   5.668 -1.5456  1.6778  0.5097
  112MOL0     H14760   4.735   9.592   5.739 -0.0197  1.3168 -1.1376
  112MOL0     H14761   4.686   9.681   5.881  3.8643  1.2734 -1.8451
  112MOL0     H14762   4.588   9.743   5.608 -0.5894 -0.8024  1.7795
  112MOL0     H14763   4.580   9.851   5.746  1.3741  0.0221  3.5359
  112MOL0     H14764   4.831   9.774   5.608  2.9023 -0.3873  1.1846
  112MOL0     H14765   4.838   9.841   5.766  1.5341 -1.6746 -1.2926
  112MOL0     H14766   4.032   9.123   5.724 -1.0266 -1.3684 -2.3421
  112MOL0     H14767   3.814   9.023   5.661  1.7890  0.0261 -1.2790
  112MOL0     H14768   3.508   8.889   5.601  1.7251 -3.3155 -2.3115
  112MOL0     H14769   3.339   8.825   5.467  4.4989 -0.4014  0.3614
  112MOL0     H14770   2.550   9.168   6.190 -1.2499 -0.4404 -1.1011
  112MOL0     H14771   2.781   9.164   6.276 -6.8975  3.4481  1.3267
  112MOL0     H14772   3.313   8.831   6.097  0.2370  1.3178 -1.2485
  112MOL0     H14773   3.529   8.863   6.212 -3.0233 -3.7790  1.1840
  112MOL0     H14774   3.699   8.925   6.359 -1.8321  0.6546 -1.5998
  112MOL0     H14775   3.624   8.868   6.509 -4.3251  1.0981 -2.0023
  112MOL0     H14776   3.797   9.110   6.482 -1.7061  2.7394  1.9038
  112MOL0     H14777   3.699   9.070   6.626 -2.8541  1.7856 -2.0945
  112MOL0     H14778   3.915   8.902   6.489  0.8655  2.0343 -0.8258
  112MOL0     H14779   3.843   8.864   6.649 -0.0785  1.6545  1.9428
  112MOL0     H14780   4.088   8.937   6.661 -2.5465 -1.1780  4.2255
  112MOL0     H14781   4.043   9.097   6.584 -2.5789  1.5416  1.1200
  112MOL0     H14782   3.948   9.078   7.007 -0.1950  4.3922 -0.0148
  112MOL0     H14783   3.345   9.140   6.478 -2.7786  1.3466 -0.8080
  112MOL0     H14784   3.126   9.110   6.366 -0.8905 -0.2158 -1.2665
  113MOL0     O14785   1.003  10.146  10.034  0.1096  0.3787  0.3564
  113MOL0     C14786   0.948  10.246  10.079  0.2229 -0.3031  0.3497
  113MOL0     O14787   0.821  10.288  10.056 -0.3066 -0.0105  0.2865
  113MOL0     C14788   0.754  10.240   9.939 -0.4477  0.1949 -1.2816
  113MOL0     C14789   0.627  10.182   9.942 -1.0315 -1.3472 -0.3535
  113MOL0     C14790   0.572  10.133   9.835 -0.1888  0.9756  0.8510
  113MOL0     C14791   0.641  10.134   9.717 -0.0549 -0.0618  0.3760
  113MOL0     O14792   0.595  10.059   9.606  0.1959 -0.1171 -0.4120
  113MOL0     C14793   0.685   9.999   9.513  0.8807 -0.3551  1.0238
  113MOL0     C14794   0.640   9.855   9.458 -0.2382 -0.2576 -0.3269
  113MOL0     C14795   0.663   9.742   9.547  1.1541 -0.3878 -1.2374
  113MOL0     C14796   0.642   9.606   9.476  0.0795 -0.3242 -0.0830
  113MOL0     C14797   0.715   9.486   9.551 -0.0644  0.1782 -0.0412
  113MOL0     C14798   0.627   9.362   9.525  0.6656 -0.6427 -0.2727
  113MOL0     C14799   0.686   9.249   9.612  0.0435 -0.0643  0.4067
  113MOL0     C14800   0.614   9.118   9.576  0.6244  0.1973  0.8921
  113MOL0     N14801   0.477   9.120   9.619  0.1875  0.0574  0.0312
  113MOL0     C14802   0.442   9.100   9.753 -0.3676  0.0384  0.5232
  113MOL0     C14803   0.309   9.095   9.755  0.6371  0.9817 -0.8726
  113MOL0     C14804   0.222   9.061   9.871  0.3300  0.5473  0.0054
  113MOL0     C14805   0.145   8.945   9.837 -0.1246  0.4209 -0.3527
  113MOL0     C14806   0.069   8.894   9.960 -0.2009  0.7504  0.1751
  113MOL0     C14807  -0.026   8.793   9.899  0.0766  0.0309 -0.1826
  113MOL0     O14808  -0.081   8.708  10.004  0.7201  0.5159  0.8433
  113MOL0     C14809  -0.120   8.580   9.975  0.0380  0.3311 -0.6451
  113MOL0     C14810  -0.067   8.467  10.043  0.2236  0.0719 -0.4384
  113MOL0     C14811  -0.092   8.333   9.989 -0.1909  0.6022 -0.4521
  113MOL0     C14812  -0.169   8.315   9.875 -0.0234 -0.2035 -0.2009
  113MOL0     C14813  -0.201   8.181   9.830 -0.0467  0.4795  0.3662
  113MOL0     O14814  -0.278   8.167   9.715  0.3503  0.5003 -0.1499
  113MOL0     C14815  -0.283   8.046   9.656 -0.2875 -0.1263 -0.1051
  113MOL0     C14816  -0.391   8.017   9.571  0.1509 -0.5711  0.3072
  113MOL0     C14817  -0.392   7.889   9.501  0.0669 -1.0302 -0.3059
  113MOL0     C14818  -0.288   7.800   9.513 -0.0712 -0.4442 -0.1088
  113MOL0     O14819  -0.296   7.664   9.462 -0.1735  0.0775 -0.2144
  113MOL0     C14820  -0.425   7.588   9.455 -0.7598  0.0502  0.2088
  113MOL0     C14821  -0.476   7.519   9.580 -1.2070 -0.4658  0.6813
  113MOL0     C14822  -0.591   7.590   9.643 -0.2823  0.5875 -0.5074
  113MOL0     C14823  -0.621   7.500   9.769  0.7161  0.2455 -0.4972
  113MOL0     C14824  -0.775   7.517   9.806 -0.8855  0.9635 -0.8172
  113MOL0     C14825  -0.817   7.446   9.934 -0.2372  0.3570 -0.5385
  113MOL0     C14826  -0.952   7.467   9.994  0.1902  0.9077  0.4602
  113MOL0     C14827  -1.053   7.395   9.900  1.2976 -0.2593  0.8549
  113MOL0    Cl14828  -1.204   7.346   9.985 -0.8359  0.3224  0.3536
  113MOL0     C14829  -0.177   7.838   9.583 -0.0378 -0.1190 -0.3333
  113MOL0     C14830  -0.177   7.960   9.649 -0.0180 -0.0239  0.0678
  113MOL0     O14831  -0.145   8.091   9.890  0.1718 -0.0963  0.6630
  113MOL0     C14832  -0.221   8.431   9.807 -0.7494 -0.8269 -0.5570
  113MOL0     C14833  -0.194   8.554   9.857 -0.1214 -0.6919  0.0628
  113MOL0     N14834   0.271   9.134   9.632 -0.3340  0.7195 -0.2404
  113MOL0     N14835   0.370   9.167   9.552 -0.1721  0.7803 -0.9469
  113MOL0     C14836   0.757  10.207   9.703 -0.5654  1.0633  0.5776
  113MOL0     C14837   0.806  10.273   9.817  1.0501 -0.4950  0.0836
  113MOL0     C14838   1.030  10.317  10.167 -0.6515 -0.4438  0.6651
  113MOL0     C14839   1.134  10.258  10.255 -0.0127 -0.6399 -0.3671
  113MOL0     C14840   1.214  10.346  10.338  0.0527  0.7343 -0.1269
  113MOL0     C14841   1.189  10.481  10.339 -0.5824 -0.3047  0.8483
  113MOL0     O14842   1.267  10.553  10.426 -0.5677 -0.1630  0.0396
  113MOL0     C14843   1.198  10.617  10.536 -0.3367 -0.3289  0.2828
  113MOL0     C14844   1.226  10.547  10.663 -1.0135  0.2269 -1.0570
  113MOL0     C14845   1.161  10.410  10.678  0.1081  0.2069  0.6794
  113MOL0     C14846   1.232  10.308  10.776  0.2429  0.1610  0.2571
  113MOL0     C14847   1.341  10.250  10.700  0.0540  0.4169  0.2652
  113MOL0     C14848   1.427  10.204  10.630  0.1884 -1.6471  0.5099
  113MOL0     C14849   1.084  10.539  10.260 -0.4585  0.6114 -0.1902
  113MOL0     C14850   1.016  10.456  10.166  0.3783  0.2211 -1.0601
  113MOL0     H14851   0.580  10.180  10.040 -3.8411  1.4340 -1.4685
  113MOL0     H14852   0.469  10.101   9.839  0.1746 -0.4105 -0.2932
  113MOL0     H14853   0.786   9.983   9.552  1.1577 -2.6238 -0.3964
  113MOL0     H14854   0.692  10.070   9.430  0.3946  2.6285  3.3668
  113MOL0     H14855   0.692   9.839   9.363  0.4325  0.6418 -0.1256
  113MOL0     H14856   0.534   9.858   9.431 -0.4271  1.1060  0.4631
  113MOL0     H14857   0.592   9.758   9.628  2.1685 -0.8881 -0.2174
  113MOL0     H14858   0.762   9.753   9.592  1.3516  0.5539 -1.8694
  113MOL0     H14859   0.535   9.585   9.469 -1.0887  3.8835  1.7345
  113MOL0     H14860   0.686   9.618   9.377 -1.0738 -1.5997 -0.7764
  113MOL0     H14861   0.714   9.528   9.652 -2.4733  3.7207 -1.3170
  113MOL0     H14862   0.811   9.479   9.499  0.3805  0.5742  0.7156
  113MOL0     H14863   0.636   9.329   9.421  1.9436  0.2996 -0.4897
  113MOL0     H14864   0.523   9.391   9.543  0.9736  1.6330 -1.7945
  113MOL0     H14865   0.794   9.248   9.592  0.2360  1.1565  1.2643
  113MOL0     H14866   0.688   9.273   9.719 -2.1317  1.1643  0.2407
  113MOL0     H14867   0.654   9.034   9.634  0.0556  0.8986  2.3684
  113MOL0     H14868   0.625   9.094   9.470 -2.4880 -1.3098  0.7762
  113MOL0     H14869   0.516   9.087   9.832  2.2624  0.3653 -1.7605
  113MOL0     H14870   0.157   9.145   9.896 -1.0930 -1.2210  2.7277
  113MOL0     H14871   0.278   9.036   9.961  1.4091  0.1381 -0.7496
  113MOL0     H14872   0.213   8.868   9.797 -0.1558  0.5761 -0.7088
  113MOL0     H14873   0.072   8.978   9.762 -0.5997 -0.0717 -0.1147
  113MOL0     H14874   0.135   8.845  10.033 -1.2098 -1.0137 -0.0559
  113MOL0     H14875   0.018   8.976  10.011  1.8208  0.9573  2.0204
  113MOL0     H14876   0.027   8.725   9.833 -0.4105 -0.2707 -0.2691
  113MOL0     H14877  -0.101   8.841   9.836  0.2519  0.4328 -0.0850
  113MOL0     H14878  -0.015   8.478  10.138 -0.0933  0.9345 -0.3509
  113MOL0     H14879  -0.051   8.248  10.043 -0.3738 -0.9438 -2.6391
  113MOL0     H14880  -0.471   8.090   9.563 -0.3837 -0.8476  2.4631
  113MOL0     H14881  -0.468   7.858   9.430  1.1820 -1.6238 -1.2738
  113MOL0     H14882  -0.401   7.508   9.384  2.0391  0.0925  0.9854
  113MOL0     H14883  -0.506   7.642   9.404  0.0003  1.5477  0.5235
  113MOL0     H14884  -0.390   7.530   9.647 -0.1860  3.5699 -0.9891
  113MOL0     H14885  -0.494   7.415   9.551 -2.8089  0.4668 -1.9964
  113MOL0     H14886  -0.676   7.594   9.575  0.1129  1.4920 -0.9737
  113MOL0     H14887  -0.566   7.694   9.670 -1.8482  0.7747  0.2874
  113MOL0     H14888  -0.608   7.392   9.756  0.5062  0.4066 -2.2538
  113MOL0     H14889  -0.560   7.534   9.853 -0.6853 -0.7730  0.9998
  113MOL0     H14890  -0.838   7.469   9.731  1.8645 -2.9186 -0.9481
  113MOL0     H14891  -0.791   7.625   9.800  0.3149  1.5225  3.1942
  113MOL0     H14892  -0.762   7.468  10.026  1.2899 -0.4108 -1.2327
  113MOL0     H14893  -0.813   7.339   9.912  0.8168  0.6025 -1.5873
  113MOL0     H14894  -0.957   7.424  10.094 -1.6456 -1.3438 -0.5135
  113MOL0     H14895  -0.993   7.568   9.999 -1.4245  0.2251  1.4919
  113MOL0     H14896  -1.012   7.305   9.854  2.7332  0.6960  0.1907
  113MOL0     H14897  -1.075   7.464   9.818 -0.1073 -0.6140  0.9022
  113MOL0     H14898  -0.089   7.775   9.592 -0.7523 -0.9554  1.3504
  113MOL0     H14899  -0.087   7.985   9.704  1.0717 -1.9688 -0.7476
  113MOL0     H14900  -0.283   8.427   9.718  0.0425  1.1433 -1.2471
  113MOL0     H14901  -0.237   8.637   9.801  0.4848 -1.2064 -1.2212
  113MOL0     H14902   0.801  10.208   9.604 -0.8168  1.5462  0.4685
  113MOL0     H14903   0.893  10.337   9.800  0.7039 -0.5244 -2.0919
  113MOL0     H14904   1.131  10.150  10.254 -0.7903 -0.6182 -0.8696
  113MOL0     H14905   1.285  10.305  10.409 -1.8514 -0.6321  1.0591
  113MOL0     H14906   1.090  10.611  10.516  0.0416 -1.8169 -1.7099
  113MOL0     H14907   1.211  10.725  10.541 -1.4360  0.3245 -5.0735
  113MOL0     H14908   1.334  10.529  10.664 -0.6699  1.3234 -4.7953
  113MOL0     H14909   1.192  10.600  10.753  1.0236 -1.8237  1.0801
  113MOL0     H14910   1.142  10.358  10.583  1.8453  0.9514 -0.1222
  113MOL0     H14911   1.063  10.408  10.726 -0.5194 -1.9691 -0.5821
  113MOL0     H14912   1.274  10.362  10.861 -0.7009  2.1557 -0.4606
  113MOL0     H14913   1.167  10.224  10.802  0.2535 -0.0610 -0.4207
  113MOL0     H14914   1.506  10.160  10.571  0.4741 -0.3296 -0.1148
  113MOL0     H14915   1.075  10.646  10.278  0.3144  0.7463 -0.5821
  113MOL0     H14916   0.941  10.501  10.101  1.0819  1.3993 -1.0719
  114MOL0     O14917  10.714   0.884   5.684 -0.3679  0.6902 -0.3747
  114MOL0     C14918  10.805   0.843   5.610  0.2867 -0.1807 -0.4059
  114MOL0     O14919  10.787   0.749   5.508 -0.1849  0.3474  0.7717
  114MOL0     C14920  10.688   0.658   5.523 -0.4989  0.4626 -0.1905
  114MOL0     C14921  10.555   0.699   5.516  0.6820  0.6431  0.6815
  114MOL0     C14922  10.450   0.606   5.540  0.7956  0.1538  1.2328
  114MOL0     C14923  10.483   0.477   5.575  0.6878  0.8229  0.4539
  114MOL0     O14924  10.382   0.388   5.605  0.3583 -0.0688 -0.5281
  114MOL0     C14925  10.242   0.429   5.605 -0.3241 -0.0637  0.3271
  114MOL0     C14926  10.177   0.412   5.471  0.6246 -0.1463  0.3237
  114MOL0     C14927  10.033   0.365   5.482 -0.4908  0.0858 -0.1668
  114MOL0     C14928   9.981   0.327   5.348  0.5832  0.3066  0.0461
  114MOL0     C14929   9.830   0.290   5.361 -0.2375 -0.0110 -0.0349
  114MOL0     C14930   9.775   0.256   5.224  0.3903  1.4251  0.2142
  114MOL0     C14931   9.623   0.262   5.222  0.3449  0.1771 -0.3408
  114MOL0     C14932   9.559   0.128   5.279 -0.4598 -0.1557 -0.3162
  114MOL0     N14933   9.563   0.023   5.178  0.0534 -0.0812  0.0349
  114MOL0     C14934   9.669  -0.074   5.186  0.2764  0.0383  0.0003
  114MOL0     C14935   9.642  -0.173   5.109 -0.3687  0.0602  0.0213
  114MOL0     C14936   9.739  -0.284   5.082  0.3281 -0.1232 -0.6081
  114MOL0     C14937   9.706  -0.405   5.164  0.1879 -0.3433 -0.2841
  114MOL0     C14938   9.704  -0.384   5.321  0.1932  0.1562 -0.0969
  114MOL0     C14939   9.692  -0.512   5.403  0.3664  0.0963  0.1909
  114MOL0     O14940   9.597  -0.605   5.344  0.2486 -0.0070 -0.0281
  114MOL0     C14941   9.652  -0.734   5.313  1.0600  0.9432  0.1999
  114MOL0     C14942   9.640  -0.794   5.186 -1.0093  0.0241  0.7695
  114MOL0     C14943   9.683  -0.915   5.152  0.3476 -0.0930  0.0346
  114MOL0     C14944   9.757  -0.991   5.247  0.2275 -0.4485  0.0701
  114MOL0     C14945   9.804  -1.127   5.214 -0.7343  0.1180 -0.0926
  114MOL0     O14946   9.751  -1.179   5.106  0.2829 -0.5130  0.6389
  114MOL0     C14947   9.786  -1.294   5.056 -0.2491 -0.5566  0.4926
  114MOL0     C14948   9.913  -1.348   5.063 -0.3625  0.8152  0.5933
  114MOL0     C14949   9.943  -1.464   4.986  0.0922 -0.0948  0.1837
  114MOL0     C14950   9.843  -1.521   4.906 -0.1594  0.3847  0.4113
  114MOL0     O14951   9.855  -1.623   4.821  0.0484 -0.6589  0.8609
  114MOL0     C14952   9.969  -1.715   4.842  0.2801  0.6594 -0.2238
  114MOL0     C14953   9.959  -1.854   4.779  0.8888 -0.9342 -0.1098
  114MOL0     C14954   9.891  -1.834   4.631 -0.5991  0.3734 -0.3944
  114MOL0     C14955   9.849  -1.964   4.556  0.2899 -0.9642 -0.4748
  114MOL0     C14956   9.767  -1.924   4.435 -0.2548 -0.5305 -0.3875
  114MOL0     C14957   9.717  -2.053   4.358 -0.5500  1.0658 -0.5910
  114MOL0     C14958   9.641  -2.027   4.229  0.0701 -0.7859 -0.4884
  114MOL0     C14959   9.524  -1.935   4.247 -0.1231 -0.4524  0.1740
  114MOL0    Cl14960   9.421  -1.990   4.384  0.3983 -0.3847 -0.1232
  114MOL0     C14961   9.714  -1.468   4.910  0.6946 -0.3805 -0.4719
  114MOL0     C14962   9.695  -1.350   4.971  0.7497 -0.6731 -0.4227
  114MOL0     O14963   9.876  -1.186   5.291  0.7881  0.6581 -0.2125
  114MOL0     C14964   9.772  -0.934   5.382  1.0808  0.6124  0.7423
  114MOL0     C14965   9.720  -0.809   5.412  0.3945  0.4182 -0.6425
  114MOL0     N14966   9.516  -0.141   5.047 -0.7072  0.2593  0.2664
  114MOL0     N14967   9.474  -0.027   5.093  0.1837 -0.4012 -0.0667
  114MOL0     C14968  10.616   0.439   5.578 -0.4335 -0.4747  0.1276
  114MOL0     C14969  10.723   0.524   5.554  0.6748 -0.1276 -0.0664
  114MOL0     C14970  10.946   0.892   5.631  0.1100  0.3873  1.0238
  114MOL0     C14971  10.986   0.984   5.730  0.7043 -0.3546 -0.7389
  114MOL0     C14972  11.120   1.015   5.766 -0.2240 -0.2176  1.2574
  114MOL0     C14973  11.225   0.961   5.683  0.2492 -0.2383  0.2407
  114MOL0     O14974  11.359   0.996   5.692  0.0271 -0.6239  0.4567
  114MOL0     C14975  11.400   1.059   5.813 -0.0620 -0.5771 -0.0192
  114MOL0     C14976  11.400   1.212   5.776  0.0400 -0.3512  0.5452
  114MOL0     C14977  11.529   1.256   5.700  0.5280  0.1254 -0.6908
  114MOL0     C14978  11.523   1.406   5.682 -0.2335  0.4399  0.0111
  114MOL0     C14979  11.571   1.484   5.800 -0.4392  0.3444  0.9992
  114MOL0     C14980  11.607   1.565   5.884 -0.6010  0.3412 -0.4340
  114MOL0     C14981  11.187   0.864   5.594  0.5154 -0.0463 -0.0586
  114MOL0     C14982  11.055   0.834   5.567  0.3479 -0.2860 -0.4483
  114MOL0     H14983  10.535   0.803   5.493 -1.5487 -0.2087 -1.6095
  114MOL0     H14984  10.349   0.643   5.522  2.0231  3.5727  0.5335
  114MOL0     H14985  10.214   0.528   5.640  0.3252  0.0770  0.4526
  114MOL0     H14986  10.192   0.362   5.675 -1.6452  2.1139  1.5692
  114MOL0     H14987  10.240   0.343   5.415  0.0127  0.3452 -1.0082
  114MOL0     H14988  10.175   0.507   5.417  0.1508 -0.3107  0.0421
  114MOL0     H14989   9.974   0.446   5.527  2.3104  0.7082  2.7707
  114MOL0     H14990  10.027   0.288   5.559  0.6527 -0.1458 -0.2985
  114MOL0     H14991   9.993   0.409   5.277 -1.3356  0.0928 -0.5783
  114MOL0     H14992  10.030   0.238   5.307 -0.1187  0.0474 -0.2444
  114MOL0     H14993   9.780   0.378   5.403  0.9556  1.1083 -0.8666
  114MOL0     H14994   9.818   0.207   5.431  2.2594  0.0725  0.5597
  114MOL0     H14995   9.810   0.155   5.200 -1.6917  0.3014  1.5842
  114MOL0     H14996   9.816   0.330   5.155  1.5454  0.5103 -0.1026
  114MOL0     H14997   9.604   0.336   5.301  2.3068 -0.8210  1.1716
  114MOL0     H14998   9.574   0.295   5.130  1.0407 -1.7371 -1.4367
  114MOL0     H14999   9.455   0.145   5.305 -1.1267 -1.3701 -1.9774
  114MOL0     H15000   9.611   0.097   5.370  2.0449  2.2737 -0.7800
  114MOL0     H15001   9.764  -0.064   5.237  0.0086  1.2779  0.2778
  114MOL0     H15002   9.844  -0.255   5.090  0.9078 -2.3945  1.0113
  114MOL0     H15003   9.741  -0.320   4.979  0.7645  1.1077 -1.0385
  114MOL0     H15004   9.769  -0.493   5.151 -1.1382 -1.2880 -0.5605
  114MOL0     H15005   9.606  -0.438   5.134  0.3987  0.4966 -1.9670
  114MOL0     H15006   9.800  -0.337   5.341  0.2560 -0.1533  0.3434
  114MOL0     H15007   9.635  -0.306   5.356  1.7360  0.7849  1.7100
  114MOL0     H15008   9.670  -0.474   5.503  4.7603 -0.8151  1.7490
  114MOL0     H15009   9.788  -0.563   5.419 -0.0061 -0.5454  0.4031
  114MOL0     H15010   9.582  -0.743   5.109  2.3669  2.5944 -0.3109
  114MOL0     H15011   9.664  -0.949   5.051 -0.8099 -2.2894  0.9131
  114MOL0     H15012   9.994  -1.296   5.114  0.6093  0.2445 -0.3338
  114MOL0     H15013  10.042  -1.499   4.958 -0.3871 -0.5488 -0.9508
  114MOL0     H15014   9.993  -1.730   4.947  0.9028  1.2574 -0.2772
  114MOL0     H15015  10.057  -1.667   4.798 -0.3709  1.3702 -0.7715
  114MOL0     H15016   9.892  -1.910   4.845 -1.9350  2.4806  0.2107
  114MOL0     H15017  10.050  -1.914   4.764  0.6794 -1.2310 -0.1996
  114MOL0     H15018   9.968  -1.775   4.580  0.1462  1.6667  2.0595
  114MOL0     H15019   9.801  -1.773   4.636 -0.5962  0.5052 -1.5843
  114MOL0     H15020   9.941  -2.019   4.537 -0.4723 -2.0842 -1.0405
  114MOL0     H15021   9.779  -2.014   4.624 -1.6888  0.4365 -1.3699
  114MOL0     H15022   9.825  -1.853   4.376  0.5948 -0.2255  0.7950
  114MOL0     H15023   9.685  -1.862   4.472  3.3219  3.9768  0.8723
  114MOL0     H15024   9.655  -2.107   4.430  3.7360 -3.5158  0.1987
  114MOL0     H15025   9.796  -2.126   4.338 -1.3407 -1.1752  3.3997
  114MOL0     H15026   9.709  -1.994   4.151 -1.4762 -1.0042 -1.9886
  114MOL0     H15027   9.607  -2.127   4.201 -0.3918 -0.1125 -2.4807
  114MOL0     H15028   9.467  -1.923   4.154 -0.8227  0.1244  0.6583
  114MOL0     H15029   9.553  -1.831   4.267  1.0048 -1.4258  4.5259
  114MOL0     H15030   9.637  -1.510   4.847 -2.7364  1.5133  2.0962
  114MOL0     H15031   9.592  -1.318   4.962  1.1282  0.7334 -0.1482
  114MOL0     H15032   9.812  -0.995   5.462 -1.3969  2.9947  4.0824
  114MOL0     H15033   9.694  -0.778   5.512 -2.5666 -0.7596 -0.9615
  114MOL0     H15034  10.638   0.335   5.595 -1.6866 -0.3843  2.6697
  114MOL0     H15035  10.827   0.494   5.550  0.7879  0.3644 -1.3456
  114MOL0     H15036  10.913   1.023   5.800 -0.5191 -4.1830  0.4091
  114MOL0     H15037  11.142   1.079   5.851  2.3243 -2.8585  2.7557
  114MOL0     H15038  11.491   1.015   5.855  0.4747 -0.0999 -0.6498
  114MOL0     H15039  11.345   1.030   5.903  1.0821 -0.3052  0.7898
  114MOL0     H15040  11.309   1.230   5.717  2.2919  0.9928 -2.7909
  114MOL0     H15041  11.401   1.266   5.871  1.8736 -1.2478  1.0728
  114MOL0     H15042  11.557   1.208   5.606  0.6562 -1.4381  0.1100
  114MOL0     H15043  11.615   1.230   5.762  0.7717 -3.0421 -2.1486
  114MOL0     H15044  11.575   1.428   5.588  0.6425  0.6602  0.5408
  114MOL0     H15045  11.421   1.441   5.660 -0.3629 -0.4968 -0.9441
  114MOL0     H15046  11.644   1.641   5.949  0.5653 -0.2727 -0.3539
  114MOL0     H15047  11.263   0.833   5.523  0.9205  0.0245  0.3342
  114MOL0     H15048  11.037   0.764   5.486  1.7146  0.2904 -1.2832
  115MOL0     O15049   7.416   4.816   0.856 -0.1622 -0.0083  0.8251
  115MOL0     C15050   7.393   4.913   0.777 -0.9418 -0.3182  0.2409
  115MOL0     O15051   7.272   4.949   0.722  0.3313 -0.7635  0.6314
  115MOL0     C15052   7.149   4.923   0.781 -0.3126 -0.1049  0.4052
  115MOL0     C15053   7.119   4.890   0.911  0.2303 -0.1324 -0.7832
  115MOL0     C15054   6.988   4.866   0.951  1.5951 -0.2476  0.1749
  115MOL0     C15055   6.890   4.889   0.864 -0.0068  0.8210  0.2979
  115MOL0     O15056   6.767   4.883   0.924  0.4547  0.1253  1.1661
  115MOL0     C15057   6.670   4.815   0.842  0.2128  0.3103  0.3623
  115MOL0     C15058   6.578   4.731   0.930  0.1377  0.2812 -0.2197
  115MOL0     C15059   6.479   4.816   1.015 -1.0023  0.2297 -0.0361
  115MOL0     C15060   6.361   4.870   0.935  0.1912 -0.9803  0.0243
  115MOL0     C15061   6.271   4.968   1.007  0.7246  0.0698  0.0814
  115MOL0     C15062   6.139   5.005   0.921 -0.2172  0.1639 -0.1251
  115MOL0     C15063   6.088   5.143   0.966 -0.0377 -0.2931  0.5880
  115MOL0     C15064   6.057   5.164   1.123 -1.6894 -0.1275  0.6351
  115MOL0     N15065   5.975   5.269   1.179  0.4435 -0.9070  0.1305
  115MOL0     C15066   5.847   5.246   1.232  0.1124  0.3656 -0.6735
  115MOL0     C15067   5.792   5.362   1.257 -0.7861  0.1213  0.0822
  115MOL0     C15068   5.671   5.375   1.331  0.5936 -0.4247  0.3475
  115MOL0     C15069   5.625   5.522   1.331 -0.4149  0.3099  1.1285
  115MOL0     C15070   5.485   5.533   1.395  0.1387  0.0063 -0.0466
  115MOL0     C15071   5.438   5.677   1.407  0.0531 -0.0556 -0.6454
  115MOL0     O15072   5.320   5.674   1.491 -0.5856 -0.2405  0.7551
  115MOL0     C15073   5.228   5.775   1.473 -0.2888  0.4503 -0.0474
  115MOL0     C15074   5.113   5.763   1.555  0.0015 -0.0789  0.0129
  115MOL0     C15075   5.028   5.868   1.557  0.3849 -0.4450  0.2703
  115MOL0     C15076   5.046   5.988   1.478 -0.0694  0.4256  0.5164
  115MOL0     C15077   4.963   6.101   1.508  0.3821  0.8338 -0.2820
  115MOL0     O15078   4.856   6.081   1.591  0.0585  0.2537  0.6247
  115MOL0     C15079   4.764   6.173   1.628 -0.1819  0.5557 -1.1790
  115MOL0     C15080   4.684   6.229   1.523 -0.1757 -0.2749  0.4165
  115MOL0     C15081   4.605   6.345   1.553  0.0559  0.3212  0.0613
  115MOL0     C15082   4.594   6.391   1.689  0.1525  0.5249 -0.3988
  115MOL0     O15083   4.518   6.496   1.741  0.5485 -0.4973 -0.0823
  115MOL0     C15084   4.402   6.534   1.668 -0.4367  0.0014 -0.8644
  115MOL0     C15085   4.293   6.428   1.653 -0.4290 -0.2049  0.7032
  115MOL0     C15086   4.157   6.479   1.596 -0.1972  0.1515  0.7507
  115MOL0     C15087   4.098   6.578   1.704 -0.3395 -0.8894  0.6281
  115MOL0     C15088   3.943   6.588   1.714 -0.4640  1.0103 -0.1112
  115MOL0     C15089   3.891   6.642   1.581 -0.3732  0.0545 -0.3879
  115MOL0     C15090   3.736   6.630   1.568 -0.1534  0.0023 -0.2499
  115MOL0     C15091   3.694   6.616   1.419  0.2788 -0.7654  0.1373
  115MOL0    Cl15092   3.714   6.775   1.336  0.1808  0.2748  0.2753
  115MOL0     C15093   4.659   6.319   1.791 -0.5552  0.1292  0.0090
  115MOL0     C15094   4.755   6.220   1.760  0.2298  0.2183  0.4606
  115MOL0     O15095   4.993   6.212   1.463 -0.1347 -0.0092 -0.2499
  115MOL0     C15096   5.159   5.995   1.396  0.7096  0.1332 -0.4575
  115MOL0     C15097   5.238   5.881   1.383 -0.7921 -0.4749  0.0675
  115MOL0     N15098   5.885   5.453   1.228 -0.0362 -1.1926  1.1777
  115MOL0     N15099   5.991   5.405   1.177  0.2646  0.0771 -0.1724
  115MOL0     C15100   6.912   4.926   0.730  0.0535  0.6115 -0.3947
  115MOL0     C15101   7.039   4.946   0.690 -0.8711  0.5505  0.5880
  115MOL0     C15102   7.515   5.002   0.738  1.1205 -0.3753 -0.3937
  115MOL0     C15103   7.633   4.995   0.806  0.2912  0.1047  0.3419
  115MOL0     C15104   7.745   5.079   0.765 -0.1516 -0.4222  0.5766
  115MOL0     C15105   7.725   5.172   0.659  0.9138  0.3588 -0.4789
  115MOL0     O15106   7.813   5.258   0.599  0.5006 -0.1493 -0.5675
  115MOL0     C15107   7.922   5.305   0.675  0.7935  0.2373  0.1199
  115MOL0     C15108   7.925   5.453   0.666 -0.4621 -0.1139 -0.7051
  115MOL0     C15109   7.802   5.506   0.737  0.1793 -0.7219  0.1582
  115MOL0     C15110   7.790   5.643   0.672 -0.2962 -0.7619  0.2422
  115MOL0     C15111   7.680   5.722   0.733 -0.5783  0.0656 -0.5397
  115MOL0     C15112   7.582   5.774   0.784 -0.0893 -0.3595  0.0418
  115MOL0     C15113   7.599   5.183   0.601  0.3491 -0.3052  0.0231
  115MOL0     C15114   7.494   5.103   0.648  0.4170  0.3548  0.1117
  115MOL0     H15115   7.189   4.887   0.994 -1.3507 -0.9992  0.5744
  115MOL0     H15116   6.959   4.849   1.054 -1.4687 -0.1692 -0.5745
  115MOL0     H15117   6.724   4.736   0.789 -1.7432 -2.0346  1.6563
  115MOL0     H15118   6.625   4.870   0.759  4.1847  0.4306 -1.9589
  115MOL0     H15119   6.642   4.681   1.003  0.0521  0.9102  0.3034
  115MOL0     H15120   6.523   4.650   0.882 -1.9395  2.1076 -1.0961
  115MOL0     H15121   6.529   4.893   1.074 -2.6260 -0.9001  3.0303
  115MOL0     H15122   6.441   4.751   1.094  1.1575  0.2179  1.0396
  115MOL0     H15123   6.396   4.924   0.847 -0.5660  0.2124  0.4370
  115MOL0     H15124   6.302   4.784   0.903 -2.5549 -0.4391  3.0895
  115MOL0     H15125   6.343   5.048   1.024  2.8599 -1.6239 -0.5367
  115MOL0     H15126   6.242   4.928   1.105  3.2097  0.9667  1.2596
  115MOL0     H15127   6.069   4.925   0.944 -2.0651  1.5535 -0.7084
  115MOL0     H15128   6.159   4.995   0.814 -0.6993  1.0380 -0.3036
  115MOL0     H15129   6.169   5.209   0.934 -0.6697 -1.3753 -3.8161
  115MOL0     H15130   5.997   5.161   0.908  0.4074  2.3608  0.5646
  115MOL0     H15131   6.154   5.178   1.171 -1.5924 -2.9227  1.4700
  115MOL0     H15132   6.024   5.069   1.168  0.1497 -0.8546  0.5320
  115MOL0     H15133   5.804   5.153   1.269  0.3219  1.6999  3.4177
  115MOL0     H15134   5.695   5.340   1.432  1.8182 -0.1567  0.1606
  115MOL0     H15135   5.583   5.326   1.287 -0.2968  1.7548 -0.4458
  115MOL0     H15136   5.611   5.549   1.225  1.2964 -2.1777  0.1679
  115MOL0     H15137   5.697   5.593   1.370 -1.2884  1.5484  0.5583
  115MOL0     H15138   5.405   5.480   1.344 -1.7176  2.7933 -0.2543
  115MOL0     H15139   5.498   5.479   1.489 -0.0993 -0.6568 -0.3875
  115MOL0     H15140   5.416   5.707   1.304  0.9862  0.9138 -0.5799
  115MOL0     H15141   5.527   5.734   1.434  1.0777 -1.3300 -1.1938
  115MOL0     H15142   5.111   5.681   1.626  0.8149  1.1390  1.5097
  115MOL0     H15143   4.938   5.869   1.617 -0.5005  0.3296 -1.0093
  115MOL0     H15144   4.695   6.226   1.415 -0.2505  6.8012 -0.2994
  115MOL0     H15145   4.549   6.413   1.490 -0.1480  2.3537  2.2829
  115MOL0     H15146   4.435   6.567   1.569 -0.7826  1.2005 -0.6036
  115MOL0     H15147   4.354   6.623   1.711 -2.9294 -0.4854 -2.4281
  115MOL0     H15148   4.274   6.373   1.746 -0.8922  0.8126  1.2201
  115MOL0     H15149   4.322   6.363   1.570 -1.1393  0.1638  0.1602
  115MOL0     H15150   4.089   6.394   1.590  1.9974 -1.6089 -1.0072
  115MOL0     H15151   4.170   6.523   1.496 -2.6724  1.1009  0.7750
  115MOL0     H15152   4.137   6.560   1.804 -0.3817  0.8528  0.9709
  115MOL0     H15153   4.123   6.679   1.672  1.5594 -2.0770 -2.0968
  115MOL0     H15154   3.919   6.644   1.805  0.2916 -0.9208  1.3523
  115MOL0     H15155   3.905   6.488   1.737 -0.2329  1.0812  0.6119
  115MOL0     H15156   3.940   6.588   1.500  0.0082  1.1048 -0.8802
  115MOL0     H15157   3.924   6.746   1.576 -0.3008  0.2173  2.0860
  115MOL0     H15158   3.700   6.549   1.631  2.0876  0.2015  1.4137
  115MOL0     H15159   3.690   6.722   1.604 -1.2059 -1.2860  1.8821
  115MOL0     H15160   3.594   6.577   1.401 -0.0627  1.0640 -2.5200
  115MOL0     H15161   3.759   6.542   1.371  0.4091 -0.1430 -0.6778
  115MOL0     H15162   4.650   6.349   1.895 -0.6807 -0.4324  0.1642
  115MOL0     H15163   4.816   6.175   1.838 -0.0625  2.5108  2.1106
  115MOL0     H15164   5.182   6.087   1.343  2.7595 -0.2476 -0.3066
  115MOL0     H15165   5.321   5.879   1.313 -0.6531 -3.5446  0.2044
  115MOL0     H15166   6.842   4.955   0.652  0.4323 -0.5201 -1.2016
  115MOL0     H15167   7.075   4.964   0.589  3.5428  1.7211  2.1419
  115MOL0     H15168   7.646   4.926   0.888 -0.5694 -1.6074 -0.8963
  115MOL0     H15169   7.837   5.079   0.823 -0.9492 -1.7135  1.8941
  115MOL0     H15170   8.009   5.246   0.647  1.8452  1.6254  0.3558
  115MOL0     H15171   7.910   5.283   0.781 -0.4249  0.7094  0.1097
  115MOL0     H15172   8.022   5.492   0.698  0.0245  0.3147 -2.6082
  115MOL0     H15173   7.921   5.484   0.561 -1.8187 -2.2275 -1.3447
  115MOL0     H15174   7.820   5.510   0.845 -2.2886  0.3625  0.6069
  115MOL0     H15175   7.721   5.439   0.705 -0.0602  0.0393 -0.8650
  115MOL0     H15176   7.886   5.694   0.684 -1.5679  1.2530  2.9967
  115MOL0     H15177   7.766   5.634   0.566  1.8670 -0.0909 -0.3513
  115MOL0     H15178   7.501   5.828   0.828  1.7815  3.8251 -1.1204
  115MOL0     H15179   7.591   5.269   0.536  2.4309  0.8602  1.1911
  115MOL0     H15180   7.396   5.122   0.606  1.2722  0.9149 -1.7628
  116MOL0     O15181   0.966   2.343  10.968 -0.2008  1.4716 -0.2815
  116MOL0     C15182   0.856   2.318  11.011 -0.4577 -0.4587  0.0824
  116MOL0     O15183   0.809   2.342  11.137 -0.2415 -0.6144  0.1338
  116MOL0     C15184   0.903   2.404  11.227  0.8510  0.0396  0.3824
  116MOL0     C15185   0.863   2.524  11.290 -0.5935 -0.0671  0.3101
  116MOL0     C15186   0.956   2.582  11.377  0.1593 -0.9690 -0.9037
  116MOL0     C15187   1.084   2.532  11.403 -0.1115 -0.2580  0.4648
  116MOL0     O15188   1.164   2.590  11.495 -0.0193 -0.2453  0.6537
  116MOL0     C15189   1.169   2.733  11.475  0.2751  0.0640  0.1225
  116MOL0     C15190   1.324   2.773  11.497  0.0396 -0.0814 -0.7802
  116MOL0     C15191   1.416   2.665  11.429  0.4276 -0.4548  0.0625
  116MOL0     C15192   1.566   2.702  11.441  0.7502  0.0764 -0.2739
  116MOL0     C15193   1.622   2.628  11.323  0.2218  0.6547  0.0475
  116MOL0     C15194   1.764   2.653  11.310 -0.2748  0.2810  0.2044
  116MOL0     C15195   1.832   2.548  11.223 -0.0188  0.7579  0.0633
  116MOL0     C15196   1.770   2.534  11.083  0.5970  0.1721  0.3478
  116MOL0     N15197   1.745   2.662  11.006 -0.1481 -0.0367 -0.0466
  116MOL0     C15198   1.834   2.729  10.927  0.1144 -0.4291  0.1843
  116MOL0     C15199   1.757   2.836  10.883 -0.0350  0.3090 -0.1686
  116MOL0     C15200   1.814   2.957  10.807  0.0408 -0.0678 -0.4214
  116MOL0     C15201   1.925   2.928  10.705 -0.6066  0.4590  0.1714
  116MOL0     C15202   1.967   3.051  10.626 -0.0328 -0.2526 -0.7919
  116MOL0     C15203   2.068   3.024  10.511  0.0171  0.0329  0.9724
  116MOL0     O15204   2.192   3.015  10.566  0.8429  0.0474 -0.0975
  116MOL0     C15205   2.281   2.908  10.553  0.0471  1.1975 -0.1072
  116MOL0     C15206   2.407   2.924  10.613 -0.1962 -0.5979  0.7384
  116MOL0     C15207   2.497   2.816  10.603  0.6548  0.1788  0.5533
  116MOL0     C15208   2.461   2.685  10.552 -0.1393 -0.3397  0.8202
  116MOL0     C15209   2.551   2.568  10.541  0.2950  0.9274  0.0195
  116MOL0     O15210   2.497   2.440  10.528  0.1888 -0.6043  0.6084
  116MOL0     C15211   2.557   2.313  10.554  0.2096  0.3917  0.0052
  116MOL0     C15212   2.688   2.287  10.586 -0.7712 -0.9435  0.4743
  116MOL0     C15213   2.732   2.153  10.608 -0.8196 -0.8267  0.5450
  116MOL0     C15214   2.643   2.045  10.618  0.3699 -0.7767  0.3057
  116MOL0     O15215   2.676   1.916  10.642 -0.1279  0.7570  0.1417
  116MOL0     C15216   2.778   1.859  10.558  0.0789  0.2139 -1.1505
  116MOL0     C15217   2.882   1.785  10.631 -0.5389  0.0493 -0.6491
  116MOL0     C15218   2.840   1.697  10.742  0.4944 -0.3270 -0.2918
  116MOL0     C15219   2.953   1.627  10.826 -0.5180 -0.6333  0.0017
  116MOL0     C15220   3.048   1.539  10.742 -0.5143  0.4364 -0.3727
  116MOL0     C15221   3.119   1.431  10.832 -0.3489  0.0690 -0.1926
  116MOL0     C15222   3.251   1.494  10.886 -0.0694  0.6831 -0.1303
  116MOL0     C15223   3.351   1.387  10.933 -0.1939  0.2850 -0.1369
  116MOL0    Cl15224   3.390   1.302  10.790 -0.6787 -0.0383 -0.3925
  116MOL0     C15225   2.505   2.063  10.586 -0.4142  0.1440 -0.6535
  116MOL0     C15226   2.470   2.203  10.562  0.9153  0.3901  0.5339
  116MOL0     O15227   2.669   2.594  10.557 -0.0581 -0.2718 -0.0901
  116MOL0     C15228   2.333   2.669  10.505  0.4294 -0.0725  0.1702
  116MOL0     C15229   2.244   2.775  10.507 -0.3230  0.3126 -1.3123
  116MOL0     N15230   1.628   2.824  10.928  0.4765  0.0506 -0.5608
  116MOL0     N15231   1.619   2.712  10.991 -0.5147 -0.1649 -0.3092
  116MOL0     C15232   1.120   2.412  11.342 -0.4566 -0.6310 -0.3394
  116MOL0     C15233   1.031   2.353  11.259 -0.4417 -0.5129  1.4137
  116MOL0     C15234   0.769   2.245  10.919 -1.4314 -1.4547  1.1705
  116MOL0     C15235   0.816   2.233  10.786  0.0951 -0.1161 -0.7392
  116MOL0     C15236   0.742   2.157  10.698 -0.8602 -0.9677  0.7643
  116MOL0     C15237   0.616   2.091  10.739 -0.4250 -0.2017  0.2465
  116MOL0     O15238   0.554   2.008  10.645 -0.0490 -0.5978 -0.1209
  116MOL0     C15239   0.475   1.897  10.701 -0.8564 -0.2871  0.1099
  116MOL0     C15240   0.438   1.792  10.598 -0.4397  0.2078 -0.8044
  116MOL0     C15241   0.547   1.777  10.485 -0.2445  0.2630 -0.1083
  116MOL0     C15242   0.513   1.638  10.412  0.0142  0.7913  0.3780
  116MOL0     C15243   0.614   1.602  10.308 -0.6044  0.8518 -0.4909
  116MOL0     C15244   0.708   1.547  10.246 -0.2739 -0.0067  0.2753
  116MOL0     C15245   0.571   2.111  10.866  0.2921  0.0323 -0.0598
  116MOL0     C15246   0.647   2.190  10.960  0.2041 -0.2947 -0.3773
  116MOL0     H15247   0.765   2.567  11.272 -0.5322  1.5219  3.1889
  116MOL0     H15248   0.925   2.675  11.421  0.8813 -1.1108 -0.0590
  116MOL0     H15249   1.111   2.787  11.550  0.9482  0.9713  0.0093
  116MOL0     H15250   1.125   2.770  11.382 -2.1271 -0.9331  0.7837
  116MOL0     H15251   1.339   2.775  11.606  1.3108  0.4570 -0.9446
  116MOL0     H15252   1.338   2.874  11.458 -4.6751  2.1863  2.4310
  116MOL0     H15253   1.390   2.645  11.324  1.1489 -3.8308  0.4217
  116MOL0     H15254   1.412   2.563  11.469  1.4887 -1.0553 -1.2787
  116MOL0     H15255   1.573   2.811  11.431 -2.1152  0.4634  0.9132
  116MOL0     H15256   1.615   2.676  11.536 -1.8945 -0.8747  0.9307
  116MOL0     H15257   1.578   2.645  11.225  2.7823  1.6282 -1.0110
  116MOL0     H15258   1.608   2.521  11.339 -0.8465  0.3078 -2.7096
  116MOL0     H15259   1.816   2.638  11.405  0.9100 -0.4267 -0.5300
  116MOL0     H15260   1.778   2.752  11.267 -3.1359 -0.6537 -3.4040
  116MOL0     H15261   1.941   2.560  11.217 -0.1384  1.3789 -1.3252
  116MOL0     H15262   1.810   2.447  11.259  1.5539  0.5136  0.4381
  116MOL0     H15263   1.673   2.489  11.107  0.7454 -0.5917 -0.4337
  116MOL0     H15264   1.829   2.475  11.012 -0.0121  1.0167 -0.8976
  116MOL0     H15265   1.941   2.716  10.922  0.4982  2.2868 -0.3633
  116MOL0     H15266   1.851   3.028  10.881  1.2483  0.1510 -1.2035
  116MOL0     H15267   1.733   3.011  10.758  0.5782  2.5811  1.4017
  116MOL0     H15268   1.893   2.851  10.634  1.4965  2.1687 -2.9153
  116MOL0     H15269   2.007   2.875  10.754  0.7842 -0.2102 -2.6200
  116MOL0     H15270   1.876   3.096  10.587 -0.1919  0.8527  0.7691
  116MOL0     H15271   2.015   3.122  10.694  1.5653 -1.3369 -0.7263
  116MOL0     H15272   2.068   3.099  10.432 -1.1604 -1.9718 -1.0253
  116MOL0     H15273   2.048   2.930  10.460  0.9225  0.3192  0.0660
  116MOL0     H15274   2.428   3.018  10.663  0.7630 -1.3756  1.8293
  116MOL0     H15275   2.590   2.834  10.656 -2.6817  4.1805  6.1578
  116MOL0     H15276   2.750   2.376  10.588 -4.0912  1.5763  0.0625
  116MOL0     H15277   2.830   2.117  10.635 -1.0808 -1.4782  0.6324
  116MOL0     H15278   2.813   1.930  10.483  3.0912  0.6077  0.4809
  116MOL0     H15279   2.721   1.784  10.502 -2.9225  1.4084  0.0829
  116MOL0     H15280   2.962   1.848  10.672  0.3877 -1.1296 -0.5572
  116MOL0     H15281   2.940   1.730  10.556  0.2290 -0.2693  0.1543
  116MOL0     H15282   2.772   1.620  10.706  0.7509 -0.4844 -0.4449
  116MOL0     H15283   2.783   1.766  10.804  0.5194 -0.8041  0.2772
  116MOL0     H15284   3.013   1.696  10.886  0.8136 -0.6205 -1.3018
  116MOL0     H15285   2.909   1.556  10.897 -1.2516 -0.9042 -0.7145
  116MOL0     H15286   3.120   1.604  10.692  0.6202 -0.6546 -0.1995
  116MOL0     H15287   2.981   1.497  10.666 -2.5448 -2.5023  2.7278
  116MOL0     H15288   3.136   1.351  10.759 -1.1232  1.2577 -1.7471
  116MOL0     H15289   3.056   1.393  10.912 -1.3652 -0.7205 -1.3306
  116MOL0     H15290   3.299   1.556  10.810  0.4873  0.4607  0.0371
  116MOL0     H15291   3.216   1.549  10.974  1.5000 -1.8704  2.2375
  116MOL0     H15292   3.308   1.312  11.001  1.9089 -3.6895 -2.8245
  116MOL0     H15293   3.440   1.439  10.971 -1.8694  4.3305 -1.3050
  116MOL0     H15294   2.440   1.977  10.600 -2.5521  1.6401 -0.8391
  116MOL0     H15295   2.365   2.213  10.537  0.8358 -3.0087 -1.1145
  116MOL0     H15296   2.304   2.569  10.474  2.5262 -1.2513  1.6647
  116MOL0     H15297   2.144   2.749  10.475 -0.8526  3.1558 -2.1949
  116MOL0     H15298   1.222   2.383  11.365 -0.4754 -1.1586 -0.8996
  116MOL0     H15299   1.070   2.281  11.188 -0.8453  0.3262  0.3029
  116MOL0     H15300   0.907   2.286  10.762  0.6725  0.7531  2.8342
  116MOL0     H15301   0.763   2.150  10.592 -3.3013  0.3139  0.1267
  116MOL0     H15302   0.391   1.954  10.742 -0.7746  0.2994 -0.5225
  116MOL0     H15303   0.520   1.849  10.789 -0.7190  1.5497  1.0758
  116MOL0     H15304   0.435   1.694  10.646  1.7697 -0.8813 -2.6795
  116MOL0     H15305   0.338   1.814  10.560 -1.1980  0.7599  1.3863
  116MOL0     H15306   0.645   1.775  10.533  0.4997  3.2197 -1.2729
  116MOL0     H15307   0.542   1.856  10.409 -2.5676 -1.9809 -2.5018
  116MOL0     H15308   0.516   1.553  10.480  2.3338  1.0031  0.6307
  116MOL0     H15309   0.417   1.650  10.361  0.8555  2.0608 -0.9946
  116MOL0     H15310   0.779   1.489  10.189 -1.0046 -0.7314  0.0949
  116MOL0     H15311   0.473   2.074  10.892  0.1144  1.4397  1.4239
  116MOL0     H15312   0.608   2.198  11.061  2.6118  1.3290  0.5125
  117MOL0     O15313   0.684   8.718   7.002  1.3081  0.1892  0.1897
  117MOL0     C15314   0.793   8.755   7.040 -0.2102  0.3196 -0.5409
  117MOL0     O15315   0.827   8.768   7.171 -0.1847  0.5785  0.5510
  117MOL0     C15316   0.749   8.719   7.275 -0.4363  0.2349 -0.6871
  117MOL0     C15317   0.749   8.793   7.398 -0.1334  0.5321  0.8091
  117MOL0     C15318   0.676   8.749   7.510 -0.2525  0.3119  0.2524
  117MOL0     C15319   0.598   8.637   7.498  0.1634 -0.2402 -0.1152
  117MOL0     O15320   0.509   8.594   7.598 -0.4005 -0.3769  0.4796
  117MOL0     C15321   0.432   8.700   7.660 -0.8040 -0.7657 -0.7429
  117MOL0     C15322   0.334   8.772   7.565 -0.3107 -0.0635  0.1670
  117MOL0     C15323   0.254   8.669   7.490 -0.6543 -0.4210  0.0994
  117MOL0     C15324   0.129   8.735   7.424  0.1334 -0.7293  0.2648
  117MOL0     C15325   0.053   8.630   7.344 -0.2828 -0.1116 -0.4493
  117MOL0     C15326  -0.078   8.691   7.272  0.2417  0.2635 -0.4228
  117MOL0     C15327  -0.160   8.585   7.201 -0.7257  0.8496  0.2977
  117MOL0     C15328  -0.094   8.521   7.075  0.8656  0.3642  0.3376
  117MOL0     N15329  -0.097   8.617   6.974 -0.5946  0.3918  0.2870
  117MOL0     C15330  -0.211   8.667   6.917 -0.4003  0.1008  0.6789
  117MOL0     C15331  -0.154   8.759   6.830  0.4249  0.7006 -0.7569
  117MOL0     C15332  -0.226   8.855   6.740  0.1783  0.4414 -0.2698
  117MOL0     C15333  -0.222   8.817   6.592  0.3915 -0.9667 -0.8333
  117MOL0     C15334  -0.092   8.876   6.530 -0.8205  0.7355 -0.1580
  117MOL0     C15335  -0.095   8.833   6.388 -0.9387  0.2284  0.7073
  117MOL0     O15336  -0.191   8.912   6.309 -0.0823 -0.5508  0.5721
  117MOL0     C15337  -0.194   8.882   6.181 -0.6031  0.1010 -0.1126
  117MOL0     C15338  -0.155   8.754   6.119  0.6850 -0.2249 -1.0117
  117MOL0     C15339  -0.178   8.731   5.978 -0.7235 -0.1725  0.8078
  117MOL0     C15340  -0.226   8.839   5.899 -0.0693 -0.7012  0.2980
  117MOL0     C15341  -0.236   8.822   5.757  0.3766  0.0549 -0.5516
  117MOL0     O15342  -0.319   8.893   5.684  0.0298  0.1292  0.3937
  117MOL0     C15343  -0.342   8.865   5.548  0.9770 -0.7112 -0.1129
  117MOL0     C15344  -0.347   8.978   5.454  0.1113  0.1566 -0.2524
  117MOL0     C15345  -0.362   8.960   5.314  0.4010 -0.6267 -0.2596
  117MOL0     C15346  -0.359   8.832   5.257  0.2285 -0.3037  0.0660
  117MOL0     O15347  -0.374   8.822   5.115  0.1105 -0.2458 -0.0034
  117MOL0     C15348  -0.376   8.686   5.066  0.3179 -0.7189 -1.0480
  117MOL0     C15349  -0.374   8.692   4.912 -0.7648 -0.8944  0.8342
  117MOL0     C15350  -0.274   8.794   4.853  0.3402 -0.5223 -0.2718
  117MOL0     C15351  -0.282   8.818   4.704  0.3978 -0.6868 -0.0971
  117MOL0     C15352  -0.207   8.722   4.610 -0.1271 -1.0162 -0.2462
  117MOL0     C15353  -0.227   8.787   4.470 -0.2304  0.4623  0.5091
  117MOL0     C15354  -0.133   8.721   4.363 -0.2348  0.6848  0.1441
  117MOL0     C15355  -0.096   8.804   4.241  0.5294  1.9440  0.9463
  117MOL0    Cl15356   0.024   8.930   4.290  0.5619  0.0738 -0.1343
  117MOL0     C15357  -0.352   8.726   5.348  0.8970  0.0217  0.2369
  117MOL0     C15358  -0.344   8.740   5.485  0.2038  0.5156  0.2688
  117MOL0     O15359  -0.174   8.724   5.715  0.3595  0.0911 -0.1721
  117MOL0     C15360  -0.260   8.953   5.961 -0.9210 -0.6383  0.6847
  117MOL0     C15361  -0.248   8.975   6.097  0.3363  0.5334 -0.9234
  117MOL0     N15362  -0.015   8.749   6.835 -0.0894 -1.5593  0.0865
  117MOL0     N15363   0.021   8.675   6.926  0.0812  0.2457 -0.6957
  117MOL0     C15364   0.614   8.561   7.383  0.4399  0.7521  0.7338
  117MOL0     C15365   0.684   8.599   7.273  0.0843 -0.2259  0.0108
  117MOL0     C15366   0.900   8.781   6.934  0.0528  0.2202 -0.3678
  117MOL0     C15367   1.017   8.842   6.986  0.5509 -0.7221  0.5156
  117MOL0     C15368   1.116   8.886   6.896  0.5465  0.6683  0.4038
  117MOL0     C15369   1.102   8.865   6.754 -1.0660  1.0829  0.0134
  117MOL0     O15370   1.190   8.890   6.647  0.6150  0.1883 -0.8906
  117MOL0     C15371   1.316   8.948   6.675  0.6625 -0.1811 -0.4026
  117MOL0     C15372   1.415   8.852   6.745  1.7180 -0.5141  0.6454
  117MOL0     C15373   1.549   8.911   6.756  0.2025 -0.0623 -0.2844
  117MOL0     C15374   1.566   9.037   6.845 -0.1793  0.4758 -1.1158
  117MOL0     C15375   1.591   8.990   6.979  0.2210 -0.0893  0.9963
  117MOL0     C15376   1.618   8.951   7.092 -0.1242 -1.0220  0.7405
  117MOL0     C15377   0.992   8.792   6.715 -0.0619 -0.3343  0.4560
  117MOL0     C15378   0.896   8.758   6.801  0.9567  0.6292 -0.1383
  117MOL0     H15379   0.793   8.893   7.397  0.5715  0.2785  2.6723
  117MOL0     H15380   0.680   8.815   7.597  3.8766 -2.0371  2.1210
  117MOL0     H15381   0.479   8.781   7.717  1.3384 -2.5879  0.2628
  117MOL0     H15382   0.375   8.651   7.740  1.3147  1.4580  2.3650
  117MOL0     H15383   0.389   8.822   7.485 -3.6112 -0.4385 -2.5774
  117MOL0     H15384   0.272   8.846   7.615 -1.0858 -0.6622  0.1042
  117MOL0     H15385   0.223   8.589   7.558  3.4414 -1.2123  1.3087
  117MOL0     H15386   0.320   8.625   7.415  1.0934 -0.2043  1.4478
  117MOL0     H15387   0.056   8.780   7.493 -1.7687 -0.1500 -1.9913
  117MOL0     H15388   0.164   8.811   7.353  0.8413 -0.2343  1.1135
  117MOL0     H15389   0.025   8.546   7.408  1.2853 -0.9391 -0.8144
  117MOL0     H15390   0.124   8.593   7.270  0.0892 -0.0407 -0.1280
  117MOL0     H15391  -0.040   8.766   7.202  1.1346  0.7642  0.5843
  117MOL0     H15392  -0.146   8.742   7.341 -0.1184  0.1357 -0.6747
  117MOL0     H15393  -0.178   8.501   7.269  1.7795 -0.5821 -0.6880
  117MOL0     H15394  -0.258   8.625   7.174 -1.2139 -0.8484 -0.5620
  117MOL0     H15395  -0.148   8.435   7.035  1.9035 -0.0469 -0.1960
  117MOL0     H15396   0.010   8.492   7.093  1.6505  2.6905 -0.0784
  117MOL0     H15397  -0.315   8.641   6.936 -1.4770  0.9607 -3.2385
  117MOL0     H15398  -0.180   8.954   6.743  1.2706 -0.0598  1.3600
  117MOL0     H15399  -0.331   8.869   6.769 -0.0729 -0.0049 -0.9476
  117MOL0     H15400  -0.314   8.857   6.548 -0.2380 -0.6148  0.7385
  117MOL0     H15401  -0.222   8.707   6.587  4.7506 -1.2358  0.7517
  117MOL0     H15402  -0.100   8.985   6.519  0.9707  0.8796 -0.3176
  117MOL0     H15403  -0.001   8.846   6.583  1.4744  0.6186 -3.8051
  117MOL0     H15404  -0.120   8.726   6.382 -1.6544  0.4698 -1.0799
  117MOL0     H15405   0.007   8.855   6.356 -1.2793  1.1684  0.2544
  117MOL0     H15406  -0.119   8.676   6.185  1.4304 -0.0313 -1.1782
  117MOL0     H15407  -0.168   8.632   5.935 -1.9998 -0.8560  1.9723
  117MOL0     H15408  -0.363   9.080   5.486  0.1642  1.0866 -2.8993
  117MOL0     H15409  -0.365   9.054   5.259 -0.2581 -0.1804  0.5175
  117MOL0     H15410  -0.470   8.633   5.081 -0.8135  0.8927 -2.1497
  117MOL0     H15411  -0.291   8.625   5.099  0.4236 -0.0132  0.0641
  117MOL0     H15412  -0.473   8.714   4.872  0.5408  2.5579 -0.8627
  117MOL0     H15413  -0.358   8.594   4.866  0.1063  0.2850 -1.5576
  117MOL0     H15414  -0.170   8.768   4.876 -0.4060 -1.8548  1.9653
  117MOL0     H15415  -0.291   8.894   4.893  1.9126 -0.0949 -0.6028
  117MOL0     H15416  -0.387   8.828   4.677 -0.2615 -2.4289  1.5348
  117MOL0     H15417  -0.238   8.917   4.690  1.0701 -1.0729 -0.7952
  117MOL0     H15418  -0.249   8.621   4.619  0.6013 -1.7945 -3.7976
  117MOL0     H15419  -0.102   8.704   4.636  0.2634  0.2561 -0.8530
  117MOL0     H15420  -0.197   8.892   4.472  1.0625  0.0956  1.6131
  117MOL0     H15421  -0.328   8.784   4.427 -1.1792  1.2458  2.5948
  117MOL0     H15422  -0.039   8.686   4.406 -0.7911 -0.7418  0.2470
  117MOL0     H15423  -0.183   8.633   4.322  2.4678 -0.7020 -0.3946
  117MOL0     H15424  -0.176   8.871   4.206 -0.3457  0.7592  0.6283
  117MOL0     H15425  -0.058   8.745   4.157 -1.2401  2.4786 -0.3076
  117MOL0     H15426  -0.351   8.624   5.311  3.0110 -0.3930  1.2832
  117MOL0     H15427  -0.334   8.650   5.545  2.8904  1.0846  0.8183
  117MOL0     H15428  -0.300   9.039   5.909 -1.5686 -0.8644  0.8013
  117MOL0     H15429  -0.278   9.069   6.143  1.1426  1.3722 -2.0647
  117MOL0     H15430   0.549   8.474   7.386 -0.2514  1.1712 -0.9645
  117MOL0     H15431   0.672   8.526   7.193 -1.0496 -1.9568  1.6880
  117MOL0     H15432   1.028   8.875   7.089  0.5759  4.2941 -0.8134
  117MOL0     H15433   1.211   8.924   6.933  1.3553  2.4851 -3.0831
  117MOL0     H15434   1.304   9.039   6.734 -1.2743 -0.9369  0.4807
  117MOL0     H15435   1.359   8.975   6.579  1.0899  0.0161 -0.1573
  117MOL0     H15436   1.370   8.827   6.842 -3.0572  0.2092 -1.0908
  117MOL0     H15437   1.425   8.755   6.697 -0.7748 -1.6535  2.2378
  117MOL0     H15438   1.570   8.939   6.652 -0.4746  1.7315  0.0335
  117MOL0     H15439   1.623   8.834   6.782  1.4321  1.0446 -0.4180
  117MOL0     H15440   1.660   9.081   6.810  1.4238 -0.1872  2.0039
  117MOL0     H15441   1.469   9.087   6.851 -1.6259 -2.2663  4.0225
  117MOL0     H15442   1.647   8.908   7.186  1.0192 -2.4874 -0.2396
  117MOL0     H15443   0.979   8.780   6.608 -0.9218  4.0133 -0.1011
  117MOL0     H15444   0.803   8.716   6.764  1.5303 -2.4234  1.4873
  118MOL0     O15445   5.533   4.558   4.138  0.5618 -0.0882  0.1176
  118MOL0     C15446   5.648   4.604   4.132 -0.0107 -0.0811  0.0045
  118MOL0     O15447   5.731   4.610   4.238 -0.2997 -0.2557  0.6362
  118MOL0     C15448   5.688   4.543   4.352 -0.7291  0.7824  0.3820
  118MOL0     C15449   5.580   4.579   4.425  0.2831  0.2302  0.3266
  118MOL0     C15450   5.545   4.503   4.535  1.0193  0.1471 -0.6271
  118MOL0     C15451   5.622   4.396   4.583  0.4694  0.4403  0.3157
  118MOL0     O15452   5.600   4.315   4.692 -0.2199  0.6341 -0.5444
  118MOL0     C15453   5.707   4.255   4.769 -0.3540  0.7866 -0.7133
  118MOL0     C15454   5.667   4.209   4.907  0.0773 -0.1954 -0.7118
  118MOL0     C15455   5.565   4.086   4.905  0.3211  0.2059  0.7888
  118MOL0     C15456   5.571   4.010   5.035  1.1616  0.3126  0.4026
  118MOL0     C15457   5.497   4.084   5.149 -0.3025  0.4138  0.1958
  118MOL0     C15458   5.536   4.045   5.295 -0.2548 -0.0650 -0.7383
  118MOL0     C15459   5.443   4.120   5.406 -0.2922  0.6006  0.8456
  118MOL0     C15460   5.299   4.065   5.435 -0.0885 -0.3736  0.4715
  118MOL0     N15461   5.251   4.138   5.557 -0.4052 -0.5060 -0.4719
  118MOL0     C15462   5.127   4.197   5.566 -0.5392  0.1651 -0.1319
  118MOL0     C15463   5.122   4.242   5.698  0.3414  0.7294  0.3297
  118MOL0     C15464   5.008   4.322   5.761 -0.5514  0.2499 -0.8835
  118MOL0     C15465   4.918   4.231   5.833  0.3153 -0.4600  0.2670
  118MOL0     C15466   4.778   4.283   5.872 -0.3131 -0.2187 -0.9902
  118MOL0     C15467   4.683   4.307   5.765  0.2117 -0.1075 -0.8146
  118MOL0     O15468   4.583   4.402   5.816  0.4167  0.7447 -0.9030
  118MOL0     C15469   4.594   4.535   5.795  0.8906  0.2489 -0.6190
  118MOL0     C15470   4.480   4.616   5.813 -0.9721  0.6767  0.6821
  118MOL0     C15471   4.479   4.754   5.781 -1.3453  0.2326  0.4938
  118MOL0     C15472   4.600   4.811   5.737  0.0757  0.6458 -0.3929
  118MOL0     C15473   4.601   4.952   5.696 -0.6713 -0.6711  0.0402
  118MOL0     O15474   4.724   5.008   5.699 -0.4682  0.3454 -0.5530
  118MOL0     C15475   4.730   5.141   5.675 -0.2014 -1.2697  0.3853
  118MOL0     C15476   4.798   5.204   5.568 -0.1014 -0.3343  0.0138
  118MOL0     C15477   4.788   5.343   5.543 -0.5273 -0.8190  0.7564
  118MOL0     C15478   4.715   5.428   5.633  0.3139  0.2176  0.1258
  118MOL0     O15479   4.694   5.570   5.617 -0.8224 -0.2449  0.1617
  118MOL0     C15480   4.772   5.625   5.512 -0.4722 -0.5104 -1.1819
  118MOL0     C15481   4.748   5.777   5.518 -0.0265 -0.1695 -0.4579
  118MOL0     C15482   4.600   5.833   5.521 -0.0999  0.7704 -0.0731
  118MOL0     C15483   4.607   5.975   5.474  0.0474  0.0266 -0.6889
  118MOL0     C15484   4.463   6.034   5.488 -0.6385  0.4911 -0.0571
  118MOL0     C15485   4.462   6.185   5.482 -1.6471 -0.1495 -0.6914
  118MOL0     C15486   4.333   6.251   5.475  0.5770  0.3884  0.4580
  118MOL0     C15487   4.247   6.242   5.601  0.0163 -0.7401 -0.0504
  118MOL0    Cl15488   4.104   6.330   5.586 -0.0676 -0.1462  0.2450
  118MOL0     C15489   4.653   5.374   5.742  0.8832  0.8566 -0.7246
  118MOL0     C15490   4.659   5.234   5.757 -0.2600  0.2712 -0.5661
  118MOL0     O15491   4.503   5.004   5.651  0.5536 -0.5320 -0.1489
  118MOL0     C15492   4.715   4.731   5.722 -0.2457  0.1466  0.0649
  118MOL0     C15493   4.713   4.599   5.755 -0.6281  0.4679  0.1584
  118MOL0     N15494   5.229   4.202   5.757  0.1159 -0.1111 -0.4166
  118MOL0     N15495   5.313   4.143   5.678  0.7388 -0.0784 -0.0097
  118MOL0     C15496   5.736   4.363   4.496  0.2149  0.2629 -0.4678
  118MOL0     C15497   5.772   4.436   4.384  0.0712 -0.1371 -0.1774
  118MOL0     C15498   5.698   4.656   4.010 -0.8519  0.7150 -0.4080
  118MOL0     C15499   5.830   4.712   4.007 -0.2407 -0.1067 -1.2453
  118MOL0     C15500   5.884   4.750   3.887 -0.0601 -0.5104  0.4728
  118MOL0     C15501   5.812   4.748   3.767  0.5159 -0.3804  0.1283
  118MOL0     O15502   5.864   4.785   3.646  0.4110  0.4660 -0.0890
  118MOL0     C15503   5.785   4.870   3.561  0.1002 -0.1683 -0.3192
  118MOL0     C15504   5.866   4.975   3.488 -0.5506 -0.6155 -0.5214
  118MOL0     C15505   6.000   4.918   3.421 -0.4799 -0.3196 -0.1263
  118MOL0     C15506   5.979   4.806   3.314  0.3319  0.6837 -0.7369
  118MOL0     C15507   6.094   4.780   3.229  0.2582  0.4807 -0.1987
  118MOL0     C15508   6.188   4.733   3.168  0.3090 -0.1116  0.1012
  118MOL0     C15509   5.677   4.700   3.776  0.7117 -0.4837 -0.0176
  118MOL0     C15510   5.630   4.656   3.891  0.1163  0.3997 -0.2101
  118MOL0     H15511   5.518   4.660   4.386  0.2279  0.4165  0.7930
  118MOL0     H15512   5.454   4.521   4.592  0.3329 -2.2771 -0.8747
  118MOL0     H15513   5.793   4.322   4.775  2.7031 -2.6585 -1.9606
  118MOL0     H15514   5.744   4.173   4.706  0.4989 -1.3640  2.3735
  118MOL0     H15515   5.617   4.281   4.973 -0.0722 -2.0534  1.3363
  118MOL0     H15516   5.761   4.183   4.956  0.0283 -0.0082 -0.5183
  118MOL0     H15517   5.590   4.010   4.830  0.5622 -1.1632  2.2202
  118MOL0     H15518   5.468   4.132   4.889  0.0637 -1.3489 -3.4172
  118MOL0     H15519   5.515   3.916   5.030  2.0406 -0.1736 -0.6568
  118MOL0     H15520   5.674   3.978   5.053  1.1266  0.1015  0.2378
  118MOL0     H15521   5.389   4.079   5.133 -0.4797  2.4150  0.5847
  118MOL0     H15522   5.530   4.188   5.141 -1.4861  1.1984  3.5236
  118MOL0     H15523   5.634   4.089   5.314 -1.0190  0.9218  1.1004
  118MOL0     H15524   5.531   3.938   5.317 -1.6719 -0.8917 -4.2959
  118MOL0     H15525   5.508   4.118   5.494 -1.3544  0.3340  1.6304
  118MOL0     H15526   5.438   4.221   5.364 -0.2474 -0.4086 -1.7778
  118MOL0     H15527   5.293   3.958   5.454 -0.9036 -0.4488 -0.1513
  118MOL0     H15528   5.237   4.096   5.350 -0.4378  0.2437  0.9429
  118MOL0     H15529   5.060   4.199   5.481 -0.0403 -1.6780 -0.6096
  118MOL0     H15530   4.966   4.398   5.695  1.9641  1.5683 -1.0991
  118MOL0     H15531   5.043   4.382   5.846 -0.3802  0.6130 -1.2072
  118MOL0     H15532   4.968   4.188   5.920 -2.4508 -1.3262  1.5684
  118MOL0     H15533   4.900   4.146   5.766 -0.6083  1.0602 -1.5183
  118MOL0     H15534   4.746   4.219   5.956  0.3081  1.7069  0.7982
  118MOL0     H15535   4.787   4.373   5.933  1.1362 -0.3131 -1.0424
  118MOL0     H15536   4.633   4.215   5.733 -0.1767 -0.1697 -0.0404
  118MOL0     H15537   4.738   4.351   5.681 -2.0634  2.3842 -1.1398
  118MOL0     H15538   4.387   4.570   5.846 -1.0007  0.9138  0.9407
  118MOL0     H15539   4.397   4.826   5.776  1.0221  3.0726 -1.0123
  118MOL0     H15540   4.864   5.139   5.512  2.8569  1.6397  0.9784
  118MOL0     H15541   4.843   5.374   5.455 -2.2963 -1.3467 -0.5946
  118MOL0     H15542   4.743   5.578   5.417 -1.6256  0.0831 -1.1377
  118MOL0     H15543   4.876   5.617   5.543 -1.3573  3.1310  3.9775
  118MOL0     H15544   4.795   5.825   5.432 -0.7947  2.2862  0.3907
  118MOL0     H15545   4.802   5.811   5.607  1.2120  2.3932 -2.0428
  118MOL0     H15546   4.571   5.822   5.626  0.8091  4.3097  0.6501
  118MOL0     H15547   4.521   5.779   5.467  0.2227 -1.9770  1.9829
  118MOL0     H15548   4.679   6.018   5.544 -1.7805  0.3092  1.1301
  118MOL0     H15549   4.647   5.981   5.373  0.4309  0.4574 -0.5104
  118MOL0     H15550   4.426   5.999   5.585 -1.5320  0.1177 -0.5168
  118MOL0     H15551   4.401   5.980   5.416  0.2191 -1.8532  0.8428
  118MOL0     H15552   4.519   6.228   5.399  0.4913 -1.5450 -0.0507
  118MOL0     H15553   4.511   6.223   5.572  0.7428 -3.1878 -0.5427
  118MOL0     H15554   4.351   6.353   5.440  0.7921  0.0010 -0.6027
  118MOL0     H15555   4.278   6.202   5.394  0.0103 -0.1303  1.1447
  118MOL0     H15556   4.302   6.282   5.687 -1.4638 -0.7649  0.9353
  118MOL0     H15557   4.221   6.143   5.638 -1.8295 -0.0722  0.5514
  118MOL0     H15558   4.584   5.440   5.795 -1.8802  1.6927 -4.9278
  118MOL0     H15559   4.597   5.192   5.835 -0.8373  1.6468 -0.2600
  118MOL0     H15560   4.811   4.775   5.699  0.1841 -2.2345 -3.4130
  118MOL0     H15561   4.807   4.547   5.758 -1.3816 -0.8712  2.3142
  118MOL0     H15562   5.806   4.283   4.518  1.6081  1.6825  0.4583
  118MOL0     H15563   5.866   4.427   4.331  0.1646 -1.1498  0.1415
  118MOL0     H15564   5.904   4.711   4.087 -2.3909 -1.2627  0.8664
  118MOL0     H15565   5.990   4.773   3.876 -0.1425 -0.3852 -0.1320
  118MOL0     H15566   5.712   4.919   3.626 -1.1327 -0.9411 -1.0632
  118MOL0     H15567   5.741   4.802   3.487 -2.8381  1.2027  0.0441
  118MOL0     H15568   5.808   5.028   3.412  2.3014 -1.4190 -3.4894
  118MOL0     H15569   5.907   5.045   3.561  0.3109 -1.4948 -0.1482
  118MOL0     H15570   6.070   4.895   3.501  1.1279  0.1703 -1.3405
  118MOL0     H15571   6.047   4.995   3.358  1.7963  0.4858  2.3965
  118MOL0     H15572   5.954   4.714   3.369 -2.2817  1.6302 -0.2020
  118MOL0     H15573   5.894   4.831   3.250 -1.3448 -2.0145  0.2390
  118MOL0     H15574   6.271   4.700   3.109 -1.8813 -2.5132 -1.9193
  118MOL0     H15575   5.610   4.689   3.691 -1.6948 -0.8825  1.8254
  118MOL0     H15576   5.533   4.610   3.878  1.0316 -1.6978 -0.0642
  119MOL0     O15577   4.103   4.040   3.058  0.1480 -0.3546  0.0720
  119MOL0     C15578   4.109   3.921   3.097 -0.7391 -0.8860  0.6731
  119MOL0     O15579   4.014   3.830   3.066 -0.7766 -0.2250  0.9677
  119MOL0     C15580   3.892   3.886   3.044  1.5397  0.2130  0.2390
  119MOL0     C15581   3.806   3.896   3.150  0.4251  0.2906  0.4947
  119MOL0     C15582   3.687   3.964   3.139 -0.3556 -0.2382  0.9101
  119MOL0     C15583   3.647   4.025   3.018 -0.5610 -0.4715 -0.3630
  119MOL0     O15584   3.531   4.098   3.016 -0.7789 -0.3278  0.3632
  119MOL0     C15585   3.516   4.206   2.918  0.2374 -0.6322  0.3962
  119MOL0     C15586   3.366   4.224   2.894 -0.1178 -0.4818 -0.4598
  119MOL0     C15587   3.334   4.349   2.802 -0.0893  0.1596  0.1371
  119MOL0     C15588   3.180   4.390   2.819  0.0910 -0.1169 -0.8422
  119MOL0     C15589   3.169   4.535   2.793  1.1833 -0.1725 -1.1830
  119MOL0     C15590   3.209   4.586   2.651  0.6529  0.1484 -0.7404
  119MOL0     C15591   3.172   4.732   2.625  0.5693  0.2398 -0.9304
  119MOL0     C15592   3.248   4.840   2.716 -0.7553 -0.2567 -0.2679
  119MOL0     N15593   3.392   4.825   2.725 -0.1139  0.0533  0.6030
  119MOL0     C15594   3.464   4.775   2.838  0.2796 -0.8523  0.2414
  119MOL0     C15595   3.589   4.826   2.815 -0.4539  0.5276  1.2835
  119MOL0     C15596   3.701   4.821   2.916  0.6848 -0.5798  0.2475
  119MOL0     C15597   3.837   4.810   2.855 -0.1059  0.4022 -0.6872
  119MOL0     C15598   3.929   4.919   2.899  0.1989 -1.5793 -0.7445
  119MOL0     C15599   4.065   4.926   2.842 -0.4798 -0.1694 -0.6367
  119MOL0     O15600   4.148   5.022   2.923 -0.3984  0.0954  0.2329
  119MOL0     C15601   4.257   5.081   2.862  0.1010  0.6420  0.0695
  119MOL0     C15602   4.329   5.170   2.940  0.5107 -0.5178 -0.1563
  119MOL0     C15603   4.450   5.229   2.894 -0.8379  0.3876 -0.2606
  119MOL0     C15604   4.486   5.214   2.761 -1.0788 -0.4518  0.8777
  119MOL0     C15605   4.592   5.298   2.697 -0.0778  0.1543 -0.6771
  119MOL0     O15606   4.617   5.267   2.562 -0.1429 -0.0428  0.0746
  119MOL0     C15607   4.742   5.299   2.504  0.3620 -0.9493 -0.7560
  119MOL0     C15608   4.749   5.281   2.363  0.1473 -0.1179  0.4835
  119MOL0     C15609   4.876   5.287   2.294 -0.4460 -0.4158  0.6082
  119MOL0     C15610   4.989   5.337   2.367  0.5281 -0.1778 -0.0348
  119MOL0     O15611   5.118   5.342   2.314  0.0330 -0.5350  0.8415
  119MOL0     C15612   5.134   5.382   2.180  0.9165 -0.2548  0.2037
  119MOL0     C15613   5.278   5.389   2.145  0.1019  0.4078 -0.4364
  119MOL0     C15614   5.339   5.248   2.148  0.2159 -0.5139 -1.0102
  119MOL0     C15615   5.491   5.238   2.111 -0.2093  0.2148  0.2415
  119MOL0     C15616   5.555   5.096   2.134 -0.1992 -0.5785  0.1379
  119MOL0     C15617   5.505   4.979   2.041  0.7598  0.4356 -0.4487
  119MOL0     C15618   5.586   4.854   2.064 -0.4015 -0.5450  0.0235
  119MOL0     C15619   5.735   4.857   2.046  0.6698  0.4839  0.4906
  119MOL0    Cl15620   5.822   4.714   2.118  0.2392  0.1472  0.1852
  119MOL0     C15621   4.973   5.369   2.504  0.7074  0.5265 -0.2506
  119MOL0     C15622   4.855   5.345   2.571 -0.0714  0.4833 -0.2108
  119MOL0     O15623   4.638   5.394   2.763 -0.1407  0.6006  0.2428
  119MOL0     C15624   4.408   5.129   2.679 -0.1522  0.8434 -0.5761
  119MOL0     C15625   4.312   5.055   2.732  0.2186  0.4467  0.2052
  119MOL0     N15626   3.589   4.903   2.694 -0.4050  0.8845 -0.1146
  119MOL0     N15627   3.477   4.896   2.642  0.7261 -0.0357  1.1762
  119MOL0     C15628   3.731   3.986   2.904  0.7448  0.3507 -0.3983
  119MOL0     C15629   3.855   3.928   2.922 -0.4651 -0.2001 -0.3016
  119MOL0     C15630   4.240   3.886   3.126 -0.0780 -0.3263  0.3163
  119MOL0     C15631   4.320   3.962   3.209  0.0056  0.3110 -1.3184
  119MOL0     C15632   4.429   3.917   3.274  0.5971 -0.1291 -0.8950
  119MOL0     C15633   4.470   3.782   3.248 -0.5622 -0.4854 -0.6282
  119MOL0     O15634   4.588   3.754   3.312  0.5478  0.0545  0.3247
  119MOL0     C15635   4.657   3.634   3.298  0.5038  0.3494 -0.1085
  119MOL0     C15636   4.802   3.668   3.299 -0.1320  0.0835 -0.4273
  119MOL0     C15637   4.906   3.551   3.288 -0.7012 -0.9175  0.0886
  119MOL0     C15638   5.031   3.559   3.381  0.3171  0.2370  0.0489
  119MOL0     C15639   5.151   3.494   3.327 -0.1939 -0.0632  0.0791
  119MOL0     C15640   5.248   3.453   3.270 -0.1651  0.3555  0.0276
  119MOL0     C15641   4.402   3.706   3.166 -0.0474  0.6654  0.8156
  119MOL0     C15642   4.284   3.756   3.107  0.2857 -0.3848  0.0613
  119MOL0     H15643   3.849   3.857   3.242  0.9680  0.7375  0.4382
  119MOL0     H15644   3.629   3.989   3.228 -1.9282 -2.0647  0.4679
  119MOL0     H15645   3.568   4.176   2.826  1.0459 -1.9456  1.2605
  119MOL0     H15646   3.555   4.302   2.953  0.3854 -0.3409 -0.5162
  119MOL0     H15647   3.314   4.247   2.988 -1.6118 -0.4942 -1.2470
  119MOL0     H15648   3.339   4.127   2.853  3.9298 -2.3321  0.7440
  119MOL0     H15649   3.351   4.316   2.699 -2.3593  0.8703 -0.5271
  119MOL0     H15650   3.408   4.421   2.838  1.6614 -2.8855  3.1876
  119MOL0     H15651   3.113   4.337   2.750 -0.3350 -1.3682  0.4830
  119MOL0     H15652   3.148   4.373   2.922  1.7467  0.5324 -0.1915
  119MOL0     H15653   3.216   4.599   2.868  2.2092 -0.3318 -1.6708
  119MOL0     H15654   3.063   4.558   2.800  0.9725 -1.5734  1.0370
  119MOL0     H15655   3.140   4.528   2.589 -0.3550 -1.9572  2.1367
  119MOL0     H15656   3.315   4.565   2.632  0.3671 -0.8636 -1.2723
  119MOL0     H15657   3.187   4.753   2.519 -0.7596 -1.4261 -1.4750
  119MOL0     H15658   3.065   4.735   2.643  0.9764  0.9830  1.8462
  119MOL0     H15659   3.200   4.837   2.814 -1.0091  1.6275 -0.2928
  119MOL0     H15660   3.227   4.943   2.687  0.1814 -0.3940 -1.4862
  119MOL0     H15661   3.426   4.723   2.925  0.2499 -0.9985  0.1400
  119MOL0     H15662   3.670   4.739   2.982 -0.1317 -0.2346  0.3084
  119MOL0     H15663   3.687   4.905   2.985  2.9420  0.5855 -0.6056
  119MOL0     H15664   3.816   4.811   2.748 -4.2523  0.8026 -0.0268
  119MOL0     H15665   3.875   4.710   2.876 -3.0082 -0.3477  1.6382
  119MOL0     H15666   3.890   5.019   2.879  4.0466  0.2578  0.0927
  119MOL0     H15667   3.930   4.916   3.009  2.0407  2.9812 -0.4225
  119MOL0     H15668   4.051   4.958   2.738 -2.1317 -0.3653 -0.4976
  119MOL0     H15669   4.101   4.823   2.837 -1.0481 -0.4602  0.9500
  119MOL0     H15670   4.301   5.182   3.045 -0.6145 -1.9152 -0.2575
  119MOL0     H15671   4.509   5.298   2.954  0.7207  0.2050 -1.4881
  119MOL0     H15672   4.657   5.255   2.312 -0.4070  1.8315  0.4209
  119MOL0     H15673   4.877   5.241   2.196  0.5416 -3.8189  2.0740
  119MOL0     H15674   5.100   5.485   2.185 -0.5149 -0.7757  2.6843
  119MOL0     H15675   5.079   5.314   2.114  0.2197 -0.2020  0.7296
  119MOL0     H15676   5.334   5.448   2.217  1.0495  0.0117 -0.8291
  119MOL0     H15677   5.279   5.421   2.040  0.2255 -5.6824 -2.7461
  119MOL0     H15678   5.282   5.181   2.084 -1.0992 -3.7578  3.0904
  119MOL0     H15679   5.321   5.189   2.238  0.2025 -0.2425 -0.8323
  119MOL0     H15680   5.499   5.264   2.005  1.2126  0.0342  0.2847
  119MOL0     H15681   5.546   5.314   2.168 -1.7751  0.9278  0.8611
  119MOL0     H15682   5.540   5.064   2.237 -0.9614  0.5297  0.3918
  119MOL0     H15683   5.662   5.113   2.115  0.1410 -1.4158  1.2297
  119MOL0     H15684   5.499   5.019   1.939 -0.6252 -0.2162 -0.6429
  119MOL0     H15685   5.402   4.955   2.066 -0.0292  3.7613 -0.0660
  119MOL0     H15686   5.559   4.813   2.161 -0.7273 -1.8863 -0.6148
  119MOL0     H15687   5.545   4.776   1.999  1.2287 -4.3129  3.1720
  119MOL0     H15688   5.782   4.944   2.093  0.2538  0.8375  0.2624
  119MOL0     H15689   5.756   4.860   1.938  2.3103  6.1958  0.6378
  119MOL0     H15690   5.063   5.399   2.556  1.8699 -3.2585  0.2448
  119MOL0     H15691   4.846   5.374   2.675  0.9408 -1.1032  0.3621
  119MOL0     H15692   4.429   5.125   2.572  1.6512  0.3505 -0.2390
  119MOL0     H15693   4.265   4.982   2.668  2.1979  0.2119 -1.0478
  119MOL0     H15694   3.701   4.014   2.803 -1.2247  0.8880  0.2919
  119MOL0     H15695   3.915   3.900   2.836 -1.1760 -1.8204 -0.3059
  119MOL0     H15696   4.276   4.060   3.229  1.1556  0.9504 -1.8353
  119MOL0     H15697   4.493   3.990   3.323  0.3861 -0.4850 -0.0744
  119MOL0     H15698   4.629   3.581   3.206 -2.0379 -0.6837  1.1850
  119MOL0     H15699   4.632   3.569   3.383  0.6366  1.4643  0.8009
  119MOL0     H15700   4.821   3.745   3.223  2.1085  0.9674  0.9290
  119MOL0     H15701   4.831   3.711   3.395 -0.8238 -3.0091  1.2595
  119MOL0     H15702   4.944   3.560   3.186  1.6817  0.0379  0.9774
  119MOL0     H15703   4.857   3.454   3.297 -1.4428 -0.4906  0.8567
  119MOL0     H15704   5.043   3.663   3.414 -2.1120  0.9591 -1.0664
  119MOL0     H15705   5.005   3.509   3.475  0.5310  0.1222  0.0465
  119MOL0     H15706   5.319   3.391   3.220 -1.7177  0.5872 -2.6573
  119MOL0     H15707   4.443   3.605   3.156  1.3050  1.0469  2.0540
  119MOL0     H15708   4.210   3.686   3.069 -0.3182 -0.5904  1.5778
  120MOL0     O15709   1.813   4.623   9.818  0.1025  0.2401 -0.7109
  120MOL0     C15710   1.877   4.718   9.871  0.1859  0.9242  0.9751
  120MOL0     O15711   1.848   4.853   9.859  0.9205  0.1176 -0.8114
  120MOL0     C15712   1.746   4.890   9.778 -0.9558  0.2057  0.3171
  120MOL0     C15713   1.772   4.955   9.651  0.0971 -0.0919 -0.5397
  120MOL0     C15714   1.659   5.014   9.578 -0.9328  0.4113 -0.1857
  120MOL0     C15715   1.537   5.016   9.635 -0.5073 -0.4195  0.6474
  120MOL0     O15716   1.420   5.055   9.576  0.1752  0.7854 -0.6913
  120MOL0     C15717   1.415   5.058   9.436  0.3384  0.3076 -0.4749
  120MOL0     C15718   1.277   5.067   9.369 -0.2680 -0.5184  0.1164
  120MOL0     C15719   1.208   4.931   9.356  0.8361  0.1712 -0.0230
  120MOL0     C15720   1.064   4.927   9.313  0.4543  0.2836  0.0012
  120MOL0     C15721   1.031   4.979   9.181  0.8441 -0.4625 -0.3199
  120MOL0     C15722   0.890   4.953   9.123 -0.4227 -0.3791 -1.1755
  120MOL0     C15723   0.854   5.016   8.983  0.0805  0.8279  0.6447
  120MOL0     C15724   0.950   4.983   8.861 -0.3127  0.3333  0.2939
  120MOL0     N15725   1.092   5.041   8.873  0.4344 -1.3428  0.1915
  120MOL0     C15726   1.118   5.166   8.927 -0.2364  0.7755  0.0629
  120MOL0     C15727   1.255   5.175   8.943 -0.3493  0.3363  0.4636
  120MOL0     C15728   1.330   5.302   8.984  0.4187  1.1916 -0.2090
  120MOL0     C15729   1.321   5.413   8.878 -0.1614  0.1707  0.0023
  120MOL0     C15730   1.379   5.373   8.745 -0.5306 -0.2801  0.8102
  120MOL0     C15731   1.531   5.347   8.766 -0.3812  0.2541  0.3014
  120MOL0     O15732   1.589   5.354   8.630 -0.8006 -1.3489 -0.1018
  120MOL0     C15733   1.717   5.308   8.611  0.2441 -0.4983 -0.4374
  120MOL0     C15734   1.795   5.274   8.719 -0.4180  0.5221 -0.0792
  120MOL0     C15735   1.928   5.229   8.703 -0.8264 -0.7169  2.0921
  120MOL0     C15736   1.979   5.204   8.577 -0.4154 -0.5129  0.3699
  120MOL0     C15737   2.113   5.154   8.562 -0.8051 -0.9608  0.0130
  120MOL0     O15738   2.190   5.131   8.678 -0.1763 -0.2380  1.1756
  120MOL0     C15739   2.327   5.124   8.679  0.9259  0.3635  0.1374
  120MOL0     C15740   2.373   5.047   8.779  0.6119 -0.7746 -0.3656
  120MOL0     C15741   2.508   5.015   8.802  0.1894 -0.5150  0.7607
  120MOL0     C15742   2.599   5.065   8.714  0.0634  0.2867 -0.2038
  120MOL0     O15743   2.733   5.038   8.738  0.1274 -0.0081 -0.0605
  120MOL0     C15744   2.824   5.070   8.631 -0.1630  1.2995 -0.7032
  120MOL0     C15745   2.962   5.010   8.662  0.3191 -0.5333 -0.6293
  120MOL0     C15746   3.020   4.932   8.552  0.2765  0.3935 -0.7665
  120MOL0     C15747   3.131   4.834   8.585  0.1844 -0.3223 -0.0282
  120MOL0     C15748   3.139   4.742   8.454 -0.0605 -0.0861  0.1229
  120MOL0     C15749   3.222   4.620   8.488 -0.3932  0.5699  0.7557
  120MOL0     C15750   3.216   4.518   8.369 -0.6172  0.4313  0.2850
  120MOL0     C15751   3.307   4.393   8.391 -0.0066  0.4464 -0.4413
  120MOL0    Cl15752   3.232   4.278   8.499  0.3535 -0.4980  0.5050
  120MOL0     C15753   2.554   5.150   8.609  0.0673 -0.6076 -0.0136
  120MOL0     C15754   2.417   5.179   8.586 -0.4346  0.5806  0.2995
  120MOL0     O15755   2.151   5.125   8.450  1.0754  0.2079  0.1959
  120MOL0     C15756   1.901   5.237   8.463 -0.4044 -0.4808  0.1789
  120MOL0     C15757   1.772   5.296   8.485  0.0553 -0.0667  0.6927
  120MOL0     N15758   1.304   5.047   8.926  0.5032  0.4079 -1.0247
  120MOL0     N15759   1.209   4.976   8.879 -0.3206  0.1505 -0.3845
  120MOL0     C15760   1.520   4.951   9.751  1.4060  0.0205  0.2846
  120MOL0     C15761   1.622   4.890   9.830 -0.6137  0.5750 -0.9295
  120MOL0     C15762   1.970   4.685   9.978 -1.0086  0.6499 -0.3217
  120MOL0     C15763   2.055   4.779  10.044  0.1511 -0.6095  0.6691
  120MOL0     C15764   2.121   4.747  10.166  0.0188 -0.3541 -0.8535
  120MOL0     C15765   2.098   4.628  10.233 -0.1820  0.0233  1.0166
  120MOL0     O15766   2.180   4.593  10.344  0.8253 -0.2345  0.7813
  120MOL0     C15767   2.138   4.482  10.429 -0.3963 -0.1378 -0.3316
  120MOL0     C15768   2.004   4.494  10.503  0.2016 -0.2516 -0.2735
  120MOL0     C15769   1.992   4.640  10.564 -0.0845 -0.1332  0.3028
  120MOL0     C15770   1.859   4.661  10.617  0.6223  0.3422 -0.5232
  120MOL0     C15771   1.853   4.738  10.742 -0.6875  0.4541 -0.0862
  120MOL0     C15772   1.849   4.808  10.839  0.0717 -0.5940  0.1213
  120MOL0     C15773   2.006   4.538  10.172  0.6476  0.2829  0.0697
  120MOL0     C15774   1.945   4.567  10.050 -0.4144 -0.3750  0.1965
  120MOL0     H15775   1.877   4.956   9.624  0.5052  0.3153  0.9298
  120MOL0     H15776   1.674   5.068   9.486 -1.3915 -0.5841 -0.8657
  120MOL0     H15777   1.473   4.978   9.389  1.6022  1.3201 -0.6838
  120MOL0     H15778   1.459   5.151   9.399  0.3829 -0.3069 -2.0167
  120MOL0     H15779   1.291   5.111   9.270 -1.0993  0.9036  0.6083
  120MOL0     H15780   1.209   5.130   9.428  3.1820  1.4343  2.3757
  120MOL0     H15781   1.210   4.885   9.456 -0.1947 -3.5366 -1.5238
  120MOL0     H15782   1.278   4.878   9.290  0.5614  0.2247 -0.3576
  120MOL0     H15783   1.029   4.825   9.330 -0.9403  0.8672  0.8665
  120MOL0     H15784   1.001   4.981   9.385 -1.7734 -2.1797  0.0572
  120MOL0     H15785   1.109   4.940   9.116  0.6758  1.0745 -1.5109
  120MOL0     H15786   1.055   5.086   9.184  1.1736 -0.5378 -0.1662
  120MOL0     H15787   0.810   4.981   9.193 -0.8422 -1.5469 -1.1561
  120MOL0     H15788   0.889   4.846   9.101  2.4635 -0.6022 -0.6445
  120MOL0     H15789   0.754   4.985   8.952  0.9676  0.1692 -1.8110
  120MOL0     H15790   0.832   5.123   8.982  0.7699  0.9755 -0.1938
  120MOL0     H15791   0.904   5.024   8.770  1.4149  0.0111 -0.7765
  120MOL0     H15792   0.962   4.875   8.850  4.4413  0.5615  1.0662
  120MOL0     H15793   1.041   5.243   8.933  0.9016  1.8476  2.6231
  120MOL0     H15794   1.430   5.263   9.007 -0.6030 -3.0570 -2.0660
  120MOL0     H15795   1.283   5.333   9.078 -1.7719 -2.6449  0.1682
  120MOL0     H15796   1.376   5.499   8.920 -2.1252  0.5154  2.0772
  120MOL0     H15797   1.222   5.459   8.879  0.7367  2.3928  2.9347
  120MOL0     H15798   1.324   5.292   8.697 -1.0681  0.2209  0.5561
  120MOL0     H15799   1.365   5.445   8.663  4.3838 -4.6406 -4.6943
  120MOL0     H15800   1.541   5.244   8.803 -1.1115  0.4526  1.0697
  120MOL0     H15801   1.576   5.423   8.830 -0.5927 -0.1608  0.9472
  120MOL0     H15802   1.765   5.299   8.820 -1.3383 -0.3036 -0.1397
  120MOL0     H15803   1.990   5.210   8.790 -0.8740 -2.2322  1.8314
  120MOL0     H15804   2.307   5.023   8.862 -0.8558  0.9646 -0.9733
  120MOL0     H15805   2.529   4.961   8.894 -0.8141 -0.5659  0.9634
  120MOL0     H15806   2.819   5.179   8.633  0.5582  1.3794  2.6341
  120MOL0     H15807   2.799   5.023   8.535  1.5155 -0.6880 -0.2383
  120MOL0     H15808   2.952   4.948   8.752  1.5983  2.0050  1.3753
  120MOL0     H15809   3.027   5.097   8.678  0.6307 -0.7971 -0.4495
  120MOL0     H15810   3.055   4.998   8.473 -0.2712  0.5970 -0.8391
  120MOL0     H15811   2.937   4.869   8.518  0.2691 -0.3938  0.6005
  120MOL0     H15812   3.225   4.891   8.587  1.5003 -2.3825  0.2198
  120MOL0     H15813   3.133   4.789   8.685  2.5446 -0.1622  0.0654
  120MOL0     H15814   3.188   4.804   8.379 -0.8452  0.0421 -0.2969
  120MOL0     H15815   3.038   4.706   8.430  0.1876 -0.6867 -0.0422
  120MOL0     H15816   3.185   4.570   8.578 -2.5311  0.8651  0.0773
  120MOL0     H15817   3.317   4.672   8.502 -1.6939  3.8937 -1.5742
  120MOL0     H15818   3.112   4.491   8.348 -1.1076  1.6131  1.1005
  120MOL0     H15819   3.248   4.562   8.274  0.1347 -1.4673 -0.3978
  120MOL0     H15820   3.401   4.431   8.432 -1.7371  0.3228  4.2829
  120MOL0     H15821   3.323   4.341   8.296 -2.8246 -2.3977  0.4992
  120MOL0     H15822   2.625   5.190   8.537  1.1205 -1.1299  0.7036
  120MOL0     H15823   2.380   5.233   8.499 -2.2132 -1.5082 -0.3338
  120MOL0     H15824   1.929   5.222   8.359 -1.9632  1.0288 -0.5030
  120MOL0     H15825   1.705   5.324   8.404  0.1162  1.8896  1.2618
  120MOL0     H15826   1.422   4.949   9.799  0.5207  3.4195 -1.1073
  120MOL0     H15827   1.602   4.845   9.926 -0.3961  1.4546 -0.4603
  120MOL0     H15828   2.050   4.873   9.991  0.4686 -0.5024  0.8309
  120MOL0     H15829   2.188   4.816  10.216 -2.4036 -0.3062  2.7075
  120MOL0     H15830   2.214   4.460  10.505  2.2287 -0.8973 -2.9806
  120MOL0     H15831   2.133   4.387  10.375  0.1908  0.0881 -0.7937
  120MOL0     H15832   1.929   4.473  10.425  3.2014 -1.4702 -3.0485
  120MOL0     H15833   1.991   4.413  10.576 -1.8462  0.0495 -0.2400
  120MOL0     H15834   2.013   4.707  10.480  0.4591  0.6657  1.0620
  120MOL0     H15835   2.072   4.666  10.634  0.4696  0.2289 -0.4523
  120MOL0     H15836   1.811   4.713  10.534  2.4667 -0.1871 -1.9685
  120MOL0     H15837   1.797   4.571  10.628 -0.9752  1.4353 -0.1375
  120MOL0     H15838   1.836   4.872  10.924 -0.9564 -0.9025  0.2057
  120MOL0     H15839   1.990   4.443  10.221 -1.3853  1.9702  3.0252
  120MOL0     H15840   1.888   4.482  10.013  1.3756 -0.6447 -2.1665
  121MOL0     O15841   9.972   6.098  11.027  0.0501 -0.1798 -0.0093
  121MOL0     C15842  10.037   6.079  11.127 -0.0964  0.1743  0.0079
  121MOL0     O15843   9.988   6.011  11.234  0.1719 -0.5060  0.3651
  121MOL0     C15844   9.863   5.969  11.225  0.9598 -0.6601  0.5584
  121MOL0     C15845   9.766   6.063  11.263  0.0806 -1.0734 -0.1631
  121MOL0     C15846   9.632   6.016  11.282 -0.2373 -0.0618  0.1772
  121MOL0     C15847   9.594   5.883  11.260 -0.0923  0.1866 -0.6735
  121MOL0     O15848   9.463   5.836  11.278 -0.0677  0.3482 -0.0431
  121MOL0     C15849   9.362   5.926  11.324  0.3930  0.5445 -0.0999
  121MOL0     C15850   9.263   5.845  11.410  0.6702 -0.1573  0.2699
  121MOL0     C15851   9.169   5.742  11.332  0.1484  0.2608  0.4387
  121MOL0     C15852   9.117   5.626  11.411  0.5031  0.2509  0.0268
  121MOL0     C15853   9.012   5.547  11.329  0.6126 -0.5128 -0.2522
  121MOL0     C15854   8.861   5.562  11.355 -0.7415 -0.9354 -0.0092
  121MOL0     C15855   8.786   5.447  11.303 -0.1619  0.0315  0.4449
  121MOL0     C15856   8.642   5.454  11.321 -0.2982  0.3479 -0.0841
  121MOL0     N15857   8.583   5.322  11.315 -0.5620 -0.1642 -0.2729
  121MOL0     C15858   8.533   5.253  11.213  0.2363  0.0310  0.0907
  121MOL0     C15859   8.484   5.139  11.279  0.7723 -0.4846  0.6736
  121MOL0     C15860   8.387   5.040  11.219 -0.5654  1.3672 -0.2359
  121MOL0     C15861   8.262   5.103  11.167 -0.5472 -0.3726  0.6636
  121MOL0     C15862   8.152   5.008  11.139  1.1302  0.5983  0.0055
  121MOL0     C15863   8.158   4.909  11.028  0.5595 -0.0857 -0.1147
  121MOL0     O15864   8.080   4.796  11.046  0.3571  0.9190  0.3914
  121MOL0     C15865   7.956   4.817  11.104  0.2114 -0.3326 -0.4208
  121MOL0     C15866   7.942   4.789  11.239  0.2390  0.2584  0.6092
  121MOL0     C15867   7.816   4.806  11.300 -0.5487 -0.1147  0.0159
  121MOL0     C15868   7.718   4.878  11.237  0.0830  0.1778 -0.5852
  121MOL0     C15869   7.599   4.932  11.318 -0.4600  0.8642  0.0028
  121MOL0     O15870   7.587   4.898  11.448  0.0972  0.4683  0.3854
  121MOL0     C15871   7.479   4.940  11.521 -0.0871 -0.3936 -0.0750
  121MOL0     C15872   7.351   4.871  11.515 -0.5381  0.3238 -0.2270
  121MOL0     C15873   7.237   4.916  11.589  0.0730  1.3577 -0.4475
  121MOL0     C15874   7.246   5.040  11.658 -1.3286  0.4374  0.2248
  121MOL0     O15875   7.128   5.086  11.713 -0.0885 -0.0901  0.6050
  121MOL0     C15876   7.112   5.231  11.710  0.1234  1.0393  0.4227
  121MOL0     C15877   6.964   5.268  11.743 -0.5834  0.7813 -0.8468
  121MOL0     C15878   6.946   5.274  11.895  0.4073  0.2403  0.1985
  121MOL0     C15879   6.793   5.263  11.922 -0.2184  0.1534 -0.5206
  121MOL0     C15880   6.778   5.304  12.064  0.0345  0.5913  0.1307
  121MOL0     C15881   6.638   5.334  12.095 -1.0277 -0.9212 -0.8948
  121MOL0     C15882   6.544   5.215  12.110  0.5575 -0.2667  0.1534
  121MOL0     C15883   6.396   5.253  12.129  0.0982  0.1778  0.6616
  121MOL0    Cl15884   6.365   5.357  12.261 -0.2246 -0.3622 -0.7173
  121MOL0     C15885   7.368   5.115  11.668 -0.1870  0.0648 -0.4902
  121MOL0     C15886   7.478   5.062  11.594  0.3843 -0.2170 -0.5903
  121MOL0     O15887   7.506   4.973  11.245  0.0673 -1.0917 -0.3800
  121MOL0     C15888   7.727   4.898  11.100  0.4235 -0.4516  0.6156
  121MOL0     C15889   7.844   4.868  11.037  0.4396 -0.4887  0.1158
  121MOL0     N15890   8.513   5.141  11.410  1.0141 -0.7139 -0.0450
  121MOL0     N15891   8.564   5.259  11.431  0.3394  0.8646 -0.3870
  121MOL0     C15892   9.694   5.795  11.227 -1.6375 -0.2509  0.7783
  121MOL0     C15893   9.827   5.831  11.201  0.2683  0.0120  0.1020
  121MOL0     C15894  10.180   6.103  11.135 -0.1479  0.6064  0.8589
  121MOL0     C15895  10.252   6.097  11.252  0.4378 -0.8095 -1.1649
  121MOL0     C15896  10.391   6.092  11.259  0.4236 -0.2493 -0.6184
  121MOL0     C15897  10.469   6.117  11.146 -0.3340 -0.2312  0.1455
  121MOL0     O15898  10.598   6.127  11.162  0.4667  0.8722 -0.1968
  121MOL0     C15899  10.672   6.125  11.048 -1.1013  0.4800  0.0226
  121MOL0     C15900  10.817   6.081  11.075 -0.3082 -0.2793 -0.2028
  121MOL0     C15901  10.917   6.093  10.958 -0.1393  0.3229  0.3000
  121MOL0     C15902  11.053   6.033  10.985  0.6611 -0.4407  0.0602
  121MOL0     C15903  11.114   6.097  11.105 -0.8029  0.5126 -0.9198
  121MOL0     C15904  11.174   6.132  11.208  1.1880  0.4425  0.6831
  121MOL0     C15905  10.398   6.136  11.021  0.4885 -0.5952  0.6882
  121MOL0     C15906  10.260   6.117  11.018 -0.2262 -0.6694  1.2346
  121MOL0     H15907   9.801   6.162  11.290 -2.6854 -0.7426  2.8094
  121MOL0     H15908   9.558   6.085  11.321  0.3258  1.4017 -1.2115
  121MOL0     H15909   9.304   5.970  11.242  2.3724  1.6435 -0.9952
  121MOL0     H15910   9.395   6.000  11.398 -3.3847 -1.7263  4.3335
  121MOL0     H15911   9.199   5.911  11.470  0.7934 -1.1822  1.5660
  121MOL0     H15912   9.315   5.778  11.479  0.5058  0.5147  1.0555
  121MOL0     H15913   9.240   5.710  11.255 -1.1900  1.0469 -1.1773
  121MOL0     H15914   9.090   5.805  11.290  1.4567  2.4359  1.0455
  121MOL0     H15915   9.187   5.548  11.442 -1.0778 -0.2128  2.7582
  121MOL0     H15916   9.060   5.657  11.499 -1.9563 -0.5104 -1.2069
  121MOL0     H15917   9.038   5.441  11.336  0.9243 -0.9623 -5.0102
  121MOL0     H15918   9.033   5.563  11.223 -0.3000 -1.3587 -0.5692
  121MOL0     H15919   8.836   5.658  11.310  0.5542  0.5298  2.2306
  121MOL0     H15920   8.841   5.574  11.462 -0.5296  2.3031 -0.2532
  121MOL0     H15921   8.812   5.433  11.197 -1.4352  0.0777  0.1155
  121MOL0     H15922   8.818   5.356  11.355 -1.2575 -0.5150  0.1859
  121MOL0     H15923   8.597   5.516  11.243  0.6461 -0.2629 -1.1477
  121MOL0     H15924   8.639   5.493  11.424  4.5340 -1.3099  0.9909
  121MOL0     H15925   8.522   5.279  11.108 -0.3401 -0.9152 -0.0959
  121MOL0     H15926   8.362   4.966  11.296 -2.3323 -1.2270 -3.0927
  121MOL0     H15927   8.431   4.982  11.138 -0.1507 -2.4705  2.4403
  121MOL0     H15928   8.284   5.154  11.073  0.4396 -1.5916  0.2105
  121MOL0     H15929   8.231   5.173  11.245 -1.9826  1.0684 -1.1056
  121MOL0     H15930   8.132   4.966  11.238 -1.1711 -0.6573 -0.9019
  121MOL0     H15931   8.058   5.061  11.122 -0.2150 -1.7390 -0.2922
  121MOL0     H15932   8.261   4.873  11.022  0.9577  0.7846  1.0976
  121MOL0     H15933   8.128   4.956  10.934  0.3247 -1.8192 -0.9458
  121MOL0     H15934   8.024   4.746  11.296  0.9116 -0.4705 -0.8749
  121MOL0     H15935   7.793   4.784  11.404  2.7647 -2.2209  0.4641
  121MOL0     H15936   7.339   4.774  11.467  0.3028 -1.6757  3.2717
  121MOL0     H15937   7.151   4.850  11.598  1.9260 -0.9029  2.5299
  121MOL0     H15938   7.133   5.271  11.611 -1.2783 -0.4754 -0.5504
  121MOL0     H15939   7.176   5.287  11.779 -0.3907  3.3992 -0.9044
  121MOL0     H15940   6.894   5.198  11.696 -0.3055 -1.4270  1.7995
  121MOL0     H15941   6.941   5.366  11.700 -2.7859  0.5043 -0.4116
  121MOL0     H15942   7.003   5.362  11.927 -0.3171  0.8488 -0.1381
  121MOL0     H15943   6.998   5.196  11.951  0.4634 -0.6987 -1.1197
  121MOL0     H15944   6.738   5.332  11.857  0.5940  3.1130  1.7264
  121MOL0     H15945   6.754   5.161  11.909  1.8400 -0.7348 -0.2021
  121MOL0     H15946   6.844   5.390  12.080 -0.4663  0.9838  0.1174
  121MOL0     H15947   6.811   5.222  12.129 -0.6559  1.7632  2.0489
  121MOL0     H15948   6.599   5.399  12.015 -2.9657 -1.7176 -0.6470
  121MOL0     H15949   6.631   5.382  12.193  1.5223 -2.4393  0.1060
  121MOL0     H15950   6.558   5.151  12.022  3.9142 -0.0176  0.3942
  121MOL0     H15951   6.569   5.160  12.202 -1.8796  0.9583  1.6453
  121MOL0     H15952   6.337   5.164  12.152 -0.0177  0.1162  0.1349
  121MOL0     H15953   6.349   5.298  12.041 -1.4965  0.1914  1.4866
  121MOL0     H15954   7.397   5.209  11.715  1.6272 -0.2384 -0.9089
  121MOL0     H15955   7.573   5.113  11.603 -0.4468  1.5539 -1.3325
  121MOL0     H15956   7.655   4.962  11.050  1.2666 -0.3654 -0.5372
  121MOL0     H15957   7.854   4.901  10.934 -0.8737 -1.1577 -0.2474
  121MOL0     H15958   9.664   5.693  11.207  2.0006 -0.8112 -3.5352
  121MOL0     H15959   9.912   5.763  11.195  0.8021  0.6874 -0.1245
  121MOL0     H15960  10.199   6.089  11.346  1.5575 -1.8115 -0.5928
  121MOL0     H15961  10.452   6.084  11.348  2.2333  1.3806 -1.6084
  121MOL0     H15962  10.673   6.228  11.011  0.0467 -0.5180 -3.0099
  121MOL0     H15963  10.635   6.053  10.975 -1.3592 -0.8937  1.4675
  121MOL0     H15964  10.849   6.132  11.167  0.2106 -3.6274  1.6478
  121MOL0     H15965  10.826   5.976  11.106 -1.0772 -0.7796 -1.6189
  121MOL0     H15966  10.928   6.198  10.932 -0.7110  0.3241  0.0586
  121MOL0     H15967  10.871   6.049  10.869  0.0837 -1.9738  1.2286
  121MOL0     H15968  11.031   5.927  10.995  0.4950 -0.4469 -0.3377
  121MOL0     H15969  11.111   6.040  10.892 -2.5485  1.3594 -2.0405
  121MOL0     H15970  11.215   6.150  11.305  0.4109 -1.0956  1.3374
  121MOL0     H15971  10.449   6.175  10.933 -2.0662  1.3003 -0.0966
  121MOL0     H15972  10.201   6.129  10.928  1.3082  2.3850  0.4832
  122MOL0     O15973   5.395   2.539   8.116 -0.1331 -0.3843 -0.2346
  122MOL0     C15974   5.440   2.631   8.181  0.0450  0.2453 -0.4214
  122MOL0     O15975   5.372   2.717   8.252 -0.1388 -1.5773  0.1316
  122MOL0     C15976   5.241   2.711   8.249  0.1420 -0.1566 -0.1037
  122MOL0     C15977   5.170   2.771   8.151  0.7031  0.6427 -0.2853
  122MOL0     C15978   5.032   2.748   8.151 -0.4669  0.8082 -0.7445
  122MOL0     C15979   4.959   2.682   8.245 -0.8568  0.2990 -0.2993
  122MOL0     O15980   4.828   2.673   8.234  0.1738  0.0309  0.3127
  122MOL0     C15981   4.760   2.592   8.329 -1.0893  0.6963 -0.1119
  122MOL0     C15982   4.621   2.587   8.274  0.2304 -0.2805 -0.4131
  122MOL0     C15983   4.522   2.520   8.363  0.4387  0.5089 -0.1814
  122MOL0     C15984   4.542   2.542   8.516 -0.5014  0.2136  0.1392
  122MOL0     C15985   4.416   2.503   8.597  0.3313  0.8375  0.4357
  122MOL0     C15986   4.372   2.363   8.555  0.4033  1.1929  0.3269
  122MOL0     C15987   4.292   2.295   8.668 -0.0947  0.0316  0.7656
  122MOL0     C15988   4.213   2.177   8.621 -1.0674 -0.5464 -0.1536
  122MOL0     N15989   4.102   2.149   8.710 -0.2064 -0.1210 -0.1963
  122MOL0     C15990   3.971   2.114   8.670  0.3178 -0.1605  1.1218
  122MOL0     C15991   3.926   2.043   8.773 -0.3502 -0.9448 -0.3037
  122MOL0     C15992   3.806   1.962   8.768  0.6670  0.1109 -0.5368
  122MOL0     C15993   3.840   1.816   8.742  0.3677 -0.2562  1.2210
  122MOL0     C15994   3.877   1.736   8.879  0.0465 -0.5639  0.6677
  122MOL0     C15995   3.865   1.581   8.866 -0.5244 -0.0921 -0.2868
  122MOL0     O15996   3.747   1.527   8.816  0.5295 -1.3629  0.1291
  122MOL0     C15997   3.627   1.559   8.881  0.2005  0.1645  0.5102
  122MOL0     C15998   3.610   1.578   9.018  0.4544  0.4431  0.9266
  122MOL0     C15999   3.487   1.587   9.083 -0.2973 -1.1486  0.5095
  122MOL0     C16000   3.367   1.586   9.006 -0.3229 -0.0802  0.4095
  122MOL0     C16001   3.239   1.583   9.076  0.1008 -0.2870 -0.8800
  122MOL0     O16002   3.123   1.601   9.004  0.8591  0.7150  0.3021
  122MOL0     C16003   3.013   1.570   9.072  0.1865  0.2000 -0.7160
  122MOL0     C16004   2.974   1.446   9.124 -1.1693 -0.3344  0.0800
  122MOL0     C16005   2.842   1.429   9.167  0.3247  0.0431 -1.1244
  122MOL0     C16006   2.755   1.533   9.176  0.8366 -0.3106  0.9394
  122MOL0     O16007   2.626   1.500   9.191 -0.1691  0.6898  0.4723
  122MOL0     C16008   2.530   1.544   9.095 -0.2427  0.7102  0.2520
  122MOL0     C16009   2.400   1.479   9.134  0.1144 -0.6581 -0.3148
  122MOL0     C16010   2.310   1.482   9.016  0.6847  0.5749 -0.7719
  122MOL0     C16011   2.208   1.366   9.014  0.1278 -0.1435  0.6044
  122MOL0     C16012   2.131   1.376   8.881  0.7271 -0.1844 -0.2314
  122MOL0     C16013   2.064   1.243   8.880 -1.1840 -0.4596  0.9764
  122MOL0     C16014   2.013   1.220   8.740  0.7119 -0.1907 -0.2033
  122MOL0     C16015   1.897   1.324   8.706  0.8483  0.1095  1.1974
  122MOL0    Cl16016   1.817   1.275   8.550 -0.0861  0.1408  0.3848
  122MOL0     C16017   2.793   1.661   9.144  0.4679 -0.7792 -0.0764
  122MOL0     C16018   2.925   1.679   9.086  0.2614  0.1241  0.0018
  122MOL0     O16019   3.248   1.566   9.198 -0.5386 -0.2668 -0.3057
  122MOL0     C16020   3.379   1.584   8.866  0.1946 -0.1347  0.1090
  122MOL0     C16021   3.505   1.560   8.807 -0.2322 -0.1627  0.0423
  122MOL0     N16022   4.009   2.068   8.882  0.3029 -0.1105 -0.7690
  122MOL0     N16023   4.116   2.141   8.847  0.3636  1.0134  0.2427
  122MOL0     C16024   5.042   2.616   8.348  0.7335  1.0298  0.9415
  122MOL0     C16025   5.178   2.629   8.346  0.0888  0.0519 -0.4340
  122MOL0     C16026   5.585   2.641   8.190  0.8812  0.4218  0.3686
  122MOL0     C16027   5.640   2.759   8.242  0.1383  0.5644 -0.4868
  122MOL0     C16028   5.780   2.771   8.260  0.5405  0.1956 -1.2019
  122MOL0     C16029   5.863   2.668   8.224 -0.1185 -0.0058  0.4592
  122MOL0     O16030   5.996   2.670   8.226 -0.2955  0.5267 -0.2371
  122MOL0     C16031   6.073   2.786   8.281  0.5171  0.3841  0.4450
  122MOL0     C16032   6.218   2.750   8.291 -0.0219  1.1114  0.2555
  122MOL0     C16033   6.302   2.866   8.332  0.4515  0.2379  0.3752
  122MOL0     C16034   6.446   2.827   8.352 -0.1326 -0.2354 -0.0744
  122MOL0     C16035   6.520   2.960   8.365 -0.1141  0.3980  0.1620
  122MOL0     C16036   6.576   3.071   8.369  0.5679 -0.0158 -0.4240
  122MOL0     C16037   5.812   2.549   8.179 -0.3453  0.1532  0.4673
  122MOL0     C16038   5.671   2.533   8.153 -0.8412 -0.0934 -0.5388
  122MOL0     H16039   5.215   2.808   8.059 -1.8371 -0.6388 -2.1972
  122MOL0     H16040   4.982   2.795   8.068 -0.0262  0.0782 -1.4343
  122MOL0     H16041   4.768   2.652   8.420 -0.9976  0.8960 -0.2514
  122MOL0     H16042   4.795   2.492   8.353  1.0007  1.5411  0.6088
  122MOL0     H16043   4.627   2.535   8.178 -0.2932 -2.4277  0.6452
  122MOL0     H16044   4.596   2.693   8.266  1.4297  0.2960  2.4691
  122MOL0     H16045   4.517   2.411   8.353  2.2077 -0.0345  3.1038
  122MOL0     H16046   4.426   2.561   8.331 -0.6911 -1.4385  0.5462
  122MOL0     H16047   4.622   2.485   8.566  0.4185  0.8774 -0.5585
  122MOL0     H16048   4.567   2.647   8.535 -2.9926  1.4198 -2.6443
  122MOL0     H16049   4.338   2.580   8.600  1.1724  1.6775  1.2463
  122MOL0     H16050   4.452   2.500   8.700  0.7448 -1.9194  0.2918
  122MOL0     H16051   4.449   2.293   8.520 -3.5423 -2.9176 -1.0620
  122MOL0     H16052   4.304   2.371   8.470  0.1679 -0.8771  0.2685
  122MOL0     H16053   4.368   2.281   8.745  0.3951  2.1909  0.7439
  122MOL0     H16054   4.215   2.360   8.710  1.1031  2.1457 -0.1751
  122MOL0     H16055   4.273   2.085   8.619 -0.4649 -0.1597 -1.7130
  122MOL0     H16056   4.170   2.185   8.521 -1.0763 -1.8629 -0.2691
  122MOL0     H16057   3.925   2.126   8.573  0.7451  1.2441  1.0679
  122MOL0     H16058   3.736   2.000   8.693  1.3028  3.7436  0.5001
  122MOL0     H16059   3.757   1.964   8.866  1.5410 -0.6502 -0.0679
  122MOL0     H16060   3.920   1.810   8.668 -0.4363 -1.1284  0.3986
  122MOL0     H16061   3.752   1.763   8.703  0.3948 -0.6811  1.7194
  122MOL0     H16062   3.979   1.766   8.903 -0.2563  2.0227 -0.9237
  122MOL0     H16063   3.808   1.748   8.962 -1.5747 -2.0704 -0.3721
  122MOL0     H16064   3.894   1.542   8.965 -2.3701  0.2186  0.4133
  122MOL0     H16065   3.946   1.551   8.799 -1.4518 -2.7781 -0.3267
  122MOL0     H16066   3.699   1.575   9.080 -1.0999 -1.4787  3.2550
  122MOL0     H16067   3.487   1.593   9.191  2.4998  3.3225  0.4897
  122MOL0     H16068   3.041   1.361   9.116 -2.1558 -1.2432  1.0601
  122MOL0     H16069   2.808   1.331   9.199 -1.7703 -0.3731 -4.0986
  122MOL0     H16070   2.564   1.504   8.999  0.7705  0.7932  0.5646
  122MOL0     H16071   2.525   1.653   9.088 -0.4900  0.8752  2.2363
  122MOL0     H16072   2.347   1.512   9.224  1.1963 -1.3106  0.5762
  122MOL0     H16073   2.424   1.377   9.165  1.5266 -0.3554 -0.3758
  122MOL0     H16074   2.362   1.473   8.920 -0.5031 -4.7342 -1.2317
  122MOL0     H16075   2.254   1.574   9.034  1.8049  1.0156  0.6204
  122MOL0     H16076   2.254   1.268   9.032 -0.1259 -0.3577  0.1097
  122MOL0     H16077   2.140   1.392   9.096 -0.7513  0.6991 -0.3665
  122MOL0     H16078   2.192   1.396   8.792  0.5789 -0.0787 -0.3082
  122MOL0     H16079   2.050   1.449   8.878  0.1798 -0.8006 -2.9102
  122MOL0     H16080   1.979   1.236   8.948 -3.7232  0.8668 -1.8171
  122MOL0     H16081   2.130   1.159   8.904 -1.4425 -1.0581 -0.3101
  122MOL0     H16082   2.086   1.215   8.659 -1.5089 -1.2675 -2.2405
  122MOL0     H16083   1.975   1.118   8.735  2.1506 -0.7876  0.2372
  122MOL0     H16084   1.927   1.425   8.678  0.2519 -0.6782 -2.9977
  122MOL0     H16085   1.828   1.310   8.789 -0.0087 -0.8069  0.3562
  122MOL0     H16086   2.725   1.744   9.158 -0.6683 -1.6011 -0.5291
  122MOL0     H16087   2.949   1.781   9.057 -5.1868  1.6402 -0.3321
  122MOL0     H16088   3.299   1.586   8.792 -1.7827 -0.3685  2.1249
  122MOL0     H16089   3.510   1.535   8.702  0.3756  0.4415 -0.0843
  122MOL0     H16090   4.993   2.556   8.423  1.7444 -2.9806 -1.3142
  122MOL0     H16091   5.238   2.579   8.421 -0.4448  1.2370  0.8231
  122MOL0     H16092   5.576   2.839   8.278  0.5396 -0.4579  2.9556
  122MOL0     H16093   5.826   2.853   8.315 -1.1858 -0.6951  1.7908
  122MOL0     H16094   6.033   2.817   8.378 -0.5143 -0.4962  0.3137
  122MOL0     H16095   6.057   2.872   8.214  0.2781  0.5802  0.7519
  122MOL0     H16096   6.232   2.662   8.355 -4.3366 -0.5654 -0.7520
  122MOL0     H16097   6.250   2.722   8.191 -0.4029 -0.5211  0.5550
  122MOL0     H16098   6.271   2.933   8.413 -1.8213  4.5772 -3.5600
  122MOL0     H16099   6.295   2.935   8.247 -1.5051  0.0988  0.3780
  122MOL0     H16100   6.464   2.775   8.446  1.3718 -0.2083 -0.3073
  122MOL0     H16101   6.487   2.767   8.270 -1.1528 -1.5069  0.3183
  122MOL0     H16102   6.642   3.155   8.371  1.8936 -1.0301  0.7794
  122MOL0     H16103   5.872   2.465   8.145  1.2992  1.9333 -1.3309
  122MOL0     H16104   5.641   2.433   8.124  5.7230 -3.4376  2.0684
  123MOL0     O16105   9.265   2.804  10.763 -0.0188  0.1997  0.4470
  123MOL0     C16106   9.322   2.882  10.840 -0.9192 -0.1726 -0.2198
  123MOL0     O16107   9.259   2.991  10.898  0.8068 -0.3061  0.5490
  123MOL0     C16108   9.131   3.029  10.872  0.0865  0.3628  0.4659
  123MOL0     C16109   9.031   2.986  10.959  0.2210 -0.5663  0.8026
  123MOL0     C16110   8.898   3.019  10.931  0.4454  0.1112  0.0930
  123MOL0     C16111   8.866   3.087  10.816 -0.6642 -0.1303 -0.6618
  123MOL0     O16112   8.737   3.107  10.785  0.3886 -0.0359 -0.0958
  123MOL0     C16113   8.624   3.120  10.871  0.1776 -0.4896  0.6341
  123MOL0     C16114   8.500   3.187  10.795 -0.0974 -0.5265 -0.3110
  123MOL0     C16115   8.444   3.107  10.675  0.1580  0.5253 -0.3212
  123MOL0     C16116   8.322   3.187  10.604 -0.5270 -0.2819 -0.5597
  123MOL0     C16117   8.291   3.124  10.471  0.2289  0.1388 -0.0723
  123MOL0     C16118   8.248   2.974  10.471  0.4023  0.6739 -0.9268
  123MOL0     C16119   8.094   2.974  10.453 -0.5424 -0.3802  0.3637
  123MOL0     C16120   8.018   2.993  10.583 -0.0803 -0.0832 -0.0005
  123MOL0     N16121   7.875   2.979  10.554 -0.0475 -0.4565  0.5197
  123MOL0     C16122   7.767   3.056  10.596 -0.9001  0.1522  0.4076
  123MOL0     C16123   7.663   2.969  10.579 -0.1748  1.0659 -0.0772
  123MOL0     C16124   7.519   3.017  10.603 -0.2425 -0.0085  0.0292
  123MOL0     C16125   7.439   3.055  10.469 -0.4959 -0.1180  0.3649
  123MOL0     C16126   7.417   2.933  10.374  0.0348  0.4528  0.2788
  123MOL0     C16127   7.361   2.796  10.428 -0.1134 -0.8344 -0.3531
  123MOL0     O16128   7.253   2.823  10.528 -0.0430 -0.0324  0.5777
  123MOL0     C16129   7.126   2.838  10.481  0.3946 -0.5615 -1.0464
  123MOL0     C16130   7.065   2.786  10.367 -0.1732  0.3508  0.3586
  123MOL0     C16131   6.930   2.808  10.334  0.3518 -1.0523  1.3843
  123MOL0     C16132   6.843   2.872  10.423  0.3735  0.2497  0.9942
  123MOL0     C16133   6.697   2.905  10.404 -0.1456  0.2325  1.0028
  123MOL0     O16134   6.649   2.890  10.271  0.8565  0.0513  0.4713
  123MOL0     C16135   6.520   2.916  10.220 -0.5162  0.8785 -0.3285
  123MOL0     C16136   6.515   2.935  10.087  0.0706 -0.1570  0.3867
  123MOL0     C16137   6.391   2.973  10.025 -0.3616  0.0722 -0.3932
  123MOL0     C16138   6.275   2.984  10.100  0.1746 -0.0671 -0.7046
  123MOL0     O16139   6.162   3.036  10.034 -0.6373 -0.2245  0.5215
  123MOL0     C16140   6.031   3.029  10.092  0.7795 -0.8675  0.5494
  123MOL0     C16141   5.937   3.100   9.997 -0.0953 -0.7861  0.9750
  123MOL0     C16142   5.788   3.055  10.017 -0.6981 -0.3120 -0.0289
  123MOL0     C16143   5.696   3.119   9.911 -0.7745 -0.4480 -0.0655
  123MOL0     C16144   5.554   3.086   9.921 -0.3535 -0.1263  0.2145
  123MOL0     C16145   5.478   3.130  10.045 -1.4820  0.6347 -0.2442
  123MOL0     C16146   5.449   3.277  10.053  0.8854  0.1022  0.6849
  123MOL0     C16147   5.360   3.309  10.169 -0.2912  0.2929  0.3305
  123MOL0    Cl16148   5.196   3.235  10.140 -0.0880 -0.2893 -0.0935
  123MOL0     C16149   6.285   2.958  10.242 -0.0793  0.4300  1.3714
  123MOL0     C16150   6.404   2.909  10.301  0.8414  0.1446  0.9460
  123MOL0     O16151   6.643   2.946  10.503  0.4156  0.0232  1.2965
  123MOL0     C16152   6.905   2.930  10.536  0.5271  0.0598  0.4134
  123MOL0     C16153   7.043   2.908  10.566 -0.3010 -0.3389  0.4141
  123MOL0     N16154   7.698   2.851  10.514  0.1656  0.2840 -0.0309
  123MOL0     N16155   7.829   2.863  10.494  0.8126  0.3396 -0.3063
  123MOL0     C16156   8.963   3.123  10.729  0.0430  0.0893  0.2898
  123MOL0     C16157   9.097   3.099  10.755 -0.3163 -0.7224 -0.1876
  123MOL0     C16158   9.469   2.869  10.865 -0.2122 -0.9156 -0.3155
  123MOL0     C16159   9.528   2.749  10.834 -0.5473  0.5538  0.0507
  123MOL0     C16160   9.660   2.729  10.853  0.2524 -0.3363 -0.3966
  123MOL0     C16161   9.738   2.831  10.916 -0.0470  0.2613  0.0886
  123MOL0     O16162   9.869   2.806  10.936 -0.0243  0.7588 -0.2640
  123MOL0     C16163   9.950   2.908  10.992  0.5398  0.4857 -0.8709
  123MOL0     C16164  10.099   2.865  11.015 -0.2540  0.3736 -0.0448
  123MOL0     C16165  10.158   2.782  10.890  0.4346  0.1319  0.3695
  123MOL0     C16166  10.166   2.856  10.764  0.4673 -0.0556  0.6523
  123MOL0     C16167  10.223   2.993  10.782  1.5322 -0.5603  1.2611
  123MOL0     C16168  10.265   3.101  10.791  0.4879 -0.9777 -0.1793
  123MOL0     C16169   9.678   2.954  10.946  0.2929 -0.7091  0.8025
  123MOL0     C16170   9.548   2.975  10.916 -0.6149  0.6107  0.0525
  123MOL0     H16171   9.063   2.924  11.042  0.7069  2.6553  3.2071
  123MOL0     H16172   8.827   2.979  11.002 -1.9633  1.9810 -1.1419
  123MOL0     H16173   8.654   3.167  10.965 -1.8235  2.4584 -0.0727
  123MOL0     H16174   8.593   3.018  10.899  0.3377 -0.5409  0.6268
  123MOL0     H16175   8.522   3.290  10.766 -0.4129 -0.4563 -0.2979
  123MOL0     H16176   8.413   3.198  10.860  0.3691  1.8555 -0.0016
  123MOL0     H16177   8.402   3.010  10.705  1.1820  0.8965  2.6460
  123MOL0     H16178   8.527   3.089  10.606  0.9281  0.2169  0.6608
  123MOL0     H16179   8.237   3.195  10.673 -0.5791 -0.7314 -0.5684
  123MOL0     H16180   8.352   3.290  10.587 -0.5861 -0.4228 -1.5748
  123MOL0     H16181   8.380   3.125  10.407 -0.1563  1.2731 -0.6320
  123MOL0     H16182   8.214   3.192  10.433 -0.0415  1.9466  3.3199
  123MOL0     H16183   8.274   2.903  10.551 -1.9312  1.0034  0.2032
  123MOL0     H16184   8.304   2.941  10.383  2.1921 -1.6223  0.9000
  123MOL0     H16185   8.070   3.056  10.384  0.2460  1.0052  1.6631
  123MOL0     H16186   8.072   2.878  10.406  0.4726 -1.5319  2.1580
  123MOL0     H16187   8.040   3.091  10.627  1.1757  1.1719 -3.1420
  123MOL0     H16188   8.048   2.924  10.662 -0.1734  0.6118  0.6596
  123MOL0     H16189   7.764   3.159  10.629  0.7947 -0.0554  1.3556
  123MOL0     H16190   7.541   3.103  10.667 -4.2695  1.7106 -0.5570
  123MOL0     H16191   7.467   2.941  10.661 -0.9400 -0.1733 -0.7941
  123MOL0     H16192   7.496   3.129  10.412 -0.8015  0.6319  1.0161
  123MOL0     H16193   7.338   3.086  10.496 -2.0143 -3.6305 -0.7721
  123MOL0     H16194   7.366   2.965  10.282  1.4630  0.8939 -0.4068
  123MOL0     H16195   7.513   2.888  10.346 -0.0535 -1.9815  3.4013
  123MOL0     H16196   7.432   2.730  10.479 -0.9250 -0.0490  1.9548
  123MOL0     H16197   7.332   2.733  10.344  0.8740 -1.8508  0.0485
  123MOL0     H16198   7.125   2.727  10.299 -1.7587 -1.8749  0.7508
  123MOL0     H16199   6.898   2.773  10.236  1.0939  3.1192 -0.5717
  123MOL0     H16200   6.607   2.936  10.029 -0.5428 -1.5784 -0.6700
  123MOL0     H16201   6.387   3.012   9.924  1.6452  1.7539  0.1057
  123MOL0     H16202   6.009   3.088  10.181 -2.4494 -1.3134  0.1683
  123MOL0     H16203   5.996   2.927  10.111 -1.8203 -0.2491 -0.4539
  123MOL0     H16204   5.969   3.086   9.894 -0.8250 -1.5316  0.8336
  123MOL0     H16205   5.939   3.207  10.017 -1.7200 -0.3772 -0.7480
  123MOL0     H16206   5.761   3.090  10.117  0.8959 -1.1259  0.7196
  123MOL0     H16207   5.779   2.946  10.005 -1.0141 -0.0435 -2.7061
  123MOL0     H16208   5.698   3.228   9.926  0.3839 -0.7450  2.5635
  123MOL0     H16209   5.744   3.113   9.813  0.1772  3.1835  0.0247
  123MOL0     H16210   5.560   2.978   9.903 -0.3012  0.1989 -1.9970
  123MOL0     H16211   5.494   3.113   9.834 -0.2017 -0.1463  0.1004
  123MOL0     H16212   5.536   3.090  10.129  0.4828 -0.4067 -2.0090
  123MOL0     H16213   5.385   3.073  10.029 -0.8149  0.1597 -2.9972
  123MOL0     H16214   5.537   3.337  10.076 -0.0168  1.6798  0.1445
  123MOL0     H16215   5.403   3.314   9.961  3.3942 -1.7037 -1.4649
  123MOL0     H16216   5.345   3.417  10.174  0.5009  0.4263  0.0066
  123MOL0     H16217   5.407   3.266  10.258 -3.6170 -1.4336  1.4459
  123MOL0     H16218   6.211   2.958  10.322 -1.6659  2.6284  0.0218
  123MOL0     H16219   6.399   2.883  10.406  0.0341  3.0886  1.7279
  123MOL0     H16220   6.865   2.998  10.610  0.8209 -1.8363  2.4165
  123MOL0     H16221   7.088   2.942  10.659 -2.1573 -2.0059  2.0474
  123MOL0     H16222   8.942   3.184  10.642 -1.1347  0.3486  0.7364
  123MOL0     H16223   9.180   3.138  10.696  0.2953 -4.2139 -1.8990
  123MOL0     H16224   9.476   2.664  10.792 -0.1949  0.8285 -0.9598
  123MOL0     H16225   9.689   2.627  10.831 -0.2115 -0.1681 -1.9811
  123MOL0     H16226   9.907   2.943  11.087  2.0400  0.3901 -0.1293
  123MOL0     H16227   9.953   2.995  10.925  2.4266 -0.1539 -1.6813
  123MOL0     H16228  10.163   2.944  11.057 -0.5998  1.5370 -1.6203
  123MOL0     H16229  10.092   2.793  11.097 -1.7041  2.6483  1.9405
  123MOL0     H16230  10.100   2.690  10.879 -1.1742  1.4478 -4.3447
  123MOL0     H16231  10.259   2.761  10.926  0.8007 -0.0231 -0.7105
  123MOL0     H16232  10.236   2.796  10.704 -0.4921  2.1583 -2.9479
  123MOL0     H16233  10.066   2.866  10.722  0.0553 -4.9076 -0.1264
  123MOL0     H16234  10.300   3.202  10.798  1.0211 -0.8885 -2.9213
  123MOL0     H16235   9.731   3.034  10.996  2.5496 -1.8532  0.3547
  123MOL0     H16236   9.507   3.070  10.950  0.2049  1.7362 -1.9386
  124MOL0     O16237  10.355   1.819  10.418  0.4456 -0.4703 -0.4740
  124MOL0     C16238  10.429   1.891  10.487  0.7572 -1.1626 -0.4585
  124MOL0     O16239  10.451   1.883  10.623  0.0209 -0.3910 -0.0144
  124MOL0     C16240  10.412   1.762  10.693 -0.4705 -0.0430 -0.2763
  124MOL0     C16241  10.400   1.773  10.833  0.2203  1.1608 -0.3652
  124MOL0     C16242  10.361   1.657  10.910  0.0625 -0.4986  0.3873
  124MOL0     C16243  10.350   1.528  10.852 -0.1451 -0.5428  0.1032
  124MOL0     O16244  10.316   1.413  10.913  0.6867 -0.1709 -0.0372
  124MOL0     C16245  10.281   1.420  11.055  0.2192 -0.0025  1.1226
  124MOL0     C16246  10.143   1.488  11.070  0.2384 -0.8341  0.3105
  124MOL0     C16247  10.142   1.583  11.192 -0.7380  0.7659  0.1287
  124MOL0     C16248  10.023   1.682  11.194 -0.8601 -0.1390  0.1351
  124MOL0     C16249   9.892   1.610  11.207  0.3622 -1.0766  0.5812
  124MOL0     C16250   9.796   1.716  11.266  0.9137  0.1944  0.2084
  124MOL0     C16251   9.663   1.650  11.311 -0.4273  0.4262 -0.3389
  124MOL0     C16252   9.570   1.756  11.377 -0.1902  0.7016  0.5989
  124MOL0     N16253   9.438   1.704  11.382  0.5497  0.6512 -0.1535
  124MOL0     C16254   9.372   1.695  11.503 -0.0440 -0.6077 -0.9675
  124MOL0     C16255   9.244   1.658  11.467  0.5423 -0.4830  0.7650
  124MOL0     C16256   9.129   1.648  11.568 -0.6038  0.9197 -0.4527
  124MOL0     C16257   9.095   1.781  11.644 -0.2851 -1.4810  0.2832
  124MOL0     C16258   8.980   1.782  11.747 -0.2856 -1.2438  0.0983
  124MOL0     C16259   8.902   1.904  11.740 -0.1613 -0.6918 -0.0017
  124MOL0     O16260   8.991   2.018  11.745 -0.4860  0.0120 -0.0274
  124MOL0     C16261   8.938   2.140  11.723 -0.2647 -0.2586  0.9123
  124MOL0     C16262   9.025   2.248  11.722 -0.0814  0.0489  0.5604
  124MOL0     C16263   8.976   2.381  11.706 -0.1895  0.2749  0.3232
  124MOL0     C16264   8.843   2.407  11.676  0.0565 -0.3048  0.5023
  124MOL0     C16265   8.803   2.556  11.660 -0.3143 -0.9513 -0.1788
  124MOL0     O16266   8.900   2.651  11.650  0.3142 -0.2359  0.8255
  124MOL0     C16267   8.873   2.771  11.709  0.5155 -0.1193  0.0623
  124MOL0     C16268   8.848   2.889  11.635 -0.2735 -0.1780  0.1738
  124MOL0     C16269   8.836   3.009  11.706  0.3803  0.9792  0.3608
  124MOL0     C16270   8.830   3.007  11.843 -0.3257 -0.0834 -0.1906
  124MOL0     O16271   8.844   3.119  11.915  0.1692 -0.5843  0.1259
  124MOL0     C16272   8.762   3.237  11.897 -0.0314 -0.1761  0.1196
  124MOL0     C16273   8.609   3.200  11.904 -0.4563  0.0039 -0.9676
  124MOL0     C16274   8.571   3.157  12.048  0.0369 -0.5856  0.3860
  124MOL0     C16275   8.523   3.256  12.151  0.8489 -0.1027 -0.4841
  124MOL0     C16276   8.430   3.191  12.263  0.1442  0.6441  0.8092
  124MOL0     C16277   8.504   3.121  12.375 -0.1235  0.3660  0.5077
  124MOL0     C16278   8.585   3.217  12.464  0.1736 -0.2651  0.5313
  124MOL0     C16279   8.492   3.303  12.554  0.0581 -0.2585  0.4413
  124MOL0    Cl16280   8.480   3.472  12.484 -0.0093  0.2500  0.3764
  124MOL0     C16281   8.833   2.889  11.921 -0.3338 -0.4027  0.2381
  124MOL0     C16282   8.874   2.778  11.851  0.8011  0.5769 -0.5611
  124MOL0     O16283   8.681   2.585  11.659 -0.1857  0.0711  0.1425
  124MOL0     C16284   8.749   2.299  11.689  0.1321 -0.3501 -0.3627
  124MOL0     C16285   8.801   2.166  11.706  0.9077  0.1280  0.6838
  124MOL0     N16286   9.238   1.643  11.332 -0.4904 -0.0924  0.2358
  124MOL0     N16287   9.349   1.676  11.281 -0.2919  0.0588 -0.2412
  124MOL0     C16288  10.371   1.523  10.715  1.1192  0.4911  0.0569
  124MOL0     C16289  10.395   1.634  10.635 -0.7383 -0.6671 -0.2302
  124MOL0     C16290  10.459   2.032  10.439  0.3212  0.0503  0.8632
  124MOL0     C16291  10.537   2.118  10.517 -0.9746  0.3382  0.9203
  124MOL0     C16292  10.545   2.252  10.483 -0.3421 -0.0214  0.3947
  124MOL0     C16293  10.491   2.299  10.366  0.0917 -0.1054 -0.7832
  124MOL0     O16294  10.490   2.428  10.318  0.0555 -0.3062  0.0881
  124MOL0     C16295  10.606   2.506  10.350  1.3207  0.3218 -0.7855
  124MOL0     C16296  10.597   2.645  10.293  0.0178  0.1631 -0.1191
  124MOL0     C16297  10.541   2.747  10.396 -0.3234  0.1541  0.1218
  124MOL0     C16298  10.644   2.863  10.429 -0.0334  0.4972 -0.6231
  124MOL0     C16299  10.781   2.819  10.467  0.3537 -0.8798  0.4409
  124MOL0     C16300  10.884   2.791  10.515  0.1359  0.5088 -1.1107
  124MOL0     C16301  10.432   2.214  10.277 -0.4561  0.1698  0.2403
  124MOL0     C16302  10.403   2.085  10.317 -0.8223  0.8061 -0.3535
  124MOL0     H16303  10.392   1.869  10.884  1.1848  1.2837 -0.4343
  124MOL0     H16304  10.341   1.688  11.012 -3.0712  1.1003 -0.6091
  124MOL0     H16305  10.356   1.483  11.104  0.0991  1.6487 -0.7069
  124MOL0     H16306  10.275   1.318  11.094  0.2840 -1.6709 -2.7761
  124MOL0     H16307  10.059   1.421  11.092  0.0534 -0.8707 -0.4956
  124MOL0     H16308  10.132   1.546  10.978  0.4197  0.7722  1.2512
  124MOL0     H16309  10.237   1.638  11.201 -0.0450 -0.7243  3.9613
  124MOL0     H16310  10.144   1.521  11.282 -0.8254 -0.8453 -0.9552
  124MOL0     H16311  10.029   1.748  11.280 -2.2180  1.2635 -0.7838
  124MOL0     H16312  10.028   1.753  11.112  0.0483 -0.4938 -0.1317
  124MOL0     H16313   9.909   1.527  11.276 -1.2616 -2.5198 -0.6753
  124MOL0     H16314   9.864   1.557  11.115 -2.5681  2.8110 -1.0515
  124MOL0     H16315   9.766   1.783  11.185 -4.6233 -1.5742  0.4142
  124MOL0     H16316   9.828   1.763  11.359  0.4227 -1.2850  1.1682
  124MOL0     H16317   9.615   1.614  11.219 -0.8674  2.4261 -0.9558
  124MOL0     H16318   9.683   1.565  11.376 -1.2903 -0.2374 -0.9196
  124MOL0     H16319   9.575   1.849  11.320  0.2101 -0.2480 -0.9885
  124MOL0     H16320   9.619   1.777  11.472  3.4184 -2.4613 -0.3246
  124MOL0     H16321   9.400   1.702  11.607 -2.0216 -1.1408 -0.3680
  124MOL0     H16322   9.156   1.582  11.650 -1.0822  1.6565  0.3109
  124MOL0     H16323   9.038   1.606  11.523 -0.3746 -0.0858 -0.0043
  124MOL0     H16324   9.069   1.853  11.567 -0.8367 -0.3267  1.5075
  124MOL0     H16325   9.183   1.819  11.698 -0.3767 -2.5061  1.2074
  124MOL0     H16326   8.915   1.696  11.731  0.2869 -1.5525 -0.6495
  124MOL0     H16327   9.006   1.760  11.851 -0.1368 -1.5297  0.0019
  124MOL0     H16328   8.833   1.923  11.824 -3.4588  3.0989 -3.1345
  124MOL0     H16329   8.846   1.900  11.646 -0.8567 -2.1794  0.4423
  124MOL0     H16330   9.130   2.232  11.743 -0.0817  0.6255  1.0203
  124MOL0     H16331   9.043   2.466  11.710 -1.2682  1.3692 -2.2272
  124MOL0     H16332   8.837   2.888  11.527 -3.7552  3.0276  0.2960
  124MOL0     H16333   8.841   3.105  11.655  1.5233  0.9641  0.4193
  124MOL0     H16334   8.774   3.292  11.803 -0.6444  0.7273  0.5580
  124MOL0     H16335   8.779   3.315  11.972 -1.3811  1.3971 -1.1396
  124MOL0     H16336   8.591   3.114  11.839 -2.0601 -0.1794 -0.3053
  124MOL0     H16337   8.547   3.285  11.873 -1.2154 -0.4939 -0.8125
  124MOL0     H16338   8.654   3.099  12.090  1.9307  0.6668 -1.3965
  124MOL0     H16339   8.488   3.087  12.032  0.3047 -0.8426  0.1020
  124MOL0     H16340   8.605   3.316  12.190 -0.3089  1.6959 -0.6782
  124MOL0     H16341   8.465   3.331  12.095 -1.8077 -1.8347 -0.2208
  124MOL0     H16342   8.382   3.110  12.208  0.9425  0.9260 -0.3515
  124MOL0     H16343   8.355   3.254  12.311 -2.2302 -2.0417  0.8566
  124MOL0     H16344   8.568   3.041  12.336  0.5428  0.0317  2.2033
  124MOL0     H16345   8.425   3.072  12.433 -0.9886  2.0001  0.7773
  124MOL0     H16346   8.615   3.127  12.519 -3.9984 -0.1559  3.4235
  124MOL0     H16347   8.667   3.273  12.419 -0.7128  0.8172  0.2440
  124MOL0     H16348   8.537   3.317  12.652  1.0940  3.4655 -0.3765
  124MOL0     H16349   8.399   3.247  12.558 -0.1770 -0.0024 -0.8009
  124MOL0     H16350   8.808   2.887  12.026 -0.5198 -0.0737  0.2016
  124MOL0     H16351   8.892   2.690  11.913 -2.6051 -1.1999 -1.7896
  124MOL0     H16352   8.645   2.326  11.685  0.1200 -0.2183  0.5809
  124MOL0     H16353   8.738   2.078  11.706 -1.0442  1.4341 -0.3819
  124MOL0     H16354  10.368   1.421  10.678  1.2812  0.6719 -0.4564
  124MOL0     H16355  10.413   1.614  10.530 -1.5957 -2.0106 -0.1396
  124MOL0     H16356  10.592   2.087  10.605 -1.7415  1.0548  1.6754
  124MOL0     H16357  10.589   2.323  10.552 -1.7787  1.2236  0.0756
  124MOL0     H16358  10.693   2.447  10.317  2.8324  1.4732  0.9425
  124MOL0     H16359  10.616   2.503  10.458 -2.3751 -0.7973 -0.3242
  124MOL0     H16360  10.701   2.670  10.270  0.5224 -0.0788  1.7520
  124MOL0     H16361  10.547   2.637  10.196  1.0244  0.5718 -0.6915
  124MOL0     H16362  10.513   2.713  10.496  1.6381  4.7793  2.5888
  124MOL0     H16363  10.447   2.787  10.356  0.3072  1.9706  0.3430
  124MOL0     H16364  10.647   2.944  10.355  0.2110  2.1141  1.0679
  124MOL0     H16365  10.601   2.918  10.514 -0.6796 -1.4064  0.3334
  124MOL0     H16366  10.985   2.766  10.539  0.3980  0.5930 -2.0873
  124MOL0     H16367  10.408   2.262  10.183  4.9897 -1.8594 -2.5753
  124MOL0     H16368  10.336   2.025  10.257 -0.3222  2.4836 -2.7302
  125MOL0     O16369   6.722   4.975   4.228 -0.2921  0.1141  0.2835
  125MOL0     C16370   6.811   4.950   4.310 -0.2111 -0.2888  0.3915
  125MOL0     O16371   6.786   4.905   4.436  0.0588 -0.3464 -0.7093
  125MOL0     C16372   6.658   4.894   4.482  1.0418  0.2270  0.2218
  125MOL0     C16373   6.644   4.799   4.585 -0.0143  0.5077  0.6549
  125MOL0     C16374   6.529   4.794   4.661 -0.0327 -1.1662 -0.2466
  125MOL0     C16375   6.414   4.855   4.628  0.0655 -1.1566  1.0643
  125MOL0     O16376   6.302   4.840   4.708 -0.4057  0.2307 -0.1445
  125MOL0     C16377   6.191   4.925   4.679 -0.8843 -0.3627  0.9550
  125MOL0     C16378   6.069   4.883   4.764 -0.8722 -0.4232 -0.0850
  125MOL0     C16379   5.962   4.812   4.678 -0.3657 -1.0536  0.8632
  125MOL0     C16380   5.822   4.845   4.746  1.2513 -0.4262 -0.3213
  125MOL0     C16381   5.694   4.791   4.665 -0.1941 -0.1600  0.8529
  125MOL0     C16382   5.576   4.872   4.715  0.6954  0.3547  0.2122
  125MOL0     C16383   5.521   4.824   4.852 -0.1069 -0.1137 -0.2362
  125MOL0     C16384   5.391   4.902   4.899  0.3526 -0.5407 -0.1899
  125MOL0     N16385   5.413   5.041   4.929 -0.4501  0.2428  0.1636
  125MOL0     C16386   5.527   5.077   5.006  0.2131  0.5503  0.5360
  125MOL0     C16387   5.509   5.215   5.022  0.7024  0.5758  0.6703
  125MOL0     C16388   5.606   5.298   5.107 -0.1503 -0.5491 -0.1116
  125MOL0     C16389   5.741   5.307   5.031  0.4342 -0.0872 -0.5346
  125MOL0     C16390   5.840   5.409   5.095  0.9821  0.1050 -0.5364
  125MOL0     C16391   5.978   5.427   5.022 -0.1505 -0.3863 -0.2636
  125MOL0     O16392   6.055   5.298   5.024  0.6602  0.3967 -0.3308
  125MOL0     C16393   6.179   5.289   4.960  0.4121 -0.5165  0.5092
  125MOL0     C16394   6.245   5.166   4.960  0.4596 -0.5755 -0.1500
  125MOL0     C16395   6.375   5.164   4.912 -0.2423 -0.7364  1.0998
  125MOL0     C16396   6.431   5.268   4.834 -0.2139  0.5021 -0.2135
  125MOL0     C16397   6.574   5.268   4.812  0.4272  0.5558 -0.3556
  125MOL0     O16398   6.637   5.146   4.817  0.0405 -0.3434  0.2319
  125MOL0     C16399   6.773   5.145   4.807  0.3051 -0.1672  0.2335
  125MOL0     C16400   6.825   5.165   4.677  0.0968 -0.1003  0.0356
  125MOL0     C16401   6.968   5.140   4.655  0.0524 -0.4122 -1.0222
  125MOL0     C16402   7.053   5.107   4.758 -0.4768  0.0633 -1.3123
  125MOL0     O16403   7.188   5.075   4.731 -0.0662 -0.0209  0.6278
  125MOL0     C16404   7.285   5.060   4.844  0.8547  0.3188 -0.5255
  125MOL0     C16405   7.410   5.124   4.804  0.7553 -0.4355 -0.6169
  125MOL0     C16406   7.511   5.149   4.916 -1.0113 -0.5081  0.4141
  125MOL0     C16407   7.633   5.216   4.861  0.0098 -0.2303  0.5622
  125MOL0     C16408   7.687   5.327   4.944  0.1247 -0.4226 -0.1464
  125MOL0     C16409   7.593   5.450   4.931 -0.8665  0.1111  0.6925
  125MOL0     C16410   7.670   5.574   4.979  1.0064  0.7815 -0.0882
  125MOL0     C16411   7.756   5.630   4.854 -1.0007  0.5774  0.4738
  125MOL0    Cl16412   7.914   5.705   4.907  0.0377 -0.2735  0.1241
  125MOL0     C16413   6.993   5.094   4.886 -0.3307  0.4604  0.1259
  125MOL0     C16414   6.852   5.111   4.919 -1.4373 -0.0538  1.0371
  125MOL0     O16415   6.623   5.377   4.778  0.7579 -0.2766 -0.2254
  125MOL0     C16416   6.359   5.386   4.816 -0.7343 -0.1308  0.2404
  125MOL0     C16417   6.241   5.404   4.891 -1.0509  0.4526 -0.8255
  125MOL0     N16418   5.408   5.257   4.937 -0.1625  0.0324 -0.3120
  125MOL0     N16419   5.348   5.150   4.891  0.1259  0.0955 -0.4715
  125MOL0     C16420   6.441   4.956   4.524 -0.7178 -0.4094 -0.1788
  125MOL0     C16421   6.555   4.974   4.455  0.6145 -0.1725  0.0057
  125MOL0     C16422   6.950   4.953   4.271 -0.5854 -0.0095 -0.4455
  125MOL0     C16423   6.992   4.995   4.147  0.1340  0.3295  1.2349
  125MOL0     C16424   7.124   5.005   4.109 -0.7224 -0.8459  0.9539
  125MOL0     C16425   7.226   4.961   4.196 -0.5248 -0.6251 -0.4361
  125MOL0     O16426   7.368   4.946   4.171  0.4046  0.2340 -0.3436
  125MOL0     C16427   7.432   4.998   4.049  0.0728  0.9519  0.0316
  125MOL0     C16428   7.462   5.148   4.079  0.1983  0.0588  0.5489
  125MOL0     C16429   7.592   5.165   4.157  1.0597 -0.1245 -0.1379
  125MOL0     C16430   7.591   5.125   4.303  0.0683  0.2466  1.0278
  125MOL0     C16431   7.497   5.198   4.378 -0.6387 -0.4155  0.2343
  125MOL0     C16432   7.412   5.255   4.447 -0.7463 -0.3122  0.9517
  125MOL0     C16433   7.184   4.912   4.315  0.1353  1.1047 -0.2835
  125MOL0     C16434   7.050   4.912   4.356 -0.3608 -0.7535  0.0539
  125MOL0     H16435   6.724   4.733   4.618 -2.1121 -0.9129  3.2506
  125MOL0     H16436   6.512   4.710   4.728 -0.5387 -0.9118 -0.0501
  125MOL0     H16437   6.165   4.931   4.574 -0.5149  2.2540  0.9459
  125MOL0     H16438   6.214   5.030   4.702 -1.4002 -0.2439  0.9198
  125MOL0     H16439   6.023   4.977   4.795 -2.5012 -1.4406  0.7454
  125MOL0     H16440   6.091   4.818   4.850 -1.6992  0.6535  0.9645
  125MOL0     H16441   5.977   4.704   4.671  2.9770 -0.7471  1.8003
  125MOL0     H16442   5.956   4.863   4.581 -1.6841 -1.4334  0.7181
  125MOL0     H16443   5.828   4.801   4.847  5.1203  0.1568 -0.1627
  125MOL0     H16444   5.814   4.953   4.760 -0.2552 -0.4659 -0.6812
  125MOL0     H16445   5.687   4.682   4.668  0.8046 -0.2620  0.1969
  125MOL0     H16446   5.702   4.812   4.558 -0.4951 -2.5731  0.3040
  125MOL0     H16447   5.497   4.872   4.639 -1.0958 -1.4422  1.9483
  125MOL0     H16448   5.597   4.979   4.715 -1.3132  0.8886 -3.0307
  125MOL0     H16449   5.486   4.720   4.848 -0.2432 -0.2459  2.7127
  125MOL0     H16450   5.606   4.829   4.920 -0.5689  0.3234  0.3134
  125MOL0     H16451   5.329   4.864   4.980 -0.2264  0.6447 -0.0555
  125MOL0     H16452   5.327   4.902   4.811 -1.5264  0.6157  1.0971
  125MOL0     H16453   5.613   5.019   5.040 -0.0892 -0.8364 -0.9105
  125MOL0     H16454   5.607   5.250   5.205 -1.4584  0.7485  0.5661
  125MOL0     H16455   5.561   5.397   5.095  2.6833  0.7853 -0.6037
  125MOL0     H16456   5.715   5.320   4.926 -0.0431  1.5088 -0.2428
  125MOL0     H16457   5.791   5.209   5.028  0.7183 -0.1002  2.0291
  125MOL0     H16458   5.786   5.505   5.100  0.3202 -0.2906  3.9287
  125MOL0     H16459   5.858   5.385   5.200  0.6089  0.9502 -0.2670
  125MOL0     H16460   6.039   5.502   5.073 -0.1799 -2.8117  3.7913
  125MOL0     H16461   5.957   5.458   4.919  2.2368  0.6498 -0.5017
  125MOL0     H16462   6.205   5.077   5.006 -2.5421  1.4240  1.4421
  125MOL0     H16463   6.427   5.072   4.937  2.3304 -0.0885 -1.3349
  125MOL0     H16464   6.754   5.194   4.601  1.4285 -0.1661 -1.2693
  125MOL0     H16465   7.020   5.163   4.563  1.1380  0.5550 -0.1943
  125MOL0     H16466   7.295   4.954   4.869 -3.6153 -0.4910 -1.2273
  125MOL0     H16467   7.244   5.107   4.933 -2.3669 -1.2003 -1.0268
  125MOL0     H16468   7.376   5.216   4.754 -1.1796 -0.9178 -0.2627
  125MOL0     H16469   7.455   5.064   4.725  2.4174  2.5893 -2.1534
  125MOL0     H16470   7.526   5.054   4.968 -1.7406 -0.8843 -0.0474
  125MOL0     H16471   7.470   5.221   4.988  0.6104  0.1806  0.6903
  125MOL0     H16472   7.712   5.140   4.855 -1.4028 -1.6869 -0.4234
  125MOL0     H16473   7.624   5.245   4.756  2.0650 -3.0561 -0.5258
  125MOL0     H16474   7.783   5.348   4.895  1.1442 -1.0642  1.4851
  125MOL0     H16475   7.703   5.292   5.046 -2.1633  1.8447  1.0969
  125MOL0     H16476   7.508   5.423   4.995 -0.1439 -3.3528  0.3529
  125MOL0     H16477   7.562   5.449   4.826  1.2876 -1.7488  0.0067
  125MOL0     H16478   7.612   5.654   5.025  1.5150  0.8192  0.4964
  125MOL0     H16479   7.739   5.545   5.058  2.1809 -2.5272 -2.0982
  125MOL0     H16480   7.695   5.704   4.800  1.9816  3.1926  0.4049
  125MOL0     H16481   7.782   5.547   4.788 -0.5389  1.0455  0.0599
  125MOL0     H16482   7.046   5.052   4.971 -3.4190 -0.6622  1.6643
  125MOL0     H16483   6.805   5.079   5.011  0.5558  0.6969  2.3608
  125MOL0     H16484   6.393   5.477   4.767  0.0848 -1.1038 -1.0495
  125MOL0     H16485   6.191   5.500   4.903 -0.2007  0.8016  0.0734
  125MOL0     H16486   6.360   5.025   4.503 -1.3496 -0.7405  1.0782
  125MOL0     H16487   6.559   5.043   4.371  0.4913 -1.6026 -1.2137
  125MOL0     H16488   6.919   5.015   4.069  0.6059 -1.2929  0.3238
  125MOL0     H16489   7.148   5.027   4.006 -3.1247 -0.2347  0.4786
  125MOL0     H16490   7.367   4.990   3.961 -2.1338  0.8371  1.5788
  125MOL0     H16491   7.524   4.940   4.038  0.0189  0.4568  1.8373
  125MOL0     H16492   7.482   5.206   3.988 -0.3841 -0.7882 -0.1362
  125MOL0     H16493   7.374   5.189   4.131 -1.0085 -1.7373  0.0115
  125MOL0     H16494   7.619   5.271   4.157 -2.4379  0.9005  2.1358
  125MOL0     H16495   7.675   5.120   4.102  1.2588  0.1527 -0.0678
  125MOL0     H16496   7.568   5.018   4.303  0.6803  0.1073  0.2052
  125MOL0     H16497   7.691   5.135   4.347  0.3440  0.5788  0.3436
  125MOL0     H16498   7.337   5.316   4.494  0.6020  1.4353  0.9192
  125MOL0     H16499   7.267   4.877   4.375 -0.9869 -0.2649  0.5265
  125MOL0     H16500   7.039   4.886   4.460  2.2744 -0.0979  0.5762
  126MOL0     O16501  10.099   4.137   9.375  0.3367 -0.3922  0.4260
  126MOL0     C16502  10.206   4.079   9.384  0.2728  0.3792 -0.4611
  126MOL0     O16503  10.228   3.944   9.366 -0.0653  0.0713 -0.3316
  126MOL0     C16504  10.140   3.857   9.316 -0.7502 -0.2290  0.5854
  126MOL0     C16505  10.015   3.882   9.255  0.6380 -0.7107  0.0724
  126MOL0     C16506   9.931   3.772   9.209 -0.4558 -0.2644 -0.7124
  126MOL0     C16507   9.982   3.641   9.220 -0.2208 -0.2168 -0.2062
  126MOL0     O16508   9.925   3.528   9.187  0.6700 -0.4769  0.3242
  126MOL0     C16509   9.781   3.513   9.197 -0.7529 -0.6403  0.3801
  126MOL0     C16510   9.743   3.373   9.194 -0.5745  0.7839 -0.0818
  126MOL0     C16511   9.587   3.343   9.201  0.2602 -0.6102  0.2286
  126MOL0     C16512   9.554   3.191   9.222 -0.3894 -0.3082 -0.5997
  126MOL0     C16513   9.406   3.152   9.222  0.0440 -0.4362  0.6187
  126MOL0     C16514   9.317   3.254   9.286 -0.7811 -0.0122 -0.3855
  126MOL0     C16515   9.178   3.208   9.306  0.3054  0.2134 -0.6608
  126MOL0     C16516   9.071   3.276   9.224 -0.7847 -0.4079 -0.1960
  126MOL0     N16517   8.940   3.207   9.243 -0.7273 -0.4869  0.0384
  126MOL0     C16518   8.885   3.152   9.356  0.0707 -1.4257 -0.5409
  126MOL0     C16519   8.758   3.121   9.324 -0.6206  0.0534  0.1278
  126MOL0     C16520   8.656   3.043   9.404  0.1338 -0.7659  1.3897
  126MOL0     C16521   8.584   3.116   9.518  0.9782  0.1883 -0.4266
  126MOL0     C16522   8.506   3.235   9.454  0.1675  0.1608 -0.3540
  126MOL0     C16523   8.400   3.282   9.560 -0.0497  0.1089  0.4076
  126MOL0     O16524   8.447   3.299   9.694 -0.1428 -0.6952  0.7673
  126MOL0     C16525   8.342   3.300   9.782  0.2203 -0.7002  0.3375
  126MOL0     C16526   8.377   3.308   9.912 -0.1346  1.6054 -0.0269
  126MOL0     C16527   8.280   3.313  10.012  1.5838  0.3755 -0.5063
  126MOL0     C16528   8.138   3.332   9.986  0.0073  0.5812  0.3218
  126MOL0     C16529   8.039   3.339  10.090 -0.4778 -0.3493  0.3262
  126MOL0     O16530   7.918   3.329  10.057  0.9995  0.3292 -0.2185
  126MOL0     C16531   7.825   3.385  10.138  0.2304 -0.2560  1.1144
  126MOL0     C16532   7.778   3.514  10.105  0.0208  0.4612  0.5144
  126MOL0     C16533   7.672   3.572  10.182 -1.0060  1.0232  0.5589
  126MOL0     C16534   7.627   3.498  10.295  0.0965 -0.9947 -0.1142
  126MOL0     O16535   7.549   3.552  10.393 -0.2581  0.2176 -0.1206
  126MOL0     C16536   7.411   3.584  10.345 -0.1775  0.4752 -0.0803
  126MOL0     C16537   7.342   3.652  10.457  0.2418  0.5347  0.3088
  126MOL0     C16538   7.362   3.805  10.442  0.0455  0.6678  0.4636
  126MOL0     C16539   7.299   3.882  10.570 -0.5983  0.2885 -0.1198
  126MOL0     C16540   7.304   4.033  10.543  0.0401  0.5000  0.6158
  126MOL0     C16541   7.195   4.102  10.622 -0.2953 -0.3200 -1.0180
  126MOL0     C16542   7.061   4.085  10.555  0.1493  0.3711 -0.4266
  126MOL0     C16543   6.946   4.073  10.653  0.0082 -0.0944  0.0436
  126MOL0    Cl16544   6.946   3.936  10.758 -0.4776 -0.2492  0.2724
  126MOL0     C16545   7.675   3.377  10.327 -1.0422 -0.1269 -0.2870
  126MOL0     C16546   7.775   3.316  10.244  1.1847  1.5123 -0.8165
  126MOL0     O16547   8.087   3.354  10.203  0.0366 -0.0738 -0.0571
  126MOL0     C16548   8.108   3.323   9.854  0.6061 -0.5379  0.2794
  126MOL0     C16549   8.209   3.322   9.752  0.2842  0.0414 -0.0058
  126MOL0     N16550   8.736   3.168   9.195  0.2124 -0.4444  0.1485
  126MOL0     N16551   8.848   3.225   9.149  0.0050 -0.2859 -0.3301
  126MOL0     C16552  10.114   3.617   9.275  1.2838  0.8067 -0.9350
  126MOL0     C16553  10.191   3.727   9.324  1.3005  0.8918 -0.1690
  126MOL0     C16554  10.317   4.146   9.451  0.2008  0.4865  0.5094
  126MOL0     C16555  10.326   4.287   9.468  0.2713 -0.0237  0.0902
  126MOL0     C16556  10.443   4.348   9.511  0.2047  0.3554 -0.6450
  126MOL0     C16557  10.556   4.273   9.546  0.9056 -0.9114 -0.1485
  126MOL0     O16558  10.674   4.317   9.604  0.4349  0.2131  0.3123
  126MOL0     C16559  10.660   4.447   9.662 -0.1226 -0.6209 -0.5399
  126MOL0     C16560  10.721   4.542   9.569 -0.0127 -0.4493  0.2248
  126MOL0     C16561  10.872   4.518   9.530  0.4417 -0.0403 -0.6977
  126MOL0     C16562  10.961   4.633   9.590  1.0639 -0.6739 -0.2496
  126MOL0     C16563  10.941   4.635   9.739 -0.0802 -0.0034 -0.4751
  126MOL0     C16564  10.903   4.640   9.857 -0.1316 -0.1728 -0.0808
  126MOL0     C16565  10.556   4.132   9.521  0.5020 -0.3059  0.0332
  126MOL0     C16566  10.439   4.071   9.484  0.5744  1.2835 -0.3383
  126MOL0     H16567   9.984   3.984   9.238  2.7985  0.1582  1.0185
  126MOL0     H16568   9.829   3.783   9.173 -0.6720  0.1075 -0.0051
  126MOL0     H16569   9.722   3.555   9.115 -1.1606  1.5486  1.6908
  126MOL0     H16570   9.753   3.552   9.296 -0.8467  2.4365 -0.7392
  126MOL0     H16571   9.779   3.339   9.292  1.3203  2.3324 -0.1927
  126MOL0     H16572   9.792   3.335   9.104  2.2956  1.8422  0.9033
  126MOL0     H16573   9.557   3.362   9.097  0.5782 -1.8206 -0.1064
  126MOL0     H16574   9.541   3.413   9.271  1.2805  0.9843 -0.6293
  126MOL0     H16575   9.603   3.136   9.142 -0.4065 -1.3030  0.0535
  126MOL0     H16576   9.595   3.159   9.318 -2.1416  2.5716  1.3035
  126MOL0     H16577   9.384   3.049   9.251 -3.4294  0.7428  2.8226
  126MOL0     H16578   9.381   3.163   9.116  0.0209  4.6759  0.9069
  126MOL0     H16579   9.330   3.347   9.231 -1.5110 -0.6847 -1.7247
  126MOL0     H16580   9.371   3.266   9.381 -0.3102  1.0920 -0.7759
  126MOL0     H16581   9.160   3.100   9.304 -4.1583  0.7756 -0.9403
  126MOL0     H16582   9.157   3.226   9.412  0.2466 -0.9473 -0.4634
  126MOL0     H16583   9.109   3.296   9.123  0.3848  1.5507  0.5666
  126MOL0     H16584   9.076   3.372   9.276 -1.9272 -1.1864  1.4482
  126MOL0     H16585   8.928   3.130   9.453 -0.6816 -2.0239 -0.3330
  126MOL0     H16586   8.721   2.963   9.440 -0.2357 -3.0237 -2.3223
  126MOL0     H16587   8.582   3.004   9.333 -1.0943  2.5130  0.7205
  126MOL0     H16588   8.667   3.152   9.580  1.0555  1.2038 -1.0874
  126MOL0     H16589   8.519   3.048   9.574 -1.4335  2.8732  0.2802
  126MOL0     H16590   8.572   3.318   9.427 -0.0451 -0.8992 -4.9593
  126MOL0     H16591   8.466   3.219   9.354  0.3634  0.3866 -0.4701
  126MOL0     H16592   8.320   3.208   9.552 -0.4974  0.3995  1.9204
  126MOL0     H16593   8.366   3.376   9.515  0.9234 -0.0136 -0.6287
  126MOL0     H16594   8.481   3.283   9.932 -0.6653 -0.0829  0.8208
  126MOL0     H16595   8.304   3.287  10.114  2.4668 -2.0960 -1.2626
  126MOL0     H16596   7.814   3.548  10.008  3.1326 -2.8911  0.2829
  126MOL0     H16597   7.639   3.667  10.142 -0.2860  0.7884 -0.6476
  126MOL0     H16598   7.355   3.498  10.309 -2.6449  2.0100 -0.1816
  126MOL0     H16599   7.431   3.649  10.259  1.5603  0.1205  0.0130
  126MOL0     H16600   7.379   3.615  10.553  0.1928  0.6156  0.3587
  126MOL0     H16601   7.237   3.634  10.481 -0.2719  3.3345  0.3979
  126MOL0     H16602   7.311   3.846  10.354  1.8689 -0.8616 -1.4064
  126MOL0     H16603   7.467   3.831  10.423  0.1050 -1.0883 -2.2053
  126MOL0     H16604   7.196   3.851  10.589 -0.6348  0.2288 -0.4182
  126MOL0     H16605   7.353   3.858  10.662  0.4235  0.8242 -0.5709
  126MOL0     H16606   7.302   4.057  10.436  1.3397  0.3863  0.5487
  126MOL0     H16607   7.403   4.064  10.577  2.3487 -2.7659 -2.3611
  126MOL0     H16608   7.220   4.204  10.651 -0.2933 -0.7367  0.5628
  126MOL0     H16609   7.194   4.055  10.721 -3.7101 -0.8760 -1.1988
  126MOL0     H16610   7.048   4.169  10.487 -1.0694  1.2547  0.8601
  126MOL0     H16611   7.060   3.998  10.488 -2.9932  0.4946 -0.6728
  126MOL0     H16612   6.857   4.050  10.593 -1.5528  0.0150  2.2081
  126MOL0     H16613   6.935   4.167  10.707 -0.9833  1.3189 -2.4465
  126MOL0     H16614   7.648   3.333  10.423 -1.4977 -0.3122 -0.4953
  126MOL0     H16615   7.815   3.219  10.272 -1.5774 -0.2196 -2.3830
  126MOL0     H16616   8.005   3.336   9.822  0.6189 -2.5030 -0.7216
  126MOL0     H16617   8.178   3.325   9.647 -1.6123  1.2499  0.5334
  126MOL0     H16618  10.146   3.514   9.288 -0.7531  0.4681  3.3814
  126MOL0     H16619  10.296   3.714   9.351  0.8985 -0.9570  0.6529
  126MOL0     H16620  10.251   4.365   9.466  0.7868  0.5115  1.0552
  126MOL0     H16621  10.434   4.456   9.519  2.6571  0.5387  1.0102
  126MOL0     H16622  10.715   4.440   9.756  0.9555 -4.8846 -1.2809
  126MOL0     H16623  10.559   4.478   9.692 -1.0564 -3.8093 -0.0619
  126MOL0     H16624  10.663   4.540   9.476  1.5301 -1.7438 -0.7654
  126MOL0     H16625  10.709   4.632   9.630  0.8658 -1.6538  2.2647
  126MOL0     H16626  10.877   4.516   9.421 -0.9160 -0.9294 -0.7746
  126MOL0     H16627  10.908   4.419   9.560  0.4328 -0.2631 -1.4086
  126MOL0     H16628  11.063   4.603   9.562  0.4820 -1.7488 -1.2865
  126MOL0     H16629  10.917   4.724   9.550 -2.1128 -1.7066  0.5914
  126MOL0     H16630  10.881   4.619   9.960  0.1176  0.2682  0.0638
  126MOL0     H16631  10.644   4.071   9.537 -1.1779 -2.5383  1.4294
  126MOL0     H16632  10.437   3.963   9.485 -0.3978  1.2794 -1.1053
  127MOL0     O16633   9.462   6.370   3.909 -0.1298  0.0038  0.4143
  127MOL0     C16634   9.360   6.325   3.857 -0.0828 -0.2731  0.1741
  127MOL0     O16635   9.234   6.386   3.865 -0.2851  0.3917 -0.1440
  127MOL0     C16636   9.218   6.491   3.952 -0.8870  0.4256 -0.5467
  127MOL0     C16637   9.228   6.620   3.903  0.4916  0.3092 -0.4973
  127MOL0     C16638   9.209   6.728   3.996 -0.2847  0.6337 -0.7479
  127MOL0     C16639   9.171   6.704   4.132  0.0448 -0.0297 -0.6772
  127MOL0     O16640   9.152   6.807   4.220 -0.1778  0.2933 -0.0178
  127MOL0     C16641   9.245   6.915   4.214 -0.0089 -0.5184 -0.2357
  127MOL0     C16642   9.223   7.015   4.332 -0.6744  0.2784  1.1699
  127MOL0     C16643   9.090   7.077   4.328  0.4602  0.1707  0.2498
  127MOL0     C16644   9.054   7.176   4.434  0.0486  0.5344 -0.0513
  127MOL0     C16645   8.923   7.251   4.409  0.2143  0.1183 -0.6698
  127MOL0     C16646   8.806   7.161   4.446  1.1920 -0.4121 -0.0097
  127MOL0     C16647   8.681   7.228   4.375 -0.1829  0.6988  0.5772
  127MOL0     C16648   8.552   7.150   4.402  1.0680  0.2508  0.4044
  127MOL0     N16649   8.426   7.231   4.380  0.3895 -0.2460 -0.8970
  127MOL0     C16650   8.401   7.315   4.275 -0.4312 -0.1090  0.4921
  127MOL0     C16651   8.292   7.391   4.310  0.8186  0.8874  0.8190
  127MOL0     C16652   8.224   7.496   4.223 -1.0067  0.4641  1.5120
  127MOL0     C16653   8.080   7.465   4.191  0.0631  0.0915 -1.2849
  127MOL0     C16654   7.996   7.377   4.297 -0.0489  0.1588  1.2203
  127MOL0     C16655   7.845   7.381   4.262  0.4543  0.0443 -0.1568
  127MOL0     O16656   7.780   7.273   4.338  0.3460 -0.2496  0.2468
  127MOL0     C16657   7.647   7.290   4.381  0.0369  0.1896 -0.0896
  127MOL0     C16658   7.605   7.202   4.477 -0.0308  0.0311  0.6709
  127MOL0     C16659   7.477   7.211   4.536  0.1172 -0.4963 -0.1459
  127MOL0     C16660   7.390   7.311   4.493  0.3658 -0.8788 -0.9075
  127MOL0     C16661   7.255   7.325   4.562 -0.5165  0.4790 -1.3240
  127MOL0     O16662   7.245   7.288   4.696  0.2565  0.4001 -0.3158
  127MOL0     C16663   7.131   7.319   4.771  0.5901  0.0212  0.6349
  127MOL0     C16664   7.061   7.212   4.819  0.2281  0.3836 -0.3917
  127MOL0     C16665   6.946   7.240   4.901 -0.8708 -0.2187 -0.4903
  127MOL0     C16666   6.919   7.375   4.940  0.1787  0.5887 -0.1559
  127MOL0     O16667   6.801   7.394   5.017  1.0564 -0.2795 -0.1060
  127MOL0     C16668   6.796   7.517   5.082 -0.5583  0.4956 -0.3474
  127MOL0     C16669   6.720   7.517   5.210 -0.0326  0.3054 -0.1329
  127MOL0     C16670   6.564   7.516   5.184 -0.4243  0.3955 -0.2080
  127MOL0     C16671   6.489   7.503   5.319 -0.3002  0.0151  0.9684
  127MOL0     C16672   6.341   7.515   5.293  0.1744  0.3863 -0.0988
  127MOL0     C16673   6.256   7.494   5.424 -0.7710  0.2694 -0.3482
  127MOL0     C16674   6.104   7.471   5.397  0.5901 -0.2526 -0.1069
  127MOL0     C16675   6.042   7.384   5.504 -0.3717 -0.3094 -0.6083
  127MOL0    Cl16676   6.094   7.443   5.666 -0.0087 -0.0396  0.0845
  127MOL0     C16677   6.993   7.486   4.883 -0.6450 -0.1479 -0.5278
  127MOL0     C16678   7.099   7.453   4.802  0.2738 -0.4330  0.1666
  127MOL0     O16679   7.168   7.383   4.502 -0.9106 -0.6459 -0.9286
  127MOL0     C16680   7.431   7.398   4.382  0.1743  0.4040 -0.1424
  127MOL0     C16681   7.560   7.384   4.324 -0.7160 -0.2990  0.0628
  127MOL0     N16682   8.268   7.357   4.442 -0.0007 -0.2197 -0.2105
  127MOL0     N16683   8.345   7.259   4.486  0.1035  0.1693  0.0304
  127MOL0     C16684   9.141   6.568   4.170  0.2127  0.7394 -0.4163
  127MOL0     C16685   9.160   6.467   4.081  0.3392 -1.3225  0.4428
  127MOL0     C16686   9.367   6.200   3.777  0.3970  0.3906  0.2026
  127MOL0     C16687   9.478   6.119   3.773  0.1701 -1.0553 -0.2224
  127MOL0     C16688   9.485   6.008   3.692 -0.3800  0.1921  0.4275
  127MOL0     C16689   9.377   5.967   3.610  0.3168 -0.0717 -0.5920
  127MOL0     O16690   9.359   5.859   3.534  0.3917 -0.6828  0.3027
  127MOL0     C16691   9.483   5.792   3.490  0.3005  0.4124  0.3997
  127MOL0     C16692   9.441   5.665   3.410 -0.1598  0.0221 -0.3938
  127MOL0     C16693   9.436   5.696   3.255 -0.6277 -0.3292  0.0012
  127MOL0     C16694   9.580   5.730   3.196  0.4428 -0.7558 -0.3964
  127MOL0     C16695   9.586   5.723   3.043 -0.2397 -0.6253 -0.2302
  127MOL0     C16696   9.586   5.708   2.926 -1.1193  0.3343  0.2185
  127MOL0     C16697   9.267   6.050   3.615  0.5752 -0.1012 -0.3840
  127MOL0     C16698   9.261   6.166   3.689 -0.6107  0.1422 -0.9928
  127MOL0     H16699   9.253   6.643   3.800  0.0587  1.3737 -0.3743
  127MOL0     H16700   9.219   6.827   3.952  0.4300  1.1105  0.4424
  127MOL0     H16701   9.221   6.976   4.126  2.7681  0.2446 -0.5757
  127MOL0     H16702   9.348   6.880   4.205 -0.2022 -0.5359 -5.2227
  127MOL0     H16703   9.307   7.086   4.327 -0.7914  0.5346  2.3713
  127MOL0     H16704   9.226   6.949   4.419 -0.1326 -4.4999 -2.1157
  127MOL0     H16705   9.010   7.006   4.354 -1.1649  1.7795 -0.1087
  127MOL0     H16706   9.069   7.120   4.230  2.2093 -0.4717 -0.4448
  127MOL0     H16707   9.050   7.130   4.534  0.2676  2.4197  0.8717
  127MOL0     H16708   9.133   7.252   4.432 -0.2686  0.9018  0.8071
  127MOL0     H16709   8.920   7.292   4.308 -0.6115  1.4434 -0.1354
  127MOL0     H16710   8.926   7.337   4.477  0.1618 -0.5436  0.1951
  127MOL0     H16711   8.790   7.148   4.554  1.3672 -2.6038 -0.2109
  127MOL0     H16712   8.822   7.063   4.401  3.0548 -0.3452  0.3976
  127MOL0     H16713   8.666   7.332   4.406  1.8651  1.0523  0.5026
  127MOL0     H16714   8.695   7.224   4.267 -1.6920  1.9968  0.3074
  127MOL0     H16715   8.565   7.122   4.507 -1.3153 -0.4999  0.5506
  127MOL0     H16716   8.541   7.064   4.336 -1.3034  1.0850 -0.3715
  127MOL0     H16717   8.453   7.322   4.180 -5.1936  1.0557 -2.3394
  127MOL0     H16718   8.267   7.487   4.122 -1.5750 -0.7802  1.3637
  127MOL0     H16719   8.253   7.589   4.272  1.4852  0.2734  0.5739
  127MOL0     H16720   8.080   7.394   4.108  2.2526 -1.7052  0.1403
  127MOL0     H16721   8.015   7.550   4.166 -3.2436 -2.1837 -1.0948
  127MOL0     H16722   8.021   7.270   4.292 -2.1474 -0.3478 -3.2252
  127MOL0     H16723   8.012   7.416   4.398  0.4894  2.1026  0.4344
  127MOL0     H16724   7.832   7.348   4.158 -3.7390  0.4938  0.0612
  127MOL0     H16725   7.794   7.478   4.267 -0.0355 -0.2692  1.4172
  127MOL0     H16726   7.688   7.146   4.520  1.6001  0.7224 -1.3616
  127MOL0     H16727   7.444   7.146   4.616 -1.0408  3.1943  2.7068
  127MOL0     H16728   7.085   7.108   4.802  2.2465  0.1156  3.2608
  127MOL0     H16729   6.878   7.167   4.942  0.1067  0.8202  3.3483
  127MOL0     H16730   6.762   7.581   5.000  1.1798  0.4801 -1.1186
  127MOL0     H16731   6.897   7.551   5.105 -0.9712  2.5040 -1.3138
  127MOL0     H16732   6.750   7.605   5.267  1.1862 -0.7966  0.9772
  127MOL0     H16733   6.746   7.430   5.271 -1.8951  0.6983  1.3188
  127MOL0     H16734   6.537   7.438   5.112 -0.5719  0.6811 -0.4626
  127MOL0     H16735   6.525   7.608   5.140  0.5405  1.8282  1.7832
  127MOL0     H16736   6.497   7.404   5.365 -0.6737 -0.7004 -0.4525
  127MOL0     H16737   6.530   7.578   5.388  0.5868 -1.2738  1.8798
  127MOL0     H16738   6.317   7.443   5.214 -0.1575  0.5603 -0.1602
  127MOL0     H16739   6.320   7.616   5.257 -2.4968 -0.9891 -2.9008
  127MOL0     H16740   6.279   7.576   5.493 -0.0969 -0.9057  0.8665
  127MOL0     H16741   6.291   7.407   5.479 -0.7095  1.6581  1.9359
  127MOL0     H16742   6.046   7.563   5.387  1.1568  0.2392  0.9453
  127MOL0     H16743   6.089   7.427   5.299  3.5566  0.3557 -0.9495
  127MOL0     H16744   6.054   7.275   5.496 -1.9433 -0.7254  1.7808
  127MOL0     H16745   5.934   7.383   5.493 -0.5533 -1.5911  0.8594
  127MOL0     H16746   6.972   7.588   4.911  0.4773 -0.7102  2.9357
  127MOL0     H16747   7.167   7.526   4.757  0.3950 -0.2542  0.6349
  127MOL0     H16748   7.375   7.485   4.350 -0.2070 -0.0604 -0.7403
  127MOL0     H16749   7.577   7.462   4.250 -0.6869  0.2613  0.6579
  127MOL0     H16750   9.105   6.542   4.268  1.4161  1.7210  0.3261
  127MOL0     H16751   9.132   6.368   4.116 -1.0300 -0.9441  0.4491
  127MOL0     H16752   9.547   6.138   3.855 -1.7567 -0.7343  1.4105
  127MOL0     H16753   9.580   5.955   3.702 -0.7787 -0.0972  4.6503
  127MOL0     H16754   9.536   5.763   3.582  1.8024 -1.4239 -0.9452
  127MOL0     H16755   9.536   5.869   3.434 -0.9058 -0.0991 -1.5170
  127MOL0     H16756   9.513   5.584   3.428 -1.4277 -0.7899  1.3166
  127MOL0     H16757   9.346   5.631   3.452 -0.4855  2.2924  0.8974
  127MOL0     H16758   9.372   5.784   3.253 -2.3544 -1.5467 -1.5466
  127MOL0     H16759   9.391   5.612   3.201 -0.7746 -2.8920  3.6954
  127MOL0     H16760   9.615   5.829   3.226  0.3134 -1.5356  2.5929
  127MOL0     H16761   9.646   5.658   3.243  3.9651  2.4703  0.0930
  127MOL0     H16762   9.582   5.686   2.821  2.1975  0.7777 -0.1194
  127MOL0     H16763   9.180   6.033   3.553 -0.7862 -0.1989  1.4705
  127MOL0     H16764   9.176   6.233   3.682 -1.4434 -0.6742  0.7688
  128MOL0     O16765   5.391   5.174   3.320  0.5701  0.7503  0.0350
  128MOL0     C16766   5.303   5.099   3.265  0.2394  0.6072 -0.1251
  128MOL0     O16767   5.181   5.076   3.316  0.1376  0.5704 -0.8466
  128MOL0     C16768   5.131   5.130   3.435  0.0236 -0.6500 -0.1166
  128MOL0     C16769   5.002   5.076   3.475 -0.5699  0.0091 -0.1205
  128MOL0     C16770   4.939   5.132   3.588 -0.0225 -0.1886 -0.2285
  128MOL0     C16771   5.001   5.229   3.663  0.1191  0.4811 -0.4389
  128MOL0     O16772   4.938   5.291   3.768  0.7100  0.1128 -0.9716
  128MOL0     C16773   4.863   5.211   3.870  0.8506 -0.1137  0.1293
  128MOL0     C16774   4.816   5.286   3.995 -0.2926  0.1580 -1.2408
  128MOL0     C16775   4.706   5.208   4.070  0.6065  0.1112 -0.1564
  128MOL0     C16776   4.679   5.262   4.207  0.1640  0.7317 -1.1521
  128MOL0     C16777   4.786   5.229   4.313 -0.1499 -0.4933 -0.6958
  128MOL0     C16778   4.816   5.078   4.330 -0.3108 -0.3014 -0.1046
  128MOL0     C16779   4.913   5.048   4.451  0.4668 -0.4470  0.7310
  128MOL0     C16780   4.874   5.121   4.583 -0.7385 -0.5382  0.8930
  128MOL0     N16781   4.734   5.100   4.622 -0.8318 -0.2799 -0.0597
  128MOL0     C16782   4.649   5.181   4.691  0.1020 -0.0099 -0.1997
  128MOL0     C16783   4.540   5.117   4.708  0.5606  0.9798  0.1823
  128MOL0     C16784   4.420   5.171   4.776 -0.5728 -0.3557 -0.5165
  128MOL0     C16785   4.317   5.058   4.826  0.0332  0.1657 -0.8655
  128MOL0     C16786   4.204   5.107   4.915  0.6269  0.2568  0.4706
  128MOL0     C16787   4.121   5.219   4.848 -0.6358  0.2581  0.1079
  128MOL0     O16788   4.081   5.313   4.950  0.1505 -0.4051  0.2005
  128MOL0     C16789   3.965   5.303   5.026  0.1843 -0.3619 -0.2877
  128MOL0     C16790   3.868   5.198   5.017 -0.6894  0.8658  0.9003
  128MOL0     C16791   3.761   5.190   5.094  0.5046  0.2731 -0.5213
  128MOL0     C16792   3.732   5.284   5.191 -0.1443 -0.5274  0.2136
  128MOL0     C16793   3.612   5.263   5.277 -0.0072  0.3238 -0.9235
  128MOL0     O16794   3.523   5.162   5.234 -0.2281 -0.1146  0.1739
  128MOL0     C16795   3.407   5.152   5.304 -0.3103  0.9334 -0.0692
  128MOL0     C16796   3.396   5.084   5.429  0.6270  0.9977 -0.1024
  128MOL0     C16797   3.273   5.069   5.491  0.8407 -0.4914  0.6288
  128MOL0     C16798   3.154   5.124   5.436 -0.2022 -0.2088  1.5686
  128MOL0     O16799   3.031   5.103   5.498 -0.2248  0.1248  0.2944
  128MOL0     C16800   2.984   4.973   5.530 -0.0543 -0.7434  0.7058
  128MOL0     C16801   2.829   4.967   5.565  0.8287 -0.0280  0.3565
  128MOL0     C16802   2.742   4.971   5.444  0.3990 -0.0603  0.9018
  128MOL0     C16803   2.587   4.975   5.488 -0.4403 -0.0374  0.9442
  128MOL0     C16804   2.488   4.928   5.379  0.6496  0.1298  0.6512
  128MOL0     C16805   2.504   4.787   5.327  0.3847 -0.0757  0.1966
  128MOL0     C16806   2.511   4.692   5.441 -0.5926  0.4862  1.0609
  128MOL0     C16807   2.512   4.551   5.365 -0.0873  0.4663 -1.1945
  128MOL0    Cl16808   2.529   4.439   5.501 -0.1376 -0.2468 -0.3343
  128MOL0     C16809   3.164   5.194   5.314  0.9209  0.1067 -0.4271
  128MOL0     C16810   3.292   5.204   5.249 -0.7484 -0.4840 -1.0130
  128MOL0     O16811   3.593   5.331   5.382  0.3024  0.1523 -0.2956
  128MOL0     C16812   3.832   5.384   5.206 -0.4567  0.2966  0.7116
  128MOL0     C16813   3.941   5.397   5.118  0.9040 -0.3574  0.6093
  128MOL0     N16814   4.565   4.980   4.669 -0.0490  0.2369 -0.0481
  128MOL0     N16815   4.679   4.980   4.618  0.3610  0.3674  0.3695
  128MOL0     C16816   5.130   5.275   3.628  0.8201 -0.2366  0.9692
  128MOL0     C16817   5.191   5.225   3.511  0.5145 -0.6967 -0.1504
  128MOL0     C16818   5.342   5.039   3.128  0.2115 -0.1269  0.0509
  128MOL0     C16819   5.238   4.970   3.062 -0.2565 -0.3316  0.3037
  128MOL0     C16820   5.270   4.903   2.940  0.3582 -0.4823  0.7658
  128MOL0     C16821   5.398   4.905   2.885  0.5854 -0.4317  0.7177
  128MOL0     O16822   5.431   4.855   2.762  0.2874 -0.1656 -0.5824
  128MOL0     C16823   5.335   4.894   2.660  0.1334 -0.2578  0.3973
  128MOL0     C16824   5.306   4.765   2.577 -0.8527  0.0791 -0.2498
  128MOL0     C16825   5.208   4.808   2.473  0.3830 -1.3763  0.3423
  128MOL0     C16826   5.193   4.692   2.368 -0.0212 -0.4338 -0.5515
  128MOL0     C16827   5.091   4.714   2.263 -0.1219 -0.2718  0.4139
  128MOL0     C16828   4.993   4.748   2.195 -0.2178  0.3652 -0.4475
  128MOL0     C16829   5.499   4.973   2.948 -0.5405  0.3384 -0.5840
  128MOL0     C16830   5.475   5.036   3.079  0.1086 -0.4171  0.2369
  128MOL0     H16831   4.954   5.010   3.403  1.5450  1.9477 -3.5753
  128MOL0     H16832   4.840   5.098   3.618  0.2970  0.6419  1.9959
  128MOL0     H16833   4.923   5.128   3.908 -1.1348 -0.5936  2.5177
  128MOL0     H16834   4.771   5.180   3.818 -0.9208  1.2063  2.2638
  128MOL0     H16835   4.786   5.387   3.965  2.4296  0.5230 -3.0754
  128MOL0     H16836   4.902   5.300   4.061 -2.0792  0.1486  1.2296
  128MOL0     H16837   4.722   5.100   4.077 -0.9489 -0.0857  0.6646
  128MOL0     H16838   4.616   5.223   4.011 -1.4553 -1.9260  2.2374
  128MOL0     H16839   4.662   5.370   4.207 -0.5633  0.8541  3.7347
  128MOL0     H16840   4.585   5.213   4.233  2.4922 -2.9401  1.1475
  128MOL0     H16841   4.750   5.269   4.408 -0.6192 -1.7074 -0.3485
  128MOL0     H16842   4.880   5.275   4.280  0.4915 -1.1636  0.1577
  128MOL0     H16843   4.848   5.026   4.239 -0.4510 -1.3616  0.4402
  128MOL0     H16844   4.723   5.022   4.341 -1.0948  0.6604 -1.4434
  128MOL0     H16845   4.914   4.942   4.479  1.6276 -1.4559 -2.6681
  128MOL0     H16846   5.017   5.074   4.433  0.7563  0.1179  2.9218
  128MOL0     H16847   4.886   5.228   4.565 -1.4144 -0.6845 -0.5525
  128MOL0     H16848   4.932   5.090   4.670 -0.8033  1.1445  1.5731
  128MOL0     H16849   4.656   5.286   4.717 -0.0389 -0.4272  1.6136
  128MOL0     H16850   4.378   5.239   4.701  1.6848  4.0616  1.8135
  128MOL0     H16851   4.452   5.232   4.861  1.2052 -1.4329 -0.3484
  128MOL0     H16852   4.364   4.970   4.873  0.3157  0.5313 -0.4596
  128MOL0     H16853   4.261   5.024   4.738 -1.9096  1.2410 -0.1083
  128MOL0     H16854   4.137   5.026   4.945 -1.9676  0.9490 -2.7772
  128MOL0     H16855   4.236   5.144   5.012  3.7336 -3.5384  1.1111
  128MOL0     H16856   4.039   5.171   4.794  0.9315 -2.4001 -0.0692
  128MOL0     H16857   4.187   5.273   4.780 -0.5543 -0.3286 -0.2777
  128MOL0     H16858   3.891   5.130   4.936  1.3906  3.0328 -0.4872
  128MOL0     H16859   3.684   5.114   5.085  0.4538  0.0695  1.2791
  128MOL0     H16860   3.490   5.052   5.474  1.4826  1.0948 -1.7464
  128MOL0     H16861   3.281   5.023   5.589  0.3716  1.1897  1.4927
  128MOL0     H16862   3.041   4.930   5.613  1.0717  3.1909  2.1907
  128MOL0     H16863   2.992   4.906   5.443  0.1197 -0.5248  0.5507
  128MOL0     H16864   2.795   5.044   5.635 -0.1982  0.1356 -0.3039
  128MOL0     H16865   2.809   4.878   5.625 -2.4928  0.7148  0.5082
  128MOL0     H16866   2.757   4.890   5.372  0.0183 -0.4749  1.2800
  128MOL0     H16867   2.778   5.060   5.392  3.2332 -2.2204 -1.0993
  128MOL0     H16868   2.573   4.932   5.588  0.2306 -1.6621  0.3715
  128MOL0     H16869   2.568   5.081   5.509 -0.0191 -0.3205  2.9513
  128MOL0     H16870   2.495   5.005   5.302 -4.0419  1.2007  1.0643
  128MOL0     H16871   2.388   4.944   5.418 -1.1330 -2.4054 -2.4133
  128MOL0     H16872   2.595   4.785   5.266  0.5148 -1.0445  0.4064
  128MOL0     H16873   2.423   4.764   5.257 -0.1005  1.7214  0.1134
  128MOL0     H16874   2.601   4.711   5.501 -1.0339 -1.9013  2.6199
  128MOL0     H16875   2.427   4.702   5.510 -1.8778  1.4781 -0.5707
  128MOL0     H16876   2.599   4.551   5.298  0.1667  2.3078 -0.9352
  128MOL0     H16877   2.425   4.529   5.303 -0.3383 -2.4237  0.0663
  128MOL0     H16878   3.081   5.249   5.271 -2.6860 -1.3533  3.9270
  128MOL0     H16879   3.298   5.254   5.153 -1.3076  1.8893  0.1079
  128MOL0     H16880   3.821   5.452   5.290  3.2250  0.6449  1.0949
  128MOL0     H16881   4.010   5.477   5.141  1.5380 -1.4771  2.9565
  128MOL0     H16882   5.179   5.344   3.696 -0.4993  2.5016 -0.6838
  128MOL0     H16883   5.286   5.273   3.488  0.4005 -0.0774  0.6038
  128MOL0     H16884   5.138   4.960   3.103 -0.9350 -0.1932 -1.2579
  128MOL0     H16885   5.206   4.840   2.878  1.4370  1.7547 -2.9230
  128MOL0     H16886   5.364   4.974   2.591 -1.4272 -0.2109 -0.2434
  128MOL0     H16887   5.244   4.937   2.701 -1.4439 -3.1810  0.2124
  128MOL0     H16888   5.397   4.731   2.527 -1.1521 -0.1251 -0.6554
  128MOL0     H16889   5.280   4.682   2.644  0.0083 -2.0082 -2.3898
  128MOL0     H16890   5.232   4.903   2.425 -0.9910 -2.2881 -2.3711
  128MOL0     H16891   5.112   4.830   2.520  0.1858  0.7112 -0.9243
  128MOL0     H16892   5.288   4.689   2.313 -1.5510  0.4225 -3.5023
  128MOL0     H16893   5.175   4.599   2.422 -1.8231 -0.8042 -1.6981
  128MOL0     H16894   4.897   4.775   2.155 -0.2606  0.8112 -0.0510
  128MOL0     H16895   5.602   4.976   2.914  1.0613  4.0569  3.5248
  128MOL0     H16896   5.551   5.077   3.145  0.4455 -1.0785  0.2723
  129MOL0     O16897  10.308   1.751   6.146  0.2822 -0.3197 -0.3946
  129MOL0     C16898  10.305   1.748   6.021  0.1421 -0.5156  0.0930
  129MOL0     O16899  10.406   1.782   5.937  0.6711 -0.5191  0.2402
  129MOL0     C16900  10.528   1.821   5.999 -0.0749  0.1835 -0.2064
  129MOL0     C16901  10.555   1.936   6.077  0.0887  0.3149  0.7048
  129MOL0     C16902  10.685   1.985   6.098  0.6947 -0.0435  0.5378
  129MOL0     C16903  10.792   1.907   6.054 -0.0014 -0.2864  0.1637
  129MOL0     O16904  10.915   1.949   6.084 -0.2221  0.6105  0.4786
  129MOL0     C16905  11.021   1.852   6.090 -0.6673  0.3999 -0.4710
  129MOL0     C16906  11.138   1.875   6.197  0.3574 -0.1107 -0.3408
  129MOL0     C16907  11.247   1.977   6.149  0.0211 -0.7341  0.0317
  129MOL0     C16908  11.376   1.961   6.235  0.1849  1.0936 -0.4669
  129MOL0     C16909  11.472   2.076   6.208 -0.0231 -1.0129  0.0791
  129MOL0     C16910  11.522   2.074   6.060  0.5320  0.2385  1.6480
  129MOL0     C16911  11.509   2.207   5.989  0.4055 -0.1964 -0.3866
  129MOL0     C16912  11.362   2.250   5.943 -0.0434  0.4171 -0.2555
  129MOL0     N16913  11.311   2.182   5.826 -0.3960  0.1416  0.3060
  129MOL0     C16914  11.196   2.108   5.811  0.3123 -0.0248 -0.3770
  129MOL0     C16915  11.177   2.093   5.677 -0.4414 -0.3484 -0.0486
  129MOL0     C16916  11.057   2.021   5.618 -0.5632  0.4517  0.2998
  129MOL0     C16917  10.957   2.119   5.550 -0.1442  0.9092  0.5327
  129MOL0     C16918  10.887   2.203   5.660 -0.3258  0.2722  0.8321
  129MOL0     C16919  10.789   2.297   5.585  0.2926  0.2589  0.8785
  129MOL0     O16920  10.665   2.224   5.573 -0.3418 -0.5986  0.8093
  129MOL0     C16921  10.551   2.266   5.502  0.0256  0.9165 -0.3891
  129MOL0     C16922  10.451   2.167   5.482  0.0438  1.0170 -0.5362
  129MOL0     C16923  10.325   2.211   5.429  0.1279  0.6723 -0.3453
  129MOL0     C16924  10.302   2.347   5.394  1.3683 -0.9853 -0.3823
  129MOL0     C16925  10.160   2.384   5.371  0.4333 -0.1484 -0.4605
  129MOL0     O16926  10.139   2.511   5.325  0.8492 -0.2771 -0.1782
  129MOL0     C16927  10.024   2.548   5.262 -0.5758  1.0336  0.2388
  129MOL0     C16928   9.944   2.467   5.188 -1.0414 -0.2329 -0.8993
  129MOL0     C16929   9.829   2.507   5.130  1.0261  0.0715 -0.3938
  129MOL0     C16930   9.783   2.639   5.151 -0.2717  0.3720  0.8937
  129MOL0     O16931   9.670   2.693   5.095 -0.1274 -0.1068 -0.5719
  129MOL0     C16932   9.597   2.632   4.986 -0.8344 -0.1418  0.0297
  129MOL0     C16933   9.487   2.711   4.939  0.3229 -0.1808  0.0942
  129MOL0     C16934   9.444   2.674   4.801 -0.5033 -0.3442  0.2279
  129MOL0     C16935   9.331   2.770   4.759  0.4129 -0.5960 -0.3539
  129MOL0     C16936   9.269   2.727   4.626 -0.4448 -0.5868  0.1526
  129MOL0     C16937   9.203   2.835   4.540  0.4790 -0.4967 -0.5124
  129MOL0     C16938   9.073   2.886   4.592 -0.4527 -0.5103  0.2004
  129MOL0     C16939   8.954   2.804   4.610 -0.2345 -0.3758 -0.1414
  129MOL0    Cl16940   8.901   2.756   4.441  0.1437 -0.0432 -0.7044
  129MOL0     C16941   9.863   2.725   5.233  0.2772  0.3865  0.8934
  129MOL0     C16942   9.993   2.680   5.278  0.8638 -0.9660  0.4796
  129MOL0     O16943  10.064   2.306   5.394 -0.3047  0.1207 -0.4375
  129MOL0     C16944  10.395   2.444   5.401  0.0072 -1.4284 -0.5220
  129MOL0     C16945  10.517   2.392   5.455 -0.6832 -0.3806 -0.3975
  129MOL0     N16946  11.279   2.147   5.603  0.5117 -0.0030  0.3039
  129MOL0     N16947  11.360   2.209   5.696  0.9422 -0.3562  0.2733
  129MOL0     C16948  10.761   1.790   5.978 -1.1653  1.1679 -1.0149
  129MOL0     C16949  10.638   1.742   5.955  0.3422 -1.0627 -0.4111
  129MOL0     C16950  10.171   1.677   5.971 -0.2479 -0.1131  0.3744
  129MOL0     C16951  10.091   1.603   6.058  0.6763 -0.7535 -0.8992
  129MOL0     C16952   9.971   1.549   6.020 -0.3163  0.5625  0.4253
  129MOL0     C16953   9.925   1.555   5.880 -0.3531 -1.1778  1.1669
  129MOL0     O16954   9.813   1.491   5.833 -0.1568 -0.4529 -0.9656
  129MOL0     C16955   9.709   1.473   5.941  0.0829  0.8972  0.6015
  129MOL0     C16956   9.569   1.465   5.879 -0.2126 -0.2817 -0.9166
  129MOL0     C16957   9.545   1.338   5.803 -0.1364  0.4100 -0.1308
  129MOL0     C16958   9.421   1.325   5.720  0.8535 -0.0532 -0.8053
  129MOL0     C16959   9.441   1.351   5.576 -0.1893  0.3184  0.6658
  129MOL0     C16960   9.457   1.351   5.458  0.2130  0.2312 -0.2533
  129MOL0     C16961  10.005   1.629   5.791 -0.6910  0.0196  0.4068
  129MOL0     C16962  10.130   1.689   5.837 -0.4073  0.8819  1.4350
  129MOL0     H16963  10.469   1.998   6.102  0.1698  1.6974 -2.1180
  129MOL0     H16964  10.692   2.079   6.153  1.6682  0.2683 -0.0757
  129MOL0     H16965  11.077   1.861   5.996 -3.0374 -1.9552 -2.2627
  129MOL0     H16966  10.980   1.751   6.103 -0.9911  0.4117 -1.3379
  129MOL0     H16967  11.185   1.780   6.225 -1.8961 -1.2018 -0.0159
  129MOL0     H16968  11.101   1.905   6.295  1.1425  0.9534 -0.3527
  129MOL0     H16969  11.200   2.076   6.153  2.1293  0.3515 -0.7371
  129MOL0     H16970  11.275   1.957   6.045 -2.1068  1.0528 -0.9646
  129MOL0     H16971  11.355   1.945   6.341 -1.2374  0.2978 -0.8355
  129MOL0     H16972  11.435   1.876   6.201  0.3026  0.8425  0.3465
  129MOL0     H16973  11.560   2.069   6.273 -1.4286 -0.2732  2.1712
  129MOL0     H16974  11.425   2.172   6.230  1.4431  0.1675 -1.6460
  129MOL0     H16975  11.466   2.006   5.996  1.7881  0.1508  0.6005
  129MOL0     H16976  11.628   2.047   6.058  0.0615 -1.6665  1.3344
  129MOL0     H16977  11.552   2.290   6.045  0.2981  0.1856 -0.8690
  129MOL0     H16978  11.572   2.202   5.899 -0.4827 -1.1417 -0.9759
  129MOL0     H16979  11.354   2.354   5.911  0.7661  0.2282 -1.1381
  129MOL0     H16980  11.290   2.227   6.022  2.9267 -1.4340  2.1699
  129MOL0     H16981  11.135   2.077   5.894 -0.5879  0.7174 -0.7398
  129MOL0     H16982  11.009   1.972   5.703  0.0528 -2.2925 -0.8351
  129MOL0     H16983  11.101   1.951   5.546  1.4404  0.8770  1.0309
  129MOL0     H16984  10.885   2.066   5.487  1.0307  0.5652 -0.5672
  129MOL0     H16985  11.009   2.178   5.473 -3.7096  0.8332 -2.1662
  129MOL0     H16986  10.828   2.140   5.728 -0.7813  0.0500  0.2462
  129MOL0     H16987  10.963   2.255   5.718  0.7662 -0.9168  0.5405
  129MOL0     H16988  10.828   2.325   5.487 -1.1240  3.1971  1.0356
  129MOL0     H16989  10.785   2.392   5.641  1.0451  1.1787 -0.5636
  129MOL0     H16990  10.460   2.068   5.524 -2.7802  0.1254 -1.7306
  129MOL0     H16991  10.244   2.140   5.412  0.3141  0.0863  1.0734
  129MOL0     H16992   9.976   2.365   5.167  1.5710  0.0010  1.3786
  129MOL0     H16993   9.767   2.436   5.076  1.8067 -1.2490  0.3865
  129MOL0     H16994   9.560   2.536   5.023 -1.5703 -0.7922 -2.2209
  129MOL0     H16995   9.660   2.608   4.899 -0.3183 -0.3109  0.4464
  129MOL0     H16996   9.527   2.813   4.935 -2.1628  0.9293  1.2965
  129MOL0     H16997   9.404   2.731   5.008  1.3265  1.6078  0.8644
  129MOL0     H16998   9.403   2.573   4.789  4.2132 -2.2920 -2.2890
  129MOL0     H16999   9.526   2.702   4.734  0.8542 -0.1770  1.9027
  129MOL0     H17000   9.256   2.781   4.837 -0.7865  1.7355 -1.7113
  129MOL0     H17001   9.378   2.868   4.751  0.7792 -0.6396  1.0301
  129MOL0     H17002   9.209   2.641   4.657  0.0065 -0.7115  0.6922
  129MOL0     H17003   9.344   2.695   4.553 -0.0160  2.8950 -1.1602
  129MOL0     H17004   9.191   2.796   4.438  2.4501 -3.3074  0.1964
  129MOL0     H17005   9.268   2.924   4.542 -0.6841  0.3841  2.4674
  129MOL0     H17006   9.092   2.939   4.686  0.4299  5.0113 -2.7019
  129MOL0     H17007   9.058   2.961   4.514 -2.5811 -1.7264 -0.6684
  129MOL0     H17008   8.877   2.858   4.667 -1.3950 -2.9497  0.8943
  129MOL0     H17009   8.984   2.713   4.663  1.7929 -0.9655 -2.1507
  129MOL0     H17010   9.837   2.828   5.254 -0.8597  0.1700  0.6473
  129MOL0     H17011  10.057   2.735   5.346  1.0908 -1.4737  0.6831
  129MOL0     H17012  10.370   2.548   5.385  0.7454 -0.9686  1.1068
  129MOL0     H17013  10.602   2.459   5.464  0.9597 -2.5129  0.9037
  129MOL0     H17014  10.841   1.725   5.945 -1.1296  0.4158  0.4554
  129MOL0     H17015  10.636   1.655   5.890  1.3436 -0.0587 -1.8602
  129MOL0     H17016  10.108   1.606   6.165  0.8711  0.0934 -0.9490
  129MOL0     H17017   9.931   1.496   6.107  1.4599 -1.8022 -0.1078
  129MOL0     H17018   9.709   1.550   6.019 -0.8415  1.0479  0.4605
  129MOL0     H17019   9.730   1.382   5.997 -0.3130  1.3225  1.4643
  129MOL0     H17020   9.496   1.481   5.959 -0.3664 -1.3201 -0.8386
  129MOL0     H17021   9.560   1.552   5.813  0.8519  1.3649  0.9845
  129MOL0     H17022   9.548   1.255   5.875  0.5658  1.3804  0.9822
  129MOL0     H17023   9.625   1.332   5.728 -0.8735  1.1333 -0.9984
  129MOL0     H17024   9.375   1.225   5.720 -3.3085  1.6600 -2.1718
  129MOL0     H17025   9.337   1.388   5.750  0.5225 -1.8448  2.6114
  129MOL0     H17026   9.498   1.366   5.360  2.5134  0.6915  0.7289
  129MOL0     H17027   9.969   1.648   5.690  0.9492 -3.0815 -0.8920
  129MOL0     H17028  10.199   1.744   5.774  0.7584 -1.9922  0.0051
  130MOL0     O17029   2.624   3.277   8.558  0.3720  0.6252 -0.0132
  130MOL0     C17030   2.666   3.302   8.666  0.3471 -0.5176 -0.2204
  130MOL0     O17031   2.587   3.346   8.770 -0.4094  0.2774 -0.3599
  130MOL0     C17032   2.456   3.353   8.785  0.6604 -0.3010  0.0672
  130MOL0     C17033   2.412   3.428   8.897  0.2717 -0.0096  0.3423
  130MOL0     C17034   2.276   3.460   8.917 -0.1464 -0.1341  0.4776
  130MOL0     C17035   2.187   3.397   8.827  0.5200 -0.0890 -0.4387
  130MOL0     O17036   2.046   3.401   8.842  0.2865 -0.4631 -0.5440
  130MOL0     C17037   1.988   3.537   8.838  0.0688  0.9340  0.1001
  130MOL0     C17038   1.836   3.524   8.854 -0.3042 -0.1576  0.1149
  130MOL0     C17039   1.802   3.482   8.994  0.4250 -0.7219  0.9218
  130MOL0     C17040   1.649   3.472   8.983 -0.2193 -0.4501  0.2548
  130MOL0     C17041   1.609   3.328   8.938 -0.2639  0.3211 -0.0528
  130MOL0     C17042   1.457   3.305   8.925  0.4207 -0.2638 -0.4326
  130MOL0     C17043   1.405   3.263   9.070 -0.8526 -0.3901 -0.0804
  130MOL0     C17044   1.258   3.250   9.091  1.5152 -0.3953 -0.5679
  130MOL0     N17045   1.167   3.363   9.051 -0.1903  0.2407  0.7924
  130MOL0     C17046   1.145   3.393   8.916  0.0892  0.7437  0.7897
  130MOL0     C17047   1.056   3.494   8.929  0.1383 -0.6041  0.5311
  130MOL0     C17048   0.996   3.584   8.820 -0.6089  0.8107  0.2041
  130MOL0     C17049   0.863   3.537   8.778 -0.6466  0.8943  0.9475
  130MOL0     C17050   0.786   3.625   8.687  0.0142  0.7269 -0.0746
  130MOL0     C17051   0.640   3.578   8.669 -0.0986  0.4866  0.3942
  130MOL0     O17052   0.574   3.628   8.549  0.1916 -0.7144 -0.2609
  130MOL0     C17053   0.443   3.652   8.552  0.4163  0.1024  0.4903
  130MOL0     C17054   0.409   3.769   8.482  0.3534 -0.2205  0.8704
  130MOL0     C17055   0.267   3.786   8.458 -0.4239 -0.5616  0.2417
  130MOL0     C17056   0.166   3.704   8.515 -0.2204  0.2416  0.0242
  130MOL0     C17057   0.019   3.741   8.510 -0.6561 -0.5436 -0.1598
  130MOL0     O17058  -0.068   3.678   8.598  0.2036  0.7964  0.2546
  130MOL0     C17059  -0.199   3.671   8.550  0.6063  0.2819 -0.6537
  130MOL0     C17060  -0.241   3.629   8.423 -0.8954  0.5722 -0.7593
  130MOL0     C17061  -0.369   3.614   8.390 -0.6953 -0.0441  0.3051
  130MOL0     C17062  -0.467   3.636   8.471  0.3405 -1.0325 -0.1767
  130MOL0     O17063  -0.595   3.624   8.425  0.9472 -0.1771 -0.1946
  130MOL0     C17064  -0.703   3.629   8.516 -0.4086  0.1750 -0.3867
  130MOL0     C17065  -0.828   3.606   8.430 -0.2362 -0.3930 -0.8623
  130MOL0     C17066  -0.956   3.655   8.501  0.0591  0.0460 -0.9291
  130MOL0     C17067  -1.074   3.624   8.413  0.4621  0.1348 -0.2746
  130MOL0     C17068  -1.212   3.664   8.470 -0.4698  0.5682  0.2877
  130MOL0     C17069  -1.327   3.637   8.365 -0.7324 -0.2116  0.0491
  130MOL0     C17070  -1.470   3.662   8.421  0.3158  0.6028  0.4898
  130MOL0     C17071  -1.570   3.625   8.308  0.5025  0.4998 -0.0445
  130MOL0    Cl17072  -1.734   3.602   8.361  0.0304 -0.1485  0.1116
  130MOL0     C17073  -0.438   3.678   8.603 -0.4718  0.0466  0.0652
  130MOL0     C17074  -0.302   3.686   8.643 -0.3591  0.0113  0.1269
  130MOL0     O17075  -0.012   3.825   8.429  0.0570  0.5020  0.2537
  130MOL0     C17076   0.214   3.592   8.588 -0.2877 -0.3282  0.1040
  130MOL0     C17077   0.352   3.570   8.607  0.3069  0.2358 -0.9252
  130MOL0     N17078   1.017   3.512   9.054  0.0488 -0.5120 -0.4114
  130MOL0     N17079   1.084   3.430   9.132 -0.9556 -0.3126 -0.9206
  130MOL0     C17080   2.227   3.314   8.722 -0.3732  0.5123  0.5957
  130MOL0     C17081   2.365   3.292   8.700  0.1079 -0.0801  0.7303
  130MOL0     C17082   2.817   3.318   8.677 -0.4850  0.4084 -1.1720
  130MOL0     C17083   2.865   3.381   8.796 -0.1326 -0.4495 -0.5346
  130MOL0     C17084   2.999   3.416   8.807  0.2795 -0.1787  0.2060
  130MOL0     C17085   3.091   3.378   8.703 -0.8731 -0.7044 -0.1843
  130MOL0     O17086   3.220   3.416   8.717  0.1359 -0.0287 -0.2663
  130MOL0     C17087   3.268   3.548   8.686  0.3775  0.3282  0.5098
  130MOL0     C17088   3.393   3.549   8.598 -0.0523  0.9596 -0.0919
  130MOL0     C17089   3.356   3.510   8.448  0.7652 -0.9083  0.0760
  130MOL0     C17090   3.455   3.557   8.342 -0.2113  0.2718  0.3602
  130MOL0     C17091   3.444   3.703   8.338  1.2923  0.0806  0.2772
  130MOL0     C17092   3.420   3.827   8.317  0.2055 -0.1128 -0.4696
  130MOL0     C17093   3.049   3.322   8.591  0.5262 -0.2462  0.0703
  130MOL0     C17094   2.909   3.289   8.569 -0.8973  0.2745  0.5900
  130MOL0     H17095   2.483   3.475   8.965  0.5423 -0.6806  0.5273
  130MOL0     H17096   2.248   3.530   8.995 -2.4085 -2.1723  1.6242
  130MOL0     H17097   2.007   3.579   8.739 -1.4716 -0.6888 -0.9494
  130MOL0     H17098   2.029   3.605   8.914  0.6894 -0.4063  0.9941
  130MOL0     H17099   1.801   3.452   8.779 -2.1146  0.4597  0.3172
  130MOL0     H17100   1.787   3.618   8.828 -3.4631 -1.6639  0.0793
  130MOL0     H17101   1.816   3.557   9.072 -0.8456 -1.1496  1.5842
  130MOL0     H17102   1.855   3.393   9.030 -1.3341 -1.7164  1.1433
  130MOL0     H17103   1.610   3.501   9.081  1.8462  2.3992  0.3770
  130MOL0     H17104   1.601   3.544   8.917  1.0612  0.6863  0.5075
  130MOL0     H17105   1.667   3.255   8.995  2.5227  1.5507 -1.1097
  130MOL0     H17106   1.636   3.318   8.832  0.1557  2.2712 -0.1849
  130MOL0     H17107   1.435   3.230   8.849  0.2779 -1.4260  0.7118
  130MOL0     H17108   1.407   3.397   8.894  1.5276 -0.6232 -3.6212
  130MOL0     H17109   1.450   3.173   9.113  2.1160  0.6675 -0.7236
  130MOL0     H17110   1.441   3.347   9.130 -3.2639  0.2133  0.6412
  130MOL0     H17111   1.246   3.223   9.196  1.1852 -1.9530 -0.9725
  130MOL0     H17112   1.222   3.158   9.042 -0.2897  2.1880 -4.6555
  130MOL0     H17113   1.196   3.358   8.827 -4.3656 -0.9357 -1.4217
  130MOL0     H17114   1.064   3.595   8.736 -3.6279  0.9725 -2.4005
  130MOL0     H17115   0.985   3.685   8.860  2.1240  1.2186  0.0860
  130MOL0     H17116   0.805   3.520   8.869 -0.2369 -0.2102  1.0280
  130MOL0     H17117   0.868   3.435   8.738  3.5056  0.1244  2.8223
  130MOL0     H17118   0.799   3.729   8.716 -0.3406  1.0175 -0.9074
  130MOL0     H17119   0.836   3.607   8.591 -1.1368 -2.9879 -0.1483
  130MOL0     H17120   0.584   3.617   8.754 -0.1420  1.9941 -0.2904
  130MOL0     H17121   0.629   3.469   8.665 -1.1011  0.4343  3.0291
  130MOL0     H17122   0.492   3.832   8.451  1.2103 -2.0257 -0.7681
  130MOL0     H17123   0.239   3.879   8.410  1.4930  2.0168  3.7212
  130MOL0     H17124  -0.169   3.592   8.350  0.4056  3.0032 -0.8255
  130MOL0     H17125  -0.381   3.584   8.287  0.8874  0.6335 -0.1009
  130MOL0     H17126  -0.712   3.723   8.571 -0.9059  0.1081 -0.3546
  130MOL0     H17127  -0.695   3.550   8.591 -1.7970  1.9005  1.6731
  130MOL0     H17128  -0.836   3.497   8.418 -0.0729 -0.3832 -1.0811
  130MOL0     H17129  -0.813   3.648   8.330  2.1818  2.1396  0.4099
  130MOL0     H17130  -0.952   3.762   8.520 -0.7030 -0.1882  0.7007
  130MOL0     H17131  -0.977   3.603   8.595  1.5233  2.5115  0.8822
  130MOL0     H17132  -1.060   3.665   8.313 -3.8160 -1.2283 -1.6375
  130MOL0     H17133  -1.071   3.516   8.394  1.8279 -0.0263  0.7173
  130MOL0     H17134  -1.214   3.769   8.498 -0.9024  0.7091 -0.2316
  130MOL0     H17135  -1.218   3.601   8.559 -1.8958  0.3750  0.0906
  130MOL0     H17136  -1.331   3.535   8.327 -1.3756 -0.4789  0.8015
  130MOL0     H17137  -1.299   3.705   8.284 -0.4604  0.3021  0.5684
  130MOL0     H17138  -1.477   3.593   8.505  1.6095  2.7903  2.4924
  130MOL0     H17139  -1.469   3.764   8.460  2.7886  0.1944  1.6945
  130MOL0     H17140  -1.530   3.537   8.257  1.0388 -0.8918  2.5992
  130MOL0     H17141  -1.559   3.708   8.237  3.3781  0.2128 -0.0860
  130MOL0     H17142  -0.516   3.684   8.677  1.3641  2.2619  1.9684
  130MOL0     H17143  -0.277   3.699   8.748  1.5933 -1.9947 -0.0215
  130MOL0     H17144   0.158   3.509   8.631  1.6669 -0.5464  2.4462
  130MOL0     H17145   0.402   3.482   8.645 -0.4523 -0.0776 -0.6332
  130MOL0     H17146   2.158   3.275   8.648  0.4362  1.2998 -0.6113
  130MOL0     H17147   2.408   3.238   8.616  0.0117 -0.8780  1.1821
  130MOL0     H17148   2.800   3.395   8.882  0.3302 -2.1734  0.1596
  130MOL0     H17149   3.049   3.471   8.886  1.5448 -1.4704  0.3532
  130MOL0     H17150   3.289   3.608   8.775 -1.6441  0.0446  1.2339
  130MOL0     H17151   3.202   3.610   8.624  0.6679 -1.2561 -1.4808
  130MOL0     H17152   3.424   3.654   8.597 -1.7700  1.5225  1.0688
  130MOL0     H17153   3.472   3.481   8.631 -0.2133  1.3430  1.1093
  130MOL0     H17154   3.258   3.547   8.418  1.5103 -1.8297 -4.0112
  130MOL0     H17155   3.360   3.401   8.438 -1.2569 -1.2139  1.8117
  130MOL0     H17156   3.558   3.528   8.366  0.0020  0.0048 -0.8105
  130MOL0     H17157   3.415   3.510   8.252 -0.7325 -1.5447  1.4874
  130MOL0     H17158   3.381   3.927   8.308 -0.4784 -0.4811 -1.8449
  130MOL0     H17159   3.111   3.313   8.503 -0.7350  0.1652 -0.8848
  130MOL0     H17160   2.865   3.231   8.489 -3.0416  2.2169  0.2451
  131MOL0     O17161  10.192   8.677   2.920  0.7040  0.2959  0.1825
  131MOL0     C17162  10.243   8.695   3.033 -0.5324  0.1229  0.1067
  131MOL0     O17163  10.181   8.738   3.145 -0.1120  0.0662  0.4732
  131MOL0     C17164  10.069   8.822   3.129 -0.6407  1.2734 -0.3316
  131MOL0     C17165  10.081   8.954   3.087  0.2388 -0.2467 -0.6856
  131MOL0     C17166   9.976   9.041   3.073  0.3621 -0.7324  0.3753
  131MOL0     C17167   9.847   9.007   3.106  1.0175  0.7741 -0.2951
  131MOL0     O17168   9.735   9.092   3.118  0.3405  0.3016  0.3805
  131MOL0     C17169   9.636   9.059   3.212 -0.9072 -0.4153 -0.5077
  131MOL0     C17170   9.548   9.178   3.236 -0.0156  1.0289  0.4549
  131MOL0     C17171   9.434   9.158   3.335 -0.5208  0.4096  0.7616
  131MOL0     C17172   9.467   9.159   3.489 -0.1237  0.7274 -0.4893
  131MOL0     C17173   9.345   9.107   3.574 -0.4573 -1.1276 -0.4401
  131MOL0     C17174   9.292   8.971   3.555 -0.2948 -0.9278 -0.4697
  131MOL0     C17175   9.156   8.976   3.481  0.0141 -0.1129  0.0630
  131MOL0     C17176   9.120   8.841   3.427 -0.3920  0.3406  0.0438
  131MOL0     N17177   9.069   8.763   3.543 -0.3006 -0.5245 -0.5017
  131MOL0     C17178   8.961   8.794   3.621 -0.8989  0.0571  0.2462
  131MOL0     C17179   8.960   8.716   3.732  0.1571  0.1622  0.5290
  131MOL0     C17180   8.853   8.715   3.843  0.5252  0.3662 -0.1836
  131MOL0     C17181   8.716   8.667   3.803 -0.0782 -0.6543  0.7171
  131MOL0     C17182   8.729   8.538   3.718 -1.4069  0.2533 -0.3362
  131MOL0     C17183   8.812   8.419   3.780  0.9362  0.0069  0.1138
  131MOL0     O17184   8.783   8.397   3.917 -0.4365  0.0978 -0.5133
  131MOL0     C17185   8.663   8.369   3.958 -0.6644 -0.0328 -0.8263
  131MOL0     C17186   8.571   8.278   3.900  0.9343  0.8314  1.0952
  131MOL0     C17187   8.440   8.264   3.947  0.5756 -0.2193 -0.3727
  131MOL0     C17188   8.403   8.326   4.072  0.2929  0.5719 -0.1886
  131MOL0     C17189   8.258   8.299   4.138 -0.1120  0.6543 -0.7353
  131MOL0     O17190   8.251   8.336   4.276 -0.0811 -0.4213  0.9045
  131MOL0     C17191   8.129   8.325   4.336  0.5685 -0.2056 -0.0654
  131MOL0     C17192   8.105   8.234   4.447  0.3428 -0.8049 -1.0078
  131MOL0     C17193   7.982   8.226   4.500  0.1996 -1.2389  0.1253
  131MOL0     C17194   7.874   8.300   4.450  0.0631  0.0497 -0.0041
  131MOL0     O17195   7.758   8.283   4.520  0.2553 -0.0102  0.2030
  131MOL0     C17196   7.662   8.388   4.506 -0.0702  0.4390  0.5219
  131MOL0     C17197   7.526   8.370   4.583 -0.5482  0.6435  0.3067
  131MOL0     C17198   7.555   8.371   4.728  1.2196 -0.3189  0.5332
  131MOL0     C17199   7.433   8.385   4.830  0.4276 -0.3938 -0.3425
  131MOL0     C17200   7.415   8.536   4.851  0.9741 -0.3108 -1.0797
  131MOL0     C17201   7.300   8.584   4.940  0.3397 -0.1774  0.4092
  131MOL0     C17202   7.167   8.591   4.873  0.1798 -0.0453 -0.0411
  131MOL0     C17203   7.055   8.619   4.980 -0.2836 -0.2842 -0.0745
  131MOL0    Cl17204   7.028   8.464   5.073  0.1941  0.1765 -0.4571
  131MOL0     C17205   7.893   8.388   4.346  0.3473 -0.5216 -0.7107
  131MOL0     C17206   8.018   8.406   4.286 -0.8958  0.5428 -0.4838
  131MOL0     O17207   8.176   8.239   4.069 -0.5949 -0.0228  0.5327
  131MOL0     C17208   8.488   8.419   4.129 -0.1400  0.1906  1.0756
  131MOL0     C17209   8.617   8.425   4.076  0.8927  0.3316  0.6330
  131MOL0     N17210   9.075   8.645   3.724  0.4203 -0.4101  0.1246
  131MOL0     N17211   9.138   8.668   3.615  0.3079 -0.4034 -0.9514
  131MOL0     C17212   9.831   8.867   3.138 -0.5030  0.4540 -0.1975
  131MOL0     C17213   9.936   8.777   3.152 -0.9221 -0.3370 -0.6136
  131MOL0     C17214  10.390   8.682   3.048 -1.2560 -0.4426 -0.3386
  131MOL0     C17215  10.464   8.624   2.942 -0.4777  0.8531  0.3534
  131MOL0     C17216  10.606   8.602   2.951  0.1531 -0.0516 -0.3033
  131MOL0     C17217  10.675   8.664   3.059 -0.9226 -0.3182  0.9132
  131MOL0     O17218  10.814   8.668   3.066 -0.8245 -0.0477 -0.4734
  131MOL0     C17219  10.891   8.696   2.956  0.4683  0.8298  1.2782
  131MOL0     C17220  11.003   8.800   2.989  1.7523  0.9462  0.1085
  131MOL0     C17221  11.047   8.873   2.859  0.0674  0.1676 -1.1732
  131MOL0     C17222  11.163   8.800   2.789 -0.4909  1.0353 -1.2621
  131MOL0     C17223  11.220   8.872   2.676  0.1078 -0.4155 -0.1795
  131MOL0     C17224  11.255   8.951   2.585  0.1562 -0.2532 -0.4195
  131MOL0     C17225  10.600   8.734   3.159  0.6061 -0.0068  0.3866
  131MOL0     C17226  10.461   8.745   3.164  1.3367 -0.6402  0.0832
  131MOL0     H17227  10.187   8.977   3.077  0.6522 -1.0179  1.2869
  131MOL0     H17228   9.998   9.146   3.055  0.2486 -0.6459  0.7197
  131MOL0     H17229   9.696   9.035   3.300  3.0884  4.8920 -1.3121
  131MOL0     H17230   9.582   8.972   3.173  1.1424 -1.4890 -1.0581
  131MOL0     H17231   9.505   9.191   3.136  1.5872 -1.2006 -0.6269
  131MOL0     H17232   9.606   9.267   3.261 -0.1506  0.8691  1.3532
  131MOL0     H17233   9.368   9.076   3.305 -0.0872  0.3377 -0.0196
  131MOL0     H17234   9.381   9.253   3.323  0.5738  0.7012 -2.8558
  131MOL0     H17235   9.549   9.094   3.520 -1.0372  0.2737  1.1218
  131MOL0     H17236   9.487   9.260   3.525 -0.4018  0.5643  0.1393
  131MOL0     H17237   9.269   9.183   3.556  2.5999  2.3596  0.2462
  131MOL0     H17238   9.376   9.126   3.677 -1.3724  0.9433 -0.4984
  131MOL0     H17239   9.274   8.924   3.652 -2.6954 -2.2061 -1.4484
  131MOL0     H17240   9.356   8.918   3.484  1.6111  2.5938 -1.6516
  131MOL0     H17241   9.072   9.013   3.540 -2.2026  0.8113 -3.3935
  131MOL0     H17242   9.176   9.043   3.397 -1.3225  1.5826  1.0333
  131MOL0     H17243   9.206   8.791   3.381 -0.7678 -1.4782  1.2209
  131MOL0     H17244   9.036   8.855   3.359 -1.6338 -2.8607  0.7396
  131MOL0     H17245   8.883   8.870   3.608 -0.3079  0.5455 -0.5634
  131MOL0     H17246   8.836   8.816   3.881 -0.2430  0.4468 -0.7239
  131MOL0     H17247   8.900   8.658   3.924  2.2130  0.3235 -1.1333
  131MOL0     H17248   8.663   8.746   3.750  1.4974  1.1915  1.7614
  131MOL0     H17249   8.656   8.637   3.889  0.1361 -2.7153  0.2018
  131MOL0     H17250   8.630   8.501   3.689 -1.3890  0.4072 -0.6038
  131MOL0     H17251   8.769   8.569   3.621  2.4067  5.1836  2.3205
  131MOL0     H17252   8.919   8.440   3.769  0.8379  0.6098  0.2565
  131MOL0     H17253   8.783   8.331   3.722  0.2775  1.6681 -2.2356
  131MOL0     H17254   8.620   8.221   3.821  0.2789 -2.5115  2.9413
  131MOL0     H17255   8.385   8.183   3.898 -3.3348  2.6701 -1.2688
  131MOL0     H17256   8.193   8.177   4.475 -1.1835 -3.0173 -0.4723
  131MOL0     H17257   7.973   8.154   4.581 -0.8441  0.4540  1.6171
  131MOL0     H17258   7.642   8.394   4.399 -1.5304 -0.3890  0.7316
  131MOL0     H17259   7.706   8.485   4.532 -1.7795  0.5021  3.7076
  131MOL0     H17260   7.484   8.273   4.557  2.5068 -1.2489  1.9206
  131MOL0     H17261   7.447   8.444   4.568 -2.1991 -1.0181  0.5943
  131MOL0     H17262   7.628   8.444   4.766  0.3141  2.3328 -2.4297
  131MOL0     H17263   7.602   8.275   4.750 -0.4331 -1.3323 -0.1825
  131MOL0     H17264   7.335   8.350   4.795  0.3322 -1.3559  0.8164
  131MOL0     H17265   7.452   8.336   4.926  0.9088 -3.0958 -1.6952
  131MOL0     H17266   7.416   8.597   4.760 -2.2550  0.5702 -0.6515
  131MOL0     H17267   7.506   8.564   4.905  1.1982 -1.8363 -0.6175
  131MOL0     H17268   7.324   8.687   4.969 -0.1935 -0.1385  0.7373
  131MOL0     H17269   7.304   8.516   5.026 -1.4713  0.1837  0.8293
  131MOL0     H17270   7.173   8.664   4.792  3.2727 -0.3569 -0.1958
  131MOL0     H17271   7.160   8.492   4.828  1.2944  0.2206 -0.8358
  131MOL0     H17272   6.959   8.643   4.935  0.4060  3.0082 -0.0629
  131MOL0     H17273   7.076   8.704   5.046 -3.7766  0.3293  0.3972
  131MOL0     H17274   7.809   8.447   4.312  0.8132 -0.0265 -1.0216
  131MOL0     H17275   8.040   8.480   4.210  1.3528  0.4907  0.0477
  131MOL0     H17276   8.472   8.490   4.210  0.3732  2.5593 -0.7940
  131MOL0     H17277   8.689   8.499   4.109  1.3576  2.0471 -3.5988
  131MOL0     H17278   9.735   8.824   3.164  0.3833 -0.2820  2.0766
  131MOL0     H17279   9.916   8.674   3.182 -1.1344 -0.1919 -0.2429
  131MOL0     H17280  10.409   8.590   2.855  1.3715  0.7261 -0.8206
  131MOL0     H17281  10.662   8.563   2.866  0.1759  1.8602 -1.2128
  131MOL0     H17282  10.830   8.748   2.881  0.3014 -1.2990 -0.1254
  131MOL0     H17283  10.928   8.606   2.906  0.4564  2.8151 -2.7748
  131MOL0     H17284  10.967   8.873   3.062  2.3824 -0.0697  1.4750
  131MOL0     H17285  11.089   8.744   3.027 -0.8232 -3.5805  0.0428
  131MOL0     H17286  11.083   8.971   2.893  1.9836 -1.5716  2.3810
  131MOL0     H17287  10.971   8.898   2.784 -1.8078 -0.7249  0.3596
  131MOL0     H17288  11.239   8.777   2.865 -1.7689 -0.6459 -0.4076
  131MOL0     H17289  11.135   8.700   2.755  0.8089  0.9241 -2.0812
  131MOL0     H17290  11.286   9.028   2.517 -0.8405 -1.5563 -2.4478
  131MOL0     H17291  10.665   8.750   3.245  2.3142 -0.5303 -0.7621
  131MOL0     H17292  10.414   8.793   3.249  0.0262 -1.8202  0.0599
  132MOL0     O17293   2.928   2.378   4.147 -0.1319  0.7528 -0.2189
  132MOL0     C17294   2.867   2.459   4.217 -0.3404  0.5080  0.0248
  132MOL0     O17295   2.898   2.590   4.225  0.6232 -0.0803 -0.5803
  132MOL0     C17296   3.022   2.636   4.175  0.3172  1.1064 -0.9609
  132MOL0     C17297   3.092   2.721   4.255  0.4381 -0.7856 -0.3739
  132MOL0     C17298   3.214   2.770   4.211  0.1799  0.4685 -0.6371
  132MOL0     C17299   3.267   2.738   4.090  0.6241  0.3363  0.2594
  132MOL0     O17300   3.388   2.791   4.053  0.0525  0.7842 -1.5858
  132MOL0     C17301   3.369   2.920   4.002  0.5830  1.0038 -0.5623
  132MOL0     C17302   3.478   2.966   3.906 -0.5477  0.4228  0.1918
  132MOL0     C17303   3.452   3.099   3.838 -0.6242  0.0113  0.6650
  132MOL0     C17304   3.575   3.146   3.767 -0.3855 -0.2604 -0.1432
  132MOL0     C17305   3.558   3.292   3.714 -0.5373  1.1324 -0.0794
  132MOL0     C17306   3.503   3.406   3.790  0.7948 -0.8102  0.7177
  132MOL0     C17307   3.568   3.424   3.921 -0.4497  0.2990  0.4270
  132MOL0     C17308   3.489   3.527   4.012  0.3333  1.7064  0.2043
  132MOL0     N17309   3.366   3.480   4.087  0.2102  0.1067 -0.2207
  132MOL0     C17310   3.293   3.548   4.185 -0.5258  0.5845 -0.3370
  132MOL0     C17311   3.189   3.465   4.216  0.5513  0.0393 -0.9645
  132MOL0     C17312   3.086   3.488   4.327 -0.1514  0.7863 -0.2883
  132MOL0     C17313   2.956   3.551   4.270 -0.7305  0.3425  0.1801
  132MOL0     C17314   2.862   3.601   4.384 -0.1090  0.2334 -0.2109
  132MOL0     C17315   2.821   3.490   4.483  0.1709 -0.0494  0.0320
  132MOL0     O17316   2.699   3.549   4.545  0.0802 -0.7665 -0.5817
  132MOL0     C17317   2.631   3.467   4.627  0.6808  0.4526 -0.4590
  132MOL0     C17318   2.654   3.331   4.675  0.5512 -0.0352 -0.4987
  132MOL0     C17319   2.568   3.266   4.760 -0.8959 -0.6315 -0.2253
  132MOL0     C17320   2.441   3.328   4.797  0.1290  0.1679 -0.3731
  132MOL0     C17321   2.344   3.243   4.877  0.7360  0.1280 -1.1615
  132MOL0     O17322   2.389   3.127   4.937  0.3142 -0.3143  0.9771
  132MOL0     C17323   2.323   3.065   5.033  0.5224 -0.1470  0.2419
  132MOL0     C17324   2.190   3.036   5.028 -0.8729  0.2027 -0.8306
  132MOL0     C17325   2.133   2.944   5.118  0.7201 -0.4880 -0.1382
  132MOL0     C17326   2.215   2.888   5.214 -0.8165 -0.0618  0.4059
  132MOL0     O17327   2.175   2.802   5.308 -0.1114  0.0014  1.2496
  132MOL0     C17328   2.039   2.762   5.308 -0.3700 -0.4124 -0.0155
  132MOL0     C17329   2.025   2.681   5.432  0.0607 -0.6915 -0.1361
  132MOL0     C17330   1.890   2.610   5.442  0.5330 -0.7150 -0.6604
  132MOL0     C17331   1.893   2.513   5.564  0.0391 -0.6070  0.4932
  132MOL0     C17332   1.758   2.448   5.582  0.0353  0.3552  0.2157
  132MOL0     C17333   1.761   2.376   5.714  0.1805 -0.3198  0.2285
  132MOL0     C17334   1.621   2.316   5.756  0.2962 -0.0479  0.5870
  132MOL0     C17335   1.508   2.410   5.778 -0.2332 -0.3441 -0.7904
  132MOL0    Cl17336   1.548   2.561   5.873  0.3271  0.0466 -0.1815
  132MOL0     C17337   2.349   2.919   5.222 -0.3432 -1.4760  1.0497
  132MOL0     C17338   2.402   3.004   5.124  0.0527 -0.0080 -1.0177
  132MOL0     O17339   2.235   3.293   4.911 -0.0357 -0.5292 -0.1511
  132MOL0     C17340   2.414   3.455   4.744 -0.5231  0.6613 -0.4398
  132MOL0     C17341   2.511   3.527   4.672  0.0850 -0.7516 -0.0438
  132MOL0     N17342   3.185   3.360   4.122 -0.6708 -0.0170  0.4337
  132MOL0     N17343   3.296   3.368   4.055  0.9312  0.3005 -0.9371
  132MOL0     C17344   3.199   2.654   4.014  0.0574  0.5503 -0.2548
  132MOL0     C17345   3.074   2.608   4.049  0.2722  0.2197  0.0158
  132MOL0     C17346   2.754   2.414   4.315  0.8594 -0.1621  0.3243
  132MOL0     C17347   2.739   2.276   4.333 -0.3213 -0.7125 -0.1390
  132MOL0     C17348   2.650   2.233   4.435 -0.6007 -0.6245  0.4227
  132MOL0     C17349   2.566   2.324   4.504 -0.8275 -0.4113  0.4039
  132MOL0     O17350   2.461   2.290   4.591  0.6816  0.2160  0.3165
  132MOL0     C17351   2.438   2.149   4.615  0.4068 -0.1566 -0.9785
  132MOL0     C17352   2.292   2.123   4.647 -1.2163 -0.0170 -0.5606
  132MOL0     C17353   2.251   2.113   4.797 -0.3716 -0.1972  0.6860
  132MOL0     C17354   2.114   2.070   4.814  0.1759 -0.6752 -0.0622
  132MOL0     C17355   2.009   2.169   4.762 -0.0696 -0.0702 -0.3917
  132MOL0     C17356   1.931   2.266   4.731  0.0340  1.1773  0.4704
  132MOL0     C17357   2.578   2.457   4.477  0.4522  0.8331  0.2990
  132MOL0     C17358   2.669   2.503   4.382 -0.9369  0.5775 -0.9928
  132MOL0     H17359   3.059   2.748   4.355 -1.0439 -1.3793 -0.6743
  132MOL0     H17360   3.274   2.837   4.271 -1.3797  1.1791  0.1943
  132MOL0     H17361   3.368   2.992   4.084  0.9580  0.8225 -0.3935
  132MOL0     H17362   3.271   2.930   3.954 -1.7452 -1.0211  3.3084
  132MOL0     H17363   3.487   2.884   3.833  0.3386  0.9247 -0.2778
  132MOL0     H17364   3.571   2.980   3.963 -1.8716  3.7352  1.7730
  132MOL0     H17365   3.412   3.173   3.907 -1.2734  1.5876 -1.3124
  132MOL0     H17366   3.370   3.087   3.767  0.6628  1.4068 -1.1506
  132MOL0     H17367   3.668   3.143   3.824  1.0195 -1.8483 -2.3475
  132MOL0     H17368   3.612   3.083   3.685  1.6815  1.8697 -0.9383
  132MOL0     H17369   3.486   3.275   3.633 -0.4817 -3.4118  0.5344
  132MOL0     H17370   3.655   3.321   3.673 -0.6586  0.7611 -0.6433
  132MOL0     H17371   3.399   3.379   3.810  0.6504 -2.0744 -1.4062
  132MOL0     H17372   3.505   3.497   3.729  2.8182  1.4883  3.8731
  132MOL0     H17373   3.593   3.330   3.972  1.3089  0.9665  0.8720
  132MOL0     H17374   3.666   3.468   3.901 -0.0068 -1.6399 -2.2546
  132MOL0     H17375   3.459   3.613   3.952  1.0533  1.5212 -0.4259
  132MOL0     H17376   3.562   3.559   4.087  3.1607 -0.4031 -1.4277
  132MOL0     H17377   3.299   3.648   4.226 -1.4466  1.0382 -1.2629
  132MOL0     H17378   3.120   3.555   4.406 -2.8066  0.9400  0.8130
  132MOL0     H17379   3.054   3.394   4.373  1.6489 -0.5070 -1.5516
  132MOL0     H17380   2.901   3.480   4.207 -0.1963  1.6267 -1.8296
  132MOL0     H17381   2.986   3.636   4.208 -1.1436 -0.5620 -1.3260
  132MOL0     H17382   2.903   3.687   4.438  0.8520 -1.3118  1.6515
  132MOL0     H17383   2.772   3.640   4.336  0.5191  1.5618 -0.3448
  132MOL0     H17384   2.901   3.462   4.552  1.2531 -2.0774 -1.8965
  132MOL0     H17385   2.780   3.408   4.422 -3.0777  0.9400  0.6560
  132MOL0     H17386   2.741   3.272   4.648 -0.6852 -1.2713 -2.0090
  132MOL0     H17387   2.592   3.167   4.796 -1.0325  0.5445  3.4849
  132MOL0     H17388   2.124   3.081   4.955 -0.3908 -0.4587 -1.6863
  132MOL0     H17389   2.027   2.930   5.103  0.6580 -0.6018  0.4190
  132MOL0     H17390   2.017   2.700   5.221  1.2576 -4.1900  1.9948
  132MOL0     H17391   1.968   2.845   5.311 -1.3384 -1.2302  0.4285
  132MOL0     H17392   2.049   2.748   5.516  0.3198  3.6725 -3.3108
  132MOL0     H17393   2.096   2.598   5.437 -0.2559 -0.8834  1.5676
  132MOL0     H17394   1.850   2.560   5.353 -4.3338 -2.0557  1.9149
  132MOL0     H17395   1.816   2.684   5.472  2.8523  1.1247  0.8792
  132MOL0     H17396   1.974   2.441   5.550  0.1405 -0.5687  0.8815
  132MOL0     H17397   1.913   2.580   5.648  1.5047  0.4025 -0.5943
  132MOL0     H17398   1.728   2.373   5.508  1.4662 -1.1337  1.0732
  132MOL0     H17399   1.683   2.527   5.581  1.2526  1.5387 -0.9060
  132MOL0     H17400   1.785   2.442   5.798  2.7716 -0.8274 -0.0401
  132MOL0     H17401   1.840   2.302   5.702  0.8715  0.3119  0.7719
  132MOL0     H17402   1.582   2.243   5.684  1.1436  1.7127 -1.8212
  132MOL0     H17403   1.632   2.265   5.852  2.2883 -1.9736 -0.5504
  132MOL0     H17404   1.422   2.370   5.832 -0.5267  0.6597 -0.4819
  132MOL0     H17405   1.474   2.439   5.678  1.7932 -2.0330 -2.0451
  132MOL0     H17406   2.422   2.877   5.291  1.2256 -1.2497 -0.4250
  132MOL0     H17407   2.509   3.024   5.116  0.2961 -1.6838 -2.7757
  132MOL0     H17408   2.338   3.524   4.781 -0.8196  1.0760 -1.7561
  132MOL0     H17409   2.478   3.625   4.639 -1.0405 -1.7036 -1.9421
  132MOL0     H17410   3.238   2.619   3.919 -2.4059 -2.0768 -0.4305
  132MOL0     H17411   3.023   2.543   3.979 -0.1021  2.4237 -1.8751
  132MOL0     H17412   2.804   2.202   4.288 -0.6626  0.0065 -1.8965
  132MOL0     H17413   2.661   2.127   4.456  1.0024 -0.2755  1.5503
  132MOL0     H17414   2.485   2.096   4.698  3.0298  3.4135  0.0465
  132MOL0     H17415   2.469   2.079   4.536  3.4350 -1.3463  1.0729
  132MOL0     H17416   2.236   2.206   4.603 -0.3904  0.4033 -0.8418
  132MOL0     H17417   2.255   2.027   4.610 -1.2189 -0.5347  0.7161
  132MOL0     H17418   2.274   2.207   4.847 -0.8488  0.2538  0.0761
  132MOL0     H17419   2.311   2.032   4.840 -2.6306 -1.1527  2.2706
  132MOL0     H17420   2.100   1.975   4.761 -2.1589 -0.2746 -0.2640
  132MOL0     H17421   2.091   2.052   4.919  1.2401  1.1273  0.5190
  132MOL0     H17422   1.858   2.336   4.696 -2.8074 -1.7427  0.1055
  132MOL0     H17423   2.510   2.533   4.515 -2.1540 -0.4933 -1.4149
  132MOL0     H17424   2.692   2.608   4.365  0.3005  0.1422 -2.1857
  133MOL0     O17425  10.480   8.558   9.095 -0.3052 -0.3754  0.8417
  133MOL0     C17426  10.594   8.552   9.051  0.4425 -0.2384  0.6657
  133MOL0     O17427  10.658   8.657   8.992 -0.2221  0.2474 -0.0372
  133MOL0     C17428  10.596   8.774   8.961  0.4952  0.1531  0.3798
  133MOL0     C17429  10.646   8.889   9.023  0.4855 -0.7341  0.4306
  133MOL0     C17430  10.593   9.013   8.980 -0.9268  0.5765 -0.7816
  133MOL0     C17431  10.501   9.024   8.877  0.4416 -0.0738  0.4497
  133MOL0     O17432  10.438   9.146   8.866 -0.0588 -0.2870  0.5657
  133MOL0     C17433  10.366   9.169   8.744  0.1212  0.1468  0.6515
  133MOL0     C17434  10.322   9.316   8.737  0.1033  0.7222  0.3560
  133MOL0     C17435  10.275   9.353   8.595 -0.4916 -0.2169  0.2006
  133MOL0     C17436  10.176   9.263   8.522  0.0068 -0.4241  0.4364
  133MOL0     C17437  10.132   9.325   8.386  0.3903  0.6140 -0.4500
  133MOL0     C17438  10.035   9.248   8.301  0.0338  0.2767  0.5233
  133MOL0     C17439  10.055   9.305   8.162  0.8218 -0.6863  0.1562
  133MOL0     C17440  10.118   9.206   8.065  0.4023  0.1975  0.3785
  133MOL0     N17441  10.053   9.072   8.063 -0.0558  0.0437  0.1810
  133MOL0     C17442   9.927   9.053   8.016  0.7243 -0.9818  0.2011
  133MOL0     C17443   9.917   8.922   8.022 -0.2588  0.1790  0.4619
  133MOL0     C17444   9.802   8.829   7.987  1.2612 -0.5187  0.3835
  133MOL0     C17445   9.665   8.897   7.966 -0.2633  0.0480  0.6202
  133MOL0     C17446   9.649   8.977   7.833 -1.3553  0.0712 -0.2000
  133MOL0     C17447   9.509   9.036   7.823  0.4440  0.2225  0.1906
  133MOL0     O17448   9.480   9.094   7.698  0.0983  1.1191 -0.1628
  133MOL0     C17449   9.349   9.117   7.659 -0.0131  0.0876 -0.5682
  133MOL0     C17450   9.241   9.112   7.747  0.1592  0.4435 -0.2112
  133MOL0     C17451   9.113   9.141   7.711  0.8678  0.6811  0.4382
  133MOL0     C17452   9.076   9.165   7.584  0.0945  0.3196 -1.0984
  133MOL0     C17453   8.935   9.187   7.550 -0.1146 -0.1259 -0.3717
  133MOL0     O17454   8.879   9.281   7.629  0.6764 -0.0294 -0.9641
  133MOL0     C17455   8.739   9.298   7.642 -0.4316  0.3528  0.1859
  133MOL0     C17456   8.651   9.188   7.615 -0.2312 -0.9264  0.3398
  133MOL0     C17457   8.517   9.205   7.631  0.7323  0.3679  0.2119
  133MOL0     C17458   8.456   9.324   7.676  0.0561  0.3558 -0.2418
  133MOL0     O17459   8.316   9.317   7.678 -0.1635  0.5154  0.3369
  133MOL0     C17460   8.249   9.434   7.724 -0.5128  0.3317  0.7727
  133MOL0     C17461   8.110   9.396   7.741  0.6637 -0.0996  0.2702
  133MOL0     C17462   8.016   9.514   7.762  0.6346  0.7484 -0.3135
  133MOL0     C17463   7.880   9.452   7.809  0.0532 -1.0097 -0.1210
  133MOL0     C17464   7.770   9.556   7.826  0.2450 -0.2650 -0.3848
  133MOL0     C17465   7.646   9.487   7.889 -0.4290 -0.8744  0.5180
  133MOL0     C17466   7.510   9.547   7.842  0.2318 -0.2051  0.0889
  133MOL0     C17467   7.417   9.443   7.780 -0.4283  1.0198  0.8392
  133MOL0    Cl17468   7.248   9.491   7.780 -0.4549  0.0510  0.6095
  133MOL0     C17469   8.543   9.438   7.700 -0.1270 -0.2502  0.5051
  133MOL0     C17470   8.688   9.423   7.684  0.4219  0.5591 -0.0915
  133MOL0     O17471   8.877   9.124   7.461 -0.6137 -0.6138  0.3989
  133MOL0     C17472   9.182   9.171   7.491  0.8313 -0.1480  0.0839
  133MOL0     C17473   9.316   9.154   7.528  0.4629  0.7703 -0.1199
  133MOL0     N17474  10.035   8.861   8.071 -0.1069 -0.1007 -0.1298
  133MOL0     N17475  10.111   8.964   8.106 -0.1493  0.5957  0.2367
  133MOL0     C17476  10.449   8.901   8.823 -0.5489 -0.1055  0.2829
  133MOL0     C17477  10.500   8.779   8.859 -0.1518  0.0148  0.4368
  133MOL0     C17478  10.668   8.420   9.039 -0.1467  1.1797 -1.2370
  133MOL0     C17479  10.611   8.294   9.069 -1.0103 -0.4256 -0.9213
  133MOL0     C17480  10.682   8.176   9.057  0.1052 -0.1916  0.0893
  133MOL0     C17481  10.819   8.175   9.031 -0.4879  0.6848  0.5913
  133MOL0     O17482  10.906   8.059   9.037 -0.2486  0.2087  0.4360
  133MOL0     C17483  10.857   7.927   9.060  0.2636 -0.3518 -0.0019
  133MOL0     C17484  10.983   7.838   9.083 -0.3713  0.0647  0.2512
  133MOL0     C17485  10.943   7.687   9.113 -0.4205  0.4682  1.1256
  133MOL0     C17486  11.067   7.601   9.121 -0.7963  0.1413  0.0144
  133MOL0     C17487  11.014   7.467   9.140 -0.4290 -0.3777  0.2281
  133MOL0     C17488  10.964   7.359   9.166  0.4229 -1.0967 -0.8079
  133MOL0     C17489  10.880   8.290   9.003  0.7021  0.2085  0.5789
  133MOL0     C17490  10.805   8.410   8.994 -0.1940 -0.8957  0.3069
  133MOL0     H17491  10.722   8.878   9.099 -0.0575  2.5391  1.6032
  133MOL0     H17492  10.632   9.098   9.034  3.4186 -0.0456 -2.5215
  133MOL0     H17493  10.282   9.100   8.753  2.0688 -2.3220  1.2542
  133MOL0     H17494  10.420   9.151   8.650 -2.1355  3.4934 -1.5010
  133MOL0     H17495  10.406   9.380   8.764 -0.6311  2.5129 -1.3067
  133MOL0     H17496  10.240   9.312   8.809 -0.6776 -1.7807 -0.5509
  133MOL0     H17497  10.363   9.360   8.531  0.5968  0.0775  1.6885
  133MOL0     H17498  10.242   9.457   8.602  3.3079  1.1158  0.7079
  133MOL0     H17499  10.202   9.157   8.516 -3.0045 -1.3779  1.8497
  133MOL0     H17500  10.082   9.270   8.578  0.3368  1.7187  0.8204
  133MOL0     H17501  10.229   9.347   8.339  1.5964  1.1910  2.1161
  133MOL0     H17502  10.086   9.423   8.399 -2.1112  0.2098 -4.5295
  133MOL0     H17503   9.943   9.266   8.357  1.3056 -3.0645  4.1660
  133MOL0     H17504  10.047   9.139   8.305 -2.0192  0.0353  1.2741
  133MOL0     H17505   9.950   9.327   8.141  0.1495 -1.1479  2.6907
  133MOL0     H17506  10.112   9.399   8.163  2.2461 -1.4789 -1.3351
  133MOL0     H17507  10.226   9.204   8.082  0.7205  2.0038 -1.0597
  133MOL0     H17508  10.115   9.245   7.963  4.6995 -4.8564 -2.1604
  133MOL0     H17509   9.868   9.136   7.979 -0.2542 -2.1245 -0.8832
  133MOL0     H17510   9.788   8.754   8.065 -0.5674  1.6376  2.2715
  133MOL0     H17511   9.832   8.787   7.890 -1.1253  0.5289 -0.8792
  133MOL0     H17512   9.640   8.971   8.043  0.5387 -0.3430  1.2720
  133MOL0     H17513   9.581   8.829   7.983 -2.0431  2.2676  1.3058
  133MOL0     H17514   9.723   9.056   7.820 -2.9761  2.0979  1.9506
  133MOL0     H17515   9.674   8.914   7.748 -1.6166  0.1780 -0.3591
  133MOL0     H17516   9.485   9.102   7.907  1.0773  2.4325 -1.2677
  133MOL0     H17517   9.436   8.955   7.832  1.5034 -1.1517 -2.5364
  133MOL0     H17518   9.258   9.104   7.854  0.4315  2.6072 -0.0395
  133MOL0     H17519   9.034   9.120   7.782  1.1693 -0.1755  0.5459
  133MOL0     H17520   8.692   9.094   7.582  1.7568  0.5895 -1.8676
  133MOL0     H17521   8.463   9.113   7.606  0.8879 -0.3321  2.2589
  133MOL0     H17522   8.252   9.507   7.643 -3.0796 -0.9912 -0.6526
  133MOL0     H17523   8.294   9.478   7.813  0.7796  1.8751 -0.5760
  133MOL0     H17524   8.104   9.333   7.831  2.1711  1.8475  1.8265
  133MOL0     H17525   8.064   9.345   7.656 -2.6878  1.9604  0.6685
  133MOL0     H17526   8.023   9.583   7.678  2.2455  1.6798  0.5476
  133MOL0     H17527   8.041   9.579   7.847 -0.9427  1.2175 -0.1570
  133MOL0     H17528   7.843   9.388   7.728  0.6027  1.5024 -2.5108
  133MOL0     H17529   7.896   9.391   7.899  2.4217 -1.1786 -0.6112
  133MOL0     H17530   7.748   9.595   7.725 -0.3053  2.1459  0.5841
  133MOL0     H17531   7.798   9.647   7.881 -1.5481  0.8698 -1.2317
  133MOL0     H17532   7.645   9.490   7.999 -0.6802  1.4760  0.5062
  133MOL0     H17533   7.654   9.383   7.855 -0.1587  0.0109 -2.3572
  133MOL0     H17534   7.453   9.589   7.925 -0.1721  0.3428 -0.4575
  133MOL0     H17535   7.516   9.623   7.763 -2.5815  0.5704  0.4979
  133MOL0     H17536   7.426   9.352   7.840  0.2139  1.9611  2.2401
  133MOL0     H17537   7.453   9.430   7.678  2.3997 -0.1902  1.8640
  133MOL0     H17538   8.510   9.539   7.720  0.8916  0.3488 -0.6934
  133MOL0     H17539   8.754   9.507   7.699  2.1055 -1.1706  3.2567
  133MOL0     H17540   9.150   9.190   7.389 -1.7857 -4.4867 -0.1519
  133MOL0     H17541   9.390   9.178   7.452  1.1727 -0.6093  0.1023
  133MOL0     H17542  10.359   8.905   8.762  0.1116 -1.1591 -0.8012
  133MOL0     H17543  10.457   8.685   8.827 -1.2689 -0.1635  2.2933
  133MOL0     H17544  10.512   8.284   9.113 -0.2172  1.5743  1.5644
  133MOL0     H17545  10.642   8.077   9.078  2.9391 -1.3500  0.5878
  133MOL0     H17546  10.795   7.892   8.976  0.1073 -0.3062  0.0936
  133MOL0     H17547  10.785   7.937   9.142  0.2066  1.0927 -0.1906
  133MOL0     H17548  11.041   7.855   8.992  0.1382 -2.1417  0.1123
  133MOL0     H17549  11.038   7.867   9.173 -0.4717 -2.1713  1.0977
  133MOL0     H17550  10.886   7.639   9.033  4.1535 -1.2305 -1.5028
  133MOL0     H17551  10.884   7.686   9.205 -0.0477 -0.5649  1.3662
  133MOL0     H17552  11.127   7.600   9.030  0.1169  1.0730  0.5824
  133MOL0     H17553  11.134   7.633   9.202  3.1080  1.6581 -3.4751
  133MOL0     H17554  10.920   7.274   9.212 -1.8855  0.3061 -0.2923
  133MOL0     H17555  10.985   8.285   8.976  1.1549 -1.2656  2.4148
  133MOL0     H17556  10.861   8.500   8.973 -2.0247  0.7888  2.2385
  134MOL0     O17557   4.859   3.209   2.491  0.9948 -0.9314 -0.0239
  134MOL0     C17558   4.786   3.204   2.588 -0.8543 -0.2578  0.4319
  134MOL0     O17559   4.823   3.232   2.720 -0.5731 -0.5544 -0.4009
  134MOL0     C17560   4.957   3.252   2.751 -0.5983  0.3905 -0.2563
  134MOL0     C17561   4.984   3.345   2.853  0.5450  0.3816  0.1258
  134MOL0     C17562   5.104   3.357   2.911 -0.2068  0.9928  1.0629
  134MOL0     C17563   5.208   3.276   2.874  0.5166  0.0828  0.6816
  134MOL0     O17564   5.308   3.280   2.957  0.2269 -0.4946  0.1859
  134MOL0     C17565   5.437   3.220   2.920 -0.3842 -0.2076  0.1479
  134MOL0     C17566   5.549   3.316   2.978 -0.1688  0.8006  0.1843
  134MOL0     C17567   5.695   3.268   2.955 -0.0222 -0.7507 -0.2334
  134MOL0     C17568   5.733   3.141   3.028 -0.7339 -0.6306  0.3664
  134MOL0     C17569   5.887   3.152   3.028  0.8427 -0.1507  0.6071
  134MOL0     C17570   5.955   3.019   3.027  0.0048 -0.4196 -0.9015
  134MOL0     C17571   6.097   3.041   3.035  0.7740 -0.1161  0.5442
  134MOL0     C17572   6.150   3.044   3.176  0.6134  0.2492  0.5141
  134MOL0     N17573   6.290   3.053   3.180 -0.4191 -0.5915 -0.4768
  134MOL0     C17574   6.370   3.163   3.141  0.2596  0.2651  0.2537
  134MOL0     C17575   6.497   3.125   3.159  0.0842  0.4253 -0.6986
  134MOL0     C17576   6.622   3.221   3.150 -0.1284  0.3111  0.1392
  134MOL0     C17577   6.693   3.261   3.274 -0.9536 -0.1659 -0.0164
  134MOL0     C17578   6.824   3.342   3.254  0.2563 -0.8740 -0.1559
  134MOL0     C17579   6.947   3.262   3.215  0.0872 -0.4669  0.7932
  134MOL0     O17580   7.055   3.341   3.163 -0.0871 -0.1996 -0.7577
  134MOL0     C17581   7.143   3.405   3.241  0.1585  0.3064 -0.3688
  134MOL0     C17582   7.260   3.444   3.172 -0.4335 -0.0684  0.1723
  134MOL0     C17583   7.372   3.480   3.247  0.6077 -1.0999 -0.0555
  134MOL0     C17584   7.361   3.483   3.389 -0.0812  0.3036  0.3544
  134MOL0     C17585   7.477   3.522   3.473  0.0019 -0.5948  0.3038
  134MOL0     O17586   7.549   3.626   3.425  0.1067 -0.5631  0.3748
  134MOL0     C17587   7.653   3.677   3.496  0.5614  0.3006  0.8426
  134MOL0     C17588   7.760   3.603   3.564 -0.4737 -0.0992  1.2346
  134MOL0     C17589   7.865   3.683   3.605 -0.3912  0.0889 -0.2442
  134MOL0     C17590   7.883   3.816   3.582 -0.9867 -1.1668  0.1378
  134MOL0     O17591   7.997   3.882   3.638  0.7894  0.7644 -0.0738
  134MOL0     C17592   8.084   3.963   3.560 -0.3671 -0.5840  0.0144
  134MOL0     C17593   8.164   4.040   3.670 -0.4046 -1.5424 -1.3582
  134MOL0     C17594   8.305   4.081   3.612 -0.6330 -0.6461  0.3284
  134MOL0     C17595   8.318   4.189   3.496  0.5064 -0.2307  0.5636
  134MOL0     C17596   8.416   4.300   3.525 -0.9672  0.4653  0.1328
  134MOL0     C17597   8.407   4.429   3.441 -0.1083  0.0108  0.0266
  134MOL0     C17598   8.517   4.443   3.324  0.3465 -0.3506 -1.1378
  134MOL0     C17599   8.652   4.439   3.380  0.2346  0.3280 -0.5208
  134MOL0    Cl17600   8.680   4.593   3.479 -0.0406  0.2125 -0.5627
  134MOL0     C17601   7.780   3.886   3.515  0.7986 -0.4918 -0.3702
  134MOL0     C17602   7.660   3.819   3.482 -0.1838  0.0556 -0.4487
  134MOL0     O17603   7.489   3.471   3.584 -0.5057  0.5961  0.6475
  134MOL0     C17604   7.238   3.458   3.456 -0.4250 -0.0942 -0.7907
  134MOL0     C17605   7.131   3.411   3.379 -0.1710 -1.0841 -0.6818
  134MOL0     N17606   6.492   2.995   3.189  0.9002  0.6840 -0.4381
  134MOL0     N17607   6.374   2.945   3.206  0.6209 -0.2902  0.6738
  134MOL0     C17608   5.186   3.185   2.763  0.6119  0.1257  0.0874
  134MOL0     C17609   5.060   3.169   2.706  0.5686 -0.3244  0.0650
  134MOL0     C17610   4.639   3.174   2.570 -0.1662 -0.2462 -0.0468
  134MOL0     C17611   4.567   3.209   2.454 -1.1920 -0.0533 -0.7698
  134MOL0     C17612   4.430   3.200   2.450 -0.3222 -0.3294  0.3283
  134MOL0     C17613   4.356   3.154   2.561 -0.9669 -0.3297 -0.3502
  134MOL0     O17614   4.226   3.114   2.565 -0.2361 -0.7291  0.9569
  134MOL0     C17615   4.149   3.141   2.444 -0.1658 -0.1449  0.4486
  134MOL0     C17616   4.000   3.130   2.462  0.5528  0.6071 -0.0763
  134MOL0     C17617   3.967   2.978   2.472  0.6117 -0.5672  0.3728
  134MOL0     C17618   3.820   2.939   2.461 -0.0082 -0.1482 -0.0146
  134MOL0     C17619   3.813   2.795   2.452 -0.7554 -0.5141  0.3777
  134MOL0     C17620   3.828   2.683   2.456 -0.4769 -0.1478 -0.2963
  134MOL0     C17621   4.431   3.121   2.679  0.7503  0.9432 -0.4765
  134MOL0     C17622   4.571   3.129   2.681  0.1770  0.2968  0.0553
  134MOL0     H17623   4.900   3.400   2.895  0.7858 -0.5403  1.9130
  134MOL0     H17624   5.124   3.417   2.999 -0.8269  2.7043  0.0728
  134MOL0     H17625   5.449   3.206   2.812  1.3048 -1.5246  0.4683
  134MOL0     H17626   5.436   3.118   2.960 -3.1058 -2.2379 -4.2461
  134MOL0     H17627   5.531   3.325   3.086 -0.1570 -0.2108  0.2842
  134MOL0     H17628   5.532   3.415   2.936  2.2933  2.6005  3.0414
  134MOL0     H17629   5.765   3.345   2.988  1.6755  0.2265 -5.2774
  134MOL0     H17630   5.712   3.261   2.847 -0.4464  1.6936 -0.5183
  134MOL0     H17631   5.693   3.141   3.129 -0.8136 -2.4620  0.3725
  134MOL0     H17632   5.697   3.052   2.974 -1.1094  0.1510 -0.7163
  134MOL0     H17633   5.919   3.224   3.104 -0.6744 -0.3160  1.4252
  134MOL0     H17634   5.928   3.212   2.946  1.5300  1.5260  2.0885
  134MOL0     H17635   5.936   2.964   2.935 -1.5088 -0.4726 -0.5854
  134MOL0     H17636   5.925   2.942   3.100  0.8644  0.4030  0.3519
  134MOL0     H17637   6.138   2.947   2.996 -0.7175 -0.9228  0.8370
  134MOL0     H17638   6.137   3.128   2.982  0.2207  0.9533  1.8312
  134MOL0     H17639   6.128   2.946   3.219  1.1488 -0.0374  0.1508
  134MOL0     H17640   6.095   3.127   3.222 -2.0366 -1.3717  0.4553
  134MOL0     H17641   6.347   3.264   3.108 -0.8088 -0.2745 -0.7335
  134MOL0     H17642   6.594   3.318   3.106 -2.6951 -0.2657  0.3491
  134MOL0     H17643   6.678   3.174   3.069 -0.5378  0.4159 -0.2098
  134MOL0     H17644   6.722   3.167   3.322  2.0341  1.3554  1.4546
  134MOL0     H17645   6.629   3.323   3.337  0.8310  1.6814  0.0988
  134MOL0     H17646   6.807   3.424   3.184 -2.3605  2.0700  3.5143
  134MOL0     H17647   6.839   3.389   3.352  0.3806 -1.0858 -0.0732
  134MOL0     H17648   6.916   3.196   3.134  0.1725 -1.1986  1.3448
  134MOL0     H17649   6.974   3.204   3.304 -0.2401 -0.9960  0.5514
  134MOL0     H17650   7.261   3.436   3.064  0.0408 -1.5923  0.2569
  134MOL0     H17651   7.463   3.505   3.194  1.0868 -0.0087  1.2179
  134MOL0     H17652   7.755   3.496   3.580  1.5428 -0.2165  1.2897
  134MOL0     H17653   7.941   3.642   3.670 -2.1839 -0.8696  1.3324
  134MOL0     H17654   8.036   4.027   3.486  1.6403  1.1091  0.0833
  134MOL0     H17655   8.155   3.902   3.504 -1.0566 -0.5808 -0.8875
  134MOL0     H17656   8.189   3.976   3.755 -1.3051 -1.5205 -1.0641
  134MOL0     H17657   8.109   4.129   3.702  1.9138 -0.2666 -0.6624
  134MOL0     H17658   8.353   3.985   3.588 -1.4096 -1.4204  1.6941
  134MOL0     H17659   8.370   4.116   3.693  2.3304  1.4682 -2.7123
  134MOL0     H17660   8.344   4.143   3.400 -0.4844 -0.3531  0.3341
  134MOL0     H17661   8.221   4.239   3.488  0.0206 -1.4383 -2.7399
  134MOL0     H17662   8.512   4.250   3.540 -0.6263  0.4208 -1.9124
  134MOL0     H17663   8.376   4.336   3.620 -2.6350  1.4762 -0.8858
  134MOL0     H17664   8.417   4.510   3.514 -0.6824  1.2389 -1.2088
  134MOL0     H17665   8.311   4.442   3.389  1.1214 -1.5228 -2.8052
  134MOL0     H17666   8.503   4.359   3.255 -0.3938 -1.4896  0.3315
  134MOL0     H17667   8.511   4.538   3.269  1.4761  0.3765 -0.0625
  134MOL0     H17668   8.721   4.435   3.295  1.4908 -1.0469  0.5101
  134MOL0     H17669   8.675   4.350   3.438  0.2904  0.8161  0.2252
  134MOL0     H17670   7.783   3.994   3.501 -1.0862 -0.3520  0.0609
  134MOL0     H17671   7.580   3.865   3.426  1.1680  4.8888  1.1229
  134MOL0     H17672   7.230   3.451   3.564 -1.0284 -0.4410 -0.8524
  134MOL0     H17673   7.031   3.394   3.418 -0.4682 -1.7120 -1.7075
  134MOL0     H17674   5.256   3.105   2.740 -3.3229 -3.9575  0.8149
  134MOL0     H17675   5.043   3.098   2.626 -2.1934 -2.0523  2.0035
  134MOL0     H17676   4.621   3.251   2.369 -0.3558  0.6240  0.0762
  134MOL0     H17677   4.379   3.235   2.361  0.9432  0.1060 -0.2512
  134MOL0     H17678   4.188   3.074   2.366  1.2421  1.0829  0.0284
  134MOL0     H17679   4.166   3.245   2.414 -2.7115  0.3732  0.6461
  134MOL0     H17680   3.977   3.192   2.549  2.1976  2.5267 -0.9368
  134MOL0     H17681   3.946   3.170   2.375 -1.8547 -0.8568  0.6557
  134MOL0     H17682   4.011   2.935   2.563  0.3630 -0.3714  0.5896
  134MOL0     H17683   4.019   2.935   2.386 -3.5020 -0.4021 -2.4604
  134MOL0     H17684   3.783   2.973   2.558  1.9952 -1.9860  1.4804
  134MOL0     H17685   3.760   2.977   2.376  2.2845 -1.0188 -2.1429
  134MOL0     H17686   3.846   2.578   2.467  2.9809  0.3727  0.1431
  134MOL0     H17687   4.382   3.079   2.766  1.2691 -0.3451 -0.7950
  134MOL0     H17688   4.622   3.113   2.776  1.2932 -0.1688 -0.5977
  135MOL0     O17689   1.368   0.601   1.487  0.5717 -0.4830  0.4657
  135MOL0     C17690   1.415   0.485   1.497  0.0684 -0.1533  0.5299
  135MOL0     O17691   1.402   0.390   1.409 -0.0582  0.3605  0.2272
  135MOL0     C17692   1.297   0.369   1.321  0.9149  1.6287  0.7352
  135MOL0     C17693   1.324   0.288   1.210  0.5448 -0.1984  0.0714
  135MOL0     C17694   1.233   0.268   1.104 -0.8149 -0.5016 -1.1823
  135MOL0     C17695   1.103   0.316   1.116 -0.2762 -0.6368 -0.5071
  135MOL0     O17696   1.019   0.300   1.008  0.2902  0.5414 -0.4026
  135MOL0     C17697   0.878   0.342   1.024 -0.6621  0.4659  0.9424
  135MOL0     C17698   0.859   0.490   1.014  0.4116 -0.1222 -0.1880
  135MOL0     C17699   0.714   0.512   0.975  0.6758 -0.5611  0.3306
  135MOL0     C17700   0.690   0.493   0.822 -0.7952  0.4887 -0.2230
  135MOL0     C17701   0.558   0.511   0.757 -0.1558  0.8729 -0.1732
  135MOL0     C17702   0.477   0.644   0.786 -0.4200  0.8669  0.0978
  135MOL0     C17703   0.550   0.769   0.733 -0.3752 -0.7242 -0.1034
  135MOL0     C17704   0.487   0.901   0.789  0.1684  0.0828  0.3446
  135MOL0     N17705   0.344   0.923   0.770 -0.0250 -0.2749 -0.1224
  135MOL0     C17706   0.281   0.968   0.653 -0.1043  0.1105 -0.1858
  135MOL0     C17707   0.161   1.008   0.698  0.2670  0.0305  1.3907
  135MOL0     C17708   0.064   1.084   0.599 -0.3424  0.3202  0.9697
  135MOL0     C17709  -0.068   1.001   0.585 -0.0595  0.2425  0.3775
  135MOL0     C17710  -0.165   1.061   0.679 -0.1035  0.2875 -0.2697
  135MOL0     C17711  -0.300   0.993   0.675  0.3827  0.1186 -0.5979
  135MOL0     O17712  -0.392   1.068   0.600  0.0195 -0.5264 -0.2482
  135MOL0     C17713  -0.529   1.041   0.612  0.2899  0.4717  0.8598
  135MOL0     C17714  -0.584   0.945   0.696 -0.6623 -0.4954 -0.7941
  135MOL0     C17715  -0.718   0.940   0.706 -0.6646  0.2469  0.1239
  135MOL0     C17716  -0.809   1.005   0.614  0.6505  0.7030  0.5425
  135MOL0     C17717  -0.953   0.985   0.623 -0.1971  0.0880  0.0788
  135MOL0     O17718  -1.027   1.039   0.513  0.3379 -0.1024 -0.0133
  135MOL0     C17719  -1.151   1.001   0.486  0.7661  0.0719  0.4456
  135MOL0     C17720  -1.197   0.867   0.499 -0.4811 -0.5342 -0.4522
  135MOL0     C17721  -1.331   0.828   0.467 -0.8610 -0.3057  0.4496
  135MOL0     C17722  -1.416   0.914   0.411 -1.2197 -0.7030  1.0133
  135MOL0     O17723  -1.545   0.890   0.387 -0.3462  0.9994 -0.2299
  135MOL0     C17724  -1.595   0.755   0.412 -0.3098  0.9870  0.8525
  135MOL0     C17725  -1.746   0.739   0.385 -0.1130 -0.8288 -0.3640
  135MOL0     C17726  -1.773   0.632   0.288 -0.0416  0.4011  0.0726
  135MOL0     C17727  -1.927   0.614   0.269 -0.4579  0.2757 -0.5535
  135MOL0     C17728  -1.947   0.499   0.173 -0.1738 -0.4806 -0.3719
  135MOL0     C17729  -2.087   0.494   0.111  0.6655  0.0317  0.4639
  135MOL0     C17730  -2.106   0.381   0.012  0.9595  0.4126 -0.0332
  135MOL0     C17731  -2.248   0.352  -0.041  0.0681 -0.0139  0.2188
  135MOL0    Cl17732  -2.246   0.247  -0.184 -0.0776  0.2862 -0.4017
  135MOL0     C17733  -1.370   1.046   0.389 -0.3193  0.1693 -0.1863
  135MOL0     C17734  -1.245   1.088   0.429  0.7536 -0.0567  0.1366
  135MOL0     O17735  -0.999   0.920   0.716 -0.2104 -0.3113 -0.6287
  135MOL0     C17736  -0.750   1.087   0.524  0.7411 -1.0686  0.2082
  135MOL0     C17737  -0.613   1.107   0.525 -1.6475  0.9513  0.3857
  135MOL0     N17738   0.147   0.989   0.830 -0.4701 -0.2204 -0.1752
  135MOL0     N17739   0.255   0.937   0.874  1.1211 -0.2747 -0.1167
  135MOL0     C17740   1.072   0.392   1.232 -0.4590  0.0659  0.0402
  135MOL0     C17741   1.164   0.421   1.326  0.1518  0.1593 -0.2733
  135MOL0     C17742   1.518   0.459   1.603  0.0091  1.2008  0.3272
  135MOL0     C17743   1.549   0.551   1.705  0.0736 -0.5857  0.4463
  135MOL0     C17744   1.650   0.530   1.809  0.0281 -0.4112 -0.0924
  135MOL0     C17745   1.727   0.408   1.799  0.3890 -0.9278  1.1334
  135MOL0     O17746   1.827   0.395   1.884  0.8438 -0.0992  0.1983
  135MOL0     C17747   1.867   0.503   1.973  0.4463 -0.6226  0.9834
  135MOL0     C17748   1.996   0.460   2.045  0.2766  0.1485  0.0614
  135MOL0     C17749   2.117   0.530   1.992  1.0901  0.3322  0.4191
  135MOL0     C17750   2.234   0.481   2.085  0.1646  1.2376  0.7463
  135MOL0     C17751   2.272   0.345   2.063 -0.5491 -0.1896  1.0820
  135MOL0     C17752   2.302   0.234   2.028  0.0918 -0.6213 -0.3317
  135MOL0     C17753   1.698   0.319   1.693 -0.3918 -0.0488 -0.7313
  135MOL0     C17754   1.597   0.340   1.597 -0.8015  0.5202  0.1140
  135MOL0     H17755   1.422   0.247   1.187 -0.1908 -0.6838 -2.5532
  135MOL0     H17756   1.264   0.212   1.016  0.1040 -1.2577 -0.4029
  135MOL0     H17757   0.841   0.310   1.122  3.0941  1.1201  2.7425
  135MOL0     H17758   0.821   0.289   0.947 -1.1609  0.4297  1.3352
  135MOL0     H17759   0.923   0.527   0.933 -0.4320  3.7767  0.7104
  135MOL0     H17760   0.879   0.547   1.105  1.5849 -1.4840  0.4477
  135MOL0     H17761   0.686   0.612   1.008  0.3332 -0.8213  0.8363
  135MOL0     H17762   0.655   0.434   1.024 -1.7871 -0.8073 -2.6795
  135MOL0     H17763   0.768   0.555   0.777  0.5148  1.2794  2.8721
  135MOL0     H17764   0.701   0.387   0.801 -1.8935  0.7182 -2.2099
  135MOL0     H17765   0.494   0.432   0.796  2.9150 -2.4067 -1.2524
  135MOL0     H17766   0.567   0.486   0.651 -3.7716 -0.7196 -0.2241
  135MOL0     H17767   0.479   0.664   0.893 -1.4714  0.3932  0.2192
  135MOL0     H17768   0.377   0.619   0.749 -0.6445 -1.6704  2.1465
  135MOL0     H17769   0.656   0.761   0.757 -0.3576 -1.3487 -0.3698
  135MOL0     H17770   0.543   0.769   0.624  0.1818  1.5503 -0.1727
  135MOL0     H17771   0.544   0.986   0.751 -3.3624  2.9860  0.9606
  135MOL0     H17772   0.501   0.910   0.897 -0.9370 -2.0970  0.7320
  135MOL0     H17773   0.322   0.974   0.553 -1.4163  2.6421 -0.6441
  135MOL0     H17774   0.106   1.096   0.498 -3.3238  1.6442 -0.2399
  135MOL0     H17775   0.045   1.181   0.645 -0.2536 -0.5363  2.8978
  135MOL0     H17776  -0.051   0.893   0.592 -0.9641 -0.3907 -4.0812
  135MOL0     H17777  -0.118   1.021   0.490 -0.8287 -0.9003  0.5225
  135MOL0     H17778  -0.128   1.053   0.782  0.8821  0.6546 -0.5866
  135MOL0     H17779  -0.182   1.168   0.669  0.0205  0.5593  1.9223
  135MOL0     H17780  -0.343   0.988   0.776  1.3478  0.9104 -0.1317
  135MOL0     H17781  -0.301   0.890   0.637  2.6067  0.2427 -1.1074
  135MOL0     H17782  -0.532   0.873   0.758  0.7089  0.1086 -1.2241
  135MOL0     H17783  -0.758   0.877   0.785 -1.4000  0.5564  0.0055
  135MOL0     H17784  -1.132   0.794   0.545 -0.3882  1.8921  3.8177
  135MOL0     H17785  -1.348   0.722   0.482 -0.9422 -0.1943  1.1887
  135MOL0     H17786  -1.579   0.737   0.519 -3.2551  2.9344  1.7403
  135MOL0     H17787  -1.540   0.680   0.355  3.4823  3.5120  0.8608
  135MOL0     H17788  -1.775   0.833   0.337 -1.1693 -1.9125 -1.9309
  135MOL0     H17789  -1.809   0.715   0.471 -0.3550  0.5628 -0.1294
  135MOL0     H17790  -1.730   0.535   0.316 -2.1864 -0.6955 -0.2403
  135MOL0     H17791  -1.735   0.659   0.189 -2.1927  1.5011 -0.5029
  135MOL0     H17792  -1.973   0.596   0.366 -0.2615  0.9232 -0.3361
  135MOL0     H17793  -1.966   0.712   0.242  2.5722  1.1693 -2.1569
  135MOL0     H17794  -1.932   0.412   0.238 -2.3337 -0.6696 -0.0515
  135MOL0     H17795  -1.874   0.506   0.092 -0.4698  0.3980 -0.5824
  135MOL0     H17796  -2.118   0.584   0.058  2.2274 -0.1746 -0.8628
  135MOL0     H17797  -2.154   0.476   0.196 -0.0236 -1.6466 -0.3787
  135MOL0     H17798  -2.057   0.394  -0.085  0.8916 -1.7519 -0.4214
  135MOL0     H17799  -2.069   0.290   0.061  0.7306  0.2120 -0.2338
  135MOL0     H17800  -2.306   0.443  -0.053  0.4814  0.1342 -0.7080
  135MOL0     H17801  -2.287   0.308   0.052  2.6155  0.9385  1.8667
  135MOL0     H17802  -1.431   1.130   0.357  0.3124  0.9630  0.6562
  135MOL0     H17803  -1.220   1.193   0.421 -0.2103  0.0577 -1.9494
  135MOL0     H17804  -0.814   1.145   0.458  1.3822  2.5108  2.4251
  135MOL0     H17805  -0.574   1.174   0.449 -1.6107 -0.4631 -0.8806
  135MOL0     H17806   0.974   0.435   1.253 -1.2513 -1.5317 -0.2083
  135MOL0     H17807   1.136   0.487   1.408 -0.6469 -1.2890  0.6752
  135MOL0     H17808   1.510   0.652   1.702 -0.5617 -0.8508 -0.4493
  135MOL0     H17809   1.671   0.624   1.859  3.2127 -1.0557 -0.0340
  135MOL0     H17810   1.787   0.517   2.046 -0.3244  0.2742  0.0024
  135MOL0     H17811   1.882   0.592   1.911 -3.9212 -0.3928 -0.0125
  135MOL0     H17812   1.980   0.491   2.149 -0.1616 -0.2181  0.1062
  135MOL0     H17813   2.005   0.351   2.049  0.5168  0.1618 -0.1066
  135MOL0     H17814   2.107   0.639   1.994 -1.5725  0.3987 -4.0780
  135MOL0     H17815   2.140   0.493   1.892 -0.7063 -2.9533  1.1027
  135MOL0     H17816   2.316   0.550   2.066  0.4337  0.4095 -1.3497
  135MOL0     H17817   2.223   0.507   2.191  2.2777  3.9573  0.3941
  135MOL0     H17818   2.333   0.143   1.980 -0.3291 -0.6141 -0.6181
  135MOL0     H17819   1.764   0.235   1.678 -0.9628 -0.5000 -0.7449
  135MOL0     H17820   1.590   0.268   1.516 -0.0978  0.7873 -0.1885
  136MOL0     O17821   5.823  10.376   2.340  0.7074 -0.2026 -0.0880
  136MOL0     C17822   5.877  10.269   2.347 -0.3391  0.1790 -0.6019
  136MOL0     O17823   5.957  10.232   2.451 -0.0995  0.5013 -0.1365
  136MOL0     C17824   6.000  10.333   2.528 -0.0217 -0.5733 -0.1489
  136MOL0     C17825   6.093  10.420   2.473 -0.7069 -0.0151 -0.1767
  136MOL0     C17826   6.156  10.530   2.543 -0.0457 -0.0867 -0.1501
  136MOL0     C17827   6.116  10.558   2.675  0.3172 -0.0453  0.0905
  136MOL0     O17828   6.165  10.665   2.739  0.6891 -0.6090  0.0827
  136MOL0     C17829   6.108  10.708   2.869 -1.0114  0.3808 -0.2288
  136MOL0     C17830   5.967  10.770   2.866  0.4840  1.0205 -0.1330
  136MOL0     C17831   5.893  10.781   2.998 -0.5681  0.6113 -1.3525
  136MOL0     C17832   5.776  10.882   2.987  0.5084 -0.8760  0.2122
  136MOL0     C17833   5.824  11.024   2.992 -1.1679  0.0866 -0.0394
  136MOL0     C17834   5.710  11.123   2.960  0.8814  0.0299 -0.3450
  136MOL0     C17835   5.595  11.116   3.057  1.1379  0.4069  0.6297
  136MOL0     C17836   5.481  11.217   3.028  0.1399  0.3002  0.1401
  136MOL0     N17837   5.416  11.185   2.895  0.2201  0.8512  0.3386
  136MOL0     C17838   5.339  11.074   2.868  0.4468 -0.7742  0.5757
  136MOL0     C17839   5.297  11.093   2.738  0.0023  0.7873 -0.4710
  136MOL0     C17840   5.221  10.992   2.667  0.0652 -0.1366  0.6591
  136MOL0     C17841   5.060  10.997   2.654 -0.1265 -0.2662  0.3277
  136MOL0     C17842   4.982  11.008   2.789  0.4265 -0.3528 -0.6025
  136MOL0     C17843   4.833  10.987   2.771 -0.3868  0.3393  0.2864
  136MOL0     O17844   4.808  10.850   2.751  0.0741 -0.9380  0.1089
  136MOL0     C17845   4.676  10.801   2.755 -0.1587 -0.5744 -0.6863
  136MOL0     C17846   4.666  10.668   2.710 -0.3009 -0.3291  0.2212
  136MOL0     C17847   4.553  10.596   2.729  0.8062 -0.6098  1.1049
  136MOL0     C17848   4.434  10.653   2.769  0.7329  0.1496 -0.0947
  136MOL0     C17849   4.307  10.582   2.772 -0.1232 -0.6665  0.1554
  136MOL0     O17850   4.209  10.661   2.835 -0.7280  0.4017 -0.2254
  136MOL0     C17851   4.075  10.642   2.815  0.0971  1.5702 -1.2258
  136MOL0     C17852   4.007  10.534   2.752 -0.3095  0.0392 -0.7185
  136MOL0     C17853   3.863  10.527   2.760 -1.2192  0.3324  0.0219
  136MOL0     C17854   3.793  10.633   2.816 -0.8252  0.1426 -0.1516
  136MOL0     O17855   3.658  10.633   2.828 -0.2113  0.7864  0.4830
  136MOL0     C17856   3.589  10.582   2.717 -0.0051  0.2957 -0.1142
  136MOL0     C17857   3.429  10.601   2.728 -0.8650 -0.1310 -0.5933
  136MOL0     C17858   3.366  10.531   2.848 -0.0826  0.0484  0.6600
  136MOL0     C17859   3.216  10.532   2.831  0.5524  0.1762 -0.4653
  136MOL0     C17860   3.148  10.455   2.946  0.2709 -0.2740  0.3418
  136MOL0     C17861   3.132  10.537   3.074 -0.7610  0.4749 -0.0242
  136MOL0     C17862   3.011  10.484   3.149  0.6831  0.6566 -0.5189
  136MOL0     C17863   2.984  10.583   3.256  0.3153 -0.1448  0.3443
  136MOL0    Cl17864   3.137  10.588   3.372 -0.5216 -0.0401 -0.1752
  136MOL0     C17865   3.870  10.746   2.864 -0.4227  0.3952  0.1760
  136MOL0     C17866   4.007  10.746   2.870  0.5550  0.1183  0.4316
  136MOL0     O17867   4.294  10.474   2.720  0.2108 -0.3465 -0.1627
  136MOL0     C17868   4.442  10.789   2.805  0.2292  0.5670  0.2942
  136MOL0     C17869   4.559  10.864   2.798 -0.4615 -0.1827 -0.2348
  136MOL0     N17870   5.337  11.216   2.694  0.7455  0.1472  0.2873
  136MOL0     N17871   5.416  11.269   2.784 -0.7686  1.1847 -0.8647
  136MOL0     C17872   6.020  10.467   2.728  0.2526 -0.2242  0.2590
  136MOL0     C17873   5.962  10.364   2.656  0.6522  0.6578 -0.8811
  136MOL0     C17874   5.830  10.163   2.259  0.5616  0.1463  0.4570
  136MOL0     C17875   5.759  10.199   2.137 -0.4142  0.6117 -0.4012
  136MOL0     C17876   5.704  10.099   2.063 -0.1345  1.0013 -0.1843
  136MOL0     C17877   5.724   9.964   2.084  0.0883  0.7585 -0.3770
  136MOL0     O17878   5.660   9.873   2.012  0.6623 -0.1641 -0.8422
  136MOL0     C17879   5.691   9.728   1.998  1.0945  0.1965 -0.5980
  136MOL0     C17880   5.568   9.645   1.972  1.2182  0.1413  0.0186
  136MOL0     C17881   5.462   9.652   2.094 -0.0828 -0.4353  0.1432
  136MOL0     C17882   5.346   9.550   2.084  0.8004  0.6313  0.7311
  136MOL0     C17883   5.246   9.569   1.978  0.1146  0.3468  0.2678
  136MOL0     C17884   5.151   9.588   1.903 -0.0733 -0.7029  0.1291
  136MOL0     C17885   5.795   9.926   2.199  0.4431 -0.7412 -1.1765
  136MOL0     C17886   5.848  10.024   2.288  0.3099  0.8701 -0.6442
  136MOL0     H17887   6.126  10.419   2.369  3.5837 -0.1499  1.0101
  136MOL0     H17888   6.231  10.588   2.489 -1.2464  0.4137 -1.3385
  136MOL0     H17889   6.179  10.778   2.915  2.6158 -3.3502  0.5207
  136MOL0     H17890   6.108  10.618   2.932 -1.6077  1.0831  0.8024
  136MOL0     H17891   5.904  10.700   2.810  1.7475  0.6247 -1.1182
  136MOL0     H17892   5.981  10.866   2.817  1.5345  0.3863 -1.1316
  136MOL0     H17893   5.968  10.800   3.075 -1.5238  0.1746 -0.2801
  136MOL0     H17894   5.850  10.686   3.029 -2.2973  1.3722 -1.3049
  136MOL0     H17895   5.742  10.873   2.884 -2.4716  0.5855  0.9544
  136MOL0     H17896   5.701  10.874   3.066 -1.3934 -2.0725 -1.6221
  136MOL0     H17897   5.914  11.030   2.931 -0.1415 -1.2978  1.2583
  136MOL0     H17898   5.853  11.058   3.092 -3.7374  2.8056 -0.0554
  136MOL0     H17899   5.664  11.111   2.861 -3.7066 -0.9781  1.6648
  136MOL0     H17900   5.750  11.225   2.959  0.3177  0.2852 -2.8659
  136MOL0     H17901   5.546  11.019   3.045  0.7693  0.8104 -1.3276
  136MOL0     H17902   5.630  11.131   3.160  0.3236  0.7318  0.8691
  136MOL0     H17903   5.533  11.313   3.028 -0.7685  0.8402 -1.5662
  136MOL0     H17904   5.404  11.225   3.106 -1.4676 -1.3884 -1.1734
  136MOL0     H17905   5.320  10.986   2.927  1.3782 -1.1986  0.2685
  136MOL0     H17906   5.236  10.893   2.712 -2.6017 -2.1330 -2.3788
  136MOL0     H17907   5.245  10.999   2.561  1.5619 -4.7538  0.4732
  136MOL0     H17908   5.021  10.910   2.599 -4.2582  1.1377  0.6622
  136MOL0     H17909   5.041  11.085   2.591  2.7602  1.8632  2.1777
  136MOL0     H17910   5.030  10.941   2.861  1.5441  2.4154  1.4243
  136MOL0     H17911   5.000  11.106   2.834 -0.5505  0.0359 -1.0531
  136MOL0     H17912   4.806  11.039   2.678  0.0688 -0.9832 -0.6222
  136MOL0     H17913   4.778  11.034   2.853  0.8420  2.4684 -0.0257
  136MOL0     H17914   4.761  10.629   2.675 -0.4774  0.3466 -1.0809
  136MOL0     H17915   4.542  10.491   2.705 -0.5298  0.2420 -2.6397
  136MOL0     H17916   4.059  10.452   2.703  0.9371  0.7278 -0.6026
  136MOL0     H17917   3.819  10.431   2.732  0.4679 -0.4248 -0.1660
  136MOL0     H17918   3.598  10.473   2.710  0.3284  0.4252 -3.1017
  136MOL0     H17919   3.612  10.621   2.617 -2.8535 -1.0672 -1.4383
  136MOL0     H17920   3.395  10.559   2.633  1.1573  0.1532 -1.4960
  136MOL0     H17921   3.407  10.708   2.732  2.2024  0.5611  1.1802
  136MOL0     H17922   3.394  10.572   2.945 -0.9925  1.5338  0.3198
  136MOL0     H17923   3.391  10.424   2.852 -2.1907 -0.7024 -2.4879
  136MOL0     H17924   3.177  10.634   2.826  1.8624  0.7381  0.4153
  136MOL0     H17925   3.208  10.473   2.738  2.0150  0.6808 -0.9321
  136MOL0     H17926   3.193  10.360   2.977  1.7059  0.3978  0.3814
  136MOL0     H17927   3.052  10.424   2.904  1.1072 -2.7968  0.1483
  136MOL0     H17928   3.107  10.641   3.049 -2.6416  0.0691  0.0366
  136MOL0     H17929   3.226  10.535   3.130 -0.8542 -0.3848  0.1134
  136MOL0     H17930   2.918  10.477   3.092  0.6877 -1.4226 -0.3642
  136MOL0     H17931   3.024  10.391   3.205  1.4025 -0.5626 -2.5900
  136MOL0     H17932   2.906  10.575   3.333  1.6727  3.0025  2.2397
  136MOL0     H17933   2.965  10.684   3.217 -4.5195  0.0810  2.5515
  136MOL0     H17934   3.813  10.828   2.905 -0.7170  1.2098 -1.7746
  136MOL0     H17935   4.052  10.834   2.916  2.6388 -0.6209 -0.1190
  136MOL0     H17936   4.351  10.835   2.841 -0.3827 -2.0761  2.4853
  136MOL0     H17937   4.568  10.954   2.857  1.8756 -0.5850  0.1054
  136MOL0     H17938   5.993  10.490   2.831  2.2043  0.2452  0.7177
  136MOL0     H17939   5.893  10.289   2.694  2.2696 -0.7180 -0.5204
  136MOL0     H17940   5.735  10.302   2.112 -1.3667 -0.3885 -4.2790
  136MOL0     H17941   5.644  10.127   1.978 -0.4872  2.5906  0.5533
  136MOL0     H17942   5.750   9.678   2.075  1.4517  0.3218 -0.7908
  136MOL0     H17943   5.751   9.721   1.907  1.5586  0.7585 -0.3426
  136MOL0     H17944   5.511   9.683   1.887  1.3985 -1.7728 -1.0297
  136MOL0     H17945   5.588   9.541   1.943  1.9700  0.6028 -1.1883
  136MOL0     H17946   5.425   9.755   2.100 -0.1528 -0.4049 -0.6759
  136MOL0     H17947   5.516   9.624   2.185  0.5212 -2.3009 -0.7442
  136MOL0     H17948   5.391   9.452   2.066 -0.3146  0.3210 -0.5273
  136MOL0     H17949   5.297   9.543   2.182 -1.3728 -1.6792 -0.3972
  136MOL0     H17950   5.072   9.611   1.835  0.7566 -0.2035 -0.6871
  136MOL0     H17951   5.805   9.823   2.233  1.7819 -0.3985 -0.4514
  136MOL0     H17952   5.905   9.987   2.373 -1.8831 -0.6498  0.2454
  137MOL0     O17953   0.966   9.396   0.884 -1.4798 -0.2391  0.7539
  137MOL0     C17954   0.992   9.433   0.772  0.0519 -0.0005 -1.4623
  137MOL0     O17955   1.069   9.361   0.680  0.8726  0.6010  0.3238
  137MOL0     C17956   1.068   9.228   0.710  0.0787 -0.6460 -0.3383
  137MOL0     C17957   1.184   9.182   0.765 -0.1492  0.4431 -0.3930
  137MOL0     C17958   1.185   9.058   0.827  0.3412 -0.3478 -0.1986
  137MOL0     C17959   1.080   8.966   0.819 -0.3540 -0.7868 -0.2045
  137MOL0     O17960   1.069   8.838   0.876 -0.0808 -0.0802 -0.1757
  137MOL0     C17961   1.164   8.798   0.974 -0.6766 -0.4920 -0.5729
  137MOL0     C17962   1.132   8.674   1.048  1.0337 -0.1060 -0.1895
  137MOL0     C17963   1.124   8.548   0.949  0.2101 -0.2489  0.1537
  137MOL0     C17964   1.112   8.415   1.031  0.0555  0.1012 -0.2814
  137MOL0     C17965   0.968   8.407   1.097 -0.8204  0.2452 -0.0769
  137MOL0     C17966   0.987   8.425   1.251  0.0342  0.9443 -0.0806
  137MOL0     C17967   0.843   8.436   1.319 -0.7376  0.5068 -0.4857
  137MOL0     C17968   0.773   8.572   1.300  0.3808 -0.3374 -0.2911
  137MOL0     N17969   0.635   8.579   1.350 -0.4463  0.2328 -0.5557
  137MOL0     C17970   0.544   8.472   1.387 -0.3337 -0.3407  0.8370
  137MOL0     C17971   0.427   8.530   1.412 -0.2342  0.1442 -0.5373
  137MOL0     C17972   0.308   8.466   1.460  0.4129 -0.2208 -0.8135
  137MOL0     C17973   0.318   8.451   1.614  0.1335 -0.0332  0.0435
  137MOL0     C17974   0.224   8.345   1.660 -0.4455 -0.7261 -0.2382
  137MOL0     C17975   0.222   8.334   1.813 -0.0995 -0.4343  0.1265
  137MOL0     O17976   0.183   8.469   1.862  0.3815  0.1982  0.6171
  137MOL0     C17977   0.131   8.477   1.989  0.3042 -0.1628  0.0560
  137MOL0     C17978   0.070   8.599   2.023 -0.7961 -0.0945 -0.9251
  137MOL0     C17979  -0.014   8.600   2.128  0.5463 -0.2869  0.7098
  137MOL0     C17980  -0.039   8.487   2.213 -1.0187 -0.3866 -0.2183
  137MOL0     C17981  -0.120   8.491   2.334  0.8847 -0.7526 -0.0770
  137MOL0     O17982  -0.131   8.378   2.405 -0.0451 -0.4879  0.0106
  137MOL0     C17983  -0.199   8.388   2.523 -0.0133  0.0719 -0.0701
  137MOL0     C17984  -0.154   8.300   2.628  1.0516  0.3135 -0.3646
  137MOL0     C17985  -0.219   8.297   2.757 -0.1870 -0.1668  0.2702
  137MOL0     C17986  -0.334   8.374   2.780 -0.1103  0.6225  0.1883
  137MOL0     O17987  -0.400   8.363   2.896 -0.6911 -0.4155 -0.3776
  137MOL0     C17988  -0.362   8.266   2.988 -0.2133 -0.4811 -0.2460
  137MOL0     C17989  -0.471   8.252   3.093 -0.4425 -0.3034  0.3886
  137MOL0     C17990  -0.451   8.141   3.196 -0.1598  1.1330  0.2108
  137MOL0     C17991  -0.583   8.112   3.282 -0.3362 -0.5032  0.4057
  137MOL0     C17992  -0.605   8.214   3.402  0.6800  0.6302 -0.6080
  137MOL0     C17993  -0.486   8.221   3.506 -0.0314 -0.7990 -0.3254
  137MOL0     C17994  -0.483   8.091   3.596  1.0145 -0.2792 -0.0940
  137MOL0     C17995  -0.375   8.096   3.710 -0.5270 -0.5719  1.3318
  137MOL0    Cl17996  -0.218   8.081   3.628 -0.2302  0.0465  0.2414
  137MOL0     C17997  -0.375   8.467   2.684  1.1650 -0.7907 -0.2974
  137MOL0     C17998  -0.311   8.469   2.559 -0.4961  0.8356  0.4126
  137MOL0     O17999  -0.166   8.607   2.364 -0.4753 -0.3878 -0.6504
  137MOL0     C18000   0.042   8.377   2.185  0.4657 -0.4138 -0.8076
  137MOL0     C18001   0.118   8.368   2.076 -0.2756 -0.0831  1.0640
  137MOL0     N18002   0.442   8.667   1.400  0.5981  0.5236 -0.0964
  137MOL0     N18003   0.563   8.690   1.372  0.4835  0.1252 -0.5859
  137MOL0     C18004   0.960   9.009   0.758 -0.8854  0.8997 -0.4296
  137MOL0     C18005   0.954   9.142   0.704  0.4492 -0.5584 -0.1006
  137MOL0     C18006   0.984   9.580   0.756  0.3680  0.9648  0.8087
  137MOL0     C18007   1.053   9.643   0.652 -0.6837  0.2552  0.0728
  137MOL0     C18008   1.043   9.782   0.632 -0.0250  0.2492  0.2925
  137MOL0     C18009   0.961   9.867   0.718 -1.1311  0.3340  0.4019
  137MOL0     O18010   0.942  10.003   0.717  0.5313 -0.4204  0.2992
  137MOL0     C18011   0.982  10.081   0.599 -0.2543 -0.7164  0.1138
  137MOL0     C18012   0.973  10.229   0.644  0.1594  0.2111  0.4475
  137MOL0     C18013   0.987  10.321   0.516 -0.7928  0.5746  0.5987
  137MOL0     C18014   0.848  10.380   0.479 -0.0942  0.1252  0.3653
  137MOL0     C18015   0.767  10.287   0.396 -0.8057  0.5087  1.2111
  137MOL0     C18016   0.678  10.215   0.345  0.1443 -0.4342  0.2029
  137MOL0     C18017   0.901   9.803   0.827  0.2830  0.0245 -0.5235
  137MOL0     C18018   0.903   9.667   0.840 -0.3943  0.2030 -0.1246
  137MOL0     H18019   1.278   9.234   0.779  0.2259 -0.3433  0.1253
  137MOL0     H18020   1.277   9.019   0.871  0.3184  0.7689  0.8915
  137MOL0     H18021   1.190   8.881   1.040 -0.7011  0.5711 -1.8587
  137MOL0     H18022   1.258   8.779   0.920  0.4553  0.1642  1.0788
  137MOL0     H18023   1.032   8.680   1.093  0.7235 -3.0805 -0.2727
  137MOL0     H18024   1.202   8.646   1.127  2.4662 -0.0797 -1.3950
  137MOL0     H18025   1.219   8.548   0.895  0.2808 -2.3060  0.1782
  137MOL0     H18026   1.041   8.563   0.879  1.4159  0.7326 -1.1146
  137MOL0     H18027   1.124   8.334   0.959  1.7948  0.0781  0.0060
  137MOL0     H18028   1.196   8.414   1.101  0.4544  2.5187 -0.6185
  137MOL0     H18029   0.922   8.309   1.078 -1.8136  0.7293 -0.1987
  137MOL0     H18030   0.908   8.482   1.045  0.7931  0.5254 -1.6581
  137MOL0     H18031   1.044   8.515   1.274  1.9408 -0.2164 -0.0556
  137MOL0     H18032   1.042   8.339   1.290  3.9370  2.7463 -1.1153
  137MOL0     H18033   0.791   8.348   1.280  0.4124 -0.9506  1.1487
  137MOL0     H18034   0.856   8.411   1.425  0.6115 -1.3070 -1.0193
  137MOL0     H18035   0.765   8.593   1.193  1.2011  0.7210 -0.1661
  137MOL0     H18036   0.840   8.649   1.341 -0.0311  0.2146 -0.6523
  137MOL0     H18037   0.558   8.365   1.397  3.2925 -0.1967 -1.1242
  137MOL0     H18038   0.296   8.373   1.405 -5.7215 -0.4670  0.2311
  137MOL0     H18039   0.218   8.526   1.445  0.2525 -0.1644  0.2356
  137MOL0     H18040   0.296   8.550   1.657  2.5161  0.3075  0.6107
  137MOL0     H18041   0.417   8.416   1.644  0.1805  1.2994  1.6097
  137MOL0     H18042   0.125   8.374   1.622  0.4724 -1.3997 -3.4036
  137MOL0     H18043   0.247   8.243   1.628 -1.4231 -0.4609 -1.9210
  137MOL0     H18044   0.317   8.308   1.860  0.2588 -0.8692 -0.8149
  137MOL0     H18045   0.149   8.259   1.844 -0.0229  0.2465  2.1065
  137MOL0     H18046   0.102   8.682   1.962 -0.2421 -1.1881 -2.1747
  137MOL0     H18047  -0.050   8.694   2.169 -1.1334 -0.6636  0.1598
  137MOL0     H18048  -0.074   8.228   2.614 -1.7844 -3.5067  1.2629
  137MOL0     H18049  -0.184   8.222   2.827 -1.2501 -0.7799  0.1774
  137MOL0     H18050  -0.264   8.290   3.032 -0.3714 -1.5721  0.7470
  137MOL0     H18051  -0.348   8.169   2.940  0.6180 -1.2157  1.3831
  137MOL0     H18052  -0.563   8.231   3.038  0.3395  0.2866 -1.1792
  137MOL0     H18053  -0.466   8.350   3.142 -0.8464 -0.7510  1.3577
  137MOL0     H18054  -0.371   8.161   3.267 -1.0185 -0.3846  1.6679
  137MOL0     H18055  -0.416   8.052   3.142 -2.0523 -0.2095  1.0951
  137MOL0     H18056  -0.667   8.104   3.213 -0.2140 -1.5709  0.3757
  137MOL0     H18057  -0.577   8.012   3.325  0.3110 -1.0323 -0.8530
  137MOL0     H18058  -0.689   8.196   3.470  2.8488  1.4087  2.4889
  137MOL0     H18059  -0.622   8.311   3.355 -0.3350  1.0039  0.4642
  137MOL0     H18060  -0.500   8.315   3.559  1.2637 -0.6613 -0.1783
  137MOL0     H18061  -0.382   8.229   3.472  0.1345  0.2692  0.4031
  137MOL0     H18062  -0.580   8.071   3.641  1.2431 -0.7454  0.2044
  137MOL0     H18063  -0.457   8.005   3.533  2.4786  0.0545  0.0057
  137MOL0     H18064  -0.383   8.013   3.781  1.1986 -4.0841 -2.1628
  137MOL0     H18065  -0.368   8.190   3.766 -2.5699 -0.6114  1.7202
  137MOL0     H18066  -0.461   8.534   2.691  2.1305  0.2996  3.2836
  137MOL0     H18067  -0.359   8.543   2.497 -2.4840 -0.3590  0.4304
  137MOL0     H18068   0.027   8.282   2.236 -2.3134 -0.4328 -1.4770
  137MOL0     H18069   0.177   8.278   2.061 -2.2288 -1.0210 -1.9564
  137MOL0     H18070   0.878   8.938   0.751  0.2585 -0.4721 -0.2696
  137MOL0     H18071   0.863   9.177   0.657  0.1747 -0.4382  0.5060
  137MOL0     H18072   1.116   9.586   0.583 -0.8014  1.0340 -0.6850
  137MOL0     H18073   1.098   9.823   0.548 -2.2513 -0.7996 -1.7889
  137MOL0     H18074   0.912  10.064   0.516  0.0936  2.6852 -1.0199
  137MOL0     H18075   1.083  10.050   0.571 -0.0630 -1.3114  1.3626
  137MOL0     H18076   0.879  10.242   0.699  0.9506 -0.6016  2.0662
  137MOL0     H18077   1.050  10.251   0.718 -0.0028 -1.6175  1.2048
  137MOL0     H18078   1.022  10.263   0.430  0.3308 -1.0284  2.0682
  137MOL0     H18079   1.057  10.403   0.531 -3.3420  2.6862  1.7547
  137MOL0     H18080   0.792  10.405   0.570  0.0826 -2.9662  1.4225
  137MOL0     H18081   0.865  10.473   0.424  3.5147 -1.8460 -2.2785
  137MOL0     H18082   0.603  10.149   0.303  0.8732 -1.8738  1.0833
  137MOL0     H18083   0.848   9.869   0.895  2.2858  1.5919 -0.3872
  137MOL0     H18084   0.848   9.629   0.925  2.4976  2.2187  2.8988
  138MOL0     O18085   7.715   3.602   0.612 -0.0809 -0.7032  0.4193
  138MOL0     C18086   7.752   3.718   0.572 -0.4564  0.6798  0.3156
  138MOL0     O18087   7.704   3.796   0.472  0.3022 -0.0807 -0.1956
  138MOL0     C18088   7.601   3.748   0.408 -0.2344  0.0074  0.0376
  138MOL0     C18089   7.612   3.714   0.266 -0.9144  0.1429 -1.2318
  138MOL0     C18090   7.509   3.679   0.180 -0.6849  0.2525  0.3223
  138MOL0     C18091   7.383   3.667   0.232 -0.7854 -0.3672 -0.9182
  138MOL0     O18092   7.278   3.633   0.149 -0.2849  0.2576 -0.0881
  138MOL0     C18093   7.148   3.640   0.202 -0.3349 -0.0402 -0.5433
  138MOL0     C18094   7.051   3.578   0.111  0.3731  0.4066  0.3090
  138MOL0     C18095   6.910   3.566   0.171  0.6117  0.0194  0.6117
  138MOL0     C18096   6.809   3.518   0.066 -0.1366  0.4511  0.0086
  138MOL0     C18097   6.862   3.389  -0.000 -0.1301  0.6170  0.9649
  138MOL0     C18098   6.754   3.313  -0.086 -0.3182 -0.5300 -0.1258
  138MOL0     C18099   6.647   3.247  -0.001 -0.0079  0.0680  0.6251
  138MOL0     C18100   6.705   3.155   0.111  0.1133 -0.1521  0.7911
  138MOL0     N18101   6.612   3.058   0.167 -0.5238  0.3278 -0.2438
  138MOL0     C18102   6.500   3.098   0.238  0.3588  0.1677 -0.0707
  138MOL0     C18103   6.436   2.978   0.259 -0.1223 -0.2394 -0.6958
  138MOL0     C18104   6.288   2.962   0.306  0.6283 -0.3525  0.7640
  138MOL0     C18105   6.252   2.822   0.332  0.7495  0.4239  0.4135
  138MOL0     C18106   6.094   2.804   0.356  0.9351  0.1399 -0.1093
  138MOL0     C18107   6.051   2.713   0.459  0.4874  1.1244 -0.9817
  138MOL0     O18108   5.913   2.679   0.451  0.0064  0.3188 -0.0323
  138MOL0     C18109   5.824   2.755   0.513  0.8545  0.6067  0.3544
  138MOL0     C18110   5.834   2.888   0.564 -0.2438 -0.4795 -0.4423
  138MOL0     C18111   5.729   2.949   0.629  0.4628  0.6520 -0.1986
  138MOL0     C18112   5.599   2.883   0.642  0.7765 -0.5292 -1.0703
  138MOL0     C18113   5.477   2.942   0.706 -0.7847 -0.0463 -0.5957
  138MOL0     O18114   5.355   2.883   0.675  0.7560 -0.0337  0.3235
  138MOL0     C18115   5.239   2.954   0.687 -0.4315 -0.2610  0.6196
  138MOL0     C18116   5.219   3.074   0.755 -0.4818 -0.0987  0.2158
  138MOL0     C18117   5.099   3.129   0.755 -0.3859 -0.6170  1.1219
  138MOL0     C18118   4.999   3.074   0.675 -0.3740 -0.5242  0.3028
  138MOL0     O18119   4.875   3.136   0.660  0.0340 -0.2256 -0.4013
  138MOL0     C18120   4.837   3.268   0.689  0.2585 -0.6906 -0.3633
  138MOL0     C18121   4.705   3.308   0.623  0.2160 -1.0353 -0.2562
  138MOL0     C18122   4.601   3.217   0.670  0.3818 -0.7029 -0.8110
  138MOL0     C18123   4.466   3.265   0.609 -0.0747 -0.8147  0.1475
  138MOL0     C18124   4.357   3.160   0.620 -0.3163 -0.4738 -0.4119
  138MOL0     C18125   4.227   3.204   0.550 -0.3914 -0.1780  0.7783
  138MOL0     C18126   4.124   3.094   0.539  0.2426  0.7708  0.6032
  138MOL0     C18127   3.980   3.152   0.498  0.9003  0.0863 -0.0736
  138MOL0    Cl18128   3.886   3.028   0.398  0.1491 -0.1340  0.1324
  138MOL0     C18129   5.015   2.948   0.623  0.1396 -0.2798 -0.7376
  138MOL0     C18130   5.134   2.891   0.628 -0.0998  0.0162 -0.0706
  138MOL0     O18131   5.496   3.033   0.790 -0.4571 -0.4725  0.4183
  138MOL0     C18132   5.588   2.758   0.578  0.0442 -0.4718  0.4886
  138MOL0     C18133   5.700   2.696   0.519 -0.1327 -0.6594 -0.2061
  138MOL0     N18134   6.523   2.872   0.221 -0.4524 -0.1484 -0.8266
  138MOL0     N18135   6.634   2.924   0.177 -0.4439  0.4781 -0.3846
  138MOL0     C18136   7.365   3.687   0.377  0.3570 -0.5400 -0.2688
  138MOL0     C18137   7.472   3.725   0.461 -0.3084 -0.5054  0.5342
  138MOL0     C18138   7.866   3.783   0.647  1.0304  0.7619  1.0876
  138MOL0     C18139   7.936   3.723   0.759  0.4966 -0.4543  0.1157
  138MOL0     C18140   8.056   3.790   0.808  0.1750  0.3840  0.2108
  138MOL0     C18141   8.104   3.907   0.755  0.0987 -0.2077  0.4716
  138MOL0     O18142   8.202   3.985   0.815 -0.1248  0.2739  0.2122
  138MOL0     C18143   8.286   3.925   0.921 -0.4890 -0.0802 -0.7840
  138MOL0     C18144   8.430   3.981   0.917 -0.5517 -0.4842 -0.4654
  138MOL0     C18145   8.457   4.130   0.954  0.4226  0.4532 -0.5811
  138MOL0     C18146   8.576   4.165   1.049  0.1135 -0.5887  1.2465
  138MOL0     C18147   8.567   4.086   1.173  0.1511 -1.0614  0.7162
  138MOL0     C18148   8.555   4.045   1.283  0.4075 -0.0834 -1.1037
  138MOL0     C18149   8.032   3.964   0.654 -1.5367 -0.5167  0.1402
  138MOL0     C18150   7.926   3.905   0.592  0.5773  0.1979 -0.2885
  138MOL0     H18151   7.716   3.705   0.236 -0.3354 -3.5449  1.2429
  138MOL0     H18152   7.534   3.666   0.075 -1.5438 -0.7169  0.2234
  138MOL0     H18153   7.114   3.743   0.216 -0.8147 -0.4690  1.9366
  138MOL0     H18154   7.143   3.585   0.297 -2.5605  3.0614  1.3532
  138MOL0     H18155   7.089   3.480   0.085 -0.3457  0.3476 -0.5718
  138MOL0     H18156   7.057   3.629   0.014 -0.6202 -2.9737 -1.7014
  138MOL0     H18157   6.881   3.666   0.204 -2.8357  0.5557 -3.2276
  138MOL0     H18158   6.912   3.506   0.262 -0.2126  1.4130  1.5841
  138MOL0     H18159   6.720   3.513   0.130  1.3344  0.1559  2.1537
  138MOL0     H18160   6.786   3.578  -0.023 -0.8401  0.1535 -0.0168
  138MOL0     H18161   6.907   3.316   0.067  0.3628 -1.8401 -1.8397
  138MOL0     H18162   6.938   3.422  -0.072  0.0055 -1.0031  0.3238
  138MOL0     H18163   6.809   3.248  -0.155 -1.2360 -0.6447 -0.7632
  138MOL0     H18164   6.701   3.382  -0.152 -1.7471 -1.3555  0.1360
  138MOL0     H18165   6.594   3.330   0.048 -0.2655  0.1658  0.1878
  138MOL0     H18166   6.579   3.205  -0.075  0.4942 -0.7403  0.6152
  138MOL0     H18167   6.750   3.219   0.188 -0.4243  5.1834 -2.8122
  138MOL0     H18168   6.778   3.088   0.065 -1.2897 -0.1020 -1.6446
  138MOL0     H18169   6.475   3.203   0.235  4.1405  1.1913 -0.4019
  138MOL0     H18170   6.221   3.021   0.242 -0.4561  0.3106  2.4329
  138MOL0     H18171   6.292   3.016   0.401  1.2228 -2.3583  1.9359
  138MOL0     H18172   6.294   2.785   0.426  0.6647  0.9023  0.6373
  138MOL0     H18173   6.287   2.765   0.245  0.6546 -0.4568  0.9415
  138MOL0     H18174   6.058   2.902   0.387  1.5453 -0.5395  3.0704
  138MOL0     H18175   6.048   2.768   0.263  0.6941 -2.1962  0.8359
  138MOL0     H18176   6.062   2.762   0.557 -4.1243  0.1655  0.2295
  138MOL0     H18177   6.113   2.624   0.451 -0.0939  0.5107  0.8082
  138MOL0     H18178   5.923   2.947   0.545 -0.2484 -0.5814 -0.7896
  138MOL0     H18179   5.746   3.049   0.667 -2.1991  0.9811  0.2966
  138MOL0     H18180   5.288   3.114   0.828 -0.3129  2.4466 -1.2067
  138MOL0     H18181   5.073   3.225   0.798  0.3468  0.2990 -0.3933
  138MOL0     H18182   4.913   3.344   0.669  0.2044 -0.6448 -0.3956
  138MOL0     H18183   4.836   3.257   0.798  1.5528 -0.7891 -0.3404
  138MOL0     H18184   4.697   3.298   0.515  2.5802 -1.5180 -0.4411
  138MOL0     H18185   4.671   3.410   0.644  0.4955 -0.9799 -0.0623
  138MOL0     H18186   4.594   3.221   0.779 -0.4837  0.1753 -0.8921
  138MOL0     H18187   4.610   3.115   0.630 -3.6703 -0.4494 -2.9360
  138MOL0     H18188   4.432   3.350   0.669 -1.0496 -0.5013 -0.8195
  138MOL0     H18189   4.486   3.293   0.505  2.4037  0.3389  0.8471
  138MOL0     H18190   4.335   3.131   0.724 -0.3913 -0.0245 -0.3025
  138MOL0     H18191   4.390   3.067   0.573 -0.1006  0.3376 -1.9124
  138MOL0     H18192   4.247   3.235   0.447  3.0685  0.5604  1.5600
  138MOL0     H18193   4.172   3.285   0.599 -1.3270  0.3351 -1.0331
  138MOL0     H18194   4.151   3.023   0.460  1.6025 -0.1338  1.8414
  138MOL0     H18195   4.124   3.042   0.635  0.3164 -0.8742 -0.2478
  138MOL0     H18196   3.994   3.247   0.445  0.5509  0.6705  0.8648
  138MOL0     H18197   3.932   3.191   0.588  0.1461  2.6088 -1.4742
  138MOL0     H18198   4.935   2.902   0.565  0.4690  0.3943 -1.7455
  138MOL0     H18199   5.146   2.792   0.586  0.7168  0.5960 -1.2444
  138MOL0     H18200   5.498   2.700   0.562 -0.8365  0.2258  2.5194
  138MOL0     H18201   5.685   2.611   0.453  0.0438 -2.2409  1.6944
  138MOL0     H18202   7.265   3.677   0.416  0.8924 -2.5846  0.7332
  138MOL0     H18203   7.465   3.747   0.567  0.6365  0.6420  0.3679
  138MOL0     H18204   7.905   3.629   0.802  2.2158 -1.2965 -0.3951
  138MOL0     H18205   8.087   3.732   0.895  0.5171  2.4736  1.5454
  138MOL0     H18206   8.287   3.816   0.911 -3.2980 -0.3251  0.8706
  138MOL0     H18207   8.250   3.938   1.023  0.0917 -0.7439 -0.4871
  138MOL0     H18208   8.489   3.919   0.986  0.2573  0.1993 -0.5223
  138MOL0     H18209   8.464   3.970   0.814 -0.3536  0.2994 -0.4906
  138MOL0     H18210   8.369   4.160   1.012  1.0818  0.9480  0.1873
  138MOL0     H18211   8.464   4.194   0.866  0.0410  0.1593 -0.8316
  138MOL0     H18212   8.676   4.163   1.005 -0.2900 -1.2477  0.3201
  138MOL0     H18213   8.552   4.268   1.076  1.7288  0.2472 -0.3229
  138MOL0     H18214   8.548   4.000   1.380 -2.8407 -2.3898 -2.2307
  138MOL0     H18215   8.072   4.054   0.608 -0.8283 -3.2951 -5.6513
  138MOL0     H18216   7.889   3.957   0.504  2.1759  0.9349 -0.5533
  139MOL0     O18217   8.864   5.974   9.873  0.3569  0.0007 -0.1762
  139MOL0     C18218   8.852   5.856   9.847 -0.2227  0.1879  0.8036
  139MOL0     O18219   8.726   5.794   9.819 -0.0304  0.1179  0.8161
  139MOL0     C18220   8.628   5.876   9.782  0.8209 -0.6386  0.5030
  139MOL0     C18221   8.513   5.893   9.868  0.3344 -0.3883  0.2851
  139MOL0     C18222   8.399   5.960   9.824 -0.6213  0.1337  0.0349
  139MOL0     C18223   8.401   6.024   9.699 -0.3920  0.2166 -0.3929
  139MOL0     O18224   8.293   6.090   9.666 -0.1172 -0.0154  0.4025
  139MOL0     C18225   8.301   6.193   9.558  0.0073 -0.2063 -0.1175
  139MOL0     C18226   8.163   6.268   9.546  0.8275 -0.5328 -1.0209
  139MOL0     C18227   8.095   6.305   9.677  0.6675 -0.2692 -0.5805
  139MOL0     C18228   7.966   6.376   9.633  0.1057  0.1272  0.1088
  139MOL0     C18229   7.891   6.431   9.760  1.2392 -0.1791  0.3763
  139MOL0     C18230   7.946   6.559   9.820 -0.3202  0.1511 -0.2587
  139MOL0     C18231   7.854   6.617   9.936 -0.0493  0.7837 -0.3280
  139MOL0     C18232   7.900   6.766   9.955  0.0981 -0.9888 -1.0061
  139MOL0     N18233   8.037   6.782  10.016 -1.0404  1.0710  0.1012
  139MOL0     C18234   8.083   6.707  10.125 -0.1401 -0.8156  0.0779
  139MOL0     C18235   8.222   6.721  10.128  1.3440  0.3406  0.0126
  139MOL0     C18236   8.317   6.645  10.215 -0.5692 -0.0732 -0.5736
  139MOL0     C18237   8.359   6.731  10.341  0.1993 -0.6094 -0.4590
  139MOL0     C18238   8.241   6.760  10.437 -0.5568 -0.0574 -0.8289
  139MOL0     C18239   8.188   6.645  10.522 -0.7550 -1.8277  0.0436
  139MOL0     O18240   8.094   6.698  10.615  0.9048  0.6693  0.8483
  139MOL0     C18241   8.017   6.605  10.674  0.1870 -0.1666 -1.0725
  139MOL0     C18242   8.048   6.471  10.684  0.5643  0.2480  0.2228
  139MOL0     C18243   7.954   6.387  10.749 -0.0270 -0.5374  0.0155
  139MOL0     C18244   7.824   6.436  10.784 -0.2332  0.7237 -0.6935
  139MOL0     C18245   7.722   6.359  10.858  0.7715  0.1645 -0.4948
  139MOL0     O18246   7.580   6.386  10.833 -0.2186 -0.3094 -0.2888
  139MOL0     C18247   7.498   6.311  10.909  0.3104 -0.9335 -0.9252
  139MOL0     C18248   7.419   6.209  10.852 -1.1359  0.0168  0.1841
  139MOL0     C18249   7.352   6.118  10.932  0.5302  0.7520  0.2037
  139MOL0     C18250   7.345   6.132  11.071 -0.7386 -0.5072  1.3694
  139MOL0     O18251   7.270   6.038  11.142  0.2732  0.1034  0.9410
  139MOL0     C18252   7.119   6.050  11.146 -0.5801  0.2335  0.2091
  139MOL0     C18253   7.049   6.154  11.234  0.2908  0.9527 -0.0257
  139MOL0     C18254   6.894   6.157  11.214  0.9193  0.7203 -0.4028
  139MOL0     C18255   6.853   6.241  11.094  0.2005 -0.7513  0.7465
  139MOL0     C18256   6.695   6.236  11.067 -1.0589 -0.6683  0.1578
  139MOL0     C18257   6.601   6.278  11.178  0.9365 -0.7252 -0.3514
  139MOL0     C18258   6.453   6.270  11.131 -0.2788  0.7183  0.0160
  139MOL0     C18259   6.345   6.242  11.235  0.7160  0.4879  0.2636
  139MOL0    Cl18260   6.178   6.259  11.174  0.4887 -0.1816 -0.1714
  139MOL0     C18261   7.413   6.238  11.133 -0.1409  0.1738  0.1454
  139MOL0     C18262   7.490   6.324  11.053 -0.2159  0.4018 -0.4924
  139MOL0     O18263   7.758   6.263  10.925  0.2140  0.4028  0.1233
  139MOL0     C18264   7.795   6.575  10.757  0.1199  0.5564  0.5999
  139MOL0     C18265   7.893   6.656  10.709  0.6781 -0.3940  0.3590
  139MOL0     N18266   8.256   6.800  10.020  0.6127 -0.6256  0.4105
  139MOL0     N18267   8.152   6.833   9.950 -0.4246 -0.3802 -1.0657
  139MOL0     C18268   8.512   6.023   9.621  0.1523  0.2713  0.6162
  139MOL0     C18269   8.620   5.946   9.664 -0.3691 -0.4174 -0.7098
  139MOL0     C18270   8.960   5.770   9.893 -0.2980 -0.2149 -0.1757
  139MOL0     C18271   8.938   5.632   9.894 -0.8363  0.9590  0.4040
  139MOL0     C18272   9.049   5.541   9.912 -0.1208 -0.9789  0.3570
  139MOL0     C18273   9.170   5.593   9.967  0.6521  0.1968  0.7221
  139MOL0     O18274   9.262   5.502  10.018  0.6461  0.1310 -0.2858
  139MOL0     C18275   9.228   5.375  10.073  0.4628 -0.3205  0.5846
  139MOL0     C18276   9.124   5.378  10.184 -0.0324 -0.2032 -0.3396
  139MOL0     C18277   9.185   5.458  10.300  0.4676 -0.3323 -0.0535
  139MOL0     C18278   9.215   5.379  10.420  0.5655  1.1331 -0.5148
  139MOL0     C18279   9.342   5.312  10.401  0.5069  0.5961 -0.1453
  139MOL0     C18280   9.448   5.259  10.387 -1.1380  0.3096  0.2629
  139MOL0     C18281   9.185   5.728   9.990  0.1929  0.8644 -1.7093
  139MOL0     C18282   9.084   5.815   9.951  0.2210 -0.6379  0.3740
  139MOL0     H18283   8.513   5.858   9.971 -0.8526 -1.0913  0.0671
  139MOL0     H18284   8.309   5.951   9.884 -1.2952  2.6608 -0.4918
  139MOL0     H18285   8.320   6.142   9.463 -2.5265 -4.4944  1.3739
  139MOL0     H18286   8.381   6.264   9.583 -0.0593  0.6966 -2.2668
  139MOL0     H18287   8.099   6.207   9.481 -2.2115  1.2743  0.0660
  139MOL0     H18288   8.178   6.367   9.502 -4.0243  1.9854  2.1574
  139MOL0     H18289   8.162   6.366   9.739  0.0461 -0.6590  0.4945
  139MOL0     H18290   8.054   6.222   9.734 -3.1235  2.5978  1.3493
  139MOL0     H18291   7.986   6.460   9.565  0.7477  0.4506  0.6816
  139MOL0     H18292   7.899   6.303   9.588  2.3983 -2.3608  0.5042
  139MOL0     H18293   7.894   6.348   9.831 -1.6753 -1.0368 -0.3694
  139MOL0     H18294   7.789   6.455   9.730  1.8478  3.5951  0.8378
  139MOL0     H18295   7.949   6.641   9.748 -1.8953  1.3277  0.9445
  139MOL0     H18296   8.042   6.538   9.867 -0.2407 -0.2567 -0.6008
  139MOL0     H18297   7.748   6.612   9.909  0.5251  2.8359 -3.5092
  139MOL0     H18298   7.873   6.556  10.025 -1.2075 -2.7142 -2.2840
  139MOL0     H18299   7.840   6.812  10.034 -0.2422 -3.1379  0.0586
  139MOL0     H18300   7.883   6.823   9.864  0.4357 -0.6995 -0.8890
  139MOL0     H18301   8.031   6.646  10.197 -1.0398  2.2981  2.2921
  139MOL0     H18302   8.400   6.627  10.147  1.2017  0.9258  1.2011
  139MOL0     H18303   8.283   6.542  10.232  0.2420 -0.1388  0.8329
  139MOL0     H18304   8.400   6.828  10.312  0.3353  0.3368  2.5437
  139MOL0     H18305   8.445   6.682  10.389  3.2926 -0.1645 -4.9230
  139MOL0     H18306   8.269   6.840  10.507 -1.1158  1.7749 -2.6033
  139MOL0     H18307   8.154   6.804  10.387  1.7661  5.3698 -0.8313
  139MOL0     H18308   8.273   6.608  10.581 -0.9075 -0.5689  1.0988
  139MOL0     H18309   8.136   6.575  10.456 -0.2883  0.3833 -2.8872
  139MOL0     H18310   8.150   6.435  10.670  0.7702  0.4201  1.1846
  139MOL0     H18311   7.993   6.287  10.765  2.5180  0.1658 -1.2834
  139MOL0     H18312   7.417   6.194  10.744 -1.2223  0.2351  0.1556
  139MOL0     H18313   7.302   6.029  10.897 -2.5905  3.6645 -3.8005
  139MOL0     H18314   7.088   5.950  11.175  2.2916 -0.4040  1.4263
  139MOL0     H18315   7.095   6.063  11.040 -0.1478 -0.4281  0.0200
  139MOL0     H18316   7.082   6.253  11.201 -5.0729  2.6072 -1.4145
  139MOL0     H18317   7.075   6.135  11.339 -1.7459  2.1044  0.7440
  139MOL0     H18318   6.847   6.194  11.306 -0.0426  0.4632 -0.7754
  139MOL0     H18319   6.854   6.055  11.210 -0.0090  0.9195  2.1957
  139MOL0     H18320   6.875   6.349  11.097 -1.1919 -0.1368 -3.7899
  139MOL0     H18321   6.907   6.212  11.004 -1.9732 -2.4912 -0.0646
  139MOL0     H18322   6.676   6.135  11.030 -0.0844 -0.1834 -1.7882
  139MOL0     H18323   6.670   6.302  10.983 -1.1999  0.4788  1.0615
  139MOL0     H18324   6.611   6.382  11.209 -3.4637 -0.2631  0.0752
  139MOL0     H18325   6.614   6.212  11.265 -0.4895 -1.0020 -0.3377
  139MOL0     H18326   6.417   6.363  11.087 -0.5032  0.7258  0.2186
  139MOL0     H18327   6.449   6.183  11.064 -0.9417 -0.8179  1.9686
  139MOL0     H18328   6.353   6.323  11.308  1.3165  0.8765 -0.2238
  139MOL0     H18329   6.346   6.143  11.282  1.5476 -0.8081 -2.2850
  139MOL0     H18330   7.417   6.241  11.241 -0.6564 -0.2850  0.1842
  139MOL0     H18331   7.531   6.401  11.117 -2.0349  0.7988  0.2889
  139MOL0     H18332   7.692   6.609  10.767  0.4198  1.4367  0.8502
  139MOL0     H18333   7.870   6.761  10.694 -2.0660 -0.8777  0.7028
  139MOL0     H18334   8.510   6.062   9.519  2.8855 -0.5757  0.1447
  139MOL0     H18335   8.697   5.929   9.590  0.4168 -2.9631  0.5661
  139MOL0     H18336   8.848   5.584   9.856 -1.9227  1.6681  1.9835
  139MOL0     H18337   9.033   5.440   9.877 -0.6447 -1.0627  0.8165
  139MOL0     H18338   9.310   5.318  10.119 -0.5238 -1.9500  0.3869
  139MOL0     H18339   9.199   5.303   9.996  1.7439  0.4295 -0.6505
  139MOL0     H18340   9.031   5.420  10.146  0.3496  1.8808  0.8368
  139MOL0     H18341   9.101   5.276  10.217 -0.7509 -0.4415 -1.5274
  139MOL0     H18342   9.103   5.527  10.318 -1.2713 -2.2379 -0.3057
  139MOL0     H18343   9.274   5.516  10.272  0.0170 -0.1197 -1.0870
  139MOL0     H18344   9.237   5.446  10.504  2.1360 -3.2511  2.9797
  139MOL0     H18345   9.131   5.312  10.443  2.3294 -0.1281  3.1891
  139MOL0     H18346   9.546   5.220  10.369 -0.5834  0.2377  2.9440
  139MOL0     H18347   9.269   5.773  10.043 -2.0537  1.3774  1.7121
  139MOL0     H18348   9.099   5.922   9.964 -3.8509  0.2372 -0.8314
  140MOL0     O18349   4.105  10.986   9.845  0.1362 -0.3343  0.7964
  140MOL0     C18350   4.115  11.048   9.952  0.2883  0.7222 -0.4557
  140MOL0     O18351   4.014  11.123  10.011 -0.3122  0.4072  0.1770
  140MOL0     C18352   3.906  11.144   9.939  0.2583 -0.3371 -0.6102
  140MOL0     C18353   3.808  11.051   9.927 -0.0476  0.4851  0.3882
  140MOL0     C18354   3.709  11.077   9.838 -0.5216  0.6603  0.5736
  140MOL0     C18355   3.691  11.195   9.773 -0.2354  0.3107  0.1299
  140MOL0     O18356   3.579  11.214   9.699  0.6006 -0.5830  0.4448
  140MOL0     C18357   3.516  11.340   9.718  0.5281  0.3833  0.7699
  140MOL0     C18358   3.377  11.315   9.652  0.4754 -0.5633 -1.3334
  140MOL0     C18359   3.297  11.449   9.650  0.3393 -0.3360  0.4668
  140MOL0     C18360   3.222  11.479   9.789 -0.9275  0.4908  0.5284
  140MOL0     C18361   3.141  11.373   9.845  0.8212 -0.7112 -1.0595
  140MOL0     C18362   3.090  11.427   9.984  0.3983 -0.6846  0.0755
  140MOL0     C18363   2.970  11.519   9.958  0.3055  0.2972  0.5291
  140MOL0     C18364   2.887  11.533  10.089 -0.2173  1.1154  0.0218
  140MOL0     N18365   2.967  11.623  10.169  0.2285  0.7813 -0.2668
  140MOL0     C18366   3.057  11.591  10.273  0.3889 -0.2002  0.0288
  140MOL0     C18367   3.094  11.713  10.322 -0.0991  0.4876  0.4103
  140MOL0     C18368   3.200  11.731  10.422  0.2462 -0.9629 -0.3637
  140MOL0     C18369   3.271  11.873  10.413  0.4454  0.0656 -0.0736
  140MOL0     C18370   3.354  11.905  10.536 -0.7133 -0.0623  0.6268
  140MOL0     C18371   3.474  11.811  10.561 -0.1210  0.1518 -0.0522
  140MOL0     O18372   3.579  11.809  10.456 -0.2096  0.5560 -0.3919
  140MOL0     C18373   3.690  11.873  10.495 -0.1239  0.8483  0.3940
  140MOL0     C18374   3.686  12.013  10.496 -0.2094  0.4368  0.0029
  140MOL0     C18375   3.802  12.078  10.533 -0.4064  0.0865 -0.2619
  140MOL0     C18376   3.922  12.005  10.556 -0.8798 -0.8600 -0.9035
  140MOL0     C18377   4.038  12.070  10.595 -0.3760 -0.9127 -0.7772
  140MOL0     O18378   4.108  12.014  10.695  0.1704 -0.6820  0.1587
  140MOL0     C18379   4.243  12.051  10.706 -0.6657 -0.3411 -0.0018
  140MOL0     C18380   4.333  12.091  10.603 -0.6530 -0.3743  0.2771
  140MOL0     C18381   4.471  12.100  10.622  0.0099 -0.3503 -0.3928
  140MOL0     C18382   4.520  12.094  10.753  0.4881  0.3292  1.5710
  140MOL0     O18383   4.659  12.085  10.759 -0.3596 -0.1480  0.4935
  140MOL0     C18384   4.722  12.031  10.880 -0.0932  0.0245  0.2516
  140MOL0     C18385   4.721  11.880  10.905 -0.1545  0.1666 -0.0852
  140MOL0     C18386   4.843  11.825  10.984  0.3003  0.4780 -0.3519
  140MOL0     C18387   4.855  11.674  10.959 -0.4637 -0.1659 -0.0573
  140MOL0     C18388   4.952  11.605  11.056 -0.2426  0.2144  0.1442
  140MOL0     C18389   4.964  11.458  11.037  0.4370  0.2645  0.2122
  140MOL0     C18390   5.075  11.398  11.133 -0.4649  0.3467  0.5768
  140MOL0     C18391   5.127  11.260  11.082  0.1624  0.0911 -0.0112
  140MOL0    Cl18392   5.021  11.133  11.146 -0.0301 -0.2862  0.1090
  140MOL0     C18393   4.433  12.077  10.856 -0.2760 -0.1193  0.6714
  140MOL0     C18394   4.295  12.053  10.830 -0.1763  0.0137 -0.0893
  140MOL0     O18395   4.070  12.173  10.533 -0.7815 -0.8075  0.1354
  140MOL0     C18396   3.922  11.870  10.554  0.2491  0.2694  0.7883
  140MOL0     C18397   3.809  11.797  10.508 -0.1459 -0.9409 -0.3235
  140MOL0     N18398   3.026  11.807  10.242 -0.6588  0.0087 -0.7399
  140MOL0     N18399   2.947  11.757  10.152 -0.9793  0.1006 -0.0148
  140MOL0     C18400   3.785  11.297   9.794 -1.5778 -1.2085  0.1096
  140MOL0     C18401   3.890  11.272   9.878  0.3028 -0.1439  0.4707
  140MOL0     C18402   4.250  11.041  10.013 -0.1659 -0.4466 -0.3424
  140MOL0     C18403   4.296  11.127  10.116  0.6667 -0.0489  0.4701
  140MOL0     C18404   4.422  11.113  10.178 -0.1095 -0.6870  1.3744
  140MOL0     C18405   4.515  11.022  10.146 -0.0813  0.3163 -1.2241
  140MOL0     O18406   4.626  11.013  10.233  0.8908  0.0920  1.1162
  140MOL0     C18407   4.703  10.890  10.229  0.1210 -0.0416  0.6561
  140MOL0     C18408   4.752  10.876  10.370 -0.8365 -0.2175  0.4820
  140MOL0     C18409   4.888  10.795  10.381  0.7500 -1.0101  0.2405
  140MOL0     C18410   4.900  10.753  10.524  1.1309 -0.4263  0.4880
  140MOL0     C18411   4.926  10.864  10.614  0.0535 -0.1526 -0.1237
  140MOL0     C18412   4.953  10.961  10.681 -0.0730 -0.6303 -0.1406
  140MOL0     C18413   4.485  10.937  10.041 -0.4935 -0.1445  0.8585
  140MOL0     C18414   4.354  10.946   9.981 -0.1076 -0.7817  0.2810
  140MOL0     H18415   3.807  10.956   9.979 -1.1681  0.9084  1.1923
  140MOL0     H18416   3.620  11.014   9.833 -1.0385  1.2612  1.7796
  140MOL0     H18417   3.570  11.424   9.673  1.3477 -0.8218 -0.5816
  140MOL0     H18418   3.493  11.362   9.823 -1.5538 -1.0672  0.6768
  140MOL0     H18419   3.314  11.231   9.683  2.8944 -1.4723  1.7046
  140MOL0     H18420   3.411  11.293   9.550  1.9463  1.6885 -1.4117
  140MOL0     H18421   3.230  11.450   9.564  1.5581 -4.0445 -0.7170
  140MOL0     H18422   3.372  11.525   9.626  0.8523 -1.3978 -1.4400
  140MOL0     H18423   3.306  11.510   9.852  1.5780  0.8435 -2.6770
  140MOL0     H18424   3.166  11.573   9.778 -2.6511 -0.4584  0.8422
  140MOL0     H18425   3.196  11.282   9.868  0.5524 -0.5711  0.1942
  140MOL0     H18426   3.057  11.336   9.784  0.7162 -0.8551 -0.8313
  140MOL0     H18427   3.168  11.474  10.045  1.4854 -1.7134 -0.4659
  140MOL0     H18428   3.049  11.333  10.023 -3.0480 -0.1484 -1.8524
  140MOL0     H18429   2.996  11.616   9.913  1.2931  1.0124  2.5458
  140MOL0     H18430   2.898  11.475   9.888 -0.0613 -1.1836  1.7962
  140MOL0     H18431   2.879  11.435  10.137  1.2527 -0.5592 -2.8966
  140MOL0     H18432   2.785  11.572  10.077 -1.0800 -1.1494 -0.5277
  140MOL0     H18433   3.086  11.491  10.304  3.4489 -0.1087 -2.0645
  140MOL0     H18434   3.272  11.657  10.389 -1.5829 -1.9628 -2.4188
  140MOL0     H18435   3.163  11.706  10.522  0.5515  1.2520  0.3600
  140MOL0     H18436   3.189  11.944  10.430  1.7746  0.9741  3.3555
  140MOL0     H18437   3.325  11.900  10.322 -0.4487  1.1733 -0.2999
  140MOL0     H18438   3.402  12.001  10.514  0.3154 -0.7234 -0.0797
  140MOL0     H18439   3.283  11.904  10.620 -1.9945 -1.2927 -0.4272
  140MOL0     H18440   3.434  11.712  10.583 -0.9481  1.1215  3.4311
  140MOL0     H18441   3.522  11.837  10.656  0.0026  1.1005 -0.3615
  140MOL0     H18442   3.602  12.078  10.473 -1.7142 -1.6496 -0.6986
  140MOL0     H18443   3.794  12.186  10.532  0.1862  0.1355 -0.8375
  140MOL0     H18444   4.299  12.078  10.501 -0.3839 -2.1014  0.3641
  140MOL0     H18445   4.537  12.110  10.537 -1.5336  1.0168 -1.5130
  140MOL0     H18446   4.689  12.077  10.974  3.0853  0.9492  1.0302
  140MOL0     H18447   4.826  12.063  10.865 -0.3983  1.2223  0.5330
  140MOL0     H18448   4.710  11.840  10.804  1.7437 -0.4439 -0.0992
  140MOL0     H18449   4.628  11.856  10.956  1.6930 -3.7727  1.9007
  140MOL0     H18450   4.811  11.836  11.088  0.4269  1.2310 -0.3903
  140MOL0     H18451   4.938  11.875  10.964  0.5892 -0.4916 -1.5248
  140MOL0     H18452   4.765  11.624  10.997 -1.1279  2.4787  2.1536
  140MOL0     H18453   4.868  11.647  10.853  2.7644 -0.7270  0.3969
  140MOL0     H18454   4.936  11.641  11.158 -2.7261 -0.6721  0.1227
  140MOL0     H18455   5.052  11.643  11.030  0.4035 -0.1628  1.9482
  140MOL0     H18456   4.981  11.444  10.930  0.3663 -1.2390  0.3728
  140MOL0     H18457   4.866  11.413  11.058  0.6618 -0.0716  0.5436
  140MOL0     H18458   5.162  11.464  11.135 -0.4307  0.3113  0.3027
  140MOL0     H18459   5.030  11.384  11.232  0.6241 -2.2375  0.7907
  140MOL0     H18460   5.220  11.244  11.137 -1.0627 -1.6155  1.6925
  140MOL0     H18461   5.142  11.261  10.973  0.4917 -1.3473  0.0036
  140MOL0     H18462   4.467  12.066  10.959  1.1886  5.4610  1.1188
  140MOL0     H18463   4.216  12.031  10.901 -0.0522  0.6966  0.2680
  140MOL0     H18464   4.014  11.812  10.561  0.7446  1.0771  1.0444
  140MOL0     H18465   3.806  11.689  10.501 -0.4825 -1.2454  3.1021
  140MOL0     H18466   3.792  11.398   9.755 -2.1037 -0.1107  2.6715
  140MOL0     H18467   3.973  11.343   9.878  0.7473 -0.6470 -0.0105
  140MOL0     H18468   4.227  11.204  10.147 -0.2741  1.0250 -3.7152
  140MOL0     H18469   4.435  11.187  10.257  0.1067  1.3810 -0.4813
  140MOL0     H18470   4.791  10.896  10.163 -0.5536  0.8045 -0.1847
  140MOL0     H18471   4.636  10.805  10.213  1.3562 -0.8278 -0.5923
  140MOL0     H18472   4.783  10.975  10.403 -1.0470 -0.5343  1.6940
  140MOL0     H18473   4.682  10.843  10.447  0.8525  1.0497  2.6714
  140MOL0     H18474   4.979  10.850  10.354 -0.7628  1.4722 -0.0059
  140MOL0     H18475   4.891  10.710  10.312 -0.2881 -0.3475 -0.6482
  140MOL0     H18476   4.814  10.693  10.554  0.6473  1.5051  3.3511
  140MOL0     H18477   4.984  10.683  10.527  1.2457 -0.2443  2.4331
  140MOL0     H18478   4.979  11.040  10.748  1.7653 -1.7438  0.5374
  140MOL0     H18479   4.562  10.870  10.003 -1.8048 -1.2682  0.0741
  140MOL0     H18480   4.334  10.879   9.897 -0.6174 -1.1829  0.7110
  141MOL0     O18481   8.663   6.944   4.925  0.4797 -0.3900  0.1216
  141MOL0     C18482   8.582   6.853   4.894  0.0728  0.5882 -0.4384
  141MOL0     O18483   8.474   6.807   4.964  0.0576  1.0960 -0.6792
  141MOL0     C18484   8.455   6.848   5.096  0.4981  0.2272  0.0465
  141MOL0     C18485   8.555   6.904   5.181  0.7511 -0.0271 -0.2055
  141MOL0     C18486   8.526   6.941   5.312  0.2610  0.0513  0.6860
  141MOL0     C18487   8.399   6.918   5.366 -0.2156  0.8441 -0.0157
  141MOL0     O18488   8.350   6.953   5.494  0.1068  0.3398  0.0970
  141MOL0     C18489   8.390   7.079   5.543 -0.1146  0.1091  0.7097
  141MOL0     C18490   8.354   7.197   5.448  0.3869  0.9444  0.1185
  141MOL0     C18491   8.210   7.202   5.403 -0.7916  0.2116  0.3954
  141MOL0     C18492   8.199   7.326   5.299  0.2670  0.0826 -0.1172
  141MOL0     C18493   8.101   7.287   5.180 -0.6416  0.1383  0.5954
  141MOL0     C18494   8.158   7.179   5.085  0.1821  0.0281 -0.6568
  141MOL0     C18495   8.176   7.236   4.952 -0.4791 -0.4241 -0.1049
  141MOL0     C18496   8.269   7.140   4.884 -0.9714 -0.2701 -0.1297
  141MOL0     N18497   8.190   7.043   4.797  0.5465 -0.3726 -0.0093
  141MOL0     C18498   8.141   7.087   4.680  0.1117  0.3895  0.6609
  141MOL0     C18499   8.079   6.977   4.633  0.1199 -0.2133  0.2963
  141MOL0     C18500   7.994   6.992   4.508 -0.5156  0.2718  0.7286
  141MOL0     C18501   8.069   6.953   4.378  0.0391 -0.0363 -0.0223
  141MOL0     C18502   8.151   6.826   4.393 -0.5917  0.1279 -0.5293
  141MOL0     C18503   8.209   6.780   4.261 -0.5075  0.2200 -0.8941
  141MOL0     O18504   8.295   6.878   4.200  0.6610  0.0372 -0.6385
  141MOL0     C18505   8.351   6.836   4.075  0.8687 -0.8444  0.2602
  141MOL0     C18506   8.381   6.708   4.034  0.1157  0.3833 -0.1752
  141MOL0     C18507   8.411   6.682   3.901 -0.1665 -1.0126  0.4383
  141MOL0     C18508   8.431   6.789   3.812 -0.4214  0.3481  0.1122
  141MOL0     C18509   8.457   6.765   3.669 -0.0862 -0.2988  0.5133
  141MOL0     O18510   8.503   6.640   3.639  0.1338  0.3626  0.3752
  141MOL0     C18511   8.522   6.606   3.505  0.4871 -0.4099 -0.0887
  141MOL0     C18512   8.467   6.672   3.385 -0.5985 -0.0364 -0.1958
  141MOL0     C18513   8.499   6.617   3.263 -0.1561 -0.4565  0.7132
  141MOL0     C18514   8.569   6.499   3.240 -1.1908 -0.4093  0.4982
  141MOL0     O18515   8.603   6.448   3.117  0.8573 -0.0188 -0.4646
  141MOL0     C18516   8.568   6.512   2.995  0.6191  0.2163  0.3379
  141MOL0     C18517   8.624   6.436   2.876  0.7736 -0.0337 -0.1422
  141MOL0     C18518   8.553   6.312   2.850 -0.2526  1.0188 -0.4270
  141MOL0     C18519   8.617   6.241   2.730 -0.7243 -0.0277 -0.0394
  141MOL0     C18520   8.526   6.129   2.684 -1.5093 -0.8398  0.2817
  141MOL0     C18521   8.394   6.195   2.605  0.1025  0.3617 -0.6399
  141MOL0     C18522   8.333   6.084   2.511 -0.2810  0.4755  0.4068
  141MOL0     C18523   8.381   6.097   2.365 -0.8550 -0.6940 -0.6514
  141MOL0    Cl18524   8.316   6.262   2.325 -0.4399 -0.0657  0.2662
  141MOL0     C18525   8.614   6.429   3.356  0.5838 -0.0634  0.4005
  141MOL0     C18526   8.600   6.493   3.479 -0.6608  0.1820  0.0790
  141MOL0     O18527   8.441   6.854   3.578  0.2475 -0.2272  0.0601
  141MOL0     C18528   8.423   6.920   3.860  0.1369 -0.5095  0.1347
  141MOL0     C18529   8.389   6.938   3.991  0.3150 -0.1921 -0.8122
  141MOL0     N18530   8.088   6.865   4.724  0.3928 -0.2508  0.6436
  141MOL0     N18531   8.155   6.915   4.822  0.8591  0.2521  1.4834
  141MOL0     C18532   8.298   6.861   5.281 -0.3799 -0.4818 -1.1511
  141MOL0     C18533   8.332   6.816   5.152 -0.0872 -0.6711 -0.0479
  141MOL0     C18534   8.593   6.795   4.758 -0.4006 -0.3275 -0.4966
  141MOL0     C18535   8.486   6.744   4.690  0.9238 -0.1163  0.5084
  141MOL0     C18536   8.492   6.694   4.561 -0.1641  0.3940  0.8988
  141MOL0     C18537   8.619   6.700   4.484 -0.1546 -0.1954  0.0761
  141MOL0     O18538   8.623   6.661   4.354 -0.7663 -0.2561 -0.5948
  141MOL0     C18539   8.693   6.533   4.323 -0.7443  0.4943 -0.6214
  141MOL0     C18540   8.588   6.432   4.271  0.0073  0.8879 -0.7333
  141MOL0     C18541   8.645   6.289   4.242 -1.2076  0.6550  0.5498
  141MOL0     C18542   8.558   6.194   4.166  0.4115 -0.3309 -0.7888
  141MOL0     C18543   8.435   6.182   4.236  1.4302 -0.1190  0.6914
  141MOL0     C18544   8.332   6.144   4.285 -0.1981  0.2804 -0.3924
  141MOL0     C18545   8.726   6.746   4.553  0.5433  0.9854  0.5380
  141MOL0     C18546   8.714   6.797   4.680  0.1812  0.0850 -0.5587
  141MOL0     H18547   8.662   6.919   5.170  0.5100  2.9460  0.5556
  141MOL0     H18548   8.616   6.979   5.361  1.5571 -0.8608 -0.8826
  141MOL0     H18549   8.497   7.093   5.560 -0.1452 -0.1555  1.1405
  141MOL0     H18550   8.333   7.100   5.634 -1.3178  1.0573 -0.2323
  141MOL0     H18551   8.411   7.190   5.355 -3.4932 -0.5578 -2.4127
  141MOL0     H18552   8.379   7.288   5.503 -0.6662 -1.9921  6.3227
  141MOL0     H18553   8.144   7.204   5.490  0.5255 -2.3916  1.5613
  141MOL0     H18554   8.178   7.113   5.348 -3.8061  3.4237 -3.7452
  141MOL0     H18555   8.165   7.415   5.353 -0.8826 -0.9380  0.9046
  141MOL0     H18556   8.293   7.367   5.259  1.7545  0.0268  3.0336
  141MOL0     H18557   8.062   7.370   5.120 -1.6890 -1.5230 -1.1285
  141MOL0     H18558   8.019   7.240   5.235 -0.0900  0.1057  1.4141
  141MOL0     H18559   8.107   7.082   5.080  0.8850 -0.3171 -1.3268
  141MOL0     H18560   8.251   7.148   5.134 -0.8959 -1.3851  0.5923
  141MOL0     H18561   8.088   7.242   4.887 -0.1807  0.3183 -0.4424
  141MOL0     H18562   8.214   7.337   4.966 -3.6336  0.7678  0.4925
  141MOL0     H18563   8.337   7.078   4.943 -1.0590 -0.8913 -0.6620
  141MOL0     H18564   8.317   7.202   4.808 -0.2049 -1.7547 -0.9243
  141MOL0     H18565   8.163   7.181   4.631 -1.6287 -0.0398 -1.1280
  141MOL0     H18566   7.943   7.088   4.499  1.7502  1.4229 -0.8003
  141MOL0     H18567   7.911   6.921   4.506 -0.3257 -0.0195 -2.6016
  141MOL0     H18568   8.136   7.030   4.341 -1.0767  0.1769 -1.6939
  141MOL0     H18569   8.003   6.935   4.293  3.0588 -0.0663 -2.5301
  141MOL0     H18570   8.237   6.842   4.459 -1.6046  2.9764  0.2507
  141MOL0     H18571   8.096   6.744   4.440  0.0466 -0.8155 -1.3831
  141MOL0     H18572   8.123   6.762   4.196 -1.0778 -0.0271 -0.0939
  141MOL0     H18573   8.264   6.688   4.282 -2.8470 -0.4957  3.3073
  141MOL0     H18574   8.386   6.623   4.102  0.2126  3.3993  3.9358
  141MOL0     H18575   8.410   6.578   3.871 -0.6005 -0.3039 -2.3969
  141MOL0     H18576   8.392   6.749   3.392 -0.7355 -0.3039  3.9800
  141MOL0     H18577   8.467   6.678   3.179 -0.0930  0.2983  1.2339
  141MOL0     H18578   8.590   6.620   2.995 -1.8734  0.7712  0.5389
  141MOL0     H18579   8.460   6.507   2.984  0.8292 -0.9477 -1.6021
  141MOL0     H18580   8.730   6.411   2.892  0.3027 -1.1558  1.5862
  141MOL0     H18581   8.615   6.501   2.789 -2.2855  0.4199  0.3929
  141MOL0     H18582   8.448   6.320   2.822 -0.3891 -0.8117 -0.5670
  141MOL0     H18583   8.571   6.243   2.933  0.0074 -0.5216 -1.7071
  141MOL0     H18584   8.619   6.311   2.646  1.4586  0.7586  0.6251
  141MOL0     H18585   8.716   6.205   2.758 -2.0452 -2.6434  1.7524
  141MOL0     H18586   8.500   6.057   2.762 -2.2760 -0.6548  0.2090
  141MOL0     H18587   8.574   6.055   2.619 -1.3758 -0.7078  0.2298
  141MOL0     H18588   8.434   6.283   2.554  2.0090  0.5097  1.0086
  141MOL0     H18589   8.314   6.241   2.665 -0.6183 -2.8651  1.1358
  141MOL0     H18590   8.364   5.985   2.544  0.5351  0.7177  0.3728
  141MOL0     H18591   8.223   6.081   2.507 -0.3513  2.2140  0.0863
  141MOL0     H18592   8.321   6.032   2.302 -2.2159 -0.5229  0.4124
  141MOL0     H18593   8.488   6.077   2.354 -0.1478  0.9183  2.1579
  141MOL0     H18594   8.665   6.337   3.332 -0.7863 -0.4186 -1.3703
  141MOL0     H18595   8.647   6.427   3.552 -0.1588  0.3747 -0.0608
  141MOL0     H18596   8.453   6.999   3.792 -1.1477  0.1267  0.2856
  141MOL0     H18597   8.386   7.041   4.026 -2.0534  0.6894 -3.2375
  141MOL0     H18598   8.201   6.851   5.328 -0.0946  3.1027  0.4787
  141MOL0     H18599   8.259   6.766   5.090  0.3036 -0.4947 -0.6603
  141MOL0     H18600   8.388   6.742   4.736  1.4251  0.6500  1.6681
  141MOL0     H18601   8.397   6.672   4.513  1.9133  2.5872 -5.3645
  141MOL0     H18602   8.745   6.493   4.411  1.1921  0.2243 -1.8423
  141MOL0     H18603   8.766   6.549   4.244  1.0638 -2.2070  0.3607
  141MOL0     H18604   8.504   6.413   4.338  0.6976  2.4213  0.6270
  141MOL0     H18605   8.544   6.482   4.184 -2.5554 -0.3275 -0.2106
  141MOL0     H18606   8.675   6.234   4.332 -0.1214 -0.2014 -0.3005
  141MOL0     H18607   8.736   6.305   4.183 -1.0102 -1.8458  0.0760
  141MOL0     H18608   8.532   6.235   4.068  1.3096 -1.0494 -1.3500
  141MOL0     H18609   8.610   6.098   4.161  0.5178 -0.4514  1.7216
  141MOL0     H18610   8.237   6.118   4.327 -0.2020 -0.5811 -0.9080
  141MOL0     H18611   8.818   6.747   4.496  0.6889  2.5881  0.7438
  141MOL0     H18612   8.801   6.841   4.727 -0.4131 -1.5998  2.3824
  142MOL0     O18613   8.358   2.847   6.012  0.7335 -0.1994  0.2510
  142MOL0     C18614   8.342   2.964   6.053 -1.1265  1.2154  0.7302
  142MOL0     O18615   8.444   3.036   6.106  0.7764 -0.3599  0.4649
  142MOL0     C18616   8.571   2.977   6.113 -0.2246  0.2315 -0.0518
  142MOL0     C18617   8.631   2.908   6.010 -0.2157 -0.7278  0.8838
  142MOL0     C18618   8.773   2.894   6.016 -0.5523 -0.0556 -0.2941
  142MOL0     C18619   8.851   2.943   6.113  0.0936 -0.6031 -1.2040
  142MOL0     O18620   8.988   2.930   6.087 -0.1247  0.4214  0.4347
  142MOL0     C18621   9.083   2.987   6.165  0.4535 -0.7405 -0.7679
  142MOL0     C18622   9.216   2.969   6.099  1.0599  0.0944  0.6746
  142MOL0     C18623   9.338   3.014   6.181 -1.1686  0.0363  0.1366
  142MOL0     C18624   9.464   3.005   6.103 -0.9744  0.3177 -0.0336
  142MOL0     C18625   9.583   2.940   6.168  0.6212  0.0660  0.4926
  142MOL0     C18626   9.629   2.998   6.305 -0.7253  0.6348 -0.3113
  142MOL0     C18627   9.603   3.144   6.325 -0.2252 -0.4348  0.7779
  142MOL0     C18628   9.725   3.187   6.394 -1.0161  0.0306  0.7459
  142MOL0     N18629   9.733   3.331   6.399  0.2779  0.0963 -0.0908
  142MOL0     C18630   9.766   3.420   6.304 -0.0241 -0.7930  0.4996
  142MOL0     C18631   9.790   3.540   6.372  0.2049 -0.3734 -0.2511
  142MOL0     C18632   9.838   3.657   6.300 -0.5044 -0.4347 -0.3888
  142MOL0     C18633   9.992   3.677   6.305 -0.1310 -0.5897  0.7699
  142MOL0     C18634  10.073   3.601   6.189  0.5197 -0.2101 -0.0481
  142MOL0     C18635  10.231   3.609   6.215  0.1568 -0.5937  0.1923
  142MOL0     O18636  10.285   3.743   6.213  0.9441 -0.1953  0.1367
  142MOL0     C18637  10.414   3.755   6.184 -0.0823  0.1656 -0.1428
  142MOL0     C18638  10.508   3.649   6.181 -0.4708 -0.6652 -0.2592
  142MOL0     C18639  10.640   3.679   6.150  0.9334  0.4854  0.1810
  142MOL0     C18640  10.679   3.814   6.130  0.5144  0.1680 -0.6152
  142MOL0     C18641  10.820   3.831   6.107 -0.5356 -0.0583  0.4285
  142MOL0     O18642  10.878   3.941   6.163  0.7437 -0.0092 -0.3839
  142MOL0     C18643  11.001   3.987   6.118  0.3593 -0.1719 -0.1611
  142MOL0     C18644  11.112   3.913   6.161  0.3994  0.0518  0.1534
  142MOL0     C18645  11.234   3.949   6.130 -0.3067 -0.3029 -0.0374
  142MOL0     C18646  11.254   4.066   6.053  0.0242  0.7677  0.2036
  142MOL0     O18647  11.377   4.123   6.023  0.2022 -0.6704  0.1270
  142MOL0     C18648  11.498   4.058   6.080  0.0210  0.3820 -0.2892
  142MOL0     C18649  11.603   4.164   6.064 -0.5922 -0.0955  0.1441
  142MOL0     C18650  11.747   4.107   6.096 -1.2981  0.2969  0.0818
  142MOL0     C18651  11.853   4.210   6.055 -0.5928 -0.3240 -0.1785
  142MOL0     C18652  11.990   4.154   6.066 -1.1696 -0.1355 -0.1693
  142MOL0     C18653  12.102   4.242   6.011  0.8275 -0.3258 -0.1134
  142MOL0     C18654  12.101   4.255   5.861 -0.5070 -0.6991 -0.0653
  142MOL0     C18655  12.199   4.360   5.817  0.1058 -0.8370  0.0078
  142MOL0    Cl18656  12.264   4.302   5.660 -0.3583 -0.0002 -0.1742
  142MOL0     C18657  11.147   4.121   5.992  0.2885  0.1694  0.1333
  142MOL0     C18658  11.016   4.089   6.026 -0.1590 -0.4388 -0.2590
  142MOL0     O18659  10.882   3.750   6.038 -0.1157  0.0541  0.1934
  142MOL0     C18660  10.587   3.919   6.135 -0.4628  0.6106  0.7156
  142MOL0     C18661  10.457   3.889   6.164 -0.3853  0.3701 -0.3369
  142MOL0     N18662   9.767   3.518   6.505 -0.2938  0.0097 -0.0591
  142MOL0     N18663   9.726   3.396   6.529 -0.4364  0.7186  0.0703
  142MOL0     C18664   8.791   3.006   6.225 -0.3683 -0.1690 -0.0426
  142MOL0     C18665   8.652   3.027   6.220  0.4443  0.7336 -0.1781
  142MOL0     C18666   8.208   3.022   6.043  1.1153  0.0441  0.3443
  142MOL0     C18667   8.190   3.157   6.068  1.2428 -0.4543  0.2603
  142MOL0     C18668   8.061   3.217   6.047 -1.1679  0.0543 -0.0956
  142MOL0     C18669   7.947   3.138   6.015 -0.3272 -0.6604 -0.9027
  142MOL0     O18670   7.817   3.192   6.008  1.0636 -0.3292 -0.4214
  142MOL0     C18671   7.782   3.331   6.015 -0.5800 -0.0535  0.9967
  142MOL0     C18672   7.663   3.361   5.926 -0.2501 -0.3795 -0.1703
  142MOL0     C18673   7.692   3.336   5.782 -0.2010 -0.0098  1.0390
  142MOL0     C18674   7.576   3.381   5.695 -0.1121 -0.2497 -0.4746
  142MOL0     C18675   7.449   3.317   5.710 -0.2635  0.2970  0.2714
  142MOL0     C18676   7.354   3.252   5.735  0.1184  0.4715 -0.4744
  142MOL0     C18677   7.968   3.005   5.990 -0.6679 -0.3894 -0.2685
  142MOL0     C18678   8.092   2.946   6.012 -0.6461  0.5195  0.4842
  142MOL0     H18679   8.589   2.876   5.915  2.2498 -1.8991  0.1274
  142MOL0     H18680   8.819   2.838   5.935  1.3824  0.5371  0.3243
  142MOL0     H18681   9.087   2.919   6.250 -0.8280  0.8302  0.6367
  142MOL0     H18682   9.059   3.091   6.191  0.4737 -0.2904 -2.3981
  142MOL0     H18683   9.220   3.025   6.005  0.5547  0.0407  0.6170
  142MOL0     H18684   9.225   2.864   6.072  3.1956  1.1291 -3.6094
  142MOL0     H18685   9.334   2.956   6.274 -0.7611 -2.3078 -1.2462
  142MOL0     H18686   9.333   3.119   6.213  0.8316 -0.5095  2.5760
  142MOL0     H18687   9.453   2.943   6.013  0.5744  1.9704 -1.4334
  142MOL0     H18688   9.485   3.105   6.064 -0.4040 -0.7579 -2.7085
  142MOL0     H18689   9.664   2.948   6.095  0.3376 -0.3823  0.1249
  142MOL0     H18690   9.557   2.835   6.186  5.0169 -1.2833  0.1160
  142MOL0     H18691   9.734   2.972   6.318 -0.3058  0.0456 -3.8316
  142MOL0     H18692   9.571   2.944   6.381 -1.4602  0.2119 -1.1437
  142MOL0     H18693   9.596   3.201   6.231  3.2479 -0.8254  0.1463
  142MOL0     H18694   9.516   3.159   6.389 -0.1920  0.5615  0.6092
  142MOL0     H18695   9.817   3.149   6.347 -0.2672 -1.9616  3.5640
  142MOL0     H18696   9.740   3.154   6.497  2.3650  4.0221  1.7952
  142MOL0     H18697   9.772   3.426   6.196  0.8238  2.2736  0.6217
  142MOL0     H18698   9.788   3.739   6.353  2.0141  0.4092  0.8350
  142MOL0     H18699   9.800   3.659   6.197 -0.3611 -0.8629 -0.4520
  142MOL0     H18700  10.028   3.631   6.397 -1.5339 -0.4562  1.4145
  142MOL0     H18701  10.012   3.784   6.308  1.8157 -0.7155 -2.7205
  142MOL0     H18702  10.045   3.497   6.168  0.7686  0.0761 -1.9261
  142MOL0     H18703  10.049   3.651   6.095 -0.6640 -2.2928 -0.9260
  142MOL0     H18704  10.277   3.557   6.131  0.6124 -1.0998  0.7454
  142MOL0     H18705  10.246   3.549   6.305 -2.5737 -3.5633 -1.1447
  142MOL0     H18706  10.486   3.549   6.216 -2.1068  0.4842  2.2983
  142MOL0     H18707  10.717   3.603   6.144  0.6192  0.2084 -0.3556
  142MOL0     H18708  11.086   3.833   6.230 -0.3587 -0.4102 -0.6634
  142MOL0     H18709  11.315   3.891   6.171  1.2836  1.6194 -0.3310
  142MOL0     H18710  11.517   3.969   6.019 -1.0442 -0.6002  0.7756
  142MOL0     H18711  11.483   4.036   6.186 -2.5385 -2.4202 -1.1038
  142MOL0     H18712  11.590   4.255   6.125  0.9594  1.6156 -1.9575
  142MOL0     H18713  11.600   4.193   5.959  2.0410 -0.3598 -0.0551
  142MOL0     H18714  11.779   4.014   6.047 -2.9363 -0.3718  0.2347
  142MOL0     H18715  11.753   4.086   6.203  3.2188  0.4594  0.0518
  142MOL0     H18716  11.834   4.243   5.953 -0.0258 -1.9276 -0.8234
  142MOL0     H18717  11.846   4.293   6.127 -0.5571  0.0787 -0.6326
  142MOL0     H18718  12.005   4.052   6.029  1.1101 -1.6052  4.0592
  142MOL0     H18719  12.006   4.147   6.174  1.2732  2.0092 -0.3134
  142MOL0     H18720  12.201   4.211   6.046  0.8954  0.7696  0.6826
  142MOL0     H18721  12.073   4.341   6.047 -5.2942 -0.8293 -2.4465
  142MOL0     H18722  12.136   4.158   5.824 -2.5890 -0.1105 -4.1616
  142MOL0     H18723  12.004   4.273   5.814  0.2100 -0.0807 -1.3643
  142MOL0     H18724  12.287   4.362   5.881 -0.5748 -1.5619  0.9908
  142MOL0     H18725  12.164   4.463   5.811  0.7132 -0.5981  0.4526
  142MOL0     H18726  11.163   4.193   5.912  1.0346 -2.7749 -2.6180
  142MOL0     H18727  10.941   4.136   5.963  1.1751 -0.0937 -1.6566
  142MOL0     H18728  10.615   4.024   6.126 -2.9932  1.4226  1.5163
  142MOL0     H18729  10.394   3.974   6.188  0.1930  0.4162  1.1299
  142MOL0     H18730   8.858   3.040   6.303  1.4452 -1.4288 -0.9772
  142MOL0     H18731   8.603   3.087   6.296  2.2173  0.0535  1.6028
  142MOL0     H18732   8.282   3.207   6.099  1.4312 -1.1087  0.7877
  142MOL0     H18733   8.040   3.322   6.061 -0.3037  0.2166  0.0109
  142MOL0     H18734   7.869   3.390   5.985 -0.1446 -0.7100  0.9655
  142MOL0     H18735   7.770   3.349   6.122  1.9034  1.0649  1.1443
  142MOL0     H18736   7.575   3.302   5.953 -0.5748  0.5520  0.8912
  142MOL0     H18737   7.629   3.463   5.949 -0.4073 -0.5620  0.4305
  142MOL0     H18738   7.707   3.229   5.767 -1.7478 -0.0595 -0.4086
  142MOL0     H18739   7.785   3.392   5.769 -0.0698 -0.5136 -0.4290
  142MOL0     H18740   7.555   3.485   5.721 -2.9754 -0.7688 -0.3784
  142MOL0     H18741   7.598   3.383   5.588  1.8162  1.2151 -0.0946
  142MOL0     H18742   7.260   3.214   5.768 -1.8881  2.0010 -3.9266
  142MOL0     H18743   7.875   2.956   5.965 -1.4718  0.5923  0.7268
  142MOL0     H18744   8.105   2.840   5.993  6.0102  1.0401  0.0113
  143MOL0     O18745   6.458   5.727   9.546 -0.7953 -0.2504  0.4021
  143MOL0     C18746   6.406   5.653   9.463  0.1950  1.6194  0.6045
  143MOL0     O18747   6.270   5.627   9.450  1.0262 -0.5372  0.3800
  143MOL0     C18748   6.171   5.701   9.520 -0.2431 -0.7087 -0.2299
  143MOL0     C18749   6.181   5.734   9.653  0.3383  0.0575  0.0686
  143MOL0     C18750   6.075   5.805   9.717 -0.2181 -0.2444  0.6907
  143MOL0     C18751   5.964   5.848   9.642  0.6887  0.2808  0.2418
  143MOL0     O18752   5.857   5.923   9.684 -0.3412 -0.2742  0.1986
  143MOL0     C18753   5.852   5.959   9.822  0.3927 -0.3558  0.4731
  143MOL0     C18754   5.722   6.032   9.850  0.0917 -1.0110 -1.0901
  143MOL0     C18755   5.713   6.071   9.991  0.5538 -0.3776  0.3247
  143MOL0     C18756   5.584   6.126  10.051 -0.4426 -0.4233  0.0544
  143MOL0     C18757   5.497   6.216   9.966  1.4053  0.1151  1.2125
  143MOL0     C18758   5.405   6.315  10.044 -0.1105 -0.5248  0.3722
  143MOL0     C18759   5.301   6.378   9.954 -0.3660  0.2357  0.2016
  143MOL0     C18760   5.193   6.462  10.023  0.1490  0.4121  0.3269
  143MOL0     N18761   5.096   6.493   9.920  0.0049 -0.4168 -0.0229
  143MOL0     C18762   5.105   6.598   9.830  0.1187 -0.5880  0.1281
  143MOL0     C18763   4.997   6.574   9.741  0.1775 -0.6226 -0.1130
  143MOL0     C18764   4.964   6.659   9.626 -0.2102 -0.6230  0.4163
  143MOL0     C18765   4.817   6.689   9.616  0.3801 -0.3919  0.2869
  143MOL0     C18766   4.789   6.779   9.499 -0.2733  0.4097  0.1010
  143MOL0     C18767   4.637   6.831   9.496 -0.7518 -0.7851  0.4289
  143MOL0     O18768   4.615   6.943   9.582  0.2010  0.0466  0.0316
  143MOL0     C18769   4.488   6.984   9.597  0.0091 -0.6993 -0.0173
  143MOL0     C18770   4.406   7.026   9.487 -0.1653 -0.5579  0.2545
  143MOL0     C18771   4.267   7.058   9.499 -0.4817  0.3858 -0.5633
  143MOL0     C18772   4.209   7.047   9.628 -0.6613  0.4043  0.1019
  143MOL0     C18773   4.077   7.097   9.654 -0.2772 -1.2436 -0.2511
  143MOL0     O18774   4.026   7.183   9.561 -0.2067  0.7425  0.8497
  143MOL0     C18775   3.904   7.239   9.576 -0.2899 -0.6297  0.6624
  143MOL0     C18776   3.849   7.301   9.465  0.9955  0.9444 -0.0771
  143MOL0     C18777   3.720   7.356   9.452  0.0349  0.1990 -0.5693
  143MOL0     C18778   3.637   7.352   9.564 -0.1946 -0.0914  0.0190
  143MOL0     O18779   3.505   7.389   9.558 -0.5695 -0.1697 -0.2662
  143MOL0     C18780   3.433   7.436   9.443 -0.3059 -0.0795 -0.2960
  143MOL0     C18781   3.396   7.321   9.345 -0.0350 -0.3689  0.3383
  143MOL0     C18782   3.258   7.349   9.285  0.4946 -0.6693 -0.2045
  143MOL0     C18783   3.223   7.224   9.203 -1.1256  0.9064  0.2657
  143MOL0     C18784   3.095   7.238   9.135  0.2900 -0.5402  0.3062
  143MOL0     C18785   3.066   7.136   9.021 -0.0165 -0.1707  0.5038
  143MOL0     C18786   2.942   7.174   8.939 -0.3526 -0.4308 -0.0163
  143MOL0     C18787   2.899   7.064   8.835 -1.0184  0.6016  0.2536
  143MOL0    Cl18788   2.778   7.135   8.742 -0.3242 -0.7233  0.2434
  143MOL0     C18789   3.688   7.291   9.684  0.2877 -0.8433  0.1222
  143MOL0     C18790   3.815   7.235   9.685  0.9196  0.6728  0.2141
  143MOL0     O18791   4.025   7.050   9.753 -0.1899  0.1975  0.5142
  143MOL0     C18792   4.296   7.006   9.734 -0.0807  0.2897  0.5751
  143MOL0     C18793   4.425   6.972   9.724  0.1370 -0.0707 -0.1350
  143MOL0     N18794   4.935   6.455   9.776 -0.6545 -0.3949 -0.8793
  143MOL0     N18795   4.995   6.405   9.879  0.1085 -0.1043  0.6835
  143MOL0     C18796   5.956   5.812   9.504  0.3673  0.4428 -0.4837
  143MOL0     C18797   6.060   5.742   9.443  0.2360 -0.2046  0.3304
  143MOL0     C18798   6.493   5.548   9.411  0.7006 -0.2417 -0.1598
  143MOL0     C18799   6.568   5.467   9.496 -1.0042  0.8028 -0.1416
  143MOL0     C18800   6.627   5.361   9.440 -0.0154  0.4840  0.1061
  143MOL0     C18801   6.633   5.335   9.312 -0.0711 -0.6115 -0.6875
  143MOL0     O18802   6.685   5.229   9.253  0.0265  0.1761 -0.2157
  143MOL0     C18803   6.810   5.173   9.308  0.3779 -0.1340  0.4391
  143MOL0     C18804   6.922   5.276   9.316  0.1428 -0.0685  0.4029
  143MOL0     C18805   6.949   5.328   9.449 -0.3061  0.5870  0.1623
  143MOL0     C18806   7.062   5.430   9.456  0.9887 -0.2552  0.1605
  143MOL0     C18807   7.196   5.373   9.436 -0.4101 -0.4605 -0.6507
  143MOL0     C18808   7.308   5.329   9.414  0.8450 -0.2491 -0.9013
  143MOL0     C18809   6.563   5.423   9.227 -0.1784 -0.0970  0.2858
  143MOL0     C18810   6.482   5.520   9.276 -0.1197  0.6748  0.1094
  143MOL0     H18811   6.268   5.701   9.709 -0.8049 -0.5436  1.5563
  143MOL0     H18812   6.100   5.823   9.821  0.2535  0.2191  0.5025
  143MOL0     H18813   5.927   6.037   9.837 -1.0194  1.8295 -2.6629
  143MOL0     H18814   5.856   5.875   9.893 -3.4128 -2.4940 -1.4991
  143MOL0     H18815   5.640   5.964   9.822 -0.1952 -1.3047  0.3787
  143MOL0     H18816   5.706   6.113   9.779  0.8635 -1.8023 -2.2033
  143MOL0     H18817   5.777   6.160   9.986 -1.3236  1.1342  1.6829
  143MOL0     H18818   5.761   6.001  10.061  2.9197 -1.8050 -2.5042
  143MOL0     H18819   5.517   6.047  10.086  2.3965 -1.9851  2.3814
  143MOL0     H18820   5.605   6.189  10.138  0.7532  1.5939 -1.6034
  143MOL0     H18821   5.431   6.146   9.915  1.0680 -0.9029  2.9857
  143MOL0     H18822   5.559   6.267   9.891  0.7429 -1.3034 -0.3425
  143MOL0     H18823   5.465   6.395  10.089 -0.2564 -0.7073  0.9004
  143MOL0     H18824   5.364   6.267  10.133 -0.0504  1.7650  1.7165
  143MOL0     H18825   5.349   6.424   9.868 -0.0731 -0.5653 -0.0736
  143MOL0     H18826   5.241   6.300   9.906 -1.8444 -0.6270  3.2128
  143MOL0     H18827   5.238   6.545  10.079 -0.8515  1.9500 -1.0553
  143MOL0     H18828   5.143   6.394  10.092 -1.0015  0.8165 -0.0958
  143MOL0     H18829   5.166   6.688   9.838  0.2598 -0.3425 -2.6168
  143MOL0     H18830   5.005   6.613   9.536  2.1288  0.0006  1.1036
  143MOL0     H18831   5.027   6.747   9.638  1.7001 -1.8772  0.0292
  143MOL0     H18832   4.813   6.746   9.709  0.8504  0.1566 -0.0212
  143MOL0     H18833   4.752   6.602   9.605 -0.4014  0.3323 -1.1172
  143MOL0     H18834   4.852   6.869   9.492  2.9408 -1.6812  0.3451
  143MOL0     H18835   4.802   6.724   9.405  0.6161  0.3970  0.2222
  143MOL0     H18836   4.574   6.747   9.525 -0.4763 -1.0997  0.1133
  143MOL0     H18837   4.612   6.864   9.395  3.2894 -1.0484 -0.8382
  143MOL0     H18838   4.444   7.044   9.387 -3.5063  1.0741 -0.8823
  143MOL0     H18839   4.208   7.081   9.411 -1.9445  0.8044  0.4921
  143MOL0     H18840   3.918   7.314   9.382  1.3636 -0.9033 -0.1056
  143MOL0     H18841   3.684   7.397   9.359 -1.1945 -1.7098 -0.9897
  143MOL0     H18842   3.500   7.505   9.391  2.0179 -1.7244  0.3253
  143MOL0     H18843   3.343   7.485   9.481  1.6959  1.0248  3.5027
  143MOL0     H18844   3.382   7.232   9.407 -1.1715 -1.7063 -1.7143
  143MOL0     H18845   3.460   7.300   9.259 -0.6019  0.3976 -0.2934
  143MOL0     H18846   3.256   7.435   9.219  3.1128 -1.1698 -1.0446
  143MOL0     H18847   3.187   7.374   9.366  0.9228  0.4022 -0.1476
  143MOL0     H18848   3.297   7.195   9.129  0.6314  1.2537  1.8204
  143MOL0     H18849   3.211   7.150   9.283 -2.1867 -1.2648 -1.7683
  143MOL0     H18850   3.104   7.343   9.107  2.7910 -0.4414  1.1984
  143MOL0     H18851   3.009   7.231   9.203  0.2349  2.1969  0.6372
  143MOL0     H18852   3.048   7.036   9.061 -3.8560  0.3301  0.3560
  143MOL0     H18853   3.150   7.127   8.951  0.2198 -3.4625  1.0658
  143MOL0     H18854   2.859   7.201   9.005  1.8852  3.1916  1.6533
  143MOL0     H18855   2.960   7.270   8.889 -0.4561 -0.1525  0.4659
  143MOL0     H18856   2.846   6.987   8.891 -1.6590  0.7966 -0.0817
  143MOL0     H18857   2.977   7.018   8.774 -0.1812  2.3136 -0.0083
  143MOL0     H18858   3.628   7.273   9.772  1.7301 -1.7455  0.9630
  143MOL0     H18859   3.831   7.192   9.784 -1.8899 -2.4003 -0.4940
  143MOL0     H18860   4.262   6.987   9.835  2.3959 -0.0682  1.3960
  143MOL0     H18861   4.480   6.916   9.799 -0.4235 -0.5954 -0.1129
  143MOL0     H18862   5.865   5.835   9.450 -0.0023  2.1491  0.7646
  143MOL0     H18863   6.052   5.698   9.344 -0.6079  0.0784  0.2600
  143MOL0     H18864   6.582   5.473   9.603  2.0226 -0.2350 -0.3932
  143MOL0     H18865   6.669   5.286   9.505 -2.0802 -0.9123 -0.0676
  143MOL0     H18866   6.829   5.089   9.241 -1.3988  0.3681 -0.7639
  143MOL0     H18867   6.791   5.114   9.398  0.3495 -0.1841  0.4004
  143MOL0     H18868   7.014   5.225   9.287  0.4059  0.0612  0.9962
  143MOL0     H18869   6.908   5.357   9.244  0.2157  0.1302  0.6106
  143MOL0     H18870   6.983   5.240   9.504  1.9056  0.1429 -1.7582
  143MOL0     H18871   6.867   5.385   9.493 -0.7325 -0.2747  0.4965
  143MOL0     H18872   7.031   5.513   9.391 -2.8746 -1.6051  0.0362
  143MOL0     H18873   7.050   5.477   9.555 -1.2727  1.0459 -0.6674
  143MOL0     H18874   7.405   5.297   9.379  1.0529 -0.0122 -0.5510
  143MOL0     H18875   6.558   5.406   9.120  1.0553  0.1649  0.1734
  143MOL0     H18876   6.422   5.583   9.212 -1.0525  3.1852  3.2164
  144MOL0     O18877   3.896   7.286   0.408  0.4627 -0.4589 -0.0396
  144MOL0     C18878   3.901   7.223   0.515  0.1137 -0.2107  0.2268
  144MOL0     O18879   3.917   7.274   0.635 -0.2824  0.1132  0.1305
  144MOL0     C18880   3.947   7.406   0.637 -0.3465 -0.1944 -0.4737
  144MOL0     C18881   3.901   7.488   0.739  1.1984 -1.0078  0.5605
  144MOL0     C18882   3.936   7.628   0.748 -0.0356  0.5029 -0.3686
  144MOL0     C18883   4.019   7.688   0.649 -0.1340 -0.3206  0.3123
  144MOL0     O18884   4.058   7.817   0.645  0.2468 -0.4625  0.0307
  144MOL0     C18885   3.988   7.920   0.717  0.5572 -0.6081  0.3158
  144MOL0     C18886   4.014   8.056   0.653  0.9892  0.3131 -0.3028
  144MOL0     C18887   4.157   8.106   0.661 -0.0006  0.7891 -0.9869
  144MOL0     C18888   4.176   8.236   0.579 -0.0831  1.1952 -0.5352
  144MOL0     C18889   4.320   8.246   0.545 -0.6176 -0.9945 -0.2663
  144MOL0     C18890   4.366   8.168   0.423 -0.6243  0.1217  0.2127
  144MOL0     C18891   4.502   8.125   0.436 -0.2281 -0.6120  0.0720
  144MOL0     C18892   4.548   8.012   0.528  0.1666  0.6266  0.0604
  144MOL0     N18893   4.503   7.880   0.464 -0.3522  0.6207  0.1223
  144MOL0     C18894   4.578   7.815   0.370 -0.2085 -0.3469 -0.1723
  144MOL0     C18895   4.512   7.707   0.329  0.5312 -1.2100 -0.1225
  144MOL0     C18896   4.546   7.629   0.209  0.1080  0.1935  0.2787
  144MOL0     C18897   4.568   7.477   0.231  0.5740 -0.4329 -0.2273
  144MOL0     C18898   4.592   7.397   0.101 -0.5375 -0.4214 -0.7340
  144MOL0     C18899   4.605   7.250   0.142  0.1508  0.0768 -0.8446
  144MOL0     O18900   4.484   7.198   0.196  0.6742  0.2010  0.8851
  144MOL0     C18901   4.464   7.061   0.187  0.5625 -0.3985  0.2574
  144MOL0     C18902   4.550   6.957   0.139  0.4352 -0.6929 -0.5810
  144MOL0     C18903   4.515   6.823   0.173  0.2841  1.0530 -0.0441
  144MOL0     C18904   4.402   6.793   0.247 -0.8701  0.4438 -0.3327
  144MOL0     C18905   4.358   6.655   0.274  0.5623 -0.0463 -0.1637
  144MOL0     O18906   4.269   6.630   0.373  1.1693  0.0179  0.6674
  144MOL0     C18907   4.220   6.503   0.384  0.3144  0.3452  0.0041
  144MOL0     C18908   4.272   6.423   0.489  0.6954  0.6622 -0.7185
  144MOL0     C18909   4.232   6.295   0.499  0.6356  0.5166 -0.9819
  144MOL0     C18910   4.129   6.244   0.418  0.1237  0.3292 -0.2418
  144MOL0     O18911   4.072   6.123   0.417  0.0460  0.7613 -0.1186
  144MOL0     C18912   4.093   6.036   0.527  1.0903  0.0988 -0.1918
  144MOL0     C18913   3.984   5.922   0.515  0.1325  0.1976 -0.6942
  144MOL0     C18914   4.015   5.824   0.403  0.3040 -1.2636  0.1922
  144MOL0     C18915   3.921   5.707   0.406 -1.0098 -0.6425 -0.5416
  144MOL0     C18916   3.932   5.621   0.277  0.0293 -0.2563  0.2312
  144MOL0     C18917   3.928   5.686   0.136  0.4672 -0.4844 -0.1233
  144MOL0     C18918   3.924   5.571   0.029  0.4980 -0.1461  0.3941
  144MOL0     C18919   3.879   5.627  -0.107  0.5154  0.6881 -0.6661
  144MOL0    Cl18920   3.986   5.762  -0.166 -0.6593 -0.0884  0.5716
  144MOL0     C18921   4.085   6.326   0.314  0.0996  0.1414  0.7839
  144MOL0     C18922   4.128   6.457   0.294  0.0134  0.2485 -0.0012
  144MOL0     O18923   4.411   6.575   0.199  0.5978 -0.2220 -0.9051
  144MOL0     C18924   4.325   6.896   0.296 -0.0493 -0.0447  0.2598
  144MOL0     C18925   4.356   7.025   0.275 -0.9991 -0.0916 -0.6735
  144MOL0     N18926   4.393   7.703   0.397  0.2858  0.0225 -0.7367
  144MOL0     N18927   4.394   7.795   0.484 -0.0219 -0.1752 -0.4104
  144MOL0     C18928   4.085   7.596   0.562  0.2156  0.2971 -0.4608
  144MOL0     C18929   4.054   7.455   0.565 -0.0772  0.3683 -0.1158
  144MOL0     C18930   3.862   7.080   0.500 -1.2108  0.5258 -0.3412
  144MOL0     C18931   3.874   7.014   0.375 -0.1998  0.4077 -0.4263
  144MOL0     C18932   3.847   6.880   0.360  0.7964  0.7570 -0.3950
  144MOL0     C18933   3.814   6.804   0.473  0.1744  0.9910 -0.8933
  144MOL0     O18934   3.794   6.671   0.454 -0.4272 -0.0521 -0.5331
  144MOL0     C18935   3.756   6.568   0.560  0.2098  0.0135 -0.3078
  144MOL0     C18936   3.721   6.435   0.502  0.0256  0.4700 -0.0708
  144MOL0     C18937   3.769   6.310   0.585 -0.1130 -1.0696 -0.2778
  144MOL0     C18938   3.691   6.286   0.710 -0.3562 -0.4177 -0.8650
  144MOL0     C18939   3.734   6.158   0.770 -0.2103 -0.7225  1.0566
  144MOL0     C18940   3.763   6.047   0.815  0.3722 -0.3886  0.5997
  144MOL0     C18941   3.812   6.871   0.602 -0.2451 -0.8637 -0.7623
  144MOL0     C18942   3.838   7.008   0.618  0.5317  0.0303  0.0736
  144MOL0     H18943   3.826   7.463   0.812  1.4281  0.0321  1.1629
  144MOL0     H18944   3.901   7.690   0.830 -0.0723 -1.2880  1.0246
  144MOL0     H18945   4.025   7.907   0.819  0.7751 -2.7109  0.0155
  144MOL0     H18946   3.880   7.904   0.720  0.4463  0.2308  2.1886
  144MOL0     H18947   3.936   8.124   0.687  1.7944 -0.9938  5.0864
  144MOL0     H18948   3.999   8.033   0.547 -2.8176 -0.2101  0.2186
  144MOL0     H18949   4.216   8.024   0.618  0.2673  0.2820  0.3162
  144MOL0     H18950   4.180   8.118   0.767 -3.8297 -0.5759  0.1689
  144MOL0     H18951   4.118   8.247   0.487 -0.9709 -0.3725 -0.2039
  144MOL0     H18952   4.148   8.313   0.651  0.1696  1.6617 -0.9343
  144MOL0     H18953   4.376   8.231   0.638 -3.4341  2.1362  2.1908
  144MOL0     H18954   4.346   8.351   0.532  2.5450 -1.5421  0.7034
  144MOL0     H18955   4.360   8.242   0.343  0.7137  2.3442  2.0307
  144MOL0     H18956   4.301   8.083   0.400  1.1548 -1.2388 -0.0227
  144MOL0     H18957   4.528   8.096   0.333 -1.4393 -0.8303 -0.1886
  144MOL0     H18958   4.569   8.209   0.456  1.2063 -1.5584 -0.5567
  144MOL0     H18959   4.510   8.017   0.630 -0.5257  0.7165 -0.1905
  144MOL0     H18960   4.657   8.014   0.529  0.3777 -2.5961 -1.1471
  144MOL0     H18961   4.669   7.853   0.325 -0.5579 -0.0131 -0.6045
  144MOL0     H18962   4.640   7.671   0.174  0.4412 -0.5464  0.2754
  144MOL0     H18963   4.462   7.628   0.139 -1.7595 -1.8921  2.3788
  144MOL0     H18964   4.479   7.441   0.283 -0.9344 -0.8082 -2.8872
  144MOL0     H18965   4.660   7.474   0.290 -0.1961 -1.7482  0.9534
  144MOL0     H18966   4.519   7.408   0.021 -1.3912 -0.3239  0.0363
  144MOL0     H18967   4.684   7.439   0.061  0.2975 -0.3064  1.1871
  144MOL0     H18968   4.685   7.239   0.216 -0.0673  1.7334 -0.3298
  144MOL0     H18969   4.639   7.184   0.061  1.4859  3.3998 -3.2016
  144MOL0     H18970   4.637   6.988   0.081  2.0343  1.5159  2.6767
  144MOL0     H18971   4.572   6.746   0.122  0.7601  1.7021 -0.5256
  144MOL0     H18972   4.352   6.469   0.547  1.6392 -0.7956 -0.8163
  144MOL0     H18973   4.266   6.230   0.579 -0.3003 -2.0453 -2.5129
  144MOL0     H18974   4.071   6.067   0.629  0.9619 -0.0080 -0.1867
  144MOL0     H18975   4.197   6.000   0.527  0.5343 -1.5840 -0.2937
  144MOL0     H18976   3.887   5.970   0.504 -0.2628 -0.8234 -1.8623
  144MOL0     H18977   3.982   5.875   0.614 -0.1097 -0.1428 -0.8590
  144MOL0     H18978   4.119   5.790   0.402  1.3147  1.5196 -1.0992
  144MOL0     H18979   4.005   5.890   0.316 -0.0358  2.1910  2.6475
  144MOL0     H18980   3.940   5.649   0.497  1.1700  0.1596 -0.4423
  144MOL0     H18981   3.817   5.735   0.424 -1.0964 -2.4734  2.4733
  144MOL0     H18982   3.865   5.535   0.279 -1.9535  1.2344  0.6023
  144MOL0     H18983   4.032   5.576   0.284  0.6022  0.9618  0.0498
  144MOL0     H18984   4.002   5.765   0.122 -0.0626 -0.2344 -1.6338
  144MOL0     H18985   3.832   5.738   0.121  1.6999  1.1651 -3.0264
  144MOL0     H18986   4.024   5.530   0.011 -0.0604 -0.6934 -1.7500
  144MOL0     H18987   3.860   5.493   0.070 -0.1589  0.5697  0.7483
  144MOL0     H18988   3.772   5.648  -0.099 -0.4637 -3.5735  0.1557
  144MOL0     H18989   3.893   5.550  -0.184  0.1255 -0.5848  0.5144
  144MOL0     H18990   4.026   6.287   0.232 -0.4616  0.5600  0.9832
  144MOL0     H18991   4.096   6.517   0.209 -0.3935 -1.4785 -1.1278
  144MOL0     H18992   4.234   6.877   0.352 -1.2476  2.4334 -0.7113
  144MOL0     H18993   4.290   7.099   0.318 -0.5074  0.7480 -1.3468
  144MOL0     H18994   4.162   7.643   0.502  1.1249  0.4385  0.7619
  144MOL0     H18995   4.102   7.386   0.496 -3.6263 -2.2551 -0.2141
  144MOL0     H18996   3.909   7.074   0.292 -1.1831  5.2088  2.2270
  144MOL0     H18997   3.869   6.827   0.268  3.5773  0.7646  0.1850
  144MOL0     H18998   3.671   6.598   0.622  0.7727 -1.8530  1.4730
  144MOL0     H18999   3.830   6.568   0.640 -0.0380  4.4232  0.1857
  144MOL0     H19000   3.613   6.429   0.494 -0.5394  2.4243  3.6755
  144MOL0     H19001   3.764   6.424   0.402 -0.9825  4.1200 -1.0592
  144MOL0     H19002   3.875   6.313   0.612 -0.0568 -2.3995 -0.2769
  144MOL0     H19003   3.754   6.217   0.529  1.2313 -2.2164  1.1680
  144MOL0     H19004   3.711   6.367   0.781 -0.0377  0.3361 -1.7975
  144MOL0     H19005   3.585   6.293   0.685 -0.2728  1.3321 -0.7991
  144MOL0     H19006   3.785   5.961   0.875  0.4717 -0.0926  0.9994
  144MOL0     H19007   3.818   6.809   0.690 -1.2354  0.9290  0.6352
  144MOL0     H19008   3.831   7.041   0.721 -0.6536 -0.7114  0.2512
  145MOL0     O19009   3.963   3.312   4.435 -0.2236  0.3632 -0.4608
  145MOL0     C19010   3.932   3.220   4.353 -0.0476  0.6346 -0.0845
  145MOL0     O19011   4.006   3.180   4.255 -0.8210  0.2339 -0.1431
  145MOL0     C19012   4.133   3.236   4.239  0.0584 -0.3437  0.0659
  145MOL0     C19013   4.174   3.314   4.137 -0.5181 -0.4674  0.0833
  145MOL0     C19014   4.301   3.379   4.144  0.1122  0.1086  0.2330
  145MOL0     C19015   4.403   3.358   4.237  0.4061  0.2092 -0.0069
  145MOL0     O19016   4.509   3.447   4.226  0.0910  0.1298  0.4190
  145MOL0     C19017   4.554   3.493   4.353  0.1545  0.7483  0.1396
  145MOL0     C19018   4.677   3.410   4.407  0.1855 -0.6512  0.0724
  145MOL0     C19019   4.702   3.466   4.547 -0.8259  0.4265 -0.4986
  145MOL0     C19020   4.756   3.617   4.563 -0.3187 -0.4969 -0.6862
  145MOL0     C19021   4.818   3.645   4.699  0.2917 -0.2420  0.0941
  145MOL0     C19022   4.966   3.608   4.696  0.3642  0.1065 -0.1766
  145MOL0     C19023   5.034   3.622   4.840  0.5291  0.4099 -0.9965
  145MOL0     C19024   5.022   3.769   4.896  0.4211  0.0178 -1.1630
  145MOL0     N19025   5.115   3.777   5.015 -0.0067 -0.2104  0.3618
  145MOL0     C19026   5.172   3.669   5.086 -0.4057 -0.4476  0.5589
  145MOL0     C19027   5.256   3.727   5.177  1.2704  0.3374 -0.1339
  145MOL0     C19028   5.330   3.659   5.288 -0.4520  0.7655 -1.1367
  145MOL0     C19029   5.246   3.562   5.367  0.8513  0.9643  0.6780
  145MOL0     C19030   5.321   3.505   5.491 -0.6905 -0.1214  1.0750
  145MOL0     C19031   5.449   3.423   5.452 -0.2311  0.0824 -0.2018
  145MOL0     O19032   5.555   3.523   5.443  0.6852 -0.4265 -0.5502
  145MOL0     C19033   5.679   3.491   5.404 -0.0961  0.5867  0.5846
  145MOL0     C19034   5.786   3.589   5.433  0.6267 -0.8144  0.0976
  145MOL0     C19035   5.913   3.559   5.414 -0.3608  0.1627  1.0227
  145MOL0     C19036   5.946   3.442   5.351 -0.2820 -0.3325 -0.2948
  145MOL0     C19037   6.092   3.419   5.325  0.1800 -0.7857 -0.1614
  145MOL0     O19038   6.127   3.300   5.262  0.5521  0.5370  0.0344
  145MOL0     C19039   6.252   3.260   5.232 -0.0893 -0.9521  0.1960
  145MOL0     C19040   6.374   3.334   5.239  0.2355 -0.5582 -0.5138
  145MOL0     C19041   6.506   3.282   5.244  0.3318  0.2634 -0.3861
  145MOL0     C19042   6.514   3.147   5.213 -0.2977 -0.6976 -0.0068
  145MOL0     O19043   6.638   3.079   5.206 -0.1748  0.0095  0.7926
  145MOL0     C19044   6.651   2.959   5.274  0.0452 -0.1730  0.0360
  145MOL0     C19045   6.774   2.888   5.226 -0.6241 -0.1656  1.0367
  145MOL0     C19046   6.774   2.745   5.279 -0.7948 -0.3303  0.0795
  145MOL0     C19047   6.909   2.672   5.287  0.1415  1.1070  0.4565
  145MOL0     C19048   6.918   2.554   5.384  0.5813  0.6505 -0.0638
  145MOL0     C19049   7.054   2.485   5.387 -0.7575  0.0435  1.4154
  145MOL0     C19050   7.056   2.379   5.498  0.2933  0.3935 -1.0657
  145MOL0     C19051   7.196   2.323   5.512 -0.1451  0.7190  0.0634
  145MOL0    Cl19052   7.214   2.198   5.630  0.2660  0.1136  0.3432
  145MOL0     C19053   6.394   3.068   5.184 -0.0232 -0.6307 -0.7417
  145MOL0     C19054   6.270   3.125   5.202 -0.2180  0.2379 -0.6269
  145MOL0     O19055   6.167   3.513   5.349  0.1954 -0.0748 -0.5502
  145MOL0     C19056   5.857   3.337   5.337 -0.4532 -0.9833 -0.6093
  145MOL0     C19057   5.717   3.360   5.357 -0.6223  0.7899 -0.0101
  145MOL0     N19058   5.251   3.861   5.162 -0.0076 -0.5112 -0.5095
  145MOL0     N19059   5.153   3.891   5.075 -0.4077 -0.6731 -0.4368
  145MOL0     C19060   4.377   3.253   4.324  1.6942  0.6076 -0.4133
  145MOL0     C19061   4.244   3.191   4.322 -0.3822 -0.4231  0.7494
  145MOL0     C19062   3.819   3.126   4.370 -0.1993 -0.3320 -0.0700
  145MOL0     C19063   3.767   3.105   4.506  0.6397  0.0948  0.3341
  145MOL0     C19064   3.664   3.016   4.526 -0.4330  0.0501 -0.6254
  145MOL0     C19065   3.608   2.948   4.420  0.0646  0.5853 -0.1014
  145MOL0     O19066   3.504   2.858   4.438  0.4643 -0.6283 -0.8561
  145MOL0     C19067   3.517   2.760   4.539 -0.1692 -0.2617 -0.6574
  145MOL0     C19068   3.383   2.699   4.588  0.3451  0.2391 -0.0355
  145MOL0     C19069   3.280   2.802   4.627 -0.3685  0.5856 -0.3805
  145MOL0     C19070   3.165   2.746   4.714  0.0809 -0.4615 -0.6628
  145MOL0     C19071   3.095   2.632   4.639 -0.7602 -0.5019 -0.1285
  145MOL0     C19072   3.051   2.548   4.571  0.0799 -0.2933  0.4394
  145MOL0     C19073   3.659   2.963   4.292 -0.0566 -0.3264  1.1439
  145MOL0     C19074   3.769   3.058   4.268  0.4694  0.2615  0.3172
  145MOL0     H19075   4.114   3.324   4.048  1.6233 -2.5684 -1.7412
  145MOL0     H19076   4.328   3.434   4.054 -1.0201 -0.4245 -0.4501
  145MOL0     H19077   4.470   3.501   4.423  0.4983  0.5340  0.5759
  145MOL0     H19078   4.586   3.594   4.327 -0.5128  1.5085  2.0716
  145MOL0     H19079   4.760   3.439   4.341 -1.5031  0.3729 -1.7192
  145MOL0     H19080   4.674   3.301   4.404 -0.6013 -0.6425  0.3591
  145MOL0     H19081   4.767   3.399   4.603  2.6399  2.3721 -1.8891
  145MOL0     H19082   4.610   3.466   4.606 -0.2940  1.9225  0.3951
  145MOL0     H19083   4.833   3.640   4.489 -1.3518 -3.6084 -2.9276
  145MOL0     H19084   4.678   3.694   4.561  0.9661  0.9030  0.4596
  145MOL0     H19085   4.771   3.585   4.778  0.9546 -2.2623 -0.9580
  145MOL0     H19086   4.801   3.750   4.722 -2.9957 -0.1313 -2.2025
  145MOL0     H19087   5.014   3.671   4.621 -0.5605  1.7837  0.6047
  145MOL0     H19088   4.980   3.502   4.671 -2.5357  0.1145 -2.2989
  145MOL0     H19089   4.982   3.561   4.915  1.7614  2.1541  1.4146
  145MOL0     H19090   5.138   3.590   4.831  0.3459 -0.2909 -0.7006
  145MOL0     H19091   4.922   3.797   4.931  1.7951  0.2013  3.2683
  145MOL0     H19092   5.058   3.840   4.821 -1.4536 -0.7006 -2.7941
  145MOL0     H19093   5.152   3.562   5.078 -2.0517 -0.1602  0.4334
  145MOL0     H19094   5.356   3.731   5.365  3.2090  0.7478 -2.1759
  145MOL0     H19095   5.415   3.603   5.247 -0.5604 -1.8569  1.8981
  145MOL0     H19096   5.208   3.478   5.308 -2.9533  3.2941 -0.5501
  145MOL0     H19097   5.166   3.628   5.399  0.0223  1.8320 -2.8195
  145MOL0     H19098   5.355   3.587   5.555  0.3394  0.9590 -0.7690
  145MOL0     H19099   5.247   3.450   5.550 -1.6562  1.3180  1.2836
  145MOL0     H19100   5.431   3.372   5.357  0.7979 -0.8522  0.0845
  145MOL0     H19101   5.475   3.350   5.530  1.9336  0.4341 -0.5187
  145MOL0     H19102   5.760   3.683   5.481 -0.1882 -0.6362 -0.6603
  145MOL0     H19103   5.993   3.631   5.432  0.7861 -1.1651  1.4336
  145MOL0     H19104   6.365   3.442   5.246 -1.5728 -0.4886 -2.7440
  145MOL0     H19105   6.594   3.340   5.267  0.5463 -0.5235  0.9168
  145MOL0     H19106   6.568   2.893   5.250  1.0794 -1.0534 -1.3028
  145MOL0     H19107   6.663   2.980   5.380  1.8898  0.6707 -0.2886
  145MOL0     H19108   6.863   2.942   5.260  1.7433 -3.4440  0.5531
  145MOL0     H19109   6.782   2.878   5.117  1.5237 -1.4125  1.2623
  145MOL0     H19110   6.715   2.680   5.215  1.3322  0.4683 -2.9467
  145MOL0     H19111   6.715   2.751   5.371 -3.7165  3.8207 -1.7516
  145MOL0     H19112   6.930   2.621   5.192  3.0081 -3.9330  3.3989
  145MOL0     H19113   6.992   2.741   5.306  1.9072 -1.1223  1.2545
  145MOL0     H19114   6.835   2.485   5.367 -1.0757  2.4568  0.3116
  145MOL0     H19115   6.888   2.602   5.477 -0.0259  0.9153 -0.3914
  145MOL0     H19116   7.127   2.561   5.417 -0.5405 -0.8763  3.4479
  145MOL0     H19117   7.081   2.448   5.288 -0.1457  0.1058  1.5551
  145MOL0     H19118   7.024   2.414   5.596  0.6804 -0.4970 -0.6091
  145MOL0     H19119   6.988   2.295   5.483 -0.5041  0.1457  2.8934
  145MOL0     H19120   7.270   2.399   5.537  4.4176 -3.2931  0.2404
  145MOL0     H19121   7.227   2.287   5.413 -1.7964  0.5709 -0.4305
  145MOL0     H19122   6.403   2.962   5.160 -2.0997 -1.1543  0.4952
  145MOL0     H19123   6.187   3.056   5.189  1.4824 -2.4413  1.6001
  145MOL0     H19124   5.898   3.244   5.296  2.3569  0.4983 -1.4371
  145MOL0     H19125   5.659   3.268   5.356  0.0425  0.2146  3.1737
  145MOL0     H19126   4.458   3.226   4.392 -0.0869 -0.1070  1.5451
  145MOL0     H19127   4.227   3.109   4.391  0.3474  0.0617  1.5231
  145MOL0     H19128   3.803   3.171   4.585 -0.8478  1.3476  0.0206
  145MOL0     H19129   3.617   3.012   4.623 -3.4742  1.4386 -1.8900
  145MOL0     H19130   3.574   2.798   4.624 -1.8963  0.5012  0.2168
  145MOL0     H19131   3.582   2.678   4.506  1.5648  1.1743 -0.9301
  145MOL0     H19132   3.346   2.635   4.508 -1.6020  0.4294  0.6645
  145MOL0     H19133   3.407   2.634   4.674  0.7087  1.2862  0.6735
  145MOL0     H19134   3.236   2.842   4.535  1.5625  3.3493 -0.2098
  145MOL0     H19135   3.332   2.879   4.684 -2.8274  0.9986  1.4747
  145MOL0     H19136   3.205   2.710   4.809 -0.7236  1.7032  0.5641
  145MOL0     H19137   3.095   2.826   4.739  1.5953  0.3511  1.1498
  145MOL0     H19138   3.017   2.476   4.499  0.2174 -0.6311  0.7102
  145MOL0     H19139   3.625   2.909   4.204 -1.4149 -0.1857  1.5529
  145MOL0     H19140   3.818   3.060   4.171 -0.0480  0.6416  0.0626
  146MOL0     O19141   1.525   9.732   4.110 -0.2808 -0.7447  0.4512
  146MOL0     C19142   1.644   9.746   4.086 -0.7294  0.3993  0.7991
  146MOL0     O19143   1.714   9.859   4.049 -0.3275  0.2056 -0.0379
  146MOL0     C19144   1.633   9.971   4.041  0.2262  1.1831  0.2405
  146MOL0     C19145   1.547   9.984   3.933 -0.1262 -0.2767 -0.6073
  146MOL0     C19146   1.454  10.082   3.923  0.3021  0.3074  0.6343
  146MOL0     C19147   1.454  10.178   4.029  0.5377  0.0916  0.2126
  146MOL0     O19148   1.356  10.268   4.017  0.3840 -0.6963 -0.2886
  146MOL0     C19149   1.344  10.367   4.122 -0.4718  0.1581  0.2721
  146MOL0     C19150   1.437  10.482   4.095 -0.3334 -0.5502  0.7773
  146MOL0     C19151   1.371  10.595   4.008 -0.1639  0.0199 -0.2558
  146MOL0     C19152   1.474  10.701   3.948  0.6378 -0.1071 -0.4889
  146MOL0     C19153   1.403  10.830   3.896  0.1234 -0.0518 -0.3323
  146MOL0     C19154   1.484  10.909   3.782  0.6519 -0.3329 -0.2665
  146MOL0     C19155   1.509  10.821   3.653 -0.8214 -0.1934  0.3808
  146MOL0     C19156   1.533  10.917   3.527  0.0806 -0.7353  0.2953
  146MOL0     N19157   1.573  10.841   3.411  0.6376 -0.0766  0.2074
  146MOL0     C19158   1.669  10.884   3.320  0.0308 -0.7419  0.5773
  146MOL0     C19159   1.637  10.827   3.200 -0.4488  0.9806  0.3439
  146MOL0     C19160   1.726  10.820   3.080  1.0306 -0.1748  0.4027
  146MOL0     C19161   1.839  10.719   3.096 -0.2996  0.9249 -0.3921
  146MOL0     C19162   1.932  10.725   2.974 -1.1000  1.4484  0.2288
  146MOL0     C19163   2.066  10.654   2.992  0.0212  0.5335 -0.0648
  146MOL0     O19164   2.135  10.695   3.105 -0.2290  0.0342  0.0233
  146MOL0     C19165   2.233  10.617   3.159 -0.1218 -0.6569  1.0149
  146MOL0     C19166   2.327  10.689   3.214 -0.2562 -0.5636 -0.5318
  146MOL0     C19167   2.435  10.629   3.282  1.0093 -0.1313 -0.1272
  146MOL0     C19168   2.442  10.490   3.306 -0.3636 -0.8122 -0.7949
  146MOL0     C19169   2.570  10.430   3.361 -0.3155  0.5635  0.0200
  146MOL0     O19170   2.579  10.288   3.354 -0.4187 -0.1989 -0.7987
  146MOL0     C19171   2.687  10.209   3.396  0.3292 -0.3070 -0.3678
  146MOL0     C19172   2.769  10.235   3.508  0.8369  0.2908 -0.4268
  146MOL0     C19173   2.872  10.147   3.545  0.5815 -0.9544 -0.1035
  146MOL0     C19174   2.911  10.041   3.464  0.9489 -0.4998  0.3304
  146MOL0     O19175   2.997   9.941   3.497 -0.1758  0.2001  0.1816
  146MOL0     C19176   3.118   9.996   3.554  0.1803  0.1771  0.1251
  146MOL0     C19177   3.195  10.090   3.470  0.2710 -0.1751  0.1535
  146MOL0     C19178   3.223  10.027   3.332 -0.4487 -0.6189  0.0300
  146MOL0     C19179   3.296  10.130   3.247  0.0697  0.0480 -0.4571
  146MOL0     C19180   3.448  10.126   3.268  0.2127 -0.7981  0.1697
  146MOL0     C19181   3.509  10.210   3.158 -0.1314  0.2696 -0.6665
  146MOL0     C19182   3.654  10.249   3.205  0.5895 -0.8930  0.8216
  146MOL0     C19183   3.719  10.325   3.088  0.9930  0.3452  0.3630
  146MOL0    Cl19184   3.869  10.383   3.141  0.3324 -0.3129  0.1258
  146MOL0     C19185   2.820  10.011   3.356 -0.6455 -0.0795  0.4470
  146MOL0     C19186   2.707  10.091   3.328 -0.5015  0.7592 -0.6125
  146MOL0     O19187   2.661  10.503   3.386 -0.4970 -0.3255 -0.0582
  146MOL0     C19188   2.340  10.407   3.245  0.8362 -0.2766  0.8512
  146MOL0     C19189   2.235  10.473   3.177 -0.1725  0.1923  0.2751
  146MOL0     N19190   1.516  10.771   3.221 -0.1285  0.2646  0.1153
  146MOL0     N19191   1.483  10.768   3.343  1.3420  0.2073 -0.1706
  146MOL0     C19192   1.539  10.169   4.131  0.1207 -0.8160 -0.0623
  146MOL0     C19193   1.630  10.061   4.142  1.1332 -0.1724  0.2436
  146MOL0     C19194   1.725   9.634   4.091  0.2206 -0.4384 -0.1487
  146MOL0     C19195   1.687   9.524   4.167  0.6765  0.5686  0.6160
  146MOL0     C19196   1.772   9.405   4.175 -0.6832 -0.0967  0.9447
  146MOL0     C19197   1.891   9.397   4.099 -0.1135  0.7425  0.4163
  146MOL0     O19198   1.979   9.291   4.132  0.3874 -0.4438  0.2032
  146MOL0     C19199   2.102   9.286   4.059  0.2869 -0.4121  0.4566
  146MOL0     C19200   2.182   9.166   4.107  0.5803 -0.8006 -0.5078
  146MOL0     C19201   2.312   9.151   4.036 -0.3735  0.7482  0.1285
  146MOL0     C19202   2.426   9.245   4.068 -0.1851 -0.4418  0.0070
  146MOL0     C19203   2.542   9.239   3.972  0.5553  1.0600  0.2031
  146MOL0     C19204   2.641   9.231   3.899  0.5009 -0.7828 -0.0560
  146MOL0     C19205   1.929   9.510   4.022 -0.2355  0.0931 -0.0316
  146MOL0     C19206   1.849   9.624   4.021 -0.8110  0.7151 -0.3575
  146MOL0     H19207   1.549   9.904   3.860 -1.8055 -0.7843 -0.1314
  146MOL0     H19208   1.391  10.082   3.835 -0.2365  3.9991  0.8688
  146MOL0     H19209   1.359  10.326   4.222  3.6364 -0.0166 -0.2586
  146MOL0     H19210   1.242  10.407   4.125 -1.1052 -1.2711 -0.9995
  146MOL0     H19211   1.525  10.454   4.038 -0.2709  1.6772 -0.3467
  146MOL0     H19212   1.477  10.523   4.188  0.2445 -1.9709  1.1739
  146MOL0     H19213   1.299  10.638   4.079  1.6427  1.8756  0.5622
  146MOL0     H19214   1.337  10.544   3.918  3.2350 -3.5504  0.2129
  146MOL0     H19215   1.558  10.728   4.013  3.5494 -4.1946 -2.1460
  146MOL0     H19216   1.530  10.648   3.871  4.5768  1.1288  1.3078
  146MOL0     H19217   1.387  10.898   3.980 -0.4312  1.6898 -1.7800
  146MOL0     H19218   1.306  10.798   3.858  0.6012 -0.7721 -0.9803
  146MOL0     H19219   1.574  10.955   3.824 -1.8118  1.7679  3.1664
  146MOL0     H19220   1.425  10.994   3.746  3.5026  2.2379  0.7197
  146MOL0     H19221   1.601  10.765   3.674 -1.4583 -0.7270  1.9549
  146MOL0     H19222   1.433  10.744   3.634  1.6111 -2.7339  0.2747
  146MOL0     H19223   1.610  10.990   3.551 -1.6366  2.1418 -2.2391
  146MOL0     H19224   1.441  10.971   3.503 -0.0568 -1.8529 -1.8959
  146MOL0     H19225   1.746  10.958   3.342  0.6936 -1.6982  1.6112
  146MOL0     H19226   1.766  10.920   3.059  2.3852 -1.1497 -2.2009
  146MOL0     H19227   1.661  10.790   2.997 -2.1063  1.0268  2.2553
  146MOL0     H19228   1.802  10.616   3.101  0.5021  0.6569  0.2706
  146MOL0     H19229   1.894  10.747   3.186 -2.0012  2.8259  0.1159
  146MOL0     H19230   1.887  10.674   2.889  0.9883  1.2270 -0.8001
  146MOL0     H19231   1.959  10.830   2.958 -0.0983  1.2199  0.3228
  146MOL0     H19232   2.122  10.654   2.898 -0.8074  0.8514 -0.5678
  146MOL0     H19233   2.034  10.550   3.003 -0.8675  0.8977  0.9033
  146MOL0     H19234   2.311  10.796   3.213  0.4964 -0.4456 -0.5086
  146MOL0     H19235   2.513  10.696   3.318 -0.1877  1.3414 -0.1590
  146MOL0     H19236   2.747  10.322   3.570 -1.1159 -1.4105  1.4610
  146MOL0     H19237   2.931  10.170   3.633  1.7669 -1.1016 -0.8416
  146MOL0     H19238   3.184   9.910   3.570  2.6866  1.7522 -1.1219
  146MOL0     H19239   3.103  10.041   3.653 -3.7679  0.9392 -0.6620
  146MOL0     H19240   3.295  10.101   3.511 -0.4138 -2.2390  2.6708
  146MOL0     H19241   3.145  10.186   3.454  3.1169  1.5637  1.0443
  146MOL0     H19242   3.135  10.002   3.272 -1.1560  3.6904 -1.0531
  146MOL0     H19243   3.290   9.941   3.327  1.7903  0.9714  0.9739
  146MOL0     H19244   3.272  10.102   3.144  0.5863 -0.7336 -0.3773
  146MOL0     H19245   3.252  10.228   3.264  1.1485  0.5145 -0.2419
  146MOL0     H19246   3.491  10.026   3.256 -0.0502 -0.5743 -4.3902
  146MOL0     H19247   3.468  10.172   3.365  0.2849  2.2080 -1.1683
  146MOL0     H19248   3.458  10.302   3.128  2.5256  1.8092 -0.7644
  146MOL0     H19249   3.515  10.143   3.072 -0.8703 -2.8916  1.5888
  146MOL0     H19250   3.637  10.322   3.284 -0.6354  1.2162 -1.2540
  146MOL0     H19251   3.704  10.156   3.235 -1.1030 -1.9545  0.5120
  146MOL0     H19252   3.652  10.402   3.050 -1.5076 -1.3350  1.0924
  146MOL0     H19253   3.736  10.246   3.014  5.6816 -1.0664  2.5042
  146MOL0     H19254   2.836   9.920   3.298 -1.1104  2.3346 -3.8669
  146MOL0     H19255   2.650  10.058   3.243 -3.5212 -4.6965  2.9739
  146MOL0     H19256   2.345  10.299   3.252 -1.0060 -0.3136  3.5690
  146MOL0     H19257   2.157  10.415   3.128 -0.8039 -1.7607  3.3477
  146MOL0     H19258   1.535  10.250   4.203 -1.8716 -0.1635 -0.8256
  146MOL0     H19259   1.698  10.053   4.225  1.8817 -1.0906 -0.4327
  146MOL0     H19260   1.605   9.529   4.238 -0.9437 -0.1192 -1.0943
  146MOL0     H19261   1.738   9.330   4.247 -0.4044  1.6948  3.0740
  146MOL0     H19262   2.156   9.381   4.066 -1.6495  0.7510  0.3132
  146MOL0     H19263   2.081   9.277   3.952  2.4784  0.7580 -0.1493
  146MOL0     H19264   2.200   9.181   4.214  2.4938  0.6173 -0.9800
  146MOL0     H19265   2.117   9.082   4.080 -0.0115  0.1773 -2.3522
  146MOL0     H19266   2.291   9.141   3.929 -2.5605 -2.6547  0.7265
  146MOL0     H19267   2.345   9.050   4.062  0.3364  0.4519 -1.7558
  146MOL0     H19268   2.393   9.349   4.068  3.5493  1.1217  4.4940
  146MOL0     H19269   2.455   9.218   4.171  1.9643  2.2170  0.2214
  146MOL0     H19270   2.729   9.211   3.841 -0.5151 -2.2704 -1.1586
  146MOL0     H19271   2.022   9.510   3.967 -1.4203 -0.4297 -2.1552
  146MOL0     H19272   1.879   9.710   3.963  0.3357  1.2364  0.9463
  147MOL0     O19273   0.137   0.552   7.663 -0.6727 -0.1269 -0.6515
  147MOL0     C19274   0.113   0.671   7.658  0.7758  0.2063 -0.2672
  147MOL0     O19275   0.033   0.728   7.565  0.4314  0.2566 -0.9108
  147MOL0     C19276  -0.007   0.648   7.461  0.0509 -0.7997  0.5776
  147MOL0     C19277   0.035   0.675   7.325  0.4536  0.5378 -0.2001
  147MOL0     C19278   0.010   0.588   7.219  0.0508  0.0734  0.3508
  147MOL0     C19279  -0.088   0.490   7.238 -0.4700  0.5948  0.3749
  147MOL0     O19280  -0.121   0.401   7.138  0.3810 -0.0954 -0.1497
  147MOL0     C19281  -0.186   0.465   7.027 -0.2368  0.9649  0.1810
  147MOL0     C19282  -0.242   0.355   6.939  0.4893  0.8735 -0.6309
  147MOL0     C19283  -0.276   0.400   6.796  0.9256  0.2505  0.7306
  147MOL0     C19284  -0.324   0.282   6.704 -0.2467 -1.0818  0.4152
  147MOL0     C19285  -0.388   0.326   6.571 -1.1643  0.1139 -0.3873
  147MOL0     C19286  -0.525   0.397   6.595  0.1177  0.0696  0.4653
  147MOL0     C19287  -0.564   0.461   6.464 -0.2617  0.7460 -0.6841
  147MOL0     C19288  -0.705   0.534   6.491  0.2679 -0.1474 -0.0479
  147MOL0     N19289  -0.800   0.506   6.385 -0.0045  0.5419 -0.1298
  147MOL0     C19290  -0.781   0.520   6.253 -0.1961  0.7461  0.3967
  147MOL0     C19291  -0.896   0.466   6.195  0.2457  0.8968 -0.5768
  147MOL0     C19292  -0.950   0.454   6.056  0.3984  0.3554 -0.3161
  147MOL0     C19293  -0.827   0.430   5.966 -0.6440 -0.3921  0.0658
  147MOL0     C19294  -0.767   0.560   5.916  0.6447 -0.9635 -0.8039
  147MOL0     C19295  -0.625   0.540   5.887 -0.8121  0.0994 -0.0159
  147MOL0     O19296  -0.533   0.532   6.000  0.3123  0.8768  0.1671
  147MOL0     C19297  -0.469   0.641   6.060  0.4879 -0.9445 -0.3177
  147MOL0     C19298  -0.492   0.770   6.010 -0.7518  0.2037  0.2944
  147MOL0     C19299  -0.435   0.879   6.068  0.6825 -0.6455 -0.8503
  147MOL0     C19300  -0.349   0.867   6.176  0.3038 -0.1312 -0.1602
  147MOL0     C19301  -0.259   0.979   6.237 -0.0903 -0.0871  0.5434
  147MOL0     O19302  -0.186   0.946   6.347 -0.5717  0.3211 -0.5867
  147MOL0     C19303  -0.111   1.040   6.417 -0.1658 -0.0245  0.0525
  147MOL0     C19304  -0.006   0.998   6.501  0.3477 -0.4851 -0.1688
  147MOL0     C19305   0.073   1.090   6.578  1.1426 -0.6737  0.4451
  147MOL0     C19306   0.039   1.221   6.581 -0.7003  0.1501  0.2623
  147MOL0     O19307   0.112   1.303   6.660  0.6929 -0.8743  1.3352
  147MOL0     C19308   0.044   1.378   6.760 -0.6870  0.3863 -0.0409
  147MOL0     C19309  -0.037   1.281   6.855  0.0591  0.6118 -0.0159
  147MOL0     C19310   0.056   1.185   6.923 -0.0032 -0.3294 -0.6046
  147MOL0     C19311  -0.019   1.089   7.012 -1.2205  0.5898 -0.9089
  147MOL0     C19312   0.082   0.998   7.078  0.1201  0.4148 -0.9274
  147MOL0     C19313   0.142   0.882   6.988  0.2874 -0.2448 -0.1923
  147MOL0     C19314   0.041   0.815   6.895 -0.5131  0.1737  0.5856
  147MOL0     C19315   0.098   0.694   6.815  0.5614 -0.3893  0.0182
  147MOL0    Cl19316  -0.021   0.636   6.692  0.0784  0.0986 -0.2606
  147MOL0     C19317  -0.060   1.267   6.490  0.0662  0.3866 -1.4127
  147MOL0     C19318  -0.132   1.177   6.411 -0.4289 -0.2163 -0.2015
  147MOL0     O19319  -0.273   1.087   6.180 -0.2881  0.5062  0.9720
  147MOL0     C19320  -0.340   0.749   6.235  0.1330  0.5395 -0.3968
  147MOL0     C19321  -0.387   0.633   6.175  0.5169  0.4505  1.1530
  147MOL0     N19322  -0.981   0.416   6.299 -0.3552 -1.3625  0.5985
  147MOL0     N19323  -0.915   0.443   6.405 -0.0787  0.0999 -0.0452
  147MOL0     C19324  -0.137   0.464   7.368 -0.4937  0.4410 -0.6517
  147MOL0     C19325  -0.100   0.551   7.476  0.8026  0.7378 -0.0841
  147MOL0     C19326   0.184   0.770   7.745  0.5926 -0.3207  0.5269
  147MOL0     C19327   0.250   0.732   7.868  0.3222 -0.2226 -0.7758
  147MOL0     C19328   0.321   0.821   7.950  0.1348 -1.0108  0.4852
  147MOL0     C19329   0.319   0.959   7.919  1.3992  0.1644 -0.3551
  147MOL0     O19330   0.394   1.041   8.004  0.7083 -0.0630  0.1004
  147MOL0     C19331   0.342   1.173   8.014  0.1131  0.0271 -0.1294
  147MOL0     C19332   0.395   1.250   8.133 -1.1527 -0.6230 -0.3668
  147MOL0     C19333   0.545   1.203   8.162  0.5621 -0.6855  0.1369
  147MOL0     C19334   0.613   1.319   8.236 -0.1479  0.8431 -1.2023
  147MOL0     C19335   0.751   1.281   8.275 -0.5621 -0.5378  0.3766
  147MOL0     C19336   0.866   1.282   8.324 -0.7354  0.3035  0.9547
  147MOL0     C19337   0.260   0.996   7.798  0.5271  0.2343 -0.6974
  147MOL0     C19338   0.203   0.899   7.709 -0.3330  0.2963 -0.6375
  147MOL0     H19339   0.098   0.760   7.299  0.1731  0.4828 -1.0950
  147MOL0     H19340   0.066   0.598   7.127 -0.5511 -1.7548 -0.2495
  147MOL0     H19341  -0.109   0.518   6.970  0.5674 -0.9955 -0.6525
  147MOL0     H19342  -0.270   0.532   7.050 -3.7712 -2.4185 -1.7496
  147MOL0     H19343  -0.329   0.303   6.980  0.3063  0.9657 -0.8972
  147MOL0     H19344  -0.166   0.276   6.940 -0.5596 -0.2625  2.7094
  147MOL0     H19345  -0.190   0.444   6.744  1.9536 -2.7333 -0.2932
  147MOL0     H19346  -0.356   0.475   6.796  1.4464  0.9016 -1.8633
  147MOL0     H19347  -0.243   0.218   6.666  1.8398  1.3564  0.4809
  147MOL0     H19348  -0.405   0.231   6.757 -0.9604 -1.0690 -0.6340
  147MOL0     H19349  -0.418   0.248   6.501 -3.3026 -0.0694  0.6575
  147MOL0     H19350  -0.323   0.402   6.526 -2.3881  1.5609  0.1776
  147MOL0     H19351  -0.533   0.473   6.674 -3.9792 -1.4762  1.7974
  147MOL0     H19352  -0.607   0.330   6.622  0.1451  0.1569  0.7651
  147MOL0     H19353  -0.480   0.527   6.438  0.0761  1.1100  1.1485
  147MOL0     H19354  -0.584   0.386   6.388 -2.1723 -1.3490  1.7122
  147MOL0     H19355  -0.680   0.640   6.487 -2.7884  0.6557 -4.2550
  147MOL0     H19356  -0.750   0.499   6.585 -3.1249 -0.6663 -1.6976
  147MOL0     H19357  -0.696   0.564   6.203 -0.7049  0.4098 -0.8162
  147MOL0     H19358  -1.008   0.538   6.018 -0.6302 -0.4971 -0.6642
  147MOL0     H19359  -1.018   0.369   6.058 -0.0825  0.7422 -0.0295
  147MOL0     H19360  -0.861   0.374   5.878  0.6748 -4.9633  2.1649
  147MOL0     H19361  -0.760   0.358   6.013  0.4229  0.0074 -0.7974
  147MOL0     H19362  -0.834   0.595   5.838  0.2480 -0.6642 -0.3372
  147MOL0     H19363  -0.772   0.644   5.986  4.5668 -1.9312  0.9882
  147MOL0     H19364  -0.591   0.614   5.814 -1.7470  0.2383 -0.3334
  147MOL0     H19365  -0.618   0.443   5.837  0.0087 -0.9776  2.0445
  147MOL0     H19366  -0.558   0.775   5.924  2.0736 -2.8798 -2.3528
  147MOL0     H19367  -0.464   0.979   6.035 -1.8034 -0.4954  1.3919
  147MOL0     H19368   0.008   0.890   6.502  1.7323 -0.4168  3.4644
  147MOL0     H19369   0.151   1.068   6.650  2.1107 -1.4665 -0.7994
  147MOL0     H19370  -0.015   1.460   6.717 -1.9061  0.7041  2.1120
  147MOL0     H19371   0.124   1.417   6.823  0.0026 -1.3333  0.1982
  147MOL0     H19372  -0.113   1.224   6.800 -0.7815 -2.8414  4.1557
  147MOL0     H19373  -0.086   1.349   6.926  0.7106  0.5219  0.5304
  147MOL0     H19374   0.130   1.249   6.973 -0.7456  1.3987 -1.6221
  147MOL0     H19375   0.116   1.131   6.850  1.1819 -2.3133  1.7001
  147MOL0     H19376  -0.078   1.144   7.087  0.4840  1.5147 -0.1964
  147MOL0     H19377  -0.081   1.032   6.942 -0.8735  0.0103 -0.7432
  147MOL0     H19378   0.018   0.953   7.155  4.5998 -1.5042  2.0806
  147MOL0     H19379   0.156   1.047   7.141 -1.2795 -2.0692  3.0142
  147MOL0     H19380   0.182   0.813   7.063  1.3084 -0.1885 -0.6672
  147MOL0     H19381   0.214   0.914   6.912 -1.9252 -0.1790 -2.3571
  147MOL0     H19382  -0.046   0.784   6.955 -0.3656 -1.7087 -0.1044
  147MOL0     H19383   0.000   0.896   6.834  0.5452  2.0780  2.2504
  147MOL0     H19384   0.101   0.617   6.893 -2.2069 -1.7023 -1.0377
  147MOL0     H19385   0.200   0.708   6.778  0.6297  2.2391  1.0213
  147MOL0     H19386  -0.076   1.374   6.476  2.1058  0.6503 -1.9615
  147MOL0     H19387  -0.213   1.216   6.350 -0.3262 -1.2430 -1.0215
  147MOL0     H19388  -0.285   0.728   6.326 -1.9699 -0.7994  0.6242
  147MOL0     H19389  -0.377   0.532   6.214  2.1067  0.7904  1.7110
  147MOL0     H19390  -0.215   0.388   7.376 -2.3559  2.3592  0.3755
  147MOL0     H19391  -0.137   0.534   7.576  2.1603  2.3537  0.7506
  147MOL0     H19392   0.245   0.627   7.896 -3.5966  0.7093  3.1033
  147MOL0     H19393   0.382   0.780   8.030 -0.2126  0.3754  1.4793
  147MOL0     H19394   0.233   1.175   8.022  0.1421 -1.2724  1.0612
  147MOL0     H19395   0.356   1.229   7.922 -0.6657 -0.8246 -0.7879
  147MOL0     H19396   0.395   1.358   8.116  1.3475 -0.5020  0.0879
  147MOL0     H19397   0.340   1.212   8.219  1.1140 -2.9061  0.1867
  147MOL0     H19398   0.598   1.181   8.069 -1.2683 -1.8101 -0.6859
  147MOL0     H19399   0.551   1.112   8.222 -0.4373 -1.4173 -0.8383
  147MOL0     H19400   0.616   1.410   8.175 -0.9927  2.9149  1.6465
  147MOL0     H19401   0.550   1.351   8.319 -0.3598 -0.8108 -0.6947
  147MOL0     H19402   0.965   1.265   8.362 -1.2231 -0.9896  1.7157
  147MOL0     H19403   0.262   1.101   7.771  1.9070  0.6939  0.9772
  147MOL0     H19404   0.163   0.930   7.613  0.9871  2.7128 -0.4874
  148MOL0     O19405   6.961   5.508  10.499 -0.2637 -0.1347 -0.6088
  148MOL0     C19406   6.993   5.474  10.619 -0.4313 -0.2406  0.4864
  148MOL0     O19407   7.123   5.459  10.659  0.0768  0.4888  0.0865
  148MOL0     C19408   7.235   5.442  10.588 -0.9737 -0.3540  0.2113
  148MOL0     C19409   7.230   5.409  10.450 -0.9295 -0.5887  0.5181
  148MOL0     C19410   7.347   5.400  10.369  0.1085 -0.2010 -0.1842
  148MOL0     C19411   7.471   5.432  10.431 -0.3257  0.1095 -0.6177
  148MOL0     O19412   7.585   5.436  10.353 -0.0198 -0.0475 -0.5346
  148MOL0     C19413   7.667   5.552  10.375 -0.7411 -0.5144 -0.6264
  148MOL0     C19414   7.757   5.575  10.260 -0.3327  0.3520  0.0457
  148MOL0     C19415   7.873   5.684  10.280 -1.1029 -0.1364 -0.6937
  148MOL0     C19416   7.966   5.701  10.157 -0.5354  0.0644 -0.1288
  148MOL0     C19417   8.087   5.783  10.195  0.3881 -0.2385  0.2832
  148MOL0     C19418   8.218   5.700  10.221 -0.4288  0.1068 -0.3057
  148MOL0     C19419   8.341   5.789  10.249  0.0646 -0.1508  0.5104
  148MOL0     C19420   8.442   5.724  10.329 -0.1344  0.0289  0.1721
  148MOL0     N19421   8.473   5.587  10.277  0.2345 -0.7910 -0.7090
  148MOL0     C19422   8.550   5.569  10.163  0.3585 -0.1938 -0.2861
  148MOL0     C19423   8.549   5.436  10.136 -0.4201  0.3783 -0.5063
  148MOL0     C19424   8.617   5.369  10.021 -0.7172  0.0247 -0.4575
  148MOL0     C19425   8.728   5.280  10.084  0.4472  0.0370  0.9451
  148MOL0     C19426   8.791   5.179   9.992 -0.1893  0.7086  0.4718
  148MOL0     C19427   8.819   5.041  10.050  0.6613  0.8039 -0.0947
  148MOL0     O19428   8.916   4.989   9.958  0.2565  0.2801 -0.1725
  148MOL0     C19429   9.005   4.900  10.019 -1.6423 -0.2019  0.5736
  148MOL0     C19430   9.147   4.936  10.006  0.3771 -0.4372  1.0097
  148MOL0     C19431   9.242   4.856  10.073  1.0252 -0.4324 -0.9889
  148MOL0     C19432   9.201   4.746  10.161 -0.3971 -0.2868 -0.2405
  148MOL0     C19433   9.299   4.657  10.230 -0.2524 -0.0711 -0.1940
  148MOL0     O19434   9.434   4.680  10.223  0.1627 -0.2458 -0.6601
  148MOL0     C19435   9.525   4.614  10.308  0.7078  0.1935 -0.2595
  148MOL0     C19436   9.621   4.693  10.375  0.4578  0.0526 -0.3144
  148MOL0     C19437   9.707   4.638  10.475  0.2807 -1.3766  0.6390
  148MOL0     C19438   9.708   4.504  10.500 -0.7487  0.5542  0.3864
  148MOL0     O19439   9.790   4.458  10.599  0.1142  0.7206  0.1075
  148MOL0     C19440   9.907   4.531  10.643  0.0377  0.1603 -0.7565
  148MOL0     C19441   9.872   4.660  10.734 -0.0950  0.2510 -0.9776
  148MOL0     C19442   9.893   4.626  10.876  0.4329 -0.3687 -0.8325
  148MOL0     C19443   9.854   4.749  10.958 -0.2616  0.0781  0.8776
  148MOL0     C19444   9.891   4.739  11.108 -0.6455 -0.0422  0.8459
  148MOL0     C19445   9.807   4.847  11.184 -0.3467 -0.8310  0.5057
  148MOL0     C19446   9.837   4.811  11.335  0.0874 -0.5403  1.0287
  148MOL0     C19447   9.977   4.808  11.389 -0.2797 -0.9469 -0.8381
  148MOL0    Cl19448  10.022   4.975  11.408  0.1008 -0.1496  0.2977
  148MOL0     C19449   9.600   4.427  10.445 -0.3886 -1.0281  1.3157
  148MOL0     C19450   9.522   4.477  10.338  0.5955  0.6673 -0.3122
  148MOL0     O19451   9.240   4.578  10.305 -1.0882 -0.0001  0.5463
  148MOL0     C19452   9.063   4.719  10.167 -0.1647 -0.3550 -0.5646
  148MOL0     C19453   8.973   4.794  10.099  0.6472 -0.3888  0.6784
  148MOL0     N19454   8.480   5.368  10.236 -0.2168 -0.8257  0.1666
  148MOL0     N19455   8.442   5.460  10.320  0.0028  0.8101  0.7446
  148MOL0     C19456   7.467   5.458  10.571 -0.2294 -1.1187 -0.6146
  148MOL0     C19457   7.358   5.458  10.647 -0.2391 -1.4916  0.0077
  148MOL0     C19458   6.884   5.456  10.718 -0.2650 -1.3347 -1.3417
  148MOL0     C19459   6.918   5.436  10.851  0.2240  0.3386 -0.6063
  148MOL0     C19460   6.827   5.412  10.950  0.2199 -0.1688  0.2694
  148MOL0     C19461   6.687   5.418  10.926  0.4733  0.4124 -0.2329
  148MOL0     O19462   6.590   5.374  11.019 -0.2552  0.2388 -0.0375
  148MOL0     C19463   6.620   5.423  11.147 -0.5278 -0.1475  0.0509
  148MOL0     C19464   6.497   5.436  11.239 -0.8948  0.3740 -0.0946
  148MOL0     C19465   6.369   5.496  11.173 -0.7104 -0.2113 -0.0143
  148MOL0     C19466   6.394   5.642  11.156 -0.3595  0.9250 -0.8653
  148MOL0     C19467   6.373   5.709  11.281 -0.0609  0.1263  0.7199
  148MOL0     C19468   6.359   5.762  11.387 -0.9643  0.3358 -0.3628
  148MOL0     C19469   6.647   5.449  10.796  0.2616 -0.2698  0.1711
  148MOL0     C19470   6.750   5.463  10.698  0.9768 -0.3262  0.2343
  148MOL0     H19471   7.139   5.384  10.397  0.6482 -1.1729 -2.0598
  148MOL0     H19472   7.337   5.369  10.265 -0.2621 -0.9380  0.0600
  148MOL0     H19473   7.736   5.525  10.456 -0.5166  0.0888 -0.6089
  148MOL0     H19474   7.623   5.642  10.420 -0.0456 -0.7557  0.5765
  148MOL0     H19475   7.701   5.602  10.170  1.5001 -1.0477 -1.6222
  148MOL0     H19476   7.799   5.475  10.243 -0.6032  0.5609 -2.1863
  148MOL0     H19477   7.930   5.663  10.371  1.0772  4.7611 -0.6100
  148MOL0     H19478   7.825   5.781  10.297  0.5480  0.6667 -0.3987
  148MOL0     H19479   7.998   5.607  10.112  0.9554  0.8517 -0.7747
  148MOL0     H19480   7.911   5.749  10.076  1.5070 -0.4215 -1.8963
  148MOL0     H19481   8.063   5.842  10.284  2.4667  3.7618 -1.5769
  148MOL0     H19482   8.103   5.860  10.119 -0.0390 -3.1410 -3.0392
  148MOL0     H19483   8.235   5.623  10.146 -0.6671 -2.2570  1.9333
  148MOL0     H19484   8.202   5.634  10.306 -0.1396 -0.4247 -0.6602
  148MOL0     H19485   8.384   5.823  10.155  1.8396  0.0914  1.3688
  148MOL0     H19486   8.313   5.888  10.286  0.9301 -0.0673  0.9574
  148MOL0     H19487   8.410   5.706  10.431  1.5652 -1.0124  0.5627
  148MOL0     H19488   8.530   5.788  10.341  0.0284  0.7006 -3.3687
  148MOL0     H19489   8.605   5.650  10.118  1.0827 -0.6377 -0.2189
  148MOL0     H19490   8.673   5.440   9.959 -1.0576  0.0785 -0.7034
  148MOL0     H19491   8.548   5.312   9.959 -0.1583 -1.6353  0.3771
  148MOL0     H19492   8.686   5.226  10.169  3.5687 -2.9103  0.8757
  148MOL0     H19493   8.801   5.345  10.133 -1.7186  3.0456  0.4531
  148MOL0     H19494   8.714   5.153   9.919  2.9296 -2.3682 -2.1313
  148MOL0     H19495   8.873   5.223   9.935  0.6067 -2.6592 -1.2744
  148MOL0     H19496   8.728   4.980  10.044  1.5488 -0.4175 -2.7200
  148MOL0     H19497   8.854   5.052  10.153  2.4660  3.6318 -0.8950
  148MOL0     H19498   9.174   5.024   9.948  1.1984 -0.7365  0.9266
  148MOL0     H19499   9.347   4.882  10.065  0.3348  2.0485 -4.2623
  148MOL0     H19500   9.625   4.801  10.367  4.1131  0.0184 -0.2950
  148MOL0     H19501   9.772   4.717  10.509  0.5663 -0.9522 -0.7973
  148MOL0     H19502   9.961   4.579  10.561  0.0703  2.2000  0.4193
  148MOL0     H19503   9.981   4.462  10.685 -0.7731 -0.7341 -0.7584
  148MOL0     H19504   9.766   4.686  10.726 -0.2269 -0.3788 -1.3692
  148MOL0     H19505   9.940   4.744  10.714 -3.1949  3.4627  0.6818
  148MOL0     H19506   9.996   4.592  10.894 -0.3133 -1.8680  0.7574
  148MOL0     H19507   9.832   4.546  10.918 -0.5206  1.2206  0.9391
  148MOL0     H19508   9.909   4.835  10.918  0.8679 -0.2134  1.7487
  148MOL0     H19509   9.749   4.765  10.936  0.2851 -1.5031 -3.9826
  148MOL0     H19510   9.999   4.744  11.122 -0.0816 -0.2908 -2.5116
  148MOL0     H19511   9.861   4.637  11.135  1.3540 -1.2063 -1.0323
  148MOL0     H19512   9.700   4.843  11.159 -0.4270 -1.6546  0.9389
  148MOL0     H19513   9.838   4.948  11.159 -2.8384 -0.5904 -2.1499
  148MOL0     H19514   9.772   4.863  11.406  2.6661  2.7838  1.2349
  148MOL0     H19515   9.799   4.709  11.334 -0.1605 -0.5719 -2.7377
  148MOL0     H19516  10.042   4.743  11.329 -3.0441 -4.7195 -0.1410
  148MOL0     H19517   9.974   4.765  11.489 -1.3793  0.1775 -0.3579
  148MOL0     H19518   9.594   4.323  10.475 -1.2194 -1.3698  0.0449
  148MOL0     H19519   9.456   4.399  10.302 -0.4552  0.6799  1.4222
  148MOL0     H19520   9.021   4.627  10.208  3.5182 -1.6264  0.7468
  148MOL0     H19521   8.869   4.764  10.106  0.5451 -1.1695 -2.6135
  148MOL0     H19522   7.549   5.476  10.640 -2.3097 -2.7563  2.5381
  148MOL0     H19523   7.367   5.478  10.754 -0.4229 -0.5384 -0.1418
  148MOL0     H19524   7.022   5.428  10.881  0.8511 -0.1705 -2.7415
  148MOL0     H19525   6.879   5.391  11.043  0.2819  2.0065  0.7974
  148MOL0     H19526   6.662   5.524  11.152 -1.1752  0.1630 -0.5908
  148MOL0     H19527   6.696   5.358  11.192  1.0078  2.7004  1.8764
  148MOL0     H19528   6.478   5.330  11.261 -0.8457  0.7030  1.6631
  148MOL0     H19529   6.526   5.492  11.328  0.1835  0.4603 -0.4825
  148MOL0     H19530   6.280   5.470  11.230 -0.7762 -1.1606 -0.5251
  148MOL0     H19531   6.355   5.465  11.069 -0.5687  3.7184 -1.3449
  148MOL0     H19532   6.493   5.666  11.115 -0.2954  3.7134  0.6884
  148MOL0     H19533   6.312   5.680  11.095 -2.3551  0.1291  1.1848
  148MOL0     H19534   6.355   5.815  11.480 -1.3441 -1.6110  0.7855
  148MOL0     H19535   6.543   5.461  10.767 -0.4244 -3.0407  1.1676
  148MOL0     H19536   6.724   5.505  10.601 -1.3226  4.1309  2.4580
  149MOL0     O19537   6.289   2.513  10.354 -0.3638  0.6677 -0.2701
  149MOL0     C19538   6.347   2.452  10.268 -0.0380  0.3678  1.0819
  149MOL0     O19539   6.294   2.412  10.151  0.1241  0.1530 -0.3307
  149MOL0     C19540   6.166   2.459  10.126 -0.1574  0.1351  0.7299
  149MOL0     C19541   6.044   2.387  10.154 -0.7342  0.2229 -0.0135
  149MOL0     C19542   5.908   2.435  10.135  0.3006  0.3871  0.7702
  149MOL0     C19543   5.894   2.565  10.076  0.6913  0.4324 -0.2266
  149MOL0     O19544   5.775   2.630  10.053  0.2019 -0.8479 -0.3984
  149MOL0     C19545   5.661   2.552  10.033 -0.1870  0.2218 -0.0253
  149MOL0     C19546   5.551   2.654  10.009  0.4467 -0.3961 -0.1683
  149MOL0     C19547   5.410   2.597  10.038 -0.2967  0.2299  0.0307
  149MOL0     C19548   5.311   2.714  10.039  0.1449 -0.0877 -0.1469
  149MOL0     C19549   5.162   2.659  10.035  0.2502 -0.4338  0.0491
  149MOL0     C19550   5.120   2.592   9.900 -0.3760  0.3250  0.8217
  149MOL0     C19551   4.962   2.544   9.906  0.6544  0.5357  0.1411
  149MOL0     C19552   4.864   2.662   9.895 -0.0829  0.3556 -0.7724
  149MOL0     N19553   4.848   2.712   9.761 -0.1885 -0.5463  0.4920
  149MOL0     C19554   4.925   2.683   9.653  0.8236 -0.8373  0.0380
  149MOL0     C19555   4.887   2.761   9.556  0.3698 -0.4769 -0.4813
  149MOL0     C19556   4.957   2.775   9.429 -0.6713 -0.9936  0.2356
  149MOL0     C19557   5.080   2.683   9.421 -0.7114  0.1861  0.5352
  149MOL0     C19558   5.145   2.679   9.279 -1.3017  0.2713 -0.0217
  149MOL0     C19559   5.203   2.809   9.224 -0.0467  0.8635 -0.7853
  149MOL0     O19560   5.107   2.906   9.186  0.0363 -0.4078 -0.3794
  149MOL0     C19561   5.155   3.038   9.191  0.0020 -0.1669 -0.5601
  149MOL0     C19562   5.280   3.090   9.152 -0.6990  0.3731  0.1891
  149MOL0     C19563   5.324   3.222   9.161 -0.0870 -0.0339 -0.4476
  149MOL0     C19564   5.234   3.319   9.202  0.1881 -0.1314  0.1368
  149MOL0     C19565   5.279   3.467   9.209  0.6342  1.0123  1.2298
  149MOL0     O19566   5.394   3.506   9.141 -0.0888  0.7039 -0.1701
  149MOL0     C19567   5.443   3.634   9.169  0.0437  0.3650  0.3359
  149MOL0     C19568   5.441   3.697   9.295 -0.4100 -0.6131  0.3034
  149MOL0     C19569   5.489   3.835   9.314 -0.4243  0.8236  0.3049
  149MOL0     C19570   5.543   3.898   9.202  0.4727 -0.1183  0.7872
  149MOL0     O19571   5.592   4.024   9.199 -1.1479  0.7502  0.5865
  149MOL0     C19572   5.571   4.105   9.318 -0.1872 -0.2838 -0.1493
  149MOL0     C19573   5.590   4.252   9.283  1.2071 -0.0932 -0.2122
  149MOL0     C19574   5.456   4.314   9.231 -0.4556  0.1405 -0.5392
  149MOL0     C19575   5.483   4.456   9.183 -0.2121  0.4076 -1.6523
  149MOL0     C19576   5.457   4.560   9.300 -0.1327  0.3307  0.0364
  149MOL0     C19577   5.460   4.713   9.257  0.0351  0.3095 -0.8305
  149MOL0     C19578   5.604   4.760   9.233 -0.0567 -0.3348 -0.0909
  149MOL0     C19579   5.606   4.906   9.209  0.8956  0.1509 -0.1540
  149MOL0    Cl19580   5.774   4.962   9.179  0.0654  0.2408 -0.0936
  149MOL0     C19581   5.565   3.815   9.085 -0.1980 -0.8008  0.0817
  149MOL0     C19582   5.510   3.693   9.063 -0.2457 -0.8977 -0.0571
  149MOL0     O19583   5.201   3.537   9.266  0.4601 -0.3377  0.6750
  149MOL0     C19584   5.107   3.271   9.241 -0.0632 -0.1812 -0.0111
  149MOL0     C19585   5.064   3.139   9.237 -0.5928  0.4124 -0.9726
  149MOL0     N19586   4.777   2.833   9.594 -0.2534 -0.3675  0.2002
  149MOL0     N19587   4.761   2.816   9.724 -1.0198 -0.0277  0.5235
  149MOL0     C19588   6.018   2.636  10.044  0.4954 -0.1506  0.2734
  149MOL0     C19589   6.152   2.585  10.059 -0.1818 -0.0098  0.9265
  149MOL0     C19590   6.484   2.399  10.293 -0.2852 -0.0765  0.1266
  149MOL0     C19591   6.577   2.487  10.351  1.0484 -0.1614  0.8434
  149MOL0     C19592   6.709   2.444  10.377  0.3677 -0.6608  0.6239
  149MOL0     C19593   6.741   2.313  10.345  0.8121 -0.2981 -0.2182
  149MOL0     O19594   6.878   2.269  10.352  0.7575 -0.1909 -0.2087
  149MOL0     C19595   6.982   2.336  10.438  0.3427  0.6154  0.5630
  149MOL0     C19596   7.093   2.232  10.447 -0.7826  0.6087  0.2662
  149MOL0     C19597   7.058   2.104  10.520  0.8998  0.1935 -0.0874
  149MOL0     C19598   7.144   1.983  10.479 -0.6111  0.4911 -0.4826
  149MOL0     C19599   7.287   1.986  10.497 -0.1448 -0.3579  0.1957
  149MOL0     C19600   7.413   2.005  10.499  0.3430  0.0581  0.2500
  149MOL0     C19601   6.651   2.232  10.294 -0.1237 -0.0136  0.3993
  149MOL0     C19602   6.521   2.265  10.266  0.1757 -0.2674  0.6278
  149MOL0     H19603   6.061   2.289  10.198 -1.9917  0.4667  1.0774
  149MOL0     H19604   5.820   2.378  10.162 -0.5224  2.0030  1.6442
  149MOL0     H19605   5.641   2.496  10.124 -4.0073 -0.5029 -1.1339
  149MOL0     H19606   5.689   2.496   9.943  2.6540 -2.7169  2.4220
  149MOL0     H19607   5.563   2.695   9.909  3.0183  0.2049  0.2908
  149MOL0     H19608   5.563   2.733  10.084 -3.0536  0.6404 -0.5603
  149MOL0     H19609   5.399   2.538  10.129 -0.1298  0.9205  0.5072
  149MOL0     H19610   5.378   2.539   9.950 -1.2593  0.9038 -0.0873
  149MOL0     H19611   5.295   2.764  10.135 -3.4956  0.1061 -0.7180
  149MOL0     H19612   5.331   2.786   9.958  1.7881 -0.0954  0.2230
  149MOL0     H19613   5.094   2.744  10.049 -1.5780 -2.0841  2.0499
  149MOL0     H19614   5.134   2.587  10.113 -0.9041 -0.1392 -0.0683
  149MOL0     H19615   5.186   2.505   9.888 -0.4925  0.1631  1.3012
  149MOL0     H19616   5.139   2.664   9.821 -1.9014 -1.8428 -1.6783
  149MOL0     H19617   4.933   2.483   9.819 -2.9661  0.2636  1.3685
  149MOL0     H19618   4.963   2.482   9.996  3.2684 -0.6860 -0.6295
  149MOL0     H19619   4.894   2.741   9.964  1.1659 -2.2411  1.9230
  149MOL0     H19620   4.766   2.618   9.917  0.0225 -0.2000 -1.3842
  149MOL0     H19621   5.010   2.614   9.648  0.2388 -1.5003 -1.5168
  149MOL0     H19622   4.986   2.880   9.423  1.0843 -1.4566  0.0365
  149MOL0     H19623   4.883   2.748   9.353 -1.5444  2.9322 -0.4871
  149MOL0     H19624   5.061   2.576   9.434  0.4009 -0.1579 -0.4694
  149MOL0     H19625   5.156   2.726   9.487 -0.6080 -0.3266  0.7586
  149MOL0     H19626   5.226   2.607   9.293 -2.6466 -0.7762  3.2209
  149MOL0     H19627   5.065   2.640   9.215 -0.4899 -2.1548  0.3523
  149MOL0     H19628   5.263   2.778   9.138  0.4777 -2.5583  0.6493
  149MOL0     H19629   5.277   2.836   9.301 -0.2718  0.7122 -0.5149
  149MOL0     H19630   5.342   3.016   9.102  0.6413  1.1603  0.6405
  149MOL0     H19631   5.426   3.256   9.142 -0.2644 -0.0085 -1.4007
  149MOL0     H19632   5.397   3.636   9.374  0.9214 -0.0084  1.5471
  149MOL0     H19633   5.476   3.893   9.405  0.6124  2.3294 -0.4840
  149MOL0     H19634   5.652   4.081   9.388 -0.5411  1.2197  0.8103
  149MOL0     H19635   5.477   4.096   9.372  0.1308  2.7444  1.1026
  149MOL0     H19636   5.675   4.252   9.215  4.5349 -1.8236  3.5637
  149MOL0     H19637   5.627   4.312   9.366  0.7387  0.3434 -0.3100
  149MOL0     H19638   5.385   4.308   9.314  0.9073 -2.1735  0.5625
  149MOL0     H19639   5.409   4.259   9.149 -1.6359  1.9991 -1.1760
  149MOL0     H19640   5.586   4.476   9.153  0.6395  3.4014  2.3554
  149MOL0     H19641   5.428   4.478   9.092 -2.2562  0.1059 -0.5582
  149MOL0     H19642   5.538   4.537   9.370  1.5322 -3.0221 -2.6635
  149MOL0     H19643   5.362   4.529   9.346  0.7153 -2.8050 -0.0865
  149MOL0     H19644   5.425   4.770   9.343 -0.3096  0.3674 -1.0089
  149MOL0     H19645   5.404   4.727   9.164  2.4630 -2.5890 -2.9390
  149MOL0     H19646   5.655   4.733   9.326  0.9042 -2.5918 -1.1757
  149MOL0     H19647   5.646   4.711   9.145 -1.0745  0.0820 -0.8263
  149MOL0     H19648   5.560   4.957   9.294  1.3187  3.2068 -1.6216
  149MOL0     H19649   5.538   4.928   9.127 -0.8334  0.3524  1.2678
  149MOL0     H19650   5.609   3.858   8.996 -1.2153  0.7764  0.3040
  149MOL0     H19651   5.520   3.650   8.964  0.1976 -2.2769  0.5587
  149MOL0     H19652   5.043   3.340   9.295  2.1139  2.5734 -0.7440
  149MOL0     H19653   4.963   3.113   9.267 -1.6885  1.1735 -3.6608
  149MOL0     H19654   6.006   2.735  10.000  1.1116 -0.8148 -1.4789
  149MOL0     H19655   6.244   2.632  10.026 -1.0934 -0.6041 -2.9656
  149MOL0     H19656   6.552   2.590  10.374  1.7789 -0.7396  5.0064
  149MOL0     H19657   6.781   2.520  10.407 -0.2264  0.5943 -0.9648
  149MOL0     H19658   6.924   2.342  10.530 -1.1406 -1.9850 -0.0901
  149MOL0     H19659   7.018   2.434  10.404 -0.4845  1.5100  2.1776
  149MOL0     H19660   7.123   2.206  10.345 -4.2365 -0.4956 -0.5879
  149MOL0     H19661   7.184   2.275  10.491  0.4927 -3.0746  1.5994
  149MOL0     H19662   6.956   2.071  10.498  1.5976 -0.7930 -2.0510
  149MOL0     H19663   7.068   2.119  10.628  0.4494  0.3255 -0.0650
  149MOL0     H19664   7.106   1.899  10.538 -1.2876  2.5617  2.2117
  149MOL0     H19665   7.121   1.968  10.373 -2.2921  3.1376 -0.5802
  149MOL0     H19666   7.519   2.005  10.484  0.0612  2.1241 -2.3886
  149MOL0     H19667   6.681   2.127  10.289  1.0107  0.2988  0.2618
  149MOL0     H19668   6.455   2.191  10.222  2.1620 -1.0399 -1.1864
  150MOL0     O19669   4.249   0.784   1.889  0.5925  0.9943 -0.4209
  150MOL0     C19670   4.312   0.880   1.845 -0.8104 -0.4668  0.5020
  150MOL0     O19671   4.446   0.880   1.835 -0.2462 -0.6656  0.4938
  150MOL0     C19672   4.528   0.776   1.869 -0.3040 -0.0584  0.1694
  150MOL0     C19673   4.506   0.689   1.978  0.7099  0.5728  0.8457
  150MOL0     C19674   4.583   0.576   2.008 -0.3191 -1.1268 -0.2449
  150MOL0     C19675   4.694   0.555   1.920  0.0461  0.7993  0.2704
  150MOL0     O19676   4.788   0.448   1.933 -0.4373 -0.3397  0.5623
  150MOL0     C19677   4.740   0.315   1.967 -0.5867 -0.1653  1.1873
  150MOL0     C19678   4.858   0.239   2.024  0.5820  0.6943  0.2445
  150MOL0     C19679   4.944   0.203   1.910  0.5257 -0.5897  0.1154
  150MOL0     C19680   5.066   0.121   1.941  0.3489 -0.8485  0.2860
  150MOL0     C19681   5.131   0.084   1.807 -0.2624 -0.9092  0.7399
  150MOL0     C19682   5.258   0.162   1.780 -0.1984  0.3528  0.3483
  150MOL0     C19683   5.313   0.146   1.637  0.3191 -0.1190  0.2821
  150MOL0     C19684   5.383   0.018   1.628 -0.4854 -0.5318  0.4956
  150MOL0     N19685   5.425  -0.020   1.485 -0.5961  0.6573 -0.0465
  150MOL0     C19686   5.339  -0.045   1.381 -0.8198  1.3071 -0.6610
  150MOL0     C19687   5.416  -0.100   1.282 -0.4696 -0.0358 -0.6929
  150MOL0     C19688   5.378  -0.129   1.143 -0.0269 -0.3444 -0.2802
  150MOL0     C19689   5.287  -0.254   1.146 -0.1616 -0.1947 -0.4190
  150MOL0     C19690   5.340  -0.384   1.222 -0.2083 -1.0228  0.4026
  150MOL0     C19691   5.225  -0.487   1.235  0.3264 -0.9203 -0.1886
  150MOL0     O19692   5.130  -0.428   1.330 -0.2140  0.6086  0.2146
  150MOL0     C19693   5.019  -0.505   1.355  0.2333  0.5047 -0.1053
  150MOL0     C19694   4.936  -0.438   1.444 -0.1325  1.7333  0.8829
  150MOL0     C19695   4.800  -0.475   1.445  0.6867  0.3514 -0.3319
  150MOL0     C19696   4.752  -0.571   1.366  0.4050  0.3863 -0.0544
  150MOL0     C19697   4.607  -0.614   1.353  0.9789 -0.0512 -0.3095
  150MOL0     O19698   4.518  -0.560   1.443 -0.7817 -0.3757 -0.5342
  150MOL0     C19699   4.385  -0.585   1.449 -0.0775  1.0082  0.6627
  150MOL0     C19700   4.301  -0.475   1.445 -0.1422  0.3070 -0.2071
  150MOL0     C19701   4.164  -0.492   1.429 -0.5080  0.7166  0.0139
  150MOL0     C19702   4.107  -0.625   1.423 -0.8269 -0.8516 -0.3130
  150MOL0     O19703   3.977  -0.654   1.396  0.9505  0.0309  0.1122
  150MOL0     C19704   3.922  -0.592   1.283 -0.2307 -0.5114  0.3851
  150MOL0     C19705   3.775  -0.593   1.290 -0.7084  1.0362 -0.0845
  150MOL0     C19706   3.732  -0.740   1.299  0.5139 -0.0942 -0.1717
  150MOL0     C19707   3.583  -0.741   1.307  1.0647 -0.6105 -0.2728
  150MOL0     C19708   3.516  -0.723   1.452 -0.0482 -0.3962 -0.4768
  150MOL0     C19709   3.513  -0.855   1.534 -0.7632 -0.6065 -0.4851
  150MOL0     C19710   3.433  -0.812   1.664  1.3913  0.1928 -0.3441
  150MOL0     C19711   3.392  -0.934   1.748 -0.5594  0.1249 -0.4158
  150MOL0    Cl19712   3.291  -1.045   1.661 -0.1276 -0.3658  0.1078
  150MOL0     C19713   4.194  -0.734   1.454 -0.4641 -0.0069 -0.2040
  150MOL0     C19714   4.329  -0.711   1.460  1.4173  0.2451  0.3871
  150MOL0     O19715   4.574  -0.686   1.253 -1.4624 -0.4670 -0.2699
  150MOL0     C19716   4.836  -0.651   1.297 -0.3483 -0.2075  0.8363
  150MOL0     C19717   4.973  -0.620   1.284 -0.5468 -0.5737  0.0515
  150MOL0     N19718   5.551  -0.102   1.325  0.1851  0.7473 -0.1947
  150MOL0     N19719   5.555  -0.052   1.445 -0.0513  0.6627 -0.3149
  150MOL0     C19720   4.733   0.651   1.827  0.3456 -0.0751  0.3056
  150MOL0     C19721   4.652   0.762   1.798 -1.2773 -0.3653  0.0596
  150MOL0     C19722   4.233   1.007   1.799 -1.2634  0.1448 -0.0803
  150MOL0     C19723   4.309   1.122   1.758 -0.2435 -0.2911  0.0796
  150MOL0     C19724   4.236   1.215   1.691 -0.0263 -0.3433 -0.3415
  150MOL0     C19725   4.103   1.213   1.682 -0.3201  0.3085  0.1040
  150MOL0     O19726   4.058   1.320   1.623 -0.6818  0.1817  0.3756
  150MOL0     C19727   3.938   1.307   1.546  0.0582 -0.0167  0.6524
  150MOL0     C19728   3.915   1.424   1.446  0.5570  0.9491  0.2611
  150MOL0     C19729   3.769   1.454   1.409 -0.1945  1.6465 -0.6038
  150MOL0     C19730   3.766   1.558   1.295  0.3166 -0.3404 -0.6447
  150MOL0     C19731   3.836   1.680   1.317 -0.2981 -0.2971  1.6339
  150MOL0     C19732   3.916   1.767   1.338  0.6192 -0.3451  0.1494
  150MOL0     C19733   4.033   1.114   1.736  0.6960  0.9681 -0.5521
  150MOL0     C19734   4.089   1.007   1.793 -0.1803  0.5790  0.5035
  150MOL0     H19735   4.426   0.723   2.044  1.1868  1.9622  0.7545
  150MOL0     H19736   4.556   0.513   2.091  2.0924 -1.5793  0.2811
  150MOL0     H19737   4.702   0.274   1.873  0.5813  1.2489  0.0417
  150MOL0     H19738   4.657   0.323   2.038 -0.2978  1.4065  1.3842
  150MOL0     H19739   4.823   0.154   2.085  0.5114 -1.0547 -2.0930
  150MOL0     H19740   4.911   0.307   2.091  0.6917  2.6636 -1.7495
  150MOL0     H19741   4.993   0.292   1.869  0.5864  0.1048  1.6277
  150MOL0     H19742   4.888   0.149   1.834 -0.0772 -0.6292  0.5812
  150MOL0     H19743   5.137   0.181   1.999  1.1094 -0.4871 -0.9907
  150MOL0     H19744   5.041   0.030   1.997 -0.1350 -2.3309 -2.1800
  150MOL0     H19745   5.065   0.092   1.721 -2.2053 -2.6016  1.9766
  150MOL0     H19746   5.152  -0.024   1.805  0.7753 -0.7256 -1.7925
  150MOL0     H19747   5.334   0.130   1.851 -3.4395  1.8519  4.9341
  150MOL0     H19748   5.244   0.270   1.793 -1.0437  0.1985  0.7945
  150MOL0     H19749   5.230   0.164   1.568  2.2810  1.8874 -1.6996
  150MOL0     H19750   5.388   0.220   1.608  0.2143  0.7615  2.0969
  150MOL0     H19751   5.319  -0.058   1.675 -0.6800 -0.2714  0.6487
  150MOL0     H19752   5.478   0.015   1.680  0.2090  1.2417 -0.6053
  150MOL0     H19753   5.236  -0.012   1.369 -0.8544  1.9581  1.1166
  150MOL0     H19754   5.473  -0.145   1.090 -0.1762 -0.4619 -0.5133
  150MOL0     H19755   5.328  -0.040   1.105  2.0719  1.7283  1.5315
  150MOL0     H19756   5.260  -0.286   1.045 -0.9813 -3.8329  0.8045
  150MOL0     H19757   5.195  -0.223   1.196 -0.0693 -1.6096  0.6978
  150MOL0     H19758   5.424  -0.421   1.164 -1.4487 -2.8564 -0.3135
  150MOL0     H19759   5.381  -0.359   1.320 -1.8004  1.9431  0.4193
  150MOL0     H19760   5.277  -0.575   1.275 -0.1854  0.1450  3.0844
  150MOL0     H19761   5.170  -0.507   1.142 -0.4662  1.0785 -0.1897
  150MOL0     H19762   4.970  -0.353   1.502  0.2902  2.5279 -0.4967
  150MOL0     H19763   4.730  -0.408   1.495 -2.1216  0.0993 -3.5681
  150MOL0     H19764   4.337  -0.374   1.428 -0.5680  0.6510  0.8720
  150MOL0     H19765   4.107  -0.400   1.421  2.2544  2.5542  0.0142
  150MOL0     H19766   3.959  -0.643   1.193 -1.1252 -2.1823  0.9224
  150MOL0     H19767   3.962  -0.491   1.270  1.4844 -1.1247  0.6470
  150MOL0     H19768   3.734  -0.550   1.198 -0.1460  0.2800 -0.7054
  150MOL0     H19769   3.750  -0.542   1.383  0.6179  1.3289  0.1270
  150MOL0     H19770   3.768  -0.798   1.385  2.3110  0.5450 -0.4350
  150MOL0     H19771   3.752  -0.790   1.205 -3.7923  0.8956 -1.8534
  150MOL0     H19772   3.536  -0.670   1.238 -1.4843 -3.5462 -1.7893
  150MOL0     H19773   3.556  -0.839   1.266 -1.5738 -0.3040  0.5464
  150MOL0     H19774   3.415  -0.688   1.426  0.2487 -0.8194 -2.3533
  150MOL0     H19775   3.557  -0.644   1.517  3.1166 -2.4199  0.1673
  150MOL0     H19776   3.611  -0.893   1.567  0.1182  3.8043  3.0227
  150MOL0     H19777   3.466  -0.938   1.481  0.6433 -1.1310 -0.9551
  150MOL0     H19778   3.485  -0.750   1.737  1.8915 -0.5206 -0.0865
  150MOL0     H19779   3.342  -0.756   1.641  1.5419  1.7281  2.3947
  150MOL0     H19780   3.344  -0.905   1.842 -0.4746  0.2046 -0.3967
  150MOL0     H19781   3.483  -0.983   1.783 -0.8971  0.1876  0.5746
  150MOL0     H19782   4.147  -0.832   1.455 -2.5146  0.8437 -2.6155
  150MOL0     H19783   4.383  -0.803   1.475 -1.7188 -2.1086 -1.4538
  150MOL0     H19784   4.807  -0.739   1.242 -0.5363 -0.4009  1.2378
  150MOL0     H19785   5.041  -0.683   1.228 -1.2615 -0.4960 -0.9193
  150MOL0     H19786   4.830   0.642   1.779  0.2654 -2.1245  0.4383
  150MOL0     H19787   4.684   0.829   1.718  1.5129 -1.4227  0.1520
  150MOL0     H19788   4.417   1.131   1.768 -0.2259 -2.0296  2.1257
  150MOL0     H19789   4.296   1.291   1.643 -0.7185 -1.7992 -3.8386
  150MOL0     H19790   3.855   1.310   1.618  2.0725  1.0458  3.0672
  150MOL0     H19791   3.939   1.214   1.488  0.8906 -0.5694  1.5291
  150MOL0     H19792   3.954   1.518   1.488  1.3728  2.0305 -2.6472
  150MOL0     H19793   3.972   1.413   1.353 -1.0316  1.4206 -0.8247
  150MOL0     H19794   3.719   1.483   1.502 -0.7306 -0.3519 -0.2282
  150MOL0     H19795   3.709   1.368   1.379  0.2577  1.4165 -0.8558
  150MOL0     H19796   3.815   1.508   1.211 -0.4206 -1.0706 -0.6569
  150MOL0     H19797   3.666   1.590   1.262 -0.1133  0.3353  1.2116
  150MOL0     H19798   3.973   1.853   1.367  0.5636 -0.0925 -0.4856
  150MOL0     H19799   3.926   1.102   1.721  0.0946  3.6715  0.9639
  150MOL0     H19800   4.037   0.917   1.824 -0.9064  0.0825 -1.9764
  151MOL0     O19801   5.091   1.579   8.012 -0.2513 -0.4753  0.3508
  151MOL0     C19802   5.102   1.559   8.130 -0.4018 -1.3396  0.2876
  151MOL0     O19803   5.184   1.465   8.186 -0.6070 -0.3637  0.7339
  151MOL0     C19804   5.289   1.411   8.114  0.2039  0.0924  0.2447
  151MOL0     C19805   5.359   1.458   8.002 -0.1900 -0.6405  0.2686
  151MOL0     C19806   5.470   1.391   7.939  0.5180 -0.4709 -0.9225
  151MOL0     C19807   5.521   1.276   7.995 -0.1690  0.1946 -0.2338
  151MOL0     O19808   5.629   1.216   7.944 -0.7902 -0.2991  0.3162
  151MOL0     C19809   5.704   1.124   8.029 -0.0654 -0.5090  1.0175
  151MOL0     C19810   5.841   1.097   7.975 -0.1401  0.2436 -0.2768
  151MOL0     C19811   5.845   1.055   7.827 -0.0264 -0.6072  0.1914
  151MOL0     C19812   5.877   1.162   7.729  0.1470  0.5461 -0.2579
  151MOL0     C19813   5.846   1.102   7.586  0.3247  0.7120 -0.7276
  151MOL0     C19814   5.803   1.221   7.501  1.2469 -0.1479 -0.1694
  151MOL0     C19815   5.657   1.263   7.507 -0.2939  0.6380  0.1938
  151MOL0     C19816   5.625   1.379   7.409  0.0340 -0.0358 -0.5112
  151MOL0     N19817   5.488   1.418   7.425  0.1024  0.7449 -0.2730
  151MOL0     C19818   5.378   1.348   7.378 -0.9431  0.0028  0.7524
  151MOL0     C19819   5.272   1.411   7.437  0.3289  0.1016 -0.3955
  151MOL0     C19820   5.130   1.368   7.415 -0.0560  0.1528 -0.0910
  151MOL0     C19821   5.037   1.491   7.392 -0.4623  0.8919 -0.0850
  151MOL0     C19822   4.888   1.440   7.378  0.2684 -0.3115 -0.5044
  151MOL0     C19823   4.795   1.555   7.353 -0.0091 -0.3317 -0.4081
  151MOL0     O19824   4.660   1.511   7.364  0.0706 -0.9282 -0.0711
  151MOL0     C19825   4.565   1.614   7.350  0.1247  0.1022  0.5040
  151MOL0     C19826   4.431   1.566   7.355  0.1949  0.1255 -0.9257
  151MOL0     C19827   4.322   1.657   7.345 -0.3572  0.1317  0.7744
  151MOL0     C19828   4.341   1.792   7.360  0.2860 -0.3441 -0.4992
  151MOL0     C19829   4.233   1.893   7.349 -0.4120 -0.2109 -0.1356
  151MOL0     O19830   4.108   1.839   7.358  0.2604  0.7750 -0.4194
  151MOL0     C19831   4.001   1.915   7.373 -0.0604 -0.5737 -0.4935
  151MOL0     C19832   3.998   2.027   7.458  0.6615 -0.6042 -0.5004
  151MOL0     C19833   3.875   2.101   7.486  0.0229  0.5732  0.2605
  151MOL0     C19834   3.760   2.057   7.417  1.2771 -0.0286 -0.4050
  151MOL0     O19835   3.644   2.132   7.431 -0.3652 -0.0186 -0.3404
  151MOL0     C19836   3.543   2.050   7.485  0.2354 -0.0010  1.0948
  151MOL0     C19837   3.416   2.138   7.485  0.8124  0.0057 -0.1765
  151MOL0     C19838   3.319   2.116   7.607 -0.4854  0.4164  0.0153
  151MOL0     C19839   3.180   2.163   7.585  0.1571  0.5529  0.2950
  151MOL0     C19840   3.091   2.138   7.703  0.4644  0.2440 -1.0067
  151MOL0     C19841   2.938   2.186   7.691  0.2125  0.3837  0.5620
  151MOL0     C19842   2.867   2.114   7.572 -0.6205  0.2551 -0.3118
  151MOL0     C19843   2.721   2.134   7.552  0.4530  0.6982 -0.2750
  151MOL0    Cl19844   2.665   2.058   7.402  0.0793 -0.1950  0.3080
  151MOL0     C19845   3.766   1.959   7.313 -0.4086 -0.0144 -0.5453
  151MOL0     C19846   3.881   1.883   7.309 -0.9597  0.5294  0.1814
  151MOL0     O19847   4.253   2.014   7.326 -0.2347  0.0647 -0.5501
  151MOL0     C19848   4.470   1.842   7.353  0.0402  0.5923 -0.1930
  151MOL0     C19849   4.586   1.758   7.350  0.2396  0.3897 -0.7998
  151MOL0     N19850   5.318   1.497   7.527 -0.7996 -0.9312  0.3132
  151MOL0     N19851   5.442   1.497   7.522  0.9444  0.0749  0.3562
  151MOL0     C19852   5.438   1.221   8.101  0.3419  0.4925 -0.9322
  151MOL0     C19853   5.336   1.287   8.160 -0.5123 -0.3700 -0.4368
  151MOL0     C19854   5.003   1.622   8.216 -0.4782  1.2529  0.5411
  151MOL0     C19855   4.987   1.581   8.351  0.8201  0.3527 -0.0954
  151MOL0     C19856   4.892   1.631   8.434  0.0336 -0.0194 -0.8544
  151MOL0     C19857   4.816   1.733   8.379 -0.4567  0.4620 -0.4145
  151MOL0     O19858   4.726   1.782   8.470  0.6011 -0.5392 -0.4636
  151MOL0     C19859   4.624   1.868   8.419  1.3360 -0.4628  0.0625
  151MOL0     C19860   4.507   1.873   8.521 -0.1316 -0.2923 -0.1659
  151MOL0     C19861   4.417   1.753   8.515  0.4398  1.1611  0.0588
  151MOL0     C19862   4.304   1.762   8.618  0.5229 -0.0785  0.2980
  151MOL0     C19863   4.215   1.655   8.610 -0.0542 -0.3896  0.5334
  151MOL0     C19864   4.135   1.562   8.601 -0.4705 -0.2329 -0.2564
  151MOL0     C19865   4.819   1.779   8.247  0.4323  0.4858 -0.2859
  151MOL0     C19866   4.930   1.726   8.167  0.1806 -0.0415 -0.1993
  151MOL0     H19867   5.336   1.551   7.950  0.1091 -1.0964 -0.6999
  151MOL0     H19868   5.509   1.440   7.851  2.5885  1.8169  1.1121
  151MOL0     H19869   5.649   1.030   8.028  1.2506 -1.3248 -1.1208
  151MOL0     H19870   5.715   1.165   8.130  1.4739 -0.9255  1.0345
  151MOL0     H19871   5.884   1.013   8.029  4.2117  1.2558 -1.7858
  151MOL0     H19872   5.907   1.180   8.000 -0.1168  0.2100 -0.2268
  151MOL0     H19873   5.750   1.005   7.810 -2.2346  2.3541  2.6774
  151MOL0     H19874   5.930   0.990   7.807  0.0760 -0.2845 -0.4521
  151MOL0     H19875   5.805   1.242   7.744 -0.6200 -0.3631  1.2710
  151MOL0     H19876   5.982   1.193   7.731 -0.4305  2.9162 -2.5251
  151MOL0     H19877   5.764   1.031   7.593 -0.8642  2.1743  1.5256
  151MOL0     H19878   5.938   1.063   7.542 -1.5509  0.6596 -5.0920
  151MOL0     H19879   5.818   1.189   7.398  0.7645  0.4204 -0.4246
  151MOL0     H19880   5.857   1.315   7.509  0.1154  0.4522  0.7499
  151MOL0     H19881   5.595   1.175   7.491  1.0817 -0.3483  0.0487
  151MOL0     H19882   5.629   1.298   7.606  3.8536  1.0973  1.3953
  151MOL0     H19883   5.631   1.352   7.303 -1.5261 -1.7766 -0.2099
  151MOL0     H19884   5.700   1.457   7.424 -0.7515  0.8132 -0.9404
  151MOL0     H19885   5.373   1.264   7.309 -0.8135  2.2660 -2.1930
  151MOL0     H19886   5.108   1.316   7.509  3.4123  1.1799  1.4660
  151MOL0     H19887   5.109   1.290   7.342 -2.3229  0.9303 -0.3430
  151MOL0     H19888   5.068   1.548   7.304  0.6522  0.4784  0.0323
  151MOL0     H19889   5.038   1.548   7.485 -3.1165 -0.7112  1.0398
  151MOL0     H19890   4.874   1.370   7.296  1.2834  1.4395 -2.2446
  151MOL0     H19891   4.865   1.380   7.467  3.7507 -2.0824 -0.6242
  151MOL0     H19892   4.810   1.586   7.249 -0.4390 -2.6179 -1.2093
  151MOL0     H19893   4.806   1.641   7.419  0.9776 -0.8918  0.1814
  151MOL0     H19894   4.407   1.460   7.356  3.5618 -0.8207  1.6079
  151MOL0     H19895   4.218   1.624   7.342 -0.3538  0.1746 -2.2440
  151MOL0     H19896   4.080   2.057   7.522 -2.2081  2.1387  2.2813
  151MOL0     H19897   3.877   2.185   7.554 -0.9917  0.9262 -0.1285
  151MOL0     H19898   3.573   2.039   7.590  3.1890  1.8524  0.5720
  151MOL0     H19899   3.526   1.950   7.444  1.3896  0.1707  0.1580
  151MOL0     H19900   3.357   2.127   7.393  0.0112 -1.0520  0.4436
  151MOL0     H19901   3.436   2.246   7.493 -1.8089  0.4094  3.5473
  151MOL0     H19902   3.365   2.163   7.694  0.5860  1.5767 -1.1233
  151MOL0     H19903   3.315   2.007   7.618  0.3569  0.3181 -0.5349
  151MOL0     H19904   3.189   2.268   7.556  2.3951  0.2166 -0.4355
  151MOL0     H19905   3.143   2.119   7.491  3.0464 -0.4037 -0.4780
  151MOL0     H19906   3.121   2.193   7.793 -1.4114  2.3928 -1.6075
  151MOL0     H19907   3.089   2.033   7.734  0.1308 -0.2756 -2.6738
  151MOL0     H19908   2.936   2.294   7.672  2.8895  0.5006  0.5624
  151MOL0     H19909   2.884   2.150   7.778 -1.7974 -1.6430 -1.3812
  151MOL0     H19910   2.921   2.147   7.482 -1.1637 -1.4824 -1.3374
  151MOL0     H19911   2.880   2.005   7.578 -0.4853  0.3579  3.5728
  151MOL0     H19912   2.691   2.239   7.564 -6.4713 -0.9615  1.2443
  151MOL0     H19913   2.660   2.090   7.632 -2.0015  1.3026 -1.6964
  151MOL0     H19914   3.681   1.936   7.248 -0.5281  1.3796 -0.9106
  151MOL0     H19915   3.893   1.789   7.256 -0.3928 -1.2113  3.1500
  151MOL0     H19916   4.478   1.950   7.351 -0.3113  0.6466  0.7619
  151MOL0     H19917   4.684   1.805   7.342  0.9368 -0.4025  1.9962
  151MOL0     H19918   5.459   1.119   8.130 -0.4018  0.5440 -0.1868
  151MOL0     H19919   5.292   1.243   8.249  0.4351  0.4730  0.4820
  151MOL0     H19920   5.031   1.491   8.392  1.3233  0.0847 -1.1917
  151MOL0     H19921   4.872   1.603   8.537  2.6103  1.4301  0.1293
  151MOL0     H19922   4.589   1.825   8.325  1.8302  1.4627 -1.0519
  151MOL0     H19923   4.650   1.970   8.390  3.0872 -0.5284  1.2734
  151MOL0     H19924   4.557   1.863   8.617  0.5627 -0.9260 -0.5805
  151MOL0     H19925   4.450   1.965   8.514 -2.0002 -0.9717  3.6682
  151MOL0     H19926   4.484   1.669   8.536  1.4168  2.1434  1.0522
  151MOL0     H19927   4.374   1.739   8.415 -1.6540 -0.0066  1.0824
  151MOL0     H19928   4.338   1.797   8.716 -0.9345  1.9024  0.1524
  151MOL0     H19929   4.263   1.858   8.585  1.3790  1.7857  4.1462
  151MOL0     H19930   4.066   1.481   8.586  1.3484 -1.6184 -1.4992
  151MOL0     H19931   4.752   1.850   8.199  0.0497  1.2222  1.2766
  151MOL0     H19932   4.929   1.768   8.067  1.2082  0.2125 -0.1173
  152MOL0     O19933   4.005   0.532   3.010  0.4453 -0.0498 -0.5575
  152MOL0     C19934   4.097   0.453   3.001 -0.2892 -0.4268 -0.3789
  152MOL0     O19935   4.091   0.326   2.956  0.1742  0.0454 -0.5216
  152MOL0     C19936   3.973   0.252   2.951 -0.1398 -0.9109 -0.2670
  152MOL0     C19937   3.844   0.279   2.994 -0.3577 -0.1340  0.2364
  152MOL0     C19938   3.738   0.194   2.954 -0.7755  0.2433 -0.9635
  152MOL0     C19939   3.756   0.068   2.886 -0.1164  0.0962 -0.5117
  152MOL0     O19940   3.657  -0.019   2.853 -0.0140  0.7182  0.1567
  152MOL0     C19941   3.639  -0.090   2.724  0.1895 -0.4345  0.9612
  152MOL0     C19942   3.531  -0.017   2.644 -0.0744 -0.2964  0.1520
  152MOL0     C19943   3.393  -0.004   2.723 -0.0718  0.0513 -0.2621
  152MOL0     C19944   3.301   0.081   2.644  0.1608 -0.1043  0.4841
  152MOL0     C19945   3.208   0.150   2.749  0.0115 -0.2005  0.4078
  152MOL0     C19946   3.091   0.062   2.804 -0.7491  0.2672  0.1132
  152MOL0     C19947   3.007   0.149   2.902  0.8233  0.1087 -0.8497
  152MOL0     C19948   2.917   0.249   2.828 -0.2872  1.0993  0.3435
  152MOL0     N19949   2.832   0.328   2.915  0.4849 -0.0897  0.0261
  152MOL0     C19950   2.758   0.433   2.881  1.4793 -0.3882  0.7486
  152MOL0     C19951   2.719   0.492   2.990  0.2024 -0.1714 -0.4735
  152MOL0     C19952   2.609   0.592   3.007  0.4802  0.6191  0.4633
  152MOL0     C19953   2.665   0.733   3.012 -0.3165  0.1315 -1.2479
  152MOL0     C19954   2.565   0.850   3.020 -0.8435  0.5898 -0.7102
  152MOL0     C19955   2.631   0.980   2.973  1.0844 -0.0936 -0.2562
  152MOL0     O19956   2.648   0.974   2.826 -0.2366 -0.2501 -0.2247
  152MOL0     C19957   2.539   0.943   2.745  0.0444  0.3720  0.3804
  152MOL0     C19958   2.447   1.051   2.725  0.3452  0.9466 -0.0214
  152MOL0     C19959   2.337   1.018   2.641 -0.4997 -0.3135  0.9217
  152MOL0     C19960   2.327   0.885   2.582 -0.0010  0.5979 -0.3635
  152MOL0     C19961   2.216   0.860   2.485  0.2091  0.1551 -1.3872
  152MOL0     O19962   2.117   0.956   2.469 -0.4011  0.4545 -0.4084
  152MOL0     C19963   2.002   0.918   2.404 -0.2187 -0.5613 -0.5628
  152MOL0     C19964   1.888   0.893   2.479  0.2899 -0.0883 -0.3165
  152MOL0     C19965   1.778   0.852   2.404 -0.2441  0.3739 -0.9903
  152MOL0     C19966   1.777   0.822   2.264  0.0814 -0.6714 -0.7174
  152MOL0     O19967   1.669   0.784   2.192 -0.0923  0.5739  0.0576
  152MOL0     C19968   1.538   0.808   2.246  1.3054 -0.5880  0.1551
  152MOL0     C19969   1.438   0.767   2.136  0.4993  0.0037  0.7092
  152MOL0     C19970   1.439   0.870   2.013 -0.1570 -0.2856  1.0318
  152MOL0     C19971   1.330   0.831   1.913  0.2756 -0.3683 -0.8523
  152MOL0     C19972   1.346   0.908   1.782  0.4692  0.2794  0.8517
  152MOL0     C19973   1.239   0.854   1.681 -0.7149  0.5746  1.0562
  152MOL0     C19974   1.189   0.947   1.570 -0.6382 -0.1418  0.1231
  152MOL0     C19975   1.045   0.910   1.533 -0.3321 -0.7285 -0.0743
  152MOL0    Cl19976   1.015   0.739   1.483  0.2376 -0.3696  0.6612
  152MOL0     C19977   1.891   0.829   2.199  0.3856  0.0537 -0.1477
  152MOL0     C19978   2.009   0.870   2.267 -0.0491  1.0081  0.1919
  152MOL0     O19979   2.213   0.750   2.427  0.3008 -0.6665 -0.2958
  152MOL0     C19980   2.411   0.786   2.609  0.4469 -0.2773 -0.4973
  152MOL0     C19981   2.513   0.811   2.696 -0.2637 -0.1743  0.1537
  152MOL0     N19982   2.775   0.436   3.100 -0.9059 -0.1053 -0.1131
  152MOL0     N19983   2.830   0.330   3.056  0.4353 -1.2834 -0.1432
  152MOL0     C19984   3.889   0.041   2.863  0.0696 -0.6685  0.3936
  152MOL0     C19985   3.994   0.131   2.900  0.4296  0.7683  0.0149
  152MOL0     C19986   4.232   0.489   3.049 -0.0739  0.2844 -0.2157
  152MOL0     C19987   4.279   0.613   3.010 -0.0382  0.6918  0.7324
  152MOL0     C19988   4.407   0.655   3.052  0.6456  0.1970  0.2430
  152MOL0     C19989   4.482   0.576   3.134 -0.7029 -0.5024 -0.3316
  152MOL0     O19990   4.614   0.613   3.157 -0.0493  0.7310  0.9583
  152MOL0     C19991   4.699   0.506   3.188 -0.6703 -0.1805  1.0092
  152MOL0     C19992   4.837   0.573   3.197 -0.2339  0.1845 -1.4805
  152MOL0     C19993   4.939   0.455   3.215 -0.8092  0.1337  0.2354
  152MOL0     C19994   5.091   0.489   3.208 -0.5640 -0.7774 -0.4216
  152MOL0     C19995   5.120   0.539   3.077  0.9954  0.9539 -0.3994
  152MOL0     C19996   5.151   0.584   2.975  0.1765 -0.2439 -0.0912
  152MOL0     C19997   4.432   0.454   3.172  0.0532  0.2639 -0.9626
  152MOL0     C19998   4.321   0.401   3.112  0.3330 -0.0083 -0.6504
  152MOL0     H19999   3.823   0.376   3.038  1.2182  0.4141 -0.1114
  152MOL0     H20000   3.636   0.222   2.975 -1.1606 -0.7896 -1.3801
  152MOL0     H20001   3.614  -0.193   2.747  1.4666 -0.3044  3.1944
  152MOL0     H20002   3.733  -0.077   2.669  0.5443 -2.0776  1.1520
  152MOL0     H20003   3.513  -0.082   2.559 -0.5325  0.2663 -0.1864
  152MOL0     H20004   3.561   0.082   2.610 -2.3155  0.5151  0.3709
  152MOL0     H20005   3.422   0.053   2.812 -0.1523  2.2698 -1.5966
  152MOL0     H20006   3.346  -0.098   2.755 -1.9071  0.4419 -1.6827
  152MOL0     H20007   3.339   0.148   2.566  0.0316 -3.0319 -2.3135
  152MOL0     H20008   3.243   0.017   2.577 -1.4856  2.5979 -0.8874
  152MOL0     H20009   3.162   0.234   2.697  1.7295  0.2178 -0.5108
  152MOL0     H20010   3.278   0.185   2.825  2.1438 -1.9340 -0.6404
  152MOL0     H20011   3.125  -0.035   2.842 -0.3761 -1.8691 -4.9536
  152MOL0     H20012   3.023   0.035   2.722 -2.8125 -1.0620  2.1363
  152MOL0     H20013   2.947   0.087   2.968 -0.7456  2.6312  0.2544
  152MOL0     H20014   3.078   0.205   2.963 -0.3114 -0.2528  0.8775
  152MOL0     H20015   2.852   0.204   2.753 -0.5868  0.6254  0.8860
  152MOL0     H20016   2.977   0.325   2.777  1.0189  0.3074  0.6469
  152MOL0     H20017   2.723   0.456   2.781 -0.5261  0.7037  1.6352
  152MOL0     H20018   2.557   0.554   3.095  0.9488  1.9717  1.3508
  152MOL0     H20019   2.542   0.591   2.920  3.0162  2.4178 -1.6491
  152MOL0     H20020   2.730   0.762   2.929  2.8866  1.1353  1.4028
  152MOL0     H20021   2.726   0.744   3.102 -0.6839  1.6182 -1.1638
  152MOL0     H20022   2.471   0.838   2.966 -0.8417 -1.2973 -0.3491
  152MOL0     H20023   2.529   0.858   3.123  1.4660  0.0875  0.2093
  152MOL0     H20024   2.723   0.997   3.030  0.5949  0.2505  0.4344
  152MOL0     H20025   2.573   1.070   2.996 -0.4376 -0.7282 -1.4511
  152MOL0     H20026   2.455   1.140   2.786  2.6754  2.1452 -1.8941
  152MOL0     H20027   2.249   1.078   2.623  0.3380  0.6642 -0.0861
  152MOL0     H20028   1.888   0.904   2.587  0.4381 -0.6110 -0.2603
  152MOL0     H20029   1.688   0.840   2.463  0.0585  0.7514 -0.4432
  152MOL0     H20030   1.527   0.912   2.281  1.3009 -0.5985  0.1850
  152MOL0     H20031   1.522   0.734   2.324 -0.6310 -0.5217 -0.1464
  152MOL0     H20032   1.339   0.759   2.183  1.1273 -1.5561  1.8675
  152MOL0     H20033   1.464   0.670   2.093 -3.1761  0.6579 -3.8732
  152MOL0     H20034   1.537   0.865   1.966 -0.6174 -0.6599  0.0701
  152MOL0     H20035   1.422   0.972   2.048 -0.5572 -1.3196  4.1629
  152MOL0     H20036   1.331   0.723   1.892  1.1721 -0.4081 -0.6553
  152MOL0     H20037   1.238   0.863   1.962  0.3103 -2.6324  0.8460
  152MOL0     H20038   1.444   0.897   1.735 -0.3439  0.4997 -1.0194
  152MOL0     H20039   1.332   1.015   1.802 -1.3080  0.1396  0.5339
  152MOL0     H20040   1.152   0.810   1.730  0.5397 -2.9749  0.3812
  152MOL0     H20041   1.292   0.776   1.626  0.1908  3.0216 -1.8357
  152MOL0     H20042   1.208   1.050   1.600 -0.4500 -0.0220 -0.3977
  152MOL0     H20043   1.250   0.924   1.482 -0.8050 -1.2592  0.2869
  152MOL0     H20044   1.020   0.982   1.455 -0.8068 -0.0202  0.7144
  152MOL0     H20045   0.977   0.925   1.618 -0.8977  0.9471 -0.7921
  152MOL0     H20046   1.880   0.812   2.093 -1.3616 -2.9273  0.4081
  152MOL0     H20047   2.101   0.882   2.210 -0.6541 -2.5980 -1.8414
  152MOL0     H20048   2.383   0.684   2.583  0.2368 -0.1659 -0.7187
  152MOL0     H20049   2.587   0.735   2.719 -0.2077  0.3807  1.9865
  152MOL0     H20050   3.901  -0.043   2.796  0.8253 -1.0612  1.0116
  152MOL0     H20051   4.096   0.108   2.868 -0.1820 -2.1452 -0.1289
  152MOL0     H20052   4.220   0.682   2.951 -1.6577 -1.3758 -0.2327
  152MOL0     H20053   4.449   0.746   3.011  1.8261  0.0773  1.1340
  152MOL0     H20054   4.706   0.435   3.105 -1.2941 -0.3734  1.1155
  152MOL0     H20055   4.672   0.438   3.269 -0.1090 -0.5787  0.8730
  152MOL0     H20056   4.872   0.634   3.113 -1.0655  0.7333 -1.4431
  152MOL0     H20057   4.840   0.639   3.285  0.0069 -1.2486 -0.3872
  152MOL0     H20058   4.918   0.373   3.146  0.5242  0.5147 -0.6737
  152MOL0     H20059   4.922   0.420   3.317  1.6426 -4.7739 -0.7585
  152MOL0     H20060   5.113   0.571   3.277 -0.1834 -2.5963  1.7460
  152MOL0     H20061   5.153   0.408   3.247 -0.8811 -0.4973  0.7144
  152MOL0     H20062   5.172   0.639   2.886 -1.5608 -2.6478 -2.1074
  152MOL0     H20063   4.473   0.388   3.248 -3.6691  0.6042  1.6415
  152MOL0     H20064   4.299   0.297   3.135 -1.1801  0.6936  1.4246
  153MOL0     O20065  11.206   8.963   9.175 -0.0506 -0.2287  0.0122
  153MOL0     C20066  11.154   9.040   9.258 -0.5229  0.5158 -0.1237
  153MOL0     O20067  11.182   9.030   9.390 -0.0674 -0.4359 -0.4762
  153MOL0     C20068  11.271   8.934   9.442 -0.1972 -0.1345 -0.6529
  153MOL0     C20069  11.415   8.957   9.465  0.5354 -0.3071  0.3260
  153MOL0     C20070  11.492   8.855   9.521  0.0362 -0.2972 -0.5082
  153MOL0     C20071  11.423   8.746   9.559 -0.7069  0.4819 -0.0613
  153MOL0     O20072  11.490   8.636   9.617 -0.1390 -0.8661  0.7084
  153MOL0     C20073  11.611   8.577   9.559  0.4794 -0.9182  0.0719
  153MOL0     C20074  11.657   8.464   9.645  0.2266 -0.1384  0.8382
  153MOL0     C20075  11.663   8.511   9.787  0.5004  0.3622  0.1274
  153MOL0     C20076  11.784   8.436   9.868  0.6961  0.2189  0.2377
  153MOL0     C20077  11.766   8.460  10.017  0.2915  0.9364  0.1351
  153MOL0     C20078  11.872   8.376  10.093  0.3504 -0.4696  0.2460
  153MOL0     C20079  11.862   8.385  10.246  0.3244  0.2068  0.8545
  153MOL0     C20080  11.720   8.341  10.290  0.6787  0.5596 -0.0106
  153MOL0     N20081  11.720   8.308  10.436  0.7226  0.3321 -0.3650
  153MOL0     C20082  11.786   8.205  10.485 -0.1958 -0.1239 -0.7926
  153MOL0     C20083  11.790   8.230  10.618  0.5885  1.1188 -1.0519
  153MOL0     C20084  11.878   8.165  10.725  0.2719 -0.0400  0.2799
  153MOL0     C20085  11.883   8.006  10.718  0.0889  0.2677 -0.5008
  153MOL0     C20086  12.007   7.923  10.763  0.1284 -0.8178 -0.7965
  153MOL0     C20087  12.133   8.000  10.725  0.4917 -0.3114  0.0767
  153MOL0     O20088  12.129   8.046  10.589 -0.0789  0.3439  0.1089
  153MOL0     C20089  12.240   8.093  10.532 -0.8544  0.4519  0.5438
  153MOL0     C20090  12.223   8.153  10.413 -0.3890  0.5232  0.1660
  153MOL0     C20091  12.327   8.207  10.341  0.2107 -0.6170  0.8174
  153MOL0     C20092  12.455   8.210  10.397 -0.1912 -0.8585  0.0317
  153MOL0     C20093  12.551   8.267  10.310 -0.7996 -0.8245  1.5207
  153MOL0     O20094  12.533   8.244  10.172 -0.2021 -0.2263 -0.3698
  153MOL0     C20095  12.625   8.303  10.080  1.1252  0.3103 -0.3768
  153MOL0     C20096  12.654   8.437  10.074 -0.1136  0.8360  0.3613
  153MOL0     C20097  12.744   8.481   9.974  0.1528 -0.0238 -0.1374
  153MOL0     C20098  12.801   8.390   9.891  0.4717 -0.1388 -0.0912
  153MOL0     O20099  12.864   8.441   9.785 -0.0748 -0.0932 -0.4527
  153MOL0     C20100  12.800   8.427   9.667  0.2183  0.4236  0.5848
  153MOL0     C20101  12.856   8.524   9.559  0.1548 -0.2330  0.2832
  153MOL0     C20102  12.768   8.545   9.431  0.4149  0.4631  0.1761
  153MOL0     C20103  12.708   8.421   9.370 -0.2884  0.8513 -0.0504
  153MOL0     C20104  12.612   8.450   9.261  0.5081  0.6614  0.9106
  153MOL0     C20105  12.559   8.327   9.205 -0.7515  0.2821  1.3061
  153MOL0     C20106  12.478   8.348   9.077 -0.7286 -0.9334 -0.0413
  153MOL0     C20107  12.465   8.221   8.993 -0.2165  0.6495 -0.0911
  153MOL0    Cl20108  12.422   8.074   9.097 -0.3469  0.4306 -0.5843
  153MOL0     C20109  12.781   8.256   9.916 -0.1924  0.9627  0.0489
  153MOL0     C20110  12.689   8.205   9.998  0.5088 -0.0431 -0.2584
  153MOL0     O20111  12.657   8.307  10.358  0.3609  0.0002 -0.2833
  153MOL0     C20112  12.485   8.150  10.520  0.8472  0.3866  0.2687
  153MOL0     C20113  12.369   8.093  10.583 -0.2676  0.1198 -0.1585
  153MOL0     N20114  11.715   8.352  10.646 -0.4602  0.4752  0.3801
  153MOL0     N20115  11.679   8.391  10.536  0.2729  0.5249 -1.0529
  153MOL0     C20116  11.290   8.736   9.560 -0.2344 -0.0549 -0.2649
  153MOL0     C20117  11.206   8.834   9.501 -0.3406 -0.1379 -0.6281
  153MOL0     C20118  11.039   9.124   9.215  0.7534 -0.0475 -0.6560
  153MOL0     C20119  11.015   9.161   9.084 -0.1195  0.5124  0.1356
  153MOL0     C20120  10.915   9.253   9.043 -0.8776 -0.1609  0.2010
  153MOL0     C20121  10.857   9.332   9.141 -0.1894 -0.0138 -0.3840
  153MOL0     O20122  10.779   9.443   9.118  0.2973  0.0871  0.4987
  153MOL0     C20123  10.789   9.505   8.984 -0.4089  0.2116  0.5683
  153MOL0     C20124  10.698   9.440   8.879  0.4477  1.0831  0.7239
  153MOL0     C20125  10.701   9.488   8.727 -0.0726  0.6318 -0.0695
  153MOL0     C20126  10.721   9.370   8.624 -0.5893 -0.0474  0.3541
  153MOL0     C20127  10.853   9.322   8.642  0.3699  0.4557  0.7880
  153MOL0     C20128  10.965   9.278   8.664  0.7701 -0.2543 -0.6817
  153MOL0     C20129  10.872   9.289   9.275  0.3588 -0.8266  0.8698
  153MOL0     C20130  10.956   9.186   9.307  0.3672 -0.5065 -0.4308
  153MOL0     H20131  11.461   9.046   9.424  2.3148 -0.1530  2.4621
  153MOL0     H20132  11.598   8.870   9.539  0.1234 -0.3890 -0.9257
  153MOL0     H20133  11.690   8.652   9.569 -0.6136  0.1309  1.2168
  153MOL0     H20134  11.581   8.551   9.457 -2.7081  0.5750  0.5074
  153MOL0     H20135  11.757   8.439   9.608  0.6616 -1.1790  2.6199
  153MOL0     H20136  11.590   8.379   9.630  1.4535 -0.7074 -2.3898
  153MOL0     H20137  11.572   8.504   9.847 -0.6685 -0.3311 -1.6389
  153MOL0     H20138  11.696   8.615   9.792 -0.3631  0.6745 -0.4285
  153MOL0     H20139  11.789   8.328   9.848  3.0986  0.2244  0.5921
  153MOL0     H20140  11.879   8.488   9.857  1.1416  0.2990  3.4868
  153MOL0     H20141  11.673   8.417  10.055  2.0132 -0.3761  3.3571
  153MOL0     H20142  11.779   8.564  10.048  1.8531  1.4391 -1.9899
  153MOL0     H20143  11.976   8.403  10.068 -0.1849  1.9876  0.4462
  153MOL0     H20144  11.846   8.275  10.061  0.1425  0.2536 -2.1331
  153MOL0     H20145  11.928   8.305  10.280  0.0611  1.0854  3.7117
  153MOL0     H20146  11.885   8.484  10.286  0.2146  1.6878 -2.4368
  153MOL0     H20147  11.701   8.242  10.246  2.4474 -0.6843  1.8129
  153MOL0     H20148  11.643   8.416  10.273 -0.0075 -0.6747 -2.9064
  153MOL0     H20149  11.843   8.123  10.443  1.4774  0.3598  0.4065
  153MOL0     H20150  11.840   8.199  10.822 -1.6431 -2.9174  0.6791
  153MOL0     H20151  11.973   8.214  10.703 -0.2985  0.4850 -1.1842
  153MOL0     H20152  11.878   7.970  10.615  1.3515 -1.8129  0.0929
  153MOL0     H20153  11.790   7.968  10.763  0.1174  2.9025  2.1106
  153MOL0     H20154  12.003   7.922  10.873  3.6337  1.3330 -0.4983
  153MOL0     H20155  12.009   7.819  10.730 -0.1427 -1.6281  1.5523
  153MOL0     H20156  12.210   7.922  10.726  2.3679  1.4391 -0.4312
  153MOL0     H20157  12.159   8.080  10.794 -1.9465  0.5567  0.0962
  153MOL0     H20158  12.119   8.154  10.382 -1.0914  0.0601  2.3498
  153MOL0     H20159  12.298   8.253  10.247  1.2794 -1.1757  0.1899
  153MOL0     H20160  12.601   8.514  10.130  1.2303  2.5108 -0.5674
  153MOL0     H20161  12.765   8.584   9.949 -0.6255  0.4293  1.0142
  153MOL0     H20162  12.697   8.450   9.693  0.4247 -1.2021  3.1363
  153MOL0     H20163  12.810   8.324   9.631  1.2070  1.0383 -1.0230
  153MOL0     H20164  12.950   8.476   9.532 -0.7778 -1.7504 -0.3985
  153MOL0     H20165  12.870   8.624   9.602 -1.5644  0.5258 -0.8332
  153MOL0     H20166  12.809   8.590   9.341  0.8340  1.0182  0.6375
  153MOL0     H20167  12.685   8.610   9.458  1.6329  2.1273  0.0753
  153MOL0     H20168  12.785   8.349   9.339  0.1942  0.7102  1.3935
  153MOL0     H20169  12.666   8.358   9.449  0.9967  1.0907  0.8655
  153MOL0     H20170  12.666   8.508   9.186 -1.3630 -2.0476 -2.8166
  153MOL0     H20171  12.528   8.515   9.286  0.5355  2.6363 -3.3086
  153MOL0     H20172  12.499   8.263   9.270 -0.7396 -2.0843 -0.8528
  153MOL0     H20173  12.643   8.265   9.172 -1.8268 -0.9251  0.7725
  153MOL0     H20174  12.373   8.376   9.088 -0.9068  1.7372 -5.3090
  153MOL0     H20175  12.525   8.428   9.018  0.1728  0.0022  1.8378
  153MOL0     H20176  12.562   8.197   8.949 -1.0070 -3.6125  0.0736
  153MOL0     H20177  12.382   8.242   8.925 -2.0815  1.5463  2.3051
  153MOL0     H20178  12.834   8.184   9.855  1.0756  1.5126  0.4491
  153MOL0     H20179  12.674   8.103  10.030 -0.3233 -0.6554 -2.4167
  153MOL0     H20180  12.587   8.127  10.549  0.0424 -4.9321 -0.1248
  153MOL0     H20181  12.399   8.051  10.678 -2.3074 -0.8405  0.1169
  153MOL0     H20182  11.247   8.651   9.612  1.3427  0.5777  2.2124
  153MOL0     H20183  11.097   8.833   9.501 -0.3766  1.0187 -1.7982
  153MOL0     H20184  11.063   9.109   9.002  1.7561  0.4656  1.2060
  153MOL0     H20185  10.906   9.273   8.937 -1.0529 -1.8180 -0.1098
  153MOL0     H20186  10.887   9.507   8.937 -0.7753  2.8359 -0.2682
  153MOL0     H20187  10.753   9.607   8.998 -0.7072  0.3539 -1.0083
  153MOL0     H20188  10.698   9.331   8.874  1.1032  1.1227 -2.1566
  153MOL0     H20189  10.598   9.465   8.916  1.2947  2.2883  2.3264
  153MOL0     H20190  10.776   9.568   8.721 -0.3524  0.8579 -0.5759
  153MOL0     H20191  10.603   9.537   8.722 -0.0591  1.0969  2.5500
  153MOL0     H20192  10.647   9.290   8.639  0.5410 -1.7346 -2.3875
  153MOL0     H20193  10.719   9.404   8.521 -1.2589 -2.0480 -0.3534
  153MOL0     H20194  11.065   9.258   8.694  0.3201 -1.8745 -0.2110
  153MOL0     H20195  10.817   9.348   9.348 -1.3149  1.7683 -2.2792
  153MOL0     H20196  10.984   9.181   9.412 -1.5729  4.0748  0.5081
  154MOL0     O20197   4.966   1.794   7.130 -1.0016  0.1196 -0.3134
  154MOL0     C20198   5.013   1.901   7.164 -0.5901  0.3757  0.4018
  154MOL0     O20199   4.943   2.020   7.154  0.8417  0.0828 -0.5085
  154MOL0     C20200   4.828   2.028   7.079 -0.3521 -0.2123 -0.4231
  154MOL0     C20201   4.823   1.991   6.944 -0.0378  1.0834 -1.1679
  154MOL0     C20202   4.701   1.997   6.875  0.6503  0.5754  0.7290
  154MOL0     C20203   4.584   2.038   6.935  0.1220 -0.4857 -0.4450
  154MOL0     O20204   4.466   2.042   6.865 -0.2064  0.3882 -0.5545
  154MOL0     C20205   4.366   1.946   6.910 -0.3623  0.3767 -0.0379
  154MOL0     C20206   4.221   1.979   6.868 -0.0005  0.3452 -0.3334
  154MOL0     C20207   4.150   2.090   6.946  0.3153  0.7021 -0.7926
  154MOL0     C20208   4.187   2.233   6.895  0.1457  0.4261  0.4731
  154MOL0     C20209   4.152   2.331   7.008 -0.1352 -0.0145  0.4975
  154MOL0     C20210   4.013   2.329   7.046  0.1745  0.3542 -1.0373
  154MOL0     C20211   3.958   2.446   7.123  0.6830 -0.2429  0.3368
  154MOL0     C20212   3.980   2.443   7.273  1.0400  0.5314 -0.1565
  154MOL0     N20213   3.886   2.539   7.341 -0.2308  0.7231 -0.8647
  154MOL0     C20214   3.770   2.512   7.412 -0.3374  0.6081  0.3003
  154MOL0     C20215   3.731   2.633   7.442 -0.5434 -0.5785  0.9893
  154MOL0     C20216   3.602   2.676   7.511  0.1471 -0.5082 -0.7160
  154MOL0     C20217   3.486   2.739   7.440  0.0386 -0.5372  0.0258
  154MOL0     C20218   3.420   2.650   7.352  0.2422  0.6741  0.0174
  154MOL0     C20219   3.300   2.720   7.292  0.1893 -0.7459  0.8711
  154MOL0     O20220   3.210   2.629   7.220 -0.4262  0.0766 -0.2460
  154MOL0     C20221   3.089   2.618   7.288  0.4736  0.8085  1.4998
  154MOL0     C20222   3.059   2.496   7.345  1.0290 -0.5006 -0.9223
  154MOL0     C20223   2.940   2.473   7.413 -0.0113 -0.7067  0.1889
  154MOL0     C20224   2.835   2.566   7.413 -0.6280  0.4026 -0.0739
  154MOL0     C20225   2.712   2.566   7.498 -0.5584 -0.2800  0.2263
  154MOL0     O20226   2.615   2.651   7.470  0.0908  0.4134  0.0086
  154MOL0     C20227   2.499   2.655   7.551 -1.3546 -0.3669  0.2332
  154MOL0     C20228   2.497   2.727   7.675 -0.4656 -0.1840  0.7032
  154MOL0     C20229   2.389   2.710   7.760 -0.0448  0.0629 -0.4141
  154MOL0     C20230   2.276   2.632   7.727 -0.0720  0.1830 -0.4750
  154MOL0     O20231   2.166   2.620   7.814  0.6201 -0.2207 -0.3328
  154MOL0     C20232   2.037   2.656   7.752 -0.1614 -0.1290  0.0021
  154MOL0     C20233   1.929   2.662   7.860  0.1926 -0.1087  0.7926
  154MOL0     C20234   1.881   2.537   7.906 -0.5931  0.2024 -0.4058
  154MOL0     C20235   1.763   2.548   8.006 -0.8536  0.2545 -0.2183
  154MOL0     C20236   1.784   2.622   8.140  0.0423 -0.4462 -0.2374
  154MOL0     C20237   1.689   2.593   8.253 -0.8311 -0.1914 -0.8235
  154MOL0     C20238   1.544   2.610   8.209  0.8870  0.6480 -0.6526
  154MOL0     C20239   1.452   2.612   8.331 -0.1754  0.3521  0.0404
  154MOL0    Cl20240   1.287   2.681   8.306  0.0321  0.2262  0.0653
  154MOL0     C20241   2.286   2.566   7.616  0.8017 -0.1774 -0.0360
  154MOL0     C20242   2.391   2.568   7.519 -1.5027  0.1111 -0.0340
  154MOL0     O20243   2.715   2.488   7.596  0.0369  0.3979 -0.5912
  154MOL0     C20244   2.854   2.684   7.335  1.1031  0.0816  0.2375
  154MOL0     C20245   2.983   2.708   7.270  0.0447  0.4371 -0.6827
  154MOL0     N20246   3.816   2.730   7.389  0.2155 -0.1270  0.0827
  154MOL0     N20247   3.908   2.672   7.338 -0.3910 -0.0475 -0.0366
  154MOL0     C20248   4.586   2.070   7.074 -0.5240 -0.5514 -0.5535
  154MOL0     C20249   4.706   2.063   7.153  0.0990  1.2102  1.0099
  154MOL0     C20250   5.152   1.904   7.234  0.1515 -0.0370  1.8511
  154MOL0     C20251   5.221   1.793   7.270  0.4773 -0.2346 -0.4567
  154MOL0     C20252   5.336   1.806   7.354  0.4803  0.8748  0.2921
  154MOL0     C20253   5.386   1.931   7.387 -0.6148  0.2914  0.1370
  154MOL0     O20254   5.496   1.942   7.468 -0.2928  0.0998  0.4601
  154MOL0     C20255   5.484   1.967   7.611  0.1058 -0.0854  0.3480
  154MOL0     C20256   5.470   1.834   7.697  0.3166 -0.4642 -0.3433
  154MOL0     C20257   5.407   1.860   7.828 -0.0339  0.8955 -0.8703
  154MOL0     C20258   5.252   1.888   7.824  0.0459 -0.2407 -0.8580
  154MOL0     C20259   5.215   1.906   7.969  0.5579  0.7793 -0.0220
  154MOL0     C20260   5.180   1.947   8.077  0.7113  0.2257 -0.0229
  154MOL0     C20261   5.327   2.046   7.333 -0.2569  0.2845  0.2519
  154MOL0     C20262   5.207   2.029   7.257 -0.5358  0.4675  0.3341
  154MOL0     H20263   4.909   1.954   6.889 -0.3035 -0.9575 -0.2835
  154MOL0     H20264   4.693   1.953   6.777 -1.1956 -1.2204  1.6108
  154MOL0     H20265   4.378   1.927   7.017 -0.6926 -2.9652 -0.4927
  154MOL0     H20266   4.403   1.849   6.876 -1.1616  0.5186 -1.3885
  154MOL0     H20267   4.164   1.888   6.891  0.0192  0.1675 -0.9701
  154MOL0     H20268   4.231   1.990   6.760 -0.0990  1.5592 -0.2259
  154MOL0     H20269   4.182   2.082   7.051  2.7101 -1.9811 -1.6014
  154MOL0     H20270   4.046   2.056   6.950  1.1799 -2.1454  1.9888
  154MOL0     H20271   4.296   2.242   6.886  0.5020 -1.9313  1.6397
  154MOL0     H20272   4.126   2.251   6.806 -0.1687  0.3054  0.6632
  154MOL0     H20273   4.165   2.431   6.966 -0.8605 -0.4132 -0.7560
  154MOL0     H20274   4.227   2.323   7.087 -1.7516 -1.8906  1.9300
  154MOL0     H20275   3.998   2.242   7.110 -0.4971  1.1518 -0.0790
  154MOL0     H20276   3.949   2.303   6.961  0.4009  0.4166 -1.2278
  154MOL0     H20277   3.999   2.541   7.086  1.4492 -0.3887  0.7905
  154MOL0     H20278   3.851   2.443   7.100  0.7533 -1.8698  0.1314
  154MOL0     H20279   4.083   2.476   7.286  0.8111  2.5056 -2.5975
  154MOL0     H20280   3.965   2.342   7.312 -1.7129  0.8675 -0.1533
  154MOL0     H20281   3.716   2.421   7.438 -1.9304  1.3832 -0.1665
  154MOL0     H20282   3.624   2.754   7.585 -3.3484  0.3903 -0.4590
  154MOL0     H20283   3.575   2.592   7.575  0.5181  1.0915  1.6837
  154MOL0     H20284   3.525   2.822   7.380  0.0873  0.0376  0.8302
  154MOL0     H20285   3.411   2.771   7.512  0.9927 -0.3460  0.9638
  154MOL0     H20286   3.489   2.605   7.279 -2.4831 -0.4224 -2.0452
  154MOL0     H20287   3.380   2.572   7.417  0.9888  0.7525  0.5843
  154MOL0     H20288   3.336   2.799   7.226 -1.0315 -1.5705 -0.8355
  154MOL0     H20289   3.239   2.760   7.373 -0.3963  1.3873 -0.5572
  154MOL0     H20290   3.131   2.416   7.357  1.6850  0.3327  1.3145
  154MOL0     H20291   2.919   2.375   7.453 -0.2902 -1.2989 -1.3209
  154MOL0     H20292   2.592   2.772   7.700  1.3289 -1.6066 -2.8809
  154MOL0     H20293   2.397   2.737   7.865  0.4240 -2.6171  0.3186
  154MOL0     H20294   2.010   2.575   7.683  0.2844 -3.1573  3.0896
  154MOL0     H20295   2.037   2.753   7.702 -3.4267 -1.0949 -2.1744
  154MOL0     H20296   1.845   2.724   7.830  2.8422  3.8417  0.8470
  154MOL0     H20297   1.976   2.719   7.940  0.6322 -0.2265  0.6225
  154MOL0     H20298   1.963   2.475   7.944 -1.7579 -0.4106  1.2216
  154MOL0     H20299   1.839   2.482   7.822  2.5798 -2.6933 -0.3148
  154MOL0     H20300   1.676   2.584   7.950 -1.1424  0.1094  0.1308
  154MOL0     H20301   1.747   2.446   8.041  4.0817 -0.7063 -0.0219
  154MOL0     H20302   1.777   2.728   8.116 -1.1926 -0.5537 -0.4257
  154MOL0     H20303   1.882   2.601   8.183 -1.0192 -1.7409  1.7163
  154MOL0     H20304   1.700   2.670   8.330 -1.5159  1.5258 -2.3813
  154MOL0     H20305   1.712   2.495   8.296 -0.6204  0.7092  1.2283
  154MOL0     H20306   1.532   2.706   8.158  0.1695  1.7708  1.5187
  154MOL0     H20307   1.520   2.525   8.144 -2.6402 -0.6442  2.0022
  154MOL0     H20308   1.506   2.671   8.405  0.0894  0.7330 -0.4490
  154MOL0     H20309   1.444   2.508   8.364  1.0162 -0.5414 -2.2508
  154MOL0     H20310   2.203   2.507   7.579 -0.4789  1.7562 -0.3827
  154MOL0     H20311   2.389   2.498   7.436  2.1315 -1.1520  0.7521
  154MOL0     H20312   2.777   2.759   7.324  0.7204 -0.3239  0.0876
  154MOL0     H20313   3.003   2.791   7.203 -2.4229  1.2658 -0.4851
  154MOL0     H20314   4.496   2.118   7.113 -0.6825 -0.7816 -0.6330
  154MOL0     H20315   4.704   2.084   7.259 -2.7179 -2.4053  1.8570
  154MOL0     H20316   5.175   1.697   7.251  0.7789 -0.7371  1.1338
  154MOL0     H20317   5.379   1.723   7.408 -0.1155  1.2725  1.4052
  154MOL0     H20318   5.405   2.039   7.630  1.0290  1.5279 -1.5455
  154MOL0     H20319   5.571   2.024   7.646 -0.3939 -1.1091  3.5166
  154MOL0     H20320   5.407   1.759   7.649  0.3713 -2.1598  2.0303
  154MOL0     H20321   5.565   1.781   7.709  0.0942 -0.5980  0.9486
  154MOL0     H20322   5.462   1.937   7.882  2.7284 -1.7376  0.3467
  154MOL0     H20323   5.414   1.762   7.876  2.3370 -0.4060 -3.5341
  154MOL0     H20324   5.219   1.970   7.760 -1.1462 -0.4381 -0.5242
  154MOL0     H20325   5.192   1.803   7.789 -1.0324 -0.0893  0.4818
  154MOL0     H20326   5.167   1.970   8.180 -1.2940 -1.3596  0.1291
  154MOL0     H20327   5.367   2.146   7.349 -0.1140  1.1391 -4.1807
  154MOL0     H20328   5.154   2.120   7.231 -1.3812  1.4048  4.5571
  155MOL0     O20329   7.789   0.450   7.159 -0.1189 -0.1970 -0.5422
  155MOL0     C20330   7.806   0.548   7.231  0.2991 -0.6704 -0.5205
  155MOL0     O20331   7.727   0.661   7.211  0.1891 -0.0289  0.3207
  155MOL0     C20332   7.627   0.670   7.114 -0.3454  0.3737  0.1677
  155MOL0     C20333   7.602   0.796   7.077 -0.9357  0.2483 -0.1795
  155MOL0     C20334   7.502   0.831   6.988  0.0109  0.4220  1.0567
  155MOL0     C20335   7.415   0.735   6.929 -0.3438 -0.0210 -0.7789
  155MOL0     O20336   7.318   0.785   6.854 -0.0966 -0.1285  0.1942
  155MOL0     C20337   7.195   0.708   6.861 -0.9342  0.2426  0.8335
  155MOL0     C20338   7.098   0.777   6.768  0.9913 -0.2452 -0.2931
  155MOL0     C20339   6.961   0.710   6.776 -0.1080 -0.0191  0.3752
  155MOL0     C20340   6.862   0.798   6.699 -0.3338 -0.1942  0.6276
  155MOL0     C20341   6.719   0.736   6.699 -0.7771 -0.2010  0.1457
  155MOL0     C20342   6.620   0.832   6.629  1.0841 -0.1460 -0.4027
  155MOL0     C20343   6.591   0.952   6.720  0.7230  0.1695 -0.8036
  155MOL0     C20344   6.476   1.038   6.662  0.5281 -0.0622  0.8789
  155MOL0     N20345   6.338   0.983   6.666  0.2621 -0.7219 -0.3151
  155MOL0     C20346   6.264   0.981   6.783  1.0202  0.2697 -0.2495
  155MOL0     C20347   6.131   0.959   6.745  1.2725 -0.5159 -0.6213
  155MOL0     C20348   5.994   0.966   6.813  0.2177  0.3973  0.6659
  155MOL0     C20349   5.886   0.857   6.758 -0.0813  0.2638 -1.2347
  155MOL0     C20350   5.749   0.905   6.816  0.1663 -0.2967  0.1079
  155MOL0     C20351   5.679   0.790   6.881  0.1274  0.8659 -0.3722
  155MOL0     O20352   5.553   0.821   6.938  0.2552 -0.0059 -0.9184
  155MOL0     C20353   5.452   0.860   6.855  0.7893 -0.1877 -0.1524
  155MOL0     C20354   5.422   0.991   6.823  0.0600  0.0131  1.2046
  155MOL0     C20355   5.327   1.012   6.731 -0.0422 -0.5287 -0.3888
  155MOL0     C20356   5.244   0.907   6.683 -0.4119 -0.0384  0.3384
  155MOL0     C20357   5.126   0.935   6.591 -0.2978 -0.0272 -0.0370
  155MOL0     O20358   5.100   1.061   6.554 -0.7806  0.5534 -0.0875
  155MOL0     C20359   4.993   1.084   6.475  0.0681  1.1209  0.9210
  155MOL0     C20360   5.000   1.076   6.334 -0.5479  0.0754  0.4647
  155MOL0     C20361   4.897   1.081   6.250  0.7836 -0.0950 -0.4275
  155MOL0     C20362   4.776   1.122   6.310 -0.2387 -0.5177  0.0732
  155MOL0     O20363   4.669   1.129   6.229 -0.0146  0.4804 -0.0338
  155MOL0     C20364   4.534   1.138   6.277  0.1279 -0.2881 -0.2219
  155MOL0     C20365   4.439   1.193   6.167 -0.3324  0.5727 -0.4473
  155MOL0     C20366   4.298   1.213   6.217 -0.3726 -0.3250  0.3612
  155MOL0     C20367   4.262   1.320   6.324 -0.5272 -0.0220 -0.1345
  155MOL0     C20368   4.118   1.327   6.373 -0.1403 -0.3618  0.0905
  155MOL0     C20369   4.027   1.386   6.263 -1.1891  0.6964 -0.3227
  155MOL0     C20370   3.887   1.386   6.324  0.2940 -0.7774  0.3448
  155MOL0     C20371   3.787   1.411   6.213 -0.6535 -0.5005 -0.2507
  155MOL0    Cl20372   3.617   1.470   6.280 -0.2963 -0.6559  0.1498
  155MOL0     C20373   4.773   1.155   6.447 -0.6652 -0.4603 -0.2720
  155MOL0     C20374   4.874   1.119   6.529  0.4654  0.7407  0.1926
  155MOL0     O20375   5.060   0.840   6.556 -0.3249 -0.1210  0.4537
  155MOL0     C20376   5.278   0.773   6.709 -0.2671 -0.4540 -0.6670
  155MOL0     C20377   5.387   0.752   6.799 -0.2005 -1.0808  0.9155
  155MOL0     N20378   6.139   0.948   6.603 -0.6048 -0.5358  0.4050
  155MOL0     N20379   6.260   0.960   6.557 -1.4150 -0.2045 -0.1231
  155MOL0     C20380   7.441   0.600   6.969  0.7026 -0.4485 -0.1672
  155MOL0     C20381   7.552   0.565   7.051 -0.7880  0.0414  0.9737
  155MOL0     C20382   7.905   0.540   7.342  0.0277  0.4969  1.1598
  155MOL0     C20383   7.913   0.646   7.437  0.1718  0.5337  0.2227
  155MOL0     C20384   7.997   0.622   7.546  0.1018 -0.0890  0.0243
  155MOL0     C20385   8.101   0.528   7.537  0.2175 -0.7851  0.5392
  155MOL0     O20386   8.219   0.525   7.611  1.0147 -0.0515  0.3532
  155MOL0     C20387   8.216   0.614   7.726 -0.0049 -0.5651  0.2334
  155MOL0     C20388   8.348   0.603   7.813 -0.0966 -0.1747 -0.6683
  155MOL0     C20389   8.366   0.472   7.891 -0.5083  0.1416  0.5471
  155MOL0     C20390   8.263   0.453   7.998  0.0428  0.3182  0.0965
  155MOL0     C20391   8.215   0.307   8.000 -0.7184 -0.4491 -0.7245
  155MOL0     C20392   8.182   0.190   8.002 -0.3805  0.1804 -0.3948
  155MOL0     C20393   8.087   0.431   7.444 -0.2166 -0.2005  1.0526
  155MOL0     C20394   7.985   0.424   7.348 -0.2872  0.1317  0.1324
  155MOL0     H20395   7.662   0.878   7.116 -2.2455  0.7224  0.9092
  155MOL0     H20396   7.481   0.933   6.958  0.2823  0.0478 -0.4877
  155MOL0     H20397   7.158   0.696   6.963 -0.4134 -0.1432  0.9818
  155MOL0     H20398   7.213   0.609   6.817 -3.3125 -0.2495  0.8221
  155MOL0     H20399   7.143   0.753   6.672  0.5320  0.4190 -0.6807
  155MOL0     H20400   7.083   0.883   6.791 -5.2401 -1.1083  1.6390
  155MOL0     H20401   6.935   0.709   6.883 -1.5469  1.6173  0.0892
  155MOL0     H20402   6.962   0.611   6.732  3.5034  0.7601 -1.7380
  155MOL0     H20403   6.861   0.898   6.743  0.0935 -1.0090  2.5927
  155MOL0     H20404   6.886   0.806   6.593 -4.1428  1.4579 -0.2792
  155MOL0     H20405   6.680   0.716   6.799 -1.4493 -3.0451 -0.5810
  155MOL0     H20406   6.729   0.640   6.648 -0.0041  0.8992 -1.9329
  155MOL0     H20407   6.526   0.779   6.611 -0.2537  2.5994 -2.1431
  155MOL0     H20408   6.645   0.866   6.528 -2.8085  0.5809 -1.2896
  155MOL0     H20409   6.556   0.912   6.816  1.4085  0.1945 -0.5366
  155MOL0     H20410   6.682   1.013   6.721  0.5590  0.4130  0.3500
  155MOL0     H20411   6.495   1.038   6.554  0.2638 -2.0264  0.8092
  155MOL0     H20412   6.484   1.144   6.691 -0.6820  0.2076  0.2852
  155MOL0     H20413   6.290   1.015   6.883 -0.6497  2.4894 -0.5106
  155MOL0     H20414   5.959   1.069   6.813 -2.8059 -0.5250  0.0134
  155MOL0     H20415   6.006   0.929   6.916 -2.0937  1.0336  1.2369
  155MOL0     H20416   5.903   0.765   6.816 -1.7826  1.0177  0.6112
  155MOL0     H20417   5.880   0.834   6.652 -1.0714  0.7994 -1.3115
  155MOL0     H20418   5.754   0.992   6.882 -2.6298  0.7181 -0.8482
  155MOL0     H20419   5.692   0.944   6.731  3.3621 -0.7030 -2.4055
  155MOL0     H20420   5.738   0.748   6.963 -1.7348 -0.4733  0.3437
  155MOL0     H20421   5.668   0.705   6.814 -1.9360  2.5052 -2.2736
  155MOL0     H20422   5.463   1.076   6.878  2.3461 -0.1690 -0.0831
  155MOL0     H20423   5.304   1.113   6.699 -0.3715 -1.4179 -3.2905
  155MOL0     H20424   5.100   1.073   6.291 -0.1194 -0.2207  1.4483
  155MOL0     H20425   4.902   1.059   6.144  2.5259 -1.5498 -0.0966
  155MOL0     H20426   4.523   1.196   6.370  0.7925 -0.3214 -0.1165
  155MOL0     H20427   4.511   1.035   6.303 -1.7729  0.0980 -0.2742
  155MOL0     H20428   4.449   1.120   6.087  3.1111 -0.5033  0.7814
  155MOL0     H20429   4.460   1.296   6.138 -0.7195  1.1366  1.1633
  155MOL0     H20430   4.251   1.116   6.236  1.6192 -1.1487  1.4005
  155MOL0     H20431   4.254   1.236   6.119  0.9821 -2.6918 -0.9084
  155MOL0     H20432   4.330   1.290   6.404  0.7264 -0.5617 -1.3556
  155MOL0     H20433   4.292   1.419   6.286  1.1029 -0.5558 -0.3113
  155MOL0     H20434   4.110   1.399   6.455 -1.8940  1.3177 -1.4572
  155MOL0     H20435   4.076   1.234   6.412 -3.0994  1.4703  1.6752
  155MOL0     H20436   4.039   1.337   6.166  1.3197  0.1262  0.2114
  155MOL0     H20437   4.052   1.490   6.242  3.6923 -0.2420 -0.2740
  155MOL0     H20438   3.864   1.296   6.382 -0.4223 -0.4087  0.6431
  155MOL0     H20439   3.876   1.475   6.387 -2.3676 -1.2494  0.6556
  155MOL0     H20440   3.770   1.310   6.175  2.3305 -1.4268  0.6059
  155MOL0     H20441   3.829   1.477   6.137  1.8849 -0.5671  0.9861
  155MOL0     H20442   4.692   1.210   6.494  2.1996  0.5923  3.9441
  155MOL0     H20443   4.854   1.137   6.634  0.8084  2.9499 -0.0887
  155MOL0     H20444   5.229   0.690   6.659 -0.9124 -1.2742  1.2013
  155MOL0     H20445   5.417   0.649   6.819  0.6197 -1.7904 -3.1393
  155MOL0     H20446   7.367   0.531   6.927 -1.7648  2.0711 -0.2405
  155MOL0     H20447   7.577   0.462   7.074  1.1777  0.7437  2.2682
  155MOL0     H20448   7.849   0.733   7.439  0.0236  0.4110  2.0406
  155MOL0     H20449   7.999   0.697   7.624 -1.3670 -0.4138  0.4085
  155MOL0     H20450   8.134   0.584   7.793  0.3413 -3.0053 -0.3548
  155MOL0     H20451   8.206   0.720   7.703 -0.6060 -0.6445  0.1059
  155MOL0     H20452   8.432   0.604   7.743 -0.1521 -0.9145 -0.7596
  155MOL0     H20453   8.353   0.686   7.884  1.2660  0.9486 -2.0042
  155MOL0     H20454   8.461   0.465   7.944 -1.0835 -0.9817  1.4983
  155MOL0     H20455   8.365   0.402   7.807 -2.2923  2.2705 -1.3386
  155MOL0     H20456   8.310   0.482   8.092  0.3312  1.9386 -0.5283
  155MOL0     H20457   8.174   0.515   7.986 -0.1968 -0.1832 -0.8933
  155MOL0     H20458   8.155   0.087   8.016 -3.2335  0.7321 -1.0463
  155MOL0     H20459   8.161   0.352   7.440  1.1182  1.0042  0.8360
  155MOL0     H20460   7.982   0.342   7.277 -2.0618  1.4846 -1.4423
  156MOL0     O20461   7.029   2.530   4.672 -0.3377 -0.4057 -0.2634
  156MOL0     C20462   6.995   2.607   4.765 -0.5611 -0.1450 -0.0632
  156MOL0     O20463   6.899   2.574   4.863  0.1932  0.8816  0.7707
  156MOL0     C20464   6.853   2.441   4.871 -1.0207  0.3826 -0.9326
  156MOL0     C20465   6.719   2.401   4.861  0.2451  0.1990 -1.0417
  156MOL0     C20466   6.687   2.261   4.862  0.3172  0.1319  0.4115
  156MOL0     C20467   6.790   2.164   4.882  0.1800  0.2236  0.4213
  156MOL0     O20468   6.752   2.031   4.897  0.3565 -0.1749 -0.1365
  156MOL0     C20469   6.826   1.932   4.969  1.0033 -0.3834  0.8157
  156MOL0     C20470   6.722   1.822   5.022 -0.6042  0.1651  0.4800
  156MOL0     C20471   6.603   1.884   5.090 -0.5737 -0.6418 -0.2985
  156MOL0     C20472   6.504   1.778   5.142  0.0506 -0.5822  0.4338
  156MOL0     C20473   6.372   1.849   5.185 -0.6170  0.6358 -0.4495
  156MOL0     C20474   6.389   1.892   5.331 -0.1449  1.6026  0.0024
  156MOL0     C20475   6.302   2.015   5.380  1.0233 -0.5505 -0.6384
  156MOL0     C20476   6.279   2.008   5.533  0.0607 -0.2555 -0.5367
  156MOL0     N20477   6.159   1.927   5.548  0.1098  0.0098 -0.0778
  156MOL0     C20478   6.030   1.969   5.581  0.5891 -0.8403 -1.1245
  156MOL0     C20479   5.959   1.859   5.609 -0.1821 -0.0865 -0.2242
  156MOL0     C20480   5.821   1.855   5.668  0.3544 -0.9080  0.5440
  156MOL0     C20481   5.717   1.826   5.560  0.0481 -0.2250  0.6079
  156MOL0     C20482   5.710   1.950   5.472 -1.0641  1.0050 -0.6372
  156MOL0     C20483   5.567   2.007   5.455 -0.5963 -0.0825  0.0593
  156MOL0     O20484   5.515   2.038   5.579  0.1747  0.6103 -0.5389
  156MOL0     C20485   5.386   2.095   5.569  0.3148 -0.0275 -1.2223
  156MOL0     C20486   5.327   2.131   5.698 -0.1274 -0.9138  0.0834
  156MOL0     C20487   5.205   2.196   5.702 -0.0603 -0.0439  1.5646
  156MOL0     C20488   5.140   2.234   5.585 -1.1539 -0.8293 -0.0773
  156MOL0     C20489   5.008   2.303   5.588 -0.4394 -0.1099  0.2331
  156MOL0     O20490   4.932   2.291   5.701  0.2084  0.2270  0.6890
  156MOL0     C20491   4.811   2.356   5.705  0.2927  0.0161  0.5499
  156MOL0     C20492   4.714   2.349   5.604  0.0118  0.9708 -0.2909
  156MOL0     C20493   4.586   2.402   5.623  0.4448  0.4350 -0.7688
  156MOL0     C20494   4.549   2.463   5.748 -0.4179 -0.8699  0.4042
  156MOL0     O20495   4.423   2.516   5.742  0.2411 -0.3890 -1.1539
  156MOL0     C20496   4.411   2.645   5.805 -0.3888  1.3909  0.6759
  156MOL0     C20497   4.266   2.686   5.825  0.3606  0.0032  0.0351
  156MOL0     C20498   4.209   2.619   5.945  0.7180 -0.4070 -0.0095
  156MOL0     C20499   4.065   2.653   5.962  0.1187 -0.3582 -1.2769
  156MOL0     C20500   3.994   2.565   6.063  0.1768  1.5337 -0.5619
  156MOL0     C20501   3.838   2.569   6.062 -0.2071 -0.0367  0.5438
  156MOL0     C20502   3.797   2.712   6.095 -0.7749 -0.4524  0.0799
  156MOL0     C20503   3.653   2.732   6.120 -0.2141  0.0715  0.0312
  156MOL0    Cl20504   3.553   2.571   6.137 -0.5522 -0.0629 -0.1776
  156MOL0     C20505   4.649   2.475   5.851  0.0310  0.3800  0.3396
  156MOL0     C20506   4.775   2.419   5.825 -0.1591  1.2946 -0.1089
  156MOL0     O20507   4.980   2.361   5.483  0.5486 -0.7402 -0.6584
  156MOL0     C20508   5.198   2.201   5.462  0.2431 -0.2985 -0.0892
  156MOL0     C20509   5.315   2.128   5.451  0.6660 -0.0922  0.2337
  156MOL0     N20510   6.049   1.755   5.589 -0.2266 -0.5500  0.0484
  156MOL0     N20511   6.162   1.795   5.549  0.1097  0.2337  0.3692
  156MOL0     C20512   6.922   2.206   4.914 -0.1543  0.1329  0.1175
  156MOL0     C20513   6.946   2.341   4.903 -0.2300 -0.1429 -0.2066
  156MOL0     C20514   7.077   2.728   4.780  0.5066  0.1526  0.0526
  156MOL0     C20515   7.183   2.754   4.693 -0.6350 -0.0939  0.0036
  156MOL0     C20516   7.267   2.872   4.713 -0.8656 -1.0813 -1.0974
  156MOL0     C20517   7.251   2.958   4.819 -0.1700  0.0038 -1.1278
  156MOL0     O20518   7.325   3.076   4.819 -0.1548 -0.0930  0.7524
  156MOL0     C20519   7.325   3.170   4.925  0.0026 -0.2158 -0.2182
  156MOL0     C20520   7.407   3.114   5.040  0.0323 -0.8371 -0.3757
  156MOL0     C20521   7.417   3.214   5.154  0.0786 -0.6568 -0.7389
  156MOL0     C20522   7.510   3.183   5.272  0.4236  0.2716 -0.3239
  156MOL0     C20523   7.476   3.058   5.345 -0.0199 -0.4184  0.4536
  156MOL0     C20524   7.435   2.976   5.426 -0.3596  0.3344  0.1545
  156MOL0     C20525   7.169   2.916   4.921  0.0184 -0.4538 -0.0882
  156MOL0     C20526   7.084   2.802   4.902  0.3810 -0.6406 -0.4779
  156MOL0     H20527   6.646   2.482   4.860  0.5317  0.5278  0.5257
  156MOL0     H20528   6.584   2.226   4.862  0.9345 -1.8791  1.3235
  156MOL0     H20529   6.869   1.979   5.057  0.6651  2.7762 -0.5597
  156MOL0     H20530   6.907   1.894   4.906  0.9314  0.1627  0.3799
  156MOL0     H20531   6.772   1.747   5.084  1.0381  1.3391  0.6191
  156MOL0     H20532   6.697   1.785   4.922  2.2915  0.8438 -0.6029
  156MOL0     H20533   6.548   1.953   5.025  1.6637 -0.6296 -2.3086
  156MOL0     H20534   6.651   1.937   5.172  0.4714 -1.8262 -0.1195
  156MOL0     H20535   6.485   1.702   5.066 -0.1972  0.8832 -1.0078
  156MOL0     H20536   6.537   1.717   5.227  0.0635 -1.7731 -0.3985
  156MOL0     H20537   6.283   1.786   5.175 -1.1517  0.5584  3.1948
  156MOL0     H20538   6.358   1.933   5.116  0.9737  0.5169 -0.9546
  156MOL0     H20539   6.492   1.923   5.351  0.1523 -0.1203  1.3304
  156MOL0     H20540   6.371   1.800   5.387  1.0626  0.8689 -0.7795
  156MOL0     H20541   6.344   2.112   5.354 -3.1799  1.2975 -1.3828
  156MOL0     H20542   6.205   2.003   5.331 -0.7319 -0.5176  2.5501
  156MOL0     H20543   6.249   2.102   5.579 -2.4747 -0.6319 -1.2668
  156MOL0     H20544   6.363   1.959   5.583 -0.3941 -1.0039 -0.4928
  156MOL0     H20545   5.997   2.073   5.574  3.0438  0.0070 -1.0073
  156MOL0     H20546   5.795   1.952   5.712  2.5271  3.0551 -5.6014
  156MOL0     H20547   5.817   1.781   5.749  2.9358 -0.0581  1.5487
  156MOL0     H20548   5.626   1.813   5.620  1.4575 -2.3877  2.4363
  156MOL0     H20549   5.735   1.732   5.506 -2.4650 -0.9378  0.8564
  156MOL0     H20550   5.777   2.027   5.513 -0.3754  1.3728 -2.3673
  156MOL0     H20551   5.761   1.929   5.377  1.9730 -3.9781  1.7329
  156MOL0     H20552   5.498   1.935   5.409 -0.1216 -0.6073  0.1560
  156MOL0     H20553   5.578   2.097   5.394  2.7948 -2.3608 -3.1015
  156MOL0     H20554   5.380   2.106   5.789  2.8438  1.2336 -0.9214
  156MOL0     H20555   5.173   2.236   5.798 -4.3764  2.0388 -0.4453
  156MOL0     H20556   4.728   2.298   5.509  0.6527  1.5027 -0.4895
  156MOL0     H20557   4.511   2.407   5.545 -0.4043 -1.0733 -0.0853
  156MOL0     H20558   4.469   2.718   5.748  1.6053 -0.9726 -0.5596
  156MOL0     H20559   4.448   2.638   5.908 -0.4154 -2.7138  0.5938
  156MOL0     H20560   4.216   2.666   5.729  2.3091 -2.4474 -0.5832
  156MOL0     H20561   4.279   2.794   5.834 -0.1031  0.2510 -1.8638
  156MOL0     H20562   4.268   2.631   6.036  0.0020 -1.2338  0.5870
  156MOL0     H20563   4.211   2.517   5.907  1.8382  0.6587 -3.1046
  156MOL0     H20564   4.060   2.762   5.972  0.3480 -0.3139 -1.6564
  156MOL0     H20565   4.022   2.631   5.864 -1.3936 -1.2122 -0.4579
  156MOL0     H20566   4.039   2.582   6.161  1.6469 -2.0568 -0.4890
  156MOL0     H20567   4.010   2.460   6.037 -2.6625  0.1654  2.4210
  156MOL0     H20568   3.805   2.490   6.131  0.0803 -1.4354 -0.8766
  156MOL0     H20569   3.800   2.541   5.964 -3.8882 -0.1906  1.8312
  156MOL0     H20570   3.860   2.741   6.180  0.0364  0.9132 -0.9483
  156MOL0     H20571   3.822   2.779   6.013 -0.9667 -0.4455  0.0262
  156MOL0     H20572   3.606   2.778   6.033 -1.8166 -1.0437  0.2608
  156MOL0     H20573   3.644   2.799   6.206  1.5005 -0.2798  0.5243
  156MOL0     H20574   4.634   2.525   5.946  0.3441  3.5197 -1.1647
  156MOL0     H20575   4.851   2.417   5.903 -0.4946  0.6030  0.1995
  156MOL0     H20576   5.149   2.231   5.370  0.7315 -1.8733 -0.9014
  156MOL0     H20577   5.349   2.109   5.349 -2.0652 -1.7252 -0.4639
  156MOL0     H20578   7.003   2.138   4.938 -1.0211 -0.0320  2.9097
  156MOL0     H20579   7.051   2.364   4.915 -0.0082 -1.5109  0.7231
  156MOL0     H20580   7.201   2.695   4.604  1.5603  4.0806 -2.6659
  156MOL0     H20581   7.345   2.893   4.641  0.9432 -1.7078  0.5883
  156MOL0     H20582   7.219   3.193   4.938 -0.3307 -1.8561  0.1549
  156MOL0     H20583   7.368   3.263   4.885 -1.4892 -0.1767 -1.8509
  156MOL0     H20584   7.356   3.029   5.087 -2.3005  0.1457 -0.9794
  156MOL0     H20585   7.503   3.091   4.995  0.5162  1.4838 -0.6377
  156MOL0     H20586   7.317   3.229   5.195 -0.4296 -4.7401 -0.0553
  156MOL0     H20587   7.440   3.311   5.107  0.0067 -1.7262 -3.1397
  156MOL0     H20588   7.613   3.174   5.236 -0.4370  1.3658 -3.4174
  156MOL0     H20589   7.503   3.255   5.355 -2.0089 -3.9049  3.5236
  156MOL0     H20590   7.417   2.906   5.506 -1.8449  0.9169  0.3701
  156MOL0     H20591   7.165   2.963   5.019  1.2771 -4.8767  2.3268
  156MOL0     H20592   7.021   2.779   4.988  1.0148 -1.7290 -0.2800
  157MOL0     O20593   2.478   3.917   3.048  0.4057 -0.7432 -0.6062
  157MOL0     C20594   2.385   3.838   3.035 -0.7643 -0.8288 -0.6568
  157MOL0     O20595   2.397   3.711   2.975  0.4442 -0.7975  0.3181
  157MOL0     C20596   2.519   3.679   2.926 -0.3619  0.1778 -0.5064
  157MOL0     C20597   2.592   3.593   3.005  0.1035 -1.1045 -0.7760
  157MOL0     C20598   2.727   3.560   2.969  0.3795 -0.4589 -0.5024
  157MOL0     C20599   2.786   3.619   2.852 -0.1536 -0.2375  0.0870
  157MOL0     O20600   2.916   3.597   2.812 -0.2233 -0.5633 -0.0513
  157MOL0     C20601   2.996   3.495   2.873 -0.3198  0.1528 -1.1552
  157MOL0     C20602   3.119   3.471   2.781 -0.6512 -0.2776  0.3275
  157MOL0     C20603   3.202   3.336   2.796  0.4140  0.1219  0.5611
  157MOL0     C20604   3.332   3.334   2.713  0.0613  0.6420 -0.7021
  157MOL0     C20605   3.455   3.264   2.776 -0.7009 -0.1670  0.1231
  157MOL0     C20606   3.442   3.110   2.773  0.8037  1.0087 -0.7622
  157MOL0     C20607   3.484   3.063   2.902 -0.8930  0.2373  0.0769
  157MOL0     C20608   3.486   2.902   2.911  0.4677 -0.0421  0.6008
  157MOL0     N20609   3.337   2.861   2.912 -0.2670  0.6959 -0.3347
  157MOL0     C20610   3.269   2.796   2.810  0.1077  0.7116 -0.5398
  157MOL0     C20611   3.148   2.765   2.868 -0.9040  0.7454 -0.4094
  157MOL0     C20612   3.022   2.700   2.818  0.4742  1.1994  0.0726
  157MOL0     C20613   2.916   2.805   2.813  0.2682  0.0559 -0.8015
  157MOL0     C20614   2.798   2.765   2.717  0.1509  0.3528 -0.1474
  157MOL0     C20615   2.676   2.855   2.741 -0.0687  0.1523 -0.1341
  157MOL0     O20616   2.581   2.825   2.641 -0.6995 -0.7379  0.3218
  157MOL0     C20617   2.454   2.883   2.649  0.6276  1.0820 -0.3822
  157MOL0     C20618   2.378   2.889   2.529 -0.2623 -0.5948 -0.4579
  157MOL0     C20619   2.251   2.933   2.531  0.2268 -0.2308 -0.8782
  157MOL0     C20620   2.192   2.989   2.646  0.2083 -0.0084  0.5512
  157MOL0     C20621   2.052   3.041   2.632  0.9770  0.6248 -1.3766
  157MOL0     O20622   2.022   3.118   2.747 -0.4437 -0.2388 -0.0992
  157MOL0     C20623   1.900   3.113   2.805 -0.6275  0.4340  0.5359
  157MOL0     C20624   1.831   2.994   2.822  0.2909 -0.4826  0.1454
  157MOL0     C20625   1.702   2.995   2.880 -0.4521  1.3030  0.6091
  157MOL0     C20626   1.636   3.107   2.916  0.4295 -0.4694  0.4386
  157MOL0     O20627   1.503   3.101   2.969  0.1211 -0.3422  0.6499
  157MOL0     C20628   1.451   2.975   3.021  0.1085 -0.7051 -0.1441
  157MOL0     C20629   1.317   3.014   3.083 -0.4160 -0.2990  0.4247
  157MOL0     C20630   1.209   3.037   2.985 -0.3166  0.5305  0.6457
  157MOL0     C20631   1.081   3.101   3.039 -0.0087  0.8118 -0.0358
  157MOL0     C20632   1.106   3.239   3.098 -0.5035  0.5181 -0.0994
  157MOL0     C20633   0.973   3.317   3.140 -0.2190  0.7104 -0.4342
  157MOL0     C20634   0.999   3.458   3.203 -1.2336  0.1134  0.8375
  157MOL0     C20635   0.934   3.452   3.341  0.1020  0.7300  0.4188
  157MOL0    Cl20636   0.942   3.612   3.392 -0.4942  0.1004  0.1073
  157MOL0     C20637   1.712   3.224   2.910  0.0369  0.5958  0.5485
  157MOL0     C20638   1.840   3.228   2.848  1.4549  0.1663 -0.5283
  157MOL0     O20639   1.973   2.993   2.552  0.4821  0.6092 -0.1494
  157MOL0     C20640   2.267   2.992   2.766 -0.3431  0.2797  0.3311
  157MOL0     C20641   2.391   2.928   2.766  0.1244 -0.8656 -0.1372
  157MOL0     N20642   3.155   2.807   3.004  0.4544 -0.1443  0.1307
  157MOL0     N20643   3.271   2.856   3.029  0.2266  0.2861  0.4364
  157MOL0     C20644   2.701   3.699   2.772 -0.2262  0.4864 -0.8687
  157MOL0     C20645   2.571   3.739   2.810 -0.7151  0.5108  0.2703
  157MOL0     C20646   2.259   3.879   3.094  0.6043 -0.6765 -0.6675
  157MOL0     C20647   2.235   4.019   3.123  0.4432  0.8619 -0.3564
  157MOL0     C20648   2.117   4.056   3.187  0.8043  0.6442 -0.0358
  157MOL0     C20649   2.020   3.971   3.224 -0.0486  0.0756 -0.5631
  157MOL0     O20650   1.893   4.018   3.262 -1.0296  0.3760  0.0817
  157MOL0     C20651   1.786   3.933   3.300  0.7249 -0.6869  1.0095
  157MOL0     C20652   1.658   4.012   3.315  0.5688  0.0303 -0.0014
  157MOL0     C20653   1.542   3.925   3.341 -0.6003 -0.4004 -0.6345
  157MOL0     C20654   1.419   4.014   3.364  0.3754 -0.3588  0.7425
  157MOL0     C20655   1.293   3.938   3.381 -0.1929  1.1037 -0.3142
  157MOL0     C20656   1.201   3.866   3.408  0.0966  0.5067  0.7080
  157MOL0     C20657   2.044   3.830   3.206 -0.1999 -0.1308 -0.5858
  157MOL0     C20658   2.157   3.787   3.135 -0.1669 -0.8138  0.7306
  157MOL0     H20659   2.552   3.552   3.098  0.5127  0.3457  0.0679
  157MOL0     H20660   2.781   3.501   3.043  1.4989  2.1047  0.8317
  157MOL0     H20661   2.946   3.399   2.882  2.0935 -1.1050 -0.2186
  157MOL0     H20662   3.023   3.545   2.967  2.6551 -1.9115 -0.7664
  157MOL0     H20663   3.195   3.550   2.780  2.5549 -3.1169 -0.5209
  157MOL0     H20664   3.077   3.477   2.680 -2.3373 -1.8025  0.8783
  157MOL0     H20665   3.147   3.254   2.749  2.7089  0.9277 -4.2708
  157MOL0     H20666   3.224   3.324   2.902  0.9822 -1.2015  0.3162
  157MOL0     H20667   3.306   3.281   2.621 -4.3058  0.4052  0.4606
  157MOL0     H20668   3.361   3.439   2.701  1.7137  0.4227  0.9362
  157MOL0     H20669   3.464   3.297   2.880  4.1039 -1.0239  0.1924
  157MOL0     H20670   3.547   3.299   2.728 -0.2664  0.6705  1.5138
  157MOL0     H20671   3.515   3.084   2.696  1.6006  1.2830 -0.1166
  157MOL0     H20672   3.341   3.086   2.739  0.7774 -1.3077  0.7738
  157MOL0     H20673   3.585   3.100   2.918  0.0255 -1.5871 -1.2539
  157MOL0     H20674   3.419   3.098   2.983  0.0252 -0.9649  1.3728
  157MOL0     H20675   3.524   2.867   3.006 -1.7575 -4.6842  0.0458
  157MOL0     H20676   3.552   2.871   2.830  1.0721  0.8338  0.7459
  157MOL0     H20677   3.308   2.760   2.716 -0.8743 -1.3027 -0.2282
  157MOL0     H20678   2.999   2.611   2.878  0.0892  0.8386 -0.6061
  157MOL0     H20679   3.041   2.672   2.714  1.1888  1.9317 -0.0030
  157MOL0     H20680   2.960   2.902   2.787 -1.4238  1.6193  1.7622
  157MOL0     H20681   2.868   2.806   2.911  1.2089  0.0537 -0.3351
  157MOL0     H20682   2.826   2.779   2.612 -0.1219  0.5890 -0.1910
  157MOL0     H20683   2.778   2.660   2.742  0.0221  0.5832  0.7559
  157MOL0     H20684   2.710   2.958   2.726 -2.7355  0.9763 -1.1005
  157MOL0     H20685   2.628   2.841   2.838 -0.0395 -0.8564 -0.2539
  157MOL0     H20686   2.433   2.852   2.443  0.3059 -0.3026 -0.2234
  157MOL0     H20687   2.203   2.948   2.435  1.7676  0.1866 -1.6107
  157MOL0     H20688   1.887   2.903   2.805 -1.7308 -2.1907  2.0550
  157MOL0     H20689   1.653   2.898   2.888  0.8308  0.6412  0.6240
  157MOL0     H20690   1.513   2.928   3.098 -0.2206 -0.2841  0.3893
  157MOL0     H20691   1.423   2.899   2.948  0.2531  0.1016 -1.0553
  157MOL0     H20692   1.333   3.101   3.147  0.3919  0.0581 -0.2446
  157MOL0     H20693   1.284   2.931   3.147  0.3161 -0.8910  0.0566
  157MOL0     H20694   1.184   2.948   2.927  2.5480 -0.0536  0.1521
  157MOL0     H20695   1.255   3.107   2.915  1.7833  0.1839  1.6053
  157MOL0     H20696   1.003   3.115   2.963 -2.9173  2.1469  2.9418
  157MOL0     H20697   1.051   3.036   3.122  0.2257  2.5677  1.4926
  157MOL0     H20698   1.176   3.290   3.031  2.9943 -1.7202  1.5402
  157MOL0     H20699   1.167   3.222   3.187  3.1623  2.8672 -1.9121
  157MOL0     H20700   0.916   3.249   3.203  0.4264 -0.2120 -0.8272
  157MOL0     H20701   0.899   3.330   3.061 -1.2461 -0.0750  0.3693
  157MOL0     H20702   1.107   3.479   3.206 -1.6666  2.6467  2.1203
  157MOL0     H20703   0.950   3.537   3.146 -1.2549  0.4822  1.3516
  157MOL0     H20704   0.994   3.385   3.404  2.8287  1.4050 -1.2731
  157MOL0     H20705   0.831   3.415   3.344  0.2716  0.3022  1.4315
  157MOL0     H20706   1.664   3.316   2.941  0.6567  0.8910  0.6380
  157MOL0     H20707   1.904   3.315   2.839  0.6026  0.8529 -0.0740
  157MOL0     H20708   2.238   3.038   2.860  3.0598 -2.7648  3.1703
  157MOL0     H20709   2.437   2.918   2.864  0.7797  4.0713  0.3109
  157MOL0     H20710   2.742   3.754   2.688 -2.6089  1.6407 -1.3743
  157MOL0     H20711   2.521   3.820   2.757 -0.0937 -0.8240 -2.5614
  157MOL0     H20712   2.297   4.107   3.107 -3.0313  3.5914  0.0621
  157MOL0     H20713   2.092   4.160   3.207 -5.1168 -0.3402 -0.6546
  157MOL0     H20714   1.811   3.873   3.388 -0.5099 -1.3386  0.9375
  157MOL0     H20715   1.769   3.862   3.219 -2.9973  0.7317  0.3530
  157MOL0     H20716   1.685   4.078   3.397  3.9587 -0.4359 -0.6121
  157MOL0     H20717   1.641   4.079   3.229 -0.6542 -0.4744 -0.1724
  157MOL0     H20718   1.572   3.865   3.427 -0.5065  0.6927  0.1099
  157MOL0     H20719   1.511   3.859   3.260 -1.2317  0.2109 -0.9047
  157MOL0     H20720   1.437   4.067   3.457  0.6331  0.7955  0.0564
  157MOL0     H20721   1.396   4.067   3.271 -0.8007 -3.1448 -0.6512
  157MOL0     H20722   1.115   3.805   3.429 -0.8784  2.0713  1.4130
  157MOL0     H20723   1.975   3.752   3.235  0.2395 -0.6064 -0.7944
  157MOL0     H20724   2.168   3.680   3.122 -2.8681 -0.8251 -2.8422
  158MOL0     O20725   9.565   7.998   5.490  0.5777 -0.1638 -0.4619
  158MOL0     C20726   9.551   7.950   5.374  0.0018  0.7140 -1.9246
  158MOL0     O20727   9.638   7.865   5.318  0.9957  0.7356  0.3166
  158MOL0     C20728   9.734   7.806   5.399  0.0732  0.1054 -0.7216
  158MOL0     C20729   9.859   7.866   5.433 -0.7853  0.3900  0.3061
  158MOL0     C20730   9.958   7.793   5.502 -0.6064 -0.7373 -0.9348
  158MOL0     C20731   9.934   7.669   5.560 -0.5506  0.9653  0.4722
  158MOL0     O20732  10.012   7.615   5.663 -0.0538  0.2436 -0.0942
  158MOL0     C20733  10.154   7.627   5.666 -0.5532 -1.0354  0.2663
  158MOL0     C20734  10.195   7.531   5.767 -0.7359 -0.0149  0.5682
  158MOL0     C20735  10.344   7.548   5.798 -0.3886  0.4209  0.2484
  158MOL0     C20736  10.393   7.448   5.905 -0.6374 -0.9153 -0.3574
  158MOL0     C20737  10.376   7.499   6.050 -0.9485  0.2895  0.0339
  158MOL0     C20738  10.401   7.386   6.161  1.0042 -0.3967  0.8299
  158MOL0     C20739  10.538   7.329   6.144  0.1212 -0.9071  0.9023
  158MOL0     C20740  10.605   7.275   6.271 -0.0631  0.2995  0.1164
  158MOL0     N20741  10.737   7.222   6.228  0.2402  0.8209 -0.3264
  158MOL0     C20742  10.767   7.094   6.256  0.3105 -0.8713 -1.2052
  158MOL0     C20743  10.899   7.084   6.239 -0.5265  0.9399 -0.2689
  158MOL0     C20744  10.976   6.955   6.263 -0.7202  0.1663 -0.2517
  158MOL0     C20745  11.131   6.967   6.268  0.4962  0.4385 -0.6112
  158MOL0     C20746  11.189   6.833   6.330  0.7192 -0.5315 -0.4866
  158MOL0     C20747  11.342   6.821   6.319 -1.0682 -0.0705  0.5607
  158MOL0     O20748  11.392   6.687   6.292  0.1551 -0.6682 -0.7282
  158MOL0     C20749  11.526   6.647   6.282  0.5757  0.0374  0.1691
  158MOL0     C20750  11.544   6.506   6.273  0.1595 -0.4319  0.4120
  158MOL0     C20751  11.681   6.451   6.266 -0.0724  0.0750  0.0622
  158MOL0     C20752  11.790   6.538   6.263 -0.7893  0.2285 -0.3728
  158MOL0     C20753  11.927   6.477   6.250  0.5186  0.5360 -0.2061
  158MOL0     O20754  12.026   6.557   6.219 -0.1375 -0.2109 -0.1750
  158MOL0     C20755  12.150   6.512   6.176  0.3996  0.0948 -0.8720
  158MOL0     C20756  12.257   6.564   6.234  0.3125  0.3435  0.5338
  158MOL0     C20757  12.382   6.518   6.210  0.0381 -0.1168 -0.3897
  158MOL0     C20758  12.399   6.417   6.120  0.0563 -0.2042  0.4298
  158MOL0     O20759  12.512   6.348   6.105  0.0978 -0.4528  0.4704
  158MOL0     C20760  12.632   6.430   6.104  0.3440 -0.8213  0.1920
  158MOL0     C20761  12.748   6.331   6.116 -0.5565  0.1243  0.7368
  158MOL0     C20762  12.885   6.399   6.085  0.2438  0.7951 -0.0551
  158MOL0     C20763  13.010   6.331   6.161  0.2410 -0.0578  0.4641
  158MOL0     C20764  13.138   6.387   6.109 -0.8721 -0.1507  0.9071
  158MOL0     C20765  13.263   6.332   6.183 -0.0832  0.3658 -0.2926
  158MOL0     C20766  13.300   6.184   6.127  0.3539  0.1322 -0.2830
  158MOL0     C20767  13.419   6.135   6.205 -0.3980 -0.3891 -0.1323
  158MOL0    Cl20768  13.446   5.953   6.180 -0.4948 -0.5048  0.3769
  158MOL0     C20769  12.285   6.365   6.049 -0.8637  0.2621 -0.8448
  158MOL0     C20770  12.162   6.421   6.074 -1.1478 -0.2380 -0.0356
  158MOL0     O20771  11.930   6.355   6.246 -0.3580  0.0135 -0.0957
  158MOL0     C20772  11.761   6.672   6.282 -0.6117  0.5551 -0.7779
  158MOL0     C20773  11.637   6.732   6.291  0.1462 -0.4602 -0.2159
  158MOL0     N20774  10.954   7.207   6.217 -0.0882  0.0521 -0.3080
  158MOL0     N20775  10.854   7.291   6.206 -0.5735 -0.0479 -0.0620
  158MOL0     C20776   9.805   7.603   5.527 -1.8463 -0.3172 -0.2336
  158MOL0     C20777   9.716   7.671   5.438 -0.2084 -0.3740 -0.2911
  158MOL0     C20778   9.441   8.001   5.288 -0.8530  0.2885 -0.5913
  158MOL0     C20779   9.418   7.942   5.166  0.2752  0.6332 -1.1107
  158MOL0     C20780   9.308   7.986   5.093 -0.7583 -0.0880  0.2329
  158MOL0     C20781   9.237   8.099   5.129 -0.0349 -0.1169 -0.6970
  158MOL0     O20782   9.128   8.162   5.070 -0.0449  0.1981  1.0941
  158MOL0     C20783   9.072   8.100   4.958  1.0562 -0.5351  0.2527
  158MOL0     C20784   8.943   8.021   4.999  0.1927 -0.5462 -1.0640
  158MOL0     C20785   8.864   7.978   4.885 -1.9664  0.6201 -0.3601
  158MOL0     C20786   8.737   7.903   4.921 -0.2355  0.0175  0.8144
  158MOL0     C20787   8.640   7.988   4.985 -0.4265 -0.5037  0.4361
  158MOL0     C20788   8.569   8.071   5.033  0.5198  0.2967  0.2470
  158MOL0     C20789   9.264   8.153   5.252  0.2824  0.3926  0.2659
  158MOL0     C20790   9.361   8.104   5.333  0.1986 -0.2567 -0.3972
  158MOL0     H20791   9.891   7.967   5.410 -1.6372  0.6879  0.3911
  158MOL0     H20792  10.051   7.838   5.534 -1.3584 -0.3237  0.7606
  158MOL0     H20793  10.184   7.725   5.705 -2.6062  0.3649 -1.4074
  158MOL0     H20794  10.195   7.618   5.565 -0.6619  1.4794 -0.0711
  158MOL0     H20795  10.172   7.429   5.737  0.6202  0.0782 -0.9036
  158MOL0     H20796  10.138   7.550   5.859 -0.0383  0.4220  0.9210
  158MOL0     H20797  10.370   7.653   5.818 -2.6098  0.9894  0.4456
  158MOL0     H20798  10.395   7.533   5.702 -1.4504  2.8034 -0.7907
  158MOL0     H20799  10.326   7.361   5.899 -0.5353 -1.0608  0.4748
  158MOL0     H20800  10.495   7.413   5.890 -0.2250 -0.8727  1.9646
  158MOL0     H20801  10.275   7.537   6.066 -1.0307  0.6468 -1.2516
  158MOL0     H20802  10.448   7.579   6.072  1.9787 -1.7979 -1.2700
  158MOL0     H20803  10.335   7.301   6.144 -0.0335  0.9805 -3.0213
  158MOL0     H20804  10.393   7.435   6.258  3.1975  2.8991 -0.4507
  158MOL0     H20805  10.533   7.248   6.071 -1.9380  0.5454 -0.6798
  158MOL0     H20806  10.611   7.398   6.101 -0.6335 -1.1821 -0.8844
  158MOL0     H20807  10.556   7.198   6.331 -0.5039  0.0275 -0.5792
  158MOL0     H20808  10.627   7.362   6.333  0.0049  0.2016  0.2309
  158MOL0     H20809  10.700   7.022   6.303  1.9406 -2.3390 -0.9889
  158MOL0     H20810  10.958   6.890   6.177 -1.2784  0.8833 -0.6903
  158MOL0     H20811  10.938   6.911   6.356  1.3223  0.8296  0.9634
  158MOL0     H20812  11.153   7.062   6.316  0.0773  0.1417  0.2004
  158MOL0     H20813  11.175   6.970   6.168  1.8613 -0.4482 -0.0754
  158MOL0     H20814  11.157   6.817   6.433  2.8005  1.9069  0.6471
  158MOL0     H20815  11.150   6.745   6.278  2.1557 -1.6015  0.1797
  158MOL0     H20816  11.394   6.857   6.408  1.3748  0.4595 -0.9810
  158MOL0     H20817  11.370   6.896   6.244  1.0637  0.4133  1.7780
  158MOL0     H20818  11.455   6.444   6.279 -1.5011  1.9185  1.7376
  158MOL0     H20819  11.691   6.343   6.271 -1.2086 -0.2065 -2.2372
  158MOL0     H20820  12.239   6.635   6.315  0.3346 -2.6243  3.3648
  158MOL0     H20821  12.461   6.536   6.282  0.0108 -0.2462 -0.3279
  158MOL0     H20822  12.643   6.489   6.195 -0.9353 -0.3876  0.0800
  158MOL0     H20823  12.632   6.491   6.014  3.9687  2.8889  2.3371
  158MOL0     H20824  12.730   6.250   6.044  1.7120  2.1448 -2.3787
  158MOL0     H20825  12.744   6.291   6.218 -0.3860 -1.0275  0.3047
  158MOL0     H20826  12.883   6.508   6.094  0.1724  0.6715  1.8345
  158MOL0     H20827  12.914   6.385   5.980  0.1080  0.9850 -0.1196
  158MOL0     H20828  13.003   6.355   6.267 -1.0251 -0.2651  0.4386
  158MOL0     H20829  13.008   6.222   6.155  0.9783 -0.5284  5.0417
  158MOL0     H20830  13.133   6.496   6.108  2.5265  0.0865  0.7965
  158MOL0     H20831  13.147   6.368   6.002 -1.3676  0.6809  0.7063
  158MOL0     H20832  13.252   6.324   6.292  0.4872 -0.4689 -0.2863
  158MOL0     H20833  13.351   6.397   6.175  0.6595 -0.1880  2.2968
  158MOL0     H20834  13.218   6.112   6.133  0.4082 -0.4313 -4.0084
  158MOL0     H20835  13.309   6.185   6.018 -0.5741 -1.3903 -0.3890
  158MOL0     H20836  13.404   6.150   6.312 -3.1470 -0.5377 -0.4353
  158MOL0     H20837  13.496   6.199   6.161 -1.1962 -2.2636 -4.9216
  158MOL0     H20838  12.288   6.274   5.991  0.0791 -1.0297  1.1319
  158MOL0     H20839  12.079   6.387   6.012  0.8949 -2.7749 -1.5614
  158MOL0     H20840  11.850   6.734   6.290 -0.0396 -0.3738  0.6207
  158MOL0     H20841  11.627   6.839   6.304 -0.0501 -0.6071  1.0139
  158MOL0     H20842   9.795   7.503   5.565  0.3066 -0.5789 -0.2372
  158MOL0     H20843   9.624   7.622   5.408  0.3133 -0.9719 -0.9320
  158MOL0     H20844   9.471   7.854   5.131 -1.7280 -1.1414  0.0603
  158MOL0     H20845   9.279   7.918   5.013 -0.3691  0.3554 -0.2949
  158MOL0     H20846   9.140   8.036   4.901  1.9954 -1.7273  2.5575
  158MOL0     H20847   9.050   8.175   4.882 -0.6328  0.7132  1.8716
  158MOL0     H20848   8.955   7.943   5.075 -0.8730  0.5372  0.2921
  158MOL0     H20849   8.872   8.083   5.055 -0.2714 -1.7744 -0.2553
  158MOL0     H20850   8.925   7.905   4.831 -1.8354 -0.6523  1.4287
  158MOL0     H20851   8.837   8.064   4.822 -2.3411  1.8348  1.3838
  158MOL0     H20852   8.674   7.877   4.836  0.6472 -2.1949  0.7723
  158MOL0     H20853   8.763   7.815   4.982 -0.3332 -0.2910  0.4136
  158MOL0     H20854   8.505   8.144   5.077  2.3330  0.9894  1.8936
  158MOL0     H20855   9.205   8.238   5.286  1.6185  1.4588  0.0125
  158MOL0     H20856   9.374   8.139   5.435 -0.9964 -1.0129  0.0363
  159MOL0     O20857   3.946   9.007   3.509  0.0144 -0.4260 -0.0210
  159MOL0     C20858   3.945   8.898   3.456 -0.6565 -0.1607  0.4849
  159MOL0     O20859   4.044   8.851   3.380  0.1839  0.6741 -1.0220
  159MOL0     C20860   4.156   8.928   3.361  0.6070 -0.3939 -0.4437
  159MOL0     C20861   4.246   8.946   3.472  1.1253  0.2999  0.1406
  159MOL0     C20862   4.377   8.994   3.440  0.0616 -0.1608  0.4108
  159MOL0     C20863   4.407   9.048   3.317  0.4529 -0.1234 -0.0187
  159MOL0     O20864   4.535   9.104   3.306  0.1034  0.2163 -0.1789
  159MOL0     C20865   4.567   9.192   3.200 -0.3887  0.5330  0.4904
  159MOL0     C20866   4.715   9.248   3.207  0.5132 -0.1929 -0.4133
  159MOL0     C20867   4.817   9.147   3.240 -0.3546 -0.3104 -0.0413
  159MOL0     C20868   4.962   9.203   3.232  0.6190  0.1921  0.0936
  159MOL0     C20869   5.051   9.079   3.218 -0.2415  0.4627  0.3989
  159MOL0     C20870   5.190   9.124   3.167 -0.7305 -0.2896  0.7249
  159MOL0     C20871   5.303   9.026   3.214 -0.5452 -1.2096  0.0442
  159MOL0     C20872   5.438   9.064   3.153 -0.7886  0.1004 -0.3688
  159MOL0     N20873   5.537   8.960   3.177 -0.3863 -0.6990 -0.2819
  159MOL0     C20874   5.638   8.925   3.095 -0.4225 -0.3632 -0.7280
  159MOL0     C20875   5.702   8.826   3.163  0.9405 -1.1842  0.2197
  159MOL0     C20876   5.815   8.747   3.123  0.0496 -0.2009 -0.1290
  159MOL0     C20877   5.772   8.599   3.101 -0.3490  0.3885  0.0398
  159MOL0     C20878   5.662   8.576   2.995  0.4770  0.6294  0.1061
  159MOL0     C20879   5.725   8.602   2.861 -0.0688 -0.3042 -0.6565
  159MOL0     O20880   5.821   8.507   2.826 -0.9079 -0.5071  0.0999
  159MOL0     C20881   5.859   8.481   2.693 -0.3019 -0.4575 -0.0679
  159MOL0     C20882   5.811   8.558   2.586  0.8540  0.0267 -0.0682
  159MOL0     C20883   5.844   8.519   2.452  0.2232 -0.2359  0.0732
  159MOL0     C20884   5.935   8.421   2.421 -0.2811 -0.1991 -0.6397
  159MOL0     C20885   5.982   8.404   2.281 -0.6135  0.1612 -0.1971
  159MOL0     O20886   5.897   8.424   2.187  0.2922  0.2219  0.1786
  159MOL0     C20887   5.924   8.424   2.056 -0.1251  1.1799  0.5305
  159MOL0     C20888   6.050   8.444   1.993 -0.3938  0.4435 -0.0008
  159MOL0     C20889   6.072   8.442   1.855  0.7897 -0.7137  0.1965
  159MOL0     C20890   5.962   8.408   1.777 -0.8193  0.1728  0.0853
  159MOL0     O20891   5.959   8.376   1.641 -0.1277  0.2951 -0.5742
  159MOL0     C20892   6.059   8.429   1.565  0.0870 -0.0946 -0.0539
  159MOL0     C20893   6.037   8.392   1.422  0.4289 -0.1952 -0.0511
  159MOL0     C20894   6.124   8.460   1.320  0.4050  0.8681 -0.7911
  159MOL0     C20895   6.272   8.453   1.332  0.2732 -0.8980  0.4284
  159MOL0     C20896   6.345   8.501   1.208  0.4768 -0.5213  0.2495
  159MOL0     C20897   6.363   8.373   1.124  0.2133 -0.9934 -0.7659
  159MOL0     C20898   6.439   8.404   0.995 -0.1295 -0.5105  0.6691
  159MOL0     C20899   6.424   8.273   0.910 -0.1696  0.4647 -0.2348
  159MOL0    Cl20900   6.252   8.210   0.902 -0.4356 -0.4665  0.0136
  159MOL0     C20901   5.833   8.389   1.833  0.1859  0.3365  0.2156
  159MOL0     C20902   5.814   8.412   1.974  0.9131  0.3387 -0.1704
  159MOL0     O20903   6.104   8.375   2.262  0.0235 -0.2525  0.3500
  159MOL0     C20904   5.994   8.365   2.531 -0.5205  0.7328 -0.1253
  159MOL0     C20905   5.949   8.378   2.662  0.3893  0.2759 -0.2968
  159MOL0     N20906   5.645   8.807   3.286  0.4839 -0.3036 -0.2950
  159MOL0     N20907   5.547   8.893   3.291  0.8733  0.1927 -1.3801
  159MOL0     C20908   4.309   9.031   3.210 -0.1997  0.2414 -0.4238
  159MOL0     C20909   4.179   8.974   3.235  0.5498 -0.3890 -1.0503
  159MOL0     C20910   3.842   8.798   3.480  0.2740 -0.1495  0.0582
  159MOL0     C20911   3.740   8.826   3.569 -0.1221 -0.2947 -0.9317
  159MOL0     C20912   3.654   8.729   3.623  0.1686 -0.3069 -0.0729
  159MOL0     C20913   3.664   8.595   3.574 -0.6252 -0.4554 -0.7083
  159MOL0     O20914   3.581   8.493   3.604 -0.0978 -0.1648 -0.2075
  159MOL0     C20915   3.440   8.505   3.634  0.6861  0.2125 -0.0220
  159MOL0     C20916   3.416   8.418   3.759  0.4858 -0.1281  0.0506
  159MOL0     C20917   3.462   8.279   3.733 -0.0452  0.0866 -0.8724
  159MOL0     C20918   3.449   8.182   3.854  0.2226 -0.1643 -0.5076
  159MOL0     C20919   3.310   8.142   3.892 -0.1071 -0.0451  0.7523
  159MOL0     C20920   3.200   8.095   3.912  0.0958  0.3809  1.3859
  159MOL0     C20921   3.766   8.559   3.492  0.2762  0.7292  0.1948
  159MOL0     C20922   3.851   8.663   3.445 -0.5756  0.0273 -0.4528
  159MOL0     H20923   4.222   8.888   3.561  4.4828 -0.2595  0.8379
  159MOL0     H20924   4.456   8.988   3.514  0.2470  0.4931  0.2655
  159MOL0     H20925   4.503   9.281   3.192 -0.8380  0.4512  2.5743
  159MOL0     H20926   4.544   9.146   3.103 -0.8139  0.7400  0.4897
  159MOL0     H20927   4.707   9.324   3.286  2.0903  0.2843 -0.6820
  159MOL0     H20928   4.743   9.293   3.112  3.4275  0.4689  0.6715
  159MOL0     H20929   4.797   9.067   3.168 -3.7439 -0.8033  1.2553
  159MOL0     H20930   4.798   9.108   3.341  2.7936  0.8332  1.1214
  159MOL0     H20931   4.966   9.265   3.142 -0.3342 -0.3998 -0.3760
  159MOL0     H20932   4.975   9.267   3.320  0.0109  2.3813 -1.3401
  159MOL0     H20933   4.999   9.023   3.139 -2.6121  1.3872  1.2165
  159MOL0     H20934   5.069   9.016   3.306 -0.3219 -2.0670 -1.3000
  159MOL0     H20935   5.207   9.223   3.210 -0.6413 -0.7754  1.8461
  159MOL0     H20936   5.189   9.131   3.058 -1.8789  1.5060  0.8046
  159MOL0     H20937   5.312   9.026   3.323  2.2287 -2.2132 -0.0997
  159MOL0     H20938   5.261   8.930   3.182 -1.3601  0.3276 -4.1176
  159MOL0     H20939   5.475   9.159   3.194 -0.0411 -0.0984 -0.5658
  159MOL0     H20940   5.424   9.091   3.048 -2.0061  3.2099  0.4676
  159MOL0     H20941   5.663   8.972   3.001  0.8361  2.6081  0.9535
  159MOL0     H20942   5.897   8.752   3.195 -0.6064  2.8938  0.5158
  159MOL0     H20943   5.857   8.788   3.031  0.6755 -0.2455  0.1372
  159MOL0     H20944   5.741   8.553   3.195  1.8398 -0.9529  0.1674
  159MOL0     H20945   5.866   8.548   3.077  1.1359  1.7465  2.5563
  159MOL0     H20946   5.617   8.476   2.991 -0.5276  0.9224  2.4309
  159MOL0     H20947   5.566   8.626   3.012 -2.2388 -3.6908 -0.8374
  159MOL0     H20948   5.757   8.705   2.842  0.2317 -0.3363 -0.3244
  159MOL0     H20949   5.651   8.587   2.782  0.4026 -1.1257 -0.9491
  159MOL0     H20950   5.756   8.651   2.596  0.1988 -0.2276 -1.1283
  159MOL0     H20951   5.791   8.575   2.375  0.5010  0.2384  0.2185
  159MOL0     H20952   6.137   8.472   2.051 -0.2110  2.5448 -1.1786
  159MOL0     H20953   6.172   8.453   1.814 -0.3074  0.6567 -2.2987
  159MOL0     H20954   6.149   8.377   1.599  0.2792  2.0893  3.3042
  159MOL0     H20955   6.074   8.537   1.574 -1.3734  0.0360  1.2511
  159MOL0     H20956   5.934   8.409   1.389  1.0757 -2.8454 -4.0835
  159MOL0     H20957   6.049   8.285   1.405  1.0862 -0.1334  0.0110
  159MOL0     H20958   6.105   8.568   1.330 -1.3610  0.5149 -0.1156
  159MOL0     H20959   6.100   8.419   1.221 -0.2471  0.3363 -0.4195
  159MOL0     H20960   6.295   8.518   1.417 -0.0002  0.4186 -0.4749
  159MOL0     H20961   6.311   8.357   1.365  4.4106  1.2482  2.5969
  159MOL0     H20962   6.438   8.548   1.239  0.5256  0.3869 -1.1627
  159MOL0     H20963   6.285   8.577   1.156 -1.8212 -0.7364  2.3776
  159MOL0     H20964   6.263   8.343   1.091 -0.9988  3.3237 -1.6137
  159MOL0     H20965   6.416   8.299   1.186  1.0495  2.4766  3.1272
  159MOL0     H20966   6.392   8.495   0.956 -0.3331 -1.2220 -0.8020
  159MOL0     H20967   6.543   8.420   1.027 -0.2525  0.3790  0.6611
  159MOL0     H20968   6.480   8.198   0.965 -2.3495  0.0409  1.5295
  159MOL0     H20969   6.456   8.286   0.806 -0.8675  0.8176 -0.4168
  159MOL0     H20970   5.758   8.348   1.767  1.9321  0.4008 -1.9151
  159MOL0     H20971   5.719   8.401   2.026  0.4670  0.4350 -0.9453
  159MOL0     H20972   6.077   8.296   2.519 -1.5632 -0.9022  1.5459
  159MOL0     H20973   5.981   8.307   2.738 -0.0475 -2.0968 -2.2097
  159MOL0     H20974   4.338   9.057   3.109 -1.3984 -0.1357 -0.8902
  159MOL0     H20975   4.112   8.941   3.155  0.3062  2.6428 -2.2278
  159MOL0     H20976   3.743   8.926   3.612  2.7897 -0.4454 -0.6289
  159MOL0     H20977   3.583   8.750   3.702  0.1250  2.9209 -0.8352
  159MOL0     H20978   3.383   8.474   3.546  1.2667 -0.8166 -0.0575
  159MOL0     H20979   3.413   8.607   3.663 -1.2977  0.2098 -1.6362
  159MOL0     H20980   3.463   8.459   3.849 -0.4981  2.7946 -0.6490
  159MOL0     H20981   3.307   8.412   3.772  0.1819  1.5155 -1.3908
  159MOL0     H20982   3.567   8.282   3.702  0.5005  0.8946  0.8981
  159MOL0     H20983   3.414   8.227   3.649  0.4040  0.9494 -1.6730
  159MOL0     H20984   3.506   8.093   3.828 -0.6150 -1.3950  1.6286
  159MOL0     H20985   3.491   8.228   3.944 -0.9394 -0.8587  0.4280
  159MOL0     H20986   3.105   8.046   3.909 -0.1730  0.8697 -1.5195
  159MOL0     H20987   3.768   8.456   3.460 -0.4934  0.7547  0.0268
  159MOL0     H20988   3.919   8.642   3.363 -0.6198  0.6560 -0.6548
  160MOL0     O20989  11.266   3.299   1.670  0.9245  0.3609 -0.4323
  160MOL0     C20990  11.240   3.350   1.558 -0.3044  0.1491 -1.4067
  160MOL0     O20991  11.141   3.440   1.533  0.7244  1.1265  0.4076
  160MOL0     C20992  11.032   3.468   1.605  0.2588 -0.4486  0.5846
  160MOL0     C20993  11.020   3.450   1.745  0.9980  0.0877 -0.3019
  160MOL0     C20994  10.904   3.495   1.809 -0.5203 -0.8541  0.3658
  160MOL0     C20995  10.791   3.542   1.736 -0.0839 -0.2307  0.8681
  160MOL0     O20996  10.675   3.560   1.812  0.1674  0.6871  1.1227
  160MOL0     C20997  10.566   3.635   1.763 -0.5868  0.3063 -0.8724
  160MOL0     C20998  10.477   3.679   1.887 -0.3861 -0.5222  0.3251
  160MOL0     C20999  10.344   3.764   1.856  0.0827 -0.5778 -0.7315
  160MOL0     C21000  10.237   3.676   1.791 -1.2663  0.6570  0.0033
  160MOL0     C21001  10.115   3.754   1.744 -0.0627 -0.1364  0.4960
  160MOL0     C21002   9.987   3.655   1.719  0.1361 -0.6525 -0.1588
  160MOL0     C21003   9.849   3.716   1.714 -0.1603  0.1352 -0.3986
  160MOL0     C21004   9.745   3.610   1.666  0.3033 -0.1040  0.7011
  160MOL0     N21005   9.607   3.647   1.694 -0.0586  0.2585 -0.2629
  160MOL0     C21006   9.503   3.553   1.684  0.2350 -0.3905  0.5595
  160MOL0     C21007   9.406   3.601   1.763 -0.1792 -0.3908 -0.2784
  160MOL0     C21008   9.263   3.548   1.779 -0.0377 -0.2894 -0.1822
  160MOL0     C21009   9.179   3.593   1.904  0.4066  0.8152 -0.7814
  160MOL0     C21010   9.193   3.509   2.029  0.3760  0.1518  0.4685
  160MOL0     C21011   9.347   3.506   2.071  0.0180  0.0799  0.0484
  160MOL0     O21012   9.419   3.405   1.997 -0.1535 -0.1299 -0.6656
  160MOL0     C21013   9.553   3.403   1.999  0.0746  0.5361 -0.2053
  160MOL0     C21014   9.636   3.496   2.071  0.0279 -0.2730 -0.7837
  160MOL0     C21015   9.775   3.492   2.065 -0.4727  0.1660  0.0528
  160MOL0     C21016   9.834   3.396   1.990 -0.8947 -0.7281  0.4786
  160MOL0     C21017   9.984   3.385   1.978  0.3480  0.4195 -0.5169
  160MOL0     O21018  10.043   3.283   1.906  0.0040 -0.3478  0.1703
  160MOL0     C21019  10.176   3.271   1.901 -0.8043 -0.1437  0.2111
  160MOL0     C21020  10.257   3.302   1.796  0.4088 -0.6413 -0.2646
  160MOL0     C21021  10.391   3.257   1.786  0.1186  0.9907 -0.4574
  160MOL0     C21022  10.451   3.176   1.883 -0.2210  0.4689 -0.5051
  160MOL0     O21023  10.572   3.122   1.877 -0.3857  0.2718 -0.0961
  160MOL0     C21024  10.683   3.217   1.880 -0.0045  0.1147 -0.9652
  160MOL0     C21025  10.807   3.145   1.827 -0.9809  0.0129 -0.2575
  160MOL0     C21026  10.824   3.121   1.676 -0.4826  0.1317  0.6098
  160MOL0     C21027  10.929   3.009   1.656 -0.9297  0.9313  0.9384
  160MOL0     C21028  10.958   2.991   1.509 -0.0953 -0.5071  0.3681
  160MOL0     C21029  11.014   2.867   1.459  0.3707  0.0908 -0.5665
  160MOL0     C21030  10.905   2.754   1.479 -0.4294 -0.2070  0.2128
  160MOL0     C21031  10.846   2.691   1.350  0.7729 -0.6226  0.8348
  160MOL0    Cl21032  10.749   2.544   1.386 -0.1065  0.1022  0.0027
  160MOL0     C21033  10.369   3.154   2.000  0.6034 -0.4706  0.2073
  160MOL0     C21034  10.233   3.201   2.013  0.1663  0.5590 -0.1733
  160MOL0     O21035  10.044   3.482   2.024  0.0288  0.1214 -0.1615
  160MOL0     C21036   9.760   3.314   1.902 -0.5562 -0.6560 -0.3526
  160MOL0     C21037   9.624   3.320   1.906  1.1330 -0.2449 -0.0652
  160MOL0     N21038   9.450   3.724   1.803  0.0507 -0.5108  0.2474
  160MOL0     N21039   9.566   3.750   1.761  0.3311  0.0038 -0.3288
  160MOL0     C21040  10.804   3.553   1.597 -0.2017 -0.1241  0.1210
  160MOL0     C21041  10.924   3.515   1.536  0.0517  0.0304 -0.1844
  160MOL0     C21042  11.340   3.326   1.456  1.0148 -0.2494 -0.6723
  160MOL0     C21043  11.302   3.347   1.319 -0.7848  0.0606 -0.2477
  160MOL0     C21044  11.388   3.332   1.220  0.6057 -0.5047  0.1386
  160MOL0     C21045  11.516   3.284   1.236  0.5254  0.1258  0.9800
  160MOL0     O21046  11.601   3.242   1.137 -0.3421  0.2447 -0.2193
  160MOL0     C21047  11.563   3.260   0.998  0.0472  0.3925  0.8420
  160MOL0     C21048  11.677   3.210   0.905 -0.3346 -0.6907  0.0384
  160MOL0     C21049  11.801   3.292   0.945  0.4634  0.4812 -0.6329
  160MOL0     C21050  11.914   3.233   0.855 -1.0288  0.7589 -0.1000
  160MOL0     C21051  12.040   3.306   0.894 -0.4850  0.0810  1.0457
  160MOL0     C21052  12.142   3.346   0.938  0.0377 -0.0390  0.2342
  160MOL0     C21053  11.562   3.265   1.370  0.1282  0.4912  0.4982
  160MOL0     C21054  11.471   3.285   1.481  0.0314  0.4608 -0.3796
  160MOL0     H21055  11.094   3.406   1.812 -1.7483 -1.1931  2.1460
  160MOL0     H21056  10.907   3.489   1.917 -1.1614 -2.1545  0.3310
  160MOL0     H21057  10.500   3.580   1.695  0.5523 -2.4748  0.1546
  160MOL0     H21058  10.601   3.725   1.711 -0.1143  0.1740 -0.7829
  160MOL0     H21059  10.545   3.732   1.954 -0.1294 -0.9329  0.3920
  160MOL0     H21060  10.434   3.595   1.943 -2.4887  2.1950  3.1182
  160MOL0     H21061  10.368   3.855   1.800  0.6172  0.6166  1.3142
  160MOL0     H21062  10.290   3.799   1.945  0.5373 -1.0196 -0.2675
  160MOL0     H21063  10.266   3.633   1.695 -1.2017  1.3194 -0.2748
  160MOL0     H21064  10.209   3.599   1.863 -2.9264  1.3086  0.1021
  160MOL0     H21065  10.132   3.807   1.650 -0.7228 -1.6873 -0.5433
  160MOL0     H21066  10.085   3.831   1.816 -1.3711  0.8445 -1.0268
  160MOL0     H21067  10.000   3.579   1.798  4.2811  0.6148  0.6511
  160MOL0     H21068  10.010   3.600   1.628 -1.8582 -0.7711 -0.6232
  160MOL0     H21069   9.825   3.732   1.819  0.3348  1.6566 -0.4972
  160MOL0     H21070   9.852   3.810   1.659 -2.0406  0.3578 -0.1793
  160MOL0     H21071   9.782   3.521   1.718  2.9564  1.3575  1.4852
  160MOL0     H21072   9.750   3.597   1.558 -0.6309 -0.8392  0.7216
  160MOL0     H21073   9.496   3.456   1.635 -2.4926 -1.6994  3.2275
  160MOL0     H21074   9.272   3.439   1.786 -0.0641 -0.3251 -0.6686
  160MOL0     H21075   9.205   3.577   1.691 -2.2747 -1.3186  0.8741
  160MOL0     H21076   9.077   3.586   1.864 -0.2392 -0.3568  0.9690
  160MOL0     H21077   9.192   3.697   1.934 -2.7926  1.8642 -2.5795
  160MOL0     H21078   9.137   3.544   2.116 -0.1876 -0.6680  0.4494
  160MOL0     H21079   9.162   3.407   2.001  0.0088  0.7785 -1.5988
  160MOL0     H21080   9.354   3.488   2.179 -1.9079  1.7586  0.4977
  160MOL0     H21081   9.386   3.606   2.054  1.6718 -0.5124  0.1418
  160MOL0     H21082   9.588   3.562   2.142  0.9195 -1.7298  1.2732
  160MOL0     H21083   9.827   3.556   2.136  1.6440  1.7650 -2.7076
  160MOL0     H21084  10.233   3.373   1.718  2.0414 -0.8750 -1.0355
  160MOL0     H21085  10.444   3.274   1.693  1.2175 -2.3724 -0.5820
  160MOL0     H21086  10.710   3.257   1.978 -0.0807  2.1296 -1.7200
  160MOL0     H21087  10.662   3.307   1.822 -0.4403  0.9854  0.4875
  160MOL0     H21088  10.802   3.046   1.873 -1.7513  0.1231 -0.0971
  160MOL0     H21089  10.896   3.198   1.863 -0.0860 -1.5838 -0.0252
  160MOL0     H21090  10.847   3.211   1.617 -1.6000  1.1604  1.6670
  160MOL0     H21091  10.729   3.083   1.637 -0.4470  0.0380  0.6145
  160MOL0     H21092  11.021   3.029   1.712 -1.5331  0.3734  2.1603
  160MOL0     H21093  10.880   2.920   1.696 -1.7688  1.3548  0.8649
  160MOL0     H21094  11.033   3.062   1.474  0.7665 -1.5022  0.1502
  160MOL0     H21095  10.863   3.011   1.458 -0.9962  1.4240  2.5741
  160MOL0     H21096  11.104   2.838   1.515  0.0262 -2.4370 -1.2220
  160MOL0     H21097  11.032   2.874   1.351 -1.7769 -2.5785 -1.1886
  160MOL0     H21098  10.930   2.671   1.546 -1.8128  0.1974  1.2808
  160MOL0     H21099  10.818   2.782   1.539 -0.9351 -1.2737  0.0123
  160MOL0     H21100  10.925   2.673   1.277 -0.3473 -0.2803 -0.5179
  160MOL0     H21101  10.781   2.767   1.305 -1.0359  0.6963  5.2050
  160MOL0     H21102  10.411   3.104   2.087  1.0701 -2.2251 -0.9696
  160MOL0     H21103  10.172   3.173   2.098 -2.3937  2.0071 -1.3946
  160MOL0     H21104   9.814   3.267   1.820  3.0342  1.8024  0.3165
  160MOL0     H21105   9.553   3.250   1.862  1.7818 -0.0796 -1.4460
  160MOL0     H21106  10.711   3.575   1.544  0.1679 -0.4647 -0.6842
  160MOL0     H21107  10.937   3.517   1.428  0.2797  2.5352 -0.1706
  160MOL0     H21108  11.199   3.371   1.294 -1.1020 -0.6722  0.3215
  160MOL0     H21109  11.334   3.328   1.126 -2.0845 -1.0534  1.6153
  160MOL0     H21110  11.544   3.366   0.975  3.0206  0.6426 -0.9923
  160MOL0     H21111  11.462   3.223   0.977 -0.3329  2.4363 -1.4270
  160MOL0     H21112  11.711   3.107   0.918  2.8739 -0.2076 -3.0552
  160MOL0     H21113  11.650   3.229   0.801 -1.1525  1.7474  0.6334
  160MOL0     H21114  11.814   3.282   1.053 -1.7222  0.9132 -0.2871
  160MOL0     H21115  11.795   3.400   0.929  2.3667  1.2888  3.1009
  160MOL0     H21116  11.936   3.128   0.877  2.4158  1.5373  0.9284
  160MOL0     H21117  11.899   3.242   0.747  0.7314 -2.5180 -0.7528
  160MOL0     H21118  12.242   3.373   0.965  0.5310 -2.6510  1.3883
  160MOL0     H21119  11.661   3.224   1.385  0.3171 -1.1764 -3.8965
  160MOL0     H21120  11.494   3.249   1.581 -0.3999 -0.5154 -0.6224
  161MOL0     O21121   9.174   2.430   1.943 -0.2947 -0.3910 -0.5316
  161MOL0     C21122   9.130   2.530   1.881 -0.8308  0.4812 -0.0963
  161MOL0     O21123   9.201   2.648   1.882 -0.4732 -0.0972  0.6450
  161MOL0     C21124   9.328   2.657   1.925 -0.3816  0.0703 -0.3415
  161MOL0     C21125   9.435   2.565   1.899 -0.1893 -0.4373 -0.0909
  161MOL0     C21126   9.572   2.604   1.929  0.3496 -0.3100  0.6749
  161MOL0     C21127   9.588   2.726   1.986 -0.1893  0.3041  0.0844
  161MOL0     O21128   9.717   2.762   2.018  0.0789 -0.2553  0.0908
  161MOL0     C21129   9.773   2.881   1.956  0.0039  0.1731  1.0824
  161MOL0     C21130   9.923   2.890   1.991  0.5132  0.0565  0.7084
  161MOL0     C21131  10.010   2.767   1.955 -0.0083  0.1609 -0.3802
  161MOL0     C21132  10.164   2.785   1.994  0.2438  0.5265 -1.0684
  161MOL0     C21133  10.246   2.659   1.990  0.4697  0.5492  0.0672
  161MOL0     C21134  10.397   2.688   1.969  0.4345 -0.1168  0.2848
  161MOL0     C21135  10.457   2.779   2.083 -0.1339 -0.5346 -0.4421
  161MOL0     C21136  10.592   2.832   2.034 -0.9164 -0.1006  0.3787
  161MOL0     N21137  10.689   2.719   2.033 -0.1254 -0.6674  0.5788
  161MOL0     C21138  10.755   2.680   2.146 -0.5744  0.7203 -0.9408
  161MOL0     C21139  10.859   2.606   2.101  0.1325 -0.6869  0.0882
  161MOL0     C21140  10.966   2.541   2.189 -0.0053 -0.9842 -0.0609
  161MOL0     C21141  11.091   2.632   2.184 -0.6065 -0.8366 -0.5110
  161MOL0     C21142  11.197   2.611   2.293 -0.4180  0.8198 -0.1918
  161MOL0     C21143  11.328   2.695   2.253 -0.3893 -0.0924 -0.2398
  161MOL0     O21144  11.386   2.624   2.137  0.3517 -0.5712  0.2716
  161MOL0     C21145  11.516   2.605   2.127 -0.6723 -1.0036 -0.8031
  161MOL0     C21146  11.559   2.489   2.066  0.2946 -0.3946 -0.1437
  161MOL0     C21147  11.694   2.458   2.060 -0.0186 -0.8778 -1.1524
  161MOL0     C21148  11.793   2.554   2.115  0.5755 -0.5552 -0.1613
  161MOL0     C21149  11.945   2.534   2.110  0.8303 -0.5411 -0.2185
  161MOL0     O21150  11.993   2.428   2.045 -0.5305  0.3487  0.4102
  161MOL0     C21151  12.112   2.372   2.085  0.9004  0.4607  0.5619
  161MOL0     C21152  12.162   2.297   1.983 -1.0149  0.1310  0.0513
  161MOL0     C21153  12.276   2.214   2.001  0.1548  0.9326  0.7382
  161MOL0     C21154  12.333   2.199   2.129  0.4397 -0.1634 -0.2389
  161MOL0     O21155  12.427   2.100   2.137  0.0054 -0.2437  0.2170
  161MOL0     C21156  12.519   2.108   2.253  0.4294 -1.0943 -0.5247
  161MOL0     C21157  12.626   2.008   2.246  0.1022 -0.2571  0.1478
  161MOL0     C21158  12.730   2.042   2.356 -0.4966 -0.6123 -0.1831
  161MOL0     C21159  12.837   1.944   2.363 -0.3164  0.5940 -0.8831
  161MOL0     C21160  12.938   1.994   2.466  0.7168 -0.1817 -0.3100
  161MOL0     C21161  13.027   2.122   2.435  0.0646  0.7347  0.2260
  161MOL0     C21162  13.115   2.158   2.556  0.1028 -0.3290 -0.5446
  161MOL0     C21163  13.230   2.254   2.523 -0.3851  0.1878  0.3080
  161MOL0    Cl21164  13.183   2.409   2.451 -0.0110 -0.2031 -0.0843
  161MOL0     C21165  12.266   2.262   2.240 -0.4112 -0.6342 -1.0167
  161MOL0     C21166  12.162   2.353   2.212 -0.1760  0.3017  0.3859
  161MOL0     O21167  12.010   2.613   2.191 -0.0877 -0.4869 -0.0003
  161MOL0     C21168  11.743   2.678   2.168  0.1458 -0.4537  0.1336
  161MOL0     C21169  11.611   2.702   2.173  0.2282 -0.0114  0.2398
  161MOL0     N21170  10.852   2.604   1.960  1.3258 -0.6649  0.0497
  161MOL0     N21171  10.744   2.673   1.926  0.6917 -0.0175 -0.5858
  161MOL0     C21172   9.482   2.811   2.022  0.3072 -0.3110 -0.0177
  161MOL0     C21173   9.351   2.774   1.995  0.1657 -0.6400  0.1344
  161MOL0     C21174   8.985   2.535   1.837 -0.6341 -0.3662  0.1326
  161MOL0     C21175   8.897   2.416   1.869 -0.0272  0.4839 -0.4385
  161MOL0     C21176   8.768   2.418   1.833 -0.2909 -0.6868  0.0290
  161MOL0     C21177   8.719   2.532   1.780 -0.4785  0.0399  0.9447
  161MOL0     O21178   8.590   2.524   1.747  0.3537 -0.0292 -0.5523
  161MOL0     C21179   8.563   2.488   1.618 -0.0500  0.2166 -0.1525
  161MOL0     C21180   8.466   2.364   1.635 -0.6930 -0.0288 -0.0896
  161MOL0     C21181   8.379   2.345   1.501  0.1297  0.7630 -0.3483
  161MOL0     C21182   8.271   2.235   1.533 -0.4971 -1.1664  0.1678
  161MOL0     C21183   8.340   2.108   1.559  0.4208  1.2638  0.4986
  161MOL0     C21184   8.386   1.995   1.596  0.3321  0.5381 -0.6398
  161MOL0     C21185   8.798   2.646   1.753  0.7972  0.6004 -0.0542
  161MOL0     C21186   8.934   2.649   1.773  0.2576 -0.2128  0.2073
  161MOL0     H21187   9.407   2.477   1.842 -0.5613 -0.9291  0.8380
  161MOL0     H21188   9.651   2.533   1.907  0.4773 -0.2849  1.0409
  161MOL0     H21189   9.722   2.971   1.991 -0.4825  0.1027  0.5703
  161MOL0     H21190   9.769   2.876   1.847  1.2210 -0.0008  1.0360
  161MOL0     H21191   9.928   2.908   2.098 -1.3923  0.9945  0.6752
  161MOL0     H21192   9.969   2.973   1.936 -1.7105 -0.2202 -1.8184
  161MOL0     H21193  10.012   2.749   1.847  1.0508  0.1493 -0.3757
  161MOL0     H21194   9.958   2.686   2.006 -1.1878 -0.7570 -2.8661
  161MOL0     H21195  10.202   2.855   1.918  1.0893  0.8053 -0.4041
  161MOL0     H21196  10.169   2.826   2.095 -1.3348 -0.3540 -0.5980
  161MOL0     H21197  10.222   2.603   1.899  0.3985  0.2913  0.2456
  161MOL0     H21198  10.224   2.597   2.077 -3.0520  0.7348 -0.5146
  161MOL0     H21199  10.406   2.739   1.873 -0.8421  1.8167  1.1298
  161MOL0     H21200  10.451   2.592   1.972 -0.4878 -0.6510  0.1104
  161MOL0     H21201  10.386   2.861   2.097 -1.0114 -0.9979 -1.9627
  161MOL0     H21202  10.471   2.718   2.173  2.2445 -0.1894 -0.5012
  161MOL0     H21203  10.620   2.915   2.099 -1.6209  1.9886 -1.8157
  161MOL0     H21204  10.582   2.876   1.934  2.9977  1.9651  0.7048
  161MOL0     H21205  10.729   2.702   2.249  4.2907 -1.8716  1.2213
  161MOL0     H21206  10.998   2.445   2.148 -0.4571 -0.6874 -1.1652
  161MOL0     H21207  10.926   2.538   2.290  1.8561  0.1113  0.7564
  161MOL0     H21208  11.061   2.737   2.190 -0.8091 -0.9872  2.8284
  161MOL0     H21209  11.138   2.615   2.087  0.8373  0.6674 -0.1179
  161MOL0     H21210  11.162   2.648   2.390  0.7169  3.4166 -0.6819
  161MOL0     H21211  11.215   2.504   2.302 -2.9516  0.2408 -1.1425
  161MOL0     H21212  11.398   2.688   2.336 -2.3424 -2.2396  1.3357
  161MOL0     H21213  11.301   2.798   2.227 -1.2896 -0.5634 -1.2982
  161MOL0     H21214  11.487   2.432   2.008 -0.4038  0.9307 -0.6176
  161MOL0     H21215  11.720   2.367   2.006 -2.5160 -1.0121 -2.2793
  161MOL0     H21216  12.119   2.286   1.884  0.0156 -1.4224 -0.2627
  161MOL0     H21217  12.321   2.160   1.918 -2.2606 -1.1816  0.6718
  161MOL0     H21218  12.461   2.097   2.346  1.6027  0.2775  0.4041
  161MOL0     H21219  12.560   2.207   2.236 -2.6395  0.1545 -1.3201
  161MOL0     H21220  12.682   2.012   2.152  0.3949 -0.9647  0.2851
  161MOL0     H21221  12.590   1.908   2.274  2.6943 -1.8826 -1.7998
  161MOL0     H21222  12.678   2.063   2.450 -0.2220 -0.6017 -0.0320
  161MOL0     H21223  12.783   2.138   2.344  1.2474 -1.3622  1.1646
  161MOL0     H21224  12.784   1.850   2.379 -0.9533  0.4747 -3.2764
  161MOL0     H21225  12.897   1.934   2.272 -0.0701 -0.2125 -0.6392
  161MOL0     H21226  13.013   1.916   2.481  1.1734  0.7926  3.8223
  161MOL0     H21227  12.887   1.997   2.563 -2.7124 -1.6705 -1.8931
  161MOL0     H21228  12.959   2.206   2.422  1.4208  2.0642  1.3960
  161MOL0     H21229  13.089   2.106   2.346  0.8131  0.7023  0.7443
  161MOL0     H21230  13.057   2.203   2.637 -1.4729  0.4312 -2.0489
  161MOL0     H21231  13.162   2.063   2.586 -0.0247  0.2480  1.6725
  161MOL0     H21232  13.296   2.202   2.453 -3.0966 -1.0283 -1.5022
  161MOL0     H21233  13.292   2.280   2.609  0.3849  1.6831 -0.6506
  161MOL0     H21234  12.309   2.245   2.339 -1.4669 -0.2536 -0.4777
  161MOL0     H21235  12.100   2.401   2.287 -2.1292  0.5550 -1.3316
  161MOL0     H21236  11.804   2.761   2.203  0.6827 -1.2291  1.0810
  161MOL0     H21237  11.574   2.802   2.194  1.7751  0.9822 -1.4369
  161MOL0     H21238   9.510   2.902   2.074 -2.3077  1.8948 -2.1269
  161MOL0     H21239   9.272   2.847   2.007  0.7931  1.0708 -4.2542
  161MOL0     H21240   8.943   2.325   1.906  0.7834  0.8168 -0.5839
  161MOL0     H21241   8.704   2.333   1.856  1.5534 -2.0633  0.2661
  161MOL0     H21242   8.654   2.480   1.558  1.6525  3.1494  1.7463
  161MOL0     H21243   8.501   2.568   1.576  0.4214  1.1112  0.8225
  161MOL0     H21244   8.524   2.276   1.664  0.3735 -0.1157 -2.3430
  161MOL0     H21245   8.402   2.400   1.716 -1.0865 -1.8143  0.4252
  161MOL0     H21246   8.440   2.314   1.416  0.0121 -0.5996  0.0421
  161MOL0     H21247   8.327   2.440   1.481  1.9195  1.4334 -2.0769
  161MOL0     H21248   8.222   2.253   1.629  0.2520 -2.3899  0.8151
  161MOL0     H21249   8.205   2.225   1.447 -2.4157  2.5300  1.0259
  161MOL0     H21250   8.413   1.893   1.614  2.4194  0.8120 -1.8532
  161MOL0     H21251   8.746   2.733   1.714  0.3963  0.9905  1.3035
  161MOL0     H21252   9.005   2.725   1.741 -0.9216  1.0574  0.5317
  162MOL0     O21253   8.663   5.005   7.169 -0.1334 -0.1714 -0.1785
  162MOL0     C21254   8.544   5.013   7.166  0.4474 -0.0916  1.0312
  162MOL0     O21255   8.451   4.916   7.183 -0.0208  0.2334  0.0913
  162MOL0     C21256   8.492   4.790   7.159  0.7670  0.2442 -0.4850
  162MOL0     C21257   8.551   4.743   7.041  0.8599  0.7760  0.3034
  162MOL0     C21258   8.575   4.602   7.030  0.4191  0.8404  0.4052
  162MOL0     C21259   8.540   4.514   7.135 -0.1321 -0.4316  0.1340
  162MOL0     O21260   8.562   4.382   7.123  0.1752  0.0246 -0.4658
  162MOL0     C21261   8.683   4.339   7.183  0.0119 -0.0054  0.5165
  162MOL0     C21262   8.674   4.179   7.201  0.1895  0.9977  0.7247
  162MOL0     C21263   8.705   4.101   7.064 -0.0587  0.3790 -0.4174
  162MOL0     C21264   8.702   3.952   7.088 -0.1040 -0.5168  0.1680
  162MOL0     C21265   8.725   3.872   6.956 -0.6139  0.6313 -0.0691
  162MOL0     C21266   8.731   3.715   6.977  0.7626 -0.8048 -0.3002
  162MOL0     C21267   8.592   3.660   6.986 -1.1465 -0.0137  0.5017
  162MOL0     C21268   8.591   3.512   7.000  0.9790 -0.5900 -0.3283
  162MOL0     N21269   8.495   3.449   7.083  0.5082  0.1841 -0.1781
  162MOL0     C21270   8.362   3.476   7.085 -0.9018 -0.0465  0.2893
  162MOL0     C21271   8.311   3.389   7.174 -0.1640  0.5043  0.0011
  162MOL0     C21272   8.168   3.388   7.202 -0.4955  0.1454  0.3670
  162MOL0     C21273   8.142   3.463   7.333  0.5472 -0.9979 -0.1840
  162MOL0     C21274   7.999   3.438   7.377  0.4644 -0.4023 -0.9074
  162MOL0     C21275   7.956   3.548   7.483  0.2928 -0.6644  0.5136
  162MOL0     O21276   8.067   3.585   7.570 -0.6860 -0.1869 -0.0721
  162MOL0     C21277   8.025   3.637   7.686 -0.5255 -0.0625  0.6509
  162MOL0     C21278   7.894   3.677   7.722 -0.1827  0.3851 -0.0373
  162MOL0     C21279   7.856   3.706   7.851 -1.1507 -1.4189  0.2333
  162MOL0     C21280   7.959   3.723   7.951  1.1955 -0.4470  0.4759
  162MOL0     C21281   7.915   3.757   8.095  0.6257  0.5671  0.7249
  162MOL0     O21282   8.026   3.776   8.171  0.2870  0.0753 -0.5194
  162MOL0     C21283   8.017   3.830   8.301  0.8999 -0.7483  0.5232
  162MOL0     C21284   7.928   3.789   8.405 -0.3359 -0.3455 -0.7808
  162MOL0     C21285   7.948   3.831   8.542  0.0407 -0.1065  0.5658
  162MOL0     C21286   8.055   3.912   8.577  0.6169 -0.6481  0.2924
  162MOL0     O21287   8.074   3.968   8.698 -0.1263  0.5554 -0.0995
  162MOL0     C21288   8.042   3.912   8.827 -0.4988  0.9878  0.4635
  162MOL0     C21289   8.142   3.972   8.924  0.6668 -0.4620 -0.6009
  162MOL0     C21290   8.280   3.949   8.880  0.3166 -0.3183  1.0489
  162MOL0     C21291   8.383   4.044   8.951  0.3499 -0.4098 -0.0665
  162MOL0     C21292   8.524   3.986   8.963 -0.4479 -0.2038  0.0461
  162MOL0     C21293   8.584   3.908   8.860  0.7357  0.1414  0.7452
  162MOL0     C21294   8.627   4.000   8.744 -0.1886  0.4230 -0.2104
  162MOL0     C21295   8.734   3.932   8.652  0.0622  0.1312 -0.2854
  162MOL0    Cl21296   8.646   3.805   8.553  0.2103 -0.1324  0.3496
  162MOL0     C21297   8.143   3.947   8.476  0.2669 -0.8026 -0.0678
  162MOL0     C21298   8.128   3.907   8.341  0.4140  0.2321  0.8503
  162MOL0     O21299   7.796   3.760   8.132 -0.3912  0.0875  0.6244
  162MOL0     C21300   8.096   3.684   7.909  0.2981  0.5925 -0.9555
  162MOL0     C21301   8.119   3.643   7.788 -0.4741  0.0123  0.3569
  162MOL0     N21302   8.412   3.323   7.238 -1.1769 -0.1211  0.9762
  162MOL0     N21303   8.525   3.369   7.190  1.3444 -0.4117 -0.1226
  162MOL0     C21304   8.464   4.573   7.243  0.0842  0.1351 -0.2857
  162MOL0     C21305   8.450   4.710   7.258  0.2920 -0.0675 -0.7258
  162MOL0     C21306   8.499   5.153   7.149  0.2440  0.5274 -0.0957
  162MOL0     C21307   8.369   5.167   7.094 -0.0848 -0.0541  0.9596
  162MOL0     C21308   8.313   5.297   7.080  0.9632 -0.8721  0.2293
  162MOL0     C21309   8.383   5.408   7.126 -0.0907  0.3767 -0.4311
  162MOL0     O21310   8.312   5.526   7.116 -0.3623 -0.3135  0.9661
  162MOL0     C21311   8.374   5.644   7.181  0.7141 -0.0359  0.2422
  162MOL0     C21312   8.280   5.769   7.159  0.1928  0.6088 -0.4393
  162MOL0     C21313   8.157   5.782   7.257  0.0646  0.1588 -0.4929
  162MOL0     C21314   8.046   5.687   7.226  0.0449  0.0443  1.0425
  162MOL0     C21315   7.937   5.698   7.325  0.6109 -0.1803 -1.1725
  162MOL0     C21316   7.827   5.709   7.387 -1.0164 -0.1976  0.0116
  162MOL0     C21317   8.508   5.390   7.192  0.3694 -0.2264  0.6443
  162MOL0     C21318   8.559   5.264   7.214 -0.5490  0.9221  0.3882
  162MOL0     H21319   8.590   4.820   6.975  2.9395 -1.1772 -0.8843
  162MOL0     H21320   8.621   4.572   6.937  0.0718  2.8840 -0.4721
  162MOL0     H21321   8.689   4.398   7.275 -1.3880  4.7277 -2.0827
  162MOL0     H21322   8.760   4.377   7.115  1.2911 -0.6073  1.5924
  162MOL0     H21323   8.572   4.156   7.231 -0.2422  1.7222 -0.1303
  162MOL0     H21324   8.741   4.144   7.280 -0.1387 -0.5530  0.3534
  162MOL0     H21325   8.804   4.128   7.024  0.2590  1.0254  0.7733
  162MOL0     H21326   8.636   4.132   6.985 -0.2404  2.2875  0.4364
  162MOL0     H21327   8.771   3.925   7.169 -0.9875 -2.1316  0.4372
  162MOL0     H21328   8.603   3.926   7.127 -0.5867  1.9280  0.7404
  162MOL0     H21329   8.822   3.904   6.917 -0.0947 -0.2713  0.4580
  162MOL0     H21330   8.646   3.902   6.886 -0.5336  2.5838  0.6182
  162MOL0     H21331   8.799   3.718   7.062 -0.7663 -1.4375  0.9824
  162MOL0     H21332   8.777   3.672   6.887  0.1641  0.6181 -1.3325
  162MOL0     H21333   8.537   3.704   7.070 -1.7037 -1.6876  1.0470
  162MOL0     H21334   8.540   3.691   6.895  0.0522  1.4764  0.2768
  162MOL0     H21335   8.690   3.469   7.018  0.8573 -1.2516 -1.1583
  162MOL0     H21336   8.579   3.478   6.897  1.7961  1.0546 -1.0056
  162MOL0     H21337   8.301   3.536   7.019 -1.9597 -1.0253  0.3475
  162MOL0     H21338   8.145   3.281   7.208  0.9843 -0.2762 -0.6846
  162MOL0     H21339   8.101   3.427   7.125 -2.0928  0.1672  1.7239
  162MOL0     H21340   8.158   3.570   7.317 -0.5040 -1.2707 -4.0049
  162MOL0     H21341   8.218   3.439   7.409  1.1985 -3.4199 -1.4965
  162MOL0     H21342   7.925   3.468   7.303  0.8723  1.0516 -0.7628
  162MOL0     H21343   7.985   3.338   7.418  0.6769 -0.1156 -0.1156
  162MOL0     H21344   7.861   3.513   7.524 -1.5133 -1.3482 -3.6798
  162MOL0     H21345   7.915   3.625   7.416 -0.1488 -2.4695 -1.3822
  162MOL0     H21346   7.819   3.681   7.644 -0.2545  0.8241  0.0539
  162MOL0     H21347   7.753   3.714   7.882 -1.6563 -1.9763 -1.2138
  162MOL0     H21348   7.856   3.709   8.388 -2.3232  0.7273  1.9231
  162MOL0     H21349   7.873   3.807   8.617 -1.2148  3.1681  0.5293
  162MOL0     H21350   8.055   3.804   8.835  2.7946  1.3368  1.1771
  162MOL0     H21351   7.941   3.951   8.846 -0.7239  2.7520 -3.4376
  162MOL0     H21352   8.111   3.931   9.020  0.6642 -0.7073 -0.7056
  162MOL0     H21353   8.124   4.080   8.914 -0.8618 -0.7153 -0.8230
  162MOL0     H21354   8.293   3.969   8.773  2.5978 -1.0074  1.1554
  162MOL0     H21355   8.297   3.843   8.901 -4.1438 -1.7398 -1.1588
  162MOL0     H21356   8.377   4.140   8.898 -3.4011  0.0819  0.9410
  162MOL0     H21357   8.352   4.061   9.054  0.3287 -0.1922 -0.1066
  162MOL0     H21358   8.521   3.923   9.052 -1.2498  0.6513  0.6461
  162MOL0     H21359   8.576   4.078   8.991  0.2409 -0.5763  0.0139
  162MOL0     H21360   8.520   3.822   8.837 -1.3789  1.2527  2.0795
  162MOL0     H21361   8.677   3.867   8.898 -0.8135 -2.7703  1.6838
  162MOL0     H21362   8.541   4.036   8.687 -2.1009 -2.7251  0.4285
  162MOL0     H21363   8.669   4.083   8.801  0.7889  0.3807 -0.8381
  162MOL0     H21364   8.814   3.890   8.714 -0.7629  1.0076  1.4603
  162MOL0     H21365   8.767   4.012   8.586 -1.1982  2.2170  1.4686
  162MOL0     H21366   8.231   4.001   8.509 -1.0371  0.9841  0.6212
  162MOL0     H21367   8.205   3.908   8.264  0.1285 -0.2454  0.5499
  162MOL0     H21368   8.181   3.693   7.976  0.7144 -1.8595 -1.0686
  162MOL0     H21369   8.222   3.611   7.776 -1.1260 -1.9748 -0.3033
  162MOL0     H21370   8.416   4.503   7.311  1.6609 -1.6714 -0.9494
  162MOL0     H21371   8.391   4.728   7.347 -1.4148 -1.7392 -1.4584
  162MOL0     H21372   8.309   5.089   7.047  0.4418 -0.8186  1.5320
  162MOL0     H21373   8.222   5.316   7.023  2.0518  0.0154 -1.2905
  162MOL0     H21374   8.474   5.671   7.144  1.0407  2.4300  2.5896
  162MOL0     H21375   8.387   5.624   7.287 -1.0350  1.0626  0.6964
  162MOL0     H21376   8.342   5.856   7.182 -0.4227  2.3823 -4.6259
  162MOL0     H21377   8.248   5.766   7.055  0.5078 -2.1605 -0.5397
  162MOL0     H21378   8.110   5.875   7.225 -0.0907 -0.0138 -0.7680
  162MOL0     H21379   8.186   5.788   7.363  1.2654 -1.2666 -0.7089
  162MOL0     H21380   8.011   5.719   7.128  1.5257  0.8138  0.7319
  162MOL0     H21381   8.075   5.582   7.210 -1.7241 -0.3948  0.4964
  162MOL0     H21382   7.727   5.712   7.426 -1.1689 -3.2926  0.0734
  162MOL0     H21383   8.563   5.477   7.227 -0.7589  0.3443  1.0433
  162MOL0     H21384   8.642   5.256   7.284 -1.1518 -1.8590  0.9110
  163MOL0     O21385   7.091   5.797   0.037  0.1778 -0.0950 -0.1856
  163MOL0     C21386   6.985   5.738   0.013  0.1379 -0.7435  0.9541
  163MOL0     O21387   6.954   5.683  -0.116  0.1487 -0.2107  0.7091
  163MOL0     C21388   7.068   5.665  -0.197 -0.1573  0.4293 -0.6238
  163MOL0     C21389   7.053   5.685  -0.334 -0.6861  0.4284  0.6336
  163MOL0     C21390   7.163   5.686  -0.420 -0.6578  0.8582  0.3412
  163MOL0     C21391   7.287   5.654  -0.363 -0.6269  0.0083  0.2025
  163MOL0     O21392   7.400   5.650  -0.448  0.6850  0.7448  0.1755
  163MOL0     C21393   7.458   5.777  -0.482 -0.8121 -0.8525  0.8352
  163MOL0     C21394   7.579   5.748  -0.578  0.2705 -1.1366 -0.8584
  163MOL0     C21395   7.624   5.886  -0.632  0.1840  0.0110 -0.1741
  163MOL0     C21396   7.717   5.868  -0.753 -0.4588 -0.6745  1.2422
  163MOL0     C21397   7.771   5.998  -0.803  0.5808  0.2999  0.4726
  163MOL0     C21398   7.662   6.100  -0.838  0.7734 -0.7656  0.4572
  163MOL0     C21399   7.728   6.225  -0.892 -0.2299 -0.8942 -0.1994
  163MOL0     C21400   7.628   6.342  -0.933 -1.2062 -0.3992  0.0526
  163MOL0     N21401   7.713   6.462  -0.974  0.1475  0.2666  0.4748
  163MOL0     C21402   7.669   6.598  -0.964 -0.0407 -0.0762  0.2028
  163MOL0     C21403   7.738   6.675  -1.040  0.2600 -0.6147  0.2077
  163MOL0     C21404   7.734   6.824  -1.065 -0.2585  0.2466  0.1025
  163MOL0     C21405   7.833   6.911  -0.974  0.6649  0.6683  0.2849
  163MOL0     C21406   7.899   7.017  -1.048 -0.2076 -0.6136  0.2222
  163MOL0     C21407   8.017   7.089  -0.990  0.4179 -0.1966  1.1801
  163MOL0     O21408   8.037   7.209  -1.064 -0.0725 -0.0750  0.1640
  163MOL0     C21409   8.164   7.252  -1.059  0.2389 -0.4519 -0.7133
  163MOL0     C21410   8.194   7.384  -1.028  0.3315  0.3456 -0.5617
  163MOL0     C21411   8.325   7.429  -1.015  1.1555 -0.3315 -0.5249
  163MOL0     C21412   8.433   7.344  -1.039 -0.0482 -1.2276 -0.1734
  163MOL0     C21413   8.571   7.395  -1.029 -0.0884  1.0162  0.5604
  163MOL0     O21414   8.572   7.536  -1.037 -0.3283  0.1194 -0.3414
  163MOL0     C21415   8.684   7.617  -1.028  0.7188 -0.0327 -0.4969
  163MOL0     C21416   8.816   7.570  -1.052 -0.3486 -0.1107  0.3994
  163MOL0     C21417   8.922   7.661  -1.039 -0.4396 -0.1864 -0.0442
  163MOL0     C21418   8.900   7.792  -1.010 -0.1916  0.4634  0.8326
  163MOL0     O21419   9.019   7.866  -0.997  0.0257 -0.1621  0.9786
  163MOL0     C21420   9.031   7.941  -0.881 -0.3265 -0.8778 -0.0369
  163MOL0     C21421   9.107   8.079  -0.910  0.9999  1.4015 -0.1225
  163MOL0     C21422   9.166   8.138  -0.774  0.1502  0.4980  0.9484
  163MOL0     C21423   9.309   8.086  -0.754  0.6206  0.0895  0.4359
  163MOL0     C21424   9.355   8.131  -0.614 -0.0394  0.1397 -0.4590
  163MOL0     C21425   9.405   8.275  -0.608 -0.9987 -0.8591  0.9217
  163MOL0     C21426   9.499   8.316  -0.491 -0.2371  0.6179  0.3973
  163MOL0     C21427   9.543   8.467  -0.502 -0.1669 -0.0939 -0.6576
  163MOL0    Cl21428   9.414   8.584  -0.479  0.4579 -0.2180  0.3329
  163MOL0     C21429   8.771   7.841  -0.995  0.3210  0.4924  0.1014
  163MOL0     C21430   8.666   7.750  -1.004  0.4528  0.3049 -0.8672
  163MOL0     O21431   8.666   7.322  -1.009  0.1087  0.2822 -0.2874
  163MOL0     C21432   8.402   7.216  -1.088  0.9102  0.0363  0.0528
  163MOL0     C21433   8.265   7.166  -1.096  1.3653  0.1270 -0.8135
  163MOL0     N21434   7.826   6.587  -1.100 -0.3426 -0.3772 -0.2006
  163MOL0     N21435   7.802   6.462  -1.071  0.4688  0.5858 -0.4097
  163MOL0     C21436   7.306   5.623  -0.231  0.1249  0.1791 -1.1932
  163MOL0     C21437   7.197   5.626  -0.142  0.5156 -0.5021  0.1068
  163MOL0     C21438   6.897   5.729   0.130  0.9634 -1.1326  1.0354
  163MOL0     C21439   6.810   5.613   0.143  0.7624 -0.2084  0.3552
  163MOL0     C21440   6.732   5.599   0.257 -0.5250 -0.2572 -0.5324
  163MOL0     C21441   6.743   5.693   0.362  0.6373 -0.0833 -0.4093
  163MOL0     O21442   6.672   5.664   0.472  0.3622 -0.2724 -0.3057
  163MOL0     C21443   6.634   5.764   0.560 -0.5033 -0.8524 -0.2001
  163MOL0     C21444   6.588   5.697   0.690 -0.2837  0.5948 -0.2766
  163MOL0     C21445   6.585   5.795   0.803  0.7673 -0.0134  1.2734
  163MOL0     C21446   6.483   5.911   0.780 -0.4181 -0.1179 -0.5372
  163MOL0     C21447   6.482   5.995   0.906 -0.4243 -0.8801 -0.3301
  163MOL0     C21448   6.472   6.063   1.009 -0.5207  0.0895 -0.1114
  163MOL0     C21449   6.824   5.810   0.345  0.3425  0.2456 -0.2421
  163MOL0     C21450   6.901   5.826   0.227  0.2939  0.2757 -0.5495
  163MOL0     H21451   6.955   5.716  -0.370  0.3100  3.0483 -0.1068
  163MOL0     H21452   7.147   5.688  -0.528 -1.9228 -2.1930  0.3731
  163MOL0     H21453   7.489   5.835  -0.395  1.9686  0.5593 -0.9645
  163MOL0     H21454   7.398   5.846  -0.542 -0.0007  0.6953  1.7334
  163MOL0     H21455   7.558   5.677  -0.659 -0.6565 -2.4383  0.4815
  163MOL0     H21456   7.650   5.693  -0.517  0.5560  1.0034  0.8843
  163MOL0     H21457   7.685   5.929  -0.552  2.5051  1.2257 -2.4254
  163MOL0     H21458   7.540   5.951  -0.660  1.9963  2.1409 -1.0461
  163MOL0     H21459   7.804   5.818  -0.711  0.4208  1.1982  1.7605
  163MOL0     H21460   7.665   5.833  -0.842  0.6327  0.2843  0.1905
  163MOL0     H21461   7.826   5.980  -0.896 -0.5392 -2.6703  0.2766
  163MOL0     H21462   7.849   6.038  -0.737  1.8092 -1.1965 -0.0216
  163MOL0     H21463   7.588   6.116  -0.760 -0.0100 -4.4563  0.6476
  163MOL0     H21464   7.604   6.053  -0.918 -1.5339 -2.1585  2.7954
  163MOL0     H21465   7.807   6.258  -0.824  1.6324 -3.0703 -1.1997
  163MOL0     H21466   7.782   6.193  -0.982 -1.4787 -0.3275 -1.1876
  163MOL0     H21467   7.584   6.381  -0.841 -0.7027  0.8968 -0.2382
  163MOL0     H21468   7.558   6.308  -1.010 -1.4271  0.1431  0.0125
  163MOL0     H21469   7.587   6.634  -0.903 -1.1945  1.0195 -1.8605
  163MOL0     H21470   7.639   6.867  -1.033  0.4444  1.2490  0.9405
  163MOL0     H21471   7.756   6.835  -1.171  1.8103  0.7169  0.5334
  163MOL0     H21472   7.913   6.839  -0.950  0.0179  1.1859  5.1556
  163MOL0     H21473   7.783   6.945  -0.883 -1.2649 -2.7490  0.7023
  163MOL0     H21474   7.929   6.964  -1.139  3.5364 -2.1593  2.1478
  163MOL0     H21475   7.819   7.089  -1.069  0.4402  0.8830  2.4733
  163MOL0     H21476   8.101   7.020  -0.981  2.6967  2.4387  1.7781
  163MOL0     H21477   7.987   7.127  -0.891 -1.5460 -1.3758  1.0766
  163MOL0     H21478   8.117   7.444  -0.981  0.6888 -0.5739  1.2565
  163MOL0     H21479   8.330   7.530  -0.977  0.0096 -0.2761 -0.5125
  163MOL0     H21480   8.829   7.465  -1.077 -1.5747 -0.4989  1.2995
  163MOL0     H21481   9.025   7.629  -1.043 -0.1509  0.5033  1.2331
  163MOL0     H21482   9.114   7.889  -0.833  2.1143  1.2478 -1.6887
  163MOL0     H21483   8.943   7.958  -0.818  0.5003 -0.0393  0.9199
  163MOL0     H21484   9.031   8.144  -0.956 -1.7111 -2.1161 -1.1029
  163MOL0     H21485   9.182   8.056  -0.986 -0.3611  3.3856 -2.2164
  163MOL0     H21486   9.115   8.100  -0.685 -1.4440 -1.6040 -0.7770
  163MOL0     H21487   9.162   8.248  -0.776 -0.2490  0.5309 -2.5568
  163MOL0     H21488   9.305   7.977  -0.756  2.6530 -0.0516  1.5403
  163MOL0     H21489   9.369   8.116  -0.840  1.2574  3.0643  1.7752
  163MOL0     H21490   9.439   8.069  -0.583 -2.2837 -1.1378  3.8827
  163MOL0     H21491   9.279   8.122  -0.535 -0.3075  3.4330 -0.2072
  163MOL0     H21492   9.331   8.354  -0.623 -0.6216 -0.4865  0.9957
  163MOL0     H21493   9.464   8.285  -0.700 -1.2515 -2.6522  0.5287
  163MOL0     H21494   9.461   8.297  -0.390 -0.0237  0.0949  0.3804
  163MOL0     H21495   9.588   8.254  -0.500 -0.3833  0.4638  0.0230
  163MOL0     H21496   9.596   8.489  -0.596  0.4420  0.6359 -0.1605
  163MOL0     H21497   9.622   8.486  -0.428  0.0885 -0.0426 -0.9398
  163MOL0     H21498   8.752   7.946  -0.974  1.0673  0.3319  1.7476
  163MOL0     H21499   8.568   7.796  -1.001  1.6231  2.9232 -0.9747
  163MOL0     H21500   8.479   7.155  -1.135  0.4177 -0.6381  0.1016
  163MOL0     H21501   8.244   7.069  -1.140  0.2614  1.4607 -3.4558
  163MOL0     H21502   7.404   5.589  -0.199  0.9694  1.2035 -2.5844
  163MOL0     H21503   7.219   5.607  -0.037  3.5956  0.9892 -0.1816
  163MOL0     H21504   6.803   5.539   0.064  0.4148  0.7267 -0.4899
  163MOL0     H21505   6.670   5.512   0.278  1.1744 -1.5647 -0.7296
  163MOL0     H21506   6.555   5.829   0.523 -1.1287 -0.8357  1.1248
  163MOL0     H21507   6.713   5.836   0.584 -1.8439  1.5638 -2.5176
  163MOL0     H21508   6.497   5.637   0.683  0.8355 -1.2997  0.6434
  163MOL0     H21509   6.670   5.631   0.722  1.2299  2.2507 -0.5679
  163MOL0     H21510   6.685   5.838   0.813  1.5459 -1.0995 -1.1572
  163MOL0     H21511   6.555   5.735   0.890  5.4163 -2.4074  1.5025
  163MOL0     H21512   6.515   5.972   0.695  0.8207 -2.5994 -1.9578
  163MOL0     H21513   6.382   5.878   0.755  0.3179 -0.8701 -2.8110
  163MOL0     H21514   6.457   6.112   1.104  0.6102 -2.8495  1.7211
  163MOL0     H21515   6.844   5.879   0.427 -3.1603  0.1668  0.8468
  163MOL0     H21516   6.971   5.909   0.220 -2.5169  3.0524  1.1230
  164MOL0     O21517   5.094   6.786  10.059 -0.2701  0.4781 -0.6797
  164MOL0     C21518   5.001   6.817  10.139 -0.6681 -0.1357  0.2102
  164MOL0     O21519   5.006   6.795  10.276  0.8972  0.0525  0.3144
  164MOL0     C21520   5.122   6.721  10.318  0.4373 -1.4001  0.0355
  164MOL0     C21521   5.115   6.586  10.327  0.6137  0.0709 -0.5439
  164MOL0     C21522   5.221   6.511  10.381 -0.2820  0.2924  0.2036
  164MOL0     C21523   5.349   6.577  10.405  0.1971  0.8407 -0.5871
  164MOL0     O21524   5.463   6.510  10.459 -0.4144  0.2713  0.2021
  164MOL0     C21525   5.475   6.369  10.457 -0.9317 -1.0345  0.7211
  164MOL0     C21526   5.604   6.328  10.526 -0.6791  0.6545 -0.2792
  164MOL0     C21527   5.619   6.356  10.670 -0.9808  0.4880 -0.4467
  164MOL0     C21528   5.776   6.344  10.717  0.0991  0.2175  0.0860
  164MOL0     C21529   5.792   6.390  10.860  0.6965  0.2678  0.2093
  164MOL0     C21530   5.931   6.400  10.921  0.1577  0.6213  1.2514
  164MOL0     C21531   5.980   6.540  10.875  0.4436 -0.8122  0.4781
  164MOL0     C21532   6.123   6.558  10.933 -0.3655 -0.0129 -0.9111
  164MOL0     N21533   6.184   6.687  10.894  0.0122 -0.1586 -0.7711
  164MOL0     C21534   6.186   6.740  10.764 -0.2701  0.6861 -1.1776
  164MOL0     C21535   6.252   6.856  10.783 -0.7311  0.1259 -0.2400
  164MOL0     C21536   6.309   6.928  10.663  0.2165 -0.3083  1.3967
  164MOL0     C21537   6.257   7.072  10.616  0.6088  1.0378 -0.8296
  164MOL0     C21538   6.251   7.173  10.729  0.2334  0.3645 -0.1138
  164MOL0     C21539   6.121   7.191  10.792 -0.1625  0.7539  0.5818
  164MOL0     O21540   6.036   7.268  10.702 -0.2024  0.1638  0.1615
  164MOL0     C21541   5.914   7.292  10.769 -0.7405  0.4073 -0.0168
  164MOL0     C21542   5.892   7.430  10.789 -0.5550 -0.2204  0.2892
  164MOL0     C21543   5.775   7.470  10.860  0.1948  0.3887  0.2112
  164MOL0     C21544   5.684   7.367  10.896 -0.4491 -0.4881 -0.0098
  164MOL0     C21545   5.567   7.398  10.981  0.4550 -0.1526 -0.1358
  164MOL0     O21546   5.500   7.516  10.948 -0.5045 -0.9005 -0.9305
  164MOL0     C21547   5.408   7.582  11.034 -0.0279 -0.1722  0.3746
  164MOL0     C21548   5.416   7.580  11.173 -0.0006 -0.3833  0.1158
  164MOL0     C21549   5.333   7.663  11.251  0.0382  0.1846  0.0493
  164MOL0     C21550   5.233   7.733  11.188 -0.2321 -0.2740 -0.7763
  164MOL0     O21551   5.158   7.812  11.268 -0.1157 -0.1910  0.1377
  164MOL0     C21552   5.063   7.749  11.359 -0.6447 -0.2624  1.1236
  164MOL0     C21553   4.939   7.835  11.365 -0.5684 -0.2674  2.2526
  164MOL0     C21554   4.812   7.765  11.296  0.7122  0.9946  0.3680
  164MOL0     C21555   4.674   7.838  11.310  1.9558  0.5273  0.0414
  164MOL0     C21556   4.564   7.748  11.253 -0.2483  0.3427  0.4608
  164MOL0     C21557   4.429   7.820  11.271 -1.1254 -0.6524  0.1259
  164MOL0     C21558   4.415   7.944  11.181  0.4712 -0.1627 -0.2260
  164MOL0     C21559   4.267   7.983  11.175 -0.3175  0.2566  0.2664
  164MOL0    Cl21560   4.234   8.131  11.077  0.2326  0.0044 -0.5545
  164MOL0     C21561   5.213   7.730  11.051 -0.9424  0.7689 -1.3381
  164MOL0     C21562   5.306   7.653  10.974 -0.2395  0.3267  0.9123
  164MOL0     O21563   5.529   7.324  11.066  0.1346 -0.5408  0.3018
  164MOL0     C21564   5.716   7.233  10.872  0.9853 -0.1369 -0.8083
  164MOL0     C21565   5.830   7.193  10.808  0.5602 -0.6412 -0.1708
  164MOL0     N21566   6.288   6.881  10.912  0.5298  0.2360  0.2028
  164MOL0     N21567   6.241   6.782  10.982 -0.6142 -0.2659  0.7133
  164MOL0     C21568   5.350   6.714  10.391 -0.0369 -0.3696  0.1537
  164MOL0     C21569   5.241   6.786  10.355 -0.9142 -0.1402 -0.2469
  164MOL0     C21570   4.892   6.895  10.085  0.2895  0.1660 -0.2835
  164MOL0     C21571   4.871   6.904   9.947 -0.4361 -0.4552  0.1984
  164MOL0     C21572   4.782   7.002   9.905 -0.1285  0.5966 -0.0595
  164MOL0     C21573   4.693   7.066   9.986 -0.2364 -0.0705 -0.3513
  164MOL0     O21574   4.594   7.149   9.939 -0.5462  0.0585  0.4113
  164MOL0     C21575   4.592   7.280   9.987  1.0983 -0.7998  0.4010
  164MOL0     C21576   4.471   7.361   9.947  0.3905  0.5232  0.7712
  164MOL0     C21577   4.413   7.434  10.071  0.0316 -0.4351 -0.1704
  164MOL0     C21578   4.298   7.524  10.029 -0.0107  0.3097  0.3655
  164MOL0     C21579   4.266   7.614  10.140 -0.7971  0.1848 -0.2104
  164MOL0     C21580   4.219   7.683  10.225 -0.5948  0.9687  0.4034
  164MOL0     C21581   4.704   7.046  10.123 -0.4401 -0.2442 -0.0265
  164MOL0     C21582   4.800   6.960  10.175  0.6466 -0.6699 -0.3756
  164MOL0     H21583   5.019   6.537  10.317 -0.1937  1.4499  0.1637
  164MOL0     H21584   5.208   6.404  10.398  0.9561  0.2600  1.1127
  164MOL0     H21585   5.473   6.345  10.351 -0.5804  0.0077  0.4638
  164MOL0     H21586   5.391   6.321  10.509 -2.2149  0.3263  0.0001
  164MOL0     H21587   5.686   6.375  10.470 -0.4560 -1.6603 -2.0546
  164MOL0     H21588   5.629   6.222  10.510  1.4435  0.9757  0.5461
  164MOL0     H21589   5.558   6.283  10.726  1.0491 -0.3964  0.7270
  164MOL0     H21590   5.580   6.454  10.698  0.5434  0.4078  2.3197
  164MOL0     H21591   5.802   6.238  10.707 -1.0835 -0.1588  0.7587
  164MOL0     H21592   5.836   6.396  10.642 -1.1704 -1.2223 -2.0363
  164MOL0     H21593   5.738   6.323  10.929 -2.7683  3.1339  0.5325
  164MOL0     H21594   5.744   6.487  10.870 -0.6226 -0.4547  1.2402
  164MOL0     H21595   5.990   6.317  10.880  0.4383  0.8125  1.2640
  164MOL0     H21596   5.935   6.393  11.030  1.9487 -0.1899  1.1671
  164MOL0     H21597   5.986   6.548  10.766  2.0248  0.8285  0.6367
  164MOL0     H21598   5.915   6.619  10.914 -0.1577  0.4433 -2.7781
  164MOL0     H21599   6.189   6.489  10.879  1.3754  2.6624 -2.4286
  164MOL0     H21600   6.141   6.544  11.040 -2.2237  1.9625 -0.2632
  164MOL0     H21601   6.149   6.713  10.666  2.6255  0.3499 -2.2794
  164MOL0     H21602   6.280   6.866  10.578 -2.3211 -2.9796  3.9550
  164MOL0     H21603   6.417   6.940  10.670  0.3491 -0.8449  0.4628
  164MOL0     H21604   6.169   7.072  10.552 -0.7274  0.2926  0.9152
  164MOL0     H21605   6.334   7.105  10.546 -0.9925  0.2591 -3.0699
  164MOL0     H21606   6.322   7.162  10.812  0.8751  1.5474 -0.4835
  164MOL0     H21607   6.284   7.269  10.689 -1.3183  0.7452 -0.5338
  164MOL0     H21608   6.139   7.240  10.888  2.0066  1.4387 -0.1146
  164MOL0     H21609   6.075   7.092  10.805  0.1695  0.2242 -1.7203
  164MOL0     H21610   5.971   7.501  10.764 -1.1739  0.9047  1.4065
  164MOL0     H21611   5.763   7.577  10.877  0.7170  0.2391  1.5960
  164MOL0     H21612   5.482   7.506  11.219 -0.4733 -0.4170  0.7592
  164MOL0     H21613   5.339   7.658  11.360 -4.0570 -0.1944  0.4018
  164MOL0     H21614   5.096   7.741  11.463  1.8871 -1.5710  0.3222
  164MOL0     H21615   5.044   7.647  11.325  1.5545  0.2749 -2.2041
  164MOL0     H21616   4.955   7.923  11.302 -2.6380 -3.0621 -2.8683
  164MOL0     H21617   4.904   7.868  11.463 -0.1349 -0.9044  2.6228
  164MOL0     H21618   4.795   7.685  11.369 -1.1658  2.6235  1.8262
  164MOL0     H21619   4.833   7.722  11.198  1.5511 -4.7621  2.6932
  164MOL0     H21620   4.650   7.847  11.417 -1.6100 -1.8714 -0.3886
  164MOL0     H21621   4.675   7.936  11.261  0.3046 -0.0776 -1.2657
  164MOL0     H21622   4.558   7.652  11.305 -3.4661  1.2759  2.1073
  164MOL0     H21623   4.566   7.724  11.146 -0.2938 -0.6041  0.6660
  164MOL0     H21624   4.434   7.859  11.373  2.4286  1.9881 -0.8897
  164MOL0     H21625   4.351   7.743  11.279 -0.2797 -1.5335  0.0785
  164MOL0     H21626   4.479   8.027  11.212  0.6712  0.0850 -1.2470
  164MOL0     H21627   4.448   7.930  11.078  0.5440  1.6224 -0.4653
  164MOL0     H21628   4.241   7.991  11.281  0.2859 -0.1881  0.4571
  164MOL0     H21629   4.203   7.905  11.133  0.8321  0.1511 -1.4154
  164MOL0     H21630   5.127   7.786  11.019 -2.3022 -1.6581 -2.1505
  164MOL0     H21631   5.297   7.654  10.866  2.7105  1.1200  0.5697
  164MOL0     H21632   5.647   7.153  10.899 -2.5866  2.7354 -0.7870
  164MOL0     H21633   5.841   7.085  10.794 -1.3821 -0.8008 -0.7404
  164MOL0     H21634   5.437   6.770  10.424 -0.1384 -0.9891  1.5950
  164MOL0     H21635   5.242   6.894  10.353  2.1133 -0.0924 -1.4010
  164MOL0     H21636   4.947   6.862   9.883 -0.4640 -2.2219  1.2594
  164MOL0     H21637   4.761   7.024   9.800 -1.4362 -2.1865 -0.4796
  164MOL0     H21638   4.679   7.330   9.943 -0.0816 -0.4174 -1.5869
  164MOL0     H21639   4.599   7.285  10.097  3.2812  0.3140  0.2843
  164MOL0     H21640   4.497   7.436   9.872 -0.2166  1.5786  1.5885
  164MOL0     H21641   4.389   7.301   9.905 -0.1725  1.4681  0.5093
  164MOL0     H21642   4.482   7.504  10.119 -4.2395  2.5852  2.1867
  164MOL0     H21643   4.394   7.367  10.155  0.3366  2.8165  2.7357
  164MOL0     H21644   4.327   7.567   9.932  0.5248 -0.8455 -0.0026
  164MOL0     H21645   4.216   7.454  10.008  1.7738 -1.3060 -1.7207
  164MOL0     H21646   4.161   7.745  10.290 -1.7875  0.0119  0.3070
  164MOL0     H21647   4.630   7.079  10.195  0.7228 -3.3544  2.8500
  164MOL0     H21648   4.815   6.948  10.282 -1.1177 -3.0591 -0.2974
  165MOL0     O21649  11.094   4.657   7.674  0.4266  0.2564 -0.3591
  165MOL0     C21650  11.032   4.560   7.629 -0.7719 -0.2005  0.8751
  165MOL0     O21651  11.083   4.484   7.530  0.6324 -0.4416 -0.3843
  165MOL0     C21652  11.204   4.523   7.474 -0.2733  0.3145  0.1130
  165MOL0     C21653  11.302   4.428   7.463 -0.0900  0.4562  0.2360
  165MOL0     C21654  11.433   4.477   7.431 -0.4289  1.0972  0.5110
  165MOL0     C21655  11.447   4.599   7.373 -0.2580  1.1809 -0.7166
  165MOL0     O21656  11.572   4.642   7.359  0.5051 -0.5267 -0.6002
  165MOL0     C21657  11.631   4.740   7.448  0.0899  0.8488 -0.3421
  165MOL0     C21658  11.706   4.655   7.556 -0.4824 -0.3938  0.2927
  165MOL0     C21659  11.837   4.594   7.512  0.2012 -0.5248 -0.2881
  165MOL0     C21660  11.943   4.690   7.453  0.5372 -0.4959 -0.5319
  165MOL0     C21661  11.985   4.820   7.544  0.3273  0.4175 -0.5990
  165MOL0     C21662  12.043   4.792   7.683  0.2874  0.7357  0.4238
  165MOL0     C21663  12.155   4.688   7.689 -0.5936  0.2289  0.3434
  165MOL0     C21664  12.264   4.728   7.586 -0.4276 -1.2163  0.1401
  165MOL0     N21665  12.382   4.641   7.598 -0.0103  0.2491 -0.3178
  165MOL0     C21666  12.448   4.592   7.709 -0.2637 -0.7705  1.3696
  165MOL0     C21667  12.536   4.509   7.660 -0.4922  1.5654 -0.7268
  165MOL0     C21668  12.649   4.437   7.737 -0.2356  0.6236  1.1663
  165MOL0     C21669  12.600   4.316   7.805  0.3008 -0.3508  0.0323
  165MOL0     C21670  12.542   4.348   7.946 -0.2745 -0.9194  0.2231
  165MOL0     C21671  12.489   4.208   8.000  0.4201  0.6798 -0.8391
  165MOL0     O21672  12.357   4.183   7.942 -0.7434 -0.9021  0.4302
  165MOL0     C21673  12.258   4.198   8.035 -0.7949 -0.9921 -0.3984
  165MOL0     C21674  12.201   4.324   8.048 -0.1918  0.8426 -0.6573
  165MOL0     C21675  12.097   4.339   8.144 -0.6863  0.9706  1.3269
  165MOL0     C21676  12.058   4.236   8.230  0.4224  0.9615  0.3296
  165MOL0     C21677  11.960   4.263   8.342  0.4115 -0.2694  0.3323
  165MOL0     O21678  11.942   4.166   8.442 -0.0253 -0.1935 -0.1242
  165MOL0     C21679  11.828   4.175   8.517 -0.4026 -0.3236 -0.3883
  165MOL0     C21680  11.846   4.211   8.652  0.7811  0.2165  0.1220
  165MOL0     C21681  11.731   4.203   8.735 -0.0611 -0.2891  0.1292
  165MOL0     C21682  11.608   4.186   8.684  0.4758 -0.1175  0.0109
  165MOL0     O21683  11.506   4.210   8.772 -0.4686 -0.1880 -0.3284
  165MOL0     C21684  11.368   4.182   8.735 -0.7332  0.3743 -0.2587
  165MOL0     C21685  11.304   4.294   8.654 -0.2522 -0.2743  0.2684
  165MOL0     C21686  11.152   4.287   8.666 -0.6839 -0.5220  0.2973
  165MOL0     C21687  11.083   4.160   8.596 -0.1852  0.2203 -0.0536
  165MOL0     C21688  10.925   4.177   8.603  0.6605  0.0117  0.0886
  165MOL0     C21689  10.859   4.045   8.600 -0.5030 -0.5553  0.4734
  165MOL0     C21690  10.698   4.045   8.580 -0.5342  0.3919  0.3710
  165MOL0     C21691  10.661   4.056   8.428  0.9273  0.6019  0.0030
  165MOL0    Cl21692  10.482   4.052   8.431 -0.2089 -0.0337 -0.2591
  165MOL0     C21693  11.585   4.158   8.548 -0.4962 -0.9681 -0.3456
  165MOL0     C21694  11.700   4.157   8.469  0.7400 -0.2707 -1.4504
  165MOL0     O21695  11.912   4.378   8.339  0.4723  0.0515 -0.1271
  165MOL0     C21696  12.128   4.115   8.219 -0.2246  0.6970 -0.6679
  165MOL0     C21697  12.222   4.097   8.117  0.4325  0.8773  0.2736
  165MOL0     N21698  12.518   4.496   7.529 -0.0471  0.6485  0.0717
  165MOL0     N21699  12.433   4.582   7.490  0.0473  0.3400 -0.2899
  165MOL0     C21700  11.347   4.686   7.362  0.5484  0.1276 -0.0796
  165MOL0     C21701  11.223   4.654   7.415  1.3748  0.5817 -0.2776
  165MOL0     C21702  10.899   4.525   7.666 -0.1749  0.1529 -0.7961
  165MOL0     C21703  10.838   4.403   7.636 -0.4175  0.4694  0.3561
  165MOL0     C21704  10.705   4.374   7.673 -0.4887 -0.1471  1.2187
  165MOL0     C21705  10.622   4.465   7.733 -1.0312 -0.8776  0.0212
  165MOL0     O21706  10.499   4.445   7.772  0.7913  0.4909 -1.0043
  165MOL0     C21707  10.429   4.324   7.735  0.0354  0.5761  0.6176
  165MOL0     C21708  10.272   4.345   7.740 -0.8946  0.6299  0.0198
  165MOL0     C21709  10.206   4.207   7.731  0.4300  0.5505 -0.2335
  165MOL0     C21710  10.063   4.223   7.686  0.4526  0.1983  0.1069
  165MOL0     C21711  10.042   4.244   7.544 -0.2023  0.3062 -0.3677
  165MOL0     C21712  10.035   4.258   7.428  0.6108 -1.0436 -0.0696
  165MOL0     C21713  10.675   4.595   7.768  0.4414  0.5788 -0.1835
  165MOL0     C21714  10.811   4.618   7.735 -0.6285  0.3703  0.6278
  165MOL0     H21715  11.278   4.330   7.501 -3.9709  1.8812  2.0994
  165MOL0     H21716  11.523   4.416   7.442 -2.6672 -2.3624  1.2869
  165MOL0     H21717  11.553   4.804   7.490 -0.1311  0.1804  0.2799
  165MOL0     H21718  11.699   4.806   7.393 -0.2276  0.6467 -0.9805
  165MOL0     H21719  11.640   4.576   7.594 -0.3999  1.1228  3.9190
  165MOL0     H21720  11.707   4.729   7.636  2.3168  1.5531 -1.3948
  165MOL0     H21721  11.808   4.528   7.429 -1.9287  0.5249 -0.4492
  165MOL0     H21722  11.867   4.541   7.603 -0.4907 -1.1320 -0.3991
  165MOL0     H21723  12.027   4.628   7.421 -1.6087 -3.2529 -1.2250
  165MOL0     H21724  11.909   4.726   7.355 -0.7500  0.8812  0.3726
  165MOL0     H21725  11.894   4.880   7.541  0.3883  0.5415 -0.0265
  165MOL0     H21726  12.048   4.879   7.477  1.8865 -0.9560 -0.4015
  165MOL0     H21727  11.964   4.767   7.754  0.4410 -1.1581 -0.0126
  165MOL0     H21728  12.086   4.886   7.719  0.0539  0.4541  1.4732
  165MOL0     H21729  12.191   4.681   7.792 -0.6316  2.1417  0.5116
  165MOL0     H21730  12.103   4.594   7.668  0.5665 -0.2976 -0.2208
  165MOL0     H21731  12.288   4.835   7.593  2.3850 -1.8054  0.4143
  165MOL0     H21732  12.224   4.717   7.484  1.1508 -0.2732 -0.6178
  165MOL0     H21733  12.437   4.613   7.815 -0.2628  0.2583  1.1717
  165MOL0     H21734  12.683   4.504   7.817 -3.5913  1.4057  2.0867
  165MOL0     H21735  12.730   4.416   7.666  0.1133  3.5804  0.5528
  165MOL0     H21736  12.679   4.240   7.810 -0.4372 -1.1058  0.6630
  165MOL0     H21737  12.527   4.258   7.747  4.3472 -4.3666 -1.6446
  165MOL0     H21738  12.626   4.384   8.007 -1.1227  3.9676 -1.0963
  165MOL0     H21739  12.460   4.420   7.944  1.7543  1.5360  0.6593
  165MOL0     H21740  12.481   4.217   8.109 -0.8042  0.4197 -0.8930
  165MOL0     H21741  12.546   4.119   7.972  0.7522  0.1146  1.4145
  165MOL0     H21742  12.240   4.405   7.986 -2.9172  0.2692 -3.3704
  165MOL0     H21743  12.045   4.434   8.140 -1.7962  0.3277 -0.7308
  165MOL0     H21744  11.942   4.217   8.703  0.0285  1.3161  1.4793
  165MOL0     H21745  11.740   4.241   8.836 -1.8058 -2.5115  1.2014
  165MOL0     H21746  11.313   4.165   8.828  1.6979  0.3945  1.2842
  165MOL0     H21747  11.366   4.080   8.697 -2.0223  0.1065  0.4892
  165MOL0     H21748  11.339   4.295   8.551  1.2702  0.2843  0.7591
  165MOL0     H21749  11.345   4.391   8.683  4.1252 -2.8061  3.9773
  165MOL0     H21750  11.109   4.364   8.602 -0.2066 -2.4071 -2.4576
  165MOL0     H21751  11.133   4.293   8.774 -0.2569 -0.5956  0.3796
  165MOL0     H21752  11.114   4.158   8.491 -0.1770  0.3535 -0.0547
  165MOL0     H21753  11.134   4.076   8.643  1.2892  0.6904 -0.7664
  165MOL0     H21754  10.889   4.239   8.519 -0.7548 -0.9674 -0.0553
  165MOL0     H21755  10.898   4.225   8.697 -1.6875 -1.3648  0.1837
  165MOL0     H21756  10.883   3.994   8.693  0.3732 -0.2398  0.4292
  165MOL0     H21757  10.904   3.981   8.524  0.5307  1.4560 -0.6922
  165MOL0     H21758  10.662   3.954   8.629  1.1141  0.0091  0.9339
  165MOL0     H21759  10.649   4.129   8.628  0.2940  1.3913 -0.4842
  165MOL0     H21760  10.721   3.988   8.367  2.1502 -0.1385  1.9151
  165MOL0     H21761  10.704   4.152   8.397  0.5934 -0.4572 -4.3876
  165MOL0     H21762  11.497   4.147   8.486  0.6309  1.9088 -2.6722
  165MOL0     H21763  11.673   4.137   8.366 -2.4975 -1.2845 -0.5210
  165MOL0     H21764  12.105   4.033   8.287  1.6495  1.3424  0.8241
  165MOL0     H21765  12.286   4.010   8.115  3.0115  2.2570  5.1851
  165MOL0     H21766  11.367   4.787   7.327  0.7180 -0.0085 -0.3848
  165MOL0     H21767  11.148   4.731   7.427 -0.4126 -0.9398 -1.1365
  165MOL0     H21768  10.898   4.344   7.567 -1.0982 -0.3645  0.4667
  165MOL0     H21769  10.664   4.276   7.653  2.4800 -1.6068  1.8515
  165MOL0     H21770  10.465   4.242   7.798  1.4794 -0.1038 -0.9994
  165MOL0     H21771  10.446   4.289   7.633 -2.8585  0.3343  0.1596
  165MOL0     H21772  10.238   4.390   7.834 -0.1152 -0.5159  0.8768
  165MOL0     H21773  10.242   4.405   7.653 -0.3509  0.8721 -0.0057
  165MOL0     H21774  10.203   4.164   7.832 -1.3041 -0.1567 -0.5588
  165MOL0     H21775  10.243   4.133   7.660 -1.7261 -0.9839  0.1488
  165MOL0     H21776  10.013   4.131   7.715 -0.8143  1.1757  1.1611
  165MOL0     H21777  10.021   4.305   7.746  0.9436 -1.4892  2.9626
  165MOL0     H21778  10.019   4.280   7.325 -0.4437  0.4643  0.3840
  165MOL0     H21779  10.616   4.663   7.829  2.8869  2.7099 -0.0290
  165MOL0     H21780  10.842   4.719   7.762 -1.4107 -0.1125  3.7915
  166MOL0     O21781   6.391   6.773   1.554 -0.4677  0.3787  0.5534
  166MOL0     C21782   6.280   6.731   1.591  0.6920  1.1156  0.6864
  166MOL0     O21783   6.196   6.790   1.685  0.0698  0.1509  0.4792
  166MOL0     C21784   6.226   6.919   1.737 -0.2995  0.0083 -0.4770
  166MOL0     C21785   6.144   7.022   1.694  0.0010  0.1779 -0.3246
  166MOL0     C21786   6.166   7.144   1.736 -0.1825 -0.6176  0.4335
  166MOL0     C21787   6.270   7.178   1.833 -0.5498 -0.2078 -0.2286
  166MOL0     O21788   6.277   7.313   1.867 -0.1345 -0.2722  0.3358
  166MOL0     C21789   6.388   7.362   1.942  0.5736  0.4082  0.0298
  166MOL0     C21790   6.381   7.489   2.019  0.3898  0.0933 -0.3024
  166MOL0     C21791   6.516   7.534   2.076  0.0160 -0.6207 -0.4719
  166MOL0     C21792   6.505   7.663   2.156  0.3293 -0.4935  0.2449
  166MOL0     C21793   6.478   7.787   2.077 -0.0534  0.1450  0.0495
  166MOL0     C21794   6.393   7.891   2.144 -0.0494 -0.2086 -0.6418
  166MOL0     C21795   6.480   7.956   2.259  0.2091 -0.0351  0.9549
  166MOL0     C21796   6.408   8.081   2.334 -0.4704  0.8998  0.7933
  166MOL0     N21797   6.277   8.042   2.370  0.6232  0.2259  0.4928
  166MOL0     C21798   6.163   8.055   2.289  0.7001  0.5794 -0.1972
  166MOL0     C21799   6.065   8.007   2.367 -0.5949 -0.1972 -0.3448
  166MOL0     C21800   5.913   8.005   2.338 -0.0727  0.4568 -1.2589
  166MOL0     C21801   5.843   7.902   2.433  0.2419  1.4933  0.2275
  166MOL0     C21802   5.696   7.889   2.403  0.5707 -0.0011 -0.1670
  166MOL0     C21803   5.644   7.778   2.488  0.0952 -0.0754  0.0158
  166MOL0     O21804   5.503   7.754   2.458 -0.5709 -0.6249  0.1158
  166MOL0     C21805   5.471   7.690   2.342  0.1305 -0.9800  0.7266
  166MOL0     C21806   5.565   7.618   2.268 -0.3860  0.2460 -0.3380
  166MOL0     C21807   5.525   7.536   2.171 -0.5894  1.3755  0.5531
  166MOL0     C21808   5.388   7.516   2.144 -0.3206  0.4432  0.4540
  166MOL0     C21809   5.343   7.428   2.045  1.2388  0.6710  0.1464
  166MOL0     O21810   5.438   7.379   1.953 -0.4037 -0.8014 -0.7475
  166MOL0     C21811   5.393   7.298   1.851  0.8968 -0.2598  0.5782
  166MOL0     C21812   5.405   7.347   1.721  0.1198 -0.0113 -0.9101
  166MOL0     C21813   5.368   7.272   1.610  0.8750 -0.5579  0.3609
  166MOL0     C21814   5.331   7.141   1.622 -0.6854  0.6489  0.4204
  166MOL0     O21815   5.294   7.073   1.506  0.1584  0.2136 -0.1969
  166MOL0     C21816   5.158   7.030   1.501  0.0607 -0.1706 -0.9100
  166MOL0     C21817   5.099   7.051   1.359 -1.1519 -1.1273 -0.3969
  166MOL0     C21818   5.090   7.197   1.310 -0.2878  0.7090  0.1399
  166MOL0     C21819   4.979   7.286   1.378  0.5386  0.4953 -0.1788
  166MOL0     C21820   4.944   7.399   1.286 -0.0478 -0.7916 -0.2022
  166MOL0     C21821   4.865   7.508   1.363  0.2420 -0.1694 -0.7830
  166MOL0     C21822   4.853   7.638   1.285  0.5682  0.0468  0.0294
  166MOL0     C21823   4.962   7.744   1.299  0.2669 -0.5498  0.6419
  166MOL0    Cl21824   4.905   7.898   1.228  0.0632 -0.2008 -0.2660
  166MOL0     C21825   5.303   7.095   1.754 -0.0937 -0.2012  0.1352
  166MOL0     C21826   5.350   7.166   1.870  0.0156 -0.1470  0.4121
  166MOL0     O21827   5.221   7.391   2.046  0.4230 -0.5899 -0.1383
  166MOL0     C21828   5.290   7.597   2.207 -0.5981 -0.0279 -0.1132
  166MOL0     C21829   5.337   7.684   2.305 -0.2522  0.3508 -0.7948
  166MOL0     N21830   6.123   7.965   2.489  0.4099  0.1434  0.6307
  166MOL0     N21831   6.256   7.989   2.491  1.0477 -0.0629  0.3276
  166MOL0     C21832   6.341   7.074   1.882  0.5629 -0.2620 -0.1775
  166MOL0     C21833   6.327   6.945   1.835  0.4804  0.0150  0.5439
  166MOL0     C21834   6.247   6.596   1.546  0.3745  0.6365  0.2184
  166MOL0     C21835   6.132   6.532   1.590  0.0183  0.4447 -0.4884
  166MOL0     C21836   6.106   6.406   1.549 -0.6442  0.0791  0.5709
  166MOL0     C21837   6.196   6.325   1.472 -0.1350 -0.3352  1.5805
  166MOL0     O21838   6.176   6.188   1.446  0.1539 -0.3966 -0.3777
  166MOL0     C21839   6.054   6.163   1.369 -0.2111 -0.4362 -0.1295
  166MOL0     C21840   6.085   6.129   1.225 -0.5318  0.1603 -0.0805
  166MOL0     C21841   6.177   6.000   1.217 -0.1993 -0.2522 -1.4041
  166MOL0     C21842   6.094   5.877   1.275 -0.0920 -1.0209 -0.3620
  166MOL0     C21843   6.154   5.763   1.207 -0.7887 -0.2440 -0.6680
  166MOL0     C21844   6.212   5.668   1.158  0.3175  0.0637 -0.1783
  166MOL0     C21845   6.312   6.391   1.419 -1.3710  0.5797 -0.1293
  166MOL0     C21846   6.330   6.525   1.460  0.5265  0.5312  0.4975
  166MOL0     H21847   6.051   6.997   1.643 -0.8923 -0.4370  1.4795
  166MOL0     H21848   6.096   7.216   1.695  1.0202  0.8212  0.8153
  166MOL0     H21849   6.477   7.368   1.878 -0.0373 -0.7977 -0.9671
  166MOL0     H21850   6.397   7.292   2.025 -0.3735  0.8441  0.5174
  166MOL0     H21851   6.309   7.473   2.099 -2.7530 -1.7431 -3.2375
  166MOL0     H21852   6.342   7.564   1.950 -0.7102 -0.4836 -0.3198
  166MOL0     H21853   6.587   7.533   1.993 -0.2134  0.6943 -0.7127
  166MOL0     H21854   6.552   7.454   2.141  3.2905 -0.4540 -1.8945
  166MOL0     H21855   6.424   7.657   2.228  0.3009 -0.8857  0.1822
  166MOL0     H21856   6.599   7.682   2.210 -0.5822  0.7802  1.4510
  166MOL0     H21857   6.436   7.758   1.981 -0.2152  1.5980 -0.3473
  166MOL0     H21858   6.580   7.825   2.062  0.3118 -0.5377  0.7206
  166MOL0     H21859   6.304   7.837   2.176  1.7531 -2.7989  0.3076
  166MOL0     H21860   6.368   7.971   2.073 -0.7555  1.4548  1.3696
  166MOL0     H21861   6.507   7.877   2.330  0.4075 -1.2531 -0.4094
  166MOL0     H21862   6.567   7.987   2.201 -1.4317  2.5228 -0.2809
  166MOL0     H21863   6.410   8.165   2.263  1.2600 -0.6313 -1.1184
  166MOL0     H21864   6.464   8.100   2.426 -1.4065 -1.5047  1.9331
  166MOL0     H21865   6.157   8.098   2.189  2.1408 -0.1064 -0.6115
  166MOL0     H21866   5.885   7.981   2.235 -0.8109  2.3932 -1.5524
  166MOL0     H21867   5.858   8.098   2.352  1.4543  1.4259 -1.5234
  166MOL0     H21868   5.856   7.940   2.535  3.2356 -1.5420  1.1796
  166MOL0     H21869   5.885   7.801   2.426 -1.2624  0.7233  1.7278
  166MOL0     H21870   5.646   7.985   2.421  2.8951  1.1690  0.5728
  166MOL0     H21871   5.696   7.867   2.295  1.2835 -1.5204  0.1152
  166MOL0     H21872   5.645   7.815   2.591  1.1307  2.1827 -0.7581
  166MOL0     H21873   5.705   7.689   2.470 -0.5322 -0.0657 -2.6462
  166MOL0     H21874   5.673   7.617   2.279  0.0325 -1.4925 -3.5818
  166MOL0     H21875   5.606   7.495   2.111 -0.9560 -5.8228  3.9606
  166MOL0     H21876   5.442   7.449   1.722 -0.1977  0.1638  1.9641
  166MOL0     H21877   5.372   7.332   1.520 -1.2240 -0.8596  0.0246
  166MOL0     H21878   5.095   7.089   1.569 -4.0374 -1.8257 -2.9043
  166MOL0     H21879   5.150   6.925   1.530  0.1271 -0.2612 -1.2114
  166MOL0     H21880   4.997   7.012   1.353 -1.4725 -0.7101  1.6377
  166MOL0     H21881   5.161   6.988   1.294 -1.6181 -0.7235 -1.2444
  166MOL0     H21882   5.066   7.175   1.205 -0.5454  0.9938  0.1396
  166MOL0     H21883   5.188   7.246   1.311 -0.5551  1.5787 -3.1921
  166MOL0     H21884   4.894   7.222   1.403  0.2785  1.1414  0.6396
  166MOL0     H21885   4.998   7.335   1.473  2.2992  1.6842 -1.0924
  166MOL0     H21886   4.894   7.360   1.197  3.2625 -1.0699 -2.0787
  166MOL0     H21887   5.037   7.448   1.256  0.0201  1.2482  2.8599
  166MOL0     H21888   4.919   7.542   1.451 -0.5175  0.2734 -0.4785
  166MOL0     H21889   4.772   7.470   1.407  1.7465 -0.1408  2.7494
  166MOL0     H21890   4.832   7.617   1.179  0.0439  0.3649  0.0638
  166MOL0     H21891   4.755   7.682   1.307 -0.6163 -2.1907 -0.3682
  166MOL0     H21892   5.057   7.722   1.251  0.5980  0.4418  0.8276
  166MOL0     H21893   4.986   7.751   1.406 -1.4354 -3.6554  1.3845
  166MOL0     H21894   5.263   6.995   1.764  1.1017 -1.0995 -2.8774
  166MOL0     H21895   5.353   7.124   1.970 -1.4452 -1.1141  0.0794
  166MOL0     H21896   5.189   7.597   2.166 -0.6168 -0.2708 -0.0704
  166MOL0     H21897   5.271   7.755   2.354 -1.0339 -0.2852 -0.9180
  166MOL0     H21898   6.414   7.095   1.960  0.3823  1.5282 -0.4665
  166MOL0     H21899   6.382   6.861   1.877 -0.1982 -0.1998  1.0174
  166MOL0     H21900   6.065   6.585   1.657 -0.6413 -2.7295  1.5642
  166MOL0     H21901   6.014   6.365   1.590 -2.3102  0.9192 -2.0468
  166MOL0     H21902   5.987   6.249   1.370 -3.7288 -2.9406  1.1964
  166MOL0     H21903   5.999   6.080   1.414 -3.2391  1.5265  0.0206
  166MOL0     H21904   6.001   6.113   1.157  0.2131 -1.2049 -0.7168
  166MOL0     H21905   6.139   6.216   1.187  0.3151  0.0060  0.7252
  166MOL0     H21906   6.261   6.018   1.285 -2.2807 -1.8238  1.8712
  166MOL0     H21907   6.208   5.980   1.114  1.1250  1.2437 -1.3419
  166MOL0     H21908   6.104   5.867   1.384 -0.3080 -0.6244 -0.3032
  166MOL0     H21909   5.992   5.889   1.240 -0.4155 -0.7487  0.6472
  166MOL0     H21910   6.255   5.581   1.112  0.0897 -0.6985  1.0237
  166MOL0     H21911   6.400   6.346   1.375  0.9624  2.6981  2.0357
  166MOL0     H21912   6.421   6.573   1.424 -0.3545  1.5345 -0.5015
  167MOL0     O21913  10.869  10.822   8.061  0.4437  0.9537  0.2804
  167MOL0     C21914  10.928  10.911   7.997  0.5666  0.9618 -0.4684
  167MOL0     O21915  10.863  11.012   7.933 -0.1296  1.5129 -0.0811
  167MOL0     C21916  10.727  11.026   7.934  0.3154  0.0649 -0.5074
  167MOL0     C21917  10.629  10.986   8.030  0.1846  0.1717 -0.5681
  167MOL0     C21918  10.494  11.029   8.003 -0.3119  0.4916  0.7471
  167MOL0     C21919  10.458  11.092   7.882 -0.6554  0.2778  0.3625
  167MOL0     O21920  10.324  11.124   7.869 -0.0245  0.3153  0.1447
  167MOL0     C21921  10.273  11.182   7.753 -0.9476 -0.3193  0.2862
  167MOL0     C21922  10.124  11.205   7.770 -0.9905  1.0186  0.6218
  167MOL0     C21923  10.046  11.080   7.806  0.1727 -0.5404 -0.1904
  167MOL0     C21924   9.887  11.099   7.803  0.6556  1.0036  0.3850
  167MOL0     C21925   9.845  10.961   7.864  0.8361 -0.5408  0.3501
  167MOL0     C21926   9.726  10.952   7.958 -0.1447  0.1455  0.9730
  167MOL0     C21927   9.757  11.032   8.081  0.1662  0.2288  0.3399
  167MOL0     C21928   9.683  10.993   8.204  0.2626 -0.1341  0.9922
  167MOL0     N21929   9.538  11.036   8.225 -0.4935 -0.4207  0.6153
  167MOL0     C21930   9.492  11.167   8.211  0.5550  0.4176 -0.7072
  167MOL0     C21931   9.350  11.151   8.220 -0.9501  0.7088  0.7485
  167MOL0     C21932   9.250  11.254   8.209 -0.2490 -0.0781 -0.0853
  167MOL0     C21933   9.133  11.218   8.116  0.5887  0.2965  0.6900
  167MOL0     C21934   9.030  11.333   8.128 -0.3638  0.0168 -0.0170
  167MOL0     C21935   8.902  11.318   8.052 -0.2392 -0.0508 -0.8382
  167MOL0     O21936   8.839  11.189   8.073  0.4911  0.5923  0.7265
  167MOL0     C21937   8.735  11.187   8.167 -0.4665 -0.0676 -0.2391
  167MOL0     C21938   8.664  11.074   8.169 -1.1524  0.1262  1.1525
  167MOL0     C21939   8.548  11.067   8.237  0.9751 -0.1251 -0.4473
  167MOL0     C21940   8.516  11.155   8.335  0.1582  0.1425  0.0728
  167MOL0     C21941   8.408  11.121   8.426  0.6665  0.6688  0.1167
  167MOL0     O21942   8.349  10.995   8.413  0.0432 -0.1052  0.2970
  167MOL0     C21943   8.272  10.951   8.512  0.7901 -0.1566 -0.2213
  167MOL0     C21944   8.329  10.892   8.630  0.3990  0.1140 -1.0237
  167MOL0     C21945   8.249  10.847   8.734  0.9489 -0.3380  0.2250
  167MOL0     C21946   8.109  10.850   8.722  0.1285 -0.9622 -0.3970
  167MOL0     O21947   8.054  10.799   8.837  0.8839  0.1925  0.0253
  167MOL0     C21948   7.910  10.812   8.857  0.4998 -1.0530 -0.7584
  167MOL0     C21949   7.836  10.693   8.800  0.5801  0.9580 -0.2282
  167MOL0     C21950   7.686  10.692   8.847  0.3100 -0.4777  0.8914
  167MOL0     C21951   7.596  10.580   8.788  0.2076  0.4825  0.4340
  167MOL0     C21952   7.469  10.643   8.742  1.4549  0.0334 -0.1265
  167MOL0     C21953   7.382  10.703   8.858 -0.0982  0.7022 -0.7138
  167MOL0     C21954   7.285  10.809   8.804 -0.0828  0.3666 -0.2496
  167MOL0     C21955   7.329  10.949   8.833  0.2458 -0.1190 -0.3169
  167MOL0    Cl21956   7.197  11.064   8.801 -0.1545 -0.2390  0.5665
  167MOL0     C21957   8.049  10.902   8.603  0.6277 -0.3740  0.4002
  167MOL0     C21958   8.130  10.957   8.500  0.2227 -0.1086 -0.3901
  167MOL0     O21959   8.390  11.189   8.528 -0.5261  0.1523  0.1853
  167MOL0     C21960   8.599  11.262   8.356 -0.2335 -0.1928 -0.3181
  167MOL0     C21961   8.710  11.286   8.265  0.4224  0.4678  0.8823
  167MOL0     N21962   9.327  11.019   8.238 -0.0675  0.4607 -0.8514
  167MOL0     N21963   9.432  10.951   8.244 -0.0087 -0.5031  0.1609
  167MOL0     C21964  10.560  11.141   7.798  0.0635  0.2538  0.4868
  167MOL0     C21965  10.693  11.112   7.827 -0.5605 -0.4489 -1.0223
  167MOL0     C21966  11.069  10.908   7.987 -0.3342  0.1718 -0.0248
  167MOL0     C21967  11.132  11.009   7.904  0.3068  0.7885  0.5084
  167MOL0     C21968  11.269  11.017   7.893 -0.3196  0.0374  0.0719
  167MOL0     C21969  11.355  10.911   7.949  0.6587 -0.4112  0.2709
  167MOL0     O21970  11.486  10.900   7.929 -0.0771  0.7673  0.9017
  167MOL0     C21971  11.565  11.019   7.908 -0.4753  0.5135  0.0356
  167MOL0     C21972  11.712  10.994   7.920 -0.0282  0.8463 -0.2602
  167MOL0     C21973  11.801  11.118   7.889  0.4914  0.2843  0.3530
  167MOL0     C21974  11.812  11.139   7.742  0.1918 -0.0873  0.2833
  167MOL0     C21975  11.887  11.260   7.713  0.4281  0.0828 -0.1871
  167MOL0     C21976  11.946  11.368   7.683 -0.1597  0.6776 -0.3467
  167MOL0     C21977  11.290  10.814   8.022  0.1988  0.6314 -0.4918
  167MOL0     C21978  11.151  10.813   8.045 -0.5889 -0.7172  1.5345
  167MOL0     H21979  10.636  10.925   8.119  0.9229  0.4769 -0.4094
  167MOL0     H21980  10.412  10.997   8.066  0.0213 -1.2797  0.3309
  167MOL0     H21981  10.295  11.115   7.669  3.5086  0.3701  0.6612
  167MOL0     H21982  10.327  11.275   7.735 -2.8695  0.7720 -0.1250
  167MOL0     H21983  10.085  11.241   7.675  0.1110 -4.4946 -2.3299
  167MOL0     H21984  10.107  11.280   7.848 -1.0203  2.1590 -0.4472
  167MOL0     H21985  10.080  11.042   7.902  1.1793  0.4269 -0.1497
  167MOL0     H21986  10.070  11.010   7.725  0.2613  2.9790 -3.4588
  167MOL0     H21987   9.847  11.181   7.864 -2.5740  2.5045 -3.2797
  167MOL0     H21988   9.840  11.109   7.705 -1.8892 -1.2461  1.2543
  167MOL0     H21989   9.930  10.909   7.909  0.2391 -1.0793  0.8838
  167MOL0     H21990   9.811  10.900   7.780 -0.7802  0.7427  0.0188
  167MOL0     H21991   9.708  10.847   7.983  1.0358 -1.2590 -3.2114
  167MOL0     H21992   9.633  10.982   7.910  0.4020  0.0893 -0.1663
  167MOL0     H21993   9.858  11.006   8.113 -0.0013  1.4497  2.0019
  167MOL0     H21994   9.747  11.137   8.053 -1.3742  0.5054  1.7713
  167MOL0     H21995   9.736  11.035   8.291 -2.7676  0.5321  2.6499
  167MOL0     H21996   9.686  10.885   8.217 -4.1228 -0.3573  1.3391
  167MOL0     H21997   9.550  11.258   8.202 -0.4680  1.4196  1.8901
  167MOL0     H21998   9.300  11.343   8.172  1.0321  0.2770  2.3006
  167MOL0     H21999   9.215  11.276   8.310  3.2974 -1.4773  1.6037
  167MOL0     H22000   9.095  11.119   8.143  3.6858 -1.3599 -0.5339
  167MOL0     H22001   9.176  11.204   8.016  0.3590 -4.5623  1.0445
  167MOL0     H22002   9.014  11.339   8.236 -1.3654  2.5038 -0.2208
  167MOL0     H22003   9.086  11.422   8.096  1.6723 -1.1728  0.0628
  167MOL0     H22004   8.925  11.320   7.945  4.5373 -0.4415 -0.0465
  167MOL0     H22005   8.839  11.403   8.077  3.5595  2.3875  1.4493
  167MOL0     H22006   8.689  11.002   8.092  1.1018  1.7723  0.2348
  167MOL0     H22007   8.488  10.977   8.227 -1.6237  1.5416 -0.6610
  167MOL0     H22008   8.434  10.895   8.658 -0.3716 -1.4752  2.4749
  167MOL0     H22009   8.285  10.818   8.832 -1.6121  2.7616  2.2882
  167MOL0     H22010   7.864  10.904   8.820  0.8620 -0.6836 -0.2994
  167MOL0     H22011   7.903  10.830   8.965 -1.9955 -0.0754 -1.0044
  167MOL0     H22012   7.880  10.600   8.835  0.2429  0.0091 -2.2091
  167MOL0     H22013   7.840  10.693   8.691 -1.4463  1.1843 -0.3442
  167MOL0     H22014   7.648  10.792   8.824  1.6773 -0.5164 -1.9274
  167MOL0     H22015   7.690  10.674   8.955 -2.7714 -3.2995  0.6827
  167MOL0     H22016   7.637  10.523   8.705 -1.0548  1.4166 -0.8832
  167MOL0     H22017   7.566  10.507   8.864 -2.4481  0.5035 -0.4860
  167MOL0     H22018   7.411  10.563   8.696  3.3180 -0.9451 -0.8592
  167MOL0     H22019   7.488  10.725   8.672 -2.0593  2.5912  1.6406
  167MOL0     H22020   7.451  10.754   8.926 -1.3895  1.3496  0.1454
  167MOL0     H22021   7.329  10.629   8.918 -0.3744  0.6383 -1.0371
  167MOL0     H22022   7.256  10.796   8.700  0.3597  1.9867 -0.6097
  167MOL0     H22023   7.192  10.796   8.860  0.6458 -3.8672  0.2738
  167MOL0     H22024   7.423  10.965   8.780  1.1560 -1.9300  0.6623
  167MOL0     H22025   7.353  10.952   8.939  2.5502  2.2184 -0.8049
  167MOL0     H22026   7.943  10.922   8.593  1.0890  0.9707 -4.2502
  167MOL0     H22027   8.072  10.983   8.412 -0.8277  0.5830  0.4833
  167MOL0     H22028   8.575  11.328   8.438  2.1325  2.0009 -1.2624
  167MOL0     H22029   8.771  11.374   8.279 -1.5562  1.9336  0.6895
  167MOL0     H22030  10.544  11.203   7.711 -0.8018 -1.5418 -0.6841
  167MOL0     H22031  10.773  11.167   7.781  0.0411 -0.1985  0.2822
  167MOL0     H22032  11.073  11.084   7.853 -1.4083  0.9333  2.5777
  167MOL0     H22033  11.316  11.103   7.845 -1.3860 -1.0176 -3.1770
  167MOL0     H22034  11.537  11.094   7.983 -0.2884 -2.3916  3.2903
  167MOL0     H22035  11.553  11.057   7.806 -0.1159 -0.9145 -0.5562
  167MOL0     H22036  11.726  10.960   8.023 -1.1736 -0.2861 -0.4684
  167MOL0     H22037  11.733  10.920   7.843 -0.2363 -0.6710  1.0859
  167MOL0     H22038  11.904  11.111   7.926  0.5620 -0.0655  0.0917
  167MOL0     H22039  11.763  11.212   7.931 -0.6054  0.8959 -1.8254
  167MOL0     H22040  11.871  11.062   7.691  1.4322 -1.1340  3.0760
  167MOL0     H22041  11.711  11.160   7.705  0.0943 -0.8410  0.1097
  167MOL0     H22042  11.973  11.465   7.648 -0.0235 -0.0358 -2.3460
  167MOL0     H22043  11.356  10.747   8.075 -0.4813  0.0498 -0.3649
  167MOL0     H22044  11.093  10.739   8.099 -2.1923 -0.4696  0.2119
  168MOL0     O22045   7.495  10.316   2.478  0.1121 -0.5223 -0.9347
  168MOL0     C22046   7.430  10.396   2.548 -1.6200  0.6784  0.6079
  168MOL0     O22047   7.312  10.463   2.514  0.4822 -0.0913 -0.4079
  168MOL0     C22048   7.296  10.505   2.384  1.0130  0.0461 -0.5705
  168MOL0     C22049   7.279  10.648   2.368  0.2591 -0.2327  0.3298
  168MOL0     C22050   7.261  10.702   2.241 -0.4560  0.6707 -0.1111
  168MOL0     C22051   7.270  10.619   2.125 -0.1137 -0.7289 -0.0696
  168MOL0     O22052   7.263  10.661   1.994 -0.2261  0.2259  0.2937
  168MOL0     C22053   7.155  10.745   1.970 -0.0424 -0.7167  0.3234
  168MOL0     C22054   7.119  10.741   1.834 -0.7679  0.5054 -0.2549
  168MOL0     C22055   7.081  10.883   1.794  0.2542  0.4279  0.1078
  168MOL0     C22056   7.011  10.887   1.660  0.2564 -0.4837 -0.0249
  168MOL0     C22057   7.105  10.822   1.560 -0.1420  0.3364 -1.4796
  168MOL0     C22058   7.059  10.862   1.426 -0.2102  0.3687  0.6589
  168MOL0     C22059   7.148  10.795   1.314 -0.0402 -1.3706  0.1956
  168MOL0     C22060   7.098  10.833   1.167  0.1360  0.7397 -0.5240
  168MOL0     N22061   7.110  10.714   1.075  0.2675 -0.9357 -0.8979
  168MOL0     C22062   7.032  10.607   1.083  0.7486 -0.6551 -0.1968
  168MOL0     C22063   7.084  10.519   0.991  0.4486 -0.8198  0.0178
  168MOL0     C22064   7.021  10.389   0.967 -0.4631 -0.8709  1.0387
  168MOL0     C22065   7.122  10.287   1.006  0.1563  0.0577  0.0766
  168MOL0     C22066   7.082  10.153   0.941 -0.1958 -0.6030 -0.3584
  168MOL0     C22067   7.149  10.151   0.806  1.0319  0.4609  0.1834
  168MOL0     O22068   7.096  10.050   0.723  1.0701 -0.2863 -0.7040
  168MOL0     C22069   7.020  10.068   0.607 -0.6608  0.0883 -0.0060
  168MOL0     C22070   7.057  10.155   0.506 -0.2722  0.2744 -0.0271
  168MOL0     C22071   6.981  10.139   0.388  0.1896 -0.1199 -0.5153
  168MOL0     C22072   6.870  10.056   0.378 -0.2350 -0.7492  0.8838
  168MOL0     C22073   6.783  10.045   0.256  0.1963 -0.6083 -0.3966
  168MOL0     O22074   6.674   9.979   0.280 -0.4232  0.0616  0.2398
  168MOL0     C22075   6.588   9.944   0.172  0.0432 -0.0328  0.4637
  168MOL0     C22076   6.453   9.977   0.186 -1.3389  0.6663  0.5998
  168MOL0     C22077   6.356   9.943   0.096  0.2349  0.2084 -0.2837
  168MOL0     C22078   6.400   9.878  -0.027 -0.1347  0.0254 -0.3301
  168MOL0     O22079   6.312   9.854  -0.131  0.0118 -0.2179 -0.2704
  168MOL0     C22080   6.193   9.940  -0.140 -0.0501  0.1147 -0.0419
  168MOL0     C22081   6.123   9.921  -0.272  0.1576 -0.1852  0.1177
  168MOL0     C22082   5.997  10.017  -0.261  0.7154  0.0490  0.8919
  168MOL0     C22083   5.912  10.010  -0.390  0.3040 -0.2236 -1.0139
  168MOL0     C22084   5.803  10.124  -0.387 -0.9846 -0.4024  0.5099
  168MOL0     C22085   5.674  10.081  -0.460  0.5129  0.3542  0.5906
  168MOL0     C22086   5.571  10.192  -0.482 -0.6532 -0.7179  0.0278
  168MOL0     C22087   5.437  10.116  -0.508 -0.6507 -0.1890  0.2320
  168MOL0    Cl22088   5.413  10.088  -0.692  0.0681 -0.2005 -0.3161
  168MOL0     C22089   6.534   9.853  -0.043  0.1514 -0.1564 -0.7162
  168MOL0     C22090   6.629   9.872   0.060  0.1905  0.4093  0.4832
  168MOL0     O22091   6.796  10.126   0.161 -0.0174  0.4626  0.0458
  168MOL0     C22092   6.848   9.967   0.486  0.6427 -0.0011 -0.5736
  168MOL0     C22093   6.916   9.986   0.607  0.0694  0.7470  0.2476
  168MOL0     N22094   7.194  10.572   0.929 -0.3043  0.0472  0.2409
  168MOL0     N22095   7.211  10.690   0.980  0.2217 -0.7067 -0.1505
  168MOL0     C22096   7.285  10.483   2.145  0.1502  0.0820  0.2091
  168MOL0     C22097   7.297  10.421   2.270 -0.9979 -0.0908 -0.3278
  168MOL0     C22098   7.481  10.394   2.690  0.5770 -0.2247 -0.7362
  168MOL0     C22099   7.414  10.482   2.780 -0.8389 -0.1761  1.4026
  168MOL0     C22100   7.442  10.474   2.920  0.1285  0.1158 -0.1907
  168MOL0     C22101   7.536  10.387   2.964 -1.0035 -0.2848  0.5022
  168MOL0     O22102   7.538  10.382   3.097 -0.1319 -0.8270  0.8504
  168MOL0     C22103   7.650  10.330   3.166 -0.2334  0.6316 -0.5117
  168MOL0     C22104   7.778  10.422   3.143 -0.4597 -0.2460  0.1731
  168MOL0     C22105   7.876  10.399   3.259  0.2543 -0.0698  0.4485
  168MOL0     C22106   7.891  10.248   3.297 -0.0426 -0.5412 -1.2336
  168MOL0     C22107   8.024  10.217   3.355  0.9677 -0.9254 -0.2013
  168MOL0     C22108   8.131  10.174   3.373 -0.4385 -0.0706  0.0722
  168MOL0     C22109   7.605  10.301   2.878 -0.3622 -0.1350 -0.2607
  168MOL0     C22110   7.575  10.309   2.741 -0.1958  0.0380  0.1441
  168MOL0     H22111   7.279  10.713   2.455 -0.3945  2.4925 -1.5579
  168MOL0     H22112   7.260  10.810   2.232  0.2708  0.5479 -2.7842
  168MOL0     H22113   7.182  10.847   1.999 -1.6057 -0.6944  1.8865
  168MOL0     H22114   7.067  10.715   2.029  0.3916 -0.6850  1.0030
  168MOL0     H22115   7.044  10.667   1.804 -3.5797  3.7729 -2.0071
  168MOL0     H22116   7.214  10.720   1.784 -1.1998 -0.5318 -0.6813
  168MOL0     H22117   7.171  10.944   1.787  2.1509 -2.3028 -1.2978
  168MOL0     H22118   7.012  10.929   1.865 -1.7211  0.4984 -1.7747
  168MOL0     H22119   6.915  10.835   1.648  0.0054 -0.0938  0.3059
  168MOL0     H22120   7.009  10.988   1.619 -0.8386 -0.4438  0.0995
  168MOL0     H22121   7.106  10.713   1.561 -2.6883  0.2081 -3.6100
  168MOL0     H22122   7.210  10.849   1.576 -0.4394  1.4184 -1.2060
  168MOL0     H22123   7.060  10.971   1.414  4.0287  0.8675  3.3082
  168MOL0     H22124   6.966  10.808   1.407  1.3366 -2.2588 -0.0075
  168MOL0     H22125   7.255  10.815   1.318 -0.3449  2.5256 -3.4461
  168MOL0     H22126   7.124  10.689   1.329 -0.4555 -1.0401  2.1259
  168MOL0     H22127   7.157  10.919   1.133  0.0801  1.0078  0.0372
  168MOL0     H22128   6.995  10.869   1.176 -0.3133 -0.1418 -1.8842
  168MOL0     H22129   6.940  10.598   1.140 -0.0696 -2.1802 -1.6511
  168MOL0     H22130   6.990  10.382   0.863 -4.7437 -2.0023  2.2050
  168MOL0     H22131   6.932  10.388   1.031 -0.4499  0.9755  1.1312
  168MOL0     H22132   7.138  10.271   1.113  1.0338 -0.7096 -0.1552
  168MOL0     H22133   7.216  10.318   0.960 -0.8776  0.9854 -1.5357
  168MOL0     H22134   7.126  10.074   1.004 -1.0697 -0.4464  0.4738
  168MOL0     H22135   6.975  10.139   0.927  0.4056 -2.6634 -4.1970
  168MOL0     H22136   7.257  10.138   0.815  0.8891 -1.5912 -0.5268
  168MOL0     H22137   7.133  10.249   0.761  0.8218  1.3255  2.0687
  168MOL0     H22138   7.142  10.221   0.519  3.3963 -2.7710 -5.0401
  168MOL0     H22139   7.006  10.200   0.302  0.6165  0.5371  0.0558
  168MOL0     H22140   6.427  10.016   0.284  0.2629 -0.0861  1.3659
  168MOL0     H22141   6.254   9.964   0.127  0.4887  1.9588 -0.5452
  168MOL0     H22142   6.216  10.047  -0.134 -3.0236  1.1187 -3.0852
  168MOL0     H22143   6.127   9.923  -0.055  0.5554  1.3191  0.6939
  168MOL0     H22144   6.086   9.819  -0.285  1.4049 -1.4115  4.6844
  168MOL0     H22145   6.187   9.949  -0.356  2.3330 -1.7349  1.1649
  168MOL0     H22146   6.031  10.120  -0.251  0.5337  0.1766  0.2109
  168MOL0     H22147   5.932   9.978  -0.182  1.6691 -1.4368  0.9954
  168MOL0     H22148   5.970  10.005  -0.482  2.3460  0.9975  0.1286
  168MOL0     H22149   5.860   9.913  -0.388 -0.3792  0.1258  1.0744
  168MOL0     H22150   5.845  10.212  -0.437 -2.3492  0.5835  1.0390
  168MOL0     H22151   5.779  10.154  -0.284 -0.4508 -0.6895  0.7236
  168MOL0     H22152   5.629   9.996  -0.408 -0.4734 -0.2567 -1.1566
  168MOL0     H22153   5.695  10.047  -0.562 -0.6423  0.1885  0.3932
  168MOL0     H22154   5.581  10.253  -0.392  1.7639 -0.1965 -0.5107
  168MOL0     H22155   5.598  10.263  -0.562 -1.9539 -2.0063 -1.6199
  168MOL0     H22156   5.355  10.182  -0.480  1.7317  4.3392 -2.3757
  168MOL0     H22157   5.434  10.015  -0.465  0.3268  0.5579  2.1883
  168MOL0     H22158   6.562   9.806  -0.137  1.0104 -0.0998 -0.5020
  168MOL0     H22159   6.730   9.838   0.040 -0.9953 -2.2362 -1.6228
  168MOL0     H22160   6.786   9.880   0.469  0.4888  0.7052 -4.4540
  168MOL0     H22161   6.911   9.928   0.699 -2.2060  2.1211  1.0656
  168MOL0     H22162   7.287  10.417   2.059  4.7551  0.0745  0.0958
  168MOL0     H22163   7.311  10.316   2.289 -1.4323 -0.5158 -2.1524
  168MOL0     H22164   7.353  10.567   2.751  0.1418  0.1827  0.3171
  168MOL0     H22165   7.384  10.543   2.981 -0.9858 -0.0530 -1.0257
  168MOL0     H22166   7.665  10.226   3.135  2.6578  0.0179  2.4100
  168MOL0     H22167   7.625  10.325   3.272  2.6658  1.6041  0.3089
  168MOL0     H22168   7.816  10.405   3.042  0.6860  3.7921 -0.2343
  168MOL0     H22169   7.734  10.521   3.147 -0.4422 -0.2602  1.1163
  168MOL0     H22170   7.833  10.460   3.339  0.9179  3.2077 -1.4785
  168MOL0     H22171   7.968  10.453   3.236 -1.2383  0.9108 -4.5683
  168MOL0     H22172   7.820  10.210   3.371  0.2625  0.7237 -0.2629
  168MOL0     H22173   7.886  10.196   3.200 -1.7426 -3.6956  0.3770
  168MOL0     H22174   8.220  10.120   3.397 -1.6429 -1.8527  0.7164
  168MOL0     H22175   7.672  10.218   2.900 -0.6205 -0.8739 -2.1164
  168MOL0     H22176   7.620  10.242   2.669 -0.4976 -0.4796  0.4336
  169MOL0     O22177  10.982   3.153   9.564 -0.1865 -0.6043  0.1597
  169MOL0     C22178  10.881   3.203   9.611 -0.7392 -0.1080  0.3314
  169MOL0     O22179  10.869   3.315   9.685  0.3496  0.1002  0.3799
  169MOL0     C22180  10.968   3.414   9.679  0.0192  0.1850  0.4404
  169MOL0     C22181  11.082   3.422   9.588 -0.5255  0.3372 -0.9888
  169MOL0     C22182  11.166   3.532   9.579 -0.2706  0.1729  0.0535
  169MOL0     C22183  11.146   3.645   9.665 -0.3072 -0.1464  0.4346
  169MOL0     O22184  11.223   3.753   9.637  0.1527  0.4957 -0.7609
  169MOL0     C22185  11.225   3.869   9.724  0.0946  0.0390 -0.5243
  169MOL0     C22186  11.278   3.832   9.872 -1.0823 -0.1385 -0.0160
  169MOL0     C22187  11.426   3.796   9.861  0.4400 -0.9888  0.6307
  169MOL0     C22188  11.493   3.859   9.983  0.0524  0.3668  0.2448
  169MOL0     C22189  11.562   3.994   9.951  0.3571 -0.4761 -0.5324
  169MOL0     C22190  11.579   4.074  10.081 -0.3862  0.1558 -0.2283
  169MOL0     C22191  11.656   4.206  10.062  0.3418  0.0400 -0.2713
  169MOL0     C22192  11.628   4.311  10.168  0.2407 -0.2318  0.9337
  169MOL0     N22193  11.722   4.421  10.145 -0.4130 -0.3743 -0.2250
  169MOL0     C22194  11.813   4.465  10.238 -0.4089  0.3357  1.0684
  169MOL0     C22195  11.887   4.559  10.174  0.0221  0.0553  0.0214
  169MOL0     C22196  11.992   4.644  10.237  0.8130  0.5598 -0.6415
  169MOL0     C22197  12.134   4.590  10.190 -0.1891 -0.0282 -0.6094
  169MOL0     C22198  12.248   4.681  10.238  0.3874  0.6227  0.7257
  169MOL0     C22199  12.277   4.678  10.382 -0.6196  0.0843  0.0634
  169MOL0     O22200  12.365   4.790  10.411  0.2599 -0.8240  0.0644
  169MOL0     C22201  12.430   4.788  10.528  0.1789  0.3279 -0.0380
  169MOL0     C22202  12.545   4.866  10.533 -0.8927 -0.4811  0.3619
  169MOL0     C22203  12.621   4.869  10.647  0.1780 -0.8158 -0.2183
  169MOL0     C22204  12.594   4.789  10.763 -0.1469 -0.5313  0.0963
  169MOL0     C22205  12.668   4.789  10.890 -0.4418  0.9021 -0.5368
  169MOL0     O22206  12.773   4.876  10.902  0.9496  0.7276 -0.5090
  169MOL0     C22207  12.854   4.884  11.013  0.4532  0.3673 -0.7653
  169MOL0     C22208  12.926   4.770  11.054  1.2942 -0.3867  0.3810
  169MOL0     C22209  13.000   4.775  11.180 -0.5454  0.5353  0.7467
  169MOL0     C22210  13.019   4.903  11.250  0.1232 -0.6335  0.2064
  169MOL0     O22211  13.091   4.883  11.367  0.2574  0.1211 -0.0357
  169MOL0     C22212  13.140   5.006  11.417  0.5183  0.3428  0.5334
  169MOL0     C22213  13.261   4.977  11.502  0.4414 -0.6897 -0.0096
  169MOL0     C22214  13.323   5.104  11.548 -0.4105  0.2102  0.3582
  169MOL0     C22215  13.456   5.079  11.624 -0.9837  0.1568 -0.3159
  169MOL0     C22216  13.521   5.211  11.677  0.0679 -0.0903  0.2896
  169MOL0     C22217  13.676   5.192  11.696  0.1925  0.7204  0.2248
  169MOL0     C22218  13.747   5.320  11.752  0.4776  0.2560  0.1529
  169MOL0     C22219  13.903   5.314  11.764  0.0934  0.3148 -0.2980
  169MOL0    Cl22220  13.984   5.290  11.606  0.1883 -0.4129 -0.2634
  169MOL0     C22221  12.945   5.011  11.215 -0.1978 -0.3544 -0.0328
  169MOL0     C22222  12.856   4.999  11.097 -1.1918  0.5289 -0.1267
  169MOL0     O22223  12.609   4.739  10.989  0.5285  0.1593 -0.4770
  169MOL0     C22224  12.476   4.713  10.754 -0.2421 -0.2658 -0.2260
  169MOL0     C22225  12.396   4.706  10.638  0.2834  0.2568  0.3537
  169MOL0     N22226  11.853   4.571  10.043  0.9888  0.3661  0.3987
  169MOL0     N22227  11.738   4.496  10.031  0.2460  0.4145 -0.2766
  169MOL0     C22228  11.033   3.639   9.745 -0.3708 -0.5240 -1.2506
  169MOL0     C22229  10.950   3.526   9.760  0.3754 -0.3222 -0.2510
  169MOL0     C22230  10.760   3.121   9.594  0.4859  0.8878 -0.1094
  169MOL0     C22231  10.753   3.011   9.505  0.0370  0.2323 -0.1307
  169MOL0     C22232  10.629   2.954   9.473  0.4624  1.5419 -0.6918
  169MOL0     C22233  10.524   2.998   9.549 -0.3402  0.7203 -0.0919
  169MOL0     O22234  10.389   2.955   9.526 -0.0200  0.5982  0.6309
  169MOL0     C22235  10.360   2.861   9.425 -0.3902  0.1617 -0.5749
  169MOL0     C22236  10.225   2.806   9.434 -0.6254  0.5733 -0.2770
  169MOL0     C22237  10.107   2.899   9.450 -1.1960 -0.5285 -0.6194
  169MOL0     C22238   9.975   2.831   9.439 -0.0077 -0.6926 -0.0212
  169MOL0     C22239   9.932   2.774   9.316  0.1089 -0.8090  1.3105
  169MOL0     C22240   9.879   2.755   9.209  0.1286  0.2626  0.0131
  169MOL0     C22241  10.526   3.099   9.637  1.1110 -0.1287 -0.4252
  169MOL0     C22242  10.644   3.163   9.665  0.2998 -0.0347  0.4600
  169MOL0     H22243  11.111   3.344   9.518  2.9491  1.7982 -1.3987
  169MOL0     H22244  11.259   3.533   9.523 -0.7872 -1.1540 -0.8881
  169MOL0     H22245  11.132   3.927   9.727  0.0420  0.0506 -1.6972
  169MOL0     H22246  11.286   3.944   9.672 -1.4784  1.0099 -1.0653
  169MOL0     H22247  11.215   3.763   9.929  0.2933  0.1366  1.9102
  169MOL0     H22248  11.277   3.930   9.919  0.8907  0.8586 -1.8848
  169MOL0     H22249  11.471   3.833   9.768  2.6787 -2.9235  0.8449
  169MOL0     H22250  11.448   3.689   9.856  0.6902 -0.9022 -0.4281
  169MOL0     H22251  11.423   3.873  10.066 -2.0212 -1.5560 -1.0538
  169MOL0     H22252  11.567   3.782  10.007  0.7950  0.8318 -0.4762
  169MOL0     H22253  11.499   4.058   9.888  1.0242 -2.1794 -3.0741
  169MOL0     H22254  11.647   3.972   9.885 -0.5642 -1.1615 -1.5206
  169MOL0     H22255  11.641   4.018  10.152  0.6126  2.2664  0.6709
  169MOL0     H22256  11.483   4.094  10.129 -1.1123  0.6228 -1.8261
  169MOL0     H22257  11.760   4.175  10.062  0.0337 -1.2330  2.1665
  169MOL0     H22258  11.631   4.248   9.964  0.0345  1.1458  0.2686
  169MOL0     H22259  11.633   4.279  10.272 -1.7355 -0.1238  1.0909
  169MOL0     H22260  11.529   4.352  10.146  1.0332  1.5190  0.4967
  169MOL0     H22261  11.807   4.431  10.341 -3.1014  0.1441  0.9078
  169MOL0     H22262  11.986   4.662  10.345  2.2972 -0.2288 -0.3956
  169MOL0     H22263  11.973   4.742  10.192  0.7213  2.5730  3.3005
  169MOL0     H22264  12.127   4.592  10.081 -1.5435 -0.7124 -0.5642
  169MOL0     H22265  12.139   4.483  10.209 -3.6446 -0.2332 -0.1649
  169MOL0     H22266  12.337   4.651  10.182  0.3693 -3.4170  2.5451
  169MOL0     H22267  12.224   4.782  10.204  0.2512 -0.5290 -3.1838
  169MOL0     H22268  12.319   4.583  10.417 -1.0944  0.5139  1.9023
  169MOL0     H22269  12.189   4.691  10.446  0.0186  2.7658  0.5060
  169MOL0     H22270  12.577   4.928  10.450 -0.9592  1.2568  1.5967
  169MOL0     H22271  12.712   4.927  10.654  1.6298 -2.9704  0.0228
  169MOL0     H22272  12.903   4.678  11.001 -2.3693  1.0735 -0.8564
  169MOL0     H22273  13.042   4.679  11.209  1.8505  0.9606 -0.9321
  169MOL0     H22274  13.066   5.063  11.474 -0.4104  1.6402 -1.8456
  169MOL0     H22275  13.186   5.066  11.338  0.9662  0.5165  0.9221
  169MOL0     H22276  13.338   4.923  11.445 -0.4079  0.2032 -2.1046
  169MOL0     H22277  13.238   4.917  11.590  3.6235 -1.2225  0.5890
  169MOL0     H22278  13.255   5.164  11.610  0.0568  0.1528  0.9247
  169MOL0     H22279  13.345   5.166  11.460 -1.9043  2.6391  1.5624
  169MOL0     H22280  13.453   5.012  11.710  1.0567  0.9709  0.4762
  169MOL0     H22281  13.524   5.031  11.552  0.0193  1.1305 -0.0632
  169MOL0     H22282  13.464   5.243  11.765  1.8779  1.0229  1.1136
  169MOL0     H22283  13.514   5.294  11.606  2.0141 -0.5205 -0.4558
  169MOL0     H22284  13.706   5.176  11.592 -1.3708  3.0236 -0.6476
  169MOL0     H22285  13.691   5.121  11.778  2.5380  3.9573  2.9195
  169MOL0     H22286  13.718   5.407  11.693  0.0393 -1.5253 -2.4317
  169MOL0     H22287  13.706   5.333  11.852  0.0062 -3.2651  0.5393
  169MOL0     H22288  13.943   5.236  11.830  0.5176  2.2762  1.9074
  169MOL0     H22289  13.942   5.407  11.806  0.8792 -1.0062  2.0934
  169MOL0     H22290  12.938   5.099  11.278  0.6637 -0.8128  0.7339
  169MOL0     H22291  12.784   5.078  11.077  0.6509  2.7496  1.4890
  169MOL0     H22292  12.448   4.640  10.829  2.9393 -0.2854  1.1037
  169MOL0     H22293  12.305   4.647  10.642 -0.9323  2.1198  3.4064
  169MOL0     H22294  10.990   3.724   9.797  0.7666 -0.4164 -0.4279
  169MOL0     H22295  10.870   3.527   9.832 -2.0802 -2.1821 -2.7442
  169MOL0     H22296  10.828   2.973   9.437  0.5083 -1.0341  1.0529
  169MOL0     H22297  10.639   2.869   9.407 -2.4761  0.1525  0.4354
  169MOL0     H22298  10.436   2.782   9.418 -1.5710 -1.0570 -0.0834
  169MOL0     H22299  10.364   2.918   9.332  0.5644  0.0862 -0.5946
  169MOL0     H22300  10.209   2.766   9.334 -0.7719 -0.4603  0.1492
  169MOL0     H22301  10.229   2.719   9.499  3.6296  0.1526 -0.8384
  169MOL0     H22302  10.128   2.988   9.389 -1.3681  1.1392  1.6116
  169MOL0     H22303  10.109   2.943   9.550 -0.6103  1.4243 -1.4323
  169MOL0     H22304   9.950   2.778   9.532 -3.1488  1.4454  0.5124
  169MOL0     H22305   9.899   2.907   9.457 -2.1175 -2.9821  1.5229
  169MOL0     H22306   9.824   2.734   9.120 -0.0557  0.7808 -0.0012
  169MOL0     H22307  10.438   3.137   9.688 -1.0847 -4.1135 -0.8475
  169MOL0     H22308  10.641   3.247   9.735 -2.5495  1.0422 -0.7863
  170MOL0     O22309   8.431  11.288   6.247  0.1971 -0.6916 -0.0148
  170MOL0     C22310   8.535  11.334   6.294  0.6709 -0.3084 -0.6876
  170MOL0     O22311   8.644  11.369   6.218  0.7439 -0.7668 -0.5448
  170MOL0     C22312   8.651  11.363   6.083  0.5007  0.1987  1.0232
  170MOL0     C22313   8.542  11.365   6.001  0.2677  0.6792 -0.9980
  170MOL0     C22314   8.536  11.356   5.865 -0.0013 -0.5650  0.1035
  170MOL0     C22315   8.653  11.361   5.795 -0.1643  0.5378  0.7778
  170MOL0     O22316   8.654  11.372   5.659 -0.3901  0.1199  0.3109
  170MOL0     C22317   8.542  11.324   5.580 -0.2030  0.5925  0.7574
  170MOL0     C22318   8.447  11.443   5.565  0.0829 -0.2605 -0.4461
  170MOL0     C22319   8.314  11.389   5.496 -0.2464 -0.0161 -0.0046
  170MOL0     C22320   8.191  11.482   5.495 -0.4206  0.5453  0.5377
  170MOL0     C22321   8.196  11.618   5.409 -0.2933 -0.0694 -0.5508
  170MOL0     C22322   8.075  11.703   5.415 -0.5640 -0.8922 -0.4558
  170MOL0     C22323   8.052  11.803   5.295  1.0888 -0.3440 -0.3870
  170MOL0     C22324   8.170  11.878   5.238 -0.2487  0.4378 -1.0794
  170MOL0     N22325   8.137  11.984   5.144 -0.3126  0.6125 -0.2813
  170MOL0     C22326   8.079  11.969   5.015  0.9037 -0.5960  0.1492
  170MOL0     C22327   8.063  12.090   4.964 -0.5391 -0.1885  0.1801
  170MOL0     C22328   8.012  12.120   4.831  0.0560 -0.0644  0.0213
  170MOL0     C22329   7.879  12.181   4.818 -0.0455 -0.1819 -0.1099
  170MOL0     C22330   7.841  12.219   4.663 -0.0700 -0.3305  0.2473
  170MOL0     C22331   7.701  12.286   4.648 -0.6126 -0.5748 -0.8699
  170MOL0     O22332   7.669  12.297   4.513 -0.7274 -0.5065 -0.4471
  170MOL0     C22333   7.563  12.376   4.477 -0.0895 -0.0695 -0.8333
  170MOL0     C22334   7.533  12.372   4.342  0.5798  0.3621  0.0162
  170MOL0     C22335   7.408  12.424   4.297 -0.3802 -0.8112 -0.1746
  170MOL0     C22336   7.316  12.478   4.384 -0.2356  0.6126 -0.4718
  170MOL0     C22337   7.199  12.544   4.326  0.4413 -1.0903 -0.1899
  170MOL0     O22338   7.144  12.639   4.411 -0.3265  0.5413 -0.1045
  170MOL0     C22339   7.018  12.685   4.387 -0.7086 -0.0328  0.9037
  170MOL0     C22340   6.912  12.623   4.310 -0.7938 -0.9943  0.1591
  170MOL0     C22341   6.789  12.694   4.300 -0.7248 -0.4064 -0.6132
  170MOL0     C22342   6.768  12.822   4.357  1.1941  0.1773  0.0530
  170MOL0     O22343   6.655  12.901   4.341 -0.0966 -0.4008 -0.7020
  170MOL0     C22344   6.531  12.832   4.341  0.3042 -0.2265  0.4266
  170MOL0     C22345   6.478  12.799   4.200 -0.3150 -0.5595  0.4725
  170MOL0     C22346   6.417  12.657   4.199 -0.0446 -0.1752  0.7258
  170MOL0     C22347   6.331  12.630   4.071 -0.4343 -0.0688 -0.8454
  170MOL0     C22348   6.266  12.492   4.064 -0.5021  0.3733 -0.2861
  170MOL0     C22349   6.156  12.463   4.158  0.2860  0.2273  0.0278
  170MOL0     C22350   6.066  12.357   4.101 -0.5199  0.0134 -0.2053
  170MOL0     C22351   5.956  12.326   4.196 -0.5916  0.6543 -1.1331
  170MOL0    Cl22352   6.011  12.271   4.367 -0.4560  0.2486 -0.0393
  170MOL0     C22353   6.873  12.872   4.431  0.6169  0.1117 -0.2009
  170MOL0     C22354   6.996  12.810   4.440  0.3925  0.5701  0.3155
  170MOL0     O22355   7.154  12.517   4.214 -0.8963 -1.2785  0.5595
  170MOL0     C22356   7.360  12.492   4.520 -0.2178 -1.5120  0.5664
  170MOL0     C22357   7.486  12.451   4.569 -0.2594  1.3827  0.6814
  170MOL0     N22358   8.097  12.183   5.068 -0.2868  0.2250 -0.4253
  170MOL0     N22359   8.150  12.114   5.171  0.2163  0.9379  0.5256
  170MOL0     C22360   8.781  11.361   5.860  0.9526 -0.1417  0.3797
  170MOL0     C22361   8.774  11.358   6.012 -0.3455 -1.0186 -0.2489
  170MOL0     C22362   8.556  11.322   6.440 -0.2722 -0.2498 -0.4603
  170MOL0     C22363   8.468  11.237   6.508 -1.1452  0.8207  0.3294
  170MOL0     C22364   8.473  11.228   6.646 -0.3800  0.1055 -0.4600
  170MOL0     C22365   8.567  11.304   6.726 -0.3969  0.6023 -0.2182
  170MOL0     O22366   8.564  11.285   6.863  0.5901 -0.0394  0.1728
  170MOL0     C22367   8.688  11.245   6.927 -0.4813 -0.9182 -0.1453
  170MOL0     C22368   8.716  11.102   6.909 -0.3857  0.6899 -0.0074
  170MOL0     C22369   8.595  11.017   6.978 -0.1537 -0.0469  0.3894
  170MOL0     C22370   8.548  10.889   6.892  0.4058  0.5226 -0.8347
  170MOL0     C22371   8.647  10.787   6.885 -0.3961  0.5434  0.2120
  170MOL0     C22372   8.744  10.708   6.899  0.0493 -1.1007 -0.6717
  170MOL0     C22373   8.652  11.385   6.653 -0.1839 -0.2049  0.4853
  170MOL0     C22374   8.640  11.411   6.516  0.2062 -0.0861 -0.2404
  170MOL0     H22375   8.443  11.384   6.041  0.3212 -2.0219  0.7237
  170MOL0     H22376   8.441  11.362   5.813 -1.5684 -2.2420  2.5716
  170MOL0     H22377   8.482  11.238   5.611  0.5943  0.4862  2.0720
  170MOL0     H22378   8.582  11.311   5.479 -0.8892  1.0009  0.4274
  170MOL0     H22379   8.501  11.515   5.503  0.5285  1.7975  2.1377
  170MOL0     H22380   8.434  11.501   5.657  0.9893  0.6068 -0.8467
  170MOL0     H22381   8.277  11.295   5.538 -0.5055 -1.1192 -2.4889
  170MOL0     H22382   8.333  11.362   5.391 -2.1710 -0.5115 -0.2603
  170MOL0     H22383   8.099  11.429   5.468 -1.2108  2.1401 -0.0149
  170MOL0     H22384   8.174  11.514   5.598 -0.0530  3.5309 -0.2427
  170MOL0     H22385   8.211  11.601   5.302  2.5415 -1.3037 -0.0446
  170MOL0     H22386   8.284  11.667   5.452 -0.9022 -2.2264  3.6228
  170MOL0     H22387   8.079  11.764   5.506  2.7415  0.6370 -1.4749
  170MOL0     H22388   7.986  11.640   5.402 -1.2168 -0.0752 -0.0543
  170MOL0     H22389   8.019  11.747   5.208 -2.4475  2.0111 -0.7519
  170MOL0     H22390   7.968  11.870   5.314 -1.0493 -2.1292 -2.8707
  170MOL0     H22391   8.235  11.807   5.187  2.3539  1.3492  0.7428
  170MOL0     H22392   8.229  11.910   5.325  0.8653 -0.8260 -1.3405
  170MOL0     H22393   8.053  11.874   4.968 -4.1099 -1.4923  3.9119
  170MOL0     H22394   8.016  12.050   4.747  0.5695  0.3420 -0.2989
  170MOL0     H22395   8.074  12.203   4.797 -1.5178  1.6384  1.1678
  170MOL0     H22396   7.878  12.273   4.878  3.6669 -0.6136  0.8255
  170MOL0     H22397   7.801  12.113   4.852  2.4465 -1.8531  2.7337
  170MOL0     H22398   7.917  12.287   4.623  0.7195  0.1945  2.4757
  170MOL0     H22399   7.842  12.131   4.597  2.2129 -0.4403  0.3740
  170MOL0     H22400   7.717  12.386   4.689  1.0117 -1.7722  1.6535
  170MOL0     H22401   7.621  12.231   4.700  0.3715  1.6627  3.4878
  170MOL0     H22402   7.602  12.317   4.279 -0.6197  3.7160 -4.8069
  170MOL0     H22403   7.379  12.432   4.193 -1.2238  1.6121  0.1954
  170MOL0     H22404   6.927  12.528   4.260 -0.1609  0.0637 -1.7536
  170MOL0     H22405   6.709  12.668   4.231 -1.3509 -0.3292  0.0711
  170MOL0     H22406   6.457  12.893   4.394  0.9731 -1.4977  2.9931
  170MOL0     H22407   6.537  12.747   4.409 -2.3570 -0.4299  0.5021
  170MOL0     H22408   6.556  12.802   4.124  0.9679 -0.0213  1.7709
  170MOL0     H22409   6.411  12.882   4.175 -2.0297 -0.7665  3.8106
  170MOL0     H22410   6.364  12.640   4.293 -1.2261  1.0416  0.3066
  170MOL0     H22411   6.500  12.586   4.201  1.0727  0.9042 -2.1823
  170MOL0     H22412   6.256  12.708   4.081  2.2972  2.7599 -0.9263
  170MOL0     H22413   6.396  12.663   3.989  2.6483  2.1791  2.2313
  170MOL0     H22414   6.355  12.431   4.083 -0.0597  1.4398  1.3202
  170MOL0     H22415   6.228  12.485   3.962  1.0481  2.4802 -1.1051
  170MOL0     H22416   6.092  12.551   4.162  1.4091  1.2416 -2.3140
  170MOL0     H22417   6.188  12.429   4.257 -2.3504 -0.3138  0.7690
  170MOL0     H22418   6.024  12.400   4.010  0.0539  1.1373  0.0474
  170MOL0     H22419   6.121  12.263   4.090 -0.2050  0.0553  0.8770
  170MOL0     H22420   5.911  12.244   4.139  0.0224 -0.3615 -0.1782
  170MOL0     H22421   5.888  12.412   4.197 -2.9628 -1.1095 -0.2701
  170MOL0     H22422   6.852  12.967   4.480 -2.5067 -1.3285  1.5327
  170MOL0     H22423   7.070  12.857   4.505 -0.6621  2.7354  0.0498
  170MOL0     H22424   7.304  12.543   4.597 -0.5021  0.0658 -0.6306
  170MOL0     H22425   7.495  12.455   4.677 -1.1804  0.9235  0.7875
  170MOL0     H22426   8.872  11.363   5.801 -1.4253  2.5208 -3.6253
  170MOL0     H22427   8.869  11.366   6.064 -0.7749 -1.5300  0.6305
  170MOL0     H22428   8.400  11.167   6.462  0.0361  1.2902 -2.2962
  170MOL0     H22429   8.404  11.153   6.684 -0.2870  0.0505 -0.4014
  170MOL0     H22430   8.674  11.274   7.031 -2.0302  1.5179 -0.9482
  170MOL0     H22431   8.773  11.304   6.890 -0.9104 -0.9081 -1.1612
  170MOL0     H22432   8.713  11.087   6.800 -1.0978  2.7437 -0.3159
  170MOL0     H22433   8.808  11.086   6.965 -1.7565 -0.0613  2.1351
  170MOL0     H22434   8.505  11.078   6.988  0.0493  0.8553 -2.3985
  170MOL0     H22435   8.626  10.989   7.079 -1.9110 -0.1229  0.9246
  170MOL0     H22436   8.468  10.847   6.953  1.1999 -1.0544 -0.8378
  170MOL0     H22437   8.506  10.936   6.803 -0.0456  0.9434 -0.4061
  170MOL0     H22438   8.813  10.626   6.908  0.7547 -0.4271  0.3453
  170MOL0     H22439   8.719  11.454   6.705 -0.4989 -1.1781  2.2942
  170MOL0     H22440   8.687  11.496   6.469 -0.3242  1.2826  1.5925
  171MOL0     O22441   9.884   6.734   5.477  0.5526 -0.1068  0.0628
  171MOL0     C22442   9.784   6.790   5.515  0.7746 -0.2306  0.8554
  171MOL0     O22443   9.747   6.816   5.641  0.2709 -0.4249  0.3567
  171MOL0     C22444   9.822   6.778   5.746  0.5201  0.5802 -0.5572
  171MOL0     C22445   9.780   6.691   5.840 -1.6056  0.0266 -0.5122
  171MOL0     C22446   9.852   6.641   5.943  0.0002  0.0450  0.4808
  171MOL0     C22447   9.983   6.685   5.958  0.5450  0.2810 -0.1575
  171MOL0     O22448  10.051   6.629   6.065  0.1780  0.4605  1.0431
  171MOL0     C22449  10.194   6.615   6.058  0.0118  0.0457 -0.4129
  171MOL0     C22450  10.248   6.522   6.167 -0.2368 -0.3132  0.4176
  171MOL0     C22451  10.193   6.381   6.144  0.7833  0.3431 -0.0403
  171MOL0     C22452  10.219   6.294   6.269 -0.2478  0.6697 -0.2943
  171MOL0     C22453  10.226   6.143   6.244  0.5945 -0.6755  0.3135
  171MOL0     C22454  10.334   6.111   6.145 -0.6331  1.6548  0.6189
  171MOL0     C22455  10.341   5.967   6.122 -0.2777  0.6827  0.6737
  171MOL0     C22456  10.454   5.928   6.024  0.7840  0.4767 -0.2764
  171MOL0     N22457  10.450   5.785   5.980 -0.1788  0.0594 -0.0440
  171MOL0     C22458  10.377   5.735   5.878 -0.0076 -0.5720  0.4922
  171MOL0     C22459  10.394   5.600   5.875 -0.1658  0.4117 -0.7475
  171MOL0     C22460  10.328   5.503   5.785 -0.0179 -0.0268 -0.1585
  171MOL0     C22461  10.203   5.421   5.830 -0.1238 -0.7448  0.8252
  171MOL0     C22462  10.189   5.298   5.740 -0.3081  0.4553  0.1436
  171MOL0     C22463  10.099   5.338   5.614 -0.1000  0.1174  0.3473
  171MOL0     O22464   9.968   5.350   5.675 -0.0662  0.0160  0.2567
  171MOL0     C22465   9.870   5.397   5.588  0.5782 -0.5299  0.9274
  171MOL0     C22466   9.890   5.430   5.451  0.6356 -0.3808  0.0788
  171MOL0     C22467   9.788   5.452   5.361  0.0301 -0.0191 -0.1263
  171MOL0     C22468   9.654   5.460   5.414 -0.1048 -0.8888 -0.0831
  171MOL0     C22469   9.540   5.486   5.324  0.0896 -0.0706  0.2599
  171MOL0     O22470   9.415   5.488   5.383 -0.4161 -0.4583 -0.9075
  171MOL0     C22471   9.311   5.523   5.304 -0.5848  0.4427 -0.3209
  171MOL0     C22472   9.224   5.611   5.352  0.4410 -0.0910  0.4970
  171MOL0     C22473   9.120   5.663   5.270 -0.7498  0.0787 -0.2006
  171MOL0     C22474   9.105   5.622   5.143  0.7945  0.5022  0.3453
  171MOL0     O22475   9.017   5.690   5.055 -0.4023  1.0699  0.0843
  171MOL0     C22476   8.891   5.736   5.105 -0.3119 -0.0017 -0.6448
  171MOL0     C22477   8.776   5.728   5.003 -0.3747  0.9312  0.3982
  171MOL0     C22478   8.790   5.826   4.888 -0.5406 -0.3105 -0.0728
  171MOL0     C22479   8.746   5.971   4.933  0.4056 -0.0971  0.4491
  171MOL0     C22480   8.755   6.067   4.818  0.0616  0.0315 -0.0817
  171MOL0     C22481   8.753   6.209   4.876 -0.1283  0.5009 -0.9854
  171MOL0     C22482   8.613   6.240   4.941 -0.1899 -0.0554 -0.4412
  171MOL0     C22483   8.596   6.394   4.957 -0.0921 -0.9957 -0.4705
  171MOL0    Cl22484   8.437   6.435   5.036 -0.1789 -0.6814 -0.1870
  171MOL0     C22485   9.187   5.529   5.096 -0.1055 -0.2155 -0.4374
  171MOL0     C22486   9.286   5.472   5.178  1.2513 -0.0988  0.6396
  171MOL0     O22487   9.564   5.501   5.204  0.6448  0.4150 -0.2249
  171MOL0     C22488   9.630   5.438   5.548 -0.5138  0.5813 -1.1771
  171MOL0     C22489   9.742   5.398   5.636 -0.0518 -0.8076  0.8020
  171MOL0     N22490  10.475   5.574   5.986  0.7195 -0.5026  1.1298
  171MOL0     N22491  10.508   5.685   6.046  0.1620 -0.6565 -0.2025
  171MOL0     C22492  10.037   6.781   5.865  0.1541 -0.4510 -0.3257
  171MOL0     C22493   9.951   6.828   5.766  0.1186  0.4068  0.6553
  171MOL0     C22494   9.689   6.835   5.404  0.3320 -1.2895 -0.3276
  171MOL0     C22495   9.562   6.901   5.427 -0.1682 -0.1436 -0.0307
  171MOL0     C22496   9.486   6.953   5.322 -0.2615 -0.5481 -0.7856
  171MOL0     C22497   9.531   6.938   5.192  0.0354  0.2688 -0.7217
  171MOL0     O22498   9.449   6.989   5.091  0.3730 -0.0217  0.6929
  171MOL0     C22499   9.481   6.963   4.953  1.1791  0.3532 -0.9516
  171MOL0     C22500   9.365   7.032   4.875  0.8564 -0.2981  0.5636
  171MOL0     C22501   9.366   7.180   4.856  0.1760 -0.1356 -0.5080
  171MOL0     C22502   9.255   7.223   4.758 -0.3493 -0.3431 -0.2756
  171MOL0     C22503   9.131   7.208   4.833 -0.1889  0.0957  0.2627
  171MOL0     C22504   9.031   7.209   4.906  0.0444 -1.2305  0.1649
  171MOL0     C22505   9.661   6.886   5.168 -0.3067  1.1953  0.0757
  171MOL0     C22506   9.741   6.832   5.270  0.4044  0.1374 -0.1682
  171MOL0     H22507   9.673   6.675   5.846 -1.5294 -0.5461 -0.6105
  171MOL0     H22508   9.796   6.572   6.006  2.2906  0.0488  2.7039
  171MOL0     H22509  10.228   6.719   6.057  0.5735 -0.1085  0.7660
  171MOL0     H22510  10.207   6.575   5.956 -0.5148 -1.9241  0.2474
  171MOL0     H22511  10.209   6.561   6.262  0.6947 -0.2650  0.7953
  171MOL0     H22512  10.357   6.515   6.158 -0.2740 -1.3761  0.6296
  171MOL0     H22513  10.246   6.342   6.057 -1.2789  0.7005 -1.5533
  171MOL0     H22514  10.083   6.381   6.140  0.2308 -2.2530  5.6748
  171MOL0     H22515  10.318   6.314   6.311  1.4245 -2.9459 -2.0321
  171MOL0     H22516  10.144   6.316   6.345 -1.4429 -1.2269 -0.8586
  171MOL0     H22517  10.129   6.102   6.213  0.6975 -0.7536  0.0942
  171MOL0     H22518  10.243   6.098   6.343  1.9083 -1.5821 -0.2980
  171MOL0     H22519  10.432   6.138   6.186 -0.4561 -0.2444  1.5688
  171MOL0     H22520  10.323   6.166   6.051  0.2586  0.8840  0.0463
  171MOL0     H22521  10.351   5.907   6.214  2.1194 -0.7228 -0.4136
  171MOL0     H22522  10.245   5.934   6.081  1.2823 -0.5927 -2.2153
  171MOL0     H22523  10.554   5.957   6.058  0.2238  0.2150  1.7441
  171MOL0     H22524  10.431   5.985   5.933  0.2527 -0.1610 -0.5460
  171MOL0     H22525  10.331   5.788   5.795 -0.7120 -1.2312  0.4589
  171MOL0     H22526  10.408   5.435   5.754  2.4574  1.4535  2.4383
  171MOL0     H22527  10.290   5.553   5.695 -0.2118 -1.4086 -0.8682
  171MOL0     H22528  10.123   5.494   5.820  1.0964  0.7930  1.7572
  171MOL0     H22529  10.207   5.398   5.937 -1.8619 -0.8978  0.8891
  171MOL0     H22530  10.282   5.256   5.701 -1.8678 -2.4445 -0.7586
  171MOL0     H22531  10.140   5.214   5.791 -0.1821 -0.4960 -1.2376
  171MOL0     H22532  10.099   5.258   5.540  0.8238 -1.7946  2.3181
  171MOL0     H22533  10.138   5.431   5.571  2.5103 -1.5672 -1.1194
  171MOL0     H22534   9.993   5.439   5.419  1.3355 -0.5855  2.1356
  171MOL0     H22535   9.803   5.497   5.263  0.5174  0.6527  0.2509
  171MOL0     H22536   9.228   5.645   5.455 -1.1205 -2.7544  1.5340
  171MOL0     H22537   9.055   5.735   5.319 -2.5390 -0.0748 -2.1557
  171MOL0     H22538   8.891   5.842   5.133  2.0262  0.0809 -0.7793
  171MOL0     H22539   8.846   5.687   5.192 -2.5970  2.8590 -0.0469
  171MOL0     H22540   8.679   5.740   5.053 -1.4053  0.8740 -1.4905
  171MOL0     H22541   8.781   5.629   4.957  0.8026 -0.1195  2.6349
  171MOL0     H22542   8.718   5.790   4.813 -0.1361 -2.1262  0.3681
  171MOL0     H22543   8.893   5.837   4.852 -1.5708  1.4634 -2.8843
  171MOL0     H22544   8.639   5.965   4.954  0.5618 -1.0585  1.0412
  171MOL0     H22545   8.806   6.002   5.020  3.2274 -2.3682 -0.5450
  171MOL0     H22546   8.671   6.053   4.750  0.5260 -3.0845 -0.1594
  171MOL0     H22547   8.843   6.058   4.753  0.5845 -0.4597  0.6763
  171MOL0     H22548   8.768   6.267   4.784  2.4498 -0.0048 -0.9487
  171MOL0     H22549   8.834   6.222   4.949  2.5869 -0.8319 -3.5472
  171MOL0     H22550   8.538   6.201   4.871 -1.3063 -1.4722  1.4562
  171MOL0     H22551   8.597   6.195   5.039 -2.0639  0.3227 -0.5251
  171MOL0     H22552   8.605   6.447   4.862  0.0919  1.5957  0.9086
  171MOL0     H22553   8.676   6.429   5.022 -0.4735 -0.5036 -0.2589
  171MOL0     H22554   9.175   5.495   4.993 -0.1766 -0.9390 -0.2001
  171MOL0     H22555   9.351   5.409   5.118 -0.6184  0.4391 -2.1240
  171MOL0     H22556   9.528   5.430   5.584  0.6452  1.1961  2.6419
  171MOL0     H22557   9.711   5.370   5.736  0.5867  1.7829  1.8130
  171MOL0     H22558  10.137   6.822   5.861 -0.8796  2.1503 -2.4913
  171MOL0     H22559  10.005   6.900   5.705  0.3813 -1.8194 -1.9656
  171MOL0     H22560   9.528   6.912   5.530 -0.9226  3.0876 -0.5051
  171MOL0     H22561   9.391   7.003   5.338 -0.4074 -0.3842 -2.0408
  171MOL0     H22562   9.480   6.858   4.923 -1.2281  0.3183 -0.9417
  171MOL0     H22563   9.579   7.003   4.924  0.6001  0.9934 -2.1125
  171MOL0     H22564   9.355   6.991   4.774  2.3212 -0.0368  0.2809
  171MOL0     H22565   9.276   7.016   4.935  2.2491 -0.6026  2.6659
  171MOL0     H22566   9.462   7.202   4.809 -0.0670  2.7906  0.1679
  171MOL0     H22567   9.365   7.234   4.951  0.3712  0.7551 -0.9960
  171MOL0     H22568   9.267   7.328   4.729  1.9091  0.3983  2.8171
  171MOL0     H22569   9.254   7.168   4.663  2.0848  1.9373 -1.7732
  171MOL0     H22570   8.939   7.204   4.962 -0.1731  1.4017  0.1596
  171MOL0     H22571   9.699   6.877   5.067  1.5453 -1.2671  0.8934
  171MOL0     H22572   9.837   6.791   5.242 -1.2624 -2.8650 -1.9965
  172MOL0     O22573   1.309   9.465   6.485 -0.0287  0.5219  0.2937
  172MOL0     C22574   1.358   9.358   6.518  0.7537 -0.1487  0.1471
  172MOL0     O22575   1.294   9.261   6.579 -0.1945  0.3108 -1.0294
  172MOL0     C22576   1.171   9.287   6.632  0.7023 -0.3616  0.1492
  172MOL0     C22577   1.139   9.380   6.731 -0.5326 -0.5242  0.7824
  172MOL0     C22578   1.008   9.400   6.784 -0.2161  0.7653  0.1051
  172MOL0     C22579   0.903   9.319   6.742  0.5001 -0.5706 -0.0026
  172MOL0     O22580   0.785   9.326   6.812  0.6260  0.0737 -0.0168
  172MOL0     C22581   0.798   9.232   6.925  0.3658 -0.6621 -0.6587
  172MOL0     C22582   0.659   9.182   6.960 -0.2698 -0.3203  1.2592
  172MOL0     C22583   0.634   9.062   6.867  0.9079  0.5984 -0.1325
  172MOL0     C22584   0.489   8.991   6.878  0.0654  1.1448  0.8937
  172MOL0     C22585   0.456   8.974   7.035 -0.2104 -0.4584 -0.1230
  172MOL0     C22586   0.317   8.896   7.042  1.0458 -0.1946 -0.1181
  172MOL0     C22587   0.189   8.963   6.974 -0.7498  0.5008  0.1952
  172MOL0     C22588   0.146   9.101   7.020 -0.1632  1.6740  0.9826
  172MOL0     N22589  -0.001   9.113   6.991 -0.0744 -0.4363  0.4053
  172MOL0     C22590  -0.100   9.055   7.077 -1.2387  0.0891  0.8868
  172MOL0     C22591  -0.224   9.097   7.028 -0.3362  0.4458 -1.0102
  172MOL0     C22592  -0.359   9.061   7.075 -0.0243  0.2285 -0.3601
  172MOL0     C22593  -0.364   8.927   7.133 -0.5886 -0.3605 -0.8426
  172MOL0     C22594  -0.506   8.860   7.129  0.1955 -0.1987 -0.1862
  172MOL0     C22595  -0.602   8.951   7.207 -0.2847  1.5608  0.1891
  172MOL0     O22596  -0.747   8.899   7.217 -1.0096 -0.1419 -0.2193
  172MOL0     C22597  -0.848   8.990   7.228  0.1655 -0.2103 -0.2972
  172MOL0     C22598  -0.980   8.939   7.205 -0.1596 -0.3441  0.3537
  172MOL0     C22599  -1.091   9.027   7.194 -0.4316  0.3630  0.6081
  172MOL0     C22600  -1.084   9.157   7.240 -0.7606 -0.6528 -1.6236
  172MOL0     C22601  -1.207   9.242   7.233 -0.6553  0.5812  0.4060
  172MOL0     O22602  -1.316   9.182   7.185  0.1074  0.2525  0.2787
  172MOL0     C22603  -1.435   9.238   7.182 -0.2386  0.7562  0.2906
  172MOL0     C22604  -1.467   9.379   7.169  1.3404 -0.0225 -0.0166
  172MOL0     C22605  -1.595   9.423   7.183  0.5733  0.5903  0.1030
  172MOL0     C22606  -1.698   9.330   7.208  0.6747 -0.0906 -0.3522
  172MOL0     O22607  -1.828   9.368   7.233  0.4715 -0.7456  0.6599
  172MOL0     C22608  -1.857   9.504   7.286  0.6195 -0.2708  0.9591
  172MOL0     C22609  -2.004   9.495   7.325 -0.0135  0.7315 -1.2379
  172MOL0     C22610  -2.052   9.626   7.406  0.0972  0.3685  0.0256
  172MOL0     C22611  -2.207   9.609   7.416  0.1905  0.1467 -0.1575
  172MOL0     C22612  -2.282   9.733   7.459 -1.1086  0.9334 -0.5474
  172MOL0     C22613  -2.276   9.838   7.349 -0.1264  0.4514  0.4732
  172MOL0     C22614  -2.348   9.972   7.390 -0.1803 -0.3787  0.1219
  172MOL0     C22615  -2.373  10.063   7.266 -0.2446  1.7237  0.3452
  172MOL0    Cl22616  -2.495  10.170   7.290 -0.2896 -0.0464 -0.4032
  172MOL0     C22617  -1.668   9.193   7.208  0.1922 -0.7395  0.2662
  172MOL0     C22618  -1.537   9.151   7.197  0.8133 -0.0919 -0.7487
  172MOL0     O22619  -1.188   9.358   7.247  0.4368  0.0276  0.3081
  172MOL0     C22620  -0.958   9.205   7.274 -0.4368 -0.7324 -0.5154
  172MOL0     C22621  -0.840   9.125   7.262 -0.7068  0.4846 -0.7096
  172MOL0     N22622  -0.197   9.172   6.916  0.2854 -0.7342 -0.1571
  172MOL0     N22623  -0.070   9.184   6.893 -0.2522  0.3484  0.1721
  172MOL0     C22624   0.931   9.219   6.646 -0.4701  0.2767 -0.3756
  172MOL0     C22625   1.064   9.203   6.600  0.0771  0.1518  0.0241
  172MOL0     C22626   1.496   9.335   6.476  0.0627 -0.8771  0.6744
  172MOL0     C22627   1.560   9.212   6.506  0.1235 -0.7490  0.6736
  172MOL0     C22628   1.690   9.174   6.466  1.0635 -0.5332  0.3046
  172MOL0     C22629   1.758   9.274   6.400  0.5714  0.3231 -0.2831
  172MOL0     O22630   1.895   9.271   6.400 -0.9118 -0.1229 -0.0202
  172MOL0     C22631   1.979   9.349   6.304  0.0549 -0.1761 -0.2966
  172MOL0     C22632   2.053   9.251   6.206 -0.5317 -0.1121 -0.3941
  172MOL0     C22633   1.997   9.110   6.210  0.2624 -0.3289 -0.2791
  172MOL0     C22634   1.858   9.091   6.146  0.1417 -0.5120  0.2004
  172MOL0     C22635   1.807   8.949   6.160 -0.5613  0.3114  0.0222
  172MOL0     C22636   1.765   8.834   6.170 -0.6748  0.1723  0.3216
  172MOL0     C22637   1.693   9.389   6.350  0.7283  0.1750 -0.6006
  172MOL0     C22638   1.563   9.421   6.393  0.2166 -0.5240 -0.4118
  172MOL0     H22639   1.216   9.449   6.764 -1.4600  1.9482 -1.8356
  172MOL0     H22640   0.987   9.468   6.866 -0.7962 -0.2902  0.8529
  172MOL0     H22641   0.843   9.275   7.015  0.6596  0.8288 -1.4897
  172MOL0     H22642   0.860   9.145   6.901 -2.8403 -4.0394  2.1000
  172MOL0     H22643   0.597   9.272   6.953  1.0852  0.6022  0.5988
  172MOL0     H22644   0.665   9.137   7.060 -0.0416 -0.3380  1.2370
  172MOL0     H22645   0.698   8.987   6.915 -1.9130 -0.6691  1.9048
  172MOL0     H22646   0.673   9.065   6.764  0.5398  1.4551 -0.2547
  172MOL0     H22647   0.416   9.061   6.836 -0.6932  1.3586  2.4741
  172MOL0     H22648   0.491   8.890   6.837 -1.7138  0.1071  3.0663
  172MOL0     H22649   0.452   9.069   7.088 -0.1990  0.3735 -1.5503
  172MOL0     H22650   0.530   8.917   7.091 -3.0746  0.2032  4.8671
  172MOL0     H22651   0.297   8.865   7.145  0.3434 -3.7503 -1.2060
  172MOL0     H22652   0.346   8.806   6.988 -1.5546 -0.8538 -0.5471
  172MOL0     H22653   0.185   8.959   6.865  1.9580  2.2465 -0.0468
  172MOL0     H22654   0.114   8.892   7.010 -0.6565  0.3397  0.0736
  172MOL0     H22655   0.214   9.173   6.972  0.0666 -1.0047 -3.1769
  172MOL0     H22656   0.157   9.092   7.129 -1.0271  2.0462  1.1092
  172MOL0     H22657  -0.079   8.990   7.161  0.0615 -0.2251  0.3552
  172MOL0     H22658  -0.433   9.054   6.995  1.7325 -1.0540 -1.9685
  172MOL0     H22659  -0.398   9.130   7.150  2.2774  2.5202 -1.1390
  172MOL0     H22660  -0.323   8.937   7.234  0.2010  3.5893 -1.3732
  172MOL0     H22661  -0.289   8.867   7.080 -0.2265  0.5817 -1.4286
  172MOL0     H22662  -0.533   8.862   7.023  3.1496 -0.8088 -1.0445
  172MOL0     H22663  -0.517   8.754   7.155 -2.6531 -0.7825 -3.1022
  172MOL0     H22664  -0.605   9.039   7.142  1.8881  1.3670 -0.2492
  172MOL0     H22665  -0.555   8.968   7.304  1.2176  1.0926 -0.4279
  172MOL0     H22666  -0.973   8.836   7.171  0.6520  0.0241 -0.6328
  172MOL0     H22667  -1.179   8.977   7.156 -0.2318 -1.2420  2.1416
  172MOL0     H22668  -1.382   9.444   7.149  0.0478  1.0220 -2.6248
  172MOL0     H22669  -1.633   9.524   7.190 -0.6338  0.0609  2.6723
  172MOL0     H22670  -1.839   9.580   7.210  1.5212 -2.6678 -1.4136
  172MOL0     H22671  -1.792   9.506   7.374  1.5220 -2.8581  0.4648
  172MOL0     H22672  -2.035   9.412   7.389  0.7162 -0.6590 -2.6431
  172MOL0     H22673  -2.068   9.493   7.236 -0.2104 -1.8015 -1.1097
  172MOL0     H22674  -2.014   9.706   7.342  3.5499  1.0669  2.6333
  172MOL0     H22675  -2.000   9.642   7.501 -0.3697  4.3538 -0.2038
  172MOL0     H22676  -2.248   9.590   7.316 -1.5930  3.0733 -0.1325
  172MOL0     H22677  -2.242   9.527   7.480  0.4212  1.7298  2.1466
  172MOL0     H22678  -2.241   9.767   7.555 -0.7352  0.3436 -0.4859
  172MOL0     H22679  -2.385   9.716   7.492 -0.3047  2.2891  3.0993
  172MOL0     H22680  -2.318   9.793   7.259  2.9531 -1.0937 -0.3237
  172MOL0     H22681  -2.180   9.868   7.307 -1.0419 -0.5139 -2.5783
  172MOL0     H22682  -2.442   9.967   7.444  0.3690  3.9325  1.9189
  172MOL0     H22683  -2.284  10.022   7.463 -0.4755 -1.6648  1.2932
  172MOL0     H22684  -2.397   9.993   7.186 -0.2881  1.9303  0.1769
  172MOL0     H22685  -2.282  10.111   7.229 -0.6592  1.8598 -0.5187
  172MOL0     H22686  -1.739   9.124   7.254  0.3228  2.3878  6.1476
  172MOL0     H22687  -1.508   9.047   7.208  0.7648 -0.1907 -1.5029
  172MOL0     H22688  -0.950   9.308   7.308  2.4067 -0.4091 -1.8747
  172MOL0     H22689  -0.745   9.165   7.295 -1.4917  1.8228  0.0075
  172MOL0     H22690   0.847   9.157   6.617  1.0123 -3.3792  2.3176
  172MOL0     H22691   1.092   9.129   6.526 -1.8368 -0.0947 -0.4906
  172MOL0     H22692   1.499   9.141   6.562 -1.0585  0.1505  0.5579
  172MOL0     H22693   1.745   9.082   6.481 -0.9806 -2.1437 -1.3707
  172MOL0     H22694   2.043   9.417   6.361  0.2151  0.9492 -1.7578
  172MOL0     H22695   1.924   9.409   6.230 -3.2300 -2.6875 -0.1116
  172MOL0     H22696   2.048   9.289   6.104  0.4527 -3.2652 -1.7637
  172MOL0     H22697   2.157   9.233   6.236 -0.0931 -1.1846 -2.3559
  172MOL0     H22698   1.997   9.078   6.315  0.6462  2.1175  0.5177
  172MOL0     H22699   2.063   9.048   6.148 -1.7081 -0.3045 -2.4971
  172MOL0     H22700   1.798   9.178   6.175 -1.7864 -1.2790 -1.2119
  172MOL0     H22701   1.874   9.102   6.038 -0.3162 -1.4717  0.0231
  172MOL0     H22702   1.741   8.731   6.185 -1.4679 -0.0857 -2.3640
  172MOL0     H22703   1.744   9.476   6.311  2.2952  0.7678  2.4885
  172MOL0     H22704   1.507   9.511   6.372 -0.0098 -0.5525  0.0533
  173MOL0     O22705   9.044   0.147   2.968  0.3353 -0.3855 -0.0477
  173MOL0     C22706   9.061   0.179   2.848  0.4184 -0.0205 -0.8175
  173MOL0     O22707   8.972   0.240   2.769  0.0378 -0.1202 -0.6361
  173MOL0     C22708   8.840   0.229   2.785 -0.6674  0.1836  0.3201
  173MOL0     C22709   8.759   0.334   2.737  0.2982 -0.7113 -0.0211
  173MOL0     C22710   8.620   0.333   2.751 -0.0381  0.1584  0.1816
  173MOL0     C22711   8.555   0.225   2.818 -0.5331  0.2551  0.2226
  173MOL0     O22712   8.421   0.233   2.832  0.0466  0.4933 -0.4954
  173MOL0     C22713   8.359   0.210   2.958  0.0238  0.7494 -0.6022
  173MOL0     C22714   8.206   0.221   2.934 -0.3494  0.4197 -0.5751
  173MOL0     C22715   8.152   0.087   2.868  0.1871  0.2967 -1.1723
  173MOL0     C22716   7.999   0.098   2.838  0.3473  0.6071 -0.1799
  173MOL0     C22717   7.947  -0.017   2.748  0.6261 -0.3849 -0.1088
  173MOL0     C22718   7.812   0.008   2.694  0.0488  0.3404 -0.5320
  173MOL0     C22719   7.763  -0.135   2.647  0.5996 -0.3436 -0.2688
  173MOL0     C22720   7.636  -0.132   2.554  0.3427  0.9008  1.5402
  173MOL0     N22721   7.531  -0.068   2.624  0.3264  0.0961 -0.0210
  173MOL0     C22722   7.456   0.046   2.580  0.1668  0.1510 -0.6271
  173MOL0     C22723   7.365   0.071   2.679 -0.6491  0.4144  0.1113
  173MOL0     C22724   7.272   0.192   2.663  0.3301  0.2829  0.1995
  173MOL0     C22725   7.145   0.165   2.563  1.1594  0.0087  0.0540
  173MOL0     C22726   7.088   0.027   2.600  0.0734  0.8787 -0.1629
  173MOL0     C22727   6.968  -0.011   2.509 -0.3427  0.0352  0.4678
  173MOL0     O22728   6.863   0.085   2.494 -0.5966 -0.0232 -0.9172
  173MOL0     C22729   6.758   0.046   2.415 -0.3419 -0.4448 -0.6706
  173MOL0     C22730   6.641   0.009   2.469  0.6454 -1.3530  1.0229
  173MOL0     C22731   6.533  -0.038   2.388 -0.2679  0.8106 -0.4804
  173MOL0     C22732   6.543  -0.032   2.254  0.6193  0.0358  0.1759
  173MOL0     C22733   6.426  -0.062   2.174 -0.4242  0.0895  0.3464
  173MOL0     O22734   6.315  -0.112   2.229  0.0567 -0.0815  0.3564
  173MOL0     C22735   6.199  -0.113   2.161  1.1753 -0.1565 -0.6182
  173MOL0     C22736   6.126  -0.231   2.150  0.1332 -0.3098  0.6152
  173MOL0     C22737   6.005  -0.241   2.083 -0.2202 -0.3469 -0.1147
  173MOL0     C22738   5.950  -0.132   2.023 -0.5124  0.5251  1.4639
  173MOL0     O22739   5.843  -0.164   1.948  0.5513  0.3718  0.5533
  173MOL0     C22740   5.828  -0.108   1.811  0.7648 -0.0898  0.4622
  173MOL0     C22741   5.710  -0.198   1.739  0.6465  0.0870 -0.0991
  173MOL0     C22742   5.579  -0.219   1.818  0.2211 -0.3563 -0.8142
  173MOL0     C22743   5.476  -0.306   1.759  0.4507  0.2695  0.7188
  173MOL0     C22744   5.530  -0.437   1.704  1.0803  0.1718 -0.8021
  173MOL0     C22745   5.413  -0.513   1.646 -0.0612  0.0948 -0.1230
  173MOL0     C22746   5.433  -0.659   1.628 -0.3749  0.4296  0.7606
  173MOL0     C22747   5.311  -0.739   1.598 -0.0719  0.3183  0.0144
  173MOL0    Cl22748   5.168  -0.736   1.716 -0.2301  0.0699  0.2577
  173MOL0     C22749   6.016  -0.010   2.031 -0.0458 -0.9251 -0.6451
  173MOL0     C22750   6.141   0.000   2.098  0.4632 -0.2929  0.5232
  173MOL0     O22751   6.439  -0.034   2.053 -0.1549 -0.9956 -1.0561
  173MOL0     C22752   6.667   0.004   2.196  0.2386 -0.9248 -0.3461
  173MOL0     C22753   6.774   0.036   2.277 -0.9438 -1.3766  0.9585
  173MOL0     N22754   7.377  -0.030   2.776  0.9103  0.3175 -0.4531
  173MOL0     N22755   7.480  -0.109   2.746  0.1998 -0.5444  0.1927
  173MOL0     C22756   8.637   0.118   2.861 -0.4397  0.8424 -0.7072
  173MOL0     C22757   8.777   0.121   2.850 -0.1928 -0.4655 -0.2498
  173MOL0     C22758   9.197   0.178   2.808  0.3470 -0.4785  0.2657
  173MOL0     C22759   9.291   0.099   2.874 -0.0702 -0.2868  0.2712
  173MOL0     C22760   9.427   0.095   2.818  0.0597  0.1802  0.1343
  173MOL0     C22761   9.452   0.168   2.692 -0.4202  0.0860 -0.2089
  173MOL0     O22762   9.579   0.169   2.639 -0.1098 -0.5567  0.0104
  173MOL0     C22763   9.588   0.177   2.490 -0.2509  0.8343  0.6245
  173MOL0     C22764   9.689   0.064   2.440 -0.1282 -1.4104  0.0726
  173MOL0     C22765   9.834   0.092   2.500  1.0856  0.2033  1.0509
  173MOL0     C22766   9.892   0.225   2.468 -0.2949  0.3998  0.8864
  173MOL0     C22767  10.029   0.235   2.520 -0.0083  0.1716 -1.1276
  173MOL0     C22768  10.145   0.253   2.530 -0.4332 -0.4125 -0.2933
  173MOL0     C22769   9.348   0.239   2.624 -0.0574  0.3563 -1.0913
  173MOL0     C22770   9.226   0.252   2.688  0.4241  0.2136 -1.3600
  173MOL0     H22771   8.797   0.424   2.692 -1.3565 -0.4562 -1.0048
  173MOL0     H22772   8.554   0.417   2.732  0.6945  0.2634 -2.2443
  173MOL0     H22773   8.398   0.273   3.039  3.5451 -1.1160 -0.6416
  173MOL0     H22774   8.391   0.117   3.006  1.7234  1.2642 -0.6825
  173MOL0     H22775   8.179   0.309   2.875  2.2435  0.5094 -1.7592
  173MOL0     H22776   8.154   0.235   3.029 -2.5494  1.2345 -1.8316
  173MOL0     H22777   8.141   0.000   2.934 -2.2599  1.1428 -0.3444
  173MOL0     H22778   8.223   0.064   2.788  2.0868 -1.7754  0.9644
  173MOL0     H22779   7.939   0.104   2.929 -0.1825  3.0589 -0.6254
  173MOL0     H22780   7.973   0.194   2.793 -1.2454  1.4489  2.3181
  173MOL0     H22781   7.948  -0.113   2.800  0.0994  0.8964  2.4059
  173MOL0     H22782   8.016  -0.027   2.663 -1.4431 -0.1663 -1.9027
  173MOL0     H22783   7.812   0.076   2.608 -1.5916 -1.8024 -2.3721
  173MOL0     H22784   7.737   0.037   2.768 -0.6234  0.8903 -1.4070
  173MOL0     H22785   7.846  -0.187   2.598  2.0128 -1.6477  3.1778
  173MOL0     H22786   7.736  -0.203   2.728 -0.6351 -0.6461 -0.8971
  173MOL0     H22787   7.612  -0.233   2.519  0.6362  0.6309  2.1000
  173MOL0     H22788   7.656  -0.072   2.465 -1.7884  0.6700  0.8501
  173MOL0     H22789   7.457   0.106   2.490 -0.9922  0.0058 -0.7517
  173MOL0     H22790   7.321   0.286   2.640  1.3948 -0.3018  0.0395
  173MOL0     H22791   7.226   0.199   2.763  0.0421 -2.9156  0.3972
  173MOL0     H22792   7.179   0.159   2.459  3.1035 -0.8074  0.6794
  173MOL0     H22793   7.072   0.246   2.570  3.6762  2.4139  0.2454
  173MOL0     H22794   7.158  -0.055   2.583  0.1093  0.2483  2.6691
  173MOL0     H22795   7.064   0.028   2.706  0.7815 -3.3361  0.2326
  173MOL0     H22796   6.927  -0.097   2.563 -2.5196  0.4904 -0.3571
  173MOL0     H22797   7.004  -0.043   2.410 -2.1530 -0.7422  0.0229
  173MOL0     H22798   6.636   0.013   2.578  2.9197  0.3367  1.1434
  173MOL0     H22799   6.444  -0.076   2.436  0.7550  0.3270  1.0879
  173MOL0     H22800   6.163  -0.319   2.201  1.7900 -0.5821 -0.9751
  173MOL0     H22801   5.944  -0.330   2.097  0.7215 -0.6227  2.9302
  173MOL0     H22802   5.925  -0.123   1.762 -0.1868  0.5416 -1.7183
  173MOL0     H22803   5.807  -0.002   1.796 -0.3056 -0.5577 -1.6337
  173MOL0     H22804   5.751  -0.299   1.724 -0.5350 -0.4077 -0.0623
  173MOL0     H22805   5.685  -0.155   1.642 -4.2297 -0.6097  0.6007
  173MOL0     H22806   5.538  -0.118   1.821 -0.7135 -0.7182 -1.2275
  173MOL0     H22807   5.600  -0.240   1.923  0.6685 -3.4009 -1.4305
  173MOL0     H22808   5.393  -0.311   1.830  0.4576  2.1797  0.9021
  173MOL0     H22809   5.447  -0.250   1.670  0.9850  2.1484  1.6815
  173MOL0     H22810   5.576  -0.500   1.780  2.1430  1.4843 -0.3267
  173MOL0     H22811   5.600  -0.420   1.621  0.0297 -4.0783 -2.9015
  173MOL0     H22812   5.379  -0.457   1.559 -2.4898 -0.7419  0.2187
  173MOL0     H22813   5.328  -0.496   1.713  1.8766  0.2462  2.4822
  173MOL0     H22814   5.494  -0.682   1.540 -0.0840  0.7346  0.8825
  173MOL0     H22815   5.491  -0.710   1.706  1.8690 -0.5776 -1.4228
  173MOL0     H22816   5.337  -0.845   1.590 -2.4853 -0.1911 -2.8665
  173MOL0     H22817   5.282  -0.711   1.497 -1.9833  0.7122  0.6353
  173MOL0     H22818   5.964   0.075   1.989  0.0605  0.2622  1.5059
  173MOL0     H22819   6.188   0.098   2.095  1.8541 -0.9529 -1.1735
  173MOL0     H22820   6.682   0.028   2.092  0.9788 -1.6313 -0.4121
  173MOL0     H22821   6.866   0.073   2.233 -1.5461  0.5044  1.1887
  173MOL0     H22822   8.582   0.042   2.916  2.3150  1.0706  2.6996
  173MOL0     H22823   8.839   0.041   2.890 -0.2799  0.4732  1.8448
  173MOL0     H22824   9.275   0.044   2.966  2.3070  2.5933  2.6131
  173MOL0     H22825   9.507   0.037   2.862  0.5463  0.0348 -0.9147
  173MOL0     H22826   9.636   0.269   2.457 -0.0309  1.0698  1.5710
  173MOL0     H22827   9.498   0.167   2.428 -1.4805  3.3470  1.8352
  173MOL0     H22828   9.652  -0.038   2.458 -2.0492 -0.8436 -0.4361
  173MOL0     H22829   9.679   0.067   2.331 -1.9045  1.5313  0.1953
  173MOL0     H22830   9.901   0.014   2.463  1.3315  0.5420  0.7708
  173MOL0     H22831   9.818   0.080   2.607 -1.8860 -3.2298  0.3988
  173MOL0     H22832   9.894   0.233   2.359  0.1334 -0.0679  0.8525
  173MOL0     H22833   9.826   0.299   2.514 -0.6149  0.5534  0.1817
  173MOL0     H22834  10.252   0.255   2.530 -0.3818 -1.6947  0.8576
  173MOL0     H22835   9.347   0.288   2.527 -1.6058  1.5609 -0.5065
  173MOL0     H22836   9.147   0.311   2.642 -0.6674 -0.0336  0.1288
  174MOL0     O22837   4.846   4.275   5.401 -0.0654 -0.1490  0.0238
  174MOL0     C22838   4.730   4.317   5.379 -0.5867  0.6727 -0.0519
  174MOL0     O22839   4.702   4.452   5.354 -0.0301  0.5040 -0.4278
  174MOL0     C22840   4.795   4.555   5.367  0.3065 -0.9631 -0.4426
  174MOL0     C22841   4.747   4.684   5.352 -0.1047  0.3102  0.5837
  174MOL0     C22842   4.823   4.803   5.366 -0.2878 -0.1557  1.2039
  174MOL0     C22843   4.953   4.788   5.393 -0.1147  0.1625  0.5557
  174MOL0     O22844   5.023   4.902   5.415  0.1720 -0.1668  0.0225
  174MOL0     C22845   5.162   4.906   5.382  0.3705 -0.0904 -0.2041
  174MOL0     C22846   5.214   5.044   5.404  0.3479  0.5110  0.2420
  174MOL0     C22847   5.161   5.143   5.300  0.6431 -0.4699 -0.3839
  174MOL0     C22848   5.234   5.280   5.300  0.6647  0.2963 -0.8012
  174MOL0     C22849   5.158   5.373   5.219  0.1498  0.3517  0.2196
  174MOL0     C22850   5.228   5.513   5.230  0.4154 -0.3187 -0.2322
  174MOL0     C22851   5.233   5.568   5.381 -0.6237 -0.0885 -0.4927
  174MOL0     C22852   5.281   5.707   5.395 -0.4801  0.9856 -0.3824
  174MOL0     N22853   5.183   5.791   5.325 -0.3476 -0.9220 -0.4904
  174MOL0     C22854   5.226   5.868   5.215  0.9780 -0.2924  0.6960
  174MOL0     C22855   5.108   5.925   5.169  0.2038  0.7895  0.3089
  174MOL0     C22856   5.102   6.015   5.058 -0.3259  0.5855 -0.0211
  174MOL0     C22857   4.958   6.003   4.992 -0.3697  0.9947  0.3265
  174MOL0     C22858   4.938   5.877   4.902  0.8707 -0.2639  0.5231
  174MOL0     C22859   5.053   5.825   4.816 -0.3129  0.0253  0.0273
  174MOL0     O22860   5.158   5.755   4.882 -0.2865  0.3082  0.8545
  174MOL0     C22861   5.263   5.711   4.808  0.2897 -0.6737  0.4308
  174MOL0     C22862   5.344   5.614   4.865 -0.1670 -0.5886 -0.0907
  174MOL0     C22863   5.462   5.571   4.816 -0.0201 -0.0574  0.2447
  174MOL0     C22864   5.500   5.597   4.682  0.1351 -0.0234 -0.5823
  174MOL0     C22865   5.622   5.543   4.628  0.1327  0.4293  0.6973
  174MOL0     O22866   5.700   5.465   4.701 -0.2746  0.4005 -0.6763
  174MOL0     C22867   5.826   5.432   4.642 -0.1049  1.1166 -0.8034
  174MOL0     C22868   5.901   5.507   4.558  0.5728  0.0781  0.1834
  174MOL0     C22869   6.024   5.461   4.503  0.2066  0.5416 -0.6426
  174MOL0     C22870   6.071   5.334   4.538 -0.6739 -0.2579  0.4033
  174MOL0     O22871   6.199   5.290   4.513 -0.0754 -0.4052 -0.3715
  174MOL0     C22872   6.289   5.383   4.444  0.3206  0.0502  0.2395
  174MOL0     C22873   6.418   5.315   4.438 -0.1903 -0.3072  0.0005
  174MOL0     C22874   6.521   5.405   4.372 -0.1777  0.0591  0.3003
  174MOL0     C22875   6.659   5.364   4.396  0.4531 -0.3040  0.3350
  174MOL0     C22876   6.772   5.439   4.326  0.9587 -0.7630  0.3020
  174MOL0     C22877   6.891   5.346   4.300 -0.3876 -0.7508 -0.2925
  174MOL0     C22878   6.992   5.398   4.195  0.3068  0.6546 -0.2696
  174MOL0     C22879   7.139   5.351   4.199 -0.1269 -0.4024  0.0135
  174MOL0    Cl22880   7.243   5.457   4.092  0.0376  0.7040  0.6427
  174MOL0     C22881   5.994   5.252   4.624 -0.3505 -0.0932 -0.6814
  174MOL0     C22882   5.869   5.303   4.666 -0.0306 -0.4745 -0.3909
  174MOL0     O22883   5.643   5.591   4.511 -0.2775 -0.4018 -0.0950
  174MOL0     C22884   5.418   5.689   4.612 -0.6830 -0.0482 -0.4198
  174MOL0     C22885   5.305   5.746   4.673  0.3037  0.5350 -0.1929
  174MOL0     N22886   5.005   5.881   5.253 -0.5012 -0.0596  0.0681
  174MOL0     N22887   5.045   5.789   5.338 -0.7205  0.2220 -0.8363
  174MOL0     C22888   5.006   4.658   5.419 -0.7097  0.3616  0.1095
  174MOL0     C22889   4.928   4.543   5.411  0.2467 -0.0698  0.0047
  174MOL0     C22890   4.618   4.224   5.411 -0.3645  0.6810 -0.1337
  174MOL0     C22891   4.501   4.286   5.455 -0.2192  0.2095  0.1685
  174MOL0     C22892   4.401   4.199   5.506 -0.1010 -0.2674 -0.2917
  174MOL0     C22893   4.415   4.060   5.497 -0.5203 -0.6864 -0.0726
  174MOL0     O22894   4.329   3.967   5.554  0.9073 -0.0805  0.3546
  174MOL0     C22895   4.272   3.869   5.464 -1.2296  0.1206  0.0765
  174MOL0     C22896   4.193   3.926   5.342  0.1271 -0.3914 -0.8759
  174MOL0     C22897   4.077   4.004   5.383  0.0058 -0.1601  0.2136
  174MOL0     C22898   3.943   3.929   5.376 -1.0191 -0.8164  0.3284
  174MOL0     C22899   3.924   3.838   5.487 -0.1854 -1.1929  0.1544
  174MOL0     C22900   3.916   3.771   5.585 -0.0988  0.0935 -0.1589
  174MOL0     C22901   4.528   4.014   5.435  0.9437  0.1520 -0.0361
  174MOL0     C22902   4.633   4.086   5.399 -0.5305  0.2601 -0.8275
  174MOL0     H22903   4.648   4.707   5.312 -0.0775 -0.6026 -0.0324
  174MOL0     H22904   4.787   4.905   5.369  2.5849  0.9454  1.1191
  174MOL0     H22905   5.178   4.865   5.281 -0.8095  1.1955 -0.9558
  174MOL0     H22906   5.213   4.853   5.462  2.2990  0.4379 -1.0267
  174MOL0     H22907   5.323   5.044   5.397  0.2959 -0.8836 -0.8589
  174MOL0     H22908   5.206   5.066   5.511  4.2017 -1.0076  0.9930
  174MOL0     H22909   5.055   5.163   5.316  0.2970 -0.9288 -1.9488
  174MOL0     H22910   5.164   5.116   5.194 -0.6074 -0.4652 -0.4394
  174MOL0     H22911   5.238   5.315   5.404  0.4105  0.0604 -0.7108
  174MOL0     H22912   5.336   5.265   5.261  0.1914 -0.5856 -1.7502
  174MOL0     H22913   5.055   5.392   5.251 -0.5726  2.0915 -2.7187
  174MOL0     H22914   5.161   5.339   5.115  1.9542 -1.4363  0.7999
  174MOL0     H22915   5.161   5.575   5.170 -2.0948 -0.4310  2.2572
  174MOL0     H22916   5.327   5.510   5.183 -1.5513 -0.0854 -4.9497
  174MOL0     H22917   5.130   5.559   5.419  0.2785  1.3839  2.7091
  174MOL0     H22918   5.300   5.503   5.438 -0.0324  0.4316 -0.5964
  174MOL0     H22919   5.384   5.713   5.360  0.8827 -0.1559  2.9484
  174MOL0     H22920   5.295   5.735   5.500  0.8941  0.9953 -0.5441
  174MOL0     H22921   5.329   5.881   5.183  0.7125 -0.5255 -0.2682
  174MOL0     H22922   5.172   5.994   4.978 -1.5573 -2.2763 -0.4823
  174MOL0     H22923   5.124   6.115   5.095  3.4995 -0.5052  1.1394
  174MOL0     H22924   4.927   6.080   4.920  2.2799  0.3336 -1.6790
  174MOL0     H22925   4.883   5.999   5.072 -0.4813  3.2733  0.3809
  174MOL0     H22926   4.920   5.791   4.967  0.3783  0.6871  1.6885
  174MOL0     H22927   4.850   5.879   4.837  0.2254  1.7840  1.3846
  174MOL0     H22928   5.092   5.911   4.760  3.3751 -0.6407  1.2598
  174MOL0     H22929   5.005   5.751   4.752  0.0076 -2.2004  2.2089
  174MOL0     H22930   5.319   5.590   4.968  0.4972 -2.7440 -0.3826
  174MOL0     H22931   5.517   5.499   4.875 -1.3131 -0.6456  0.7722
  174MOL0     H22932   5.862   5.602   4.523 -1.7848 -1.5152 -1.8698
  174MOL0     H22933   6.084   5.526   4.439  1.2864  2.4832  2.1216
  174MOL0     H22934   6.301   5.475   4.502 -0.7255  1.5706 -1.8192
  174MOL0     H22935   6.252   5.407   4.344  2.1004  2.5892  0.1094
  174MOL0     H22936   6.406   5.223   4.381  0.1617  0.5833 -1.5842
  174MOL0     H22937   6.452   5.285   4.538 -0.5829 -1.6175 -0.2465
  174MOL0     H22938   6.511   5.511   4.399 -0.4176  0.9944 -2.9718
  174MOL0     H22939   6.512   5.407   4.263  0.9598  1.3659  0.2016
  174MOL0     H22940   6.662   5.358   4.505  1.1307 -1.0263  0.2831
  174MOL0     H22941   6.666   5.259   4.366  0.5474 -0.2653  0.2198
  174MOL0     H22942   6.802   5.519   4.394 -0.9539 -0.8548  1.3051
  174MOL0     H22943   6.724   5.473   4.233  0.1304 -0.1405  0.9441
  174MOL0     H22944   6.866   5.244   4.269 -0.8866 -0.6441 -0.2548
  174MOL0     H22945   6.937   5.343   4.399  1.1828  5.2691 -0.4742
  174MOL0     H22946   6.954   5.370   4.096  2.4785 -1.0065 -0.7220
  174MOL0     H22947   6.992   5.507   4.191  1.3845  0.6420 -0.9670
  174MOL0     H22948   7.150   5.245   4.173 -0.2727 -0.3109 -0.4237
  174MOL0     H22949   7.163   5.364   4.305 -3.1733  0.1824  0.7342
  174MOL0     H22950   6.027   5.155   4.660 -1.0223  0.8887  2.9141
  174MOL0     H22951   5.798   5.248   4.726 -1.0630 -1.5565 -2.5175
  174MOL0     H22952   5.437   5.728   4.512  2.3785 -2.4296 -0.9170
  174MOL0     H22953   5.236   5.814   4.624  0.4085  1.3224  0.7154
  174MOL0     H22954   5.105   4.645   5.460  0.1236  3.2006 -0.8015
  174MOL0     H22955   4.974   4.452   5.447  0.2802 -0.8240 -1.8354
  174MOL0     H22956   4.493   4.393   5.472  0.1194  0.0156  1.7148
  174MOL0     H22957   4.305   4.239   5.538 -0.1039 -0.2639 -0.3057
  174MOL0     H22958   4.216   3.785   5.505  2.4404 -3.6644 -1.9544
  174MOL0     H22959   4.360   3.814   5.433 -1.2602 -0.7515  1.4499
  174MOL0     H22960   4.260   3.988   5.282 -0.8802  2.7569  0.9923
  174MOL0     H22961   4.160   3.841   5.281  0.2943 -1.8704  1.0039
  174MOL0     H22962   4.075   4.084   5.309 -0.9745  0.7693  1.1985
  174MOL0     H22963   4.067   4.051   5.481 -0.8380 -1.1964  0.6426
  174MOL0     H22964   3.868   4.008   5.367  0.9764  1.0183 -1.4387
  174MOL0     H22965   3.938   3.866   5.286 -2.3334 -1.1147  0.5936
  174MOL0     H22966   3.932   3.702   5.665  2.1546  1.1470  0.3961
  174MOL0     H22967   4.540   3.907   5.420 -0.7698 -0.1205  0.3010
  174MOL0     H22968   4.723   4.035   5.364  1.3982  2.6296  0.4192
  175MOL0     O22969   3.630   0.225  10.754 -0.2215  1.0863 -0.1287
  175MOL0     C22970   3.690   0.127  10.710  0.2482 -0.0820 -0.4571
  175MOL0     O22971   3.632   0.023  10.653 -1.0589  0.4155  0.5181
  175MOL0     C22972   3.504   0.026  10.616  0.1146 -0.4556 -0.3337
  175MOL0     C22973   3.412   0.042  10.718 -0.5000 -0.0886  0.8590
  175MOL0     C22974   3.276   0.014  10.700 -0.1330 -0.5815  0.1783
  175MOL0     C22975   3.229  -0.027  10.581 -0.0550  0.0235  0.4638
  175MOL0     O22976   3.103  -0.074  10.557 -0.0282  0.2893 -0.3345
  175MOL0     C22977   2.996  -0.034  10.637 -0.2064  0.5279  0.0609
  175MOL0     C22978   2.872  -0.100  10.583 -0.8383  1.0585  0.1813
  175MOL0     C22979   2.835  -0.080  10.432  0.3066  0.2301  0.6438
  175MOL0     C22980   2.699  -0.151  10.403 -0.4356 -0.4153  0.1608
  175MOL0     C22981   2.664  -0.139  10.258 -0.4017  0.0403 -0.5132
  175MOL0     C22982   2.535  -0.208  10.226  0.4448  0.8490 -0.8927
  175MOL0     C22983   2.475  -0.162  10.086 -0.1924  1.1762  0.8586
  175MOL0     C22984   2.395  -0.281  10.019  0.1682  0.8445 -0.2494
  175MOL0     N22985   2.273  -0.313  10.076  1.0382 -0.3552  0.2515
  175MOL0     C22986   2.153  -0.249  10.060 -0.5104  1.1376 -0.0651
  175MOL0     C22987   2.049  -0.338  10.081  0.7020  1.0144 -0.1275
  175MOL0     C22988   1.901  -0.327  10.069  0.2038 -0.0333  0.5996
  175MOL0     C22989   1.836  -0.191  10.099  0.2436  0.0521 -0.1154
  175MOL0     C22990   1.691  -0.192  10.140 -0.4596  0.0474 -0.2848
  175MOL0     C22991   1.611  -0.263  10.033 -0.1612 -0.3173  0.3313
  175MOL0     O22992   1.485  -0.271  10.085 -0.6283  0.4281 -0.0330
  175MOL0     C22993   1.382  -0.197  10.029 -0.8514 -0.0272 -0.0126
  175MOL0     C22994   1.283  -0.247   9.945  0.7183  0.4327  0.0221
  175MOL0     C22995   1.166  -0.171   9.906  0.2777 -0.3140 -0.1831
  175MOL0     C22996   1.154  -0.032   9.937 -0.2049 -0.4906 -0.2560
  175MOL0     C22997   1.042   0.052   9.889 -0.0946 -1.2013  0.3970
  175MOL0     O22998   1.029   0.177   9.938 -0.3372 -0.8586 -0.2174
  175MOL0     C22999   0.900   0.237   9.933 -0.1721 -0.0342  0.6500
  175MOL0     C23000   0.885   0.370   9.878 -0.6011  0.4920  0.2280
  175MOL0     C23001   0.764   0.434   9.867  0.7124  0.2266  0.2918
  175MOL0     C23002   0.645   0.369   9.909  0.6237 -0.4470 -0.5999
  175MOL0     O23003   0.507   0.403   9.898 -0.5783  0.2848  0.2878
  175MOL0     C23004   0.486   0.544   9.904  0.5005 -0.3224 -0.4359
  175MOL0     C23005   0.381   0.587   9.794 -0.1134  0.6460  0.3072
  175MOL0     C23006   0.383   0.735   9.778  0.0440 -0.7186  0.1544
  175MOL0     C23007   0.273   0.767   9.678  0.1795  0.8303  0.5709
  175MOL0     C23008   0.295   0.886   9.596  0.5318  0.1271 -0.1800
  175MOL0     C23009   0.311   1.029   9.663  0.0494  0.9273  0.6858
  175MOL0     C23010   0.219   1.044   9.781 -0.0586 -0.7228  0.7021
  175MOL0     C23011   0.078   1.076   9.740  0.8869 -0.5686 -0.1940
  175MOL0    Cl23012   0.065   1.230   9.640  0.5166 -0.4503 -0.0560
  175MOL0     C23013   0.660   0.248   9.974  0.2987  0.0046 -0.6987
  175MOL0     C23014   0.780   0.184   9.990 -0.5095  0.3452  0.2204
  175MOL0     O23015   0.960  -0.004   9.808  0.1379  0.2612 -0.0163
  175MOL0     C23016   1.241   0.017  10.030 -0.1725 -0.3868 -0.5591
  175MOL0     C23017   1.351  -0.062  10.075  0.0470 -0.2652 -0.3756
  175MOL0     N23018   2.114  -0.443  10.146 -0.2030  0.2107 -0.1925
  175MOL0     N23019   2.244  -0.431  10.147  0.4208 -0.0853 -0.3201
  175MOL0     C23020   3.322  -0.037  10.476 -1.1792 -0.2384  0.1915
  175MOL0     C23021   3.456  -0.017  10.495 -0.3855 -0.3138 -0.8685
  175MOL0     C23022   3.835   0.105  10.734 -0.1689  0.2111 -1.2146
  175MOL0     C23023   3.907   0.002  10.677 -0.5984  0.6658  0.2594
  175MOL0     C23024   4.046  -0.006  10.705  0.5745  0.1219  0.1430
  175MOL0     C23025   4.118   0.079  10.779 -0.8957  0.2589  0.7863
  175MOL0     O23026   4.253   0.054  10.802  0.1088 -0.1533  0.5270
  175MOL0     C23027   4.327   0.172  10.828 -1.5368 -0.9462  0.1881
  175MOL0     C23028   4.486   0.135  10.848  0.4723 -0.6575 -0.1870
  175MOL0     C23029   4.511   0.041  10.960 -0.5567  0.0738 -0.8200
  175MOL0     C23030   4.516   0.105  11.104  0.5374 -1.2176 -0.2811
  175MOL0     C23031   4.564   0.024  11.210 -0.0338  0.2247 -0.3082
  175MOL0     C23032   4.601  -0.042  11.305 -0.9494 -0.3279  0.1757
  175MOL0     C23033   4.043   0.179  10.846 -0.5218 -0.4608  0.1177
  175MOL0     C23034   3.905   0.186  10.833  0.0100  0.3478  0.2470
  175MOL0     H23035   3.445   0.048  10.821 -0.4268 -3.1024  1.0995
  175MOL0     H23036   3.200   0.014  10.777 -0.0662 -0.8554  0.2464
  175MOL0     H23037   2.984   0.074  10.622  2.1737  0.8068 -0.1902
  175MOL0     H23038   3.007  -0.064  10.742 -0.1397  0.6791  0.0975
  175MOL0     H23039   2.790  -0.064  10.645 -2.3466 -1.2293 -0.3499
  175MOL0     H23040   2.872  -0.206  10.612 -0.6301  1.0887  0.2905
  175MOL0     H23041   2.908  -0.134  10.371 -0.3745  1.2936 -1.1688
  175MOL0     H23042   2.826   0.026  10.407  0.9055 -0.1536 -1.3541
  175MOL0     H23043   2.709  -0.253  10.439  1.0474 -0.5842 -0.6574
  175MOL0     H23044   2.620  -0.105  10.464  0.2649 -0.8556  1.4281
  175MOL0     H23045   2.748  -0.167  10.193 -0.7681 -1.8752 -0.2416
  175MOL0     H23046   2.650  -0.031  10.246 -1.0935 -0.2905 -3.5848
  175MOL0     H23047   2.460  -0.188  10.302 -0.4574  1.3297 -1.8748
  175MOL0     H23048   2.555  -0.316  10.228  3.5912  1.3528  0.9125
  175MOL0     H23049   2.409  -0.078  10.110 -1.4463 -0.3231  3.0730
  175MOL0     H23050   2.553  -0.137  10.014  1.3731 -0.8939  1.7062
  175MOL0     H23051   2.441  -0.380  10.020 -3.4660 -1.0042 -0.1031
  175MOL0     H23052   2.372  -0.255   9.915  0.2376 -2.5000 -1.2099
  175MOL0     H23053   2.144  -0.152  10.012  1.9271  0.6637 -1.6859
  175MOL0     H23054   1.856  -0.405  10.130 -0.4892 -2.7223 -3.0007
  175MOL0     H23055   1.880  -0.339   9.962  1.4616  3.1192 -0.1397
  175MOL0     H23056   1.857  -0.131  10.010  0.8200  2.3428  1.4841
  175MOL0     H23057   1.885  -0.143  10.184  0.8336  1.1643 -1.0596
  175MOL0     H23058   1.688  -0.250  10.233  0.5718 -0.4173 -0.5280
  175MOL0     H23059   1.661  -0.087  10.144  0.0675  0.2396 -1.1282
  175MOL0     H23060   1.647  -0.363  10.004  1.4104 -0.0917  1.3822
  175MOL0     H23061   1.632  -0.207   9.942 -0.2836 -2.9310 -1.4090
  175MOL0     H23062   1.296  -0.355   9.935 -2.0240  0.1171 -1.0143
  175MOL0     H23063   1.102  -0.205   9.824 -0.2940  0.0485  0.1061
  175MOL0     H23064   0.973   0.419   9.839  0.0199 -0.9938 -0.2932
  175MOL0     H23065   0.774   0.530   9.817  3.3982 -0.3179 -0.3439
  175MOL0     H23066   0.576   0.605   9.896  0.9994 -1.2108 -1.9103
  175MOL0     H23067   0.438   0.561  10.001 -1.8608  1.2285 -1.7844
  175MOL0     H23068   0.281   0.546   9.816 -0.5544  0.4523 -1.8184
  175MOL0     H23069   0.403   0.538   9.698 -1.5796  1.2096 -0.3515
  175MOL0     H23070   0.475   0.773   9.732 -1.9322  1.0621 -2.7168
  175MOL0     H23071   0.382   0.781   9.877  3.3244 -2.0803  0.9366
  175MOL0     H23072   0.261   0.689   9.601  0.3423  1.7384 -0.3970
  175MOL0     H23073   0.174   0.763   9.725 -0.6374 -1.7007 -1.1056
  175MOL0     H23074   0.214   0.887   9.523 -0.3783  0.3398  0.8204
  175MOL0     H23075   0.387   0.858   9.543 -0.6801 -1.8918 -1.3046
  175MOL0     H23076   0.289   1.108   9.590 -2.3086  0.3938  0.7327
  175MOL0     H23077   0.416   1.041   9.692  0.7371  0.5434 -1.4703
  175MOL0     H23078   0.215   0.967   9.858 -1.0977  2.0993  3.6917
  175MOL0     H23079   0.249   1.125   9.848 -1.3789 -0.0656  0.5257
  175MOL0     H23080   0.023   1.090   9.833  0.6169 -4.4835  0.3963
  175MOL0     H23081   0.040   0.989   9.686  3.5984 -2.0608  0.1239
  175MOL0     H23082   0.577   0.190  10.013  1.3984 -2.8022 -2.2851
  175MOL0     H23083   0.776   0.083  10.029  0.4092  0.0993 -0.2863
  175MOL0     H23084   1.236   0.121  10.058 -2.3979 -0.4183 -0.6395
  175MOL0     H23085   1.415  -0.013  10.147  1.3100 -0.2596 -1.4782
  175MOL0     H23086   3.275  -0.079  10.387  1.8787  0.0872 -1.7087
  175MOL0     H23087   3.518  -0.039  10.408 -1.3967  1.8096 -2.2159
  175MOL0     H23088   3.863  -0.063  10.601  0.5514 -2.3228  2.0020
  175MOL0     H23089   4.099  -0.085  10.654 -0.3996 -1.4741  1.5155
  175MOL0     H23090   4.291   0.223  10.917  0.4776  0.9551 -0.0109
  175MOL0     H23091   4.322   0.238  10.741  0.8294  1.0034  1.4206
  175MOL0     H23092   4.532   0.097  10.756 -1.0884  0.2142 -1.3756
  175MOL0     H23093   4.528   0.231  10.878 -2.8569  0.9079 -0.0173
  175MOL0     H23094   4.605  -0.010  10.935  1.6870  4.0602 -1.2957
  175MOL0     H23095   4.433  -0.036  10.960  1.9155 -2.5936 -0.3769
  175MOL0     H23096   4.568   0.202  11.099 -0.9202 -0.4069 -0.3131
  175MOL0     H23097   4.414   0.133  11.130  0.5739 -1.2666 -0.0825
  175MOL0     H23098   4.647  -0.095  11.386 -1.1401  3.7904  3.3524
  175MOL0     H23099   4.090   0.243  10.919 -0.9991  2.2356 -1.7767
  175MOL0     H23100   3.850   0.259  10.893 -1.3499  0.7897 -1.4428
  176MOL0     O23101   2.167   3.467   3.255 -0.3662  0.3024  0.5312
  176MOL0     C23102   2.210   3.358   3.303  0.0629 -0.4712  0.1031
  176MOL0     O23103   2.192   3.315   3.432  0.5908 -0.1242  1.2179
  176MOL0     C23104   2.098   3.369   3.517 -0.9053  0.1940  0.7935
  176MOL0     C23105   2.125   3.354   3.645  0.4056  0.3618 -1.1572
  176MOL0     C23106   2.031   3.393   3.742 -0.8226 -0.0773  0.8691
  176MOL0     C23107   1.916   3.458   3.707  0.0460  0.2585 -0.5839
  176MOL0     O23108   1.820   3.507   3.793 -0.2996  0.2914  1.0667
  176MOL0     C23109   1.842   3.502   3.934  0.9374 -0.4405 -1.0600
  176MOL0     C23110   1.739   3.604   4.009  1.0282 -0.5183  1.1030
  176MOL0     C23111   1.605   3.539   4.072 -0.1861 -0.2806  1.0407
  176MOL0     C23112   1.496   3.645   4.107 -0.3033  0.1769  0.4005
  176MOL0     C23113   1.531   3.729   4.233 -0.1334 -0.8317  0.6935
  176MOL0     C23114   1.421   3.829   4.266 -0.3156 -0.8071  0.8008
  176MOL0     C23115   1.313   3.745   4.338  0.0167  1.0467 -0.4102
  176MOL0     C23116   1.201   3.833   4.375  0.6395 -0.9215  0.4370
  176MOL0     N23117   1.226   3.898   4.505  0.5564 -0.2577 -0.0875
  176MOL0     C23118   1.261   4.027   4.536 -0.3016 -0.8067  0.1018
  176MOL0     C23119   1.253   4.034   4.671 -0.8786  0.3874 -0.4184
  176MOL0     C23120   1.295   4.166   4.743  0.6393 -0.4373  0.1052
  176MOL0     C23121   1.184   4.264   4.768  0.1325  0.2373  0.9322
  176MOL0     C23122   1.124   4.324   4.642  0.0125  0.2433  0.2545
  176MOL0     C23123   1.004   4.251   4.575 -0.7992  0.2808 -0.9713
  176MOL0     O23124   1.014   4.248   4.439 -0.2316 -0.2872  0.4321
  176MOL0     C23125   1.013   4.363   4.364 -0.5009  0.0059  0.6329
  176MOL0     C23126   1.030   4.351   4.220  0.7003 -0.0840 -0.0371
  176MOL0     C23127   1.036   4.462   4.138 -0.5275 -0.0017  0.5516
  176MOL0     C23128   0.998   4.591   4.189  0.2505 -0.2493  0.2067
  176MOL0     C23129   0.986   4.702   4.101  0.5815 -0.8936  0.2392
  176MOL0     O23130   0.980   4.829   4.150  0.2639 -0.5079  0.2814
  176MOL0     C23131   0.941   4.924   4.060 -0.4201 -0.4898  0.3919
  176MOL0     C23132   1.033   4.993   3.987  1.1640  0.0061 -0.6214
  176MOL0     C23133   0.996   5.101   3.905  0.4422  0.7904  0.3336
  176MOL0     C23134   0.861   5.140   3.896  0.0968  0.5187  0.6211
  176MOL0     O23135   0.831   5.222   3.789  0.0571 -0.4454 -0.2752
  176MOL0     C23136   0.721   5.173   3.713 -0.9182  0.1578  0.4580
  176MOL0     C23137   0.717   5.249   3.579  1.0306  0.4907 -0.4291
  176MOL0     C23138   0.591   5.223   3.493 -0.0776  0.3695 -0.1194
  176MOL0     C23139   0.472   5.315   3.530  0.3432 -0.6562  0.4175
  176MOL0     C23140   0.355   5.320   3.424  0.5741  0.0166  0.4509
  176MOL0     C23141   0.233   5.407   3.472 -0.8123  0.2844  0.9693
  176MOL0     C23142   0.265   5.560   3.463  0.2070 -0.8264 -0.1564
  176MOL0     C23143   0.153   5.642   3.542  0.2364  0.3383 -0.8748
  176MOL0    Cl23144  -0.023   5.622   3.470  0.3265  0.3185 -0.0018
  176MOL0     C23145   0.764   5.070   3.972  0.0963  0.4084 -0.7147
  176MOL0     C23146   0.811   4.967   4.051  0.2559 -0.5704  0.4265
  176MOL0     O23147   0.962   4.670   3.987  0.7045  0.3573 -0.2912
  176MOL0     C23148   0.973   4.598   4.329  0.1044 -0.3079  0.9838
  176MOL0     C23149   0.977   4.479   4.409  0.5301 -2.0079  0.2869
  176MOL0     N23150   1.205   3.919   4.719 -0.1837  0.1898 -0.0881
  176MOL0     N23151   1.202   3.832   4.621 -0.2317  0.5701  0.2875
  176MOL0     C23152   1.897   3.475   3.572 -0.3959 -0.1038  0.3798
  176MOL0     C23153   1.987   3.445   3.477  0.6560 -0.6224  0.8699
  176MOL0     C23154   2.297   3.280   3.207  0.0299  0.3795 -0.2579
  176MOL0     C23155   2.324   3.134   3.224  0.5399 -0.3321  0.3415
  176MOL0     C23156   2.413   3.067   3.137  0.8364  0.7103  0.1099
  176MOL0     C23157   2.480   3.148   3.042 -0.2652  0.2272 -0.9443
  176MOL0     O23158   2.584   3.085   2.975 -0.1394  0.5421  0.0405
  176MOL0     C23159   2.722   3.146   2.991  0.0518 -0.0417  0.6290
  176MOL0     C23160   2.779   3.153   3.136  0.0011 -0.4080  0.9800
  176MOL0     C23161   2.857   3.027   3.161 -1.2408 -0.5505 -0.7674
  176MOL0     C23162   2.769   2.900   3.176  0.0197 -0.2240 -0.4446
  176MOL0     C23163   2.725   2.862   3.306  0.8504  0.4845 -0.1854
  176MOL0     C23164   2.710   2.856   3.428  0.2550 -0.3566 -0.4984
  176MOL0     C23165   2.446   3.282   3.017  0.2055 -0.0535 -0.2400
  176MOL0     C23166   2.352   3.347   3.092  0.3778  1.0966 -0.0502
  176MOL0     H23167   2.211   3.306   3.691 -2.6074 -3.1830  1.4818
  176MOL0     H23168   2.062   3.384   3.846 -0.5611  2.0803  1.0257
  176MOL0     H23169   1.945   3.531   3.955 -0.1394  3.5648 -0.5704
  176MOL0     H23170   1.823   3.403   3.978  1.5240  0.2488  0.8206
  176MOL0     H23171   1.705   3.674   3.931  0.5915 -0.0192  1.7292
  176MOL0     H23172   1.800   3.662   4.078  1.2024 -0.4579  0.8981
  176MOL0     H23173   1.631   3.490   4.166 -1.1173 -1.2293  0.8166
  176MOL0     H23174   1.573   3.464   3.999  0.3889  2.1179 -1.9153
  176MOL0     H23175   1.476   3.711   4.022  0.1011 -1.4419 -1.0387
  176MOL0     H23176   1.411   3.579   4.126 -0.7725  0.9091  0.8731
  176MOL0     H23177   1.629   3.772   4.212  0.4978 -2.7731 -0.5850
  176MOL0     H23178   1.560   3.658   4.311  1.2210 -1.9720 -0.7778
  176MOL0     H23179   1.390   3.886   4.177  1.9433 -0.4260  0.1851
  176MOL0     H23180   1.450   3.913   4.329 -2.4912  2.0111 -1.6329
  176MOL0     H23181   1.273   3.673   4.265 -2.2175  0.8397  0.9247
  176MOL0     H23182   1.348   3.697   4.430  0.0067  0.4666 -0.7001
  176MOL0     H23183   1.118   3.763   4.393  0.0141  0.0636  1.5708
  176MOL0     H23184   1.172   3.909   4.302 -1.5851 -0.7264  1.4152
  176MOL0     H23185   1.295   4.112   4.477 -0.3010 -0.3718  0.7285
  176MOL0     H23186   1.371   4.211   4.679  1.5864  1.0291  2.1298
  176MOL0     H23187   1.351   4.136   4.833  0.5533 -2.7978 -0.5662
  176MOL0     H23188   1.227   4.357   4.808 -0.9801  1.6864 -1.0175
  176MOL0     H23189   1.107   4.232   4.838 -1.5112  2.8839  0.4976
  176MOL0     H23190   1.089   4.421   4.678  1.6114  0.6974  0.6593
  176MOL0     H23191   1.195   4.342   4.561 -1.4375 -0.1555 -1.1604
  176MOL0     H23192   0.907   4.292   4.604 -0.3290  0.2287  0.7717
  176MOL0     H23193   0.993   4.146   4.603  0.4269  0.0378 -1.3630
  176MOL0     H23194   1.034   4.246   4.192 -1.4255 -0.5437  1.1859
  176MOL0     H23195   1.069   4.449   4.035  1.8944 -0.6041  1.3320
  176MOL0     H23196   1.130   4.945   3.999 -0.1376 -1.9327  4.8386
  176MOL0     H23197   1.070   5.163   3.855 -0.3565  0.9255 -0.7066
  176MOL0     H23198   0.626   5.188   3.765  0.3811  1.6209  2.5826
  176MOL0     H23199   0.725   5.066   3.692 -2.1787 -0.8116  4.3983
  176MOL0     H23200   0.803   5.219   3.518 -0.0536 -2.1123 -0.8100
  176MOL0     H23201   0.718   5.356   3.601 -0.2644  0.5058 -0.3958
  176MOL0     H23202   0.549   5.121   3.494 -1.0997  0.7160 -2.0504
  176MOL0     H23203   0.617   5.241   3.388 -1.5169  0.2980 -0.5204
  176MOL0     H23204   0.425   5.285   3.624 -1.9988  2.4726  0.4363
  176MOL0     H23205   0.519   5.414   3.532 -0.6533 -0.0075 -2.6646
  176MOL0     H23206   0.318   5.218   3.414  0.3631 -0.1520  2.4741
  176MOL0     H23207   0.400   5.359   3.332 -1.1698 -0.8040 -0.7859
  176MOL0     H23208   0.229   5.391   3.580  3.6485  0.3944  1.3541
  176MOL0     H23209   0.146   5.386   3.409 -0.2493 -2.0605  0.8846
  176MOL0     H23210   0.361   5.590   3.506 -1.6984  2.2353  2.4343
  176MOL0     H23211   0.258   5.588   3.358 -2.1183  2.7837  0.7982
  176MOL0     H23212   0.188   5.745   3.538  0.0746  0.3995 -0.6806
  176MOL0     H23213   0.151   5.612   3.647 -2.6434  0.0843 -0.9356
  176MOL0     H23214   0.664   5.112   3.977 -0.8133 -1.7284  0.0876
  176MOL0     H23215   0.736   4.910   4.106 -1.1586  0.5261 -0.3275
  176MOL0     H23216   0.942   4.691   4.374 -0.2771  0.5670 -0.9645
  176MOL0     H23217   0.938   4.485   4.510  0.7882  3.4580  0.3392
  176MOL0     H23218   1.804   3.523   3.546  1.7206  2.6251 -2.8939
  176MOL0     H23219   1.960   3.464   3.373 -1.4216  0.8784  1.6200
  176MOL0     H23220   2.273   3.080   3.303 -2.1240 -0.6450 -1.4833
  176MOL0     H23221   2.451   2.967   3.149 -1.1019 -0.1918 -0.8859
  176MOL0     H23222   2.722   3.248   2.950  1.4316  1.0949  3.2038
  176MOL0     H23223   2.780   3.083   2.922 -0.1557 -0.8834  1.2087
  176MOL0     H23224   2.853   3.234   3.141 -3.2881  3.1349 -1.8651
  176MOL0     H23225   2.706   3.159   3.216 -0.2526  4.0915  0.6508
  176MOL0     H23226   2.920   3.038   3.250 -1.8135  2.7548 -0.6373
  176MOL0     H23227   2.922   3.001   3.076 -0.5321  0.2258 -0.4832
  176MOL0     H23228   2.684   2.909   3.108  0.5773 -0.1961 -1.1475
  176MOL0     H23229   2.828   2.814   3.144  0.4444  0.4551 -1.5402
  176MOL0     H23230   2.689   2.871   3.532  1.5441  1.2058 -0.4316
  176MOL0     H23231   2.500   3.327   2.935 -0.4711  0.3470 -0.4746
  176MOL0     H23232   2.338   3.454   3.079  1.9953  1.5183  1.3014
  177MOL0     O23233   0.988   3.706  10.286  0.1739  1.5392  0.2596
  177MOL0     C23234   1.082   3.652  10.344 -1.2112  0.4639 -0.6191
  177MOL0     O23235   1.091   3.651  10.486  0.3735 -0.3922  0.1697
  177MOL0     C23236   0.987   3.712  10.555  0.0733  0.0450  0.2237
  177MOL0     C23237   0.855   3.675  10.539  0.0401  0.6932  0.5690
  177MOL0     C23238   0.744   3.748  10.590 -0.4834 -0.6083  0.0022
  177MOL0     C23239   0.778   3.859  10.672 -0.2688  0.6821  0.6105
  177MOL0     O23240   0.678   3.934  10.732 -0.3400  0.1308 -0.7270
  177MOL0     C23241   0.547   3.871  10.755  0.3415 -1.1103  1.2611
  177MOL0     C23242   0.481   3.965  10.853  0.0239 -0.4159 -0.3172
  177MOL0     C23243   0.367   3.890  10.934 -0.2045  0.5113 -0.2169
  177MOL0     C23244   0.270   3.981  11.007  0.0638 -0.4736 -1.0336
  177MOL0     C23245   0.136   3.930  11.049  0.5317  0.5963  0.1631
  177MOL0     C23246   0.031   3.920  10.946 -0.2611 -0.8412  0.1304
  177MOL0     C23247  -0.009   4.060  10.868  0.1471  0.6714  0.7528
  177MOL0     C23248  -0.074   4.154  10.956 -0.3458 -0.7691 -0.4871
  177MOL0     N23249  -0.212   4.130  10.998 -0.1307  1.2907  0.4483
  177MOL0     C23250  -0.310   4.223  10.975  0.5510  0.5371 -0.1340
  177MOL0     C23251  -0.420   4.172  11.038  0.1262 -0.0095 -0.0865
  177MOL0     C23252  -0.549   4.239  11.062  0.0409  0.2409 -1.3471
  177MOL0     C23253  -0.618   4.267  10.933  0.1107  0.0732  0.3505
  177MOL0     C23254  -0.700   4.150  10.878  0.0447 -0.3481  0.1304
  177MOL0     C23255  -0.856   4.138  10.921  0.0357 -0.8719  0.9827
  177MOL0     O23256  -0.852   4.108  11.058  0.5367  0.1764  0.6919
  177MOL0     C23257  -0.967   4.077  11.118  0.2706 -0.5797  0.1910
  177MOL0     C23258  -0.964   4.045  11.252 -0.5242 -0.3309 -0.6257
  177MOL0     C23259  -1.069   4.008  11.330 -0.6448 -0.4784 -0.4647
  177MOL0     C23260  -1.202   4.014  11.271  0.1999  0.0142  0.1722
  177MOL0     C23261  -1.325   3.972  11.347  0.2678  0.8812  0.3385
  177MOL0     O23262  -1.319   4.008  11.481  0.6350 -0.1761 -0.3404
  177MOL0     C23263  -1.423   3.992  11.568 -0.1401  0.0824  0.1346
  177MOL0     C23264  -1.403   3.907  11.680 -0.8635  0.3884  0.5898
  177MOL0     C23265  -1.502   3.899  11.780  0.0586  0.1844 -1.1693
  177MOL0     C23266  -1.627   3.951  11.756 -0.9600  0.2284 -0.1607
  177MOL0     O23267  -1.724   3.916  11.855  0.3675 -0.4163 -0.7130
  177MOL0     C23268  -1.865   3.957  11.836 -0.2767  0.4687 -0.7972
  177MOL0     C23269  -1.954   3.894  11.943 -0.1882 -0.0049  0.3632
  177MOL0     C23270  -2.105   3.939  11.953 -0.1382 -1.0188 -0.2602
  177MOL0     C23271  -2.177   3.837  12.035 -0.8934  0.3453 -0.1687
  177MOL0     C23272  -2.324   3.875  12.038  0.8625 -1.2860 -0.1668
  177MOL0     C23273  -2.359   3.996  12.122  1.0300 -0.6629 -0.1102
  177MOL0     C23274  -2.421   4.105  12.040 -0.4473 -0.1653 -0.0938
  177MOL0     C23275  -2.502   4.203  12.116 -1.1875 -0.0979 -0.5141
  177MOL0    Cl23276  -2.654   4.121  12.160 -0.1533  0.2334  0.0484
  177MOL0     C23277  -1.646   4.029  11.642 -1.6985  0.1007 -0.2157
  177MOL0     C23278  -1.546   4.048  11.545  0.7537 -1.8119 -0.3690
  177MOL0     O23279  -1.423   3.923  11.290  1.0924  0.1410  0.2955
  177MOL0     C23280  -1.212   4.044  11.137 -0.4525  0.7849  0.5269
  177MOL0     C23281  -1.092   4.068  11.061  0.3153  0.4413 -0.5415
  177MOL0     N23282  -0.395   4.045  11.073  0.9766  0.3494  0.6381
  177MOL0     N23283  -0.271   4.014  11.043  0.1058  0.0726  0.5657
  177MOL0     C23284   0.915   3.901  10.695  1.0389  0.1342 -0.5584
  177MOL0     C23285   1.016   3.828  10.636 -0.3602 -0.0622 -0.6753
  177MOL0     C23286   1.175   3.565  10.260 -0.5103  0.5093  0.2509
  177MOL0     C23287   1.152   3.546  10.129  0.5230 -0.0165  0.6337
  177MOL0     C23288   1.250   3.481  10.049  0.3971  0.9610  0.4044
  177MOL0     C23289   1.351   3.408  10.103 -0.2231  0.1714  0.2948
  177MOL0     O23290   1.453   3.327  10.040 -0.0543  0.2743  0.1556
  177MOL0     C23291   1.421   3.243   9.921  0.3569  0.0944 -1.0753
  177MOL0     C23292   1.377   3.101   9.972 -0.0147 -0.2632  0.1733
  177MOL0     C23293   1.220   3.103  10.008 -0.5641 -0.3621  0.2888
  177MOL0     C23294   1.167   2.964  10.050 -0.1266  0.0206 -0.4550
  177MOL0     C23295   1.209   2.938  10.187 -0.1154  0.1492 -0.6558
  177MOL0     C23296   1.247   2.924  10.301  0.3156  0.2757 -0.0380
  177MOL0     C23297   1.372   3.420  10.238  0.3577 -0.3772  0.1181
  177MOL0     C23298   1.290   3.505  10.313 -0.4607  0.3540  0.0942
  177MOL0     H23299   0.847   3.589  10.473 -1.3929  1.0520  0.2349
  177MOL0     H23300   0.640   3.722  10.571 -1.4610  1.5708  1.8609
  177MOL0     H23301   0.557   3.769  10.793  2.0898 -1.4877 -0.0517
  177MOL0     H23302   0.504   3.862  10.655 -0.3557 -5.4968  1.7538
  177MOL0     H23303   0.440   4.046  10.791  1.0700 -0.0969 -0.6220
  177MOL0     H23304   0.551   4.004  10.928 -1.9081  0.1992  1.2438
  177MOL0     H23305   0.405   3.808  10.997 -1.8191 -1.5198 -1.7544
  177MOL0     H23306   0.298   3.827  10.878  0.9246 -1.7510  0.7758
  177MOL0     H23307   0.319   4.018  11.098 -0.6570  2.3194 -1.6794
  177MOL0     H23308   0.258   4.062  10.934 -0.7485  0.4600  0.1091
  177MOL0     H23309   0.092   3.997  11.124 -2.5595 -0.4519 -0.5652
  177MOL0     H23310   0.145   3.835  11.102 -0.8183  0.5628  0.3588
  177MOL0     H23311  -0.062   3.880  10.988 -1.8041 -0.2743 -2.5306
  177MOL0     H23312   0.067   3.850  10.870 -3.7698  1.8029 -4.4571
  177MOL0     H23313   0.075   4.113  10.824  0.5605  0.4602  1.2703
  177MOL0     H23314  -0.074   4.038  10.782 -0.0334  0.5690  0.9128
  177MOL0     H23315  -0.078   4.249  10.902  1.6680 -0.6045 -0.4249
  177MOL0     H23316  -0.010   4.162  11.044  0.5637 -0.8964 -1.1093
  177MOL0     H23317  -0.316   4.314  10.916 -1.9912 -1.0133 -2.5016
  177MOL0     H23318  -0.541   4.326  11.128 -0.1147 -0.3758 -0.4947
  177MOL0     H23319  -0.613   4.166  11.113  0.7409 -0.4154 -1.3992
  177MOL0     H23320  -0.535   4.289  10.865  1.0196 -0.9495  1.0762
  177MOL0     H23321  -0.688   4.350  10.934 -1.4718 -1.1491  3.2157
  177MOL0     H23322  -0.701   4.164  10.770  0.1993  2.2378  0.4011
  177MOL0     H23323  -0.645   4.058  10.898  0.2088 -0.1500  0.6080
  177MOL0     H23324  -0.899   4.057  10.861  0.6670 -0.2342 -0.3847
  177MOL0     H23325  -0.916   4.224  10.893 -2.6314 -1.5487  4.0032
  177MOL0     H23326  -0.865   4.068  11.291 -0.3852 -0.1998 -1.0533
  177MOL0     H23327  -1.040   3.989  11.433  5.0591  2.3695 -1.1254
  177MOL0     H23328  -1.313   3.850  11.697  0.1700  1.2825 -1.5639
  177MOL0     H23329  -1.477   3.832  11.861 -1.8115  0.4742 -0.2744
  177MOL0     H23330  -1.900   3.938  11.734 -1.6268  0.2958 -0.3159
  177MOL0     H23331  -1.875   4.065  11.851 -1.3045  0.0468  2.1190
  177MOL0     H23332  -1.915   3.922  12.041 -1.6851  0.4080  0.8729
  177MOL0     H23333  -1.952   3.785  11.931 -1.3285  0.1232 -1.2974
  177MOL0     H23334  -2.154   3.959  11.857 -3.4083  0.9770  1.6184
  177MOL0     H23335  -2.113   4.032  12.010  0.5166 -2.6972  2.7855
  177MOL0     H23336  -2.165   3.738  11.990 -0.7640 -0.6508  1.9428
  177MOL0     H23337  -2.132   3.827  12.134  0.6982 -0.4675 -0.9409
  177MOL0     H23338  -2.392   3.795  12.067 -0.5702 -0.2727 -0.6499
  177MOL0     H23339  -2.338   3.890  11.931  1.5152 -2.3477 -0.4166
  177MOL0     H23340  -2.262   4.026  12.166  1.7813 -2.8332 -0.1824
  177MOL0     H23341  -2.430   3.988  12.205  0.6599  1.8432 -0.0924
  177MOL0     H23342  -2.337   4.161  11.997 -0.6116  1.0581  1.1319
  177MOL0     H23343  -2.476   4.064  11.954 -0.7990 -0.9079  0.4710
  177MOL0     H23344  -2.528   4.288  12.052 -0.3632  0.4718 -0.1126
  177MOL0     H23345  -2.453   4.241  12.207 -3.3740 -0.1517  0.7703
  177MOL0     H23346  -1.748   4.062  11.626 -2.2837 -2.3278 -2.0576
  177MOL0     H23347  -1.561   4.109  11.457 -2.0301 -1.0865  0.4992
  177MOL0     H23348  -1.311   4.041  11.092 -2.3525 -0.6054  4.3163
  177MOL0     H23349  -1.106   4.079  10.954  0.9056 -0.2685 -0.7006
  177MOL0     H23350   0.928   3.977  10.770  2.4279  0.7986 -1.4459
  177MOL0     H23351   1.116   3.864  10.657 -1.3739  2.8959 -0.3919
  177MOL0     H23352   1.063   3.590  10.085 -1.2060 -2.3666  1.5953
  177MOL0     H23353   1.231   3.483   9.942 -1.1362  2.5753  0.6403
  177MOL0     H23354   1.521   3.225   9.880  1.7922  0.6128  1.9022
  177MOL0     H23355   1.372   3.300   9.842  0.6124 -0.1844 -1.4372
  177MOL0     H23356   1.398   3.023   9.897 -4.2988 -0.4879 -1.0882
  177MOL0     H23357   1.427   3.059  10.060 -1.4084 -2.0249  0.1903
  177MOL0     H23358   1.164   3.144   9.924 -0.9215 -1.6253 -0.1076
  177MOL0     H23359   1.201   3.169  10.093 -0.2680  1.7857 -1.2243
  177MOL0     H23360   1.058   2.964  10.045 -0.1064  0.3478 -0.9514
  177MOL0     H23361   1.205   2.883   9.987  1.9277  2.0491 -2.0291
  177MOL0     H23362   1.293   2.908  10.397 -3.2755 -2.5943  1.4310
  177MOL0     H23363   1.443   3.350  10.281 -0.6449 -1.3773  0.2087
  177MOL0     H23364   1.312   3.508  10.419  0.7827 -0.6934 -0.1115
  178MOL0     O23365   9.612   3.771   1.209  0.5992 -0.0097 -0.2449
  178MOL0     C23366   9.583   3.889   1.179  0.0016 -0.4631  1.1703
  178MOL0     O23367   9.590   3.946   1.060  0.6012  0.2463 -0.2278
  178MOL0     C23368   9.643   3.874   0.958 -0.6948  0.4266 -0.3790
  178MOL0     C23369   9.775   3.898   0.927 -0.2344 -0.1106  0.5622
  178MOL0     C23370   9.825   3.834   0.812 -0.1556 -1.0817 -0.2902
  178MOL0     C23371   9.747   3.736   0.747  1.0679 -0.3708 -0.5629
  178MOL0     O23372   9.811   3.662   0.657  0.5231 -0.3331 -0.0632
  178MOL0     C23373   9.736   3.560   0.573 -0.1073 -0.7768  0.2571
  178MOL0     C23374   9.813   3.449   0.509 -0.2522 -0.1444  0.0389
  178MOL0     C23375   9.910   3.501   0.404 -0.7061  0.3488 -0.3700
  178MOL0     C23376   9.989   3.388   0.331 -0.2766  0.5765 -0.7016
  178MOL0     C23377  10.103   3.441   0.252  0.0372 -0.0599  0.4046
  178MOL0     C23378  10.059   3.481   0.105  0.2533 -0.3143  0.1649
  178MOL0     C23379  10.175   3.537   0.015 -0.0490 -0.2897 -0.5963
  178MOL0     C23380  10.214   3.684   0.042  0.2398  0.6957 -0.3026
  178MOL0     N23381  10.326   3.700   0.139  0.5779  0.2321 -0.8667
  178MOL0     C23382  10.455   3.674   0.104 -0.5423 -0.4987 -0.9859
  178MOL0     C23383  10.533   3.702   0.215  0.0258  0.8608 -0.1476
  178MOL0     C23384  10.684   3.703   0.228 -0.0230  0.0831  0.3805
  178MOL0     C23385  10.731   3.848   0.217 -0.0769 -0.5471  0.3917
  178MOL0     C23386  10.878   3.858   0.273  0.1772  0.2083  0.4250
  178MOL0     C23387  10.981   3.762   0.219 -0.5743 -0.2776  0.3536
  178MOL0     O23388  11.002   3.761   0.075  0.3197  1.3668 -0.9301
  178MOL0     C23389  11.120   3.704   0.028 -0.1552  0.7809  0.2863
  178MOL0     C23390  11.214   3.621   0.090  0.1179  0.2567  0.1856
  178MOL0     C23391  11.317   3.560   0.021 -0.0562  0.1923  1.2290
  178MOL0     C23392  11.335   3.582  -0.120  0.2853  0.4663 -0.3853
  178MOL0     C23393  11.435   3.511  -0.194  0.4640  0.7058 -0.0596
  178MOL0     O23394  11.527   3.430  -0.135  0.0156  0.7239 -0.4202
  178MOL0     C23395  11.619   3.367  -0.219 -0.4572 -0.2217 -0.4555
  178MOL0     C23396  11.710   3.438  -0.294  0.0096 -0.5552 -0.3221
  178MOL0     C23397  11.814   3.366  -0.359  0.4116  0.3982 -0.8292
  178MOL0     C23398  11.805   3.225  -0.365  0.8848  0.6762 -0.7309
  178MOL0     O23399  11.875   3.142  -0.453  0.9675  0.6539 -1.1054
  178MOL0     C23400  11.940   3.202  -0.561  0.8107 -0.2483  1.1047
  178MOL0     C23401  11.974   3.095  -0.675 -0.4451  0.3050  0.2860
  178MOL0     C23402  12.013   3.169  -0.800 -1.3258  0.3765 -0.0287
  178MOL0     C23403  12.052   3.073  -0.913  0.1310  0.4571 -0.6870
  178MOL0     C23404  12.126   3.133  -1.027 -0.2039 -0.6194  0.2763
  178MOL0     C23405  12.264   3.200  -0.997  0.0127  0.4498  0.1750
  178MOL0     C23406  12.357   3.230  -1.115  0.1167  0.9543  0.5332
  178MOL0     C23407  12.280   3.279  -1.244 -0.1919 -0.2485 -1.0997
  178MOL0    Cl23408  12.208   3.441  -1.200 -0.2480  0.3001 -0.3413
  178MOL0     C23409  11.711   3.156  -0.288  0.0311  0.0353  0.1111
  178MOL0     C23410  11.623   3.219  -0.210  0.2368  0.5421  0.4579
  178MOL0     O23411  11.431   3.530  -0.317  0.7438 -0.1100  0.3158
  178MOL0     C23412  11.239   3.669  -0.176 -0.4887 -0.3805  0.6628
  178MOL0     C23413  11.142   3.734  -0.106 -0.0619 -0.4319 -0.8201
  178MOL0     N23414  10.441   3.749   0.308 -0.0265  0.2155 -0.5025
  178MOL0     N23415  10.321   3.742   0.271  0.1348 -0.0135  0.6331
  178MOL0     C23416   9.611   3.720   0.781 -0.6549 -0.0580  0.0789
  178MOL0     C23417   9.558   3.799   0.874 -0.0598 -0.3515  0.0382
  178MOL0     C23418   9.547   3.982   1.290 -0.0757  0.3131  0.0676
  178MOL0     C23419   9.506   4.118   1.267 -0.8338  0.1799 -0.0571
  178MOL0     C23420   9.470   4.198   1.379 -0.7774  0.0906 -0.3719
  178MOL0     C23421   9.487   4.159   1.513 -0.7510  0.0493 -0.3600
  178MOL0     O23422   9.478   4.250   1.619 -0.6524  0.4773  0.0064
  178MOL0     C23423   9.495   4.197   1.754  0.6555  0.2175  0.4482
  178MOL0     C23424   9.500   4.315   1.848 -0.4008 -0.0914  0.6035
  178MOL0     C23425   9.621   4.404   1.802 -0.7978  0.0716  0.2536
  178MOL0     C23426   9.707   4.449   1.925  0.6575 -1.1311  0.9019
  178MOL0     C23427   9.630   4.550   2.006 -0.5072 -0.1945  0.5273
  178MOL0     C23428   9.558   4.612   2.087 -0.6660 -0.5016  0.4738
  178MOL0     C23429   9.518   4.023   1.532 -0.1239 -0.3681 -0.1063
  178MOL0     C23430   9.558   3.940   1.424 -0.1700 -0.1880 -0.3857
  178MOL0     H23431   9.832   3.976   0.976  0.2689  1.1992 -1.9422
  178MOL0     H23432   9.922   3.855   0.768 -0.6974  0.5813 -0.7480
  178MOL0     H23433   9.665   3.609   0.507 -1.6491 -1.5692  1.2664
  178MOL0     H23434   9.675   3.512   0.650 -0.5939 -0.2047  0.2339
  178MOL0     H23435   9.751   3.376   0.458  1.1800 -0.2261 -1.6926
  178MOL0     H23436   9.863   3.394   0.590 -2.0689 -1.9367 -0.0070
  178MOL0     H23437   9.982   3.576   0.439 -0.6973  1.5160 -2.6660
  178MOL0     H23438   9.847   3.550   0.329 -1.3952  0.1757  0.0990
  178MOL0     H23439  10.025   3.314   0.403 -1.9156  1.4546  1.0919
  178MOL0     H23440   9.914   3.342   0.265 -0.1468  0.3690 -0.7047
  178MOL0     H23441  10.180   3.363   0.244  1.9053  1.6494  0.9498
  178MOL0     H23442  10.162   3.521   0.298  2.5671 -0.6519 -1.5521
  178MOL0     H23443   9.972   3.546   0.112 -1.6032 -2.7720  1.7317
  178MOL0     H23444  10.011   3.399   0.050 -3.4830  3.1311 -2.3263
  178MOL0     H23445  10.265   3.477   0.032  0.3245  0.8586  1.8673
  178MOL0     H23446  10.137   3.536  -0.087 -1.6299 -2.6470 -0.0730
  178MOL0     H23447  10.128   3.742   0.076  0.1422  0.4370 -0.1043
  178MOL0     H23448  10.249   3.735  -0.048  1.3360  1.6985  0.6579
  178MOL0     H23449  10.488   3.646   0.004 -3.3760  3.0708 -3.1668
  178MOL0     H23450  10.730   3.648   0.145 -1.8867  1.2571 -1.5206
  178MOL0     H23451  10.720   3.655   0.320  1.3851 -0.6914 -0.5530
  178MOL0     H23452  10.676   3.919   0.280  1.9275 -1.2533  3.1291
  178MOL0     H23453  10.730   3.888   0.115 -1.3903  0.9379  0.9370
  178MOL0     H23454  10.908   3.958   0.240 -2.4557  0.2148 -2.5046
  178MOL0     H23455  10.882   3.845   0.381 -2.5914 -1.6495  0.4054
  178MOL0     H23456  10.964   3.663   0.262 -0.0304  0.0949  1.4653
  178MOL0     H23457  11.072   3.796   0.271 -1.0133 -1.2812  1.8639
  178MOL0     H23458  11.202   3.596   0.195  1.1689 -0.2861  0.1909
  178MOL0     H23459  11.375   3.486   0.076  2.3044  0.4152 -0.7552
  178MOL0     H23460  11.709   3.547  -0.291 -2.5214 -0.5060 -0.6338
  178MOL0     H23461  11.896   3.414  -0.412  2.5091  0.5985  2.3493
  178MOL0     H23462  12.030   3.258  -0.538  1.5420  1.2524 -4.1469
  178MOL0     H23463  11.868   3.269  -0.609 -0.0798 -0.8878  1.5067
  178MOL0     H23464  11.890   3.028  -0.693  0.6689 -0.2663 -3.8324
  178MOL0     H23465  12.062   3.033  -0.654 -0.0587 -0.2063 -2.4333
  178MOL0     H23466  12.098   3.235  -0.785  0.5709 -1.5963 -1.4209
  178MOL0     H23467  11.937   3.237  -0.838  0.8377  2.7923 -0.2606
  178MOL0     H23468  12.119   3.002  -0.864  1.0126  0.0307 -2.4432
  178MOL0     H23469  11.961   3.030  -0.956  0.0048  0.0680 -0.0363
  178MOL0     H23470  12.060   3.208  -1.071  1.9520  0.7131 -0.9105
  178MOL0     H23471  12.137   3.051  -1.099 -4.2844 -2.0820  1.1004
  178MOL0     H23472  12.322   3.139  -0.927  3.2818  2.9158 -0.1421
  178MOL0     H23473  12.245   3.285  -0.930 -0.3474 -1.8512  3.2275
  178MOL0     H23474  12.439   3.292  -1.077  0.0509  0.4926  1.4350
  178MOL0     H23475  12.388   3.128  -1.140 -1.1943  0.3209  1.4149
  178MOL0     H23476  12.190   3.220  -1.265  0.2103 -2.6997  2.9225
  178MOL0     H23477  12.342   3.288  -1.334  0.4599  1.5410 -0.5141
  178MOL0     H23478  11.717   3.048  -0.277  4.4542  0.1627  0.8871
  178MOL0     H23479  11.560   3.155  -0.149  0.3926  0.5876  0.6651
  178MOL0     H23480  11.253   3.682  -0.283 -0.3207  2.4902  0.9631
  178MOL0     H23481  11.074   3.791  -0.167  2.1878  2.6208 -0.7178
  178MOL0     H23482   9.551   3.647   0.727 -0.2191 -0.9372  0.7431
  178MOL0     H23483   9.452   3.804   0.895 -0.3265 -1.3471 -0.9902
  178MOL0     H23484   9.491   4.139   1.162  2.1831 -3.9664 -1.5994
  178MOL0     H23485   9.436   4.300   1.361 -0.4735 -0.3195 -3.8574
  178MOL0     H23486   9.593   4.148   1.756  1.3245  1.4800 -0.3411
  178MOL0     H23487   9.404   4.140   1.774  0.5352 -0.0596 -0.8094
  178MOL0     H23488   9.410   4.371   1.823  0.5161 -0.2440 -3.9473
  178MOL0     H23489   9.509   4.280   1.951 -2.9293  0.2482  0.9925
  178MOL0     H23490   9.580   4.493   1.753 -0.0692 -0.4757 -1.4371
  178MOL0     H23491   9.692   4.363   1.730  4.8271  3.1110  3.4189
  178MOL0     H23492   9.719   4.366   1.995 -2.4182 -2.1031  0.4118
  178MOL0     H23493   9.804   4.486   1.890  1.2600 -2.1211  1.4672
  178MOL0     H23494   9.490   4.661   2.153 -1.7325 -1.0258 -0.2227
  178MOL0     H23495   9.523   3.985   1.633 -0.2523  0.6615  0.2973
  178MOL0     H23496   9.591   3.840   1.452  3.9876  1.2499  0.7223
  179MOL0     O23497   1.068  10.196  11.064 -0.1557 -0.5737 -0.0008
  179MOL0     C23498   1.082  10.083  11.108  0.4796  0.7991 -0.6486
  179MOL0     O23499   1.194   9.999  11.083  1.2847 -0.0723  0.1812
  179MOL0     C23500   1.306  10.042  11.022  0.2830  0.4267  0.4073
  179MOL0     C23501   1.386   9.947  10.949 -0.3665  0.0991  0.6742
  179MOL0     C23502   1.499  10.002  10.891  0.2268 -0.0521  0.7965
  179MOL0     C23503   1.554  10.125  10.909 -0.8555  0.6110 -0.2261
  179MOL0     O23504   1.675  10.149  10.853 -0.0865  0.1765  0.0617
  179MOL0     C23505   1.698  10.280  10.794  0.9410 -0.4914 -0.7385
  179MOL0     C23506   1.782  10.282  10.664 -0.3879  0.6370 -0.0119
  179MOL0     C23507   1.800  10.431  10.615  0.3152 -1.0298 -0.0543
  179MOL0     C23508   1.899  10.419  10.501  0.0228  0.8506  1.1259
  179MOL0     C23509   1.924  10.557  10.431  1.0509  0.2025 -0.1286
  179MOL0     C23510   1.918  10.679  10.524 -0.8534  0.0240  0.2643
  179MOL0     C23511   1.949  10.815  10.449 -0.3910  0.1539  0.2543
  179MOL0     C23512   1.895  10.932  10.532 -0.5527 -0.0880 -1.0520
  179MOL0     N23513   1.964  10.949  10.660 -0.5108 -0.6785 -0.1263
  179MOL0     C23514   2.097  10.894  10.690 -0.0384 -0.6562  0.3290
  179MOL0     C23515   2.098  10.906  10.828 -0.8539  0.0283 -0.0246
  179MOL0     C23516   2.202  10.852  10.915  0.0187 -0.0290  0.2593
  179MOL0     C23517   2.257  10.949  11.024  0.0275  0.4848 -0.1753
  179MOL0     C23518   2.368  10.878  11.114 -0.8043  0.5396  0.7949
  179MOL0     C23519   2.439  10.971  11.223 -0.1909  0.0450  0.8269
  179MOL0     O23520   2.509  11.077  11.155  0.0177  0.4766  0.5920
  179MOL0     C23521   2.578  11.168  11.227  0.6846 -0.1258 -0.1160
  179MOL0     C23522   2.628  11.276  11.153  0.4543  0.8634 -0.4869
  179MOL0     C23523   2.700  11.380  11.217  0.0705 -0.0760  0.0787
  179MOL0     C23524   2.736  11.361  11.358  0.7636 -0.1835 -0.3503
  179MOL0     C23525   2.816  11.463  11.427 -0.6563  0.2941  0.5789
  179MOL0     O23526   2.893  11.551  11.354  0.3470 -0.0600 -0.2433
  179MOL0     C23527   2.955  11.652  11.419 -0.0958  0.0726 -0.7100
  179MOL0     C23528   2.884  11.737  11.503 -0.0157  0.5390 -0.2545
  179MOL0     C23529   2.947  11.849  11.563  0.5926  0.3573  0.0067
  179MOL0     C23530   3.088  11.871  11.531 -1.1103 -0.4192 -0.0912
  179MOL0     O23531   3.151  11.976  11.597  0.6638 -0.2592 -0.1760
  179MOL0     C23532   3.285  11.999  11.599  0.1424 -0.3230  0.0657
  179MOL0     C23533   3.365  11.905  11.695  0.4363  0.4511  0.0379
  179MOL0     C23534   3.525  11.935  11.682 -0.2334  0.3227 -0.6322
  179MOL0     C23535   3.578  11.890  11.816 -0.2406  0.5860  0.1744
  179MOL0     C23536   3.732  11.906  11.807  0.8328 -0.5071  0.1815
  179MOL0     C23537   3.779  11.838  11.935 -0.8783  1.3020 -0.2075
  179MOL0     C23538   3.913  11.902  11.973  0.1960 -0.9881  0.5494
  179MOL0     C23539   3.965  11.836  12.104  0.1698 -0.0347  0.8026
  179MOL0    Cl23540   4.131  11.884  12.144 -0.2161 -0.1702  0.1404
  179MOL0     C23541   3.156  11.781  11.449 -0.4506  0.3301 -0.6232
  179MOL0     C23542   3.096  11.674  11.390  0.8340 -0.3678  0.4946
  179MOL0     O23543   2.817  11.456  11.555  0.2497 -0.2716  0.9848
  179MOL0     C23544   2.696  11.240  11.421  0.0392  0.0384 -0.4675
  179MOL0     C23545   2.607  11.156  11.365  0.6177 -0.3775 -0.1760
  179MOL0     N23546   1.980  10.961  10.875 -0.3137 -0.3777  0.8612
  179MOL0     N23547   1.907  10.985  10.770 -0.2205  0.1580  0.4269
  179MOL0     C23548   1.476  10.214  10.983 -1.3297  0.1300 -1.1665
  179MOL0     C23549   1.356  10.178  11.041  0.5497  1.1151 -0.8132
  179MOL0     C23550   0.998  10.042  11.221  0.5656 -0.3291 -0.3792
  179MOL0     C23551   0.907  10.134  11.285 -0.4909  0.8411 -0.0084
  179MOL0     C23552   0.840  10.091  11.398  0.0622 -0.6387  0.0153
  179MOL0     C23553   0.839   9.959  11.440 -0.6601  0.4820  0.8900
  179MOL0     O23554   0.759   9.921  11.541 -0.0137 -0.7940  0.2707
  179MOL0     C23555   0.792   9.816  11.635  0.3225 -0.2909 -0.4156
  179MOL0     C23556   0.707   9.818  11.765 -0.3151  0.7897 -0.6635
  179MOL0     C23557   0.549   9.833  11.731 -0.3543 -0.2814 -0.1883
  179MOL0     C23558   0.452   9.831  11.848  0.0911  0.1381 -0.7579
  179MOL0     C23559   0.501   9.908  11.966 -0.5971  0.3293 -0.7367
  179MOL0     C23560   0.570   9.958  12.064  0.6540  0.4490 -1.0587
  179MOL0     C23561   0.913   9.860  11.362  0.5045 -0.5655  0.1517
  179MOL0     C23562   0.990   9.907  11.252  0.0527  0.0588  0.0502
  179MOL0     H23563   1.362   9.844  10.929  2.7608 -1.1980  2.8478
  179MOL0     H23564   1.556   9.935  10.827  1.4205 -0.0505  1.8010
  179MOL0     H23565   1.748  10.342  10.869  1.0476 -0.6146 -0.7083
  179MOL0     H23566   1.605  10.331  10.765 -0.8427 -2.5576  1.0257
  179MOL0     H23567   1.733  10.220  10.589  1.2316 -1.3903  0.5263
  179MOL0     H23568   1.878  10.235  10.689 -0.5217 -0.1337 -0.8920
  179MOL0     H23569   1.834  10.482  10.706  2.7246 -1.2740 -0.7617
  179MOL0     H23570   1.702  10.465  10.580 -0.0807 -2.7806 -0.7368
  179MOL0     H23571   1.991  10.365  10.522 -0.4805 -0.6105 -0.1962
  179MOL0     H23572   1.841  10.361  10.428  4.1068 -1.2709 -0.7798
  179MOL0     H23573   1.857  10.571  10.346  1.1923 -1.2374 -0.5036
  179MOL0     H23574   2.023  10.542  10.387  1.0662  1.8755 -0.7585
  179MOL0     H23575   1.983  10.663  10.610 -0.5259 -3.4557 -0.4739
  179MOL0     H23576   1.815  10.677  10.562 -0.0137 -3.0640  2.7922
  179MOL0     H23577   2.056  10.811  10.424 -1.0774 -1.0203 -3.0926
  179MOL0     H23578   1.906  10.820  10.348 -4.2296  4.0310  1.7757
  179MOL0     H23579   1.792  10.917  10.565  0.4315 -1.4133  1.6854
  179MOL0     H23580   1.908  11.022  10.470  2.7411  1.7344  1.8954
  179MOL0     H23581   2.167  10.830  10.637  0.7643 -1.2945  2.0775
  179MOL0     H23582   2.286  10.820  10.853 -1.0125 -3.5001  0.4013
  179MOL0     H23583   2.165  10.765  10.971 -1.1110  0.8070  0.8580
  179MOL0     H23584   2.180  10.970  11.098  0.2267  1.0124 -0.1112
  179MOL0     H23585   2.290  11.046  10.984 -0.6475 -0.0158 -2.0754
  179MOL0     H23586   2.332  10.795  11.176  0.9956 -0.8713  0.0220
  179MOL0     H23587   2.444  10.833  11.050  0.5670  0.4631  2.3998
  179MOL0     H23588   2.504  10.914  11.290 -0.3602  0.6784  1.5383
  179MOL0     H23589   2.367  11.018  11.290 -0.2136  1.2736 -0.0332
  179MOL0     H23590   2.609  11.288  11.047  2.7028 -4.1084 -1.7625
  179MOL0     H23591   2.737  11.461  11.154  2.2899 -0.4225  0.8473
  179MOL0     H23592   2.785  11.699  11.526  0.9257 -1.5974  0.5452
  179MOL0     H23593   2.886  11.907  11.632 -0.0785 -2.2337  1.7491
  179MOL0     H23594   3.310  12.094  11.647 -0.9563  0.7622 -1.4634
  179MOL0     H23595   3.330  12.007  11.500  2.4144  0.7909  1.1132
  179MOL0     H23596   3.339  11.801  11.672 -1.3333  0.5911  1.2522
  179MOL0     H23597   3.329  11.938  11.792  2.8842  1.8474  0.5566
  179MOL0     H23598   3.548  12.040  11.661  2.2058 -0.3574 -1.7692
  179MOL0     H23599   3.557  11.882  11.592 -0.3577 -1.5510  0.3862
  179MOL0     H23600   3.533  11.952  11.894  0.7259  2.2026 -0.4971
  179MOL0     H23601   3.556  11.784  11.834 -1.7514  1.0243  1.1204
  179MOL0     H23602   3.767  12.009  11.790 -1.2852  0.0728 -1.0622
  179MOL0     H23603   3.768  11.847  11.722  1.0317  1.5118 -1.2268
  179MOL0     H23604   3.778  11.729  11.921 -1.6994  1.2352  0.2857
  179MOL0     H23605   3.708  11.866  12.013 -1.1434  1.4874 -0.5081
  179MOL0     H23606   3.984  11.878  11.893  0.2331 -0.0811  0.2978
  179MOL0     H23607   3.911  12.011  11.976  1.2883 -0.9329 -0.0602
  179MOL0     H23608   3.961  11.728  12.093 -0.9481 -0.2077  2.4566
  179MOL0     H23609   3.905  11.869  12.190  0.4486 -0.2247  1.0745
  179MOL0     H23610   3.262  11.790  11.431  0.2377 -2.0503  1.6939
  179MOL0     H23611   3.147  11.598  11.331  0.5305  0.5831 -1.0450
  179MOL0     H23612   2.738  11.227  11.520  0.2163 -0.8684 -0.6482
  179MOL0     H23613   2.584  11.069  11.426 -0.5699 -1.4010 -1.9789
  179MOL0     H23614   1.525  10.307  11.012  0.7162 -1.0946 -0.4948
  179MOL0     H23615   1.302  10.237  11.113  1.1861  0.8604 -0.1127
  179MOL0     H23616   0.909  10.237  11.251 -0.2138  0.7463 -0.2817
  179MOL0     H23617   0.779  10.155  11.461  0.6595 -1.4233  1.4414
  179MOL0     H23618   0.896   9.828  11.668  0.0051  0.3607  0.3706
  179MOL0     H23619   0.769   9.720  11.588 -1.0244 -0.9145  1.4354
  179MOL0     H23620   0.723   9.730  11.828  0.2647  1.3575  0.0098
  179MOL0     H23621   0.743   9.904  11.823  1.2315 -0.7061  0.6911
  179MOL0     H23622   0.531   9.750  11.662  2.7953 -1.7811  0.5877
  179MOL0     H23623   0.539   9.922  11.668  1.7187  1.5216  1.8352
  179MOL0     H23624   0.351   9.862  11.820 -1.0339 -2.6828 -0.1759
  179MOL0     H23625   0.453   9.726  11.878  0.4441  0.4861  0.5147
  179MOL0     H23626   0.624   9.989  12.151 -1.2270  0.8352  0.0347
  179MOL0     H23627   0.911   9.752  11.374 -0.3154 -0.4453  1.2851
  179MOL0     H23628   1.045   9.827  11.203  2.0198  0.4578  1.5032
  180MOL0     O23629   0.097   0.869   4.252 -0.3980  0.4434  0.8029
  180MOL0     C23630   0.161   0.974   4.238 -0.6075  0.0250 -0.1370
  180MOL0     O23631   0.115   1.088   4.186  0.0660  0.4138 -0.2817
  180MOL0     C23632  -0.019   1.092   4.151  0.0525 -0.1276  1.0681
  180MOL0     C23633  -0.045   1.128   4.014  0.7111 -0.5027  0.8605
  180MOL0     C23634  -0.181   1.124   3.973  0.1467  1.0187  0.2806
  180MOL0     C23635  -0.280   1.096   4.063  0.2510  0.4873 -0.2002
  180MOL0     O23636  -0.407   1.086   4.007 -0.9084 -0.4277  0.3897
  180MOL0     C23637  -0.517   1.044   4.091  0.8900  0.7146  0.3168
  180MOL0     C23638  -0.657   1.024   4.019  0.7454 -0.2374 -0.1465
  180MOL0     C23639  -0.761   0.961   4.113 -0.4707  0.6945 -0.7207
  180MOL0     C23640  -0.889   0.907   4.045  0.6391 -0.5632 -0.1588
  180MOL0     C23641  -0.976   1.010   3.976 -0.3212  0.5780  0.5901
  180MOL0     C23642  -1.124   0.984   3.960 -0.6094  0.5574 -0.3226
  180MOL0     C23643  -1.154   0.831   3.924  0.3046 -0.0565  0.3482
  180MOL0     C23644  -1.300   0.804   3.891 -0.0121 -0.1525  0.1896
  180MOL0     N23645  -1.373   0.795   4.022  0.0048  0.4986  0.2363
  180MOL0     C23646  -1.446   0.909   4.069  0.0555  0.4342  0.3541
  180MOL0     C23647  -1.476   0.868   4.193 -1.3765 -0.3366 -0.4382
  180MOL0     C23648  -1.554   0.952   4.285 -0.1064 -0.0884 -0.3495
  180MOL0     C23649  -1.694   0.907   4.321  0.1372  0.1928  0.2118
  180MOL0     C23650  -1.784   0.906   4.201 -0.5715  0.0014 -0.8505
  180MOL0     C23651  -1.766   0.785   4.110  1.0755 -1.1723 -0.3887
  180MOL0     O23652  -1.887   0.769   4.034  0.2741  0.3551 -0.2770
  180MOL0     C23653  -2.001   0.723   4.097 -0.1854 -0.7923  0.4541
  180MOL0     C23654  -2.111   0.752   4.024 -0.4713  0.2105 -0.9779
  180MOL0     C23655  -2.239   0.714   4.071  0.0636  0.3234  0.8570
  180MOL0     C23656  -2.254   0.626   4.174  0.2071  0.4201 -0.8893
  180MOL0     C23657  -2.380   0.575   4.212 -0.7220  0.7434 -0.8661
  180MOL0     O23658  -2.383   0.514   4.333 -0.9458 -0.0043  0.0895
  180MOL0     C23659  -2.492   0.442   4.360 -0.0659 -0.1210 -0.0508
  180MOL0     C23660  -2.526   0.440   4.489  0.3380  0.1728 -0.8452
  180MOL0     C23661  -2.636   0.371   4.539 -0.3718 -0.6861  0.0090
  180MOL0     C23662  -2.717   0.306   4.457  0.9677  0.5908  0.4655
  180MOL0     O23663  -2.834   0.252   4.497 -1.0232  0.2865 -0.6668
  180MOL0     C23664  -2.919   0.330   4.579 -0.6137  0.3526 -0.2263
  180MOL0     C23665  -3.051   0.251   4.598  0.3022 -0.7100  0.2729
  180MOL0     C23666  -3.144   0.267   4.487  0.5029  0.5595  1.1269
  180MOL0     C23667  -3.256   0.155   4.486  0.5039  0.0652  0.1618
  180MOL0     C23668  -3.348   0.156   4.367 -0.8423  0.4349  0.0580
  180MOL0     C23669  -3.462   0.060   4.401 -0.4905  0.7873  0.5788
  180MOL0     C23670  -3.537  -0.015   4.279 -0.4902 -0.6601 -0.1992
  180MOL0     C23671  -3.579   0.080   4.158 -0.4354 -0.0537 -0.5897
  180MOL0    Cl23672  -3.743   0.160   4.192 -0.3656 -0.0640  0.3986
  180MOL0     C23673  -2.678   0.293   4.327  0.4139 -0.6260  0.4529
  180MOL0     C23674  -2.568   0.361   4.274  0.1794 -0.8623 -0.3123
  180MOL0     O23675  -2.476   0.597   4.138  0.8793 -1.0405 -0.2331
  180MOL0     C23676  -2.142   0.592   4.252  0.3981 -0.3555 -0.2221
  180MOL0     C23677  -2.012   0.643   4.217  0.3915 -0.6155  0.2576
  180MOL0     N23678  -1.401   0.752   4.226 -0.1944 -0.3237 -0.7768
  180MOL0     N23679  -1.358   0.701   4.121 -1.0056  0.0993  0.9329
  180MOL0     C23680  -0.250   1.069   4.197 -0.0159 -1.1188  0.1658
  180MOL0     C23681  -0.122   1.070   4.243  0.2133  0.4665  0.1504
  180MOL0     C23682   0.303   0.975   4.267 -0.5428 -0.2288 -0.6044
  180MOL0     C23683   0.380   1.099   4.264  0.1176  0.4528 -0.3491
  180MOL0     C23684   0.513   1.101   4.301  0.6110  0.2333  0.4857
  180MOL0     C23685   0.570   0.976   4.338  0.1736  0.0635 -0.5317
  180MOL0     O23686   0.706   0.975   4.375 -0.0648 -0.2750 -0.4399
  180MOL0     C23687   0.801   0.982   4.271 -0.3738  0.3559 -0.4982
  180MOL0     C23688   0.938   0.964   4.335 -0.1514 -0.2011 -0.5678
  180MOL0     C23689   0.974   1.057   4.456  1.1602  0.1900 -0.5284
  180MOL0     C23690   0.985   1.206   4.443  0.0032 -0.7354 -0.0386
  180MOL0     C23691   1.038   1.253   4.572 -0.2023  0.6602 -0.1196
  180MOL0     C23692   1.106   1.274   4.675 -0.4767  0.2088  0.8907
  180MOL0     C23693   0.496   0.857   4.353  0.3024  0.7338 -0.7201
  180MOL0     C23694   0.361   0.868   4.323  0.8306  0.5374 -0.7654
  180MOL0     H23695   0.031   1.146   3.940  0.7208 -1.3143  0.6573
  180MOL0     H23696  -0.209   1.141   3.870 -2.2915  0.2994  0.7744
  180MOL0     H23697  -0.541   1.126   4.160 -0.6689  0.4908  0.0829
  180MOL0     H23698  -0.495   0.951   4.143 -0.3835 -2.3821 -4.0450
  180MOL0     H23699  -0.635   0.951   3.941  1.4479  0.2061 -0.3706
  180MOL0     H23700  -0.688   1.115   3.966 -0.8827 -2.9018 -4.3239
  180MOL0     H23701  -0.790   1.028   4.195 -0.4183 -1.4091  1.1287
  180MOL0     H23702  -0.710   0.875   4.159  2.0652 -0.2019 -4.6965
  180MOL0     H23703  -0.853   0.846   3.962  2.0280  1.5718 -1.2234
  180MOL0     H23704  -0.948   0.847   4.115 -0.0260 -1.8138 -1.7301
  180MOL0     H23705  -0.931   1.038   3.881 -1.4796 -0.5980 -0.3450
  180MOL0     H23706  -0.957   1.098   4.038 -1.4269  2.1448 -1.1966
  180MOL0     H23707  -1.165   1.053   3.887 -1.0328  1.0689  0.3911
  180MOL0     H23708  -1.169   1.011   4.056 -1.7225  0.8175 -0.9064
  180MOL0     H23709  -1.096   0.801   3.836 -1.0660 -2.4592  0.1896
  180MOL0     H23710  -1.113   0.769   4.003  3.3259  1.2470 -0.0728
  180MOL0     H23711  -1.322   0.711   3.837  2.1843 -1.2650  1.0578
  180MOL0     H23712  -1.326   0.891   3.832  0.6110  1.3993  2.0843
  180MOL0     H23713  -1.479   1.004   4.028  0.8319  1.1782  1.3973
  180MOL0     H23714  -1.540   1.053   4.245  1.8568 -1.0446 -2.3756
  180MOL0     H23715  -1.496   0.932   4.375  0.0894 -2.8572 -0.9871
  180MOL0     H23716  -1.731   0.988   4.385 -3.4959 -0.4222 -0.8675
  180MOL0     H23717  -1.702   0.808   4.367  3.6229  0.2490  1.2068
  180MOL0     H23718  -1.883   0.905   4.248  0.1779  2.4435  1.0547
  180MOL0     H23719  -1.769   0.998   4.144 -0.3961 -0.7607 -2.0573
  180MOL0     H23720  -1.757   0.700   4.178 -1.0753 -0.4684  0.8637
  180MOL0     H23721  -1.678   0.798   4.046  0.8627 -0.8262 -0.6139
  180MOL0     H23722  -2.105   0.797   3.925 -0.5445  1.5987 -0.3675
  180MOL0     H23723  -2.318   0.764   4.017  2.2573  3.2663  0.1486
  180MOL0     H23724  -2.466   0.478   4.571  0.6453 -0.3029 -0.8473
  180MOL0     H23725  -2.667   0.382   4.642 -2.6392  2.0682 -0.8529
  180MOL0     H23726  -2.926   0.425   4.525  4.2866  0.9072 -0.3691
  180MOL0     H23727  -2.872   0.349   4.676 -1.1021 -1.6371  0.4483
  180MOL0     H23728  -3.103   0.294   4.684  2.3611 -0.1745  1.3195
  180MOL0     H23729  -3.026   0.144   4.604 -0.7721 -1.1049 -1.6395
  180MOL0     H23730  -3.088   0.251   4.395 -0.5327 -0.1777  0.6080
  180MOL0     H23731  -3.196   0.363   4.497  0.6394  0.9828 -1.5127
  180MOL0     H23732  -3.210   0.057   4.474  0.9800  0.6146 -4.3517
  180MOL0     H23733  -3.321   0.162   4.574 -1.7345 -0.6712 -1.3460
  180MOL0     H23734  -3.285   0.128   4.282 -0.8044  0.9159 -0.0747
  180MOL0     H23735  -3.387   0.256   4.344  0.1054  0.1995 -3.0627
  180MOL0     H23736  -3.533   0.124   4.454 -0.6444  0.9976  0.1246
  180MOL0     H23737  -3.433  -0.025   4.464 -0.4710 -1.2981 -2.0456
  180MOL0     H23738  -3.467  -0.089   4.239  0.8763 -1.1650  2.8195
  180MOL0     H23739  -3.618  -0.073   4.325 -0.4763 -0.2040  0.4038
  180MOL0     H23740  -3.572   0.033   4.059  1.7712  1.7913 -1.4116
  180MOL0     H23741  -3.499   0.151   4.136  0.1172 -1.3266 -3.0305
  180MOL0     H23742  -2.732   0.211   4.281 -0.7388  1.2612 -1.7352
  180MOL0     H23743  -2.524   0.349   4.176  0.2162 -1.2502 -0.2490
  180MOL0     H23744  -2.153   0.533   4.342  3.6163 -0.6520  0.0977
  180MOL0     H23745  -1.922   0.620   4.273  1.2056 -1.4214 -1.3216
  180MOL0     H23746  -0.337   1.039   4.254 -1.0777 -0.1306 -0.8972
  180MOL0     H23747  -0.093   1.035   4.341  0.5545  0.7954  0.1700
  180MOL0     H23748   0.336   1.191   4.227 -1.2801  0.3273  0.8937
  180MOL0     H23749   0.572   1.191   4.295  4.6238 -2.1797 -0.0577
  180MOL0     H23750   0.800   1.075   4.214 -0.1471  1.3264  1.0324
  180MOL0     H23751   0.782   0.900   4.201 -1.1140  0.0563  0.0304
  180MOL0     H23752   0.941   0.858   4.362  3.9665 -0.2373 -0.4408
  180MOL0     H23753   1.016   0.976   4.259  2.5692 -1.6422  1.7782
  180MOL0     H23754   1.074   1.026   4.489  0.4892  2.1552  4.0855
  180MOL0     H23755   0.920   1.018   4.543  2.1791  2.1747  1.0910
  180MOL0     H23756   1.057   1.224   4.362  1.4142 -1.4221  1.0168
  180MOL0     H23757   0.888   1.246   4.411 -0.6874 -0.2440  2.4651
  180MOL0     H23758   1.148   1.285   4.773 -0.0883  1.9904  0.5623
  180MOL0     H23759   0.534   0.761   4.385  0.6749  0.8689 -0.7605
  180MOL0     H23760   0.304   0.776   4.335  2.0389  0.1200  3.7071
  181MOL0     O23761  10.698   9.886  10.989  0.4489  0.0983 -0.5864
  181MOL0     C23762  10.659  10.001  10.979 -1.2391  0.7153 -0.4471
  181MOL0     O23763  10.594  10.074  11.069  0.2020  0.2175 -1.4818
  181MOL0     C23764  10.586  10.020  11.199  1.2328  0.0496 -0.1452
  181MOL0     C23765  10.477  10.059  11.272  0.0330  0.7033 -0.0226
  181MOL0     C23766  10.462  10.008  11.398  0.9416  0.5065 -0.4555
  181MOL0     C23767  10.550   9.921  11.462  0.2518 -0.0119  0.8195
  181MOL0     O23768  10.519   9.874  11.587  0.2804 -0.3553 -0.7872
  181MOL0     C23769  10.559   9.744  11.612  0.6862  1.1337 -0.4793
  181MOL0     C23770  10.489   9.719  11.743 -0.3960 -0.2105  0.6948
  181MOL0     C23771  10.523   9.577  11.809  0.1004  1.0300 -0.1920
  181MOL0     C23772  10.677   9.545  11.835  0.5692 -0.0650 -0.6576
  181MOL0     C23773  10.704   9.428  11.925  0.1571 -0.8561 -0.2383
  181MOL0     C23774  10.639   9.299  11.874 -0.8566  1.0241  0.9454
  181MOL0     C23775  10.659   9.183  11.977  0.0045 -0.1490 -0.5162
  181MOL0     C23776  10.556   9.188  12.098 -0.2407  0.0593 -0.5141
  181MOL0     N23777  10.557   9.060  12.170  0.6214 -0.9505 -0.4029
  181MOL0     C23778  10.613   9.025  12.292  0.1496 -1.6639 -0.4642
  181MOL0     C23779  10.569   8.900  12.320  0.6913  0.5438 -0.3385
  181MOL0     C23780  10.592   8.837  12.463  0.5990  0.4319  0.2653
  181MOL0     C23781  10.702   8.723  12.449  0.5061  0.6829 -0.7130
  181MOL0     C23782  10.659   8.592  12.377 -0.6233  0.5121  0.1085
  181MOL0     C23783  10.793   8.521  12.345 -0.5496 -0.1602 -0.6434
  181MOL0     O23784  10.877   8.507  12.470  0.2494  0.0467  0.0221
  181MOL0     C23785  10.996   8.450  12.459  0.3597 -0.6810  1.2680
  181MOL0     C23786  11.046   8.408  12.338  0.3069  0.2094  0.3269
  181MOL0     C23787  11.174   8.360  12.329 -0.1931  0.1044  0.2160
  181MOL0     C23788  11.261   8.361  12.434 -0.0690 -0.3258 -0.3777
  181MOL0     C23789  11.399   8.303  12.424 -0.2252  0.7655  0.3672
  181MOL0     O23790  11.488   8.332  12.526  0.7367 -0.5094  0.0867
  181MOL0     C23791  11.611   8.288  12.530  1.0210  0.1434 -1.4035
  181MOL0     C23792  11.710   8.386  12.507  0.1394 -0.4731 -0.4642
  181MOL0     C23793  11.848   8.348  12.492  0.1300  0.3760 -0.5893
  181MOL0     C23794  11.883   8.215  12.512 -1.1743 -0.7680 -0.1460
  181MOL0     O23795  12.020   8.189  12.492  0.2247  0.1267 -0.1835
  181MOL0     C23796  12.049   8.048  12.469  0.8104  0.0426 -0.6520
  181MOL0     C23797  12.193   8.031  12.433  0.8078 -0.0551  1.0336
  181MOL0     C23798  12.296   8.021  12.541  0.6228 -0.9825 -0.3518
  181MOL0     C23799  12.428   7.941  12.513 -0.0746  0.6190 -0.9732
  181MOL0     C23800  12.527   7.952  12.630  0.0997  0.1372 -0.7837
  181MOL0     C23801  12.666   7.907  12.580  0.5825  0.0041  0.0439
  181MOL0     C23802  12.688   7.759  12.587  0.2653 -0.2456 -0.7505
  181MOL0     C23803  12.830   7.720  12.565 -0.0276 -0.7757 -1.2608
  181MOL0    Cl23804  12.941   7.789  12.683  0.0968 -0.1090  0.0237
  181MOL0     C23805  11.788   8.123  12.566  0.6574 -0.0345  0.1750
  181MOL0     C23806  11.653   8.163  12.571 -0.2983 -0.4230  0.7116
  181MOL0     O23807  11.428   8.231  12.323 -0.0559  0.4241 -0.1068
  181MOL0     C23808  11.214   8.417  12.553 -0.3822 -0.3472 -0.6729
  181MOL0     C23809  11.079   8.456  12.569 -0.1925  0.2179 -0.1809
  181MOL0     N23810  10.483   8.858  12.221 -0.4141  0.2270 -0.0812
  181MOL0     N23811  10.478   8.952  12.123  0.7002 -0.4821 -0.8905
  181MOL0     C23812  10.666   9.895  11.392 -0.3039  0.1323 -1.0771
  181MOL0     C23813  10.684   9.939  11.263  0.1962  0.0574  0.4065
  181MOL0     C23814  10.707  10.068  10.857  0.4635 -0.1355  0.2176
  181MOL0     C23815  10.749  10.206  10.871 -0.2582 -0.8541 -0.8630
  181MOL0     C23816  10.803  10.278  10.768  0.6992  0.0563  0.1949
  181MOL0     C23817  10.817  10.216  10.642  0.2364  0.2343  0.3946
  181MOL0     O23818  10.872  10.293  10.543 -0.4872  0.0823 -1.1316
  181MOL0     C23819  10.906  10.226  10.417  0.4378  0.2156 -0.7167
  181MOL0     C23820  10.954  10.318  10.319 -0.1003 -0.2297  0.0965
  181MOL0     C23821  11.099  10.363  10.352  0.7303  0.1313  0.4989
  181MOL0     C23822  11.187  10.398  10.231  0.1755  1.2797  0.5448
  181MOL0     C23823  11.301  10.475  10.277 -0.2298  1.2046  0.6783
  181MOL0     C23824  11.401  10.520  10.306 -0.0692  0.9888  0.5385
  181MOL0     C23825  10.778  10.076  10.626  0.1208  0.0147 -0.5542
  181MOL0     C23826  10.723  10.005  10.729 -0.3636  0.2854  0.3541
  181MOL0     H23827  10.405  10.117  11.215  0.6431 -2.5345 -4.6058
  181MOL0     H23828  10.363  10.006  11.443  0.8039 -3.2465 -0.6073
  181MOL0     H23829  10.667   9.739  11.633 -0.0106 -2.8193  3.7101
  181MOL0     H23830  10.528   9.683  11.527 -2.0687 -0.1894  1.3443
  181MOL0     H23831  10.384   9.715  11.714 -0.6915  2.0339  1.2422
  181MOL0     H23832  10.507   9.792  11.823  1.5203 -0.9413  1.0034
  181MOL0     H23833  10.507   9.509  11.725  0.3188 -1.8776  1.9744
  181MOL0     H23834  10.456   9.545  11.889  2.0746 -1.8691  0.4778
  181MOL0     H23835  10.722   9.537  11.735 -0.1501 -0.2699 -0.9680
  181MOL0     H23836  10.706   9.637  11.887 -3.0901  0.8123  0.1127
  181MOL0     H23837  10.647   9.456  12.013 -2.8437  3.2473 -3.0779
  181MOL0     H23838  10.810   9.437  11.948 -0.4169 -1.3836  3.0216
  181MOL0     H23839  10.689   9.273  11.780  1.5895  3.5402  1.4110
  181MOL0     H23840  10.531   9.302  11.854 -0.5183 -1.4118 -2.1788
  181MOL0     H23841  10.641   9.085  11.932  0.5817 -0.0219 -1.0556
  181MOL0     H23842  10.763   9.184  12.012  1.1735  1.0679 -3.6619
  181MOL0     H23843  10.451   9.201  12.071 -1.4795 -1.8022  2.7210
  181MOL0     H23844  10.582   9.269  12.167  2.8260 -0.8059 -0.4828
  181MOL0     H23845  10.676   9.085  12.357  0.5411 -0.7020 -1.7041
  181MOL0     H23846  10.498   8.803  12.506 -0.5742 -0.8155 -2.9690
  181MOL0     H23847  10.640   8.911  12.529  3.4590 -0.5738 -0.5246
  181MOL0     H23848  10.722   8.696  12.553  2.4752  1.8538 -0.7192
  181MOL0     H23849  10.799   8.761  12.415  0.6989  0.8382 -0.0200
  181MOL0     H23850  10.600   8.528  12.443 -1.0035 -0.2930 -0.9865
  181MOL0     H23851  10.603   8.623  12.288 -1.0164  0.3469  0.2977
  181MOL0     H23852  10.846   8.577  12.267 -0.8943  3.9274  1.7497
  181MOL0     H23853  10.777   8.416  12.319  2.2849 -1.4352  2.0429
  181MOL0     H23854  10.987   8.409  12.248  1.0197  3.9184 -0.2408
  181MOL0     H23855  11.202   8.327  12.229 -2.7444  2.8961 -1.5962
  181MOL0     H23856  11.670   8.485  12.487  0.3089 -0.5847 -1.4171
  181MOL0     H23857  11.935   8.409  12.470 -1.0688  2.1275 -0.6852
  181MOL0     H23858  11.988   8.013  12.386 -2.2151  3.0300  0.1119
  181MOL0     H23859  12.027   7.994  12.562 -0.1910  2.3763  0.5328
  181MOL0     H23860  12.216   8.110  12.360 -1.7313  0.1865  0.3637
  181MOL0     H23861  12.189   7.939  12.375 -0.7905  1.4657 -1.5129
  181MOL0     H23862  12.254   7.969  12.628  1.8655 -0.5715  0.5203
  181MOL0     H23863  12.313   8.127  12.562  2.9160 -0.8417 -2.4335
  181MOL0     H23864  12.403   7.838  12.488 -2.4792  0.5705  1.2288
  181MOL0     H23865  12.481   7.988  12.430  1.5092  2.4835  0.9565
  181MOL0     H23866  12.496   7.891  12.716 -0.1531 -1.6508 -2.0962
  181MOL0     H23867  12.524   8.054  12.670 -0.4821 -0.6050  1.1750
  181MOL0     H23868  12.734   7.950  12.654 -1.2184  0.6100  1.4275
  181MOL0     H23869  12.699   7.947  12.483  0.7934 -2.8117 -1.1218
  181MOL0     H23870  12.663   7.732  12.690 -3.3758  1.9925 -0.8423
  181MOL0     H23871  12.624   7.710  12.513 -2.0810  0.7542  0.4954
  181MOL0     H23872  12.865   7.762  12.469 -0.8704 -0.5670 -1.4861
  181MOL0     H23873  12.839   7.612  12.575  0.3690 -0.5093  2.4783
  181MOL0     H23874  11.811   8.029  12.616  5.6268  0.8004 -0.0710
  181MOL0     H23875  11.577   8.095  12.609  0.0796 -1.6635 -0.6900
  181MOL0     H23876  11.284   8.431  12.635 -2.4858 -0.3867  1.2236
  181MOL0     H23877  11.054   8.488  12.669 -0.9296 -0.3048 -0.1878
  181MOL0     H23878  10.736   9.824  11.436 -0.0905  0.5948 -0.6640
  181MOL0     H23879  10.774   9.912  11.209 -0.6641 -0.9398 -0.6046
  181MOL0     H23880  10.752  10.254  10.968  1.0255 -0.9007 -0.8574
  181MOL0     H23881  10.842  10.379  10.781  0.6179  0.0196  0.7278
  181MOL0     H23882  10.818  10.168  10.389  0.1319 -1.7995  3.6301
  181MOL0     H23883  10.977  10.148  10.446 -0.3279 -0.4019 -0.4663
  181MOL0     H23884  10.958  10.286  10.214 -1.0415  0.6099 -0.2155
  181MOL0     H23885  10.901  10.413  10.310  2.5572  1.4439  0.8089
  181MOL0     H23886  11.149  10.294  10.420 -1.5688 -1.1348  1.0150
  181MOL0     H23887  11.105  10.458  10.408  0.4077  2.1120 -2.5828
  181MOL0     H23888  11.222  10.308  10.181 -2.0153  1.3335 -1.2540
  181MOL0     H23889  11.128  10.457  10.160 -3.1661 -0.4671  1.6623
  181MOL0     H23890  11.501  10.558  10.305  0.4276 -0.2489  1.2683
  181MOL0     H23891  10.802  10.015  10.540 -0.9341  1.8837 -2.2685
  181MOL0     H23892  10.687   9.904  10.714 -3.6221  1.1060  1.8428
  182MOL0     O23893   2.617  10.164   5.631  0.4467 -0.5993 -0.6377
  182MOL0     C23894   2.664  10.271   5.670  0.1381  0.6354  1.1922
  182MOL0     O23895   2.627  10.398   5.642 -0.1137  0.1710 -0.1541
  182MOL0     C23896   2.517  10.425   5.566 -0.1625  0.1364  0.4839
  182MOL0     C23897   2.528  10.526   5.468  0.6323  0.6662  0.4169
  182MOL0     C23898   2.422  10.552   5.383  0.8440 -0.4212 -0.7122
  182MOL0     C23899   2.291  10.504   5.416  0.2913  0.2393  0.6744
  182MOL0     O23900   2.180  10.548   5.344  0.0612  0.7263 -0.2130
  182MOL0     C23901   2.143  10.680   5.388 -0.7722 -1.2598  0.5233
  182MOL0     C23902   2.023  10.736   5.307  0.7071  0.2516  0.2475
  182MOL0     C23903   1.892  10.648   5.341  0.6332  0.4531 -0.0234
  182MOL0     C23904   1.761  10.709   5.296  0.4627 -0.5352 -0.3467
  182MOL0     C23905   1.650  10.624   5.330  0.8699  0.9558  0.4529
  182MOL0     C23906   1.530  10.692   5.267 -0.2626 -0.4591 -0.3103
  182MOL0     C23907   1.398  10.652   5.342 -0.4742  0.1617  0.8300
  182MOL0     C23908   1.393  10.730   5.472 -0.7207 -0.9807  0.4780
  182MOL0     N23909   1.271  10.683   5.546 -0.2347 -0.3175 -0.6963
  182MOL0     C23910   1.154  10.752   5.538 -0.3512  0.1990  0.5573
  182MOL0     C23911   1.066  10.672   5.601 -0.7484 -0.4411  0.6777
  182MOL0     C23912   0.914  10.686   5.591 -0.1161 -1.4244  0.6539
  182MOL0     C23913   0.848  10.642   5.720 -0.5232 -0.2860 -0.0960
  182MOL0     C23914   0.697  10.625   5.680  0.8473  0.9198  0.5247
  182MOL0     C23915   0.612  10.580   5.796  1.6840  0.4643  0.1653
  182MOL0     O23916   0.472  10.564   5.765  0.1960 -0.7430 -0.5917
  182MOL0     C23917   0.414  10.436   5.789  1.3187  0.5821  0.4743
  182MOL0     C23918   0.332  10.390   5.688  0.2190 -0.5059  0.2037
  182MOL0     C23919   0.270  10.268   5.694  0.0393  0.5411 -0.3572
  182MOL0     C23920   0.298  10.179   5.797 -0.6514  0.2142 -0.6055
  182MOL0     C23921   0.231  10.041   5.805 -0.6870  0.4073 -0.8853
  182MOL0     O23922   0.144   9.999   5.713 -0.1017 -0.0906 -0.0359
  182MOL0     C23923   0.125   9.861   5.705 -0.5140 -0.1096 -0.3741
  182MOL0     C23924   0.047   9.801   5.801 -0.2549 -0.6684  0.0013
  182MOL0     C23925   0.026   9.668   5.787 -0.9264  0.2889  0.0984
  182MOL0     C23926   0.085   9.600   5.678  0.2931  0.8311  0.5295
  182MOL0     O23927   0.071   9.462   5.665  0.0074 -0.1535 -0.2839
  182MOL0     C23928   0.083   9.383   5.782  0.4079  0.1368 -0.1198
  182MOL0     C23929   0.034   9.234   5.757  1.3815 -0.1657  0.6554
  182MOL0     C23930  -0.120   9.230   5.715  0.7102 -0.1367  0.7430
  182MOL0     C23931  -0.236   9.285   5.802  0.1551 -0.7252  0.1564
  182MOL0     C23932  -0.371   9.257   5.731  0.3424 -0.0249 -0.7399
  182MOL0     C23933  -0.485   9.332   5.808  0.3963 -0.1368 -0.7291
  182MOL0     C23934  -0.510   9.272   5.955 -0.4357  0.4759 -0.4708
  182MOL0     C23935  -0.579   9.134   5.933 -0.1105  0.8676 -0.4765
  182MOL0    Cl23936  -0.624   9.076   6.096 -0.3636 -0.0425 -0.1236
  182MOL0     C23937   0.152   9.658   5.582 -0.2695 -0.0862 -0.0816
  182MOL0     C23938   0.155   9.795   5.589  0.2457  0.6488  1.0648
  182MOL0     O23939   0.275   9.964   5.894  0.4431 -0.8614  0.0171
  182MOL0     C23940   0.382  10.225   5.901 -0.6653 -0.7901 -0.3593
  182MOL0     C23941   0.443  10.353   5.901 -0.3273 -0.1291  0.1956
  182MOL0     N23942   1.135  10.560   5.642  0.8289  1.1888  0.2425
  182MOL0     N23943   1.252  10.563   5.595  0.3001  0.5029  1.2118
  182MOL0     C23944   2.280  10.414   5.520  0.0617  0.2360 -0.0067
  182MOL0     C23945   2.391  10.370   5.594 -0.6571 -0.3538  0.6530
  182MOL0     C23946   2.764  10.254   5.787  1.2855 -0.5028 -0.1711
  182MOL0     C23947   2.821  10.360   5.856  0.0705  0.5901  0.1229
  182MOL0     C23948   2.913  10.328   5.959  0.3568  0.2831 -0.4619
  182MOL0     C23949   2.949  10.197   5.990  0.3968  0.4579  0.5635
  182MOL0     O23950   3.046  10.185   6.090  1.1000  0.3482 -0.2352
  182MOL0     C23951   3.159  10.115   6.072 -0.9179  1.3755 -0.0419
  182MOL0     C23952   3.288  10.199   6.063 -0.1358 -0.6979  0.7127
  182MOL0     C23953   3.304  10.266   5.927  0.7540 -0.4917 -0.0418
  182MOL0     C23954   3.426  10.354   5.937 -0.5998 -0.5242  0.2829
  182MOL0     C23955   3.444  10.432   5.809 -0.4619  0.5424 -0.1535
  182MOL0     C23956   3.440  10.504   5.704 -1.3939 -0.1030  1.0079
  182MOL0     C23957   2.906  10.089   5.916  0.7304 -0.7955  0.6845
  182MOL0     C23958   2.805  10.121   5.818 -0.0344 -0.3659 -0.0359
  182MOL0     H23959   2.622  10.577   5.447  0.2290  1.4553  0.5051
  182MOL0     H23960   2.428  10.614   5.293 -0.1039  4.2068  2.0823
  182MOL0     H23961   2.224  10.753   5.379  0.1068 -2.2571  0.0456
  182MOL0     H23962   2.098  10.667   5.487 -5.7044 -4.5060 -1.7244
  182MOL0     H23963   2.041  10.734   5.199 -3.2869 -0.5809 -0.5524
  182MOL0     H23964   2.000  10.841   5.332  1.1498 -0.1575  2.6387
  182MOL0     H23965   1.880  10.616   5.445  0.3244  0.0831 -0.1693
  182MOL0     H23966   1.910  10.554   5.288 -0.7694  0.2723 -0.2203
  182MOL0     H23967   1.743  10.807   5.341 -1.9937  0.4641 -3.1893
  182MOL0     H23968   1.770  10.715   5.187  3.0280 -1.2965 -0.2376
  182MOL0     H23969   1.637  10.610   5.438 -2.5778 -1.4245 -0.1013
  182MOL0     H23970   1.671  10.523   5.293  2.8178  1.7968 -0.8745
  182MOL0     H23971   1.537  10.661   5.162  1.3459 -2.2494  0.2566
  182MOL0     H23972   1.533  10.801   5.269 -4.8045 -0.1489  2.4331
  182MOL0     H23973   1.313  10.678   5.278 -1.2974 -0.1979  1.7466
  182MOL0     H23974   1.384  10.546   5.362 -2.6864  0.3632  0.5629
  182MOL0     H23975   1.396  10.840   5.467  4.2564 -0.9620 -2.0326
  182MOL0     H23976   1.485  10.712   5.527  0.6828  1.2140 -0.9762
  182MOL0     H23977   1.133  10.836   5.473  3.4719  2.0408  1.3973
  182MOL0     H23978   0.877  10.622   5.510 -3.6900  1.4633 -0.2576
  182MOL0     H23979   0.892  10.788   5.557 -0.6242 -1.3039  1.3412
  182MOL0     H23980   0.870  10.715   5.799 -3.1418 -2.3416  2.7758
  182MOL0     H23981   0.892  10.545   5.745  4.9827  1.7676 -0.2255
  182MOL0     H23982   0.659  10.722   5.647  1.6800  0.4090 -2.1757
  182MOL0     H23983   0.697  10.562   5.590  5.9385  1.1759  0.0458
  182MOL0     H23984   0.616  10.658   5.873 -1.0802  0.2303  0.6352
  182MOL0     H23985   0.662  10.495   5.843  1.9815  1.0484  0.9254
  182MOL0     H23986   0.310  10.459   5.607 -0.3171  0.3261  1.0291
  182MOL0     H23987   0.201  10.223   5.623 -3.0326 -0.7539  3.0906
  182MOL0     H23988   0.016   9.861   5.886  5.2627  2.4161  0.3161
  182MOL0     H23989  -0.041   9.617   5.857 -0.8443 -2.2746 -1.5484
  182MOL0     H23990   0.013   9.419   5.858  1.0564 -1.0300  1.0556
  182MOL0     H23991   0.182   9.367   5.825 -0.7711 -3.8093  1.6068
  182MOL0     H23992   0.051   9.175   5.848 -0.1903  0.2093  1.2353
  182MOL0     H23993   0.099   9.183   5.686 -2.2297 -0.6425 -2.6996
  182MOL0     H23994  -0.132   9.126   5.683  1.9241 -0.2895  0.7589
  182MOL0     H23995  -0.144   9.281   5.621  0.0586  0.5085  1.2493
  182MOL0     H23996  -0.221   9.241   5.901  2.2579  0.0403  0.2424
  182MOL0     H23997  -0.212   9.392   5.804  0.2472 -0.7205 -0.6295
  182MOL0     H23998  -0.403   9.153   5.726  1.2044 -0.3055 -0.6594
  182MOL0     H23999  -0.366   9.288   5.626  0.1552  1.8772 -0.2191
  182MOL0     H24000  -0.581   9.328   5.756 -2.2766 -2.1495  3.7591
  182MOL0     H24001  -0.466   9.439   5.818 -1.8044  0.1408  1.7281
  182MOL0     H24002  -0.416   9.261   6.010 -0.2697  0.5185 -0.7435
  182MOL0     H24003  -0.578   9.331   6.017  1.1315 -0.0285  1.8244
  182MOL0     H24004  -0.510   9.063   5.886  0.7588  0.6203  1.1201
  182MOL0     H24005  -0.669   9.141   5.871 -1.8518  0.7947  1.9277
  182MOL0     H24006   0.192   9.607   5.495 -2.3810  0.3406 -1.3614
  182MOL0     H24007   0.189   9.854   5.504  0.8433 -0.2893  0.6289
  182MOL0     H24008   0.403  10.170   5.992  1.8203 -0.0879 -0.4493
  182MOL0     H24009   0.501  10.405   5.977  2.5285  0.2749 -2.0644
  182MOL0     H24010   2.190  10.356   5.540  0.6204 -0.8122 -0.4293
  182MOL0     H24011   2.382  10.282   5.656  1.0620 -3.0101 -2.5200
  182MOL0     H24012   2.786  10.461   5.836 -1.4995  0.6171  2.5341
  182MOL0     H24013   2.967  10.399   6.021  4.7048  0.0751 -3.6052
  182MOL0     H24014   3.159  10.048   5.986 -1.1605  1.7719 -0.3516
  182MOL0     H24015   3.174  10.055   6.162 -0.5110  1.0419 -0.3323
  182MOL0     H24016   3.286  10.265   6.150  0.3138 -0.0370  0.2301
  182MOL0     H24017   3.377  10.136   6.071  0.4721 -0.6929 -3.6488
  182MOL0     H24018   3.215  10.322   5.900 -0.5954 -1.1568  2.6938
  182MOL0     H24019   3.321  10.190   5.850  2.6880  0.3495 -0.5061
  182MOL0     H24020   3.405  10.430   6.013  1.3553  1.2141 -0.8297
  182MOL0     H24021   3.522  10.306   5.956  1.5865  3.1221 -0.6129
  182MOL0     H24022   3.438  10.562   5.614 -3.2442 -1.1321  0.3370
  182MOL0     H24023   2.928   9.985   5.936 -0.4231 -0.7163  2.5854
  182MOL0     H24024   2.776  10.029   5.769  1.8598  0.4524 -2.9290
  183MOL0     O24025   1.493   8.673   4.151  0.1480  0.1091  0.9824
  183MOL0     C24026   1.526   8.623   4.041 -0.3609 -0.6051 -0.2693
  183MOL0     O24027   1.439   8.571   3.944 -0.3508 -0.8484 -0.3972
  183MOL0     C24028   1.308   8.608   3.953  0.9492 -1.1672 -0.9193
  183MOL0     C24029   1.216   8.506   3.946 -0.1420  0.0358 -0.4814
  183MOL0     C24030   1.082   8.553   3.948  0.7642  0.1836 -0.7477
  183MOL0     C24031   1.037   8.683   3.953  0.3889  0.2584  0.5907
  183MOL0     O24032   0.906   8.722   3.923 -0.4445 -0.3200  0.5654
  183MOL0     C24033   0.859   8.713   3.792  0.5848  0.7420  0.1887
  183MOL0     C24034   0.931   8.808   3.700 -0.1697 -0.6324  0.6409
  183MOL0     C24035   0.876   8.815   3.559 -0.2872 -0.4446 -1.0804
  183MOL0     C24036   0.923   8.944   3.494  0.3116 -1.0157  0.1098
  183MOL0     C24037   0.856   8.946   3.354  0.2265 -0.0922 -0.0163
  183MOL0     C24038   0.872   9.088   3.284 -0.6988  0.5633 -0.4316
  183MOL0     C24039   0.945   9.091   3.147 -0.1003 -0.2834 -0.1136
  183MOL0     C24040   0.861   9.027   3.018 -0.8647  0.1261 -0.9598
  183MOL0     N24041   0.844   8.885   3.028  0.1674 -0.0348  0.3414
  183MOL0     C24042   0.928   8.794   2.975 -0.0299  1.5003 -0.7969
  183MOL0     C24043   0.877   8.667   2.995 -0.9620  0.4750  0.4119
  183MOL0     C24044   0.924   8.528   2.964 -0.8920  0.5816 -0.0604
  183MOL0     C24045   0.844   8.481   2.844 -0.7139  0.9174  0.6656
  183MOL0     C24046   0.924   8.391   2.759  0.3875 -0.3684  0.0391
  183MOL0     C24047   1.031   8.467   2.687 -0.9529 -0.4704  0.5854
  183MOL0     O24048   0.984   8.575   2.598 -0.1335 -0.0445 -0.1763
  183MOL0     C24049   1.074   8.679   2.576 -0.2604 -0.0564  0.4905
  183MOL0     C24050   1.020   8.788   2.505 -0.4347 -0.3953  0.4507
  183MOL0     C24051   1.086   8.912   2.505  0.4402  0.8250  0.1680
  183MOL0     C24052   1.216   8.918   2.542  0.6884  0.0271 -0.4429
  183MOL0     C24053   1.299   9.035   2.499 -0.4649 -0.3006  0.0333
  183MOL0     O24054   1.228   9.148   2.469  0.2116 -0.8451 -0.0909
  183MOL0     C24055   1.299   9.271   2.469 -0.3479  0.1227  0.3740
  183MOL0     C24056   1.336   9.337   2.579  0.0473 -0.8975  0.1212
  183MOL0     C24057   1.394   9.459   2.583 -0.1460 -0.5191  0.4455
  183MOL0     C24058   1.447   9.509   2.468 -0.0077  0.2656  1.0594
  183MOL0     O24059   1.516   9.626   2.475 -0.3193  0.5765  0.2684
  183MOL0     C24060   1.581   9.673   2.350 -0.2409  0.2130  0.1522
  183MOL0     C24061   1.648   9.811   2.371 -0.2489 -0.0453 -1.0983
  183MOL0     C24062   1.542   9.927   2.375  0.2019  0.4587 -0.7069
  183MOL0     C24063   1.602  10.068   2.349 -0.5764 -0.0312 -0.3142
  183MOL0     C24064   1.708  10.112   2.446 -1.0722  0.4691  0.7479
  183MOL0     C24065   1.776  10.245   2.416  0.6036 -0.6470  0.2886
  183MOL0     C24066   1.863  10.287   2.532 -0.4791  0.2857 -0.6527
  183MOL0     C24067   2.007  10.340   2.494 -0.7211 -0.0048  0.1684
  183MOL0    Cl24068   2.015  10.444   2.339 -0.4070  0.0819  0.2040
  183MOL0     C24069   1.433   9.430   2.356  0.3147 -0.2351  0.9307
  183MOL0     C24070   1.348   9.317   2.358  0.0895 -0.0764 -0.6492
  183MOL0     O24071   1.424   9.028   2.499 -0.3683 -0.0650 -0.0286
  183MOL0     C24072   1.277   8.816   2.610  0.2800  0.3514 -0.5828
  183MOL0     C24073   1.208   8.691   2.618 -0.8684  0.9534  0.2545
  183MOL0     N24074   0.752   8.685   3.058 -0.6106 -0.6842  1.1146
  183MOL0     N24075   0.730   8.817   3.066 -0.5109  0.5533  0.5320
  183MOL0     C24076   1.138   8.783   3.986  0.4859 -0.1154  1.2067
  183MOL0     C24077   1.270   8.740   3.983  0.1495  0.4357 -0.2364
  183MOL0     C24078   1.677   8.622   4.013  0.3058 -0.5576  1.0472
  183MOL0     C24079   1.728   8.620   3.884  0.4937  0.3112 -0.3828
  183MOL0     C24080   1.871   8.625   3.868 -0.2619 -0.0046  0.6482
  183MOL0     C24081   1.961   8.645   3.970  0.1206  0.7692  0.0286
  183MOL0     O24082   2.096   8.661   3.954  0.6625 -0.2069  0.1126
  183MOL0     C24083   2.152   8.687   3.830 -0.6448 -0.3872  0.4053
  183MOL0     C24084   2.306   8.678   3.844  0.8891 -0.4039  0.1563
  183MOL0     C24085   2.365   8.794   3.914 -0.1005  0.2291 -0.9019
  183MOL0     C24086   2.516   8.774   3.916  0.0081 -0.3362  0.2705
  183MOL0     C24087   2.568   8.812   3.782  0.3893  0.8474 -0.2986
  183MOL0     C24088   2.598   8.817   3.670 -0.0473 -0.2160 -0.4581
  183MOL0     C24089   1.901   8.653   4.099 -0.5869  0.6442 -0.2002
  183MOL0     C24090   1.762   8.637   4.118  0.6000 -0.8107 -0.0506
  183MOL0     H24091   1.250   8.404   3.938  0.7754  0.1538  1.3501
  183MOL0     H24092   1.012   8.471   3.937  0.4886 -0.0028  1.8174
  183MOL0     H24093   0.755   8.743   3.802  0.2090 -1.1984  4.1781
  183MOL0     H24094   0.865   8.611   3.754 -1.8749  1.1151 -1.4055
  183MOL0     H24095   1.036   8.780   3.692  0.0872  0.8630 -2.6799
  183MOL0     H24096   0.928   8.906   3.750  1.4579 -0.2652  0.0827
  183MOL0     H24097   0.767   8.808   3.551 -0.5718  3.0661 -2.1859
  183MOL0     H24098   0.909   8.733   3.495 -0.8106 -0.3115 -1.5374
  183MOL0     H24099   0.882   9.024   3.556  0.0493 -2.9975  2.6142
  183MOL0     H24100   1.032   8.956   3.491  0.2527  1.9340  3.3762
  183MOL0     H24101   0.749   8.924   3.352 -0.0607  1.2346 -0.9342
  183MOL0     H24102   0.911   8.878   3.288 -1.5572 -0.6833 -0.9615
  183MOL0     H24103   0.937   9.154   3.343  1.5146 -0.5152 -1.5369
  183MOL0     H24104   0.773   9.134   3.279 -0.2722  2.0663  2.6173
  183MOL0     H24105   0.959   9.198   3.132  0.3177 -0.3608 -0.2896
  183MOL0     H24106   1.046   9.053   3.164 -0.1536  0.5508  2.5136
  183MOL0     H24107   0.925   9.052   2.933  1.2400  0.9031  0.7542
  183MOL0     H24108   0.760   9.067   3.022 -0.3864  1.3634 -0.7734
  183MOL0     H24109   1.020   8.821   2.925  0.9910 -0.0559  0.1507
  183MOL0     H24110   0.897   8.466   3.050 -0.0011  0.7488  0.3541
  183MOL0     H24111   1.032   8.520   2.952 -0.9646  0.5394 -0.7241
  183MOL0     H24112   0.811   8.565   2.783 -1.2335  0.0357 -0.2880
  183MOL0     H24113   0.756   8.426   2.879  1.0333 -0.6131  2.9738
  183MOL0     H24114   0.978   8.310   2.810  0.1725 -0.8231 -0.4332
  183MOL0     H24115   0.855   8.348   2.685 -0.2990  0.8645 -0.0586
  183MOL0     H24116   1.101   8.406   2.629  0.2995  2.2224 -0.9783
  183MOL0     H24117   1.096   8.504   2.767  1.4506 -2.9202 -0.0885
  183MOL0     H24118   0.929   8.774   2.448  0.9998 -2.3571 -1.5167
  183MOL0     H24119   1.041   8.987   2.441 -0.1679  1.7489  1.6300
  183MOL0     H24120   1.310   9.297   2.677  1.5962 -1.1211  0.4651
  183MOL0     H24121   1.400   9.518   2.674  0.0572 -1.5309  1.0993
  183MOL0     H24122   1.511   9.674   2.266 -2.4121  4.4802  1.7121
  183MOL0     H24123   1.658   9.600   2.323  0.3635 -0.1431  2.6102
  183MOL0     H24124   1.708   9.827   2.280  2.1841 -0.1134  0.3953
  183MOL0     H24125   1.715   9.815   2.457 -1.3036  0.6399 -0.2899
  183MOL0     H24126   1.495   9.937   2.473 -0.4000  2.3507 -1.1415
  183MOL0     H24127   1.463   9.898   2.305 -2.8649 -4.0518  3.8493
  183MOL0     H24128   1.645  10.057   2.249  1.5407 -3.3406  0.7656
  183MOL0     H24129   1.530  10.150   2.341 -0.7949 -0.1610  0.2888
  183MOL0     H24130   1.793  10.044   2.437  0.6244  2.7059 -1.4770
  183MOL0     H24131   1.661  10.116   2.545  1.2142  0.2736  1.8967
  183MOL0     H24132   1.693  10.312   2.394 -0.2778 -2.1003 -0.9755
  183MOL0     H24133   1.845  10.230   2.333 -0.3360 -1.5761 -0.3429
  183MOL0     H24134   1.822  10.366   2.596  0.5693 -1.1032  1.8812
  183MOL0     H24135   1.872  10.202   2.601  1.0209  1.6516  0.9381
  183MOL0     H24136   2.068  10.249   2.493 -1.0131 -0.2150 -1.4174
  183MOL0     H24137   2.037  10.413   2.569  0.0271 -0.4259  0.2827
  183MOL0     H24138   1.470   9.453   2.256  0.3098 -2.3759  0.3837
  183MOL0     H24139   1.334   9.257   2.269 -0.4226 -0.4916 -0.2870
  183MOL0     H24140   1.377   8.813   2.652  0.0855 -3.1644 -0.0645
  183MOL0     H24141   1.253   8.601   2.660 -1.6806  0.9925  1.2609
  183MOL0     H24142   1.115   8.886   4.013  1.6170  0.7953 -1.0304
  183MOL0     H24143   1.347   8.816   3.975 -0.1264  0.6012 -1.8175
  183MOL0     H24144   1.671   8.605   3.792 -0.1828 -0.4436  0.1501
  183MOL0     H24145   1.899   8.614   3.764 -3.8295 -3.0973 -0.2231
  183MOL0     H24146   2.131   8.785   3.786  0.5570 -0.5447 -0.5769
  183MOL0     H24147   2.126   8.605   3.762  5.0381 -1.9837 -0.3891
  183MOL0     H24148   2.332   8.579   3.880 -1.9848 -1.4922 -0.4828
  183MOL0     H24149   2.332   8.689   3.738 -2.6064  0.6015 -0.7185
  183MOL0     H24150   2.338   8.793   4.020 -0.0585  1.6279 -0.8624
  183MOL0     H24151   2.338   8.893   3.877  1.0414  0.1430 -2.0590
  183MOL0     H24152   2.561   8.838   3.992  0.8134 -1.3208  0.6516
  183MOL0     H24153   2.536   8.666   3.920 -2.2111 -0.7646  1.1606
  183MOL0     H24154   2.628   8.839   3.570  1.8632 -2.2827 -0.4096
  183MOL0     H24155   1.964   8.663   4.186 -0.3168 -2.8577  0.1425
  183MOL0     H24156   1.727   8.637   4.220  3.5166 -3.5997  1.1381
  184MOL0     O24157   7.428   8.964  10.538  0.0417 -0.2092  0.1467
  184MOL0     C24158   7.546   8.970  10.581 -1.0946 -1.2572  0.0738
  184MOL0     O24159   7.660   8.944  10.512  0.1236 -0.0420 -0.0395
  184MOL0     C24160   7.650   8.850  10.407  0.1637 -0.8834 -0.7097
  184MOL0     C24161   7.774   8.839  10.342  0.2254 -0.2718  0.2122
  184MOL0     C24162   7.790   8.739  10.244 -0.6132  0.6619 -0.0335
  184MOL0     C24163   7.681   8.664  10.205 -1.2171  0.2400  0.9159
  184MOL0     O24164   7.702   8.564  10.112 -0.1872 -0.3517 -0.6235
  184MOL0     C24165   7.692   8.603   9.976 -0.8873 -0.4392 -0.4088
  184MOL0     C24166   7.569   8.536   9.919 -0.6309  0.5318 -0.1944
  184MOL0     C24167   7.555   8.559   9.773 -0.3048 -0.2020 -0.0775
  184MOL0     C24168   7.447   8.489   9.686 -0.8137 -0.6649  0.3681
  184MOL0     C24169   7.458   8.344   9.652  0.1643  0.6348 -0.4856
  184MOL0     C24170   7.585   8.322   9.561 -0.5247 -0.3573  0.4172
  184MOL0     C24171   7.578   8.180   9.496  0.6158  1.0357  0.8653
  184MOL0     C24172   7.703   8.129   9.432  0.4723  0.4283 -0.1750
  184MOL0     N24173   7.699   7.994   9.409 -0.3616  0.5230  0.5818
  184MOL0     C24174   7.718   7.900   9.511 -0.0511  1.2161  0.3331
  184MOL0     C24175   7.698   7.778   9.445  0.1923  0.8975  0.4508
  184MOL0     C24176   7.696   7.648   9.516  1.2157 -0.4260 -0.2927
  184MOL0     C24177   7.547   7.614   9.557 -0.2538 -0.4578 -0.1977
  184MOL0     C24178   7.542   7.493   9.652 -0.4010 -0.2439 -0.5546
  184MOL0     C24179   7.610   7.492   9.792 -0.5783  0.2699 -0.2674
  184MOL0     O24180   7.526   7.441   9.891 -0.7482  0.0648  0.0605
  184MOL0     C24181   7.567   7.430  10.025  0.5054  0.1373  0.1823
  184MOL0     C24182   7.464   7.380  10.105 -0.1189  0.3308  0.1084
  184MOL0     C24183   7.483   7.363  10.244  0.8198  0.2663 -0.2718
  184MOL0     C24184   7.604   7.390  10.305 -0.4495  0.8942  0.1889
  184MOL0     C24185   7.627   7.370  10.450 -0.0094  0.3309 -1.1838
  184MOL0     O24186   7.747   7.397  10.505 -0.1234 -0.3836  0.0143
  184MOL0     C24187   7.768   7.416  10.637  0.1398 -0.0755  0.8476
  184MOL0     C24188   7.891   7.380  10.683 -0.1491 -0.1152  0.4328
  184MOL0     C24189   7.930   7.399  10.818  0.3539  0.4799  0.6719
  184MOL0     C24190   7.838   7.455  10.903  0.4274 -0.8131 -1.1238
  184MOL0     O24191   7.859   7.476  11.033  0.5397 -0.6097  0.0706
  184MOL0     C24192   7.929   7.375  11.103  0.1461  0.1974 -0.3648
  184MOL0     C24193   8.059   7.419  11.156 -1.1462  0.4452 -1.0738
  184MOL0     C24194   8.162   7.492  11.060 -0.9339  0.9905  0.3737
  184MOL0     C24195   8.291   7.537  11.143 -0.0161 -0.8346  0.6182
  184MOL0     C24196   8.364   7.409  11.191  0.1255 -0.2570  0.6025
  184MOL0     C24197   8.509   7.428  11.245  0.1044  0.1649  0.3636
  184MOL0     C24198   8.576   7.308  11.309 -0.0127  0.3609 -0.6836
  184MOL0     C24199   8.629   7.202  11.208 -0.2850 -0.2076 -0.2405
  184MOL0    Cl24200   8.506   7.082  11.184 -0.3630  0.1126  0.5411
  184MOL0     C24201   7.719   7.506  10.855 -0.8201 -1.0969 -0.2436
  184MOL0     C24202   7.687   7.487  10.723  0.7499  0.4474  0.0021
  184MOL0     O24203   7.534   7.331  10.519  0.0392 -0.1989 -0.1187
  184MOL0     C24204   7.715   7.429  10.220  0.0963 -0.5248  0.8105
  184MOL0     C24205   7.682   7.468  10.089  0.1818  0.9917  0.2576
  184MOL0     N24206   7.663   7.796   9.314 -0.2088 -0.5715 -0.3403
  184MOL0     N24207   7.668   7.921   9.294  0.4619 -0.9835  0.2268
  184MOL0     C24208   7.555   8.680  10.263 -0.0297  0.7124  0.4249
  184MOL0     C24209   7.551   8.767  10.372  0.6438  0.1640 -0.1050
  184MOL0     C24210   7.570   9.035  10.715 -0.5920 -0.2504  0.6897
  184MOL0     C24211   7.480   9.114  10.785  0.6293  0.5702 -0.1288
  184MOL0     C24212   7.503   9.161  10.914 -1.2615 -0.0936 -0.1172
  184MOL0     C24213   7.629   9.141  10.978  0.0046 -1.2063 -0.2482
  184MOL0     O24214   7.656   9.223  11.086 -0.4913 -0.4995 -0.7262
  184MOL0     C24215   7.787   9.225  11.143  0.4624  0.2650 -0.0569
  184MOL0     C24216   7.881   9.306  11.055 -1.0598 -0.2762 -0.1632
  184MOL0     C24217   8.015   9.348  11.124 -0.6030 -0.9468 -0.2629
  184MOL0     C24218   8.119   9.234  11.122  0.4768  0.6795 -0.3026
  184MOL0     C24219   8.216   9.258  11.015 -0.4699 -0.3342 -0.0106
  184MOL0     C24220   8.288   9.274  10.916 -0.0434 -0.1682  0.2258
  184MOL0     C24221   7.720   9.059  10.911  0.0497 -0.4253  0.4099
  184MOL0     C24222   7.691   9.004  10.784  0.5083  0.0083  0.4205
  184MOL0     H24223   7.862   8.891  10.377 -0.2411 -0.9702  2.5771
  184MOL0     H24224   7.887   8.723  10.198  0.0374  1.5029  0.9932
  184MOL0     H24225   7.781   8.590   9.914 -0.3601  3.8497 -0.8995
  184MOL0     H24226   7.690   8.712   9.973 -3.2408 -0.3613  1.1394
  184MOL0     H24227   7.475   8.581   9.953 -1.6264 -1.7167  0.1720
  184MOL0     H24228   7.578   8.429   9.939  0.1046  0.2973 -1.6391
  184MOL0     H24229   7.654   8.531   9.738 -1.1932 -1.3293 -1.8116
  184MOL0     H24230   7.539   8.667   9.762 -2.9315 -0.6396 -1.4785
  184MOL0     H24231   7.356   8.500   9.746  0.2233 -2.3490  2.4041
  184MOL0     H24232   7.446   8.539   9.589  0.9735  0.4923  0.8963
  184MOL0     H24233   7.366   8.324   9.596  0.1724  0.7312 -0.5341
  184MOL0     H24234   7.464   8.276   9.738  0.2556 -0.4953 -1.3664
  184MOL0     H24235   7.675   8.332   9.622  1.2178  1.4499 -2.2721
  184MOL0     H24236   7.598   8.404   9.490  2.5123 -0.4389  0.7576
  184MOL0     H24237   7.546   8.109   9.572 -0.0411 -0.5121 -0.7916
  184MOL0     H24238   7.504   8.174   9.416 -1.0233 -1.9454  2.4481
  184MOL0     H24239   7.776   8.149   9.510 -1.6399  0.4630  1.9109
  184MOL0     H24240   7.722   8.189   9.342  2.4650 -0.7150 -0.5706
  184MOL0     H24241   7.727   7.901   9.619  0.6962 -2.2534  0.4368
  184MOL0     H24242   7.759   7.652   9.605  1.3283  1.7608 -0.4175
  184MOL0     H24243   7.744   7.578   9.447  0.2783 -0.7671 -0.6170
  184MOL0     H24244   7.493   7.571   9.472  0.4810 -2.2284  0.1670
  184MOL0     H24245   7.498   7.702   9.597  2.1216  1.8920 -2.0941
  184MOL0     H24246   7.439   7.461   9.670  0.2245 -0.7469  2.8602
  184MOL0     H24247   7.567   7.395   9.609  0.6154 -0.5278  0.6033
  184MOL0     H24248   7.630   7.598   9.809 -0.2098 -0.2703  3.4382
  184MOL0     H24249   7.707   7.442   9.791 -1.4901 -1.5696 -0.2163
  184MOL0     H24250   7.372   7.353  10.054 -2.6082  3.6412  2.4067
  184MOL0     H24251   7.398   7.329  10.303 -0.4424  2.4246 -0.7437
  184MOL0     H24252   7.968   7.352  10.612 -0.8587  3.8980 -2.2059
  184MOL0     H24253   8.029   7.372  10.851  0.7155  0.5934 -0.2981
  184MOL0     H24254   7.933   7.277  11.055 -4.4376 -0.3644 -0.0711
  184MOL0     H24255   7.866   7.365  11.192  0.8048  2.6915  0.4770
  184MOL0     H24256   8.106   7.329  11.194 -0.0034  0.8013 -1.5952
  184MOL0     H24257   8.042   7.475  11.249 -0.7022 -3.7174  1.7467
  184MOL0     H24258   8.122   7.583  11.015  1.3303  1.3901 -1.0170
  184MOL0     H24259   8.195   7.432  10.974  1.2449  1.0936  1.0700
  184MOL0     H24260   8.369   7.592  11.089 -1.6675 -0.8891 -1.9917
  184MOL0     H24261   8.260   7.602  11.225  2.1089  0.7519  0.2458
  184MOL0     H24262   8.350   7.331  11.116  1.2491  1.6268 -1.7281
  184MOL0     H24263   8.308   7.369  11.276 -2.4908 -1.2618 -1.4703
  184MOL0     H24264   8.516   7.500  11.327 -0.1232 -1.3249  1.7353
  184MOL0     H24265   8.569   7.463  11.160 -2.7252  0.5422 -1.6240
  184MOL0     H24266   8.662   7.331  11.372 -0.4530 -0.2265  0.1542
  184MOL0     H24267   8.500   7.273  11.379  1.1200 -0.3074  0.2367
  184MOL0     H24268   8.713   7.158  11.264 -3.2568 -1.5736  3.5877
  184MOL0     H24269   8.657   7.249  11.113 -0.9328  0.2863 -0.1938
  184MOL0     H24270   7.649   7.542  10.929  0.3769 -0.1904  0.4785
  184MOL0     H24271   7.594   7.527  10.685  1.1331  2.1894  0.7709
  184MOL0     H24272   7.815   7.449  10.260  0.2503 -0.5076  0.4187
  184MOL0     H24273   7.767   7.511  10.037  0.2559  0.7522  0.1784
  184MOL0     H24274   7.472   8.621  10.226  0.2967 -1.1197  2.4074
  184MOL0     H24275   7.454   8.763  10.420  0.2563  0.7778 -0.8161
  184MOL0     H24276   7.380   9.109  10.743  0.1976  0.6591  0.8625
  184MOL0     H24277   7.415   9.211  10.955 -1.3970 -0.0982 -0.4064
  184MOL0     H24278   7.835   9.130  11.164  1.5768  1.0294  0.9912
  184MOL0     H24279   7.779   9.283  11.235 -0.8202  0.5530 -0.3233
  184MOL0     H24280   7.908   9.263  10.959  2.5947  1.2359  0.0102
  184MOL0     H24281   7.826   9.398  11.034  0.8102  0.6221 -1.4454
  184MOL0     H24282   7.999   9.369  11.231  2.4729  2.2757 -0.2436
  184MOL0     H24283   8.064   9.435  11.079 -0.8922 -1.8690 -2.4411
  184MOL0     H24284   8.170   9.241  11.219 -2.0816  1.8052  1.0585
  184MOL0     H24285   8.058   9.144  11.130 -2.2057  2.3881 -0.5916
  184MOL0     H24286   8.354   9.281  10.832 -1.0971 -0.5748 -0.6434
  184MOL0     H24287   7.816   9.030  10.951 -0.8480 -1.2069  2.1111
  184MOL0     H24288   7.765   8.933  10.749  0.2851 -0.0379  0.0302
  185MOL0     O24289   5.872   9.831   6.414  0.0139  0.2938  0.2871
  185MOL0     C24290   5.841   9.823   6.531 -0.3237 -0.3482  1.1884
  185MOL0     O24291   5.718   9.789   6.570  0.5952 -0.3276 -0.5868
  185MOL0     C24292   5.614   9.752   6.499 -0.2974 -0.6495  0.5544
  185MOL0     C24293   5.507   9.683   6.564  0.1639 -0.8977 -0.1125
  185MOL0     C24294   5.393   9.641   6.489  0.0771  0.1639 -0.5630
  185MOL0     C24295   5.389   9.669   6.352  0.2190 -0.5263  0.3049
  185MOL0     O24296   5.279   9.644   6.282 -0.8272  0.4022  0.6731
  185MOL0     C24297   5.191   9.759   6.271 -1.6895  0.5967 -1.0816
  185MOL0     C24298   5.055   9.708   6.215  0.0011 -0.0117 -0.4296
  185MOL0     C24299   5.062   9.639   6.079  0.7442 -0.0869  0.3527
  185MOL0     C24300   5.159   9.697   5.977 -0.8607 -0.3661  0.9583
  185MOL0     C24301   5.121   9.849   5.954  0.7761 -0.4989  0.0912
  185MOL0     C24302   5.172   9.897   5.826 -0.3466  0.1938  0.6001
  185MOL0     C24303   5.114  10.026   5.767 -0.2258 -0.6790 -0.0548
  185MOL0     C24304   5.202  10.086   5.657  0.6143  0.8616  1.1225
  185MOL0     N24305   5.161  10.220   5.606 -0.0672 -0.2009 -0.5753
  185MOL0     C24306   5.247  10.324   5.594  1.3073  1.0398  0.4591
  185MOL0     C24307   5.179  10.422   5.536  0.8190 -0.8730 -1.3371
  185MOL0     C24308   5.214  10.552   5.474  0.2854  0.0429  0.0298
  185MOL0     C24309   5.217  10.673   5.580 -0.0202 -0.9488  0.1729
  185MOL0     C24310   5.066  10.720   5.575  0.0995  0.5037  0.2436
  185MOL0     C24311   5.031  10.776   5.717 -0.5264 -0.7631  0.3656
  185MOL0     O24312   4.914  10.856   5.702 -0.2826 -0.5120 -0.5290
  185MOL0     C24313   4.797  10.784   5.658 -0.4586  0.0350  0.5705
  185MOL0     C24314   4.755  10.658   5.695 -0.2936  0.3644 -0.7084
  185MOL0     C24315   4.640  10.595   5.633  0.5919 -0.5141  0.3058
  185MOL0     C24316   4.552  10.677   5.557 -0.1172  0.6766 -0.1793
  185MOL0     C24317   4.429  10.628   5.493 -1.5556  0.8880  0.5974
  185MOL0     O24318   4.388  10.500   5.528 -0.6933 -0.1786 -0.5499
  185MOL0     C24319   4.263  10.460   5.495 -0.4515  0.2516  0.7456
  185MOL0     C24320   4.247  10.349   5.411 -0.3462  0.0113 -0.7342
  185MOL0     C24321   4.127  10.285   5.370 -0.5810 -0.3957  1.6758
  185MOL0     C24322   4.015  10.325   5.434 -0.5269 -0.5399 -0.2351
  185MOL0     O24323   3.907  10.260   5.375  0.2113 -0.2110  0.3059
  185MOL0     C24324   3.783  10.287   5.429  0.8640 -0.5931  0.0035
  185MOL0     C24325   3.699  10.167   5.392  0.9365 -1.4589  1.0522
  185MOL0     C24326   3.555  10.173   5.443  0.7990  0.4961 -0.2371
  185MOL0     C24327   3.479  10.062   5.374  0.7862  0.4315 -0.7378
  185MOL0     C24328   3.345  10.037   5.446 -0.9310  0.0594  0.0241
  185MOL0     C24329   3.236  10.141   5.454  0.4612 -0.2991 -0.1512
  185MOL0     C24330   3.100  10.097   5.501 -0.2406 -0.3812 -0.1715
  185MOL0     C24331   2.992  10.197   5.474  0.3238 -1.0001 -0.8273
  185MOL0    Cl24332   3.048  10.357   5.551  0.1150  0.0877  0.0298
  185MOL0     C24333   4.020  10.443   5.515  0.4859  0.8441  0.3639
  185MOL0     C24334   4.143  10.509   5.539  1.3008  0.2280  0.5445
  185MOL0     O24335   4.371  10.693   5.406  0.3098  0.0624 -0.3627
  185MOL0     C24336   4.595  10.802   5.531  0.0038 -0.6884  0.5704
  185MOL0     C24337   4.719  10.858   5.565  0.3973  0.7855 -0.5864
  185MOL0     N24338   5.040  10.384   5.523  0.0003 -0.0868  0.4007
  185MOL0     N24339   5.036  10.263   5.571 -0.1720  0.1794  0.1114
  185MOL0     C24340   5.487   9.748   6.291  0.8093  1.3324  0.8911
  185MOL0     C24341   5.597   9.785   6.361 -0.9072 -1.1404  0.6315
  185MOL0     C24342   5.947   9.839   6.629  0.1383 -0.8063  0.7154
  185MOL0     C24343   5.911   9.841   6.767  0.5011 -0.6089  0.3711
  185MOL0     C24344   6.015   9.855   6.861  0.1664 -0.2634  0.3520
  185MOL0     C24345   6.146   9.875   6.823  1.4006 -0.8300  0.0525
  185MOL0     O24346   6.237   9.895   6.923  1.3037  0.3619 -0.6998
  185MOL0     C24347   6.358   9.959   6.890  0.5094  0.0254 -0.2331
  185MOL0     C24348   6.435   9.988   7.019  0.6617  0.2261  0.6512
  185MOL0     C24349   6.588  10.017   7.010 -0.5687 -0.5069  0.5695
  185MOL0     C24350   6.669   9.929   6.917 -0.4375 -1.1970 -0.3631
  185MOL0     C24351   6.686   9.789   6.953  0.5942 -0.6659 -0.1643
  185MOL0     C24352   6.704   9.673   6.982 -0.2920  0.6835 -0.0483
  185MOL0     C24353   6.179   9.889   6.682 -0.5601  0.0304  0.7125
  185MOL0     C24354   6.079   9.865   6.590  0.1273  0.4326  0.3951
  185MOL0     H24355   5.514   9.659   6.669 -1.4793 -2.5376 -0.3248
  185MOL0     H24356   5.328   9.577   6.548  2.9483 -0.5146  2.1693
  185MOL0     H24357   5.225   9.840   6.207 -1.5258 -0.2174 -2.0345
  185MOL0     H24358   5.170   9.800   6.371  0.1301 -2.5774  0.7670
  185MOL0     H24359   5.002   9.804   6.212 -0.1941  0.0127  1.9942
  185MOL0     H24360   5.014   9.642   6.292  0.2538  1.5180  1.0676
  185MOL0     H24361   4.956   9.634   6.054  0.3809  0.4285  1.6654
  185MOL0     H24362   5.088   9.534   6.091  0.7746  0.0620  1.8654
  185MOL0     H24363   5.265   9.681   6.000 -1.0878 -4.3050 -0.0956
  185MOL0     H24364   5.135   9.647   5.883 -2.2241 -0.4161  1.3228
  185MOL0     H24365   5.154   9.914   6.035  1.9437 -1.2156  0.2194
  185MOL0     H24366   5.013   9.862   5.951  0.6169 -1.7364 -0.2897
  185MOL0     H24367   5.153   9.809   5.764  0.4569 -1.0287  2.0351
  185MOL0     H24368   5.282   9.904   5.828 -0.4084  1.7539  2.5969
  185MOL0     H24369   5.013  10.003   5.732 -0.2961 -0.7345  0.1823
  185MOL0     H24370   5.109  10.101   5.847 -1.5671 -1.7788  0.9605
  185MOL0     H24371   5.219  10.026   5.568 -4.3115  2.1949 -1.0813
  185MOL0     H24372   5.303  10.098   5.697  1.3583 -0.3150 -0.2912
  185MOL0     H24373   5.354  10.306   5.600  1.1529 -0.5004 -0.6584
  185MOL0     H24374   5.148  10.566   5.387  0.5429 -4.4741 -1.1251
  185MOL0     H24375   5.315  10.539   5.433  0.3241  0.2556  0.0571
  185MOL0     H24376   5.286  10.753   5.553 -0.3393 -0.7857 -0.1627
  185MOL0     H24377   5.251  10.638   5.678 -0.3237  2.3608  1.6001
  185MOL0     H24378   5.050  10.788   5.491  0.4582  0.1750 -0.0981
  185MOL0     H24379   5.005  10.634   5.546 -0.1315  1.2403 -1.5829
  185MOL0     H24380   5.106  10.850   5.744 -2.0601  2.5957 -3.4837
  185MOL0     H24381   5.025  10.701   5.796  1.8943 -0.3700  0.9840
  185MOL0     H24382   4.810  10.600   5.769  0.2151  3.5654  1.5943
  185MOL0     H24383   4.601  10.497   5.659  1.7341 -1.1164 -0.2433
  185MOL0     H24384   4.341  10.315   5.369 -2.1191 -1.3177 -3.9769
  185MOL0     H24385   4.136  10.208   5.294  0.2192  0.8784  0.4198
  185MOL0     H24386   3.743  10.383   5.396  0.2317 -0.9748 -0.3619
  185MOL0     H24387   3.786  10.301   5.537 -1.5238  1.2898 -0.0941
  185MOL0     H24388   3.742  10.081   5.444  0.2785 -1.6073  1.3556
  185MOL0     H24389   3.695  10.153   5.283 -1.7017 -0.5475  0.9552
  185MOL0     H24390   3.506  10.267   5.415  0.9326 -0.4633 -4.2852
  185MOL0     H24391   3.551  10.163   5.552  0.2264  2.1361 -0.0752
  185MOL0     H24392   3.466  10.076   5.267  1.9057 -3.5882 -1.5674
  185MOL0     H24393   3.531   9.966   5.380  2.6348  1.3240 -1.5571
  185MOL0     H24394   3.385  10.016   5.545  3.0925  1.1553 -1.1884
  185MOL0     H24395   3.306   9.943   5.405  0.2078  0.7506 -2.8754
  185MOL0     H24396   3.218  10.191   5.359  0.7092 -0.8801 -0.5077
  185MOL0     H24397   3.270  10.211   5.531 -2.3609 -1.5991  2.5014
  185MOL0     H24398   3.075  10.000   5.456 -3.1925 -0.3623  1.2282
  185MOL0     H24399   3.097  10.069   5.607 -0.6681  1.2099  0.2559
  185MOL0     H24400   2.891  10.178   5.512 -1.3075  0.1329 -4.1874
  185MOL0     H24401   2.990  10.217   5.366  0.0245 -1.3035 -0.8801
  185MOL0     H24402   3.924  10.475   5.554 -0.6466 -2.8286  0.9215
  185MOL0     H24403   4.142  10.602   5.594  1.3146  1.0378 -0.7913
  185MOL0     H24404   4.535  10.866   5.467 -0.3789 -1.7802 -0.1933
  185MOL0     H24405   4.745  10.962   5.545 -2.7349  2.0379  1.0044
  185MOL0     H24406   5.465   9.781   6.190  2.0344 -1.3949 -0.3479
  185MOL0     H24407   5.668   9.834   6.295 -3.9319 -0.2937 -2.2180
  185MOL0     H24408   5.813   9.849   6.813  1.5013  2.3799  2.3004
  185MOL0     H24409   5.983   9.861   6.964  0.9445 -0.8815  0.6394
  185MOL0     H24410   6.344  10.063   6.858 -0.4043  1.2177  3.5173
  185MOL0     H24411   6.421   9.902   6.821  2.6237 -2.1397  3.1757
  185MOL0     H24412   6.405  10.078   7.073  0.6012 -0.6426  2.1142
  185MOL0     H24413   6.416   9.910   7.093 -2.8714  2.6544  2.6043
  185MOL0     H24414   6.643  10.020   7.104  3.2307 -1.3866 -1.4021
  185MOL0     H24415   6.600  10.122   6.984  2.4039 -0.6099  1.1272
  185MOL0     H24416   6.629   9.930   6.816  0.4156  0.4513 -0.7194
  185MOL0     H24417   6.770   9.970   6.911 -1.0215  0.2630 -0.6109
  185MOL0     H24418   6.722   9.568   6.992 -1.4144 -0.1114 -4.3695
  185MOL0     H24419   6.274   9.911   6.635 -0.9455 -0.1935 -0.1886
  185MOL0     H24420   6.113   9.853   6.487 -1.2089 -0.8953  0.0827
  186MOL0     O24421   3.911   0.266   0.247 -1.4443 -0.3548  0.3200
  186MOL0     C24422   3.915   0.167   0.315  0.6877  0.0711  0.0811
  186MOL0     O24423   3.818   0.071   0.305 -0.0187  0.8953  0.1231
  186MOL0     C24424   3.700   0.082   0.246  0.6192 -1.1172  0.0635
  186MOL0     C24425   3.609  -0.010   0.289  0.0641 -0.0960  0.3376
  186MOL0     C24426   3.491  -0.035   0.234  0.2398  0.1611  0.7338
  186MOL0     C24427   3.450   0.046   0.122 -0.8200 -0.0115  0.7578
  186MOL0     O24428   3.323   0.040   0.064 -0.0903 -0.3877  0.4480
  186MOL0     C24429   3.215  -0.008   0.148 -0.4962  0.3312  0.2730
  186MOL0     C24430   3.196  -0.150   0.103  0.4987  0.6726 -0.1328
  186MOL0     C24431   3.102  -0.224   0.199  0.7609  0.0000 -1.1596
  186MOL0     C24432   3.082  -0.375   0.179  0.3440  0.1716 -0.1495
  186MOL0     C24433   2.950  -0.412   0.223 -0.1103 -0.3124 -0.3475
  186MOL0     C24434   2.933  -0.566   0.252  0.0428  0.6315  0.0082
  186MOL0     C24435   2.793  -0.584   0.329 -0.2157  0.5835 -0.4201
  186MOL0     C24436   2.671  -0.549   0.241  0.6593  0.5614 -0.0778
  186MOL0     N24437   2.666  -0.625   0.114  0.3386 -0.0399  0.1823
  186MOL0     C24438   2.629  -0.754   0.101 -0.1463 -0.3119  0.8045
  186MOL0     C24439   2.657  -0.789  -0.028 -0.8330 -0.3977  1.0868
  186MOL0     C24440   2.636  -0.927  -0.085 -0.0696 -0.3548  0.0140
  186MOL0     C24441   2.702  -1.049  -0.030 -0.4415 -0.3364 -0.0622
  186MOL0     C24442   2.850  -1.052  -0.079  0.8798 -0.1484  1.0423
  186MOL0     C24443   2.855  -1.096  -0.234  0.9013  0.3553  0.8463
  186MOL0     O24444   2.989  -1.113  -0.293  0.3787  0.1326  0.2849
  186MOL0     C24445   3.036  -1.000  -0.357 -0.3756  0.4941  0.8380
  186MOL0     C24446   3.134  -1.020  -0.453 -0.0905 -0.0476 -0.6629
  186MOL0     C24447   3.198  -0.917  -0.512  0.3676 -0.1072 -0.3718
  186MOL0     C24448   3.172  -0.779  -0.494 -0.5829 -0.3072 -0.1430
  186MOL0     C24449   3.233  -0.663  -0.561  0.0024 -0.1526  0.9372
  186MOL0     O24450   3.346  -0.693  -0.623 -0.0095  0.5558  0.4449
  186MOL0     C24451   3.422  -0.599  -0.696  1.1645 -1.1540 -0.2093
  186MOL0     C24452   3.423  -0.459  -0.670 -0.4542  0.2311  0.6578
  186MOL0     C24453   3.509  -0.383  -0.750  0.2566 -0.5515 -1.1667
  186MOL0     C24454   3.598  -0.444  -0.839 -0.0316  1.0177 -0.5214
  186MOL0     O24455   3.692  -0.359  -0.906  0.1239 -0.2962  0.1852
  186MOL0     C24456   3.794  -0.423  -0.986  0.2995  0.6520 -0.0883
  186MOL0     C24457   3.897  -0.324  -1.051  0.6429  0.0680  0.2985
  186MOL0     C24458   4.018  -0.287  -0.961 -0.6658 -0.1923  0.7006
  186MOL0     C24459   4.116  -0.406  -0.956  0.4036 -0.4564  0.0796
  186MOL0     C24460   4.259  -0.353  -0.919 -1.0843 -0.1065  0.1705
  186MOL0     C24461   4.274  -0.341  -0.763 -0.3832 -0.0047 -0.4440
  186MOL0     C24462   4.377  -0.229  -0.732  0.2776 -1.0614 -0.2853
  186MOL0     C24463   4.518  -0.270  -0.788  0.3816  0.0424  0.5034
  186MOL0    Cl24464   4.629  -0.131  -0.754  0.0622  0.0591  0.2814
  186MOL0     C24465   3.587  -0.579  -0.862 -0.1422  0.4367 -0.2167
  186MOL0     C24466   3.493  -0.654  -0.798  0.9601  0.0227 -0.5488
  186MOL0     O24467   3.177  -0.553  -0.552  0.5658 -0.3308  0.1633
  186MOL0     C24468   3.068  -0.764  -0.395  0.1496 -0.1360  0.2185
  186MOL0     C24469   3.003  -0.871  -0.319  0.6503  0.3031 -0.3388
  186MOL0     N24470   2.716  -0.683  -0.092 -0.2993  0.5313 -0.1387
  186MOL0     N24471   2.723  -0.591  -0.009 -0.4699 -0.6551  0.6799
  186MOL0     C24472   3.542   0.143   0.071  0.2212  0.0047 -0.3916
  186MOL0     C24473   3.669   0.162   0.132  0.4859  0.6763 -1.2267
  186MOL0     C24474   4.028   0.151   0.407 -0.2354  0.2682 -0.4754
  186MOL0     C24475   4.129   0.250   0.417  0.2387  1.1030  0.1388
  186MOL0     C24476   4.221   0.252   0.517 -0.9160 -0.1222 -0.6957
  186MOL0     C24477   4.222   0.160   0.623 -0.0739 -0.2174  0.0966
  186MOL0     O24478   4.308   0.174   0.736 -0.8431  0.5050 -0.2075
  186MOL0     C24479   4.423   0.253   0.726  0.2662 -0.4053 -0.6598
  186MOL0     C24480   4.520   0.192   0.826 -0.3116  0.6929 -0.5591
  186MOL0     C24481   4.654   0.268   0.834  0.1988 -0.4792  1.2509
  186MOL0     C24482   4.646   0.403   0.893 -0.4067  0.9182 -0.3719
  186MOL0     C24483   4.781   0.455   0.884 -0.2213  0.3412 -0.2494
  186MOL0     C24484   4.889   0.501   0.891  0.3614  0.3300  0.5487
  186MOL0     C24485   4.121   0.061   0.616  0.6242 -1.1444 -1.1092
  186MOL0     C24486   4.023   0.063   0.517 -0.1327  0.1529  0.2272
  186MOL0     H24487   3.642  -0.075   0.369 -0.0928 -0.9947 -0.3122
  186MOL0     H24488   3.425  -0.110   0.275 -0.2422 -0.3349 -0.8820
  186MOL0     H24489   3.133   0.056   0.115 -1.0432  0.3942  1.6797
  186MOL0     H24490   3.232   0.003   0.255  0.1671 -0.0801  0.2198
  186MOL0     H24491   3.283  -0.214   0.085 -0.9928 -0.8383 -2.3424
  186MOL0     H24492   3.137  -0.142   0.012  0.3927  1.6029 -0.0003
  186MOL0     H24493   3.001  -0.183   0.185  0.9202 -0.2550 -3.3781
  186MOL0     H24494   3.135  -0.196   0.299  2.9494  2.4352 -2.4513
  186MOL0     H24495   3.102  -0.409   0.077  0.9794 -2.5044  0.7869
  186MOL0     H24496   3.144  -0.425   0.254  0.1942  1.9532  1.2532
  186MOL0     H24497   2.886  -0.383   0.139  1.8855 -0.1183 -1.9001
  186MOL0     H24498   2.912  -0.358   0.310 -0.3055 -1.9960  0.6561
  186MOL0     H24499   3.016  -0.611   0.307 -0.8892 -0.7444  0.3352
  186MOL0     H24500   2.920  -0.618   0.157 -3.2635  1.1536  0.0374
  186MOL0     H24501   2.781  -0.687   0.364 -0.1355  0.4414 -0.8082
  186MOL0     H24502   2.796  -0.518   0.415  2.5558 -2.4155  2.0533
  186MOL0     H24503   2.675  -0.440   0.228  0.8960  1.3608  4.7674
  186MOL0     H24504   2.584  -0.571   0.304  0.8704 -1.9915 -0.5841
  186MOL0     H24505   2.588  -0.817   0.179  1.0012 -2.0476  0.0533
  186MOL0     H24506   2.656  -0.915  -0.192 -1.3422 -0.8274 -0.3004
  186MOL0     H24507   2.527  -0.933  -0.085 -0.4473  3.8057 -0.1484
  186MOL0     H24508   2.647  -1.138  -0.063 -0.3321 -0.6815  0.6508
  186MOL0     H24509   2.713  -1.052   0.079  0.6921 -1.3629 -0.1850
  186MOL0     H24510   2.897  -0.954  -0.066  2.6164 -0.3201 -2.5416
  186MOL0     H24511   2.899  -1.126  -0.016 -1.1913 -1.2080  1.4916
  186MOL0     H24512   2.805  -1.020  -0.295 -0.7842  0.0867  1.8148
  186MOL0     H24513   2.791  -1.183  -0.252 -1.0539  1.9309 -0.2251
  186MOL0     H24514   3.172  -1.119  -0.477  1.1475  0.3302 -0.3375
  186MOL0     H24515   3.272  -0.937  -0.589  0.2046 -0.2195 -0.4995
  186MOL0     H24516   3.363  -0.408  -0.595 -1.0834 -0.5602  0.7054
  186MOL0     H24517   3.525  -0.276  -0.742 -0.9954 -0.4226  0.0202
  186MOL0     H24518   3.774  -0.494  -1.067  3.1805  0.2935 -0.5872
  186MOL0     H24519   3.847  -0.489  -0.917  2.9903  1.6472 -1.0546
  186MOL0     H24520   3.843  -0.234  -1.082  1.4433 -0.3413 -2.5335
  186MOL0     H24521   3.934  -0.362  -1.147  0.1782  0.9825 -0.2598
  186MOL0     H24522   3.987  -0.241  -0.867  1.1899  0.0815  1.2226
  186MOL0     H24523   4.061  -0.214  -1.030 -2.3996  0.6619  0.4655
  186MOL0     H24524   4.084  -0.490  -0.894 -0.8312 -0.8717 -1.0900
  186MOL0     H24525   4.112  -0.448  -1.057 -0.6063  0.3857 -0.2513
  186MOL0     H24526   4.266  -0.256  -0.969 -4.0381  0.5245  0.7765
  186MOL0     H24527   4.337  -0.420  -0.957  2.9678  2.9985  2.1256
  186MOL0     H24528   4.307  -0.424  -0.698  1.7814  4.3788  4.8735
  186MOL0     H24529   4.179  -0.301  -0.728 -0.1583 -0.7557  1.1257
  186MOL0     H24530   4.343  -0.137  -0.782  1.2298 -1.3208 -1.4748
  186MOL0     H24531   4.378  -0.214  -0.624  2.2889  2.2547 -0.6192
  186MOL0     H24532   4.507  -0.281  -0.896 -1.4674  0.1730  0.6526
  186MOL0     H24533   4.559  -0.359  -0.739  0.7990 -0.6905 -1.1193
  186MOL0     H24534   3.649  -0.624  -0.938 -2.7082 -0.7515 -1.7349
  186MOL0     H24535   3.470  -0.759  -0.809 -2.1208  0.6266 -0.7633
  186MOL0     H24536   3.054  -0.659  -0.373  3.1672  1.0046 -2.5259
  186MOL0     H24537   2.930  -0.841  -0.245 -1.3614 -0.8658 -1.7495
  186MOL0     H24538   3.518   0.208  -0.012  1.1548 -1.8939 -2.2504
  186MOL0     H24539   3.733   0.242   0.098  0.7634  2.2672  2.5844
  186MOL0     H24540   4.133   0.337   0.352  2.6634  1.1019  0.2181
  186MOL0     H24541   4.287   0.338   0.523 -0.8326 -0.0499 -2.2763
  186MOL0     H24542   4.388   0.353   0.755  0.1184 -1.0913  1.6916
  186MOL0     H24543   4.458   0.260   0.622 -3.0076  2.8798 -1.7574
  186MOL0     H24544   4.485   0.185   0.930  0.3266  0.0710 -0.3780
  186MOL0     H24545   4.527   0.086   0.800 -0.5183  0.6877 -0.5935
  186MOL0     H24546   4.683   0.280   0.729 -0.0041  0.5047  1.2983
  186MOL0     H24547   4.724   0.214   0.898  3.0150  2.2855  0.7257
  186MOL0     H24548   4.576   0.470   0.842 -4.0328 -2.8398 -0.9208
  186MOL0     H24549   4.604   0.384   0.992 -1.8396  0.6604 -1.0048
  186MOL0     H24550   4.980   0.555   0.908 -0.1729  0.8863  1.8328
  186MOL0     H24551   4.118  -0.015   0.693 -1.4305 -1.3775 -1.3811
  186MOL0     H24552   3.932   0.005   0.524  0.2757 -1.0499 -2.7917
  187MOL0     O24553   7.425   8.605   4.365 -0.4456 -0.0037  0.6983
  187MOL0     C24554   7.377   8.604   4.252 -0.1760  0.6981 -0.6167
  187MOL0     O24555   7.238   8.609   4.225  0.1407 -0.3379  0.2655
  187MOL0     C24556   7.141   8.645   4.316 -0.7424 -0.5944 -0.2636
  187MOL0     C24557   7.167   8.732   4.426  0.0996  0.2872 -1.0816
  187MOL0     C24558   7.073   8.769   4.523  0.3854 -0.4923  0.2387
  187MOL0     C24559   6.941   8.715   4.515  0.5496 -0.1966 -0.2736
  187MOL0     O24560   6.839   8.737   4.596 -0.2503  0.5608  0.0273
  187MOL0     C24561   6.848   8.862   4.662 -0.6005 -0.2064  0.8595
  187MOL0     C24562   6.734   8.885   4.755  1.1841 -0.1775  0.0553
  187MOL0     C24563   6.745   9.024   4.821  0.1161  0.9305  0.2786
  187MOL0     C24564   6.614   9.086   4.884  0.6002  0.2703  0.1694
  187MOL0     C24565   6.628   9.217   4.943 -0.4186  0.1295 -0.2805
  187MOL0     C24566   6.643   9.219   5.088  0.2687 -0.6172  0.2098
  187MOL0     C24567   6.691   9.356   5.159  0.3112 -0.1534  1.1622
  187MOL0     C24568   6.602   9.471   5.110  0.6523 -0.1376 -0.5028
  187MOL0     N24569   6.457   9.451   5.138  0.1015  0.9323  0.2453
  187MOL0     C24570   6.351   9.456   5.053  0.6601  1.1995  0.1915
  187MOL0     C24571   6.245   9.418   5.128  0.5821 -0.4271  0.2426
  187MOL0     C24572   6.105   9.390   5.080  0.3680 -0.2174  0.0332
  187MOL0     C24573   6.023   9.321   5.191  0.7352 -0.4149 -0.6113
  187MOL0     C24574   5.875   9.295   5.151 -0.2151 -0.0435  0.1725
  187MOL0     C24575   5.780   9.273   5.275 -0.5448  0.7043  0.1742
  187MOL0     O24576   5.670   9.198   5.222  0.7301 -0.4676 -0.7386
  187MOL0     C24577   5.587   9.129   5.306 -0.1205 -0.0771 -0.2595
  187MOL0     C24578   5.510   9.033   5.250 -0.4737  0.0417  0.1734
  187MOL0     C24579   5.432   8.954   5.335 -0.1899 -0.4245  0.1567
  187MOL0     C24580   5.436   8.964   5.469 -0.2817 -0.1550  0.0535
  187MOL0     C24581   5.363   8.863   5.549 -0.0746 -0.8812  0.4711
  187MOL0     O24582   5.343   8.910   5.679 -0.7711  0.0408 -0.6391
  187MOL0     C24583   5.278   8.828   5.769  0.4397  0.0343 -0.2221
  187MOL0     C24584   5.164   8.748   5.726  0.0051  1.1838 -0.1978
  187MOL0     C24585   5.084   8.685   5.831  1.1937  0.1748  0.3574
  187MOL0     C24586   5.127   8.702   5.967 -0.9983  0.5351 -0.0423
  187MOL0     O24587   5.054   8.651   6.074 -0.6793 -0.0887 -0.6913
  187MOL0     C24588   4.911   8.634   6.062  1.5150 -0.5267 -0.3566
  187MOL0     C24589   4.873   8.542   6.170 -0.2570  1.4291 -0.2517
  187MOL0     C24590   4.728   8.497   6.184  0.8500  0.3153  0.2724
  187MOL0     C24591   4.632   8.609   6.203 -0.3550 -0.3654 -0.1050
  187MOL0     C24592   4.498   8.557   6.188  1.7979 -0.7080 -0.3347
  187MOL0     C24593   4.402   8.681   6.187 -0.1397 -0.0050 -1.0188
  187MOL0     C24594   4.411   8.768   6.318 -0.3831  0.3611 -0.5987
  187MOL0     C24595   4.325   8.898   6.328 -0.8474 -0.8393  0.0104
  187MOL0    Cl24596   4.151   8.864   6.333 -0.0637  0.4214 -0.2010
  187MOL0     C24597   5.230   8.784   6.007  0.5502  0.1347 -0.5287
  187MOL0     C24598   5.301   8.851   5.908 -0.2299 -0.4305  0.5028
  187MOL0     O24599   5.356   8.751   5.512  0.7774  0.9935  0.0586
  187MOL0     C24600   5.499   9.073   5.521 -0.1990  0.0081 -0.1473
  187MOL0     C24601   5.576   9.161   5.446  0.0739 -0.6110  0.6721
  187MOL0     N24602   6.290   9.388   5.253 -0.1030  0.9499 -0.1653
  187MOL0     N24603   6.413   9.412   5.258  0.0147  0.7035  0.5825
  187MOL0     C24604   6.911   8.631   4.402 -0.1605  0.1497  0.2075
  187MOL0     C24605   7.009   8.600   4.306 -1.1568  0.3965  0.2560
  187MOL0     C24606   7.457   8.585   4.124 -0.3043  0.6780  0.0950
  187MOL0     C24607   7.397   8.591   3.998  0.4288 -0.2540  0.1524
  187MOL0     C24608   7.479   8.553   3.892  0.6942  0.4194 -0.7940
  187MOL0     C24609   7.620   8.550   3.906 -0.1369 -1.1323 -0.1762
  187MOL0     O24610   7.710   8.547   3.794  1.0014 -0.3627 -0.2060
  187MOL0     C24611   7.657   8.528   3.661  0.0658 -0.8009  0.2498
  187MOL0     C24612   7.753   8.529   3.553 -0.3386 -0.5077 -0.6442
  187MOL0     C24613   7.696   8.568   3.424  0.0154  0.9268  1.1026
  187MOL0     C24614   7.806   8.586   3.318  0.3563 -0.5562 -0.1221
  187MOL0     C24615   7.775   8.685   3.203 -0.0204  0.2936  0.1368
  187MOL0     C24616   7.742   8.757   3.116 -1.0581  0.2536  0.4285
  187MOL0     C24617   7.678   8.553   4.032  0.8867  0.6637  0.1124
  187MOL0     C24618   7.595   8.563   4.143  1.0150  0.2898  0.5472
  187MOL0     H24619   7.262   8.775   4.456 -1.6466  0.8534  4.9985
  187MOL0     H24620   7.106   8.834   4.603  3.2136 -0.9404 -0.4558
  187MOL0     H24621   6.850   8.941   4.586  1.8465 -1.1059 -0.0999
  187MOL0     H24622   6.938   8.862   4.724 -0.7316  1.5123  1.0959
  187MOL0     H24623   6.725   8.809   4.832 -1.5530  1.7161  1.7895
  187MOL0     H24624   6.642   8.882   4.695  1.4406  2.6005 -0.6126
  187MOL0     H24625   6.802   9.087   4.752  1.5267 -2.0516 -1.4900
  187MOL0     H24626   6.812   9.018   4.908  0.8458  1.2702 -0.2521
  187MOL0     H24627   6.546   9.087   4.798  0.6090 -0.5786  0.1403
  187MOL0     H24628   6.575   9.015   4.958 -2.9879  0.7215 -1.1000
  187MOL0     H24629   6.540   9.276   4.915 -3.0067 -1.8813  2.9184
  187MOL0     H24630   6.716   9.273   4.911 -0.8687  1.6868  1.0820
  187MOL0     H24631   6.721   9.143   5.096  0.0044 -1.0118 -0.8346
  187MOL0     H24632   6.551   9.186   5.138  0.8844  2.6317  3.9676
  187MOL0     H24633   6.691   9.337   5.266  4.7988  1.2452  1.5767
  187MOL0     H24634   6.796   9.369   5.134  0.2823 -1.4682  0.2335
  187MOL0     H24635   6.612   9.487   5.002 -0.1713  0.4723 -0.4977
  187MOL0     H24636   6.636   9.563   5.158  2.7352 -1.8985  1.6194
  187MOL0     H24637   6.353   9.468   4.945 -0.5416 -2.9372 -0.4503
  187MOL0     H24638   6.101   9.317   4.998  1.8903 -2.1671  1.5825
  187MOL0     H24639   6.056   9.484   5.054  2.5688  0.3605 -2.3663
  187MOL0     H24640   6.020   9.389   5.277  3.0000 -1.6729  0.5723
  187MOL0     H24641   6.074   9.232   5.230 -1.9971 -1.6294  0.5032
  187MOL0     H24642   5.847   9.376   5.084  1.3924 -0.2609 -0.8313
  187MOL0     H24643   5.879   9.203   5.092  3.2325 -0.1005  0.2718
  187MOL0     H24644   5.753   9.370   5.318 -2.2946  0.5479 -0.5013
  187MOL0     H24645   5.829   9.216   5.354 -1.2091 -1.3134 -0.8026
  187MOL0     H24646   5.506   9.019   5.143 -1.1158  3.6308 -0.4231
  187MOL0     H24647   5.380   8.864   5.303  0.2827 -1.5490  2.3301
  187MOL0     H24648   5.134   8.751   5.622 -1.2378  0.4133  0.1265
  187MOL0     H24649   5.005   8.624   5.787  2.8851 -0.0552 -2.6500
  187MOL0     H24650   4.880   8.582   5.970  0.5658 -1.1078  0.2647
  187MOL0     H24651   4.861   8.728   6.085 -1.9637 -2.6044  1.5017
  187MOL0     H24652   4.905   8.577   6.269 -1.3935  0.4714  0.4813
  187MOL0     H24653   4.918   8.444   6.151 -2.8775  0.1360 -0.3505
  187MOL0     H24654   4.702   8.431   6.268  1.5396  1.3673  1.3476
  187MOL0     H24655   4.706   8.438   6.095 -0.7842 -1.5444  1.8094
  187MOL0     H24656   4.646   8.650   6.303  0.7056 -3.3818  1.0839
  187MOL0     H24657   4.658   8.688   6.132  2.9619  1.0995  2.4830
  187MOL0     H24658   4.469   8.496   6.274 -2.3425 -0.3892 -1.2994
  187MOL0     H24659   4.484   8.488   6.105 -4.9063 -2.4332  1.6179
  187MOL0     H24660   4.301   8.643   6.166 -0.1370 -1.0943  0.7174
  187MOL0     H24661   4.432   8.741   6.101  0.9875  0.6800 -0.1668
  187MOL0     H24662   4.381   8.697   6.396 -0.0709 -1.0097 -1.6686
  187MOL0     H24663   4.516   8.789   6.340 -1.0533  2.1968  1.0983
  187MOL0     H24664   4.330   8.939   6.227 -2.0414 -0.1863  0.2019
  187MOL0     H24665   4.351   8.967   6.409  2.4951 -3.5811  1.5497
  187MOL0     H24666   5.259   8.800   6.110 -0.6253 -1.3589  0.0625
  187MOL0     H24667   5.381   8.917   5.943 -0.9859 -0.1824  1.8175
  187MOL0     H24668   5.491   9.094   5.627 -0.0808 -0.1171 -0.1139
  187MOL0     H24669   5.633   9.247   5.478  2.0878 -0.8152 -2.0935
  187MOL0     H24670   6.821   8.574   4.381  0.1120  0.2041 -1.2477
  187MOL0     H24671   6.974   8.528   4.233  3.9119 -2.0451 -0.2315
  187MOL0     H24672   7.294   8.623   3.984  0.8124  1.8663  1.7813
  187MOL0     H24673   7.437   8.567   3.793 -1.0082  0.3169 -0.1332
  187MOL0     H24674   7.586   8.609   3.640  1.9844  0.2200 -2.9608
  187MOL0     H24675   7.614   8.427   3.658 -1.0594 -0.4386  2.4901
  187MOL0     H24676   7.827   8.605   3.578 -1.0146 -0.4727  1.4304
  187MOL0     H24677   7.809   8.435   3.545 -0.1881 -0.4042 -0.8004
  187MOL0     H24678   7.640   8.662   3.431 -2.8723 -0.5821 -0.2372
  187MOL0     H24679   7.628   8.490   3.388  1.0693  0.4417  0.1030
  187MOL0     H24680   7.894   8.613   3.377 -0.2111 -0.1138  0.5379
  187MOL0     H24681   7.831   8.493   3.266 -4.2848 -1.7349 -0.7002
  187MOL0     H24682   7.712   8.817   3.033  1.3433  0.3264 -0.4743
  187MOL0     H24683   7.786   8.540   4.045  0.7198 -1.1598 -0.0179
  187MOL0     H24684   7.631   8.571   4.245 -0.1019  0.5220  0.9389
  188MOL0     O24685   2.034   6.969  10.153 -0.7013 -0.4585 -0.0635
  188MOL0     C24686   2.149   6.964  10.104  0.0637 -0.0864  0.5464
  188MOL0     O24687   2.266   6.951  10.172  0.2729 -0.1364  0.7299
  188MOL0     C24688   2.284   6.930  10.307  0.3312  0.8982  0.6693
  188MOL0     C24689   2.423   6.890  10.333  0.3286  0.2000 -0.1932
  188MOL0     C24690   2.455   6.859  10.467 -0.1731  0.5244  0.0576
  188MOL0     C24691   2.365   6.856  10.570  0.2874  0.4658 -1.1518
  188MOL0     O24692   2.414   6.833  10.696  0.2068 -0.1101 -0.6586
  188MOL0     C24693   2.324   6.803  10.810 -0.2465  0.3495 -0.5405
  188MOL0     C24694   2.391   6.714  10.922 -0.3323  1.5415  0.1988
  188MOL0     C24695   2.432   6.576  10.878 -0.4890 -0.4346  0.0460
  188MOL0     C24696   2.500   6.486  10.973  0.0687  0.6414 -0.7443
  188MOL0     C24697   2.414   6.475  11.101 -0.4584  0.1263 -0.3058
  188MOL0     C24698   2.467   6.353  11.180  0.9632 -0.0101  0.2268
  188MOL0     C24699   2.363   6.310  11.277 -0.3361  0.2565  0.9451
  188MOL0     C24700   2.407   6.197  11.371 -0.1858  0.0349 -0.0823
  188MOL0     N24701   2.523   6.214  11.456 -0.2719 -0.1257  0.7871
  188MOL0     C24702   2.566   6.331  11.508  0.4090  0.4514 -0.9831
  188MOL0     C24703   2.690   6.300  11.557  0.7943  0.3845  0.0036
  188MOL0     C24704   2.772   6.367  11.669 -0.4886 -1.1921 -0.9985
  188MOL0     C24705   2.708   6.500  11.720  0.5299  0.1464 -0.1067
  188MOL0     C24706   2.782   6.622  11.655  0.2694  0.1510  0.1839
  188MOL0     C24707   2.672   6.720  11.623  0.1417  0.3863  0.5597
  188MOL0     O24708   2.594   6.668  11.519  0.3658 -0.5592 -0.3328
  188MOL0     C24709   2.625   6.720  11.394 -0.0018  0.1710  1.3523
  188MOL0     C24710   2.697   6.657  11.295  0.2180 -0.6541  0.1491
  188MOL0     C24711   2.734   6.719  11.177 -0.3298  0.0687 -0.3168
  188MOL0     C24712   2.673   6.835  11.139  0.2135  0.6739 -0.2701
  188MOL0     C24713   2.692   6.895  11.003  0.2987  0.7660  0.4014
  188MOL0     O24714   2.746   6.803  10.921 -0.6025  0.1460  0.7246
  188MOL0     C24715   2.778   6.810  10.791  0.6591 -0.4367  0.4841
  188MOL0     C24716   2.808   6.686  10.725  0.0029 -0.2260 -0.1814
  188MOL0     C24717   2.849   6.693  10.592  0.1614 -0.3318  1.3520
  188MOL0     C24718   2.859   6.805  10.517  0.4562 -0.1483 -0.6400
  188MOL0     O24719   2.909   6.804  10.394  0.1428  0.5020 -0.6484
  188MOL0     C24720   2.999   6.908  10.358  0.7267  0.1413 -0.3678
  188MOL0     C24721   3.074   6.858  10.249 -0.3224 -0.2014  0.9017
  188MOL0     C24722   3.154   6.974  10.207  0.2984 -0.5760  1.0655
  188MOL0     C24723   3.089   7.044  10.084 -0.2198  0.4102 -0.1341
  188MOL0     C24724   3.165   7.152  10.018 -0.0071  0.3599 -0.7686
  188MOL0     C24725   3.082   7.228   9.916  0.2370 -0.1825  0.3115
  188MOL0     C24726   3.189   7.275   9.816  0.1350 -0.9092  0.6960
  188MOL0     C24727   3.148   7.327   9.682  0.3176 -0.6634 -0.2740
  188MOL0    Cl24728   3.060   7.478   9.705 -0.4360  0.1348 -0.3403
  188MOL0     C24729   2.811   6.923  10.574 -0.4038 -0.0770  0.3365
  188MOL0     C24730   2.770   6.929  10.708  0.8246 -0.1453  0.9384
  188MOL0     O24731   2.653   7.009  10.974 -0.3691  0.2100  0.2108
  188MOL0     C24732   2.605   6.905  11.234 -0.9232  0.4696  0.1908
  188MOL0     C24733   2.587   6.853  11.365  0.9149 -0.4890  0.7757
  188MOL0     N24734   2.721   6.172  11.518  0.0164 -0.1186  0.6288
  188MOL0     N24735   2.623   6.127  11.440  0.1686  0.1640  0.4333
  188MOL0     C24736   2.231   6.883  10.542 -0.2602  0.0535  0.5388
  188MOL0     C24737   2.188   6.921  10.409 -0.6251 -0.3566  0.1894
  188MOL0     C24738   2.158   6.944   9.956  0.5683  0.3433 -0.6874
  188MOL0     C24739   2.285   6.968   9.895 -0.0125 -0.0378 -0.8915
  188MOL0     C24740   2.299   6.948   9.757  0.4786 -0.0463  0.1949
  188MOL0     C24741   2.186   6.914   9.677  1.0409  0.0515 -0.5414
  188MOL0     O24742   2.185   6.880   9.542 -0.5172  0.8280 -0.2820
  188MOL0     C24743   2.204   6.987   9.451  0.0133  0.1098  0.2435
  188MOL0     C24744   2.277   6.938   9.323 -0.6191 -0.3339 -0.7385
  188MOL0     C24745   2.210   6.813   9.265 -0.3576 -0.1627  1.0631
  188MOL0     C24746   2.261   6.690   9.326  0.3118  0.6598 -0.2727
  188MOL0     C24747   2.188   6.569   9.284 -0.1237  0.8909  0.0788
  188MOL0     C24748   2.132   6.462   9.257  0.7016 -0.7351  0.2003
  188MOL0     C24749   2.062   6.894   9.738 -0.3031  0.2749 -0.6247
  188MOL0     C24750   2.051   6.893   9.881 -0.0268 -0.1656 -0.4714
  188MOL0     H24751   2.505   6.888  10.261  2.7513  4.6011  2.0529
  188MOL0     H24752   2.558   6.845  10.496  0.1111  2.5209  0.1671
  188MOL0     H24753   2.238   6.752  10.766 -1.2070  0.5966  0.9826
  188MOL0     H24754   2.279   6.891  10.858 -1.1017 -0.7970  0.8316
  188MOL0     H24755   2.327   6.714  11.011  0.8504 -2.1102  1.1995
  188MOL0     H24756   2.486   6.763  10.944  2.3949 -2.5018 -1.3982
  188MOL0     H24757   2.490   6.589  10.786 -1.4909 -0.3480 -0.5898
  188MOL0     H24758   2.330   6.537  10.866 -0.9255  0.7195 -0.1274
  188MOL0     H24759   2.518   6.389  10.927  2.4194  1.2490 -1.2289
  188MOL0     H24760   2.599   6.523  11.002 -0.6326  1.3672  0.8692
  188MOL0     H24761   2.314   6.441  11.069 -0.1174 -2.1932  0.8959
  188MOL0     H24762   2.420   6.568  11.158 -4.0957  1.8423 -2.3586
  188MOL0     H24763   2.559   6.381  11.232  0.6027  0.3664  0.6743
  188MOL0     H24764   2.484   6.268  11.113  0.8408 -2.0697  2.6398
  188MOL0     H24765   2.325   6.394  11.337 -0.1055  1.2373 -0.2395
  188MOL0     H24766   2.277   6.271  11.221  0.0648 -0.6688  0.9601
  188MOL0     H24767   2.419   6.107  11.310 -4.6560 -0.2722 -0.8343
  188MOL0     H24768   2.328   6.164  11.438 -1.8527  1.5906 -1.2052
  188MOL0     H24769   2.523   6.429  11.525  2.0414  0.7448  2.3057
  188MOL0     H24770   2.872   6.398  11.639  0.3359 -1.2022  1.4921
  188MOL0     H24771   2.778   6.295  11.751  0.3482 -2.1370 -1.8599
  188MOL0     H24772   2.716   6.509  11.829  0.0160 -0.1674 -0.0415
  188MOL0     H24773   2.599   6.496  11.711 -0.1345 -1.4170  5.0488
  188MOL0     H24774   2.843   6.684  11.721 -1.7806  1.6522  0.7581
  188MOL0     H24775   2.836   6.589  11.566  1.8938 -1.6035  1.7567
  188MOL0     H24776   2.712   6.812  11.580  1.3175 -0.2454  0.2752
  188MOL0     H24777   2.632   6.746  11.721  1.0681  2.1792  0.4972
  188MOL0     H24778   2.733   6.557  11.320  1.2642 -0.4525 -0.4904
  188MOL0     H24779   2.801   6.658  11.117 -2.0241  1.8844 -4.4828
  188MOL0     H24780   2.816   6.600  10.791  2.0702 -1.2684 -1.6679
  188MOL0     H24781   2.896   6.604  10.551  0.1822  1.0682 -1.9351
  188MOL0     H24782   3.057   6.930  10.449  0.4830  2.0180 -0.6258
  188MOL0     H24783   2.934   6.988  10.323 -0.7579 -0.5998  0.6029
  188MOL0     H24784   3.005   6.818  10.174 -1.1541  0.8527  1.0738
  188MOL0     H24785   3.136   6.775  10.286  2.2565  1.0977 -0.2756
  188MOL0     H24786   3.245   6.933  10.162 -0.9773 -0.0010 -2.3301
  188MOL0     H24787   3.180   7.045  10.286  1.3878 -1.3422  1.4158
  188MOL0     H24788   3.064   6.967  10.010  3.3599  0.4317 -1.5482
  188MOL0     H24789   2.995   7.089  10.117  0.6453  2.3422 -0.1724
  188MOL0     H24790   3.252   7.108   9.970 -1.8392 -2.1114 -2.0517
  188MOL0     H24791   3.193   7.225  10.094  0.1613 -1.5627  1.1060
  188MOL0     H24792   3.025   7.311   9.957  1.0434  1.8406 -2.4349
  188MOL0     H24793   3.009   7.160   9.870  1.1882 -0.2836 -1.1032
  188MOL0     H24794   3.254   7.347   9.866 -0.5503  0.5521 -0.4440
  188MOL0     H24795   3.257   7.192   9.794 -0.8235 -1.1818 -1.4584
  188MOL0     H24796   3.083   7.254   9.633  3.7657 -2.7662 -2.1310
  188MOL0     H24797   3.235   7.351   9.621  1.5861 -0.8610  1.3748
  188MOL0     H24798   2.802   7.011  10.510  1.8208 -0.8595 -1.1642
  188MOL0     H24799   2.730   7.025  10.737 -1.6810 -0.6283 -0.5736
  188MOL0     H24800   2.570   7.006  11.216 -1.5842 -0.2334 -3.3256
  188MOL0     H24801   2.543   6.918  11.440 -1.9115 -1.9507  0.5026
  188MOL0     H24802   2.155   6.893  10.619  2.8340 -1.2083  4.0321
  188MOL0     H24803   2.090   6.961  10.387  0.3669 -0.0031 -4.4958
  188MOL0     H24804   2.366   7.010   9.954 -1.2509  0.3342  0.5801
  188MOL0     H24805   2.390   6.946   9.697  0.3197 -2.1367 -0.0506
  188MOL0     H24806   2.254   7.072   9.498  1.0779 -0.5321  0.3137
  188MOL0     H24807   2.102   7.020   9.428  0.8191  1.3409 -1.8296
  188MOL0     H24808   2.274   7.016   9.247 -2.7402 -0.2747 -0.6692
  188MOL0     H24809   2.382   6.927   9.351 -1.3623 -1.2288  2.0398
  188MOL0     H24810   2.239   6.809   9.160  1.8329  3.0071  1.4076
  188MOL0     H24811   2.101   6.826   9.258 -0.6979 -3.0790 -0.4118
  188MOL0     H24812   2.365   6.666   9.300 -0.7313 -4.4773 -0.7333
  188MOL0     H24813   2.246   6.680   9.434 -2.2953  1.7241 -0.4689
  188MOL0     H24814   2.093   6.364   9.237 -0.8170  0.1070 -1.1487
  188MOL0     H24815   1.966   6.882   9.689 -0.8409  2.8072 -0.3224
  188MOL0     H24816   1.968   6.860   9.942 -0.5647  1.6957 -0.1502
  189MOL0     O24817   9.410   9.503   2.168 -0.4648  0.2342  0.2865
  189MOL0     C24818   9.306   9.447   2.205 -0.2135 -0.1834 -0.0644
  189MOL0     O24819   9.176   9.485   2.164 -1.0796 -0.8716 -1.0688
  189MOL0     C24820   9.165   9.594   2.087  0.0231  0.3167 -0.7238
  189MOL0     C24821   9.178   9.588   1.947 -0.0243  0.4058  0.3872
  189MOL0     C24822   9.170   9.698   1.860  0.2519 -0.5196 -1.2408
  189MOL0     C24823   9.146   9.820   1.921  1.5874  0.3324  0.2930
  189MOL0     O24824   9.141   9.940   1.853  0.0040 -0.2520  0.3228
  189MOL0     C24825   9.054   9.955   1.748  0.2317  0.3078 -0.9373
  189MOL0     C24826   8.918   9.998   1.812 -0.3113 -0.5212 -1.0831
  189MOL0     C24827   8.926  10.152   1.842  0.0672 -0.5226  1.0351
  189MOL0     C24828   9.043  10.204   1.926  0.0817  0.3603 -0.1452
  189MOL0     C24829   9.042  10.353   1.946  0.3872 -0.3419 -0.1347
  189MOL0     C24830   9.157  10.423   2.015 -0.7895  0.3568 -0.6418
  189MOL0     C24831   9.258  10.474   1.916 -0.0865 -0.0736  0.0726
  189MOL0     C24832   9.208  10.568   1.807  0.4549 -0.6020  0.0692
  189MOL0     N24833   9.314  10.642   1.747 -0.4326  0.3165 -0.3211
  189MOL0     C24834   9.435  10.604   1.712 -0.3734  1.0272 -0.4969
  189MOL0     C24835   9.491  10.726   1.677  0.0760  0.0265 -0.5180
  189MOL0     C24836   9.647  10.737   1.648 -0.3142  0.1824 -0.1174
  189MOL0     C24837   9.719  10.822   1.757 -0.2147  0.0228  0.6690
  189MOL0     C24838   9.709  10.740   1.883  0.1668  0.5968 -0.2562
  189MOL0     C24839   9.792  10.612   1.875  0.5598  1.1085 -0.8085
  189MOL0     O24840   9.923  10.636   1.831  0.4899  0.4495  0.3014
  189MOL0     C24841  10.022  10.692   1.906  0.7485 -0.0404 -0.1321
  189MOL0     C24842  10.006  10.767   2.027  0.5578  0.2154  0.1756
  189MOL0     C24843  10.114  10.832   2.089 -0.0156  0.4678  0.4588
  189MOL0     C24844  10.241  10.838   2.030 -0.6751 -0.7769 -0.7168
  189MOL0     C24845  10.357  10.905   2.095 -1.0031  0.3787  0.2458
  189MOL0     O24846  10.482  10.902   2.015  0.9008 -1.0100 -0.2408
  189MOL0     C24847  10.598  10.962   2.062 -0.1117  0.3494 -0.9746
  189MOL0     C24848  10.638  10.952   2.197 -0.2493 -0.8018  0.4976
  189MOL0     C24849  10.761  11.020   2.235  0.4837 -0.2702  0.8976
  189MOL0     C24850  10.844  11.091   2.136  0.1995 -0.2553 -0.4099
  189MOL0     O24851  10.959  11.169   2.169 -0.7490  0.1454  0.4859
  189MOL0     C24852  11.011  11.178   2.297 -0.0719  0.7851 -0.3635
  189MOL0     C24853  11.118  11.289   2.292 -0.2701 -0.2980 -0.4542
  189MOL0     C24854  11.190  11.289   2.434  0.0226 -0.4763 -0.6505
  189MOL0     C24855  11.336  11.326   2.418  0.0994 -0.5922  0.6346
  189MOL0     C24856  11.414  11.250   2.523  0.3738  0.3006 -0.4853
  189MOL0     C24857  11.370  11.307   2.660 -0.0545 -1.2356  0.3475
  189MOL0     C24858  11.469  11.260   2.769  0.2955  0.4848 -0.6880
  189MOL0     C24859  11.449  11.342   2.893 -0.5787 -0.1216 -0.2336
  189MOL0    Cl24860  11.280  11.344   2.949 -0.5927  0.2729 -0.0789
  189MOL0     C24861  10.803  11.092   2.004  0.3666 -0.3462  0.2535
  189MOL0     C24862  10.686  11.030   1.967  0.8646 -0.0576 -0.0831
  189MOL0     O24863  10.336  10.951   2.206 -0.9652  0.7716 -0.6565
  189MOL0     C24864  10.252  10.776   1.906  0.6901  0.5129 -0.7554
  189MOL0     C24865  10.141  10.709   1.843  0.7535  0.2674  0.1202
  189MOL0     N24866   9.403  10.827   1.684  0.2767  0.0809  0.0384
  189MOL0     N24867   9.293  10.775   1.724 -0.5215  0.2068 -0.2113
  189MOL0     C24868   9.135   9.824   2.056  0.2255 -0.4825 -0.3292
  189MOL0     C24869   9.150   9.716   2.145  0.1095 -0.6641 -0.6183
  189MOL0     C24870   9.314   9.322   2.293  0.0926 -0.2586 -0.1661
  189MOL0     C24871   9.203   9.291   2.370  0.3623  0.5812 -0.1200
  189MOL0     C24872   9.211   9.191   2.474 -0.0481  0.9386  0.4412
  189MOL0     C24873   9.330   9.116   2.481 -0.3285 -0.2370 -0.3649
  189MOL0     O24874   9.333   9.027   2.589 -0.6989 -0.2655 -0.6243
  189MOL0     C24875   9.464   8.977   2.629 -0.3669 -0.2667  0.6271
  189MOL0     C24876   9.571   9.077   2.675 -0.2583 -0.4698 -0.9074
  189MOL0     C24877   9.717   9.025   2.717  0.3172  0.2828  0.3408
  189MOL0     C24878   9.775   8.958   2.591  0.6443  0.3807 -0.0427
  189MOL0     C24879   9.893   8.874   2.613 -0.5433  0.1822  0.2538
  189MOL0     C24880   9.997   8.811   2.617 -0.0213  0.6099  0.0522
  189MOL0     C24881   9.436   9.145   2.395 -0.3554  0.9071  1.1899
  189MOL0     C24882   9.424   9.240   2.309 -0.5104  0.1585  0.1696
  189MOL0     H24883   9.190   9.498   1.887 -4.7088  1.5353 -2.7287
  189MOL0     H24884   9.195   9.686   1.755  0.0701 -1.0195 -1.2293
  189MOL0     H24885   9.046   9.866   1.685 -2.7818  2.5569 -4.1575
  189MOL0     H24886   9.103  10.035   1.691  2.1646  0.1670  0.4186
  189MOL0     H24887   8.907   9.946   1.908  0.3244  0.7432 -0.2947
  189MOL0     H24888   8.832   9.974   1.749 -0.2384 -1.9916 -0.6519
  189MOL0     H24889   8.828  10.174   1.885 -0.9478 -0.2631 -1.2950
  189MOL0     H24890   8.939  10.202   1.745 -0.3321 -1.2876  0.5886
  189MOL0     H24891   9.057  10.151   2.021  2.0124 -0.7931 -1.0025
  189MOL0     H24892   9.135  10.186   1.870 -0.4577  3.6728 -2.3484
  189MOL0     H24893   8.957  10.371   2.013  1.6961 -1.9756  2.1173
  189MOL0     H24894   9.006  10.411   1.861 -0.0524  1.7312  1.3863
  189MOL0     H24895   9.211  10.351   2.077  5.8653  3.0663 -2.4563
  189MOL0     H24896   9.117  10.497   2.084 -1.8540 -1.1031  0.3857
  189MOL0     H24897   9.351  10.521   1.951  0.7361 -1.7408  0.2438
  189MOL0     H24898   9.297  10.384   1.868  1.3259  1.5835 -2.1091
  189MOL0     H24899   9.147  10.643   1.859  0.7906  0.6687 -1.2941
  189MOL0     H24900   9.154  10.517   1.727  0.6390 -0.4587 -0.1488
  189MOL0     H24901   9.476  10.504   1.707  0.9226  1.4117  1.6050
  189MOL0     H24902   9.664  10.778   1.549  2.3924  1.5123  0.8231
  189MOL0     H24903   9.693  10.638   1.649  3.3882  1.7621  0.5439
  189MOL0     H24904   9.675  10.917   1.791  2.6182  1.3011  1.0329
  189MOL0     H24905   9.821  10.850   1.729  0.4008  0.3041  2.9477
  189MOL0     H24906   9.744  10.805   1.964 -0.9286  0.8334  0.0430
  189MOL0     H24907   9.614  10.696   1.916  1.1792 -0.1391  1.9019
  189MOL0     H24908   9.738  10.542   1.812  1.6029  2.2071 -3.0404
  189MOL0     H24909   9.795  10.562   1.972  5.3728 -2.3645 -2.3855
  189MOL0     H24910   9.915  10.788   2.082  0.1576 -1.2946  0.1322
  189MOL0     H24911  10.118  10.879   2.187  0.6181 -1.3531  1.3418
  189MOL0     H24912  10.583  10.892   2.269 -1.6078 -1.2995 -0.8915
  189MOL0     H24913  10.793  11.030   2.339  2.4398 -1.6171  0.4729
  189MOL0     H24914  11.031  11.075   2.329 -0.8486  0.5163 -0.7321
  189MOL0     H24915  10.939  11.208   2.373  1.4077  0.6200  1.1631
  189MOL0     H24916  11.080  11.390   2.272  0.3940  0.3217  1.2781
  189MOL0     H24917  11.190  11.245   2.222  2.1327 -0.1238  1.7722
  189MOL0     H24918  11.172  11.188   2.472 -1.9158 -0.2542 -0.8472
  189MOL0     H24919  11.149  11.366   2.499  2.0244  0.8859 -0.9132
  189MOL0     H24920  11.377  11.317   2.317 -0.7836  1.8336 -0.0273
  189MOL0     H24921  11.344  11.434   2.437  2.6235 -0.1603 -2.1730
  189MOL0     H24922  11.519  11.269   2.499  1.1333 -1.2338  1.3506
  189MOL0     H24923  11.408  11.141   2.512 -0.5405  0.0402  2.0107
  189MOL0     H24924  11.267  11.288   2.691 -0.5911 -1.2152 -1.3350
  189MOL0     H24925  11.381  11.414   2.638  0.0748 -1.3938 -0.3909
  189MOL0     H24926  11.459  11.153   2.784 -2.1965  0.7875  0.3174
  189MOL0     H24927  11.571  11.277   2.731 -0.7363  0.3760 -3.7866
  189MOL0     H24928  11.493  11.441   2.877 -0.8799  0.0606  0.0557
  189MOL0     H24929  11.515  11.309   2.973 -1.2235  1.1732  0.8736
  189MOL0     H24930  10.863  11.138   1.926 -0.5916  1.4943  0.5395
  189MOL0     H24931  10.648  11.021   1.865 -2.6398 -0.8314  1.1305
  189MOL0     H24932  10.345  10.784   1.850  1.4983  2.9204  0.7586
  189MOL0     H24933  10.151  10.674   1.741  0.3890  0.7615 -0.0924
  189MOL0     H24934   9.119   9.921   2.102  1.5239 -1.0123  1.3658
  189MOL0     H24935   9.155   9.728   2.252  0.3774 -2.1044 -0.4458
  189MOL0     H24936   9.111   9.347   2.360 -1.2020 -1.8617 -0.2005
  189MOL0     H24937   9.129   9.164   2.538  1.1938  0.6949  1.9797
  189MOL0     H24938   9.499   8.909   2.551 -0.5140 -2.5271  2.4236
  189MOL0     H24939   9.444   8.918   2.719 -2.9753 -1.8663 -0.8553
  189MOL0     H24940   9.602   9.146   2.596  3.5731  1.6240  2.0609
  189MOL0     H24941   9.544   9.136   2.763 -0.7466  0.9774 -1.9881
  189MOL0     H24942   9.705   8.943   2.789 -2.9035 -0.7074 -1.1413
  189MOL0     H24943   9.777   9.109   2.752  0.3947  0.6662 -0.6805
  189MOL0     H24944   9.700   8.895   2.541 -0.7348  1.7494  0.2049
  189MOL0     H24945   9.797   9.045   2.529 -0.4833 -0.3542 -1.5457
  189MOL0     H24946  10.080   8.748   2.640 -0.9244 -0.3086  0.9345
  189MOL0     H24947   9.517   9.073   2.385 -1.4692 -0.3192  0.7466
  189MOL0     H24948   9.506   9.241   2.238 -1.2155 -1.7914 -0.7409
  190MOL0     O24949   0.604   7.582   5.644  1.3233  0.4882 -0.4880
  190MOL0     C24950   0.585   7.525   5.756  0.0055 -1.2455 -0.0333
  190MOL0     O24951   0.646   7.411   5.798  0.6269 -0.2695  0.0672
  190MOL0     C24952   0.755   7.360   5.728 -0.4351  0.5908 -0.5382
  190MOL0     C24953   0.718   7.284   5.613 -0.0201 -0.4787  0.8863
  190MOL0     C24954   0.827   7.226   5.545 -0.1689  0.0201 -0.0436
  190MOL0     C24955   0.964   7.242   5.588 -0.4980  0.3012  0.6742
  190MOL0     O24956   1.076   7.206   5.518 -0.0256  0.8783  0.4871
  190MOL0     C24957   1.065   7.112   5.404 -0.5392 -0.2150 -0.4599
  190MOL0     C24958   1.024   7.208   5.288  0.8487 -0.6090  0.4532
  190MOL0     C24959   1.032   7.145   5.148 -0.6557  0.2477  0.6320
  190MOL0     C24960   1.013   7.233   5.028 -0.1795 -0.2682  0.6895
  190MOL0     C24961   0.985   7.158   4.901  0.2521 -0.4354 -0.2836
  190MOL0     C24962   0.977   7.259   4.776 -0.6659 -0.2402 -0.3085
  190MOL0     C24963   1.116   7.291   4.726 -1.0835  0.0069  0.0137
  190MOL0     C24964   1.128   7.402   4.623  0.5216  0.2802  0.5430
  190MOL0     N24965   1.074   7.525   4.680 -0.8627  0.6217  0.7408
  190MOL0     C24966   1.096   7.582   4.801  0.6996  1.1867  0.2715
  190MOL0     C24967   1.033   7.698   4.810  1.1192 -0.6791  0.5599
  190MOL0     C24968   1.030   7.788   4.931  0.2661 -0.1801 -0.8130
  190MOL0     C24969   0.905   7.773   5.019  0.2100  0.5451 -0.3437
  190MOL0     C24970   0.843   7.911   5.026  0.0551  0.8240 -0.3063
  190MOL0     C24971   0.751   7.909   5.149  0.6385 -0.6685 -0.1198
  190MOL0     O24972   0.678   8.033   5.146 -0.3096 -0.6947  0.4348
  190MOL0     C24973   0.593   8.070   5.239 -0.0718 -0.7018 -0.3342
  190MOL0     C24974   0.556   7.995   5.351 -0.4852 -0.4716 -0.0622
  190MOL0     C24975   0.457   8.024   5.438 -1.0027 -0.2844 -0.6146
  190MOL0     C24976   0.400   8.156   5.433 -0.4111 -0.3968  0.1612
  190MOL0     C24977   0.289   8.191   5.531  0.6342  0.1548  0.1892
  190MOL0     O24978   0.281   8.108   5.637 -0.2837  0.3244  0.1981
  190MOL0     C24979   0.209   8.154   5.743 -0.3547  0.9313  0.8634
  190MOL0     C24980   0.112   8.067   5.791  0.4907  0.4375 -0.1280
  190MOL0     C24981   0.033   8.099   5.901  0.0130 -0.7282 -0.1270
  190MOL0     C24982   0.054   8.214   5.976  0.3613  0.0930 -0.1969
  190MOL0     O24983  -0.010   8.238   6.088 -0.3426  0.2983 -0.4815
  190MOL0     C24984  -0.143   8.292   6.063 -0.3859  0.2735  0.6394
  190MOL0     C24985  -0.254   8.240   6.155 -0.9161  0.5476 -0.0813
  190MOL0     C24986  -0.394   8.300   6.117  0.2217  0.5282  0.1135
  190MOL0     C24987  -0.404   8.442   6.164 -0.5000 -0.2192  0.0930
  190MOL0     C24988  -0.545   8.511   6.162  0.5203  0.2942  0.3689
  190MOL0     C24989  -0.538   8.665   6.190 -0.3195 -1.3513  0.0403
  190MOL0     C24990  -0.503   8.706   6.337 -0.0184  0.7181  0.3255
  190MOL0     C24991  -0.555   8.849   6.361  0.8596 -1.0795 -0.2872
  190MOL0    Cl24992  -0.725   8.862   6.412  0.0994  0.1616 -0.0001
  190MOL0     C24993   0.161   8.303   5.923  1.2478  0.2747 -0.5151
  190MOL0     C24994   0.235   8.274   5.808 -0.6899 -0.4587  0.2069
  190MOL0     O24995   0.213   8.277   5.499  0.4208 -0.2878  1.1114
  190MOL0     C24996   0.441   8.239   5.323  0.3208 -0.3216 -0.1265
  190MOL0     C24997   0.538   8.195   5.232  0.2710 -1.1214  0.6453
  190MOL0     N24998   0.951   7.710   4.695  0.0927  0.3978  0.0636
  190MOL0     N24999   0.985   7.603   4.623 -0.2754 -0.6382 -0.1401
  190MOL0     C25000   0.989   7.318   5.696  0.3300  0.5327 -0.3375
  190MOL0     C25001   0.884   7.377   5.776  0.6021  0.4005  0.0074
  190MOL0     C25002   0.496   7.592   5.846  0.5041 -0.1240 -0.7211
  190MOL0     C25003   0.478   7.556   5.982  0.2411  0.2813  0.2871
  190MOL0     C25004   0.395   7.630   6.067 -0.2575  0.7231  0.1004
  190MOL0     C25005   0.323   7.734   6.024  0.7049  0.7385 -0.8562
  190MOL0     O25006   0.238   7.783   6.114 -0.7579  0.3580  0.1088
  190MOL0     C25007   0.144   7.885   6.080 -0.0225 -0.2508 -0.2017
  190MOL0     C25008   0.070   7.905   6.221  0.5029 -0.0502 -0.2631
  190MOL0     C25009   0.158   7.935   6.348 -0.2121  0.0484 -0.5755
  190MOL0     C25010   0.203   8.085   6.371  0.7519  0.1985  0.4024
  190MOL0     C25011   0.289   8.133   6.263 -0.9412 -1.0927 -0.1221
  190MOL0     C25012   0.363   8.186   6.182  0.6508  0.3706 -0.1533
  190MOL0     C25013   0.328   7.771   5.890 -0.1536 -0.7267 -0.0102
  190MOL0     C25014   0.422   7.705   5.806 -0.9914 -0.4215 -0.6201
  190MOL0     H25015   0.615   7.286   5.578 -0.3269 -2.4197  1.5963
  190MOL0     H25016   0.814   7.166   5.455  1.4964 -0.2073 -0.1646
  190MOL0     H25017   0.987   7.035   5.410 -1.9539  1.1297 -0.8356
  190MOL0     H25018   1.163   7.067   5.385  0.6342  2.6503 -1.7336
  190MOL0     H25019   1.096   7.290   5.291 -0.0320  0.1454  2.1168
  190MOL0     H25020   0.925   7.254   5.295  0.8610 -0.3876 -0.6610
  190MOL0     H25021   0.959   7.063   5.144 -0.0862 -0.2357 -2.8221
  190MOL0     H25022   1.133   7.104   5.141  1.9810  5.7747  0.8211
  190MOL0     H25023   0.920   7.290   5.037 -0.1009  1.1767 -4.3600
  190MOL0     H25024   1.098   7.301   5.017 -0.9751  0.6177 -0.1544
  190MOL0     H25025   0.892   7.102   4.909  1.1406 -1.7144  2.3175
  190MOL0     H25026   1.065   7.083   4.900 -1.1636 -2.1996  3.1714
  190MOL0     H25027   0.913   7.345   4.793  0.0181  0.6809 -2.1307
  190MOL0     H25028   0.926   7.202   4.698  0.2261 -0.5807 -0.6505
  190MOL0     H25029   1.193   7.297   4.803 -1.7868  1.8709  0.6268
  190MOL0     H25030   1.146   7.208   4.661  1.7405  1.0008 -0.0631
  190MOL0     H25031   1.062   7.380   4.539  2.0967  2.8376 -1.5273
  190MOL0     H25032   1.226   7.433   4.587  0.0955  1.9973  0.7795
  190MOL0     H25033   1.156   7.538   4.881 -3.8155 -2.6290  2.0270
  190MOL0     H25034   1.024   7.891   4.896 -1.0845  0.1632  0.3006
  190MOL0     H25035   1.108   7.778   5.007 -1.0762 -1.5469  0.4624
  190MOL0     H25036   0.939   7.755   5.121 -0.1518  2.3761  0.1387
  190MOL0     H25037   0.835   7.696   4.984  1.5676 -1.8650  1.8823
  190MOL0     H25038   0.918   7.989   5.042  0.9289 -0.0312 -0.1741
  190MOL0     H25039   0.791   7.940   4.934  1.6177  2.0638 -0.8392
  190MOL0     H25040   0.816   7.907   5.238 -0.6413  2.2624  1.0018
  190MOL0     H25041   0.688   7.820   5.155  1.7776 -1.4122  3.1081
  190MOL0     H25042   0.590   7.893   5.370 -0.8758 -0.6506 -0.3088
  190MOL0     H25043   0.443   7.959   5.524  2.0085 -2.7607 -1.8331
  190MOL0     H25044   0.084   7.976   5.740 -4.4505  1.7375 -0.2434
  190MOL0     H25045  -0.046   8.028   5.925 -1.3814  0.8196  0.0095
  190MOL0     H25046  -0.165   8.267   5.959  3.6288 -0.1410 -0.2702
  190MOL0     H25047  -0.149   8.402   6.068  3.0491  0.6300 -0.7007
  190MOL0     H25048  -0.227   8.257   6.260 -0.2061 -2.5261  0.3331
  190MOL0     H25049  -0.259   8.130   6.155 -0.0965  0.4729  1.6923
  190MOL0     H25050  -0.476   8.242   6.161  0.5217  0.8522  1.1444
  190MOL0     H25051  -0.406   8.291   6.009  1.7284  1.1487 -0.1213
  190MOL0     H25052  -0.352   8.457   6.259 -0.3190  0.3904 -0.1009
  190MOL0     H25053  -0.352   8.510   6.096 -2.5953  0.9495 -0.4322
  190MOL0     H25054  -0.617   8.464   6.230 -1.5031 -2.1498 -3.1741
  190MOL0     H25055  -0.583   8.500   6.060  2.5973 -0.3312 -0.3868
  190MOL0     H25056  -0.641   8.702   6.183  0.2946  0.4541 -0.0549
  190MOL0     H25057  -0.469   8.714   6.120 -0.7273 -1.5761 -0.5276
  190MOL0     H25058  -0.541   8.635   6.410 -1.9772  1.4420  0.0910
  190MOL0     H25059  -0.395   8.708   6.350 -0.0122 -0.1251  0.4616
  190MOL0     H25060  -0.533   8.913   6.276 -0.9363  0.7884  0.5588
  190MOL0     H25061  -0.498   8.894   6.443  0.2664 -0.1158 -0.3929
  190MOL0     H25062   0.175   8.384   5.993  0.4233 -2.5186  3.2141
  190MOL0     H25063   0.319   8.338   5.786  0.0047 -1.7354 -1.0182
  190MOL0     H25064   0.410   8.342   5.314 -4.3327 -1.3146  1.8282
  190MOL0     H25065   0.565   8.266   5.154 -0.4574 -0.6005  0.8579
  190MOL0     H25066   1.093   7.337   5.723 -0.0615  0.1758  1.5644
  190MOL0     H25067   0.910   7.440   5.860  1.0937 -0.8990  0.8743
  190MOL0     H25068   0.537   7.484   6.037  0.2039 -1.2581 -1.5761
  190MOL0     H25069   0.394   7.596   6.171 -2.8547 -1.6285 -0.5695
  190MOL0     H25070   0.074   7.839   6.010 -0.5945  1.2012 -0.6227
  190MOL0     H25071   0.205   7.967   6.038 -1.2888  0.5223 -0.5816
  190MOL0     H25072   0.009   7.993   6.199  0.5825  0.1713  0.3809
  190MOL0     H25073  -0.002   7.826   6.247 -0.2466  0.9309  0.7702
  190MOL0     H25074   0.249   7.874   6.348  1.0375  1.8114 -1.2438
  190MOL0     H25075   0.090   7.907   6.428  0.0036  1.9378  0.3218
  190MOL0     H25076   0.114   8.148   6.372  1.1433  0.8056 -0.8332
  190MOL0     H25077   0.259   8.093   6.465  0.6038 -0.3190  0.5386
  190MOL0     H25078   0.440   8.234   6.126  0.3126  2.2556  0.9035
  190MOL0     H25079   0.270   7.858   5.862 -0.1484 -0.4247  0.9010
  190MOL0     H25080   0.433   7.743   5.704  1.9344 -2.4008 -1.1493
  191MOL0     O25081   9.845   7.190   0.803  0.0717 -0.5746  0.4140
  191MOL0     C25082   9.781   7.141   0.718 -0.8896  0.3685  0.4878
  191MOL0     O25083   9.809   7.149   0.589  0.6602 -0.1415 -0.2700
  191MOL0     C25084   9.891   7.237   0.534  0.6366  0.3709 -0.0272
  191MOL0     C25085   9.980   7.189   0.449 -0.1367 -0.2761 -0.6888
  191MOL0     C25086  10.059   7.270   0.378 -0.1440  0.1858 -0.3836
  191MOL0     C25087  10.061   7.407   0.398  0.4721  0.6447 -0.6923
  191MOL0     O25088  10.145   7.483   0.320 -0.1894  0.2552  0.5794
  191MOL0     C25089  10.118   7.621   0.298  1.0605  0.3396  0.1559
  191MOL0     C25090  10.197   7.648   0.176 -0.0270 -0.3690  0.8875
  191MOL0     C25091  10.342   7.652   0.202  0.4854 -0.8313  0.0879
  191MOL0     C25092  10.421   7.654   0.080 -0.1519  0.6411  0.4680
  191MOL0     C25093  10.567   7.692   0.080  0.3319 -0.0839 -0.4130
  191MOL0     C25094  10.655   7.568   0.085 -0.0581  0.4942 -0.4058
  191MOL0     C25095  10.792   7.597   0.125  0.3388 -1.5276  0.5741
  191MOL0     C25096  10.885   7.481   0.151 -0.2976 -0.1709  0.1681
  191MOL0     N25097  10.829   7.381   0.249 -0.2073 -0.3332  0.1810
  191MOL0     C25098  10.785   7.426   0.370 -0.4239  0.7323  0.1040
  191MOL0     C25099  10.769   7.304   0.441  0.5363  0.3090 -0.0172
  191MOL0     C25100  10.753   7.297   0.584 -0.7397  0.5181 -0.3435
  191MOL0     C25101  10.617   7.275   0.624 -1.0534  0.3950  0.3109
  191MOL0     C25102  10.527   7.392   0.618  0.4142  0.4089 -0.1504
  191MOL0     C25103  10.390   7.377   0.674 -0.1514  0.7220  0.5486
  191MOL0     O25104  10.332   7.518   0.650  0.1468 -0.4860 -0.1688
  191MOL0     C25105  10.208   7.547   0.709 -1.1018 -0.0030  0.4263
  191MOL0     C25106  10.159   7.673   0.697 -0.5119 -0.4396 -0.1231
  191MOL0     C25107  10.044   7.718   0.742  0.2391 -0.4047 -0.0874
  191MOL0     C25108   9.960   7.639   0.813  1.1087  0.0976 -0.2209
  191MOL0     C25109   9.834   7.677   0.877  0.5558  0.6196 -0.2970
  191MOL0     O25110   9.798   7.808   0.864 -0.1505  0.6341  0.6751
  191MOL0     C25111   9.672   7.846   0.916  0.7373 -0.2373  0.5198
  191MOL0     C25112   9.614   7.957   0.848  0.0098 -0.0454 -0.0951
  191MOL0     C25113   9.496   8.011   0.897 -0.0125 -0.1277 -0.5971
  191MOL0     C25114   9.430   7.959   1.014  0.1239  0.9620 -0.0611
  191MOL0     O25115   9.305   8.007   1.034  0.2023  0.4586 -0.5965
  191MOL0     C25116   9.193   7.909   1.034 -1.5080  0.2895  0.6076
  191MOL0     C25117   9.058   7.980   1.054 -0.3046  0.0582  0.0312
  191MOL0     C25118   8.951   7.866   1.074 -0.7595  1.0287 -0.3042
  191MOL0     C25119   8.820   7.934   1.073  0.0137  0.4691  0.5349
  191MOL0     C25120   8.710   7.830   1.092 -0.2745  1.0949  0.9023
  191MOL0     C25121   8.575   7.895   1.116  0.2975 -0.0190  0.4902
  191MOL0     C25122   8.489   7.794   1.183 -0.1106 -0.1485  0.2577
  191MOL0     C25123   8.341   7.803   1.169 -0.1574 -0.1216 -0.4884
  191MOL0    Cl25124   8.271   7.640   1.219 -0.2908 -0.7296  0.2786
  191MOL0     C25125   9.493   7.850   1.086  0.0836 -0.2870  0.7843
  191MOL0     C25126   9.616   7.805   1.038  0.5641 -0.4416  0.0795
  191MOL0     O25127   9.763   7.587   0.919 -0.5955 -0.4902  0.0584
  191MOL0     C25128   9.984   7.502   0.815 -0.0400 -0.4380 -0.1433
  191MOL0     C25129  10.116   7.460   0.776 -1.2455  0.4255 -0.0818
  191MOL0     N25130  10.798   7.200   0.351 -0.4110  0.3223  0.0924
  191MOL0     N25131  10.843   7.247   0.246 -0.6432  0.0579 -0.4389
  191MOL0     C25132   9.967   7.459   0.493 -0.0829 -0.2043 -0.3931
  191MOL0     C25133   9.878   7.371   0.557  0.5651 -0.4929 -0.1632
  191MOL0     C25134   9.678   7.047   0.762  0.1372 -0.3303  0.6805
  191MOL0     C25135   9.643   7.045   0.897 -0.5899 -0.1160 -0.0072
  191MOL0     C25136   9.547   6.952   0.939  0.2376  0.0848  0.3122
  191MOL0     C25137   9.485   6.860   0.849 -0.5436  0.6074 -0.0427
  191MOL0     O25138   9.398   6.776   0.915  1.1101 -0.2706  0.5793
  191MOL0     C25139   9.292   6.709   0.826 -0.6653  0.8794  0.4131
  191MOL0     C25140   9.202   6.633   0.925  0.4049 -0.7097 -0.5566
  191MOL0     C25141   9.058   6.602   0.883  0.4791  0.5638 -0.7626
  191MOL0     C25142   8.978   6.560   1.008 -0.3429 -0.0456  0.7059
  191MOL0     C25143   8.867   6.476   0.972  0.4000  1.0344 -0.0711
  191MOL0     C25144   8.774   6.422   0.921 -0.5171  0.2940 -0.4311
  191MOL0     C25145   9.520   6.860   0.718 -0.0480 -0.6961  0.2320
  191MOL0     C25146   9.615   6.955   0.671 -0.6768 -1.1462 -0.4558
  191MOL0     H25147   9.979   7.083   0.426 -1.1226 -0.0653 -1.7236
  191MOL0     H25148  10.127   7.223   0.308  1.4044  0.1320  1.1085
  191MOL0     H25149  10.158   7.680   0.381 -2.4392  0.9279  1.5753
  191MOL0     H25150  10.015   7.644   0.272  0.5715  0.2917  1.9640
  191MOL0     H25151  10.169   7.752   0.154 -1.4092 -1.4489 -3.4040
  191MOL0     H25152  10.183   7.582   0.090  3.8527 -1.5060  0.9204
  191MOL0     H25153  10.371   7.581   0.279  0.7215  1.4216  2.1956
  191MOL0     H25154  10.360   7.752   0.242  1.4668 -0.2873 -1.5874
  191MOL0     H25155  10.420   7.553   0.039  0.7727  0.0758  1.7798
  191MOL0     H25156  10.377   7.726   0.010  1.2495  1.5648  0.4933
  191MOL0     H25157  10.602   7.752   0.164  1.8361 -2.3026  0.6662
  191MOL0     H25158  10.597   7.753  -0.005  1.0511  1.1700  0.6981
  191MOL0     H25159  10.649   7.528  -0.016  1.4097 -2.2917  0.4896
  191MOL0     H25160  10.619   7.488   0.151  3.7411 -1.6886 -0.6731
  191MOL0     H25161  10.841   7.666   0.056  0.0757 -1.5861  0.3288
  191MOL0     H25162  10.794   7.655   0.218 -0.1543 -0.0077 -0.3350
  191MOL0     H25163  10.989   7.509   0.168  0.2029 -1.7785 -0.1332
  191MOL0     H25164  10.901   7.418   0.063 -0.0194 -0.7164  0.5981
  191MOL0     H25165  10.782   7.524   0.417 -1.5367  0.0321  1.5587
  191MOL0     H25166  10.799   7.380   0.638  0.7937 -1.3010  1.3274
  191MOL0     H25167  10.805   7.212   0.630  0.7239  2.0130  0.8537
  191MOL0     H25168  10.615   7.243   0.728 -0.8439 -0.2372  0.1251
  191MOL0     H25169  10.587   7.186   0.568  3.5469 -1.7837  0.8924
  191MOL0     H25170  10.572   7.466   0.685 -0.7149  0.8042  0.2016
  191MOL0     H25171  10.515   7.429   0.516 -0.3439 -0.7726 -0.4982
  191MOL0     H25172  10.384   7.362   0.783 -1.7262  0.8505  0.4989
  191MOL0     H25173  10.344   7.291   0.626  2.6977  0.1148 -1.3557
  191MOL0     H25174  10.215   7.741   0.633  3.7257 -2.2455  1.2634
  191MOL0     H25175  10.022   7.824   0.727  1.6033 -0.3052 -1.6514
  191MOL0     H25176   9.670   7.993   0.761 -0.0880  0.5616  0.0850
  191MOL0     H25177   9.441   8.087   0.842 -4.5979 -0.6421  2.6626
  191MOL0     H25178   9.204   7.836   1.116  0.0385  0.0725  0.2276
  191MOL0     H25179   9.193   7.850   0.942  1.7071 -1.2015  1.4197
  191MOL0     H25180   9.017   8.044   0.976 -2.0904 -0.8483  0.1535
  191MOL0     H25181   9.059   8.036   1.148  0.3980 -1.2821  0.8599
  191MOL0     H25182   8.980   7.830   1.173 -0.7279  1.6850 -0.0670
  191MOL0     H25183   8.956   7.799   0.988 -2.2499  1.5054 -0.7941
  191MOL0     H25184   8.827   8.011   1.150  2.5398  2.1503 -1.2099
  191MOL0     H25185   8.811   7.973   0.971  0.9687 -2.0023 -0.5659
  191MOL0     H25186   8.729   7.769   1.181 -2.1041  4.1291  3.5839
  191MOL0     H25187   8.715   7.767   1.003  0.2276 -1.0342  2.3470
  191MOL0     H25188   8.532   7.929   1.022  0.3823 -0.7913  0.1709
  191MOL0     H25189   8.595   7.983   1.179 -0.2419 -0.6918  1.6439
  191MOL0     H25190   8.519   7.693   1.155 -0.3183 -0.1826  0.1510
  191MOL0     H25191   8.493   7.807   1.291 -2.7675 -1.0158  0.5313
  191MOL0     H25192   8.322   7.813   1.062  0.7155  0.6235 -0.5865
  191MOL0     H25193   8.294   7.892   1.211 -0.8057 -0.0190 -1.4070
  191MOL0     H25194   9.445   7.812   1.175  2.4387 -1.2557  1.7127
  191MOL0     H25195   9.665   7.726   1.094  0.1524 -1.1442 -0.5396
  191MOL0     H25196   9.922   7.426   0.861 -0.9136 -0.1086 -0.7436
  191MOL0     H25197  10.156   7.360   0.787 -0.3376  0.8342  0.4872
  191MOL0     H25198   9.966   7.566   0.512 -4.1154  0.0876 -1.4222
  191MOL0     H25199   9.814   7.422   0.628 -0.4680 -0.5492 -1.0163
  191MOL0     H25200   9.691   7.106   0.972 -0.7666 -0.5047  0.4248
  191MOL0     H25201   9.511   6.963   1.040 -1.1778  0.9969 -0.2651
  191MOL0     H25202   9.332   6.646   0.746  0.3363 -0.4693  1.9149
  191MOL0     H25203   9.247   6.794   0.774 -1.1783  2.1245  2.7321
  191MOL0     H25204   9.249   6.535   0.943  0.1240 -0.8227 -0.4317
  191MOL0     H25205   9.204   6.692   1.017 -2.3434  0.9078 -1.4386
  191MOL0     H25206   9.066   6.515   0.816 -2.6547  0.7932 -1.5855
  191MOL0     H25207   9.019   6.684   0.821  3.5094  2.5025 -0.2867
  191MOL0     H25208   9.040   6.490   1.063  2.8520  0.4441 -1.9971
  191MOL0     H25209   8.958   6.654   1.061 -0.0033  0.8682 -0.7297
  191MOL0     H25210   8.690   6.365   0.885 -1.1530 -0.0288  1.4489
  191MOL0     H25211   9.476   6.786   0.652 -0.2663 -1.1881  0.9070
  191MOL0     H25212   9.639   6.956   0.565  1.8018  0.1310  0.0298
  192MOL0     O25213   8.661   4.117   7.541  0.8832 -1.0988  0.2183
  192MOL0     C25214   8.756   4.160   7.615 -0.2778 -0.1511  0.3956
  192MOL0     O25215   8.844   4.081   7.679 -0.3258 -0.0835 -0.5862
  192MOL0     C25216   8.842   3.942   7.658  0.1323 -0.0865 -1.0310
  192MOL0     C25217   8.837   3.855   7.766  0.8126  0.1200  0.1078
  192MOL0     C25218   8.833   3.718   7.744  0.3576  0.2853  0.3526
  192MOL0     C25219   8.855   3.659   7.611  0.1621 -0.0328 -0.4448
  192MOL0     O25220   8.876   3.526   7.606 -0.3500 -0.0563  0.2516
  192MOL0     C25221   8.835   3.465   7.483 -0.1665 -0.2823  0.5386
  192MOL0     C25222   8.842   3.311   7.486  0.0397 -0.1172 -0.1562
  192MOL0     C25223   8.829   3.244   7.348  0.8170 -0.1272  0.1128
  192MOL0     C25224   8.841   3.091   7.337 -0.4575  0.6728  0.0152
  192MOL0     C25225   8.719   3.006   7.370  0.0339  0.0971  0.0769
  192MOL0     C25226   8.603   3.050   7.278 -1.0128 -1.1222  0.0296
  192MOL0     C25227   8.625   3.028   7.127  0.4349 -0.3372 -0.3129
  192MOL0     C25228   8.497   3.057   7.042  0.3778 -0.5496  1.1653
  192MOL0     N25229   8.520   3.058   6.898  0.8340 -0.9231  0.0780
  192MOL0     C25230   8.527   2.952   6.817  0.0781  0.4782  0.5976
  192MOL0     C25231   8.573   2.989   6.699  0.2607 -0.1793 -0.4029
  192MOL0     C25232   8.616   2.900   6.585 -0.7388 -0.0951  0.3644
  192MOL0     C25233   8.492   2.849   6.507 -0.4829 -0.0606 -0.0841
  192MOL0     C25234   8.526   2.732   6.417  0.2252 -0.3266  0.3531
  192MOL0     C25235   8.550   2.598   6.492 -0.5235  0.2635 -0.0289
  192MOL0     O25236   8.436   2.546   6.560 -0.1691 -0.0722  0.1777
  192MOL0     C25237   8.441   2.419   6.618 -0.1171 -0.4559  0.2412
  192MOL0     C25238   8.519   2.310   6.567  0.3969 -0.9477 -0.5036
  192MOL0     C25239   8.523   2.183   6.642  0.1597  0.0879  0.6604
  192MOL0     C25240   8.434   2.166   6.750  0.2795 -0.0225 -0.2362
  192MOL0     C25241   8.427   2.036   6.808  0.6840  0.2614 -0.0401
  192MOL0     O25242   8.300   1.987   6.839  0.7953 -0.3686  0.1249
  192MOL0     C25243   8.275   1.861   6.885 -0.7492  0.8362  0.2241
  192MOL0     C25244   8.369   1.774   6.942 -1.2521 -0.4054  0.1088
  192MOL0     C25245   8.357   1.639   6.939  0.2806  1.2041 -0.6337
  192MOL0     C25246   8.244   1.575   6.886 -0.3931 -0.8288 -0.2646
  192MOL0     O25247   8.219   1.436   6.899 -0.6042 -0.0290 -0.2155
  192MOL0     C25248   8.082   1.397   6.917 -0.6091 -0.6489 -0.5537
  192MOL0     C25249   8.073   1.241   6.934  0.7309  0.0810 -0.9648
  192MOL0     C25250   8.141   1.188   7.058  0.0557  0.0215 -0.2152
  192MOL0     C25251   8.164   1.039   7.051  0.5963  0.9795 -0.4093
  192MOL0     C25252   8.036   0.951   7.028  0.7488  0.2244 -0.0048
  192MOL0     C25253   8.063   0.807   7.032  0.2768 -0.3935 -0.0916
  192MOL0     C25254   8.152   0.752   6.922 -0.3239  0.1707 -0.3458
  192MOL0     C25255   8.145   0.603   6.912 -0.3426  0.1399  0.0712
  192MOL0    Cl25256   8.199   0.522   7.060 -0.4422 -0.0136 -0.2326
  192MOL0     C25257   8.146   1.659   6.826 -0.5563 -0.1995  0.9186
  192MOL0     C25258   8.166   1.798   6.828  0.2445 -0.7834 -0.3037
  192MOL0     O25259   8.534   1.978   6.825  0.2368  0.1032 -0.5764
  192MOL0     C25260   8.362   2.275   6.794  0.8162 -0.1660  0.0101
  192MOL0     C25261   8.368   2.395   6.731 -0.2639  0.0443 -0.0677
  192MOL0     N25262   8.571   3.129   6.697 -0.2647  0.0564  0.0744
  192MOL0     N25263   8.548   3.169   6.815  0.3287 -0.1301  0.2221
  192MOL0     C25264   8.861   3.751   7.503  0.1407  0.4491 -1.0888
  192MOL0     C25265   8.861   3.883   7.532 -0.4627  0.3414  1.0918
  192MOL0     C25266   8.771   4.309   7.613  0.2661 -0.4385 -0.1113
  192MOL0     C25267   8.681   4.392   7.540  0.3405 -0.6074 -0.0791
  192MOL0     C25268   8.699   4.530   7.532  0.1833  0.1764  0.2488
  192MOL0     C25269   8.810   4.591   7.594 -0.4724 -0.3294  0.1353
  192MOL0     O25270   8.855   4.721   7.583  0.4787  0.6533 -0.9828
  192MOL0     C25271   8.786   4.801   7.486  0.0466 -0.4148  1.6718
  192MOL0     C25272   8.844   4.943   7.484 -0.1416  0.1510  0.1756
  192MOL0     C25273   8.978   4.948   7.402 -0.2083  0.4489 -0.5770
  192MOL0     C25274   9.070   5.050   7.466  0.4647 -0.2810  0.1081
  192MOL0     C25275   9.192   5.052   7.381 -0.6678 -1.1904 -0.5831
  192MOL0     C25276   9.296   5.061   7.311 -0.3171  0.1338 -0.4307
  192MOL0     C25277   8.897   4.513   7.674 -1.1185 -1.3012 -0.5834
  192MOL0     C25278   8.884   4.373   7.682  0.2540 -0.7693 -0.0166
  192MOL0     H25279   8.830   3.910   7.859 -1.8562  0.5020 -0.2347
  192MOL0     H25280   8.818   3.656   7.832 -3.0988  0.7993  0.2329
  192MOL0     H25281   8.900   3.501   7.403  0.8848 -0.4048  1.3170
  192MOL0     H25282   8.732   3.495   7.460 -1.3813 -1.3539  3.9971
  192MOL0     H25283   8.757   3.288   7.551  1.3355 -0.9683  1.3135
  192MOL0     H25284   8.936   3.286   7.535  1.2918  3.3130 -0.5924
  192MOL0     H25285   8.911   3.280   7.285 -0.5127  0.9240 -1.0908
  192MOL0     H25286   8.743   3.282   7.293 -0.2811 -0.0086  1.8440
  192MOL0     H25287   8.868   3.053   7.238  0.2547 -1.8724  1.0991
  192MOL0     H25288   8.920   3.057   7.404  0.0079  1.7832  0.0397
  192MOL0     H25289   8.696   3.022   7.476  2.8795 -1.9276  1.1513
  192MOL0     H25290   8.719   2.897   7.362 -2.3498 -0.0983  1.7519
  192MOL0     H25291   8.566   3.146   7.315 -1.9493 -2.0584  1.6604
  192MOL0     H25292   8.519   2.985   7.303 -0.8044 -2.2841 -2.0572
  192MOL0     H25293   8.694   3.105   7.091  0.6397 -0.3833 -0.0209
  192MOL0     H25294   8.667   2.928   7.112  1.3144  0.1805 -1.5091
  192MOL0     H25295   8.449   3.153   7.063  0.9651  0.8596 -2.9449
  192MOL0     H25296   8.420   2.983   7.065 -2.6924  1.3793 -1.8962
  192MOL0     H25297   8.513   2.850   6.852  1.9405 -0.1527 -0.3858
  192MOL0     H25298   8.678   2.816   6.615  0.8533  0.9553  0.1548
  192MOL0     H25299   8.684   2.941   6.510  0.4362 -1.7011  0.5124
  192MOL0     H25300   8.439   2.933   6.461 -0.3963  1.3527  2.2347
  192MOL0     H25301   8.430   2.812   6.588  0.9194  0.3310  1.2175
  192MOL0     H25302   8.447   2.704   6.347 -0.3736 -1.9895  1.6395
  192MOL0     H25303   8.618   2.755   6.361 -0.6307  0.1572 -0.9160
  192MOL0     H25304   8.624   2.604   6.572  1.1071  0.6165 -1.5120
  192MOL0     H25305   8.590   2.517   6.430 -0.3918 -2.5861  3.4980
  192MOL0     H25306   8.590   2.319   6.485  1.3228  0.8671  0.4305
  192MOL0     H25307   8.578   2.102   6.596 -0.1574  0.9569 -1.3859
  192MOL0     H25308   8.466   1.813   6.971 -1.4191 -1.1929  1.8712
  192MOL0     H25309   8.435   1.582   6.988 -2.8838 -0.8301  2.4815
  192MOL0     H25310   8.022   1.420   6.828  0.4050  0.4345 -0.9697
  192MOL0     H25311   8.026   1.439   7.001 -0.3550 -1.9620  0.3034
  192MOL0     H25312   8.117   1.197   6.844 -0.0419 -1.7520 -0.5004
  192MOL0     H25313   7.969   1.206   6.936  0.9786 -0.7401 -1.6339
  192MOL0     H25314   8.074   1.218   7.140 -0.2125  0.9586 -0.7646
  192MOL0     H25315   8.235   1.241   7.075 -0.1399 -0.1349  1.5407
  192MOL0     H25316   8.245   1.029   6.978 -0.4301 -1.0120 -1.3713
  192MOL0     H25317   8.205   0.993   7.141 -2.0903 -1.7161 -0.4164
  192MOL0     H25318   8.003   0.965   6.925  0.3115 -1.0362 -0.0508
  192MOL0     H25319   7.954   0.972   7.098  0.1267  2.1653 -1.2494
  192MOL0     H25320   7.973   0.744   7.028  0.4412 -0.6456  0.1401
  192MOL0     H25321   8.116   0.785   7.124  0.4026 -1.8466 -0.4816
  192MOL0     H25322   8.108   0.792   6.831 -1.5749 -1.3433 -0.4401
  192MOL0     H25323   8.256   0.784   6.935 -0.3970 -0.1680  1.2602
  192MOL0     H25324   8.194   0.569   6.820 -1.1210  1.8386 -1.0192
  192MOL0     H25325   8.040   0.586   6.888  0.3228 -1.8772 -1.7810
  192MOL0     H25326   8.053   1.620   6.785 -0.5593  1.7624 -1.1634
  192MOL0     H25327   8.101   1.861   6.769  1.8191 -1.3315 -2.7881
  192MOL0     H25328   8.304   2.246   6.881 -0.2603  1.4159 -0.1330
  192MOL0     H25329   8.323   2.487   6.766  3.3925  1.4696  1.4570
  192MOL0     H25330   8.858   3.712   7.402 -2.3681 -0.3137 -0.7755
  192MOL0     H25331   8.855   3.952   7.449  0.3322 -2.4810 -1.4512
  192MOL0     H25332   8.595   4.347   7.491 -0.4582  0.4159  0.3483
  192MOL0     H25333   8.628   4.586   7.472  1.4378 -0.3091 -1.8030
  192MOL0     H25334   8.678   4.808   7.501  0.2452 -0.4842  3.4029
  192MOL0     H25335   8.795   4.765   7.384 -1.9632  5.0191 -0.8498
  192MOL0     H25336   8.764   5.007   7.445 -1.4434 -1.0325  0.7865
  192MOL0     H25337   8.866   4.967   7.588  2.4009 -0.6937 -0.1068
  192MOL0     H25338   8.956   4.972   7.297  1.0873  1.1250 -0.7143
  192MOL0     H25339   9.026   4.850   7.406 -1.3719 -0.0940  0.8423
  192MOL0     H25340   9.025   5.147   7.442 -1.7211 -1.5479 -1.2656
  192MOL0     H25341   9.096   5.041   7.572  1.4589 -0.7611 -0.1601
  192MOL0     H25342   9.387   5.075   7.257  1.4283 -0.8409  2.0757
  192MOL0     H25343   8.973   4.565   7.730 -1.7099  3.4565 -3.6002
  192MOL0     H25344   8.952   4.316   7.746  1.1947 -0.8125 -1.0267
  193MOL0     O25345   2.441   2.206   2.563  0.8837 -0.0423  0.4716
  193MOL0     C25346   2.362   2.108   2.553 -0.6870 -0.5629 -0.0521
  193MOL0     O25347   2.373   1.990   2.627  0.2616  0.2534  0.3205
  193MOL0     C25348   2.446   1.992   2.740  0.6338 -0.2726  0.4009
  193MOL0     C25349   2.507   1.879   2.791  0.2836 -0.7256 -0.8902
  193MOL0     C25350   2.546   1.871   2.928 -0.2863  0.5176  0.2897
  193MOL0     C25351   2.535   1.975   3.017  0.8952 -0.1082  1.1356
  193MOL0     O25352   2.586   1.988   3.150 -0.3077  0.1102  0.2013
  193MOL0     C25353   2.698   1.914   3.183  0.0466  0.2800 -0.5058
  193MOL0     C25354   2.738   1.939   3.330 -0.6010 -0.5669 -0.9324
  193MOL0     C25355   2.800   2.078   3.350 -0.4811 -0.7602 -0.6641
  193MOL0     C25356   2.819   2.124   3.489 -0.2078  0.6812 -1.4749
  193MOL0     C25357   2.690   2.135   3.578 -0.5793 -1.4011  0.0661
  193MOL0     C25358   2.552   2.174   3.518 -0.2207  0.1113  1.0014
  193MOL0     C25359   2.532   2.319   3.506  0.1076 -0.4745 -0.9917
  193MOL0     C25360   2.413   2.352   3.432 -0.1332 -0.5296  0.7300
  193MOL0     N25361   2.398   2.496   3.442 -0.6772 -0.0124  0.0909
  193MOL0     C25362   2.336   2.564   3.543 -0.5536 -0.4017  0.7549
  193MOL0     C25363   2.321   2.690   3.497  0.4112  0.2647 -0.9147
  193MOL0     C25364   2.271   2.823   3.563 -1.3427 -0.5912 -0.0530
  193MOL0     C25365   2.129   2.852   3.525 -0.4463  1.1327 -0.3617
  193MOL0     C25366   2.082   2.966   3.608 -0.6500  0.6880  0.4264
  193MOL0     C25367   2.050   2.948   3.753  0.1959  0.2104  0.4386
  193MOL0     O25368   1.917   2.891   3.775  0.3005 -0.9739 -0.3809
  193MOL0     C25369   1.799   2.968   3.776 -0.6682 -0.4071  0.2843
  193MOL0     C25370   1.781   3.098   3.715  0.1309  0.5051 -0.4613
  193MOL0     C25371   1.654   3.159   3.716  0.0003 -0.2018 -0.0271
  193MOL0     C25372   1.546   3.085   3.773  1.1512  0.0619  0.1807
  193MOL0     C25373   1.411   3.160   3.800 -0.3430 -0.4825 -0.1907
  193MOL0     O25374   1.307   3.079   3.840 -0.3758  0.2193 -0.3713
  193MOL0     C25375   1.179   3.125   3.851  0.7875  0.1919 -0.2231
  193MOL0     C25376   1.108   3.237   3.790  0.5867  0.0936  0.1152
  193MOL0     C25377   0.964   3.261   3.817  0.4013  0.4285  0.4577
  193MOL0     C25378   0.896   3.182   3.911  0.1682  0.4252 -0.2640
  193MOL0     O25379   0.768   3.224   3.922  0.0708  0.4706  0.2682
  193MOL0     C25380   0.670   3.161   3.998  0.3845 -0.1551  0.4791
  193MOL0     C25381   0.546   3.258   3.988  0.2045  0.9412  0.9452
  193MOL0     C25382   0.579   3.398   4.026 -0.1356  0.0363 -0.3697
  193MOL0     C25383   0.468   3.486   4.087 -0.4481 -0.4302  0.2782
  193MOL0     C25384   0.527   3.578   4.197  1.0219 -0.0379 -0.7948
  193MOL0     C25385   0.415   3.637   4.292 -0.3538  0.0495  0.6321
  193MOL0     C25386   0.478   3.741   4.380 -0.8414  0.0013 -0.0701
  193MOL0     C25387   0.379   3.810   4.464  0.6581 -0.6080 -0.2521
  193MOL0    Cl25388   0.465   3.905   4.595  0.3534  0.3669  0.5518
  193MOL0     C25389   0.970   3.089   3.983 -0.5625  0.6418  0.3608
  193MOL0     C25390   1.110   3.064   3.959 -0.0692 -0.6880  0.2158
  193MOL0     O25391   1.403   3.282   3.779 -0.8042  0.3261  0.1462
  193MOL0     C25392   1.570   2.955   3.828  0.9961 -0.4805  0.4109
  193MOL0     C25393   1.692   2.899   3.836 -0.4544  0.0950 -0.1592
  193MOL0     N25394   2.382   2.692   3.373  1.0293 -0.1554 -0.1506
  193MOL0     N25395   2.443   2.579   3.343 -0.4419 -0.2082  0.7337
  193MOL0     C25396   2.467   2.080   2.965  0.2546  0.6712  0.9409
  193MOL0     C25397   2.429   2.091   2.833 -0.1544 -0.6935  0.3633
  193MOL0     C25398   2.265   2.122   2.442  0.4872  0.7409  0.2868
  193MOL0     C25399   2.211   2.007   2.374  0.1991 -0.4350 -0.0450
  193MOL0     C25400   2.125   2.029   2.263  0.6619  0.5273 -0.2701
  193MOL0     C25401   2.090   2.159   2.224 -0.1183  0.3130  1.9892
  193MOL0     O25402   2.007   2.166   2.119  0.0947 -0.0565  0.6714
  193MOL0     C25403   2.008   2.286   2.046  0.8086  0.3682  0.4516
  193MOL0     C25404   1.922   2.277   1.909  0.6602  0.6152 -0.3153
  193MOL0     C25405   1.911   2.422   1.853  0.0858  0.1447 -0.3221
  193MOL0     C25406   1.810   2.423   1.736 -1.4242 -0.0581 -0.1324
  193MOL0     C25407   1.881   2.338   1.630  0.1841  0.9105  0.4577
  193MOL0     C25408   1.914   2.266   1.545  0.3677  0.4980  0.4386
  193MOL0     C25409   2.138   2.267   2.303 -0.1888 -0.3728  0.0903
  193MOL0     C25410   2.228   2.247   2.400 -0.7004 -0.1587  0.2252
  193MOL0     H25411   2.506   1.786   2.735 -3.1396  0.5215 -3.2842
  193MOL0     H25412   2.594   1.777   2.951  0.2772  0.9200  0.7815
  193MOL0     H25413   2.791   1.936   3.131  0.6702 -2.7914 -0.9254
  193MOL0     H25414   2.672   1.808   3.170 -1.5375  0.2801  1.9631
  193MOL0     H25415   2.814   1.868   3.364  0.2679  1.0057  0.6197
  193MOL0     H25416   2.649   1.924   3.392 -0.1930  0.8579  0.0380
  193MOL0     H25417   2.728   2.149   3.308  2.1062  2.1234 -0.5491
  193MOL0     H25418   2.898   2.077   3.302  0.9291 -0.5169  2.0377
  193MOL0     H25419   2.904   2.076   3.539 -2.0347 -1.7698 -0.5289
  193MOL0     H25420   2.853   2.228   3.487  1.2512  0.3515  1.1940
  193MOL0     H25421   2.729   2.206   3.651  3.2332 -0.4479 -2.5568
  193MOL0     H25422   2.674   2.037   3.625  0.6214 -0.6878  2.0815
  193MOL0     H25423   2.477   2.127   3.582 -1.5619  0.0353 -0.5900
  193MOL0     H25424   2.541   2.125   3.421 -2.1749 -2.5806  2.4337
  193MOL0     H25425   2.519   2.360   3.607  3.3508 -0.4478 -0.4729
  193MOL0     H25426   2.628   2.357   3.469 -0.0667 -1.4631 -2.5277
  193MOL0     H25427   2.329   2.307   3.487 -0.7760 -1.4625 -0.9220
  193MOL0     H25428   2.408   2.313   3.329  4.5979  0.6449 -0.1631
  193MOL0     H25429   2.313   2.512   3.636  1.6654 -0.9105  1.1029
  193MOL0     H25430   2.338   2.900   3.522 -0.0865 -1.2264  0.7640
  193MOL0     H25431   2.298   2.827   3.669 -1.2770  1.0019 -0.1020
  193MOL0     H25432   2.068   2.766   3.552 -0.0435  1.0821  0.3855
  193MOL0     H25433   2.119   2.873   3.418 -2.2825  0.1394 -0.4355
  193MOL0     H25434   2.147   3.053   3.596 -1.2546  1.2688  1.2858
  193MOL0     H25435   1.992   2.998   3.555  0.5793 -1.8484 -3.7077
  193MOL0     H25436   2.069   3.041   3.807  0.6672  0.0010  0.6423
  193MOL0     H25437   2.124   2.886   3.805 -1.2221 -0.3029  1.9241
  193MOL0     H25438   1.867   3.155   3.683 -1.5346  2.9877 -0.8281
  193MOL0     H25439   1.650   3.260   3.676  1.9804 -0.2354 -0.4139
  193MOL0     H25440   1.159   3.283   3.706 -1.9693  0.6517 -1.2333
  193MOL0     H25441   0.908   3.324   3.749 -2.7460 -3.0170 -0.5097
  193MOL0     H25442   0.715   3.149   4.097 -0.2117  1.6576  1.0089
  193MOL0     H25443   0.645   3.069   3.945 -2.9875  1.2449 -0.6554
  193MOL0     H25444   0.467   3.224   4.056 -1.9628  0.6555 -1.5487
  193MOL0     H25445   0.500   3.260   3.889  4.3275 -1.7690 -1.3222
  193MOL0     H25446   0.621   3.461   3.947  0.5135  1.1857  0.8484
  193MOL0     H25447   0.656   3.400   4.103 -1.0484  0.7528  0.5553
  193MOL0     H25448   0.416   3.519   3.997 -0.4359 -3.6998 -1.0743
  193MOL0     H25449   0.391   3.420   4.128  1.1062 -2.0287  0.8247
  193MOL0     H25450   0.575   3.662   4.146 -0.1212 -0.1749 -2.1503
  193MOL0     H25451   0.594   3.527   4.267  0.1702 -1.5922 -1.0637
  193MOL0     H25452   0.361   3.559   4.345  0.4007 -1.4293 -0.6996
  193MOL0     H25453   0.345   3.691   4.227  3.7245  2.8437 -1.9315
  193MOL0     H25454   0.547   3.686   4.445 -0.8065  1.3993  1.1453
  193MOL0     H25455   0.545   3.814   4.334  0.9337 -0.3165  1.8248
  193MOL0     H25456   0.323   3.725   4.505  3.5747 -2.3065  0.5399
  193MOL0     H25457   0.316   3.875   4.402  0.8199  0.1759  0.3895
  193MOL0     H25458   0.915   3.025   4.052 -0.8129 -0.8475 -1.1617
  193MOL0     H25459   1.168   2.990   4.014  0.8496  2.4199  3.8676
  193MOL0     H25460   1.497   2.909   3.893 -0.2796 -0.3754 -0.9048
  193MOL0     H25461   1.709   2.804   3.884  2.6882 -0.9231 -2.9358
  193MOL0     H25462   2.458   2.157   3.040  0.3043 -0.2961  1.9665
  193MOL0     H25463   2.393   2.189   2.804  1.6301 -0.1314 -0.0565
  193MOL0     H25464   2.252   1.911   2.403 -0.0854 -0.3033  0.8444
  193MOL0     H25465   2.079   1.938   2.225 -0.7862  0.8053  0.7302
  193MOL0     H25466   2.110   2.324   2.031  0.8276 -0.1478 -0.8065
  193MOL0     H25467   1.957   2.361   2.107 -1.2816  0.6304 -1.4990
  193MOL0     H25468   1.962   2.203   1.840  0.2165 -0.8904  0.9884
  193MOL0     H25469   1.819   2.244   1.927 -0.8108  4.2811 -1.0686
  193MOL0     H25470   2.010   2.453   1.818  0.5294 -1.7464 -0.8643
  193MOL0     H25471   1.869   2.483   1.934  1.1811  1.3528 -0.6177
  193MOL0     H25472   1.710   2.382   1.758 -1.1314 -1.6270 -1.5907
  193MOL0     H25473   1.785   2.522   1.698 -0.2951  0.6727  0.9613
  193MOL0     H25474   1.950   2.201   1.468 -0.9880 -1.0388  1.0329
  193MOL0     H25475   2.120   2.370   2.274  1.7210 -0.2408 -0.8294
  193MOL0     H25476   2.275   2.342   2.421  0.9384 -1.4072  2.7832
  194MOL0     O25477   0.166   7.813   4.517 -0.9532 -0.0256 -1.0473
  194MOL0     C25478   0.075   7.827   4.592  0.3824 -0.4265  0.2326
  194MOL0     O25479   0.053   7.938   4.676 -0.3199  0.0047 -0.3049
  194MOL0     C25480   0.153   8.039   4.674  1.0445  0.2200  0.9087
  194MOL0     C25481   0.216   8.071   4.789 -0.5145 -0.5137 -0.9712
  194MOL0     C25482   0.323   8.162   4.784 -0.6014 -0.8235  0.4309
  194MOL0     C25483   0.369   8.236   4.673 -0.5918 -0.0028  0.0659
  194MOL0     O25484   0.484   8.317   4.689  0.1074 -0.0343  0.3164
  194MOL0     C25485   0.518   8.413   4.590  0.1243  0.3051 -0.2287
  194MOL0     C25486   0.624   8.502   4.651  1.1897 -0.5810 -0.1945
  194MOL0     C25487   0.669   8.618   4.554 -0.0543  0.5945 -0.3028
  194MOL0     C25488   0.774   8.710   4.618 -0.4778  0.0310  0.7447
  194MOL0     C25489   0.811   8.835   4.523  0.2115  0.3138  1.7137
  194MOL0     C25490   0.934   8.909   4.586  0.6801 -0.5518 -0.1497
  194MOL0     C25491   0.965   9.059   4.536  0.7529 -0.6562 -1.2434
  194MOL0     C25492   1.044   9.054   4.401  0.3698 -0.3499  1.1286
  194MOL0     N25493   0.982   9.140   4.293  0.2145  0.4075 -0.2745
  194MOL0     C25494   0.915   9.087   4.184 -0.7484  0.9159 -0.3180
  194MOL0     C25495   0.914   9.191   4.095 -0.3126  0.5992 -0.4219
  194MOL0     C25496   0.843   9.191   3.964 -0.7383 -0.9073 -0.3966
  194MOL0     C25497   0.940   9.147   3.847 -0.0039 -0.2228 -0.2880
  194MOL0     C25498   1.046   9.259   3.810  0.2145  0.7576 -0.3788
  194MOL0     C25499   1.134   9.211   3.699  0.0538  0.5133  0.4568
  194MOL0     O25500   1.182   9.080   3.715 -0.4084 -0.0895 -0.4621
  194MOL0     C25501   1.273   9.025   3.636 -0.8622  0.3905 -0.4218
  194MOL0     C25502   1.323   9.090   3.521 -0.7613  1.2603 -0.7129
  194MOL0     C25503   1.430   9.033   3.449  0.5284 -0.2891 -0.0161
  194MOL0     C25504   1.498   8.917   3.491  1.1694 -0.2978  0.9328
  194MOL0     C25505   1.596   8.843   3.405  0.2751  0.0931 -0.3225
  194MOL0     O25506   1.667   8.919   3.312  1.1342 -0.7556 -0.3147
  194MOL0     C25507   1.759   8.869   3.229  0.3824  0.1271 -0.5117
  194MOL0     C25508   1.771   8.733   3.195  0.8942 -0.2872  0.3132
  194MOL0     C25509   1.864   8.683   3.097 -0.4517  0.0875 -0.2542
  194MOL0     C25510   1.957   8.773   3.046 -0.0999  0.9631  0.5755
  194MOL0     O25511   2.054   8.737   2.952  0.4523 -0.2696  0.9099
  194MOL0     C25512   2.105   8.610   2.951  0.6370  1.2437  0.6348
  194MOL0     C25513   2.242   8.631   2.896  0.8120 -0.1107 -0.7668
  194MOL0     C25514   2.347   8.522   2.917 -0.0197  0.6968  0.0528
  194MOL0     C25515   2.477   8.565   2.843  0.1673 -1.2276 -0.2090
  194MOL0     C25516   2.581   8.468   2.880  0.2362  0.1010 -0.0059
  194MOL0     C25517   2.568   8.320   2.835  0.1051  0.0040  0.5590
  194MOL0     C25518   2.564   8.310   2.685 -0.0063  0.1752 -0.7154
  194MOL0     C25519   2.695   8.354   2.610 -0.2502  0.0189  0.1431
  194MOL0    Cl25520   2.686   8.319   2.432 -0.0997  0.4715  0.3181
  194MOL0     C25521   1.951   8.910   3.086 -0.1815 -0.4793 -0.1209
  194MOL0     C25522   1.857   8.954   3.175  1.3358 -0.7687 -0.4583
  194MOL0     O25523   1.625   8.725   3.446 -0.1421 -0.4649  0.0804
  194MOL0     C25524   1.449   8.866   3.614 -0.4571 -0.9054  0.3592
  194MOL0     C25525   1.342   8.918   3.678 -0.9007  0.3390 -0.1682
  194MOL0     N25526   0.988   9.295   4.148 -0.9721 -0.5275  0.1332
  194MOL0     N25527   1.023   9.263   4.266 -0.6077  0.3501  0.5122
  194MOL0     C25528   0.310   8.200   4.553  0.9636  0.2810 -0.0193
  194MOL0     C25529   0.204   8.102   4.551 -0.1206  0.4123  0.2545
  194MOL0     C25530  -0.025   7.718   4.601  0.1916  0.0061  0.1212
  194MOL0     C25531  -0.004   7.583   4.577  0.2035  0.8806 -0.2824
  194MOL0     C25532  -0.104   7.490   4.584  1.1496  1.2329 -0.6170
  194MOL0     C25533  -0.235   7.534   4.623 -0.1628 -0.9725  0.2473
  194MOL0     O25534  -0.346   7.447   4.620 -0.5211  0.1404  0.4737
  194MOL0     C25535  -0.367   7.372   4.744  0.7840  0.7822 -0.0736
  194MOL0     C25536  -0.486   7.282   4.734 -0.1341  0.5590 -0.6033
  194MOL0     C25537  -0.607   7.371   4.719 -0.3157 -0.4700  0.5079
  194MOL0     C25538  -0.726   7.288   4.677 -0.7037 -0.1488  0.6082
  194MOL0     C25539  -0.839   7.378   4.662 -0.1999  0.0544  0.0862
  194MOL0     C25540  -0.919   7.470   4.642 -0.1406 -0.7757 -0.5996
  194MOL0     C25541  -0.259   7.672   4.645  0.0651  0.7257  0.2660
  194MOL0     C25542  -0.154   7.771   4.646 -0.4096 -0.2402  0.7709
  194MOL0     H25543   0.170   8.032   4.879 -0.7576  1.5290 -0.1525
  194MOL0     H25544   0.386   8.185   4.869 -0.3052  3.4055 -0.7143
  194MOL0     H25545   0.435   8.483   4.570 -0.6701 -0.3368  0.7259
  194MOL0     H25546   0.551   8.367   4.497  2.9289  1.5291  0.0596
  194MOL0     H25547   0.709   8.436   4.672 -0.7188 -1.8146  4.9307
  194MOL0     H25548   0.587   8.545   4.744 -0.8342  0.9584 -1.6396
  194MOL0     H25549   0.586   8.677   4.515  0.0986  2.4389  1.9074
  194MOL0     H25550   0.723   8.566   4.474 -1.4368  3.5472 -3.4029
  194MOL0     H25551   0.737   8.736   4.717 -4.7276 -1.5367 -0.2255
  194MOL0     H25552   0.871   8.661   4.625 -0.0179  0.6921 -0.5266
  194MOL0     H25553   0.725   8.900   4.507  0.1549 -0.3498 -1.3372
  194MOL0     H25554   0.840   8.802   4.422  0.6465 -3.5349  2.9398
  194MOL0     H25555   1.030   8.856   4.574  0.4340 -1.2732  0.9459
  194MOL0     H25556   0.907   8.913   4.692 -5.9509  0.8771 -1.4434
  194MOL0     H25557   0.868   9.109   4.528  0.2764 -1.8887 -4.2716
  194MOL0     H25558   1.028   9.111   4.609 -0.0357 -0.7192 -0.5092
  194MOL0     H25559   1.044   8.949   4.369  2.1710 -0.2724  0.7521
  194MOL0     H25560   1.149   9.083   4.414  1.4030 -2.8984 -0.6574
  194MOL0     H25561   0.868   8.989   4.180 -1.1286  0.9906  1.3145
  194MOL0     H25562   0.819   9.296   3.944 -0.9580 -0.6517  1.1228
  194MOL0     H25563   0.750   9.134   3.961 -1.5629  0.4101 -0.9609
  194MOL0     H25564   0.889   9.114   3.755  2.1239 -1.8090 -0.9525
  194MOL0     H25565   0.993   9.060   3.886 -1.8091 -1.0895  0.3606
  194MOL0     H25566   0.990   9.350   3.787  2.5535  3.6251  3.9647
  194MOL0     H25567   1.105   9.284   3.899  0.4487 -0.3359 -0.2109
  194MOL0     H25568   1.222   9.275   3.698  0.0176  0.6474  2.3699
  194MOL0     H25569   1.079   9.221   3.605  0.3692  0.2319  0.2417
  194MOL0     H25570   1.264   9.166   3.470  0.9722  1.1522 -3.0461
  194MOL0     H25571   1.439   9.080   3.352  0.7592  0.6119  0.4227
  194MOL0     H25572   1.706   8.657   3.236  3.5643 -3.6910 -1.2984
  194MOL0     H25573   1.867   8.580   3.065  1.4051  0.0043  0.0668
  194MOL0     H25574   2.055   8.534   2.891  0.6427  0.9704  0.9716
  194MOL0     H25575   2.102   8.572   3.053 -1.8649 -1.7578 -0.3981
  194MOL0     H25576   2.274   8.719   2.953 -0.8744  0.9306 -1.3384
  194MOL0     H25577   2.236   8.668   2.793 -0.2821  0.7449 -0.4229
  194MOL0     H25578   2.302   8.429   2.880 -2.8308  2.0119 -0.0393
  194MOL0     H25579   2.366   8.505   3.023  1.3309 -2.2840 -0.5361
  194MOL0     H25580   2.463   8.568   2.734 -2.0427 -1.5205  0.0097
  194MOL0     H25581   2.504   8.664   2.881 -3.4025  0.3504 -1.2978
  194MOL0     H25582   2.591   8.463   2.989  0.9068 -1.5666 -0.1076
  194MOL0     H25583   2.679   8.495   2.840  1.8255 -1.3849  2.5851
  194MOL0     H25584   2.480   8.269   2.876  1.1800 -1.5153  1.0663
  194MOL0     H25585   2.649   8.255   2.868 -0.6393 -2.6073 -2.3214
  194MOL0     H25586   2.569   8.203   2.662  0.9055 -0.2282  1.1241
  194MOL0     H25587   2.472   8.355   2.648 -0.7673 -1.9885 -1.6445
  194MOL0     H25588   2.780   8.308   2.661 -2.5501 -2.5495  1.9610
  194MOL0     H25589   2.717   8.461   2.609  0.1029 -0.0516  0.2912
  194MOL0     H25590   2.009   8.985   3.033  1.5175 -1.8738 -0.3357
  194MOL0     H25591   1.838   9.059   3.193 -3.8653 -1.8086  2.2637
  194MOL0     H25592   1.491   8.772   3.648 -1.2060 -1.4727 -0.2533
  194MOL0     H25593   1.299   8.860   3.759 -0.9837 -0.5721 -0.8477
  194MOL0     H25594   0.350   8.256   4.469  2.2823  0.2967  0.6022
  194MOL0     H25595   0.157   8.076   4.457  3.6737  1.2439 -2.1143
  194MOL0     H25596   0.090   7.537   4.548  0.2731  1.0293 -0.2925
  194MOL0     H25597  -0.092   7.383   4.575 -3.9387  0.2262  1.2633
  194MOL0     H25598  -0.402   7.442   4.820 -3.0421  0.0066 -0.9237
  194MOL0     H25599  -0.282   7.311   4.775  1.7263  1.9911 -0.2320
  194MOL0     H25600  -0.473   7.213   4.650  1.3110  0.0935 -0.0272
  194MOL0     H25601  -0.492   7.227   4.828 -1.4457 -2.5029 -2.3371
  194MOL0     H25602  -0.595   7.447   4.641 -1.5045  0.0892  0.8351
  194MOL0     H25603  -0.629   7.415   4.817 -1.0376 -0.2344  0.2486
  194MOL0     H25604  -0.703   7.240   4.581  2.4157 -1.3968  1.8356
  194MOL0     H25605  -0.748   7.200   4.739  0.8864 -1.3031 -0.3740
  194MOL0     H25606  -0.989   7.550   4.627  0.7649  0.2652  0.5285
  194MOL0     H25607  -0.354   7.709   4.682  0.5617  1.3208  0.9697
  194MOL0     H25608  -0.168   7.876   4.665 -1.0044 -0.6731  2.9732
  195MOL0     O25609   6.819   8.487   0.932  0.2860  0.5972 -0.4239
  195MOL0     C25610   6.815   8.579   1.018  0.2485  0.5160 -1.0313
  195MOL0     O25611   6.872   8.705   1.011 -0.5577 -0.6351  0.0441
  195MOL0     C25612   6.970   8.748   0.917  0.7914  0.3013  0.0064
  195MOL0     C25613   7.038   8.863   0.952  0.1352 -1.0855  0.0096
  195MOL0     C25614   7.153   8.906   0.880  0.2784  0.6929  0.8530
  195MOL0     C25615   7.169   8.853   0.745 -0.0926 -0.0690 -0.1105
  195MOL0     O25616   7.283   8.908   0.663  0.2081  0.3030 -0.2317
  195MOL0     C25617   7.285   8.850   0.532  0.2030  0.3226  0.0042
  195MOL0     C25618   7.361   8.933   0.434 -0.3970  0.2410  0.8670
  195MOL0     C25619   7.512   8.941   0.466  0.5347  0.2765  0.3648
  195MOL0     C25620   7.582   9.036   0.374  0.5769 -0.0336 -0.1090
  195MOL0     C25621   7.712   9.089   0.439 -0.1111  0.5883 -0.1293
  195MOL0     C25622   7.688   9.201   0.541  0.1869 -0.0016 -0.6837
  195MOL0     C25623   7.827   9.263   0.590  0.3783 -0.3180 -0.4478
  195MOL0     C25624   7.915   9.163   0.675 -0.4553  0.9608  0.1089
  195MOL0     N25625   8.054   9.219   0.661  0.2309 -0.4443  0.0931
  195MOL0     C25626   8.146   9.194   0.554 -0.0162 -0.1645 -0.6233
  195MOL0     C25627   8.257   9.267   0.595  0.0814 -0.3983  0.4050
  195MOL0     C25628   8.383   9.270   0.510 -0.1345 -0.1215  0.4026
  195MOL0     C25629   8.496   9.216   0.602  0.7119 -0.1324  0.4574
  195MOL0     C25630   8.639   9.231   0.528 -0.3949 -0.4736 -0.4121
  195MOL0     C25631   8.643   9.162   0.394 -0.5674 -0.8255  0.0617
  195MOL0     O25632   8.575   9.040   0.383  0.3475  0.6176  0.4121
  195MOL0     C25633   8.554   8.997   0.249  0.1094 -0.4295 -0.2578
  195MOL0     C25634   8.645   8.998   0.140 -0.0562  0.2134 -0.5175
  195MOL0     C25635   8.603   8.959   0.012  0.7089 -0.5819  0.3162
  195MOL0     C25636   8.470   8.924  -0.015 -0.0083  0.4172  0.4654
  195MOL0     C25637   8.424   8.894  -0.157 -0.1282 -0.2455  0.1566
  195MOL0     O25638   8.300   8.841  -0.161  0.3812 -0.1500 -0.0681
  195MOL0     C25639   8.240   8.813  -0.281  0.8751  0.2294  0.3427
  195MOL0     C25640   8.111   8.850  -0.307  0.4037  0.0840  0.5457
  195MOL0     C25641   8.026   8.796  -0.402 -0.2684  0.9339 -0.7404
  195MOL0     C25642   8.076   8.707  -0.503 -0.0192 -0.0421  0.2679
  195MOL0     O25643   7.987   8.677  -0.603  0.6914 -0.2823  0.2166
  195MOL0     C25644   8.015   8.558  -0.690  0.8382  0.3079 -0.3766
  195MOL0     C25645   7.897   8.508  -0.772  0.1177  0.0465  0.5316
  195MOL0     C25646   7.794   8.447  -0.673  0.6908 -0.1523  0.5473
  195MOL0     C25647   7.658   8.420  -0.760 -0.5247 -0.3143  0.0975
  195MOL0     C25648   7.558   8.331  -0.671 -0.3909 -0.0227  0.2372
  195MOL0     C25649   7.424   8.303  -0.743 -0.5234  0.2933 -0.5744
  195MOL0     C25650   7.330   8.256  -0.633 -0.4274  0.0747  0.0570
  195MOL0     C25651   7.198   8.191  -0.689  0.3873  0.0535 -0.5464
  195MOL0    Cl25652   7.204   8.012  -0.719  0.1406  0.2630  0.4500
  195MOL0     C25653   8.211   8.682  -0.494  0.3811 -0.0205  0.2988
  195MOL0     C25654   8.295   8.727  -0.380 -0.0431  0.5764  0.5038
  195MOL0     O25655   8.496   8.913  -0.259  0.3657  0.3617 -0.5309
  195MOL0     C25656   8.394   8.915   0.097  0.1906  0.4818  0.4178
  195MOL0     C25657   8.428   8.951   0.221 -0.1323 -0.5459 -0.1889
  195MOL0     N25658   8.231   9.332   0.712 -0.5497  0.5779  0.6719
  195MOL0     N25659   8.110   9.306   0.744 -0.1634  0.4748 -0.4587
  195MOL0     C25660   7.093   8.735   0.714  0.6319 -0.2348 -0.3848
  195MOL0     C25661   6.996   8.688   0.794  0.3135  0.5228  0.2390
  195MOL0     C25662   6.761   8.547   1.158  0.6020 -0.6492  0.6097
  195MOL0     C25663   6.730   8.411   1.183 -0.3758  0.1134  0.4395
  195MOL0     C25664   6.681   8.374   1.310 -0.5533 -0.0800 -0.5642
  195MOL0     C25665   6.656   8.471   1.407  0.9653  0.5990  0.2609
  195MOL0     O25666   6.586   8.442   1.519 -0.3035 -0.9823  0.2859
  195MOL0     C25667   6.548   8.307   1.555 -1.1348 -0.0926 -0.3354
  195MOL0     C25668   6.539   8.313   1.709 -1.0901  0.0392  0.7293
  195MOL0     C25669   6.525   8.175   1.759 -0.1572 -0.5444 -0.1059
  195MOL0     C25670   6.551   8.174   1.920  0.2503 -0.2574 -0.3374
  195MOL0     C25671   6.451   8.253   1.992 -0.6825 -0.1472 -0.5904
  195MOL0     C25672   6.367   8.307   2.063  0.4695  0.1860 -0.3840
  195MOL0     C25673   6.686   8.602   1.385 -0.3587  0.0374  0.4748
  195MOL0     C25674   6.735   8.643   1.254 -0.0254 -0.3020  0.6918
  195MOL0     H25675   7.029   8.909   1.050 -0.8152  1.9834 -1.4014
  195MOL0     H25676   7.223   8.972   0.931 -0.8774  1.5273  1.4037
  195MOL0     H25677   7.185   8.853   0.487  0.3122  0.2818 -0.2470
  195MOL0     H25678   7.312   8.744   0.531  0.6761  0.4398 -0.9777
  195MOL0     H25679   7.316   9.032   0.441 -2.7954 -0.4566 -2.3833
  195MOL0     H25680   7.353   8.904   0.329  1.7149 -0.9236  0.9845
  195MOL0     H25681   7.554   8.840   0.466  0.9164  0.4290  1.3964
  195MOL0     H25682   7.536   8.964   0.570 -1.0907 -1.9738  1.3295
  195MOL0     H25683   7.600   8.991   0.276  0.8590  1.6653 -0.8585
  195MOL0     H25684   7.519   9.124   0.358 -0.0308 -0.0045  2.0361
  195MOL0     H25685   7.779   9.128   0.363 -1.6383  0.3612 -1.6678
  195MOL0     H25686   7.763   9.004   0.486 -1.4652  0.0732  0.4956
  195MOL0     H25687   7.657   9.158   0.637  0.9907  0.4989 -0.1886
  195MOL0     H25688   7.624   9.286   0.516  0.8950  1.0785  1.0283
  195MOL0     H25689   7.870   9.308   0.500 -0.3508 -0.4370 -0.8636
  195MOL0     H25690   7.804   9.348   0.656 -2.0295 -0.3807 -1.1156
  195MOL0     H25691   7.914   9.067   0.623  3.6470 -0.1676  1.7103
  195MOL0     H25692   7.881   9.152   0.779 -1.8111  0.0562 -0.4123
  195MOL0     H25693   8.127   9.125   0.473 -1.8636 -2.2465  1.4369
  195MOL0     H25694   8.407   9.371   0.478  0.1171  0.7834  3.1427
  195MOL0     H25695   8.370   9.217   0.416  0.4010  1.2584 -0.4759
  195MOL0     H25696   8.478   9.117   0.646  2.5577 -0.4980  0.4631
  195MOL0     H25697   8.507   9.280   0.690  0.2723 -1.5565  1.5915
  195MOL0     H25698   8.665   9.338   0.522  3.5681 -1.2459  0.4285
  195MOL0     H25699   8.712   9.172   0.584 -0.3460 -0.9101 -0.9259
  195MOL0     H25700   8.746   9.149   0.360  0.1431  0.6360  1.5031
  195MOL0     H25701   8.601   9.243   0.334  2.5385  0.8776  0.0139
  195MOL0     H25702   8.744   9.040   0.146  0.4978 -1.2199  2.7212
  195MOL0     H25703   8.673   8.965  -0.071  3.1155 -1.0008  2.2123
  195MOL0     H25704   8.056   8.892  -0.223 -1.1944  2.2941 -1.4386
  195MOL0     H25705   7.926   8.838  -0.395  0.3111  2.3604 -0.6016
  195MOL0     H25706   8.044   8.476  -0.624  0.3825  0.9220  0.6198
  195MOL0     H25707   8.088   8.594  -0.763 -1.8497  0.6296 -3.1125
  195MOL0     H25708   7.923   8.448  -0.859 -0.8625  1.2885 -0.6676
  195MOL0     H25709   7.855   8.600  -0.814  3.9541  1.1710 -1.2564
  195MOL0     H25710   7.760   8.517  -0.596 -1.4344  0.8737 -1.2004
  195MOL0     H25711   7.829   8.351  -0.634  1.3464  0.9195  2.7601
  195MOL0     H25712   7.615   8.517  -0.787 -0.6443  0.0139  1.3638
  195MOL0     H25713   7.688   8.372  -0.853  3.4343  0.6516  0.6949
  195MOL0     H25714   7.558   8.377  -0.572  2.2347  0.4904  0.0832
  195MOL0     H25715   7.600   8.234  -0.639 -0.6169 -0.2327 -0.1061
  195MOL0     H25716   7.434   8.231  -0.825 -0.9479  4.2895 -4.5151
  195MOL0     H25717   7.382   8.397  -0.779 -2.5878  0.1128  1.1639
  195MOL0     H25718   7.363   8.178  -0.564  1.1738  0.0304 -0.7244
  195MOL0     H25719   7.308   8.332  -0.558 -0.7473 -1.6112  1.7251
  195MOL0     H25720   7.172   8.245  -0.780  1.0004  2.3424  0.5721
  195MOL0     H25721   7.117   8.209  -0.617  0.8825 -1.8488  0.5658
  195MOL0     H25722   8.252   8.607  -0.562  2.2197  1.6823 -0.5995
  195MOL0     H25723   8.400   8.699  -0.377 -0.7560 -2.4120  0.7337
  195MOL0     H25724   8.286   8.907   0.091 -0.0380  2.5090  1.1098
  195MOL0     H25725   8.367   8.961   0.311 -1.6285  0.7829 -1.2874
  195MOL0     H25726   7.116   8.678   0.625  0.9171  0.3213 -0.6659
  195MOL0     H25727   6.929   8.612   0.756  3.1469 -0.6835 -2.8445
  195MOL0     H25728   6.745   8.339   1.104 -0.4621  0.4313  0.1284
  195MOL0     H25729   6.672   8.266   1.320  0.3793 -0.2129 -1.0839
  195MOL0     H25730   6.623   8.235   1.521  1.8656  3.3744 -1.7753
  195MOL0     H25731   6.457   8.271   1.506 -1.1142 -0.9536  0.2371
  195MOL0     H25732   6.617   8.373   1.757 -1.5284  0.7407  0.5725
  195MOL0     H25733   6.452   8.368   1.745 -0.9104  0.2745  0.8149
  195MOL0     H25734   6.595   8.106   1.711  1.8934  1.6205 -0.4281
  195MOL0     H25735   6.426   8.130   1.746  1.1223 -2.8698 -2.8334
  195MOL0     H25736   6.547   8.067   1.943  1.3395  0.1304  1.8566
  195MOL0     H25737   6.648   8.211   1.955 -1.2675  1.4714  2.3274
  195MOL0     H25738   6.294   8.356   2.124 -0.1270 -1.9379  0.7044
  195MOL0     H25739   6.647   8.674   1.457 -0.9626 -0.4037  0.5949
  195MOL0     H25740   6.747   8.749   1.236 -2.5783  0.4414  2.6601
  196MOL0     O25741   5.084   3.291   5.121 -0.2625 -0.1817 -0.2509
  196MOL0     C25742   5.143   3.218   5.199 -0.4588 -0.0447 -0.2079
  196MOL0     O25743   5.095   3.190   5.319  0.2236  0.1929 -0.7489
  196MOL0     C25744   4.966   3.238   5.353 -0.2644 -0.5778 -0.5666
  196MOL0     C25745   4.956   3.311   5.465  0.8750 -0.0824 -1.3747
  196MOL0     C25746   4.839   3.363   5.506 -0.0453 -0.4005 -0.5670
  196MOL0     C25747   4.719   3.347   5.433  0.2767  1.1034  0.3650
  196MOL0     O25748   4.600   3.404   5.463  0.2653 -0.3360 -0.3240
  196MOL0     C25749   4.594   3.517   5.555 -1.0945 -0.2517 -0.0929
  196MOL0     C25750   4.447   3.560   5.570  0.5073  0.5535  0.7859
  196MOL0     C25751   4.393   3.497   5.700  0.7161  0.3696 -0.0019
  196MOL0     C25752   4.241   3.528   5.699  0.5708 -0.2879 -0.1771
  196MOL0     C25753   4.175   3.456   5.819 -0.1707 -0.1117 -0.3287
  196MOL0     C25754   4.026   3.440   5.817 -0.1185 -0.0505 -0.5303
  196MOL0     C25755   3.975   3.392   5.953  1.7295 -0.4492 -0.6589
  196MOL0     C25756   4.000   3.247   5.988  0.1874 -0.6458  0.2590
  196MOL0     N25757   3.929   3.186   6.103  0.4653 -0.3336  0.2273
  196MOL0     C25758   3.949   3.200   6.242 -0.3966 -0.5732 -0.2330
  196MOL0     C25759   3.856   3.113   6.301 -1.1804  0.5552 -0.2052
  196MOL0     C25760   3.857   3.085   6.451 -0.7610 -0.3846 -0.8172
  196MOL0     C25761   4.000   3.075   6.510 -0.6333  0.1833 -0.7041
  196MOL0     C25762   4.052   2.926   6.514 -0.8356  0.1693  0.7532
  196MOL0     C25763   4.034   2.853   6.394  0.2860 -0.3463  0.1286
  196MOL0     O25764   4.131   2.901   6.297 -0.6439 -0.5486  0.3498
  196MOL0     C25765   4.260   2.853   6.287 -0.2199  1.2083  1.1095
  196MOL0     C25766   4.312   2.760   6.375  0.7148 -0.0326  0.5319
  196MOL0     C25767   4.433   2.701   6.358 -0.2921  0.3145  0.8627
  196MOL0     C25768   4.517   2.732   6.238  0.6376  0.1343  0.8275
  196MOL0     C25769   4.642   2.663   6.218 -0.2038  0.2299  0.3410
  196MOL0     O25770   4.694   2.602   6.321 -0.4737  0.7227  0.3819
  196MOL0     C25771   4.830   2.560   6.313  0.4051 -0.5884 -0.3815
  196MOL0     C25772   4.862   2.437   6.254 -0.2601  0.6855 -0.1187
  196MOL0     C25773   4.996   2.389   6.257  0.1705  0.5113  0.6603
  196MOL0     C25774   5.102   2.471   6.302 -0.9684 -0.0270 -0.3556
  196MOL0     O25775   5.228   2.424   6.298  0.3938  0.4650  1.1515
  196MOL0     C25776   5.311   2.446   6.415 -0.1356  0.3477 -0.1935
  196MOL0     C25777   5.448   2.369   6.374  0.3591 -0.1723  0.0836
  196MOL0     C25778   5.556   2.461   6.311  0.1364  0.6933 -0.2109
  196MOL0     C25779   5.666   2.370   6.260 -1.2030  0.2744  0.2073
  196MOL0     C25780   5.802   2.441   6.236 -0.4291  0.2392  0.8591
  196MOL0     C25781   5.928   2.361   6.268  0.7418 -0.1823 -0.1622
  196MOL0     C25782   6.051   2.457   6.276 -0.0483  1.1272  0.4324
  196MOL0     C25783   6.184   2.391   6.216 -0.6336  0.1626  0.0558
  196MOL0    Cl25784   6.214   2.225   6.284  0.2200 -0.0661 -0.3383
  196MOL0     C25785   5.067   2.596   6.354  0.5756 -0.1806 -0.8929
  196MOL0     C25786   4.934   2.642   6.363 -0.4138  0.3286  0.2934
  196MOL0     O25787   4.701   2.686   6.108 -0.2583  0.8970 -0.4138
  196MOL0     C25788   4.468   2.828   6.145 -0.8086 -0.8376 -0.4630
  196MOL0     C25789   4.342   2.885   6.174  0.4307  0.3378 -0.5263
  196MOL0     N25790   3.792   3.046   6.197 -0.2079  1.3134 -0.9723
  196MOL0     N25791   3.837   3.083   6.084 -0.5834 -1.1655 -0.4265
  196MOL0     C25792   4.725   3.260   5.319  0.1943  0.6320  0.2976
  196MOL0     C25793   4.853   3.197   5.284 -0.0654  0.1499 -0.4680
  196MOL0     C25794   5.281   3.169   5.164  0.0436 -0.5862 -0.3899
  196MOL0     C25795   5.362   3.240   5.067 -1.2713  0.7306  0.0818
  196MOL0     C25796   5.496   3.189   5.047  0.1983 -0.3149  0.3781
  196MOL0     C25797   5.553   3.090   5.120  0.5123  0.8374 -0.3887
  196MOL0     O25798   5.683   3.051   5.122  0.6165  0.6304 -0.6729
  196MOL0     C25799   5.764   3.083   5.008 -0.4453  0.2192 -0.6182
  196MOL0     C25800   5.904   3.020   5.025 -0.3869 -0.1850  0.1510
  196MOL0     C25801   6.001   3.079   4.931  0.8702 -0.0873  0.1863
  196MOL0     C25802   6.094   2.965   4.870 -0.3228  0.5758 -0.0189
  196MOL0     C25803   6.220   3.026   4.821  0.1959 -0.6731  0.7929
  196MOL0     C25804   6.328   3.073   4.804 -0.1367  0.0550 -0.0646
  196MOL0     C25805   5.468   3.018   5.213  0.1077 -0.1503  1.0041
  196MOL0     C25806   5.339   3.058   5.235  0.5247  0.5656  0.2282
  196MOL0     H25807   5.043   3.318   5.531  0.6408  0.3099 -1.1041
  196MOL0     H25808   4.835   3.407   5.605 -0.1896 -1.1740 -0.2247
  196MOL0     H25809   4.662   3.592   5.515  0.8110 -0.2023  2.9151
  196MOL0     H25810   4.647   3.505   5.650 -1.4861 -1.2425  0.0193
  196MOL0     H25811   4.383   3.535   5.484 -1.0104 -0.5326  2.1777
  196MOL0     H25812   4.449   3.670   5.574 -1.1982  0.6028  1.1300
  196MOL0     H25813   4.436   3.552   5.784 -2.2900  0.4751  1.6372
  196MOL0     H25814   4.403   3.390   5.717 -4.4358 -0.3191  0.3996
  196MOL0     H25815   4.211   3.632   5.714  2.6515  0.1688  1.0542
  196MOL0     H25816   4.201   3.487   5.605  1.6211  2.7079 -2.0860
  196MOL0     H25817   4.214   3.520   5.898 -0.3127  1.2749 -1.3336
  196MOL0     H25818   4.223   3.360   5.837  1.3008  1.1218  3.3154
  196MOL0     H25819   4.002   3.378   5.730 -1.0271 -0.1612 -0.2080
  196MOL0     H25820   3.985   3.541   5.807 -3.5208 -1.0451  1.5705
  196MOL0     H25821   4.021   3.452   6.032 -0.4313 -0.2964  0.5768
  196MOL0     H25822   3.868   3.412   5.967  1.4116 -3.0245  1.4669
  196MOL0     H25823   4.107   3.227   5.996  0.5123 -0.2261 -2.1388
  196MOL0     H25824   3.977   3.192   5.896  0.1123  0.2650 -0.2861
  196MOL0     H25825   4.024   3.257   6.295 -2.4154  0.8589  1.1882
  196MOL0     H25826   3.798   2.995   6.471 -0.0156 -0.6309  0.3680
  196MOL0     H25827   3.810   3.158   6.516  1.4435 -0.7790  1.3628
  196MOL0     H25828   4.000   3.113   6.612 -0.4895  0.6459 -0.8700
  196MOL0     H25829   4.072   3.138   6.455  0.2422  1.5058  1.7985
  196MOL0     H25830   4.158   2.929   6.543 -0.1137 -1.1551 -1.4587
  196MOL0     H25831   4.010   2.877   6.602  0.6595  2.4312  2.8704
  196MOL0     H25832   3.934   2.865   6.352  1.2119  0.3350 -2.0609
  196MOL0     H25833   4.046   2.749   6.424 -3.9346 -0.8270  0.7602
  196MOL0     H25834   4.261   2.742   6.468  0.5849  0.0294  0.4726
  196MOL0     H25835   4.467   2.641   6.441  3.2625  2.4236  1.1140
  196MOL0     H25836   4.778   2.382   6.214  0.8148 -0.0009 -1.5384
  196MOL0     H25837   5.028   2.298   6.207  1.3171  2.6047 -2.8295
  196MOL0     H25838   5.271   2.416   6.513  2.1942 -0.0408  0.6856
  196MOL0     H25839   5.329   2.551   6.442  0.4543 -0.2247  1.7471
  196MOL0     H25840   5.426   2.283   6.310  2.2209  1.5246 -3.1082
  196MOL0     H25841   5.475   2.330   6.472 -0.5257  2.8863  1.7003
  196MOL0     H25842   5.566   2.527   6.398 -1.4555 -1.3910  1.6742
  196MOL0     H25843   5.512   2.505   6.221 -1.0354 -1.5788 -0.8040
  196MOL0     H25844   5.676   2.302   6.345 -2.3562  1.2583  1.1628
  196MOL0     H25845   5.652   2.305   6.174  0.5509  0.5744 -0.3552
  196MOL0     H25846   5.804   2.530   6.299 -2.6021  0.0051  1.3549
  196MOL0     H25847   5.800   2.467   6.130 -2.8271  2.0274  1.2504
  196MOL0     H25848   5.938   2.282   6.193 -1.7921  0.9626 -1.8381
  196MOL0     H25849   5.915   2.315   6.367 -2.5917 -0.1678 -0.4603
  196MOL0     H25850   6.034   2.547   6.218  3.4041 -0.2185 -3.0748
  196MOL0     H25851   6.066   2.478   6.383 -1.0847  0.2164  0.7806
  196MOL0     H25852   6.261   2.461   6.250  0.3455 -0.3412 -1.0882
  196MOL0     H25853   6.173   2.376   6.109 -0.1994 -1.4430  0.2182
  196MOL0     H25854   5.143   2.661   6.395  1.5548 -1.1073 -1.1860
  196MOL0     H25855   4.908   2.739   6.405  0.5489  2.6711 -3.9374
  196MOL0     H25856   4.520   2.863   6.057  2.4281 -0.2828  1.4736
  196MOL0     H25857   4.294   2.958   6.109  0.8392  0.3812 -0.7864
  196MOL0     H25858   4.639   3.235   5.258 -0.2101  1.6745  0.4277
  196MOL0     H25859   4.858   3.115   5.214 -1.3239  0.3954 -0.8685
  196MOL0     H25860   5.331   3.323   5.004 -0.6245  1.8677  1.2222
  196MOL0     H25861   5.557   3.230   4.968 -0.3356 -0.2731 -0.0158
  196MOL0     H25862   5.777   3.192   5.001  3.1416 -0.1588 -1.5288
  196MOL0     H25863   5.725   3.040   4.915 -0.0796  0.7609 -1.0295
  196MOL0     H25864   5.930   3.054   5.126  1.6093  1.7130 -0.9015
  196MOL0     H25865   5.908   2.912   5.016  1.6758 -0.0752 -0.7566
  196MOL0     H25866   6.055   3.165   4.973 -0.3088  1.7977 -1.8953
  196MOL0     H25867   5.947   3.128   4.849  0.1026 -3.5020 -1.5318
  196MOL0     H25868   6.123   2.896   4.950  2.0011  1.0448 -0.3795
  196MOL0     H25869   6.040   2.912   4.791  2.2571 -1.0330 -0.8302
  196MOL0     H25870   6.427   3.111   4.798 -0.3858  0.5028 -2.1418
  196MOL0     H25871   5.513   2.950   5.284 -0.0219  1.4117  2.6733
  196MOL0     H25872   5.284   2.998   5.306  2.1824 -2.2787 -0.7220
  197MOL0     O25873   9.252   1.565   8.327  0.3194  0.1295  0.2137
  197MOL0     C25874   9.268   1.683   8.303  0.0974  0.1719  0.6376
  197MOL0     O25875   9.183   1.766   8.232  0.6493 -0.3251 -0.1275
  197MOL0     C25876   9.061   1.735   8.175  0.3128 -0.3584 -0.8874
  197MOL0     C25877   8.973   1.845   8.166  0.5536  0.4100  0.6539
  197MOL0     C25878   8.845   1.829   8.113 -0.0415  0.8007  0.3973
  197MOL0     C25879   8.800   1.699   8.078  0.6340 -1.7607  0.8373
  197MOL0     O25880   8.671   1.693   8.035 -0.3009  0.1864  0.2854
  197MOL0     C25881   8.598   1.588   8.095 -0.3693  0.5958  0.2927
  197MOL0     C25882   8.446   1.580   8.074 -0.9374 -0.4980  0.1955
  197MOL0     C25883   8.394   1.497   7.952 -1.2768 -0.7869 -0.4560
  197MOL0     C25884   8.239   1.472   7.945 -0.3723  0.4506  0.4736
  197MOL0     C25885   8.197   1.354   8.040 -0.7237 -0.4679 -0.3876
  197MOL0     C25886   8.049   1.320   8.028  0.4586  0.4456 -0.5521
  197MOL0     C25887   7.993   1.230   8.142 -0.4676 -0.4931  1.0402
  197MOL0     C25888   8.068   1.103   8.160 -0.4481  1.2701  0.3323
  197MOL0     N25889   8.035   1.000   8.070  0.2083  0.3067  0.1125
  197MOL0     C25890   7.942   0.905   8.105 -0.2480 -0.0187 -0.8140
  197MOL0     C25891   7.961   0.809   8.014 -0.2483 -0.2327  0.7184
  197MOL0     C25892   7.885   0.684   8.012 -0.6549  0.4296  0.7969
  197MOL0     C25893   7.823   0.669   7.870  0.2793  0.8776 -0.5281
  197MOL0     C25894   7.717   0.551   7.863  1.3981  0.0840  0.6793
  197MOL0     C25895   7.652   0.564   7.720  0.0198 -0.3193 -0.5552
  197MOL0     O25896   7.570   0.682   7.712 -0.1977 -0.2222  0.2254
  197MOL0     C25897   7.496   0.718   7.601  0.1170  0.2344 -0.8110
  197MOL0     C25898   7.420   0.836   7.610 -0.8011  0.1411 -0.9690
  197MOL0     C25899   7.323   0.876   7.522  0.2755 -0.4767  0.0525
  197MOL0     C25900   7.302   0.794   7.407 -0.4034  0.7190 -0.1965
  197MOL0     C25901   7.186   0.822   7.311 -0.9334  0.8910 -0.2548
  197MOL0     O25902   7.126   0.943   7.333  1.1511 -0.8354 -0.4547
  197MOL0     C25903   7.016   0.999   7.280  0.0220 -0.4751 -0.5648
  197MOL0     C25904   6.958   0.949   7.164 -0.8148  0.8559 -1.2974
  197MOL0     C25905   6.854   1.021   7.103  0.3700  0.2018 -1.7112
  197MOL0     C25906   6.804   1.133   7.151 -0.4139 -0.3672 -0.0464
  197MOL0     O25907   6.699   1.209   7.099 -0.5378 -0.6854 -0.3337
  197MOL0     C25908   6.690   1.232   6.952 -0.0213  0.1543 -0.9961
  197MOL0     C25909   6.595   1.341   6.913 -0.5272 -0.6965  0.1470
  197MOL0     C25910   6.448   1.306   6.932  0.6867  0.0060 -0.3393
  197MOL0     C25911   6.343   1.372   6.826  0.4281 -0.2859  0.0075
  197MOL0     C25912   6.202   1.371   6.885 -0.5525  0.6106 -0.7810
  197MOL0     C25913   6.092   1.445   6.796  0.3827 -0.0118  0.1428
  197MOL0     C25914   6.120   1.603   6.813 -0.0410  0.4383 -0.3833
  197MOL0     C25915   5.993   1.690   6.791  0.0840 -0.2705 -0.9971
  197MOL0    Cl25916   5.902   1.649   6.649 -0.1199  0.3771 -0.4610
  197MOL0     C25917   6.856   1.187   7.274 -0.8427  0.2145 -0.9575
  197MOL0     C25918   6.960   1.116   7.335 -0.2080  0.5252 -0.1343
  197MOL0     O25919   7.156   0.728   7.234  0.4763 -0.4969  0.5317
  197MOL0     C25920   7.370   0.669   7.398  0.7163  0.4027 -0.7882
  197MOL0     C25921   7.466   0.632   7.497  1.1595  0.0857  0.1549
  197MOL0     N25922   8.048   0.860   7.913 -0.1255 -0.0873  0.0202
  197MOL0     N25923   8.091   0.982   7.947 -1.3119  0.9214  0.4456
  197MOL0     C25924   8.884   1.592   8.089 -0.2947 -0.1764  0.6028
  197MOL0     C25925   9.012   1.605   8.138  0.2781 -1.0316  0.3623
  197MOL0     C25926   9.400   1.743   8.337  1.0853  0.3642 -0.4737
  197MOL0     C25927   9.493   1.683   8.418  0.0347 -0.4030  0.2011
  197MOL0     C25928   9.608   1.740   8.454  0.4143 -0.0153  0.4759
  197MOL0     C25929   9.652   1.850   8.375 -0.2149  0.2524 -0.5945
  197MOL0     O25930   9.777   1.884   8.391 -0.7743  0.3762  0.3110
  197MOL0     C25931   9.834   1.959   8.289  0.3793 -0.4295  0.3328
  197MOL0     C25932   9.984   1.961   8.291 -0.0210  0.8405 -0.6315
  197MOL0     C25933  10.060   1.968   8.158 -0.3686  0.5153  0.0037
  197MOL0     C25934  10.205   1.960   8.168 -0.3833 -0.0973  0.3057
  197MOL0     C25935  10.267   2.064   8.246  0.8466  0.5810 -0.3128
  197MOL0     C25936  10.324   2.114   8.336  0.2679  0.5642 -0.7098
  197MOL0     C25937   9.569   1.920   8.287  0.1778  0.0596 -0.5567
  197MOL0     C25938   9.440   1.868   8.271  0.4652  0.7631  0.6976
  197MOL0     H25939   9.000   1.945   8.197 -0.7731  0.0130  3.4195
  197MOL0     H25940   8.781   1.916   8.120 -0.0801  1.0021 -1.6818
  197MOL0     H25941   8.632   1.586   8.199  2.3778  0.1640 -0.5353
  197MOL0     H25942   8.643   1.498   8.053  0.6679  0.6976  1.1466
  197MOL0     H25943   8.411   1.684   8.075 -1.7568 -0.7660  0.9719
  197MOL0     H25944   8.410   1.533   8.167  0.5889 -0.3889  0.8673
  197MOL0     H25945   8.449   1.404   7.968  1.7024  0.9792  0.4490
  197MOL0     H25946   8.425   1.551   7.862  0.8763  2.7675  2.1282
  197MOL0     H25947   8.187   1.563   7.977  0.2142  0.3341  1.8009
  197MOL0     H25948   8.203   1.450   7.844  0.3434  2.9144 -0.3748
  197MOL0     H25949   8.227   1.382   8.142  0.4108 -1.9356 -0.2865
  197MOL0     H25950   8.254   1.265   8.013 -0.7138  0.4582 -3.9180
  197MOL0     H25951   8.023   1.276   7.930  0.8761 -0.8588 -0.1078
  197MOL0     H25952   7.987   1.409   8.036 -1.5136 -1.0416  2.7878
  197MOL0     H25953   8.009   1.289   8.232 -1.0120 -0.4164  1.0877
  197MOL0     H25954   7.885   1.213   8.139 -0.8448  1.1489  3.0510
  197MOL0     H25955   8.051   1.062   8.260 -0.2033 -0.4985 -0.3156
  197MOL0     H25956   8.175   1.122   8.144 -0.9911  2.1802 -3.0234
  197MOL0     H25957   7.885   0.903   8.197 -0.2811  0.8050 -0.8097
  197MOL0     H25958   7.803   0.685   8.085 -2.0730  3.3560 -0.6516
  197MOL0     H25959   7.950   0.601   8.041 -0.2172  0.6123  0.3470
  197MOL0     H25960   7.911   0.647   7.809  1.2678  0.0360  1.1295
  197MOL0     H25961   7.767   0.755   7.832 -0.6221 -0.6394 -2.8870
  197MOL0     H25962   7.770   0.458   7.884 -1.6254 -0.9420  5.1844
  197MOL0     H25963   7.637   0.568   7.935  0.8643  3.4016 -0.4826
  197MOL0     H25964   7.594   0.480   7.681 -1.4208  0.8958 -1.1587
  197MOL0     H25965   7.740   0.586   7.658  0.8566  2.1706  1.3524
  197MOL0     H25966   7.426   0.909   7.690 -1.2952  0.1089 -0.8996
  197MOL0     H25967   7.264   0.966   7.540  1.1314  0.4914 -1.7727
  197MOL0     H25968   6.998   0.861   7.116 -0.6414 -0.5951  1.3542
  197MOL0     H25969   6.795   0.972   7.026 -0.4333 -2.3505  0.3785
  197MOL0     H25970   6.660   1.147   6.890 -3.9254 -1.4650  2.5925
  197MOL0     H25971   6.790   1.271   6.930 -0.2869  2.2369  1.0538
  197MOL0     H25972   6.619   1.374   6.812  1.1075  1.4338  1.1405
  197MOL0     H25973   6.607   1.433   6.972 -1.1476 -0.0821 -0.6712
  197MOL0     H25974   6.423   1.328   7.036 -0.4523 -1.4481 -0.2743
  197MOL0     H25975   6.442   1.197   6.921  0.6985  0.1822 -2.4343
  197MOL0     H25976   6.365   1.479   6.815  1.1381 -0.3804  0.4817
  197MOL0     H25977   6.354   1.328   6.726  1.3376 -1.3208  0.5456
  197MOL0     H25978   6.202   1.422   6.982 -1.1053  0.4214 -0.6777
  197MOL0     H25979   6.170   1.267   6.900 -1.3515  0.6026 -2.3417
  197MOL0     H25980   5.993   1.409   6.824  1.1551 -0.8030  2.0727
  197MOL0     H25981   6.111   1.413   6.693  3.2080  0.8907  0.2766
  197MOL0     H25982   6.140   1.630   6.917  2.9211  2.3219 -1.3039
  197MOL0     H25983   6.210   1.623   6.754 -0.6094 -0.7033 -1.7193
  197MOL0     H25984   6.036   1.790   6.783  0.4150 -0.4375 -1.3738
  197MOL0     H25985   5.926   1.695   6.877  0.1158  2.0272 -1.0506
  197MOL0     H25986   6.820   1.286   7.299  0.4451  1.2984 -3.0350
  197MOL0     H25987   7.014   1.143   7.425 -3.2497 -2.5020  2.8709
  197MOL0     H25988   7.345   0.588   7.330  0.1056 -0.9999  1.0170
  197MOL0     H25989   7.516   0.538   7.478  1.5679  0.8391 -3.0982
  197MOL0     H25990   8.854   1.493   8.058 -3.6142  1.4578 -2.1154
  197MOL0     H25991   9.087   1.527   8.142  0.4817 -0.8837 -0.3409
  197MOL0     H25992   9.455   1.597   8.472  3.1586 -2.4109 -0.5024
  197MOL0     H25993   9.673   1.687   8.524  1.5166 -1.0540 -1.2562
  197MOL0     H25994   9.802   2.063   8.304 -0.5176 -0.4834 -1.0544
  197MOL0     H25995   9.814   1.915   8.192 -2.1029 -1.5425  1.2612
  197MOL0     H25996  10.026   2.027   8.369 -0.1244 -0.8309  0.9063
  197MOL0     H25997  10.012   1.862   8.328  0.2096  0.6751 -1.2360
  197MOL0     H25998  10.047   2.062   8.103  3.6842  2.4990  2.0500
  197MOL0     H25999  10.018   1.885   8.101 -1.0993  2.4297 -2.4571
  197MOL0     H26000  10.226   1.864   8.217  2.5526  0.0101 -0.5098
  197MOL0     H26001  10.253   1.949   8.070 -0.8961 -0.5118  0.0967
  197MOL0     H26002  10.376   2.157   8.419  0.8781  1.1908 -1.4006
  197MOL0     H26003   9.595   2.007   8.228  1.8132 -0.1893 -0.2317
  197MOL0     H26004   9.371   1.912   8.201 -1.3229  2.4938  3.3580
  198MOL0     O26005   1.292   1.446   9.473 -0.7387 -0.2161  0.7887
  198MOL0     C26006   1.182   1.470   9.521 -0.4675  0.6156 -0.2357
  198MOL0     O26007   1.135   1.407   9.627 -0.5804 -0.4387 -0.3394
  198MOL0     C26008   1.220   1.352   9.719  0.3647  0.3620  0.1008
  198MOL0     C26009   1.290   1.421   9.811  0.0982 -0.0141  0.5997
  198MOL0     C26010   1.384   1.363   9.896 -0.0021 -0.0553  0.6753
  198MOL0     C26011   1.404   1.225   9.904 -0.3980 -0.7186  0.3368
  198MOL0     O26012   1.486   1.165  10.004 -0.6897 -0.8955  1.1544
  198MOL0     C26013   1.567   1.249  10.081  0.4543  0.8698 -0.5968
  198MOL0     C26014   1.587   1.173  10.215 -1.8108 -0.8817  0.1289
  198MOL0     C26015   1.469   1.151  10.302  0.6346  0.7127 -1.3427
  198MOL0     C26016   1.501   1.061  10.433  0.4768 -0.4919 -0.3748
  198MOL0     C26017   1.622   1.096  10.513 -0.1569 -0.8733 -0.1612
  198MOL0     C26018   1.636   0.992  10.626 -0.3791  1.1556  0.2037
  198MOL0     C26019   1.756   1.006  10.712 -0.8026 -1.1829 -0.3153
  198MOL0     C26020   1.752   1.131  10.803  0.0918 -0.0961  0.0583
  198MOL0     N26021   1.884   1.198  10.805  0.2893  0.7737  0.1647
  198MOL0     C26022   1.923   1.284  10.716  0.0406  0.0763 -0.3672
  198MOL0     C26023   2.036   1.331  10.754 -1.5441 -0.9380 -0.2978
  198MOL0     C26024   2.112   1.438  10.680  0.2100 -0.1025  0.0923
  198MOL0     C26025   2.178   1.383  10.555 -0.8308 -0.2737 -0.7007
  198MOL0     C26026   2.272   1.261  10.581 -0.2063 -1.0929  0.1506
  198MOL0     C26027   2.383   1.304  10.678 -1.2177  0.0151 -0.0156
  198MOL0     O26028   2.470   1.193  10.705  0.0766  0.4100  0.9305
  198MOL0     C26029   2.562   1.204  10.796 -0.4821 -0.9979  0.2910
  198MOL0     C26030   2.653   1.103  10.797  0.6513 -1.5429  1.3102
  198MOL0     C26031   2.759   1.099  10.888  0.4209 -1.0394 -0.2458
  198MOL0     C26032   2.778   1.211  10.973 -0.1031 -0.8760 -0.4267
  198MOL0     C26033   2.881   1.216  11.074 -0.9370  0.2233  0.2001
  198MOL0     O26034   2.899   1.335  11.153  0.4908 -0.5221 -0.6209
  198MOL0     C26035   2.974   1.326  11.267  0.2132  0.3964  0.6945
  198MOL0     C26036   3.109   1.290  11.261 -0.3542 -0.0578  1.2980
  198MOL0     C26037   3.190   1.288  11.376  0.1502 -0.5609 -0.9469
  198MOL0     C26038   3.138   1.325  11.501 -0.2896 -0.2993  0.1544
  198MOL0     O26039   3.206   1.334  11.623 -0.6372  0.0039  0.6428
  198MOL0     C26040   3.344   1.337  11.625 -0.2039  0.2201  0.1979
  198MOL0     C26041   3.382   1.363  11.775  0.3225 -0.6201 -0.7295
  198MOL0     C26042   3.535   1.356  11.792  0.1457  0.1434 -0.1722
  198MOL0     C26043   3.576   1.354  11.944  0.5952  0.0396 -0.3789
  198MOL0     C26044   3.714   1.298  11.945  0.8949  0.7196  0.1137
  198MOL0     C26045   3.773   1.325  12.085 -0.7567 -0.1835 -0.3841
  198MOL0     C26046   3.835   1.464  12.096 -0.3498 -1.2828  1.4034
  198MOL0     C26047   3.844   1.521  12.241 -0.1787 -0.3390 -0.7491
  198MOL0    Cl26048   3.896   1.397  12.355 -0.1555  0.1332 -0.0700
  198MOL0     C26049   2.998   1.359  11.507 -0.7422 -0.9017 -0.4828
  198MOL0     C26050   2.922   1.362  11.389 -0.3416  0.0044 -0.6323
  198MOL0     O26051   2.937   1.111  11.101  0.4329  0.0657  0.6667
  198MOL0     C26052   2.683   1.315  10.968 -0.5228  1.3358 -0.3984
  198MOL0     C26053   2.575   1.308  10.885 -0.1074  0.0219  0.1554
  198MOL0     N26054   2.083   1.257  10.858  0.9235 -0.0725 -0.3269
  198MOL0     N26055   1.982   1.182  10.900 -0.1794 -0.1268  0.2735
  198MOL0     C26056   1.336   1.153   9.811  0.0310 -1.1268  0.2982
  198MOL0     C26057   1.241   1.212   9.724 -1.4582  0.5844  0.2674
  198MOL0     C26058   1.095   1.552   9.440  0.8706 -0.5409  0.0479
  198MOL0     C26059   0.965   1.594   9.494  0.2588  1.1792 -1.0222
  198MOL0     C26060   0.879   1.666   9.409 -0.0634  0.5441  0.3562
  198MOL0     C26061   0.916   1.691   9.281  0.5438 -0.5563  0.7923
  198MOL0     O26062   0.824   1.770   9.211  0.1129 -0.0350 -0.3528
  198MOL0     C26063   0.856   1.811   9.077 -0.0117 -1.0316  0.0769
  198MOL0     C26064   0.741   1.892   9.020 -0.1536  0.3623 -0.8436
  198MOL0     C26065   0.607   1.813   9.006  1.0686 -0.8251  0.6501
  198MOL0     C26066   0.525   1.864   8.882  0.8007 -0.2237 -0.8383
  198MOL0     C26067   0.514   2.019   8.877 -1.0865  0.1257  0.7436
  198MOL0     C26068   0.523   2.139   8.864  0.1520 -0.5660 -2.3266
  198MOL0     C26069   1.048   1.654   9.231  0.3311  0.7658 -0.6984
  198MOL0     C26070   1.128   1.585   9.306 -0.4869  0.6580 -0.5610
  198MOL0     H26071   1.280   1.528   9.801 -1.6309 -0.2294 -0.3588
  198MOL0     H26072   1.419   1.433   9.971 -0.6273 -0.2765  1.1826
  198MOL0     H26073   1.519   1.346  10.097 -0.1479  0.9080 -2.4444
  198MOL0     H26074   1.659   1.262  10.024 -0.8415 -1.0252 -3.3514
  198MOL0     H26075   1.661   1.237  10.265 -2.7793  1.6683 -1.5261
  198MOL0     H26076   1.638   1.077  10.198  0.8443  0.3931  0.3289
  198MOL0     H26077   1.388   1.108  10.243  1.6451 -2.0051 -0.8602
  198MOL0     H26078   1.439   1.249  10.340 -0.7684 -0.0842 -0.2891
  198MOL0     H26079   1.408   1.072  10.491  0.3866  0.7661 -0.7278
  198MOL0     H26080   1.501   0.956  10.403 -1.9333 -0.6449 -0.0471
  198MOL0     H26081   1.616   1.199  10.551 -3.0417 -0.8045 -0.6392
  198MOL0     H26082   1.716   1.080  10.460  0.7580 -0.2924  1.2017
  198MOL0     H26083   1.646   0.895  10.577  1.7187  1.6988 -0.5607
  198MOL0     H26084   1.545   0.997  10.687  1.3766 -2.5922  3.6413
  198MOL0     H26085   1.766   0.915  10.772  2.4917 -1.9705 -1.7814
  198MOL0     H26086   1.843   1.016  10.645 -1.9612  0.9961 -1.6204
  198MOL0     H26087   1.715   1.100  10.901 -0.7022  0.5607 -0.0204
  198MOL0     H26088   1.685   1.212  10.771  2.6766  2.1896  0.0068
  198MOL0     H26089   1.865   1.324  10.634  2.9421  0.5803 -2.3425
  198MOL0     H26090   2.183   1.493  10.742 -0.2672 -0.0649  0.6142
  198MOL0     H26091   2.039   1.512  10.645  0.5168  2.0413  3.5266
  198MOL0     H26092   2.235   1.452  10.493  0.8654 -1.0005  0.0071
  198MOL0     H26093   2.101   1.349  10.484  1.2296 -1.0260 -2.7190
  198MOL0     H26094   2.216   1.176  10.622 -4.0415  1.4208  0.7029
  198MOL0     H26095   2.307   1.234  10.482  0.2967  3.4487 -1.1519
  198MOL0     H26096   2.329   1.326  10.771 -3.7361  0.5168 -1.4904
  198MOL0     H26097   2.447   1.386  10.643  0.6916 -0.5816  1.8707
  198MOL0     H26098   2.643   1.020  10.728  2.6369 -0.5725 -0.2220
  198MOL0     H26099   2.831   1.019  10.876  2.1337  0.6596 -2.0322
  198MOL0     H26100   3.153   1.246  11.173 -1.2441 -1.7125  1.6344
  198MOL0     H26101   3.297   1.276  11.365  0.8913  1.4531  2.6171
  198MOL0     H26102   3.380   1.418  11.561  1.4505  0.2840  1.1567
  198MOL0     H26103   3.389   1.246  11.587 -0.0124  1.4685 -2.8959
  198MOL0     H26104   3.334   1.279  11.825  0.3111 -0.3945 -0.3556
  198MOL0     H26105   3.346   1.463  11.804  1.0572  0.1089 -2.2221
  198MOL0     H26106   3.559   1.451  11.743 -1.6636  0.1945 -1.0480
  198MOL0     H26107   3.580   1.267  11.747 -0.0601  0.6991 -1.5144
  198MOL0     H26108   3.572   1.454  11.988  0.7426 -0.5340  1.0066
  198MOL0     H26109   3.509   1.293  12.005  0.3149  0.7409  0.0208
  198MOL0     H26110   3.761   1.343  11.858 -4.0222  1.8535 -2.3084
  198MOL0     H26111   3.707   1.191  11.923  1.3865  0.9424 -1.1969
  198MOL0     H26112   3.846   1.248  12.111 -0.9134 -1.1890 -2.6443
  198MOL0     H26113   3.688   1.317  12.153 -0.4589 -0.7085 -0.0739
  198MOL0     H26114   3.934   1.461  12.049  0.1369  1.9247  1.9959
  198MOL0     H26115   3.781   1.531  12.028  0.7092  0.1088  1.8864
  198MOL0     H26116   3.743   1.550  12.273 -1.0313 -3.0704 -0.6808
  198MOL0     H26117   3.902   1.614  12.246 -4.4186  2.6005 -0.8297
  198MOL0     H26118   2.962   1.391  11.604 -1.6290 -2.8384 -0.1275
  198MOL0     H26119   2.818   1.393  11.399  0.3477  1.6212  2.9590
  198MOL0     H26120   2.710   1.410  11.012  1.2318  0.9873 -0.6631
  198MOL0     H26121   2.502   1.388  10.888  1.2702  1.3323  0.0168
  198MOL0     H26122   1.353   1.046   9.815 -2.5940 -1.5845  0.8247
  198MOL0     H26123   1.203   1.153   9.641 -1.6835  2.7603 -1.2666
  198MOL0     H26124   0.936   1.577   9.597  0.3647  2.8107 -0.6990
  198MOL0     H26125   0.786   1.712   9.443  0.1882  1.5465 -0.2598
  198MOL0     H26126   0.878   1.733   9.004 -1.7953  0.1833 -1.9037
  198MOL0     H26127   0.940   1.881   9.077 -0.9148  0.0921  0.7008
  198MOL0     H26128   0.718   1.977   9.086 -0.1774  1.0990 -1.7731
  198MOL0     H26129   0.774   1.935   8.925  0.9951  2.5301  0.4519
  198MOL0     H26130   0.555   1.817   9.102 -2.2967  2.0904 -1.0819
  198MOL0     H26131   0.617   1.705   8.993 -0.0172 -1.1036  1.8550
  198MOL0     H26132   0.581   1.828   8.796  0.4102 -2.0641 -0.3626
  198MOL0     H26133   0.422   1.827   8.886  0.3914  0.7327 -2.0221
  198MOL0     H26134   0.546   2.242   8.846  1.9077 -0.7998 -1.6639
  198MOL0     H26135   1.090   1.672   9.133  4.0650  1.6159  0.8805
  198MOL0     H26136   1.227   1.566   9.265 -0.8587  2.2140 -2.3245
  199MOL0     O26137   4.279   7.964   8.074 -0.2471 -0.4761 -0.2604
  199MOL0     C26138   4.344   8.012   7.986  0.9598  0.1745  0.6385
  199MOL0     O26139   4.421   8.117   7.999 -0.2309  0.8210  0.3810
  199MOL0     C26140   4.434   8.194   8.111 -0.4189 -0.3055  0.1556
  199MOL0     C26141   4.532   8.168   8.203 -0.1598  0.5213  0.2515
  199MOL0     C26142   4.563   8.250   8.318  0.2455  0.1331  0.4822
  199MOL0     C26143   4.481   8.369   8.333 -0.7110  0.3880  0.5369
  199MOL0     O26144   4.518   8.474   8.418  0.5553 -0.0470 -0.1672
  199MOL0     C26145   4.655   8.497   8.420 -0.8107  0.1390  0.0300
  199MOL0     C26146   4.690   8.638   8.460 -0.6695 -0.4563  0.0549
  199MOL0     C26147   4.643   8.673   8.606 -0.3596  0.8420 -0.3348
  199MOL0     C26148   4.695   8.810   8.643 -0.1317  0.1986  0.0281
  199MOL0     C26149   4.617   8.868   8.761  0.9307  0.1306  0.0209
  199MOL0     C26150   4.618   8.793   8.895  0.1170  0.1321  0.6323
  199MOL0     C26151   4.500   8.827   8.974  0.2405  0.2150  0.3671
  199MOL0     C26152   4.538   8.803   9.128  0.0202  0.2876  0.5444
  199MOL0     N26153   4.433   8.849   9.220 -0.3916  0.6316 -0.8525
  199MOL0     C26154   4.450   8.899   9.349  0.0614 -0.0919 -0.7285
  199MOL0     C26155   4.322   8.939   9.385 -0.0067  0.3678 -0.1456
  199MOL0     C26156   4.275   9.004   9.503  0.0344 -0.6969 -0.8088
  199MOL0     C26157   4.210   9.136   9.479  0.7928 -0.9937  0.3501
  199MOL0     C26158   4.168   9.202   9.607  0.5573 -0.7001  1.3039
  199MOL0     C26159   4.033   9.154   9.660 -1.1245  0.9653  0.0814
  199MOL0     O26160   3.935   9.256   9.685  0.1817  0.3469 -0.4585
  199MOL0     C26161   3.948   9.337   9.798  1.0968 -0.3415  0.5909
  199MOL0     C26162   4.055   9.340   9.883  0.0565 -0.8542 -0.3238
  199MOL0     C26163   4.071   9.439   9.975 -0.0678 -0.8186  0.2604
  199MOL0     C26164   3.971   9.539   9.998  0.2983  0.3846  0.0263
  199MOL0     C26165   3.987   9.648  10.088 -0.8380 -0.5416  0.6461
  199MOL0     O26166   3.882   9.743  10.097  0.0820  0.0513 -0.0053
  199MOL0     C26167   3.890   9.837  10.193 -0.5042  0.9338  0.4821
  199MOL0     C26168   3.967   9.944  10.161  0.6575 -0.5254 -0.1031
  199MOL0     C26169   3.993  10.031  10.267  0.7350  0.2478  0.1640
  199MOL0     C26170   3.937  10.012  10.397  0.8777  0.3061 -0.2366
  199MOL0     O26171   3.977  10.099  10.501 -0.6006  0.7945  0.6722
  199MOL0     C26172   3.908  10.225  10.508  0.7544  0.3195 -0.2340
  199MOL0     C26173   4.003  10.305  10.599  0.5272 -0.2589 -0.7976
  199MOL0     C26174   3.975  10.451  10.616 -0.0100 -1.3753 -1.2414
  199MOL0     C26175   3.831  10.484  10.671 -1.5454  0.1375 -1.1281
  199MOL0     C26176   3.799  10.628  10.711 -0.5559  0.0551  0.6611
  199MOL0     C26177   3.855  10.673  10.845 -0.5027 -0.5659 -0.4693
  199MOL0     C26178   3.793  10.796  10.900  0.2760 -0.0954 -1.3857
  199MOL0     C26179   3.870  10.843  11.022  0.4039 -0.0711 -0.9040
  199MOL0    Cl26180   3.809  10.998  11.062 -0.3042 -0.4559 -0.2777
  199MOL0     C26181   3.854   9.899  10.420 -0.1681 -0.0795 -0.2509
  199MOL0     C26182   3.820   9.814  10.309  0.2032  0.0968 -0.0049
  199MOL0     O26183   4.096   9.665  10.146  0.3813  0.1976  0.4047
  199MOL0     C26184   3.859   9.525   9.914  0.2736 -0.5326 -0.0175
  199MOL0     C26185   3.841   9.428   9.821 -0.9430 -0.1150  0.4563
  199MOL0     N26186   4.235   8.895   9.290 -0.2086 -0.2445  0.4641
  199MOL0     N26187   4.301   8.854   9.193  0.8354  0.1612 -0.0053
  199MOL0     C26188   4.376   8.386   8.241 -0.2950  0.6407  0.9349
  199MOL0     C26189   4.350   8.302   8.133 -0.8593  0.8928 -1.0994
  199MOL0     C26190   4.363   7.936   7.858 -0.0674 -0.5146  0.8408
  199MOL0     C26191   4.284   7.817   7.837 -0.0758 -0.4419  0.6936
  199MOL0     C26192   4.310   7.737   7.726 -0.2339  0.2916 -0.6807
  199MOL0     C26193   4.420   7.772   7.633  1.0004 -0.4727 -1.5135
  199MOL0     O26194   4.442   7.683   7.535  0.2099  0.4037  0.2500
  199MOL0     C26195   4.555   7.709   7.443  0.6141 -0.9524 -0.5566
  199MOL0     C26196   4.559   7.582   7.353  0.2146 -0.0524  0.0216
  199MOL0     C26197   4.646   7.612   7.234 -0.0242 -0.2801  0.7250
  199MOL0     C26198   4.641   7.502   7.122  0.8778 -0.9761 -0.8690
  199MOL0     C26199   4.513   7.504   7.060 -0.3941 -0.8089 -0.4458
  199MOL0     C26200   4.401   7.498   7.010 -0.6294  0.4895  0.4533
  199MOL0     C26201   4.491   7.897   7.654 -0.2995 -0.1691  0.0754
  199MOL0     C26202   4.464   7.974   7.763  0.6277  0.0224 -0.6935
  199MOL0     H26203   4.606   8.091   8.184  1.5916  1.3424  3.0174
  199MOL0     H26204   4.647   8.222   8.380 -0.4477 -0.1719  1.2983
  199MOL0     H26205   4.696   8.490   8.319  0.3609 -1.7905  0.5873
  199MOL0     H26206   4.704   8.422   8.484 -0.9452  0.4284  0.4813
  199MOL0     H26207   4.651   8.714   8.392  2.4066 -0.5238 -2.0174
  199MOL0     H26208   4.794   8.674   8.459 -1.8292  3.7010 -3.3866
  199MOL0     H26209   4.662   8.593   8.678 -0.7512  1.8134  0.8900
  199MOL0     H26210   4.535   8.684   8.592 -0.0629  3.3634 -1.2713
  199MOL0     H26211   4.795   8.804   8.686  0.4442 -1.2400 -1.3796
  199MOL0     H26212   4.695   8.887   8.565 -0.2732  0.0314 -0.1379
  199MOL0     H26213   4.513   8.875   8.727  0.3748 -2.9895  0.8030
  199MOL0     H26214   4.639   8.974   8.774 -2.7704  0.7545  2.8517
  199MOL0     H26215   4.711   8.824   8.944  0.9454 -0.7522 -0.3330
  199MOL0     H26216   4.627   8.684   8.887  3.0385  0.4305 -2.2486
  199MOL0     H26217   4.462   8.929   8.965  0.3980  0.1761 -0.8140
  199MOL0     H26218   4.430   8.751   8.938  2.0098 -1.9721  1.3159
  199MOL0     H26219   4.629   8.859   9.153  2.3189 -3.2674  0.8188
  199MOL0     H26220   4.561   8.697   9.137 -1.4092 -0.2983 -1.9427
  199MOL0     H26221   4.537   8.915   9.411 -0.9164  4.2776 -0.1596
  199MOL0     H26222   4.352   9.004   9.580  0.1391 -0.4600 -0.9113
  199MOL0     H26223   4.191   8.945   9.541  0.3229 -0.1325  0.7894
  199MOL0     H26224   4.126   9.129   9.409 -0.1834  1.8379  1.1248
  199MOL0     H26225   4.280   9.201   9.425 -0.9439  3.0429  2.4993
  199MOL0     H26226   4.242   9.190   9.687  0.7711 -3.7164  0.7345
  199MOL0     H26227   4.157   9.308   9.582  0.9308 -0.2137  3.0322
  199MOL0     H26228   4.060   9.092   9.746  0.8717  1.1283 -0.3778
  199MOL0     H26229   3.991   9.089   9.583 -0.0308 -0.6978  0.8373
  199MOL0     H26230   4.135   9.267   9.871  0.4525 -0.3774 -0.6340
  199MOL0     H26231   4.160   9.430  10.036  2.5586  0.0690 -3.1295
  199MOL0     H26232   4.020   9.949  10.066  0.0676 -0.4486 -0.4382
  199MOL0     H26233   4.050  10.123  10.257 -1.5011  1.9332  1.7627
  199MOL0     H26234   3.807  10.215  10.550  2.1717 -0.2869  3.3374
  199MOL0     H26235   3.901  10.280  10.413 -1.2907 -1.4656 -1.2085
  199MOL0     H26236   4.102  10.288  10.556  1.4895  3.5994 -0.4923
  199MOL0     H26237   4.005  10.251  10.694  0.2005  0.1834 -0.5372
  199MOL0     H26238   3.975  10.503  10.520  1.1497  0.2501 -0.4037
  199MOL0     H26239   4.053  10.492  10.680 -0.8820 -0.5096 -0.7110
  199MOL0     H26240   3.765  10.455  10.588 -0.9967  0.0707 -1.5463
  199MOL0     H26241   3.809  10.410  10.749 -3.2301 -1.1304 -2.7122
  199MOL0     H26242   3.693  10.658  10.710 -0.6318 -0.2184 -0.3815
  199MOL0     H26243   3.839  10.693  10.633 -0.2347 -2.0366 -1.0048
  199MOL0     H26244   3.964  10.673  10.836 -0.6274  0.7385 -2.8764
  199MOL0     H26245   3.836  10.597  10.921  0.5321 -0.4334 -0.0492
  199MOL0     H26246   3.790  10.874  10.823 -1.1310  0.5035 -0.7549
  199MOL0     H26247   3.690  10.765  10.923 -0.0649  0.6929 -1.7800
  199MOL0     H26248   3.976  10.839  10.992 -0.1519 -1.4337 -2.8990
  199MOL0     H26249   3.847  10.763  11.092  0.6779 -0.8142 -1.6572
  199MOL0     H26250   3.799   9.891  10.513 -1.4733  0.0879 -0.9707
  199MOL0     H26251   3.754   9.728  10.318  1.3480 -0.7965  0.2411
  199MOL0     H26252   3.783   9.601   9.921 -0.1173 -0.8513 -0.6628
  199MOL0     H26253   3.747   9.420   9.767 -0.2375 -1.1347 -0.6844
  199MOL0     H26254   4.312   8.473   8.250  0.5239  1.5512 -1.4163
  199MOL0     H26255   4.280   8.343   8.061  1.9633  3.5333 -2.5721
  199MOL0     H26256   4.207   7.794   7.909  0.9856  1.1314  2.4293
  199MOL0     H26257   4.248   7.651   7.705 -2.0330  1.3981 -0.0797
  199MOL0     H26258   4.646   7.726   7.502  0.8136  1.2165 -1.3903
  199MOL0     H26259   4.546   7.802   7.385  0.5938  0.4878  1.6153
  199MOL0     H26260   4.601   7.498   7.408  1.7956  0.7357  0.0857
  199MOL0     H26261   4.460   7.539   7.334  1.1015 -3.5878  2.3514
  199MOL0     H26262   4.753   7.621   7.255  0.1140  2.2433 -0.7339
  199MOL0     H26263   4.615   7.704   7.185 -3.0094 -1.4192  0.2228
  199MOL0     H26264   4.714   7.529   7.045  2.1823  2.0457  1.2530
  199MOL0     H26265   4.669   7.403   7.160 -0.8965 -2.1567 -2.4470
  199MOL0     H26266   4.304   7.502   6.965  0.5203  0.5036 -2.2459
  199MOL0     H26267   4.571   7.956   7.610 -2.8358  2.0014 -1.9554
  199MOL0     H26268   4.513   8.067   7.789 -0.2139  0.4112 -0.4479
  200MOL0     O26269   3.874   3.668   6.294  0.3933  0.1841  0.5575
  200MOL0     C26270   3.935   3.584   6.362  0.7565  0.3257  0.4744
  200MOL0     O26271   3.881   3.480   6.436 -0.6195  0.4653  0.4415
  200MOL0     C26272   3.750   3.455   6.422 -0.2514  0.4482  0.2531
  200MOL0     C26273   3.682   3.401   6.538 -0.4581  0.3637 -0.6443
  200MOL0     C26274   3.538   3.375   6.538 -0.5154 -0.6982  0.3587
  200MOL0     C26275   3.472   3.374   6.412 -0.1634  0.4862 -0.4792
  200MOL0     O26276   3.339   3.344   6.385  0.7984  0.3058 -0.0808
  200MOL0     C26277   3.246   3.335   6.490 -0.3816 -0.6294 -0.6234
  200MOL0     C26278   3.112   3.277   6.434 -0.0772  0.1513 -0.3571
  200MOL0     C26279   3.059   3.358   6.325 -0.9548  0.2877  0.3419
  200MOL0     C26280   2.931   3.293   6.272  0.9095  1.2082  1.1906
  200MOL0     C26281   2.852   3.375   6.170  0.0995  1.0030 -0.8610
  200MOL0     C26282   2.823   3.516   6.208  0.0577 -0.2143 -0.3780
  200MOL0     C26283   2.743   3.588   6.096  0.0796 -0.0130  0.5747
  200MOL0     C26284   2.794   3.574   5.950 -0.1191 -0.4493 -0.5750
  200MOL0     N26285   2.914   3.648   5.954  0.3023 -1.0052 -0.2660
  200MOL0     C26286   3.040   3.607   5.985 -0.2794  0.2226  0.2379
  200MOL0     C26287   3.128   3.704   5.957 -0.4243 -0.0239  0.4321
  200MOL0     C26288   3.268   3.699   5.986  1.0715 -0.2411  0.0124
  200MOL0     C26289   3.366   3.689   5.866  0.3425  0.0413 -0.2289
  200MOL0     C26290   3.519   3.682   5.902  0.1597  0.3420 -0.4609
  200MOL0     C26291   3.598   3.557   5.862  0.0627 -0.2566  1.1632
  200MOL0     O26292   3.597   3.532   5.718 -0.7148  0.3121  0.4806
  200MOL0     C26293   3.679   3.434   5.677  0.2327 -0.5975  0.6313
  200MOL0     C26294   3.761   3.462   5.564  0.0476 -0.9030 -0.6859
  200MOL0     C26295   3.856   3.358   5.520 -0.6050  0.1503 -0.2813
  200MOL0     C26296   3.853   3.238   5.583 -0.2704  0.5493  1.0816
  200MOL0     C26297   3.951   3.136   5.537  0.1614  0.1914 -0.1351
  200MOL0     O26298   3.984   3.148   5.402  0.0273  0.1967 -0.2624
  200MOL0     C26299   4.092   3.091   5.342 -0.1017  0.3209 -0.6129
  200MOL0     C26300   4.212   3.068   5.396  0.8197 -0.5500 -0.5580
  200MOL0     C26301   4.319   3.004   5.323  0.0886 -0.1097  0.6726
  200MOL0     C26302   4.292   2.958   5.195  0.1989  0.2997  0.6297
  200MOL0     O26303   4.392   2.904   5.120  0.6651  0.0904  0.2014
  200MOL0     C26304   4.379   2.829   5.001 -0.2466 -0.0215  0.1257
  200MOL0     C26305   4.472   2.702   4.999  1.1869 -0.6287 -0.1325
  200MOL0     C26306   4.624   2.738   4.996 -0.3160 -0.5070  0.0933
  200MOL0     C26307   4.718   2.610   5.012  0.0659  0.0339 -0.2965
  200MOL0     C26308   4.673   2.502   5.114 -0.4167  1.5194 -0.0753
  200MOL0     C26309   4.769   2.401   5.173  0.8837 -1.1576 -0.0204
  200MOL0     C26310   4.832   2.310   5.060  0.0749 -0.4164 -0.5818
  200MOL0     C26311   4.966   2.254   5.115  0.2132  0.3544  0.3108
  200MOL0    Cl26312   5.091   2.377   5.135 -0.3788  0.2021 -0.0212
  200MOL0     C26313   4.160   2.973   5.141 -0.0112 -0.0550 -0.9675
  200MOL0     C26314   4.068   3.045   5.215  0.2802  0.3931 -0.5854
  200MOL0     O26315   4.004   3.055   5.617  1.0916  0.0128 -0.1910
  200MOL0     C26316   3.753   3.205   5.679 -0.4525  0.3647  0.1913
  200MOL0     C26317   3.664   3.306   5.731  1.1589  0.0694  0.5336
  200MOL0     N26318   3.056   3.799   5.896 -0.5871 -1.2329  0.1712
  200MOL0     N26319   2.930   3.765   5.899  0.1171  0.6807  0.1871
  200MOL0     C26320   3.544   3.427   6.301  0.6665 -0.0566  0.2247
  200MOL0     C26321   3.680   3.459   6.303  0.1752  0.4189  0.1024
  200MOL0     C26322   4.086   3.602   6.370 -0.9347 -0.7365 -1.4854
  200MOL0     C26323   4.167   3.659   6.273  1.4159 -0.7091  0.1143
  200MOL0     C26324   4.307   3.677   6.302  0.2904 -0.1118  0.8609
  200MOL0     C26325   4.371   3.621   6.412 -0.0120 -0.0920 -0.0489
  200MOL0     O26326   4.505   3.618   6.411 -0.1347 -0.0921 -0.0906
  200MOL0     C26327   4.573   3.602   6.541 -0.2367 -0.5758  0.3037
  200MOL0     C26328   4.724   3.632   6.525  0.7076  0.0970 -0.0720
  200MOL0     C26329   4.779   3.637   6.384 -0.4925  0.2267 -0.4343
  200MOL0     C26330   4.936   3.632   6.405  0.8100 -0.4352 -0.1260
  200MOL0     C26331   4.978   3.488   6.424 -0.5600  0.0828 -0.1249
  200MOL0     C26332   5.013   3.373   6.453 -0.3217 -0.0092  0.8191
  200MOL0     C26333   4.289   3.570   6.510  1.6833  0.2055  0.1514
  200MOL0     C26334   4.147   3.570   6.493 -0.8991  0.3933 -0.5983
  200MOL0     H26335   3.734   3.405   6.633 -0.9200  0.7474 -0.4059
  200MOL0     H26336   3.488   3.364   6.633 -1.5688 -3.4789 -0.4095
  200MOL0     H26337   3.227   3.434   6.533  1.3161 -1.1235  1.4521
  200MOL0     H26338   3.285   3.270   6.569  0.8131 -0.4189 -1.0142
  200MOL0     H26339   3.036   3.267   6.512  1.4736  1.2347  1.3718
  200MOL0     H26340   3.126   3.173   6.405  3.5697  0.5102 -0.2539
  200MOL0     H26341   3.135   3.362   6.247 -0.4203  1.9521  0.9174
  200MOL0     H26342   3.031   3.461   6.350 -4.1005  0.5786 -3.3278
  200MOL0     H26343   2.961   3.199   6.224 -2.1902  2.2830 -3.6094
  200MOL0     H26344   2.873   3.247   6.353  2.0947 -0.7161  1.0030
  200MOL0     H26345   2.755   3.326   6.155 -1.1805  1.8034  3.3990
  200MOL0     H26346   2.909   3.367   6.077 -0.0018 -1.0257 -0.8066
  200MOL0     H26347   2.909   3.575   6.239  0.0934 -0.9521  0.9797
  200MOL0     H26348   2.763   3.522   6.299 -1.4763 -0.1190 -1.3523
  200MOL0     H26349   2.644   3.541   6.101  1.2982 -2.6021  2.9671
  200MOL0     H26350   2.734   3.694   6.122 -0.6950 -0.1196  0.7639
  200MOL0     H26351   2.727   3.638   5.893 -1.3486 -1.3201 -0.1453
  200MOL0     H26352   2.787   3.473   5.910 -2.1008 -0.8283  0.5810
  200MOL0     H26353   3.071   3.510   6.022 -0.9105 -0.3006 -0.5606
  200MOL0     H26354   3.288   3.606   6.040  4.1309  0.1374 -0.2777
  200MOL0     H26355   3.285   3.789   6.047  0.6171  0.5329 -0.9766
  200MOL0     H26356   3.344   3.778   5.806 -2.5513  1.5107  2.6739
  200MOL0     H26357   3.343   3.606   5.800  2.4053 -1.1079  0.4207
  200MOL0     H26358   3.572   3.769   5.861 -0.2518 -0.4321 -2.7575
  200MOL0     H26359   3.531   3.700   6.009  0.8280 -1.0456 -0.2959
  200MOL0     H26360   3.558   3.466   5.909 -3.2701  0.7895  0.5775
  200MOL0     H26361   3.700   3.555   5.902  0.6798 -0.7600 -0.3756
  200MOL0     H26362   3.742   3.550   5.504  1.7507  1.2722  1.7657
  200MOL0     H26363   3.909   3.384   5.429  1.1295 -1.0652  0.3460
  200MOL0     H26364   4.227   3.117   5.492 -1.5790 -2.3321  0.8248
  200MOL0     H26365   4.418   2.992   5.367 -0.0022 -0.2976  0.8282
  200MOL0     H26366   4.410   2.893   4.918  0.1730 -1.6333 -1.0171
  200MOL0     H26367   4.276   2.798   4.981 -1.0750  2.0401  0.9455
  200MOL0     H26368   4.444   2.633   4.919 -4.4744 -0.5175  1.3140
  200MOL0     H26369   4.457   2.641   5.089  1.4821 -0.2811  0.1565
  200MOL0     H26370   4.657   2.805   5.076 -0.5621  1.6053 -1.4848
  200MOL0     H26371   4.652   2.795   4.907  1.1344  1.8731  1.9369
  200MOL0     H26372   4.735   2.570   4.912  2.3040  0.5543 -0.1701
  200MOL0     H26373   4.817   2.633   5.051  0.3444 -0.6551 -0.5829
  200MOL0     H26374   4.581   2.456   5.075  1.2147 -0.8097 -1.4098
  200MOL0     H26375   4.655   2.563   5.203 -4.1162 -1.3143  1.4175
  200MOL0     H26376   4.709   2.343   5.243 -0.0180 -1.0779 -0.7229
  200MOL0     H26377   4.836   2.465   5.233 -2.3495  2.7347 -0.1598
  200MOL0     H26378   4.760   2.229   5.052 -2.3467  1.2267  2.3672
  200MOL0     H26379   4.849   2.369   4.969  0.6884 -0.5150 -0.5321
  200MOL0     H26380   5.006   2.186   5.039 -0.0742  0.6188 -0.0784
  200MOL0     H26381   4.959   2.180   5.195 -0.0740  0.5688  0.4862
  200MOL0     H26382   4.148   2.955   5.034  4.9733 -0.4420 -1.7113
  200MOL0     H26383   3.968   3.074   5.186 -1.2582 -0.2020  3.5410
  200MOL0     H26384   3.734   3.101   5.705 -2.3134 -0.5225 -4.0129
  200MOL0     H26385   3.593   3.276   5.807 -0.7855  4.4290  0.7307
  200MOL0     H26386   3.496   3.441   6.204 -1.5798 -0.7021  1.1865
  200MOL0     H26387   3.725   3.498   6.212  1.0018  0.5605  0.5665
  200MOL0     H26388   4.131   3.680   6.172  0.9415 -0.4497  0.3362
  200MOL0     H26389   4.372   3.713   6.223 -0.2422  2.4220  1.5034
  200MOL0     H26390   4.567   3.493   6.554  1.0406 -0.3757  3.6164
  200MOL0     H26391   4.519   3.653   6.621 -0.9665 -2.9654  1.4570
  200MOL0     H26392   4.738   3.732   6.568  1.5023  0.5360 -1.3173
  200MOL0     H26393   4.781   3.569   6.594  0.6431  1.4162  1.2482
  200MOL0     H26394   4.758   3.724   6.321  2.8433 -0.6660 -3.0797
  200MOL0     H26395   4.750   3.555   6.318 -0.7188  2.5574 -3.4298
  200MOL0     H26396   4.990   3.673   6.319 -0.1347  1.2185  0.0241
  200MOL0     H26397   4.944   3.699   6.491 -6.6199  0.8930  0.2001
  200MOL0     H26398   5.035   3.268   6.456 -0.5819 -0.0838  0.0786
  200MOL0     H26399   4.329   3.521   6.598  0.3853 -1.0820  0.0470
  200MOL0     H26400   4.090   3.533   6.577 -1.1466  0.6450 -0.6552
  201MOL0     O26401   1.845   4.559   6.555 -0.6246  0.4129 -0.3949
  201MOL0     C26402   1.861   4.492   6.455  0.3167  0.0481  0.5994
  201MOL0     O26403   1.773   4.449   6.364 -0.0898 -0.1148 -0.1737
  201MOL0     C26404   1.640   4.468   6.392 -0.2041  0.0351  0.6262
  201MOL0     C26405   1.566   4.567   6.331 -0.0951  0.6648  0.3079
  201MOL0     C26406   1.434   4.587   6.370  0.3368  0.5060  0.0696
  201MOL0     C26407   1.377   4.502   6.466 -0.0233 -0.2974 -0.3732
  201MOL0     O26408   1.248   4.500   6.513 -0.6211 -0.0916  0.4082
  201MOL0     C26409   1.158   4.599   6.465  0.5098  0.2412  0.3515
  201MOL0     C26410   1.099   4.568   6.323  0.0572 -0.5618 -0.9163
  201MOL0     C26411   0.983   4.666   6.295 -0.1826  0.2564  0.0076
  201MOL0     C26412   0.904   4.626   6.168 -0.4205  0.6629  0.2215
  201MOL0     C26413   0.768   4.701   6.162 -0.0091 -0.4588  0.2519
  201MOL0     C26414   0.694   4.658   6.034 -0.3021  0.3158 -0.3617
  201MOL0     C26415   0.541   4.692   6.036 -0.1439  0.4847 -0.6718
  201MOL0     C26416   0.459   4.625   5.932  0.5108 -0.0563  0.4629
  201MOL0     N26417   0.501   4.670   5.794  0.2225 -0.2437  0.8376
  201MOL0     C26418   0.532   4.793   5.750 -0.1297  0.0925 -0.6739
  201MOL0     C26419   0.596   4.773   5.633 -0.4826 -0.2022 -0.1248
  201MOL0     C26420   0.631   4.891   5.551  0.8759 -0.1268  0.7986
  201MOL0     C26421   0.681   4.858   5.412  0.3140  0.0247  0.0313
  201MOL0     C26422   0.714   4.998   5.347 -0.1654 -0.1801 -0.8145
  201MOL0     C26423   0.776   4.980   5.205 -0.1493  0.3997 -0.2523
  201MOL0     O26424   0.703   4.889   5.116  0.5546 -0.8928 -0.5934
  201MOL0     C26425   0.594   4.933   5.037  0.7856 -0.0561  0.0549
  201MOL0     C26426   0.523   4.852   4.953  0.0523  0.3939  0.3678
  201MOL0     C26427   0.407   4.887   4.878 -0.6173 -0.1443  0.1949
  201MOL0     C26428   0.371   5.022   4.869  0.5361  0.7440 -0.6070
  201MOL0     C26429   0.242   5.061   4.795 -0.9247  0.3682 -0.5851
  201MOL0     O26430   0.207   5.200   4.788 -0.4671  0.8975 -0.6941
  201MOL0     C26431   0.125   5.240   4.687  0.5563 -0.0888 -0.0828
  201MOL0     C26432   0.173   5.359   4.639 -0.1201  0.2950  0.7557
  201MOL0     C26433   0.104   5.425   4.533  1.1805 -0.2390  0.3930
  201MOL0     C26434  -0.018   5.373   4.490  0.8399 -0.3552  0.9382
  201MOL0     O26435  -0.097   5.439   4.401  0.2387  0.2108  0.5286
  201MOL0     C26436  -0.061   5.417   4.265  0.3107 -0.1147  0.0590
  201MOL0     C26437  -0.184   5.428   4.182  0.6277  0.3068 -0.0741
  201MOL0     C26438  -0.279   5.312   4.199  0.0861  0.1929 -0.3563
  201MOL0     C26439  -0.415   5.356   4.131  0.3934  0.1994  0.0624
  201MOL0     C26440  -0.533   5.255   4.161 -0.0982 -0.1065  0.0299
  201MOL0     C26441  -0.544   5.202   4.305 -0.2756  0.2832 -0.7822
  201MOL0     C26442  -0.683   5.154   4.354  0.1529  0.0658 -0.1568
  201MOL0     C26443  -0.781   5.269   4.392 -0.6490  0.0124 -0.1597
  201MOL0    Cl26444  -0.701   5.362   4.522  0.1355  0.9315 -0.5922
  201MOL0     C26445  -0.077   5.264   4.553  0.3328  1.0455  0.5467
  201MOL0     C26446  -0.003   5.195   4.646 -0.3330  0.5472 -0.8369
  201MOL0     O26447   0.172   4.970   4.738 -0.5090 -0.3263 -0.8352
  201MOL0     C26448   0.438   5.114   4.948 -0.1592 -0.7551 -0.0009
  201MOL0     C26449   0.555   5.076   5.030  0.1551 -0.0020  0.8749
  201MOL0     N26450   0.618   4.641   5.614  0.7996  0.1644 -0.3041
  201MOL0     N26451   0.555   4.580   5.706 -0.7263 -0.5055  0.2958
  201MOL0     C26452   1.455   4.405   6.536 -0.5603  0.0402 -0.6274
  201MOL0     C26453   1.591   4.384   6.494  0.1543 -0.6600  0.4886
  201MOL0     C26454   1.996   4.440   6.423 -0.4727 -0.1343 -0.2826
  201MOL0     C26455   2.023   4.347   6.327  0.1142  0.2880  0.2204
  201MOL0     C26456   2.151   4.298   6.307  0.5704 -0.3125  0.4849
  201MOL0     C26457   2.263   4.346   6.383  0.1668 -0.7395 -0.5193
  201MOL0     O26458   2.400   4.306   6.370  0.1385  0.5312  0.4216
  201MOL0     C26459   2.510   4.401   6.353  0.4286  0.5307  0.1638
  201MOL0     C26460   2.629   4.346   6.434  0.0009  0.6343 -0.3699
  201MOL0     C26461   2.744   4.430   6.411  0.1366 -0.4722 -0.4069
  201MOL0     C26462   2.785   4.425   6.261  0.1506  0.1257 -0.2345
  201MOL0     C26463   2.919   4.477   6.236  0.4504  0.1400 -0.4371
  201MOL0     C26464   3.024   4.537   6.233 -0.5520 -0.0070  0.0924
  201MOL0     C26465   2.234   4.450   6.475  0.4333 -0.5132 -0.9941
  201MOL0     C26466   2.102   4.488   6.500  0.7945 -0.3555  0.3734
  201MOL0     H26467   1.608   4.633   6.256  2.2226 -2.2659 -1.1972
  201MOL0     H26468   1.372   4.661   6.320 -3.7547 -3.1535 -0.9272
  201MOL0     H26469   1.203   4.699   6.457 -2.2276  1.4700 -1.3458
  201MOL0     H26470   1.074   4.598   6.535 -1.1147 -1.9777 -1.4622
  201MOL0     H26471   1.056   4.468   6.311 -2.4294 -0.2645  3.5960
  201MOL0     H26472   1.173   4.589   6.245 -0.0382 -2.0541 -1.4360
  201MOL0     H26473   1.019   4.767   6.275 -2.4893  1.0682 -0.3775
  201MOL0     H26474   0.911   4.678   6.377 -1.0427  1.8519 -0.9249
  201MOL0     H26475   0.961   4.654   6.079  0.1772  0.2708  0.4762
  201MOL0     H26476   0.885   4.519   6.163 -1.1747  0.8479 -1.2354
  201MOL0     H26477   0.783   4.809   6.174  2.7437 -0.9212  1.7846
  201MOL0     H26478   0.711   4.672   6.251 -1.7253 -1.2073 -1.0353
  201MOL0     H26479   0.705   4.549   6.024 -0.7194  0.3206 -0.8968
  201MOL0     H26480   0.747   4.697   5.947 -2.9196 -0.7263 -2.5724
  201MOL0     H26481   0.521   4.653   6.136  1.5872  0.1994 -0.4127
  201MOL0     H26482   0.528   4.801   6.044 -0.3665  0.3263  2.0267
  201MOL0     H26483   0.354   4.655   5.943  1.2143  2.4175  1.0834
  201MOL0     H26484   0.453   4.517   5.948  0.5992 -0.0589  0.4839
  201MOL0     H26485   0.514   4.880   5.813 -2.0492 -1.9852  1.9072
  201MOL0     H26486   0.709   4.947   5.602  1.8188 -1.0667  0.4183
  201MOL0     H26487   0.546   4.959   5.543  1.1534 -0.0419 -2.4701
  201MOL0     H26488   0.603   4.808   5.355  0.5602  0.4742 -0.7235
  201MOL0     H26489   0.765   4.788   5.405 -1.0945 -1.7738  0.5913
  201MOL0     H26490   0.622   5.057   5.335 -1.9357 -2.2900  1.4134
  201MOL0     H26491   0.777   5.062   5.410 -1.9049 -1.0222  1.9186
  201MOL0     H26492   0.876   4.937   5.215  1.3772  3.5380 -0.8539
  201MOL0     H26493   0.792   5.074   5.153  1.7750 -1.0064 -2.3959
  201MOL0     H26494   0.550   4.748   4.965  2.2094  0.9049  0.2439
  201MOL0     H26495   0.340   4.817   4.831  0.1960 -1.3417  0.7632
  201MOL0     H26496   0.276   5.386   4.662 -0.9561  2.7318  1.9505
  201MOL0     H26497   0.146   5.516   4.491 -0.4107 -0.0207 -0.8401
  201MOL0     H26498   0.001   5.327   4.255 -0.6522 -0.8446  0.5407
  201MOL0     H26499   0.003   5.503   4.246 -1.2555  0.7868 -1.4112
  201MOL0     H26500  -0.162   5.439   4.075  2.2059 -2.6546 -0.1756
  201MOL0     H26501  -0.236   5.517   4.218  0.8698  1.2022 -1.8294
  201MOL0     H26502  -0.292   5.290   4.305  0.4078  2.5435  0.2236
  201MOL0     H26503  -0.237   5.222   4.153 -1.0015 -0.3711 -0.2782
  201MOL0     H26504  -0.444   5.456   4.167  1.9962 -0.1373  2.5286
  201MOL0     H26505  -0.402   5.360   4.022 -0.6957 -1.3533 -0.1561
  201MOL0     H26506  -0.517   5.168   4.097 -0.6822 -3.2751  3.8084
  201MOL0     H26507  -0.628   5.299   4.128  0.7934  1.0445 -1.0965
  201MOL0     H26508  -0.515   5.277   4.379 -0.0848 -1.0281  0.5237
  201MOL0     H26509  -0.476   5.117   4.319 -2.2952 -1.2700  0.0628
  201MOL0     H26510  -0.727   5.094   4.274  0.6011 -0.8034  0.2259
  201MOL0     H26511  -0.674   5.092   4.444 -0.0898  0.5770  0.2195
  201MOL0     H26512  -0.877   5.227   4.425 -0.2105 -0.1691  0.9203
  201MOL0     H26513  -0.792   5.339   4.309  1.1637  0.9525  0.3447
  201MOL0     H26514  -0.178   5.242   4.519  1.8610 -1.9631 -2.6190
  201MOL0     H26515  -0.050   5.105   4.684 -1.9613  0.9950 -1.7032
  201MOL0     H26516   0.401   5.216   4.949 -1.3742 -1.1889  1.2182
  201MOL0     H26517   0.616   5.153   5.076  2.4272 -0.4912 -1.1060
  201MOL0     H26518   1.423   4.354   6.626 -0.7547  2.2608  0.6318
  201MOL0     H26519   1.639   4.309   6.557  0.9461  0.5659  1.3946
  201MOL0     H26520   1.941   4.298   6.276  0.5876 -0.3378  0.0531
  201MOL0     H26521   2.181   4.223   6.235 -1.2535  0.2093 -0.9116
  201MOL0     H26522   2.476   4.496   6.394  0.1609  0.2177  0.6887
  201MOL0     H26523   2.527   4.409   6.245  2.6195  0.5709  0.4589
  201MOL0     H26524   2.582   4.342   6.532 -3.4075  0.5953 -1.8541
  201MOL0     H26525   2.650   4.242   6.407 -2.5773 -0.6854  2.1414
  201MOL0     H26526   2.823   4.397   6.479 -1.0033 -0.6617  0.8718
  201MOL0     H26527   2.713   4.531   6.442 -0.9738 -0.6639 -0.8503
  201MOL0     H26528   2.791   4.326   6.216  0.1096  1.0346 -2.3253
  201MOL0     H26529   2.727   4.492   6.198  1.7783  0.0146 -1.9267
  201MOL0     H26530   3.119   4.587   6.237  0.2000 -1.4526  1.1749
  201MOL0     H26531   2.316   4.483   6.538 -0.3467 -0.6562  0.1114
  201MOL0     H26532   2.073   4.551   6.583 -2.4258 -1.7582  0.4582
  202MOL0     O26533  10.997   0.947   4.849 -0.4035 -0.0355  0.2719
  202MOL0     C26534  11.097   0.985   4.779 -0.1929 -0.2906  1.1675
  202MOL0     O26535  11.098   1.081   4.682  0.3966  0.3078 -0.6548
  202MOL0     C26536  10.975   1.136   4.648 -0.5150 -0.5331  0.3230
  202MOL0     C26537  10.854   1.138   4.718 -0.9562 -0.5623  0.5019
  202MOL0     C26538  10.746   1.195   4.663  0.1735  0.3157  0.4660
  202MOL0     C26539  10.745   1.243   4.535 -0.6320 -0.2156  1.2061
  202MOL0     O26540  10.628   1.289   4.474  0.4031 -0.0667 -0.3241
  202MOL0     C26541  10.501   1.286   4.541  0.0296  1.2933 -0.6498
  202MOL0     C26542  10.444   1.148   4.538  0.0219  0.0679  0.1444
  202MOL0     C26543  10.357   1.126   4.415  0.8568  0.4302  0.3117
  202MOL0     C26544  10.280   0.993   4.421 -0.0569  0.5609  0.5463
  202MOL0     C26545  10.175   0.978   4.526 -0.0005  0.7150 -0.4344
  202MOL0     C26546  10.075   1.096   4.549  0.8341  0.2955 -0.2388
  202MOL0     C26547   9.975   1.064   4.659  0.1417  0.2330 -0.0257
  202MOL0     C26548   9.861   1.167   4.684  0.3172 -0.1477  0.5072
  202MOL0     N26549   9.918   1.289   4.742  0.3311  0.6615  0.3939
  202MOL0     C26550  10.011   1.303   4.845 -0.0713  0.2675 -0.1013
  202MOL0     C26551  10.047   1.428   4.841  0.2321  0.3660 -0.4698
  202MOL0     C26552  10.129   1.498   4.945  0.2495 -0.0083  0.4902
  202MOL0     C26553  10.279   1.454   4.941  0.6948 -0.8718  0.4782
  202MOL0     C26554  10.366   1.553   5.029 -0.8839  0.4037  1.0227
  202MOL0     C26555  10.510   1.505   5.061 -0.4090  0.4336  1.1406
  202MOL0     O26556  10.559   1.498   4.927  0.3385  0.1144 -0.2695
  202MOL0     C26557  10.691   1.464   4.908  0.0945 -0.1924  1.8702
  202MOL0     C26558  10.735   1.497   4.778 -0.1155  0.3279  0.7479
  202MOL0     C26559  10.870   1.498   4.745  0.5785 -0.5963 -0.1218
  202MOL0     C26560  10.967   1.453   4.830 -0.3716  0.3359  0.3632
  202MOL0     C26561  11.120   1.434   4.788  0.1246  0.2748  0.1530
  202MOL0     O26562  11.173   1.501   4.676  0.1082  0.5700 -0.2771
  202MOL0     C26563  11.308   1.484   4.642  0.1520 -0.0271 -0.0884
  202MOL0     C26564  11.344   1.365   4.576 -0.0465  0.3860 -0.4855
  202MOL0     C26565  11.481   1.336   4.558  0.0359  0.0204  0.6182
  202MOL0     C26566  11.583   1.429   4.607  1.4719  0.1285  0.0826
  202MOL0     O26567  11.713   1.403   4.579  0.0378  0.4101 -0.2616
  202MOL0     C26568  11.812   1.496   4.620  0.0072  0.1415  0.5578
  202MOL0     C26569  11.951   1.463   4.578 -0.9059  0.7284  0.1516
  202MOL0     C26570  11.999   1.320   4.617 -0.6340  0.6165  0.3549
  202MOL0     C26571  12.069   1.306   4.755  0.0307 -0.5738  0.0938
  202MOL0     C26572  12.060   1.166   4.804  0.0049  0.8773 -0.5176
  202MOL0     C26573  11.949   1.142   4.904 -0.6509 -0.6493 -1.8292
  202MOL0     C26574  11.979   1.021   4.988 -0.7462 -0.2025 -0.5101
  202MOL0     C26575  11.887   1.007   5.113  0.6842  0.8187  0.2254
  202MOL0    Cl26576  11.903   0.846   5.196 -0.0734  0.0265  0.1306
  202MOL0     C26577  11.534   1.546   4.670  0.8994 -0.2476 -0.0788
  202MOL0     C26578  11.411   1.567   4.699 -0.3969 -0.3489  0.2575
  202MOL0     O26579  11.181   1.358   4.860 -0.6209 -0.2279  0.3714
  202MOL0     C26580  10.923   1.408   4.965 -0.4620  0.2587 -0.1191
  202MOL0     C26581  10.789   1.417   5.000 -0.2733 -0.6062 -0.0512
  202MOL0     N26582   9.977   1.493   4.743 -0.5550 -0.8540 -0.7686
  202MOL0     N26583   9.904   1.408   4.680  0.1483  0.7116 -0.3983
  202MOL0     C26584  10.863   1.245   4.461 -0.3157  0.0097 -0.2192
  202MOL0     C26585  10.979   1.186   4.518  0.1069 -0.1851  0.6646
  202MOL0     C26586  11.227   0.913   4.783 -0.0716  0.4241 -0.2478
  202MOL0     C26587  11.351   0.965   4.751  0.1467  0.8173 -0.3725
  202MOL0     C26588  11.469   0.890   4.770 -0.2285 -0.6725 -0.6450
  202MOL0     C26589  11.464   0.762   4.823 -0.9674 -0.3321  0.1653
  202MOL0     O26590  11.587   0.701   4.836  0.2123 -0.2265  0.2289
  202MOL0     C26591  11.597   0.614   4.949  0.4239  0.2319  0.2420
  202MOL0     C26592  11.748   0.578   4.978  0.5567 -0.1601 -0.4805
  202MOL0     C26593  11.786   0.479   4.871 -0.4628 -0.4144 -0.8316
  202MOL0     C26594  11.931   0.490   4.831 -0.4992 -0.4920  0.5421
  202MOL0     C26595  12.032   0.471   4.934  0.0499 -0.3096  0.3307
  202MOL0     C26596  12.109   0.455   5.021  0.1693 -0.0812  0.3736
  202MOL0     C26597  11.346   0.701   4.850  0.6753 -0.7119  0.0191
  202MOL0     C26598  11.231   0.775   4.827  0.9272  0.5526 -0.8191
  202MOL0     H26599  10.836   1.091   4.814 -0.5650  1.6762  1.7299
  202MOL0     H26600  10.661   1.212   4.729  1.3658  2.1956  1.5914
  202MOL0     H26601  10.435   1.355   4.487 -2.5018  1.4124  2.3118
  202MOL0     H26602  10.503   1.321   4.645 -2.1230 -1.6677  0.5303
  202MOL0     H26603  10.382   1.128   4.626  0.2619  0.0756  0.3148
  202MOL0     H26604  10.528   1.079   4.549  0.1765  0.0531 -1.0345
  202MOL0     H26605  10.405   1.124   4.316 -1.8517  2.1446 -1.1717
  202MOL0     H26606  10.276   1.199   4.401 -1.2594 -2.0691 -1.5147
  202MOL0     H26607  10.231   0.976   4.325 -0.6625 -3.8943  1.4344
  202MOL0     H26608  10.354   0.913   4.427 -1.3793 -0.5801  3.1754
  202MOL0     H26609  10.226   0.954   4.620  1.0562 -1.8927 -1.5881
  202MOL0     H26610  10.120   0.885   4.510  2.0657 -0.3527 -1.6569
  202MOL0     H26611  10.020   1.138   4.465 -2.1583  1.1224  1.9481
  202MOL0     H26612  10.128   1.181   4.594  0.6333  0.2810  0.0275
  202MOL0     H26613   9.932   0.968   4.631 -3.1822  1.3057  0.9490
  202MOL0     H26614  10.033   1.046   4.749 -2.4973  0.7071  1.8980
  202MOL0     H26615   9.786   1.121   4.749  0.4198 -2.1406 -0.7104
  202MOL0     H26616   9.802   1.187   4.593  0.2569 -1.4363  0.2489
  202MOL0     H26617  10.057   1.226   4.906 -1.7664 -1.8217 -1.3154
  202MOL0     H26618  10.085   1.491   5.045 -1.1310  0.7981 -0.0317
  202MOL0     H26619  10.130   1.604   4.919  3.2157 -0.3196 -1.0577
  202MOL0     H26620  10.328   1.469   4.844  0.4992 -0.0564  0.4979
  202MOL0     H26621  10.286   1.347   4.963 -1.2215 -1.3778 -1.0533
  202MOL0     H26622  10.385   1.647   4.976  0.7622  0.7805  2.1954
  202MOL0     H26623  10.310   1.570   5.121 -0.0081  1.6548  1.3475
  202MOL0     H26624  10.515   1.403   5.102  0.0467 -0.8347 -1.8184
  202MOL0     H26625  10.572   1.583   5.107 -0.2273  2.8770 -2.8538
  202MOL0     H26626  10.659   1.536   4.711  1.3785 -0.8665 -1.7466
  202MOL0     H26627  10.888   1.532   4.644 -0.2900 -1.4959 -0.5956
  202MOL0     H26628  11.272   1.302   4.524  0.0485 -0.8305  0.8070
  202MOL0     H26629  11.508   1.246   4.503 -0.3145  1.1966 -1.5778
  202MOL0     H26630  11.801   1.500   4.728 -0.7613 -2.1755  0.6320
  202MOL0     H26631  11.786   1.596   4.583 -0.0963  0.8416  2.4220
  202MOL0     H26632  12.022   1.533   4.623  0.3536 -1.3473  1.5815
  202MOL0     H26633  11.942   1.467   4.469 -2.9792 -1.7338  0.1393
  202MOL0     H26634  12.071   1.296   4.539 -0.1319  1.3603  0.5745
  202MOL0     H26635  11.917   1.249   4.603 -0.1172 -0.2234  1.4215
  202MOL0     H26636  12.169   1.349   4.753 -0.3148  0.2560 -0.0544
  202MOL0     H26637  12.014   1.371   4.823  0.1724 -0.7428  0.3705
  202MOL0     H26638  12.150   1.145   4.862 -0.0960 -0.6543 -0.8652
  202MOL0     H26639  12.048   1.091   4.726 -0.4341  0.8031 -0.3856
  202MOL0     H26640  11.854   1.134   4.850 -0.5161  0.6796 -2.3052
  202MOL0     H26641  11.950   1.223   4.977 -0.4465 -0.2130 -2.3074
  202MOL0     H26642  11.970   0.927   4.933  3.6862 -1.5280  0.6492
  202MOL0     H26643  12.083   1.022   5.021 -0.2172  0.7590 -2.1262
  202MOL0     H26644  11.781   1.011   5.087  1.0679  1.3761 -1.3077
  202MOL0     H26645  11.915   1.091   5.178  1.1580  0.6501  0.2442
  202MOL0     H26646  11.608   1.617   4.707  1.2545  0.1572 -1.4964
  202MOL0     H26647  11.376   1.655   4.753 -2.7639 -1.0103 -0.0871
  202MOL0     H26648  10.987   1.375   5.046 -1.3740  1.0899  0.9932
  202MOL0     H26649  10.765   1.396   5.103  0.6382 -0.7659  0.1352
  202MOL0     H26650  10.859   1.290   4.363 -2.0682  2.2202  0.7856
  202MOL0     H26651  11.066   1.177   4.454 -1.2302  0.0168 -1.2891
  202MOL0     H26652  11.357   1.071   4.727 -1.4017  0.9702 -0.1845
  202MOL0     H26653  11.569   0.918   4.736  0.7379 -3.0661  0.0101
  202MOL0     H26654  11.541   0.523   4.927  0.3678  0.7401 -1.9170
  202MOL0     H26655  11.557   0.666   5.037  1.1476 -0.9163  1.2843
  202MOL0     H26656  11.809   0.669   4.974  0.8478 -0.3826 -4.5919
  202MOL0     H26657  11.749   0.534   5.079 -0.6613 -0.4871 -0.5922
  202MOL0     H26658  11.727   0.491   4.780 -0.3753  1.9261 -0.6180
  202MOL0     H26659  11.760   0.386   4.923 -0.7266 -0.5712 -1.2395
  202MOL0     H26660  11.954   0.406   4.765  2.3618  0.4108  0.2530
  202MOL0     H26661  11.940   0.580   4.770  3.0967 -2.2287 -1.8197
  202MOL0     H26662  12.188   0.454   5.094  0.4833  1.3631  0.0826
  202MOL0     H26663  11.330   0.597   4.874  0.0096 -0.4375  0.8162
  202MOL0     H26664  11.135   0.730   4.851 -0.7605  1.8638 -4.4334
  203MOL0     O26665   6.687  11.135   6.745  0.1904  0.5147  0.2685
  203MOL0     C26666   6.751  11.146   6.636  0.4818 -0.5025 -0.4472
  203MOL0     O26667   6.708  11.188   6.508  0.3767  0.1060 -0.3678
  203MOL0     C26668   6.577  11.215   6.489  0.0093  0.3881  0.0299
  203MOL0     C26669   6.527  11.349   6.503  0.1407  0.0166 -0.7070
  203MOL0     C26670   6.393  11.376   6.470 -0.3767 -0.3500  0.4188
  203MOL0     C26671   6.304  11.266   6.437 -0.1238 -0.9021  0.3454
  203MOL0     O26672   6.179  11.278   6.389 -0.0660  0.1609 -0.2146
  203MOL0     C26673   6.105  11.391   6.427 -0.3349  1.2281 -0.9076
  203MOL0     C26674   6.030  11.394   6.566 -0.0231 -0.5091  0.3416
  203MOL0     C26675   5.879  11.393   6.551  0.5314  0.4247 -0.2264
  203MOL0     C26676   5.807  11.428   6.670  0.3350  0.7282 -0.3365
  203MOL0     C26677   5.654  11.406   6.642 -0.4447  0.4627 -0.4591
  203MOL0     C26678   5.569  11.453   6.760  0.5096  0.2353  0.2424
  203MOL0     C26679   5.582  11.366   6.887  1.0326 -0.6257  0.7106
  203MOL0     C26680   5.514  11.414   7.006 -0.7352  0.1886  0.2245
  203MOL0     N26681   5.551  11.350   7.124  0.6232 -0.4783 -0.0756
  203MOL0     C26682   5.462  11.304   7.215  0.2409  0.0679 -1.0210
  203MOL0     C26683   5.528  11.276   7.331  0.5160  0.1043 -0.4084
  203MOL0     C26684   5.479  11.205   7.456  0.0842  0.1545  0.5170
  203MOL0     C26685   5.557  11.088   7.494 -0.0294  0.3447 -0.8164
  203MOL0     C26686   5.564  10.992   7.374  0.4454  0.3731 -0.0083
  203MOL0     C26687   5.596  10.851   7.420 -0.7188 -0.6573  1.2335
  203MOL0     O26688   5.497  10.814   7.503  0.1719 -0.2207 -0.6367
  203MOL0     C26689   5.486  10.686   7.552 -0.1634 -0.4236  0.4446
  203MOL0     C26690   5.391  10.654   7.648  1.0023  1.0609  0.5471
  203MOL0     C26691   5.384  10.528   7.709  0.6645 -0.7774 -0.4906
  203MOL0     C26692   5.484  10.432   7.681 -0.1702  0.1405  0.7708
  203MOL0     C26693   5.482  10.306   7.749  0.3589  0.1220  0.0471
  203MOL0     O26694   5.599  10.239   7.748  0.1948  1.1912 -0.3093
  203MOL0     C26695   5.606  10.122   7.822  0.0169 -0.9371 -0.6947
  203MOL0     C26696   5.600  10.001   7.761  0.3316 -0.9084  0.6831
  203MOL0     C26697   5.587   9.891   7.836 -0.0340  0.6627  0.2317
  203MOL0     C26698   5.595   9.895   7.975  0.6125 -0.1900  0.5784
  203MOL0     O26699   5.575   9.778   8.046 -0.0384  0.1528 -0.0507
  203MOL0     C26700   5.596   9.772   8.187 -0.4668 -0.6302 -0.5087
  203MOL0     C26701   5.570   9.622   8.230  0.0815  0.2416  0.3478
  203MOL0     C26702   5.582   9.595   8.385  0.8788 -0.1710  0.4337
  203MOL0     C26703   5.560   9.444   8.410 -0.5210  0.1088  0.6505
  203MOL0     C26704   5.697   9.364   8.393  0.4169  0.1809  0.3792
  203MOL0     C26705   5.697   9.239   8.472 -0.8655  0.4621  0.1353
  203MOL0     C26706   5.770   9.137   8.398 -0.1817 -0.6096 -0.0130
  203MOL0     C26707   5.793   8.995   8.455  0.0921  0.5430  0.2157
  203MOL0    Cl26708   5.843   8.992   8.627 -0.0106  0.3711  0.2411
  203MOL0     C26709   5.609  10.018   8.039  0.2266  0.5579  0.1907
  203MOL0     C26710   5.614  10.135   7.961  0.0765 -0.4440 -0.4368
  203MOL0     O26711   5.380  10.277   7.812 -0.8306 -0.2840 -0.6771
  203MOL0     C26712   5.578  10.471   7.577 -0.1102  0.6904 -0.0045
  203MOL0     C26713   5.581  10.593   7.520 -1.2309 -0.5561 -0.2456
  203MOL0     N26714   5.655  11.313   7.304 -0.8281  0.5295 -0.0074
  203MOL0     N26715   5.669  11.352   7.181  0.6753 -0.6681 -0.0432
  203MOL0     C26716   6.359  11.139   6.426  0.3687  0.1923  0.2134
  203MOL0     C26717   6.493  11.112   6.446  0.1338  0.1341 -0.7860
  203MOL0     C26718   6.885  11.079   6.638  0.4542  0.5177 -0.0785
  203MOL0     C26719   6.945  11.051   6.521 -0.5285  0.0693 -0.3414
  203MOL0     C26720   7.070  10.993   6.513  0.1219 -0.4387 -0.0074
  203MOL0     C26721   7.151  10.975   6.621 -1.1386  0.1345  0.4425
  203MOL0     O26722   7.286  10.946   6.593  0.4206  0.0031 -0.5541
  203MOL0     C26723   7.379  10.986   6.693  0.0681  0.6972  0.6348
  203MOL0     C26724   7.425  10.875   6.787 -0.7273  0.8523 -0.5185
  203MOL0     C26725   7.484  10.758   6.712 -0.1065 -0.2357 -0.4837
  203MOL0     C26726   7.611  10.790   6.631  0.2586  0.4162  0.3214
  203MOL0     C26727   7.703  10.669   6.623  1.4759 -0.6246 -0.4415
  203MOL0     C26728   7.771  10.567   6.616 -0.1267  0.6712  0.1770
  203MOL0     C26729   7.098  11.013   6.748  0.5624 -1.1861  0.1952
  203MOL0     C26730   6.969  11.071   6.756  0.0864  0.1038 -0.4498
  203MOL0     H26731   6.592  11.435   6.514 -2.3093  1.9201 -0.1524
  203MOL0     H26732   6.364  11.480   6.460  3.1606  0.8596  1.3029
  203MOL0     H26733   6.024  11.395   6.353 -0.4074 -1.1516 -1.0150
  203MOL0     H26734   6.163  11.484   6.422 -0.8178  1.8050  2.1852
  203MOL0     H26735   6.061  11.487   6.614 -2.5661  0.1118  0.8798
  203MOL0     H26736   6.058  11.317   6.638 -1.7113  0.5396  2.1872
  203MOL0     H26737   5.857  11.291   6.517  0.3434  0.3726  0.0536
  203MOL0     H26738   5.841  11.465   6.478  1.0866  4.1780  2.8492
  203MOL0     H26739   5.846  11.371   6.754 -2.9097  0.8790  1.4419
  203MOL0     H26740   5.821  11.534   6.693 -1.5961  1.8249 -3.4901
  203MOL0     H26741   5.634  11.299   6.633  1.7647  0.0363 -0.8254
  203MOL0     H26742   5.619  11.452   6.550 -2.2753 -1.4223 -0.7956
  203MOL0     H26743   5.463  11.459   6.730  0.7360 -0.6973 -0.8287
  203MOL0     H26744   5.603  11.555   6.780  2.3107 -0.4462  0.7838
  203MOL0     H26745   5.536  11.269   6.865  0.6769  0.0620 -1.8418
  203MOL0     H26746   5.688  11.361   6.916  0.7616  0.7868  2.0530
  203MOL0     H26747   5.409  11.390   6.985 -1.5016  0.8464  2.8363
  203MOL0     H26748   5.527  11.522   7.017 -0.2983 -0.0283  2.4290
  203MOL0     H26749   5.355  11.296   7.200  0.1519  0.3868 -0.5888
  203MOL0     H26750   5.371  11.188   7.451  0.0486  0.7518 -1.2212
  203MOL0     H26751   5.475  11.282   7.534 -1.3244 -2.1837  2.9132
  203MOL0     H26752   5.517  11.042   7.585 -0.0432  3.2316  0.7652
  203MOL0     H26753   5.662  11.105   7.522  0.4208 -0.5641 -1.8620
  203MOL0     H26754   5.464  10.979   7.331 -0.5748  2.7969  1.4513
  203MOL0     H26755   5.637  11.025   7.299  0.9029  0.6951  0.5778
  203MOL0     H26756   5.695  10.863   7.466 -2.4262  5.0195  4.3749
  203MOL0     H26757   5.605  10.778   7.339  2.7875  1.7903 -0.8788
  203MOL0     H26758   5.323  10.731   7.684  2.5677  2.2148  1.1424
  203MOL0     H26759   5.307  10.521   7.784  1.6666 -1.8452  0.4688
  203MOL0     H26760   5.586   9.979   7.656 -3.7691  1.3321  0.5426
  203MOL0     H26761   5.567   9.795   7.789 -1.4230 -0.5950  3.1122
  203MOL0     H26762   5.545   9.853   8.241  1.4413  2.1428 -2.5736
  203MOL0     H26763   5.704   9.785   8.189 -0.3617 -0.3299 -3.8391
  203MOL0     H26764   5.643   9.561   8.176  1.4615  3.2234 -1.4908
  203MOL0     H26765   5.472   9.596   8.191  0.3870 -0.2712 -0.0865
  203MOL0     H26766   5.508   9.653   8.441  0.4313 -0.3388  0.0225
  203MOL0     H26767   5.678   9.633   8.420  1.1583  1.6543 -2.0616
  203MOL0     H26768   5.523   9.438   8.512  2.5149  6.5356  2.6417
  203MOL0     H26769   5.485   9.401   8.343  1.7961  0.6828 -2.5652
  203MOL0     H26770   5.774   9.438   8.417 -3.2582  5.0823 -1.2017
  203MOL0     H26771   5.713   9.353   8.285 -3.0085  0.3758 -0.2584
  203MOL0     H26772   5.594   9.203   8.480 -0.8028  0.3797  0.6117
  203MOL0     H26773   5.745   9.265   8.567  0.4653 -0.2086 -0.3277
  203MOL0     H26774   5.708   9.113   8.311  2.1438 -2.7663 -1.2145
  203MOL0     H26775   5.862   9.170   8.349 -0.5331 -2.3277 -1.9418
  203MOL0     H26776   5.867   8.942   8.396  1.5805  0.5307  1.9957
  203MOL0     H26777   5.698   8.941   8.451  0.4302 -0.1120  0.8929
  203MOL0     H26778   5.590  10.028   8.145  0.5111  1.4991  0.1558
  203MOL0     H26779   5.614  10.233   8.009 -0.6421 -1.2407  1.2706
  203MOL0     H26780   5.651  10.400   7.540  3.4082  2.7280  2.3919
  203MOL0     H26781   5.670  10.609   7.460 -2.2626 -2.5748 -2.4942
  203MOL0     H26782   6.293  11.062   6.387  0.6146  0.0989 -0.0146
  203MOL0     H26783   6.516  11.006   6.437  1.4457  0.2904  0.3444
  203MOL0     H26784   6.897  11.066   6.424 -0.3657  3.8116  0.0096
  203MOL0     H26785   7.113  10.974   6.415 -2.4620 -1.0183 -1.1312
  203MOL0     H26786   7.340  11.070   6.751  2.5118  1.2717  1.5551
  203MOL0     H26787   7.466  11.028   6.641 -0.1049 -0.1591 -0.3734
  203MOL0     H26788   7.497  10.913   6.860 -0.6310 -4.3745  2.6371
  203MOL0     H26789   7.349  10.833   6.853  0.1980  1.6355  1.1113
  203MOL0     H26790   7.412  10.703   6.651 -0.2991 -0.7492  0.1899
  203MOL0     H26791   7.527  10.696   6.791  2.3769 -0.2891 -1.7752
  203MOL0     H26792   7.585  10.837   6.536  0.8026  1.4035  0.6442
  203MOL0     H26793   7.672  10.867   6.680  2.8702  1.5740 -4.1869
  203MOL0     H26794   7.831  10.479   6.630 -0.8771  0.4826  2.6570
  203MOL0     H26795   7.158  11.006   6.837 -0.1587  2.0364  1.0378
  203MOL0     H26796   6.932  11.107   6.851  0.1291 -0.7345 -0.1121
  204MOL0     O26797   4.621   4.471   2.173  0.8565  0.0707  0.3295
  204MOL0     C26798   4.651   4.368   2.111 -0.8216  0.2429 -0.2633
  204MOL0     O26799   4.586   4.297   2.014 -0.0721  0.7943 -0.1895
  204MOL0     C26800   4.462   4.337   1.965 -0.2706 -0.5972 -0.0455
  204MOL0     C26801   4.348   4.253   1.975 -0.1760 -0.4377  0.2718
  204MOL0     C26802   4.224   4.295   1.930 -0.5224 -0.8209  0.0304
  204MOL0     C26803   4.203   4.425   1.881 -0.0660  0.2803 -2.3172
  204MOL0     O26804   4.078   4.458   1.857  0.3492  1.1293  0.3749
  204MOL0     C26805   4.040   4.590   1.861  0.3849 -0.2537  0.0489
  204MOL0     C26806   3.891   4.612   1.867  1.2054  0.0311  0.0661
  204MOL0     C26807   3.819   4.569   2.002  0.3609 -0.3378 -0.2600
  204MOL0     C26808   3.671   4.586   1.985 -0.4162  0.6125  0.6111
  204MOL0     C26809   3.590   4.576   2.111 -0.0881 -0.0281  0.3965
  204MOL0     C26810   3.596   4.433   2.176  0.8837  0.2580 -0.0739
  204MOL0     C26811   3.462   4.403   2.261 -0.1212  0.7134 -0.2292
  204MOL0     C26812   3.455   4.490   2.394 -0.5836 -1.4497 -0.2020
  204MOL0     N26813   3.556   4.440   2.492  0.3986 -0.5996 -0.3260
  204MOL0     C26814   3.661   4.510   2.541  0.3741 -0.1288 -0.4409
  204MOL0     C26815   3.741   4.417   2.607  0.0406 -0.5311 -0.4225
  204MOL0     C26816   3.876   4.435   2.661 -0.6423  0.6378 -0.7885
  204MOL0     C26817   3.876   4.412   2.808 -0.1399 -0.3554 -0.3796
  204MOL0     C26818   4.013   4.440   2.868 -0.8016 -0.2932  0.1514
  204MOL0     C26819   4.014   4.439   3.019 -0.2161 -0.0692 -0.6711
  204MOL0     O26820   4.061   4.562   3.081 -1.0307 -0.4094  0.5459
  204MOL0     C26821   4.182   4.619   3.048 -0.4604  0.1628 -0.5708
  204MOL0     C26822   4.197   4.743   3.105  0.3229  0.2931  0.2813
  204MOL0     C26823   4.318   4.806   3.083 -0.8024  0.4568  0.6553
  204MOL0     C26824   4.420   4.756   3.002 -0.5645 -0.2264 -0.5565
  204MOL0     C26825   4.546   4.827   2.981  0.8965 -0.6426  0.8334
  204MOL0     O26826   4.571   4.945   3.035  0.0771 -0.7716 -1.1054
  204MOL0     C26827   4.688   5.015   3.013  0.6195 -0.2343  0.8805
  204MOL0     C26828   4.735   5.033   2.874 -0.0615 -0.0794 -0.7476
  204MOL0     C26829   4.851   5.098   2.839 -0.4518  0.5367 -0.2153
  204MOL0     C26830   4.918   5.173   2.939  0.5718  0.0410 -0.0228
  204MOL0     O26831   5.029   5.255   2.935  0.9978 -0.9067  0.0947
  204MOL0     C26832   5.104   5.237   2.813 -0.0331  0.1179  0.3521
  204MOL0     C26833   5.251   5.254   2.833  0.4107 -0.5744  0.2982
  204MOL0     C26834   5.344   5.274   2.721 -0.1168  0.1616  0.8304
  204MOL0     C26835   5.474   5.331   2.768 -0.5512 -0.5168 -1.0876
  204MOL0     C26836   5.602   5.277   2.697  0.3055 -0.2809  0.6086
  204MOL0     C26837   5.585   5.261   2.541 -0.5787 -0.4058 -0.6888
  204MOL0     C26838   5.714   5.283   2.467 -0.4198 -0.0677 -0.0946
  204MOL0     C26839   5.832   5.187   2.500 -0.0743 -0.6757  0.3339
  204MOL0    Cl26840   5.810   5.007   2.465  0.2551 -0.0184 -0.1353
  204MOL0     C26841   4.867   5.167   3.073  0.3285 -0.3207  0.4456
  204MOL0     C26842   4.758   5.081   3.109  0.3217 -0.8328 -0.4166
  204MOL0     O26843   4.619   4.774   2.894  0.9321 -0.6416  0.8865
  204MOL0     C26844   4.399   4.629   2.943  0.4369  0.3526  0.2346
  204MOL0     C26845   4.284   4.561   2.973 -0.3872  0.2488 -0.2043
  204MOL0     N26846   3.692   4.293   2.589  0.6708 -0.5132 -0.0002
  204MOL0     N26847   3.577   4.306   2.535  0.7050 -1.4001  0.4339
  204MOL0     C26848   4.316   4.515   1.865  0.1066  0.1231 -0.3569
  204MOL0     C26849   4.441   4.467   1.908 -0.2437  0.0998  0.0306
  204MOL0     C26850   4.790   4.318   2.136  0.8195  0.0977 -0.2086
  204MOL0     C26851   4.868   4.384   2.232  0.2107  0.6602 -0.5134
  204MOL0     C26852   4.995   4.329   2.259 -0.8623  0.3135 -0.2060
  204MOL0     C26853   5.049   4.214   2.194 -0.1302  0.6345  0.1567
  204MOL0     O26854   5.175   4.166   2.212 -0.2007 -0.4526 -0.3847
  204MOL0     C26855   5.249   4.198   2.328  0.1823 -0.3043 -0.1598
  204MOL0     C26856   5.387   4.151   2.302 -0.5068 -0.9870 -0.4260
  204MOL0     C26857   5.397   3.993   2.317  0.2098  0.7662  0.0263
  204MOL0     C26858   5.537   3.950   2.271 -0.1017  0.5871 -0.4334
  204MOL0     C26859   5.544   3.980   2.124 -0.0160 -0.2825 -0.5936
  204MOL0     C26860   5.562   4.017   2.016  0.2640 -1.2315 -0.4804
  204MOL0     C26861   4.975   4.161   2.086  0.2641 -0.0162 -0.6450
  204MOL0     C26862   4.846   4.214   2.054  0.3229 -0.0865 -0.2824
  204MOL0     H26863   4.349   4.151   2.011 -0.5400 -0.2077  0.9485
  204MOL0     H26864   4.139   4.229   1.916 -0.9533  0.3601 -4.2304
  204MOL0     H26865   4.075   4.630   1.765 -0.3245  1.7760  0.5801
  204MOL0     H26866   4.078   4.649   1.945 -0.9223 -1.2858  1.3918
  204MOL0     H26867   3.851   4.559   1.780 -0.2921  2.1264 -0.6133
  204MOL0     H26868   3.864   4.716   1.849  0.7226 -0.0568  0.2507
  204MOL0     H26869   3.858   4.628   2.086  0.4333 -1.1969  0.3165
  204MOL0     H26870   3.844   4.466   2.029  2.5306  0.2142  0.0385
  204MOL0     H26871   3.650   4.680   1.934 -0.7214 -0.0240 -0.4841
  204MOL0     H26872   3.642   4.508   1.914  2.7271  1.0074 -1.2878
  204MOL0     H26873   3.487   4.600   2.081  0.0267  0.3947  0.3349
  204MOL0     H26874   3.635   4.651   2.177  2.8981 -1.6210  0.3324
  204MOL0     H26875   3.685   4.410   2.236  0.3118 -0.6486  0.4310
  204MOL0     H26876   3.606   4.357   2.099  3.7958  1.1328 -0.6909
  204MOL0     H26877   3.382   4.420   2.189 -1.8672 -3.1586  0.5423
  204MOL0     H26878   3.460   4.295   2.274  1.2603  0.3629 -2.4212
  204MOL0     H26879   3.355   4.500   2.437  0.6466 -1.3950  2.9142
  204MOL0     H26880   3.490   4.590   2.369 -0.0610 -1.7017 -0.5017
  204MOL0     H26881   3.683   4.616   2.540  3.1334 -0.6407 -0.2381
  204MOL0     H26882   3.909   4.537   2.638  0.2009  0.1454 -1.8537
  204MOL0     H26883   3.944   4.368   2.607  1.1237  1.7629 -0.0427
  204MOL0     H26884   3.853   4.306   2.822  3.1808 -1.1873 -0.3588
  204MOL0     H26885   3.794   4.473   2.847  1.0536  0.8507  0.3399
  204MOL0     H26886   4.077   4.361   2.828 -0.2742  0.5281 -0.6738
  204MOL0     H26887   4.036   4.537   2.822 -5.0170  0.1347 -1.5798
  204MOL0     H26888   4.078   4.355   3.048  2.3111  2.2994  1.1936
  204MOL0     H26889   3.924   4.412   3.075 -0.2474  4.2458  1.7789
  204MOL0     H26890   4.111   4.792   3.150 -0.6909  0.3615 -1.6250
  204MOL0     H26891   4.338   4.892   3.147  4.3036 -1.7197  2.5255
  204MOL0     H26892   4.663   5.012   2.795  0.8360  1.2730 -1.9619
  204MOL0     H26893   4.870   5.115   2.734  0.7233  0.8143  0.0361
  204MOL0     H26894   5.066   5.315   2.746  1.1295  1.0497  0.7450
  204MOL0     H26895   5.092   5.146   2.754  1.0432 -0.7661  1.4385
  204MOL0     H26896   5.281   5.169   2.895 -0.8157 -0.2516  1.3633
  204MOL0     H26897   5.265   5.336   2.903  1.4512  0.1161 -0.6741
  204MOL0     H26898   5.303   5.349   2.652 -0.8217  0.6472  1.7517
  204MOL0     H26899   5.357   5.181   2.665 -1.8455 -0.6653  1.7252
  204MOL0     H26900   5.478   5.440   2.766  1.7665 -0.5315 -0.4927
  204MOL0     H26901   5.486   5.305   2.873  1.2175  3.0711 -0.2569
  204MOL0     H26902   5.622   5.179   2.742  4.1263  0.5907  1.1307
  204MOL0     H26903   5.685   5.342   2.724  1.9166 -2.5181  1.3638
  204MOL0     H26904   5.508   5.329   2.501  0.3389  1.9483  1.2963
  204MOL0     H26905   5.552   5.158   2.526  0.4533 -0.6248 -1.6206
  204MOL0     H26906   5.696   5.278   2.359  1.6575  0.2614 -0.4955
  204MOL0     H26907   5.752   5.385   2.478 -1.7669  0.5073 -0.5591
  204MOL0     H26908   5.858   5.195   2.606 -1.2554  0.6474  0.5608
  204MOL0     H26909   5.917   5.234   2.451 -1.4547  1.2664 -0.3035
  204MOL0     H26910   4.912   5.229   3.150 -3.7583  2.9527  0.5564
  204MOL0     H26911   4.721   5.068   3.210  1.4771 -2.0645 -0.1192
  204MOL0     H26912   4.469   4.583   2.875 -0.6064  0.9392 -1.2800
  204MOL0     H26913   4.265   4.463   2.930 -0.1096 -0.1079  0.4772
  204MOL0     H26914   4.315   4.611   1.815 -0.4615 -0.1854 -0.9416
  204MOL0     H26915   4.522   4.536   1.887  1.4963 -2.3321 -1.8180
  204MOL0     H26916   4.842   4.474   2.286 -1.0609  1.4746 -2.4123
  204MOL0     H26917   5.051   4.382   2.335 -1.5078 -0.3934  0.7827
  204MOL0     H26918   5.201   4.148   2.413 -0.4212  0.3004 -0.1469
  204MOL0     H26919   5.256   4.306   2.344  3.7259 -0.5988  1.1748
  204MOL0     H26920   5.412   4.185   2.201 -1.8190  0.3156 -0.3528
  204MOL0     H26921   5.457   4.198   2.372  0.1147 -0.5212 -1.3401
  204MOL0     H26922   5.315   3.937   2.273 -1.1867 -1.0756  4.4335
  204MOL0     H26923   5.394   3.969   2.424 -0.1558 -1.6665 -0.4708
  204MOL0     H26924   5.609   4.016   2.320 -1.5180  1.2942  0.7957
  204MOL0     H26925   5.557   3.845   2.291  3.4411  0.5650 -3.0542
  204MOL0     H26926   5.580   4.054   1.916  2.3266 -0.0478  0.2647
  204MOL0     H26927   5.022   4.087   2.022  1.0802  1.4938 -1.8519
  204MOL0     H26928   4.803   4.164   1.968 -0.3861 -0.2569  0.1567
  205MOL0     O26929  11.133   3.459   4.271  0.1231 -0.4401  0.5309
  205MOL0     C26930  11.024   3.445   4.210  0.6528  0.6427  0.7031
  205MOL0     O26931  10.955   3.329   4.196  1.4074  0.5276 -0.0590
  205MOL0     C26932  10.997   3.225   4.272  0.2856 -1.3945  1.1145
  205MOL0     C26933  10.979   3.233   4.413 -0.0286 -0.5106  0.4627
  205MOL0     C26934  11.022   3.122   4.490  0.3675 -0.4964  0.1528
  205MOL0     C26935  11.086   3.009   4.439  0.1689 -1.0595  0.1867
  205MOL0     O26936  11.138   2.915   4.530  0.3179 -0.3812 -0.2195
  205MOL0     C26937  11.231   2.821   4.488  0.0224  0.5952 -0.9539
  205MOL0     C26938  11.269   2.727   4.605  0.5960 -0.1094 -0.2077
  205MOL0     C26939  11.374   2.630   4.558  0.0005  0.0766 -0.2962
  205MOL0     C26940  11.425   2.547   4.675 -0.4407 -0.4234 -0.2369
  205MOL0     C26941  11.535   2.457   4.627 -0.4607  0.0198 -0.0168
  205MOL0     C26942  11.670   2.536   4.602  0.0971 -0.6762 -0.6132
  205MOL0     C26943  11.792   2.455   4.558 -0.1146  1.0323 -0.2716
  205MOL0     C26944  11.896   2.431   4.667 -0.0889  0.1971  0.6973
  205MOL0     N26945  11.846   2.337   4.763  0.0422 -0.6497 -0.2551
  205MOL0     C26946  11.818   2.209   4.736  0.0539  0.4716  1.2501
  205MOL0     C26947  11.724   2.179   4.836 -0.2688 -0.1165 -0.5865
  205MOL0     C26948  11.646   2.056   4.875  0.3172  0.2120 -0.2495
  205MOL0     C26949  11.499   2.076   4.839  0.0768  0.3062 -0.4678
  205MOL0     C26950  11.455   2.075   4.684  0.3729 -0.0891 -0.5832
  205MOL0     C26951  11.314   2.139   4.673  0.6156 -0.2734  0.5479
  205MOL0     O26952  11.266   2.173   4.547 -0.0869 -0.2899  0.7589
  205MOL0     C26953  11.159   2.255   4.544 -0.2662 -1.1194 -0.6753
  205MOL0     C26954  11.073   2.278   4.649 -0.5149 -0.0838  0.0899
  205MOL0     C26955  10.959   2.359   4.648 -0.2543  0.3503 -0.2943
  205MOL0     C26956  10.918   2.402   4.519 -0.4909 -0.4937  0.1027
  205MOL0     C26957  10.779   2.451   4.489  0.4723  0.1410 -0.2146
  205MOL0     O26958  10.697   2.405   4.585 -0.2441  0.6774 -0.0155
  205MOL0     C26959  10.571   2.447   4.609 -0.4466  0.0351  1.2322
  205MOL0     C26960  10.508   2.561   4.540  0.1302  0.4613 -0.1488
  205MOL0     C26961  10.372   2.582   4.562  0.8404  0.4604  0.1249
  205MOL0     C26962  10.296   2.497   4.645 -0.1620 -1.6448  0.6465
  205MOL0     O26963  10.165   2.545   4.671 -0.3677 -0.3581 -0.0364
  205MOL0     C26964  10.066   2.449   4.671  0.1401  0.3330  0.3535
  205MOL0     C26965   9.932   2.517   4.692  0.7163 -0.2909 -0.7225
  205MOL0     C26966   9.808   2.421   4.692 -0.0719 -0.2293  0.6538
  205MOL0     C26967   9.747   2.416   4.552  0.4577  0.4370  0.1580
  205MOL0     C26968   9.608   2.353   4.560  0.3485  0.5662 -0.2997
  205MOL0     C26969   9.530   2.378   4.431  0.4465 -0.3809  0.9168
  205MOL0     C26970   9.371   2.343   4.469  0.5818  0.0126 -0.0050
  205MOL0     C26971   9.310   2.250   4.371  0.5435 -0.3407 -0.2775
  205MOL0    Cl26972   9.305   2.335   4.213  0.1596 -0.3137 -0.2342
  205MOL0     C26973  10.356   2.389   4.710 -0.0639  0.0191 -0.7433
  205MOL0     C26974  10.491   2.357   4.685 -0.0995  0.2014  0.8046
  205MOL0     O26975  10.747   2.504   4.384 -0.0193  0.1092 -0.7056
  205MOL0     C26976  11.008   2.384   4.409 -0.0456 -1.3484 -0.0974
  205MOL0     C26977  11.128   2.319   4.422 -0.0839  0.5707 -0.2046
  205MOL0     N26978  11.715   2.287   4.928  0.2758  0.1230  0.2373
  205MOL0     N26979  11.787   2.384   4.881 -1.3744 -0.0034 -0.6090
  205MOL0     C26980  11.094   3.003   4.295 -0.3011 -0.5605 -0.6355
  205MOL0     C26981  11.051   3.105   4.208 -0.5495 -0.3543 -0.2220
  205MOL0     C26982  10.943   3.562   4.154 -0.3464  0.5779 -0.0156
  205MOL0     C26983  10.807   3.552   4.110 -0.7144  0.1994 -0.4356
  205MOL0     C26984  10.740   3.661   4.064 -0.1143  1.1953  0.3844
  205MOL0     C26985  10.801   3.787   4.049 -0.5898  0.6715 -0.2197
  205MOL0     O26986  10.740   3.900   3.989 -0.5759  0.0191 -0.3437
  205MOL0     C26987  10.608   3.900   3.944  0.0701 -0.2209 -0.7295
  205MOL0     C26988  10.502   3.905   4.060  0.7577 -0.1873  0.3397
  205MOL0     C26989  10.532   4.036   4.129 -0.3031  0.2062 -0.1020
  205MOL0     C26990  10.429   4.054   4.245  0.1508  0.0100 -1.0473
  205MOL0     C26991  10.401   4.199   4.254  0.6240  1.0794 -0.1191
  205MOL0     C26992  10.395   4.313   4.264 -0.0882 -0.1871  0.7234
  205MOL0     C26993  10.931   3.804   4.093 -0.1667  0.4453 -0.2543
  205MOL0     C26994  11.000   3.692   4.157 -0.1985  0.0633 -0.6342
  205MOL0     H26995  10.934   3.319   4.461 -1.2272 -0.8636 -0.0095
  205MOL0     H26996  11.002   3.126   4.597 -1.9917  2.6364 -0.2473
  205MOL0     H26997  11.328   2.865   4.464  1.1649 -0.0924  1.9648
  205MOL0     H26998  11.201   2.749   4.411  0.1344 -1.0692  0.4862
  205MOL0     H26999  11.188   2.660   4.637  1.8859 -1.1910  0.8844
  205MOL0     H27000  11.294   2.791   4.689 -2.5018  1.4446 -0.3299
  205MOL0     H27001  11.454   2.686   4.507 -0.0796  0.7843  0.3411
  205MOL0     H27002  11.341   2.569   4.474 -0.4261 -0.6445  0.3843
  205MOL0     H27003  11.455   2.608   4.761 -1.7211 -1.1122  0.7516
  205MOL0     H27004  11.342   2.485   4.711 -1.8615  0.6444 -1.5540
  205MOL0     H27005  11.513   2.404   4.534  1.7695 -2.6874  0.8794
  205MOL0     H27006  11.549   2.371   4.693 -0.6572 -1.3282 -1.6528
  205MOL0     H27007  11.699   2.597   4.688  3.5322  2.7555 -3.7904
  205MOL0     H27008  11.658   2.616   4.527 -0.7515 -1.0512 -0.8877
  205MOL0     H27009  11.755   2.357   4.527  3.0813  0.0562 -1.4551
  205MOL0     H27010  11.839   2.501   4.471 -2.9498  3.9500 -0.4429
  205MOL0     H27011  11.926   2.525   4.716  1.8562 -0.8885  1.7235
  205MOL0     H27012  11.991   2.386   4.637  1.0915  0.4033  3.7437
  205MOL0     H27013  11.855   2.156   4.649 -1.0428  0.4066  0.8119
  205MOL0     H27014  11.648   2.034   4.982 -2.4199 -1.2535 -0.4211
  205MOL0     H27015  11.684   1.978   4.808  0.1553  1.3322 -1.7064
  205MOL0     H27016  11.473   2.170   4.889  1.4328  0.6837 -0.4544
  205MOL0     H27017  11.440   1.997   4.888 -0.0315 -0.1664 -1.3330
  205MOL0     H27018  11.526   2.133   4.624  0.5241  0.9994  0.6091
  205MOL0     H27019  11.444   1.972   4.647 -1.9104 -0.3814  0.6877
  205MOL0     H27020  11.302   2.222   4.743  1.1736  1.1517 -0.9927
  205MOL0     H27021  11.240   2.070   4.716 -0.6321  0.1698 -0.7957
  205MOL0     H27022  11.086   2.231   4.746 -0.6833  3.2110  1.8546
  205MOL0     H27023  10.901   2.368   4.739  1.0736 -0.3970  0.6571
  205MOL0     H27024  10.565   2.631   4.479  0.8970 -0.9667 -1.1157
  205MOL0     H27025  10.327   2.673   4.525 -0.1711 -1.2561 -3.2269
  205MOL0     H27026  10.085   2.373   4.748 -3.1051  1.1129  2.1283
  205MOL0     H27027  10.065   2.397   4.576 -2.9587 -1.3650  1.1670
  205MOL0     H27028   9.915   2.594   4.616  0.0023 -0.0296 -0.3074
  205MOL0     H27029   9.938   2.565   4.790 -1.6465  1.6774 -1.4305
  205MOL0     H27030   9.724   2.478   4.733  0.3307  2.2206 -1.6681
  205MOL0     H27031   9.831   2.325   4.739 -2.5484 -0.8034  0.8312
  205MOL0     H27032   9.740   2.520   4.520  2.6970  0.0052 -2.0052
  205MOL0     H27033   9.812   2.357   4.487  0.5861  0.7065  0.0392
  205MOL0     H27034   9.553   2.378   4.651  2.2182  2.0306  0.4869
  205MOL0     H27035   9.615   2.243   4.562  1.4875  0.6007  2.6468
  205MOL0     H27036   9.567   2.316   4.349  1.0638 -1.9877  2.3497
  205MOL0     H27037   9.543   2.484   4.408 -2.2967  0.7042  3.6077
  205MOL0     H27038   9.361   2.291   4.565 -0.0682 -0.1867 -0.1749
  205MOL0     H27039   9.311   2.433   4.486  0.4526  0.0441 -0.6117
  205MOL0     H27040   9.208   2.227   4.403  1.0163 -0.4629  1.2278
  205MOL0     H27041   9.357   2.152   4.364  1.6147  0.1340  0.0716
  205MOL0     H27042  10.308   2.325   4.784 -1.5771  2.9148  0.9764
  205MOL0     H27043  10.546   2.275   4.730  0.3425  0.6476  1.0733
  205MOL0     H27044  10.976   2.413   4.309  0.8007 -1.5135 -0.4216
  205MOL0     H27045  11.197   2.313   4.338  0.1620  5.0854 -0.5646
  205MOL0     H27046  11.140   2.919   4.243  2.7220  0.9843 -0.6780
  205MOL0     H27047  11.075   3.089   4.104  0.7350 -1.0561  0.1646
  205MOL0     H27048  10.739   3.468   4.122 -2.0438  1.3147  0.0247
  205MOL0     H27049  10.633   3.652   4.045  0.5726 -2.5750 -3.1543
  205MOL0     H27050  10.593   3.818   3.874  0.3429 -0.5728 -0.3799
  205MOL0     H27051  10.597   3.986   3.877  2.0988 -0.4351 -1.4100
  205MOL0     H27052  10.402   3.898   4.016  0.7986  2.2600 -0.2841
  205MOL0     H27053  10.499   3.824   4.134  0.8014  0.8858  1.5695
  205MOL0     H27054  10.520   4.123   4.064  0.5179  0.5689  0.2182
  205MOL0     H27055  10.628   4.050   4.179  1.1923 -1.6055 -2.2548
  205MOL0     H27056  10.339   4.002   4.210  1.8720 -3.4999 -0.6858
  205MOL0     H27057  10.451   4.017   4.345 -0.7979  0.9455 -0.4695
  205MOL0     H27058  10.374   4.416   4.281 -3.4054 -0.7561  0.7689
  205MOL0     H27059  10.972   3.904   4.088  1.0822  0.0413  1.2994
  205MOL0     H27060  11.100   3.709   4.195  0.8055  0.5231 -3.2666
  206MOL0     O27061  10.369  11.064   0.019  0.5261  0.2346  0.6991
  206MOL0     C27062  10.395  10.964  -0.049 -0.5506 -0.0446  0.3414
  206MOL0     O27063  10.480  10.862  -0.024  0.1650 -0.0725  0.4147
  206MOL0     C27064  10.557  10.864   0.089  0.1025 -0.4536  0.8914
  206MOL0     C27065  10.639  10.754   0.093 -0.5986  0.1918  0.6930
  206MOL0     C27066  10.726  10.727   0.201  0.0036  0.1209  0.7029
  206MOL0     C27067  10.725  10.810   0.308  0.2009  1.0377 -0.8714
  206MOL0     O27068  10.796  10.777   0.423 -0.4645  0.8323 -0.0513
  206MOL0     C27069  10.764  10.822   0.557 -0.0788  0.3850  0.2323
  206MOL0     C27070  10.636  10.767   0.613  0.5750  0.1627  0.3663
  206MOL0     C27071  10.632  10.612   0.624 -0.8047  1.1698 -1.0976
  206MOL0     C27072  10.496  10.561   0.646  0.9534  0.6259 -0.3498
  206MOL0     C27073  10.486  10.412   0.626  0.0990  0.4157 -0.1430
  206MOL0     C27074  10.567  10.310   0.706 -0.4706 -0.2642 -0.3448
  206MOL0     C27075  10.517  10.319   0.852 -0.2143 -0.2732  0.8034
  206MOL0     C27076  10.560  10.209   0.954 -0.3658 -0.5215 -0.0710
  206MOL0     N27077  10.457  10.186   1.054 -0.8474  0.0375 -1.1694
  206MOL0     C27078  10.434  10.279   1.152  0.8697 -0.6133  0.2791
  206MOL0     C27079  10.333  10.226   1.228 -0.9140  0.3279  0.0303
  206MOL0     C27080  10.262  10.290   1.337  0.3564  0.4322 -0.4990
  206MOL0     C27081  10.283  10.212   1.476 -0.4977  0.1188  0.0340
  206MOL0     C27082  10.203  10.285   1.592  0.2149  0.3115  0.8244
  206MOL0     C27083  10.254  10.225   1.728 -0.2201  0.3084 -0.1431
  206MOL0     O27084  10.187  10.308   1.833  0.3388 -0.1451  0.4234
  206MOL0     C27085  10.223  10.294   1.963  0.1832 -0.1085  0.3415
  206MOL0     C27086  10.302  10.188   2.014  0.4937  0.3862  0.1461
  206MOL0     C27087  10.345  10.183   2.145  0.2862 -0.2721  0.7619
  206MOL0     C27088  10.316  10.297   2.228  0.2277  0.5947  0.8354
  206MOL0     C27089  10.372  10.298   2.364 -1.3860 -0.1909  1.3239
  206MOL0     O27090  10.382  10.427   2.422  0.2194 -0.3124  0.2756
  206MOL0     C27091  10.410  10.443   2.549  0.9174  0.9161 -0.7775
  206MOL0     C27092  10.353  10.354   2.645  0.3373  1.3374 -0.7868
  206MOL0     C27093  10.413  10.340   2.768  0.4760 -0.2865 -0.0244
  206MOL0     C27094  10.516  10.415   2.815  1.5560 -0.4523  0.4848
  206MOL0     O27095  10.570  10.388   2.938 -0.3160 -0.0965  0.6345
  206MOL0     C27096  10.651  10.507   2.987 -0.3893  0.6886 -0.1296
  206MOL0     C27097  10.695  10.492   3.133  0.0273  0.3347  0.1447
  206MOL0     C27098  10.584  10.545   3.226  0.0193 -0.4995 -0.6932
  206MOL0     C27099  10.623  10.548   3.371 -0.2852 -0.0126 -0.8668
  206MOL0     C27100  10.652  10.408   3.429 -0.5553 -1.0069  0.1287
  206MOL0     C27101  10.626  10.415   3.576  1.0823 -0.1009 -0.3980
  206MOL0     C27102  10.746  10.475   3.649  0.4031  0.5698  0.2758
  206MOL0     C27103  10.753  10.456   3.801  0.0271  0.2460  1.0414
  206MOL0    Cl27104  10.814  10.290   3.853  0.2640 -0.9141  0.4374
  206MOL0     C27105  10.563  10.512   2.721 -0.9159 -0.5485 -0.7086
  206MOL0     C27106  10.508  10.526   2.588  0.0167 -0.7901  0.2237
  206MOL0     O27107  10.402  10.192   2.422 -0.7526 -0.4256  0.6860
  206MOL0     C27108  10.233  10.402   2.174 -0.1861  0.2613 -0.6312
  206MOL0     C27109  10.173  10.390   2.052 -0.1175 -0.6133 -0.6632
  206MOL0     N27110  10.301  10.102   1.168 -0.7319 -1.1374 -0.8022
  206MOL0     N27111  10.372  10.084   1.061 -0.4393  0.5711  0.9617
  206MOL0     C27112  10.642  10.926   0.302  0.6034  0.0469  0.0013
  206MOL0     C27113  10.562  10.959   0.196  0.3656  0.0481 -0.2111
  206MOL0     C27114  10.323  10.953  -0.177  0.2141 -0.5343 -0.0205
  206MOL0     C27115  10.374  10.880  -0.284 -0.0817 -0.3573 -0.0417
  206MOL0     C27116  10.295  10.855  -0.401  0.1544  0.5675 -0.7543
  206MOL0     C27117  10.168  10.914  -0.416  0.1284 -0.1312 -0.3648
  206MOL0     O27118  10.082  10.907  -0.525 -0.0510 -0.5888 -0.0439
  206MOL0     C27119  10.106  10.817  -0.631  0.3161  0.7301 -0.0767
  206MOL0     C27120  10.047  10.887  -0.751 -0.5493 -0.1244  0.0654
  206MOL0     C27121  10.096  11.027  -0.787 -0.1485  0.4253  0.4179
  206MOL0     C27122  10.247  11.065  -0.789 -0.1424 -0.1859 -0.1711
  206MOL0     C27123  10.313  10.986  -0.893 -0.0449 -0.7756 -0.9212
  206MOL0     C27124  10.342  10.922  -0.992  0.4222 -0.7269 -0.6437
  206MOL0     C27125  10.125  10.995  -0.306 -0.0780 -0.6800  0.0159
  206MOL0     C27126  10.194  11.012  -0.184 -0.1916 -0.2440 -0.0305
  206MOL0     H27127  10.612  10.681   0.017 -3.0151 -1.0962  2.6677
  206MOL0     H27128  10.778  10.632   0.209 -0.7025 -0.5312 -1.5599
  206MOL0     H27129  10.755  10.931   0.560 -0.3932  0.4323 -1.4838
  206MOL0     H27130  10.848  10.799   0.623 -0.7786 -2.3737  0.2691
  206MOL0     H27131  10.554  10.796   0.547  3.8530  3.2876 -2.7667
  206MOL0     H27132  10.615  10.816   0.709  0.7618 -0.2796  0.6369
  206MOL0     H27133  10.709  10.586   0.698 -1.0084  2.1370 -0.5341
  206MOL0     H27134  10.667  10.573   0.528 -0.8520 -2.0452  0.0517
  206MOL0     H27135  10.462  10.597   0.743 -2.6435 -3.4491  0.1908
  206MOL0     H27136  10.432  10.603   0.568  1.3172 -0.7363 -1.4245
  206MOL0     H27137  10.498  10.394   0.519 -1.0262  0.6057 -0.3164
  206MOL0     H27138  10.381  10.387   0.646  0.1231  0.3956 -0.0420
  206MOL0     H27139  10.672  10.340   0.705 -0.2062 -1.0726 -2.7292
  206MOL0     H27140  10.548  10.211   0.664 -1.7305  0.7994 -2.4120
  206MOL0     H27141  10.520  10.422   0.889 -2.3522 -1.0485  3.4563
  206MOL0     H27142  10.409  10.303   0.844 -0.1744 -1.0956  1.6926
  206MOL0     H27143  10.647  10.234   1.016 -0.7728 -0.1046  0.3367
  206MOL0     H27144  10.571  10.115   0.900  2.1354  0.0520 -0.7236
  206MOL0     H27145  10.480  10.376   1.166  0.5163 -0.4209  0.0964
  206MOL0     H27146  10.156  10.290   1.310  0.5134 -2.9439 -1.5997
  206MOL0     H27147  10.301  10.389   1.360  4.7572 -1.0819 -0.6476
  206MOL0     H27148  10.387  10.235   1.500 -0.9706  1.7240  0.6735
  206MOL0     H27149  10.248  10.109   1.464 -0.8210  0.3699 -1.4067
  206MOL0     H27150  10.225  10.392   1.598  2.3523 -0.0901  1.0779
  206MOL0     H27151  10.096  10.263   1.586  0.6823 -1.8420 -0.8449
  206MOL0     H27152  10.363  10.232   1.742 -0.5186 -0.1332  3.0650
  206MOL0     H27153  10.219  10.122   1.739 -2.6977  1.2563  1.5300
  206MOL0     H27154  10.340  10.103   1.958  2.2110  2.1905 -1.5770
  206MOL0     H27155  10.418  10.106   2.166 -0.0437 -1.6219 -2.4546
  206MOL0     H27156  10.266  10.289   2.637 -0.6919  2.4907  0.4456
  206MOL0     H27157  10.369  10.255   2.821 -2.8599 -0.3957 -2.6227
  206MOL0     H27158  10.593  10.599   2.977  0.0573  1.3033  2.3343
  206MOL0     H27159  10.744  10.523   2.932  0.0110  0.1770  0.3886
  206MOL0     H27160  10.791  10.543   3.145  0.1134 -0.2675  2.3865
  206MOL0     H27161  10.716  10.385   3.144 -1.4990 -0.4125 -2.8842
  206MOL0     H27162  10.489  10.491   3.216 -0.7174  0.5227  0.5147
  206MOL0     H27163  10.563  10.652   3.213 -1.1985 -0.6113  0.2051
  206MOL0     H27164  10.721  10.596   3.371 -1.3371  2.2694  0.1465
  206MOL0     H27165  10.545  10.606   3.420  1.7319  2.9880 -0.9963
  206MOL0     H27166  10.754  10.377   3.406 -0.7605 -0.7225 -1.2863
  206MOL0     H27167  10.586  10.331   3.388 -3.5258  2.1998 -1.7027
  206MOL0     H27168  10.606  10.315   3.616  1.6289 -0.6542 -1.4703
  206MOL0     H27169  10.531  10.467   3.590  0.8776 -0.1840 -1.4183
  206MOL0     H27170  10.837  10.441   3.598 -0.2105 -0.7079 -0.0097
  206MOL0     H27171  10.726  10.581   3.633 -3.6115  0.0205  0.5316
  206MOL0     H27172  10.651  10.464   3.838 -1.4886 -0.8350 -2.4286
  206MOL0     H27173  10.830  10.524   3.841  0.1625 -0.7264  2.4870
  206MOL0     H27174  10.645  10.580   2.742 -0.2146 -0.4700 -3.3469
  206MOL0     H27175  10.546  10.597   2.515  1.7821  1.0106  2.7157
  206MOL0     H27176  10.209  10.489   2.235 -2.1680 -1.0578  0.5792
  206MOL0     H27177  10.103  10.465   2.017  1.1939 -0.0968 -2.3206
  206MOL0     H27178  10.637  10.992   0.387 -1.1164  1.1414 -0.8811
  206MOL0     H27179  10.513  11.056   0.200  0.0108 -0.1709  0.9594
  206MOL0     H27180  10.466  10.824  -0.269 -0.8092 -1.4940  0.3105
  206MOL0     H27181  10.337  10.780  -0.467 -0.2425 -0.3406  0.0041
  206MOL0     H27182  10.040  10.735  -0.602 -1.0222  0.0038 -4.3487
  206MOL0     H27183  10.210  10.788  -0.644 -0.1897 -0.6240 -1.4425
  206MOL0     H27184  10.053  10.821  -0.838 -1.8463 -1.3742  0.8870
  206MOL0     H27185   9.940  10.905  -0.734 -1.1216  0.7998 -3.5478
  206MOL0     H27186  10.062  11.101  -0.715 -1.1520  0.1870  0.2078
  206MOL0     H27187  10.051  11.065  -0.879  1.1066  2.2572  0.5014
  206MOL0     H27188  10.266  11.169  -0.820  0.4223 -0.4994 -0.9011
  206MOL0     H27189  10.290  11.063  -0.688 -1.0694  0.5485  0.2628
  206MOL0     H27190  10.337  10.868  -1.084 -3.0819  0.0384 -1.0265
  206MOL0     H27191  10.032  11.044  -0.330 -0.3701 -1.1999  0.0607
  206MOL0     H27192  10.155  11.077  -0.106  2.7876 -0.7697  2.0813
  207MOL0     O27193   8.706  10.906   2.538  0.6697 -0.5542  0.0320
  207MOL0     C27194   8.699  10.877   2.654 -0.3060 -0.2705 -0.1215
  207MOL0     O27195   8.612  10.787   2.714  0.1559  0.5488 -0.2855
  207MOL0     C27196   8.538  10.700   2.634  0.4444  0.6088 -0.2885
  207MOL0     C27197   8.500  10.574   2.684 -0.6263 -0.2606 -0.2967
  207MOL0     C27198   8.417  10.484   2.616 -0.5576 -0.7604  0.4063
  207MOL0     C27199   8.368  10.502   2.487  0.7136  0.5181  1.0862
  207MOL0     O27200   8.299  10.399   2.424 -0.5531 -0.7311  0.3298
  207MOL0     C27201   8.190  10.438   2.344  0.5404  0.0450 -0.3531
  207MOL0     C27202   8.237  10.417   2.201 -0.4285  0.9087  0.3504
  207MOL0     C27203   8.129  10.447   2.093 -0.2432  0.3941  0.7477
  207MOL0     C27204   8.191  10.451   1.953  1.0427  0.5200  0.2084
  207MOL0     C27205   8.205  10.309   1.898  0.8987  0.2234  0.7628
  207MOL0     C27206   8.062  10.260   1.866 -0.0510  0.3009  0.5417
  207MOL0     C27207   8.055  10.128   1.785 -0.2836 -1.3293 -1.1145
  207MOL0     C27208   7.924  10.087   1.730  0.6400  0.0158 -0.2500
  207MOL0     N27209   7.803  10.100   1.828  0.8421 -0.5728  0.3562
  207MOL0     C27210   7.701  10.184   1.815  0.1608 -0.4325 -0.4154
  207MOL0     C27211   7.599  10.132   1.903 -0.1507 -0.6930 -0.1783
  207MOL0     C27212   7.472  10.197   1.945 -0.2605 -0.3707  1.0163
  207MOL0     C27213   7.354  10.104   1.923  1.2708  0.0662  0.0672
  207MOL0     C27214   7.231  10.179   1.891 -0.1964 -0.1987  0.4817
  207MOL0     C27215   7.243  10.253   1.752  0.2950  0.0516  0.9017
  207MOL0     O27216   7.299  10.172   1.649 -0.9595  0.3180 -0.6929
  207MOL0     C27217   7.211  10.106   1.565 -0.0064 -0.4024 -0.8352
  207MOL0     C27218   7.259  10.048   1.444  0.4803 -0.5956 -0.2514
  207MOL0     C27219   7.178   9.984   1.358  0.1285  0.4164  0.9037
  207MOL0     C27220   7.037   9.974   1.381  0.3093  0.0962  0.0203
  207MOL0     C27221   6.943   9.908   1.285  0.0249  0.3157  0.3609
  207MOL0     O27222   7.000   9.867   1.162  0.9250  0.1735 -0.4325
  207MOL0     C27223   6.931   9.813   1.054  1.0437 -0.3334  0.5112
  207MOL0     C27224   6.789   9.786   1.044 -0.1521  0.3803  0.5485
  207MOL0     C27225   6.722   9.730   0.935  0.1886 -0.6916 -0.7620
  207MOL0     C27226   6.806   9.694   0.826  0.4945 -0.3283  0.1773
  207MOL0     O27227   6.741   9.643   0.716 -0.0208 -0.5394 -0.2119
  207MOL0     C27228   6.800   9.586   0.600 -0.0465 -0.3202 -0.1726
  207MOL0     C27229   6.710   9.480   0.555  0.5611  0.2189  0.3606
  207MOL0     C27230   6.588   9.525   0.481 -0.3767 -0.1084  0.7833
  207MOL0     C27231   6.515   9.402   0.428 -0.0565 -0.4928 -0.3586
  207MOL0     C27232   6.371   9.428   0.394  0.1686  0.7704 -0.0652
  207MOL0     C27233   6.332   9.553   0.312 -0.4146 -0.6717  0.2148
  207MOL0     C27234   6.187   9.551   0.242 -1.1401 -0.0731 -0.1493
  207MOL0     C27235   6.153   9.679   0.164  0.3100  0.1079  0.7014
  207MOL0    Cl27236   5.969   9.693   0.136  0.0338  0.5620  0.3507
  207MOL0     C27237   6.945   9.710   0.840 -0.0535  0.3616  0.9034
  207MOL0     C27238   7.002   9.779   0.943  0.3486  0.6169 -0.5292
  207MOL0     O27239   6.822   9.891   1.319 -0.2952 -0.0126 -0.3381
  207MOL0     C27240   6.986  10.020   1.505 -0.6134  0.8171 -0.3326
  207MOL0     C27241   7.073  10.088   1.596  0.1222  0.3186 -0.8731
  207MOL0     N27242   7.650  10.007   1.946  0.6581 -0.3447  0.7671
  207MOL0     N27243   7.774   9.996   1.907 -0.6600 -0.3783  0.5734
  207MOL0     C27244   8.413  10.625   2.427 -0.3351  0.7135 -0.1453
  207MOL0     C27245   8.491  10.724   2.497 -0.4132  1.0962  0.0898
  207MOL0     C27246   8.784  10.941   2.746  0.0822  0.2129 -0.4017
  207MOL0     C27247   8.900  11.015   2.693 -0.7654  0.3850  0.0765
  207MOL0     C27248   8.975  11.089   2.777 -0.7995  0.2314  0.5674
  207MOL0     C27249   8.946  11.087   2.916 -0.7675 -0.1515  0.6030
  207MOL0     O27250   9.013  11.182   2.995  0.2737 -0.3927 -0.5606
  207MOL0     C27251   8.994  11.186   3.138  0.4841  0.1383  0.8950
  207MOL0     C27252   9.107  11.265   3.200 -0.5328 -1.1022 -0.7561
  207MOL0     C27253   9.240  11.188   3.224  0.1565 -0.3425 -0.6453
  207MOL0     C27254   9.360  11.236   3.148 -0.2363 -0.1436  0.1761
  207MOL0     C27255   9.406  11.371   3.189 -0.1223  0.1353 -0.4394
  207MOL0     C27256   9.442  11.484   3.230  0.3623 -0.2292 -0.7237
  207MOL0     C27257   8.836  11.007   2.973  1.0508  0.0991 -0.0068
  207MOL0     C27258   8.758  10.943   2.886  0.3502  0.1823 -0.6437
  207MOL0     H27259   8.532  10.554   2.786  0.3752  1.0945 -0.3243
  207MOL0     H27260   8.400  10.396   2.677  0.1931 -0.7536  0.6296
  207MOL0     H27261   8.157  10.540   2.366 -0.1049 -0.1562 -0.3524
  207MOL0     H27262   8.107  10.370   2.364  0.2888  0.6124  0.6388
  207MOL0     H27263   8.282  10.318   2.189 -0.4051  0.9920 -0.2872
  207MOL0     H27264   8.320  10.488   2.191 -2.0612  2.9753  0.8411
  207MOL0     H27265   8.091  10.549   2.108 -1.5851  0.4703 -2.4070
  207MOL0     H27266   8.043  10.385   2.118 -1.2997  2.0801  1.5120
  207MOL0     H27267   8.123  10.508   1.889 -1.5688 -1.7147  0.8240
  207MOL0     H27268   8.287  10.503   1.960 -0.0966  2.8494 -0.2139
  207MOL0     H27269   8.252  10.247   1.975  1.0755  1.2061  1.4711
  207MOL0     H27270   8.265  10.325   1.808  0.7322  3.7530  1.1187
  207MOL0     H27271   8.014  10.340   1.809  2.7752  1.3565 -0.5799
  207MOL0     H27272   7.999  10.245   1.954 -1.6852 -1.3050 -0.8266
  207MOL0     H27273   8.135  10.136   1.711  1.3012 -0.1862  0.6442
  207MOL0     H27274   8.080  10.053   1.861  0.0687  1.5093  1.7814
  207MOL0     H27275   7.933   9.979   1.718 -0.3558 -0.1876  0.6311
  207MOL0     H27276   7.893  10.127   1.633  0.2524 -0.7282 -0.4380
  207MOL0     H27277   7.696  10.280   1.766 -1.1037 -1.7041 -2.9677
  207MOL0     H27278   7.460  10.300   1.910  1.3025 -0.5258 -0.0869
  207MOL0     H27279   7.468  10.213   2.053  0.0691 -2.4103  1.3666
  207MOL0     H27280   7.339  10.035   2.006  0.1794 -0.4228 -0.5206
  207MOL0     H27281   7.368  10.035   1.840  1.7844 -0.3149  0.4587
  207MOL0     H27282   7.144  10.112   1.882 -2.1736  1.9117  2.3719
  207MOL0     H27283   7.218  10.243   1.979 -0.5596  0.6738 -0.1936
  207MOL0     H27284   7.308  10.341   1.763 -1.1514  1.1356  1.0053
  207MOL0     H27285   7.148  10.299   1.723 -0.4580 -0.7432  2.0544
  207MOL0     H27286   7.367  10.051   1.437  1.7693 -4.4349  7.2405
  207MOL0     H27287   7.229   9.925   1.283  1.3416  0.7122  1.4703
  207MOL0     H27288   6.724   9.819   1.124 -1.0353  1.5338 -0.6118
  207MOL0     H27289   6.614   9.724   0.948  0.3819 -0.7673  1.1642
  207MOL0     H27290   6.895   9.538   0.625  1.0024  2.1839  0.9712
  207MOL0     H27291   6.824   9.660   0.523  0.7771  1.7689  1.9754
  207MOL0     H27292   6.673   9.407   0.628  2.2877 -3.5679 -2.2244
  207MOL0     H27293   6.768   9.423   0.482  2.7722  0.0607  2.1070
  207MOL0     H27294   6.611   9.588   0.395  0.9707 -3.5566 -1.5879
  207MOL0     H27295   6.527   9.590   0.545  0.6502  2.0044 -0.2980
  207MOL0     H27296   6.576   9.357   0.349  2.7526  3.0733 -0.4741
  207MOL0     H27297   6.511   9.332   0.512  0.8517  1.8341  1.7496
  207MOL0     H27298   6.317   9.444   0.488  2.6280 -0.1396  1.6060
  207MOL0     H27299   6.329   9.342   0.342 -0.5935 -0.3512  2.2465
  207MOL0     H27300   6.411   9.569   0.238 -1.0581  1.2966 -0.0960
  207MOL0     H27301   6.344   9.642   0.374 -3.3357  0.9936 -1.3773
  207MOL0     H27302   6.192   9.464   0.177  4.7147 -1.7882  1.9141
  207MOL0     H27303   6.106   9.544   0.316 -3.1032  2.1489 -1.9496
  207MOL0     H27304   6.198   9.677   0.064  2.5132  1.1576  1.6085
  207MOL0     H27305   6.192   9.763   0.222 -1.9095  1.5709  0.1948
  207MOL0     H27306   7.026   9.675   0.776 -0.0462  0.1932  1.0044
  207MOL0     H27307   7.109   9.798   0.932  0.8050 -1.7405 -0.8999
  207MOL0     H27308   6.886   9.995   1.537 -1.2565  1.9324 -1.3836
  207MOL0     H27309   7.022  10.113   1.688 -1.2346  0.7692 -1.7219
  207MOL0     H27310   8.388  10.652   2.325  2.1947 -0.3833 -1.1438
  207MOL0     H27311   8.519  10.802   2.428  0.7803  0.5176 -0.0981
  207MOL0     H27312   8.937  11.018   2.591 -2.6962  2.2046 -0.6488
  207MOL0     H27313   9.051  11.156   2.738 -0.7599 -0.1231  0.0262
  207MOL0     H27314   8.977  11.089   3.186 -2.9041 -0.8942 -1.9382
  207MOL0     H27315   8.891  11.224   3.147 -0.8179 -3.0043  0.7031
  207MOL0     H27316   9.124  11.359   3.147  0.7715 -0.6991  0.3322
  207MOL0     H27317   9.077  11.289   3.303  0.6417 -0.6630 -0.4970
  207MOL0     H27318   9.219  11.086   3.189 -0.4224  0.0438 -1.4573
  207MOL0     H27319   9.256  11.177   3.332 -2.3185 -0.3479 -0.1988
  207MOL0     H27320   9.443  11.165   3.153  0.7922  1.0684  1.1031
  207MOL0     H27321   9.329  11.242   3.043  2.1709  0.1463 -0.5912
  207MOL0     H27322   9.455  11.587   3.257 -2.4977  0.5085 -1.7698
  207MOL0     H27323   8.818  11.016   3.080 -1.2391 -0.0137 -0.3510
  207MOL0     H27324   8.677  10.892   2.938  0.8862 -0.5074 -0.4677
  208MOL0     O27325   5.655   5.059   0.955 -0.2957  0.2231 -1.0420
  208MOL0     C27326   5.617   5.016   1.066  1.0161  0.4020 -0.1242
  208MOL0     O27327   5.496   5.057   1.122 -0.0139  0.5673  0.5324
  208MOL0     C27328   5.438   5.181   1.103  0.4254  0.8483 -0.2540
  208MOL0     C27329   5.501   5.293   1.045  1.0262  0.6386  0.2163
  208MOL0     C27330   5.426   5.414   1.027  0.4701  0.1553 -0.3519
  208MOL0     C27331   5.290   5.422   1.063 -0.2624  0.5519 -0.1904
  208MOL0     O27332   5.204   5.515   1.016 -0.7029  0.4411 -0.1051
  208MOL0     C27333   5.145   5.587   1.122  0.1594  0.4721 -0.0695
  208MOL0     C27334   5.040   5.681   1.060 -0.4083  0.3166 -0.3921
  208MOL0     C27335   5.103   5.796   0.977  0.5301 -0.8319  0.2961
  208MOL0     C27336   5.004   5.902   0.927  0.6252 -0.6974  1.2261
  208MOL0     C27337   4.974   6.017   1.029 -0.1416 -0.7684 -0.7778
  208MOL0     C27338   5.072   6.139   1.016  0.1089 -0.4192 -0.3251
  208MOL0     C27339   5.034   6.254   1.113  0.3470 -0.1758  0.2298
  208MOL0     C27340   5.135   6.372   1.098  1.6812 -0.2637  0.6509
  208MOL0     N27341   5.071   6.485   1.030  0.1656 -0.2096  0.1541
  208MOL0     C27342   4.992   6.576   1.097 -0.4917 -0.7972 -0.2186
  208MOL0     C27343   4.991   6.691   1.020 -0.0668  0.3493  0.2961
  208MOL0     C27344   4.907   6.816   1.060  0.0560  0.3370  0.9521
  208MOL0     C27345   4.942   6.930   0.961  0.4150  0.6387  0.0286
  208MOL0     C27346   4.836   7.051   0.971 -0.0401  0.4311 -0.9126
  208MOL0     C27347   4.895   7.165   0.890  0.3594 -0.0923 -0.6166
  208MOL0     O27348   4.995   7.238   0.960  0.1493 -0.1367  0.8219
  208MOL0     C27349   5.079   7.332   0.897 -0.2014  0.8768 -1.0365
  208MOL0     C27350   5.084   7.354   0.764  0.0269  0.2131  0.7821
  208MOL0     C27351   5.182   7.440   0.711 -0.6473 -0.8806  0.3454
  208MOL0     C27352   5.262   7.531   0.790 -0.2581 -0.0478  0.0483
  208MOL0     C27353   5.363   7.616   0.728  0.9797  0.4444  0.4607
  208MOL0     O27354   5.379   7.613   0.591  0.1571  0.1402  0.0234
  208MOL0     C27355   5.499   7.663   0.538  1.0067  0.3760  0.4474
  208MOL0     C27356   5.593   7.576   0.494  0.4006  0.0796  0.4291
  208MOL0     C27357   5.710   7.610   0.433 -0.5934  0.4569 -0.0150
  208MOL0     C27358   5.744   7.749   0.436  0.0463  0.3969 -0.0723
  208MOL0     O27359   5.858   7.809   0.377 -0.4482  0.4719  0.1484
  208MOL0     C27360   5.948   7.725   0.312 -0.0696  0.8853  0.4560
  208MOL0     C27361   6.067   7.817   0.284 -0.9031 -0.0611  0.1647
  208MOL0     C27362   6.145   7.871   0.408 -0.1133  0.1530 -0.2524
  208MOL0     C27363   6.295   7.901   0.388 -0.0952  0.1820  0.4831
  208MOL0     C27364   6.374   7.877   0.514 -0.3573 -0.2412  0.0287
  208MOL0     C27365   6.525   7.842   0.496 -0.0103 -0.5581  0.0667
  208MOL0     C27366   6.589   7.812   0.636  0.3424 -0.2559  0.0218
  208MOL0     C27367   6.749   7.809   0.633 -0.6539  0.6588  0.4830
  208MOL0    Cl27368   6.807   7.980   0.577 -0.0916 -0.2755 -0.1457
  208MOL0     C27369   5.649   7.834   0.492 -0.8239  0.6312  0.0751
  208MOL0     C27370   5.524   7.792   0.534  0.3319 -0.1782  0.7172
  208MOL0     O27371   5.428   7.669   0.808 -0.6826 -0.3506 -0.6589
  208MOL0     C27372   5.247   7.509   0.928  0.0276 -0.0176  0.2852
  208MOL0     C27373   5.162   7.407   0.978  1.0024 -0.4472  0.2754
  208MOL0     N27374   5.074   6.671   0.903  1.1845 -0.2070  0.8403
  208MOL0     N27375   5.115   6.551   0.911  0.4327  0.6076 -0.7431
  208MOL0     C27376   5.234   5.309   1.126  0.2597 -0.4167  0.8692
  208MOL0     C27377   5.308   5.190   1.140  0.3896 -0.7017  0.4205
  208MOL0     C27378   5.696   4.915   1.140 -0.3478 -0.7956  0.2913
  208MOL0     C27379   5.833   4.886   1.105  0.0392  1.0313  0.3330
  208MOL0     C27380   5.901   4.787   1.175  0.7906 -0.5835  0.2017
  208MOL0     C27381   5.833   4.711   1.270  0.2411  0.1778 -0.0171
  208MOL0     O27382   5.911   4.604   1.322 -0.0553 -0.7843  0.2837
  208MOL0     C27383   5.849   4.481   1.359 -0.1582  0.7315 -1.1545
  208MOL0     C27384   5.781   4.420   1.242  0.2048 -0.3549  0.6484
  208MOL0     C27385   5.691   4.308   1.283 -0.6419  0.9185  0.6834
  208MOL0     C27386   5.624   4.252   1.149  0.2166 -0.0743 -0.4740
  208MOL0     C27387   5.565   4.119   1.178  0.3282 -0.3498 -0.2583
  208MOL0     C27388   5.511   4.017   1.204 -0.1036  0.0317  0.4820
  208MOL0     C27389   5.698   4.737   1.310 -0.7915 -0.9851 -0.2864
  208MOL0     C27390   5.632   4.847   1.244 -0.5257  1.1267 -0.3317
  208MOL0     H27391   5.605   5.285   1.014  1.4552 -2.7394  2.0209
  208MOL0     H27392   5.479   5.497   0.982 -1.1623  0.6027 -1.5185
  208MOL0     H27393   5.223   5.630   1.186  2.1484 -0.5635 -1.6914
  208MOL0     H27394   5.089   5.517   1.186  1.8361 -1.8935 -1.0603
  208MOL0     H27395   5.008   5.734   1.150  1.2237  1.8073 -0.6330
  208MOL0     H27396   4.961   5.622   1.012 -0.4498 -1.5142  1.7757
  208MOL0     H27397   5.154   5.748   0.892  1.1009  0.1623  0.0559
  208MOL0     H27398   5.174   5.847   1.042  0.9618 -0.3129 -0.5595
  208MOL0     H27399   5.040   5.939   0.831 -0.0638 -1.4370  0.6693
  208MOL0     H27400   4.906   5.855   0.913  0.8254 -0.8138  0.1573
  208MOL0     H27401   4.980   5.975   1.130  1.4037 -0.1269 -0.5816
  208MOL0     H27402   4.868   6.034   1.005  0.3164  0.9523 -1.7581
  208MOL0     H27403   5.056   6.170   0.912 -3.3825 -1.3395 -0.1648
  208MOL0     H27404   5.175   6.103   1.027 -0.4586 -1.9281  0.3983
  208MOL0     H27405   4.932   6.280   1.082  1.5969  1.4628 -2.9965
  208MOL0     H27406   5.034   6.220   1.217  0.0011 -0.7771  0.0371
  208MOL0     H27407   5.223   6.329   1.049  0.3116 -1.9349 -0.4796
  208MOL0     H27408   5.167   6.407   1.197 -2.1161  1.0699  1.5989
  208MOL0     H27409   4.970   6.577   1.204  0.6314 -0.5362  0.0302
  208MOL0     H27410   4.945   6.843   1.159  3.3732 -1.6065  0.3778
  208MOL0     H27411   4.801   6.793   1.052  0.3931 -0.6271 -1.3962
  208MOL0     H27412   4.940   6.883   0.862 -0.9450  0.5532  0.0785
  208MOL0     H27413   5.038   6.972   0.993  0.6573  1.4360 -1.6438
  208MOL0     H27414   4.744   7.020   0.921 -0.3171  0.8546 -0.6703
  208MOL0     H27415   4.820   7.063   1.078 -0.6340 -3.2704 -0.4712
  208MOL0     H27416   4.815   7.237   0.867  0.6757  0.4932  0.0419
  208MOL0     H27417   4.930   7.128   0.794  0.4485 -1.6106 -0.0212
  208MOL0     H27418   5.016   7.315   0.689 -0.2030 -1.2264  1.7083
  208MOL0     H27419   5.174   7.449   0.603  2.0748 -1.6181  0.0033
  208MOL0     H27420   5.580   7.473   0.527 -0.3864 -0.0103 -0.1338
  208MOL0     H27421   5.781   7.537   0.395 -1.7296 -0.7247  0.0629
  208MOL0     H27422   5.900   7.698   0.218 -0.0353  2.0798  0.0780
  208MOL0     H27423   5.977   7.638   0.371  2.8804  0.9927 -0.7042
  208MOL0     H27424   6.053   7.902   0.217 -0.6134 -0.4201 -0.3611
  208MOL0     H27425   6.140   7.748   0.239 -1.2528 -1.0818  1.1161
  208MOL0     H27426   6.124   7.795   0.484 -0.3909 -0.8011 -1.2484
  208MOL0     H27427   6.102   7.961   0.453  1.0955 -0.1715  1.6555
  208MOL0     H27428   6.327   7.823   0.319  0.4731 -0.2573  1.2284
  208MOL0     H27429   6.312   7.996   0.336 -3.6868  0.9122  0.3797
  208MOL0     H27430   6.325   7.797   0.569 -0.3689 -1.5232 -1.7414
  208MOL0     H27431   6.358   7.972   0.565  0.0214  0.6603 -1.4634
  208MOL0     H27432   6.565   7.934   0.454 -0.8288  1.8871  4.1136
  208MOL0     H27433   6.552   7.752   0.439  1.5022 -2.0693  2.9763
  208MOL0     H27434   6.567   7.897   0.702 -0.1116  0.8337 -1.4674
  208MOL0     H27435   6.547   7.720   0.677  2.1336 -0.3108  1.9225
  208MOL0     H27436   6.783   7.731   0.564 -0.5938  0.4699  0.7270
  208MOL0     H27437   6.788   7.787   0.732  1.2797 -2.9012 -0.8868
  208MOL0     H27438   5.674   7.939   0.503 -0.8261  1.0387 -2.9818
  208MOL0     H27439   5.450   7.866   0.563  0.3890  0.7267 -1.2858
  208MOL0     H27440   5.312   7.560   0.998  0.1690 -0.6689  0.6360
  208MOL0     H27441   5.160   7.387   1.084  1.3603  2.2831  0.8712
  208MOL0     H27442   5.127   5.318   1.141  0.4643  1.1730  1.4720
  208MOL0     H27443   5.266   5.097   1.176 -1.2253  0.3778  1.4710
  208MOL0     H27444   5.875   4.932   1.016  0.1173  0.8248  0.2615
  208MOL0     H27445   6.006   4.775   1.152  1.8156  0.5395  3.6821
  208MOL0     H27446   5.778   4.510   1.437 -0.2653 -2.2580 -0.0505
  208MOL0     H27447   5.910   4.400   1.398 -0.9682  0.2017 -0.9706
  208MOL0     H27448   5.721   4.494   1.189  2.8226 -0.1220 -2.2157
  208MOL0     H27449   5.852   4.382   1.169  4.1104  0.0310  3.8754
  208MOL0     H27450   5.611   4.344   1.348  0.9283  2.1361  2.0085
  208MOL0     H27451   5.749   4.230   1.333 -2.2114 -1.2700 -0.6793
  208MOL0     H27452   5.553   4.326   1.113  0.4978 -0.0117 -0.9036
  208MOL0     H27453   5.705   4.243   1.076  0.3629 -4.6717 -0.0798
  208MOL0     H27454   5.464   3.925   1.232 -2.4069  0.5001 -1.4531
  208MOL0     H27455   5.668   4.681   1.398 -0.2593  0.3918  0.8114
  208MOL0     H27456   5.533   4.874   1.281 -0.4310  0.6647  0.2757
  209MOL0     O27457   8.744   7.573   7.165  0.1923  0.0106 -0.7750
  209MOL0     C27458   8.841   7.556   7.087  0.2877 -0.7423  0.0697
  209MOL0     O27459   8.837   7.597   6.948 -1.3047  0.5343 -0.7698
  209MOL0     C27460   8.722   7.677   6.916 -0.0556  1.8736  0.0490
  209MOL0     C27461   8.609   7.601   6.875 -0.3271  0.8160  0.0453
  209MOL0     C27462   8.499   7.670   6.818 -0.0837  0.1312  0.2010
  209MOL0     C27463   8.506   7.815   6.793 -0.6046  1.1755  0.4845
  209MOL0     O27464   8.408   7.888   6.730  0.1113 -0.3966  0.0061
  209MOL0     C27465   8.276   7.831   6.695 -0.5409  0.7945 -0.2684
  209MOL0     C27466   8.213   7.955   6.628 -0.3158  0.1712  0.2960
  209MOL0     C27467   8.085   7.917   6.553  1.1244 -0.0510 -0.6486
  209MOL0     C27468   8.109   7.854   6.413  0.0874 -0.4738 -0.5788
  209MOL0     C27469   7.977   7.843   6.340  0.0247  0.4626  0.8497
  209MOL0     C27470   7.891   7.731   6.411  0.7874 -0.6029 -0.1848
  209MOL0     C27471   7.772   7.676   6.329  0.0579 -0.4407  0.0173
  209MOL0     C27472   7.649   7.762   6.318  0.5318  0.3686  0.3669
  209MOL0     N27473   7.650   7.832   6.190 -0.0880 -0.1727 -0.4373
  209MOL0     C27474   7.633   7.777   6.062 -0.0476 -0.0306  0.6850
  209MOL0     C27475   7.669   7.866   5.969 -0.3258  0.5238 -0.8855
  209MOL0     C27476   7.658   7.848   5.817  0.7032  0.3250 -0.2734
  209MOL0     C27477   7.522   7.913   5.770 -0.8436 -1.3538  0.3054
  209MOL0     C27478   7.466   8.032   5.859  0.3372  0.6432  0.7179
  209MOL0     C27479   7.345   8.093   5.789  0.4800 -0.4854 -0.9596
  209MOL0     O27480   7.248   7.996   5.754 -0.1223  0.0745  0.0097
  209MOL0     C27481   7.139   7.964   5.845  0.2441 -0.1328  0.2111
  209MOL0     C27482   7.148   7.971   5.983  0.1227  0.0748  1.1700
  209MOL0     C27483   7.038   7.928   6.060  0.0041 -0.5119 -0.2580
  209MOL0     C27484   6.925   7.867   5.995  0.9878  0.7552 -0.8385
  209MOL0     C27485   6.805   7.824   6.076 -0.5544 -0.4326 -0.4720
  209MOL0     O27486   6.699   7.768   6.014  0.4210 -0.6273 -0.8779
  209MOL0     C27487   6.611   7.684   6.084  0.5020 -0.2433  0.6168
  209MOL0     C27488   6.540   7.722   6.204 -0.2238 -0.4175 -0.5786
  209MOL0     C27489   6.471   7.616   6.278  0.0996 -0.4413 -0.2771
  209MOL0     C27490   6.470   7.481   6.239 -0.5297  0.2515 -0.0372
  209MOL0     O27491   6.399   7.383   6.304 -0.3196  0.2563 -0.1448
  209MOL0     C27492   6.457   7.265   6.349 -0.9516  0.0747  0.3494
  209MOL0     C27493   6.341   7.163   6.364 -0.6953  0.8992 -0.8864
  209MOL0     C27494   6.405   7.035   6.408  0.4089  0.5975 -0.1568
  209MOL0     C27495   6.429   7.021   6.560  0.3698 -0.8501 -0.3184
  209MOL0     C27496   6.499   6.884   6.600 -0.4590 -0.2658  0.3316
  209MOL0     C27497   6.504   6.856   6.744  1.2646 -0.3433 -0.8073
  209MOL0     C27498   6.576   6.740   6.771  0.2899  0.0386 -1.9040
  209MOL0     C27499   6.668   6.752   6.902 -0.0434  0.7964 -0.3775
  209MOL0    Cl27500   6.574   6.797   7.055 -0.2810 -0.2731  0.3040
  209MOL0     C27501   6.525   7.452   6.110 -0.2498  0.3253 -0.6046
  209MOL0     C27502   6.597   7.548   6.036  0.6479  0.4241 -0.3326
  209MOL0     O27503   6.819   7.829   6.202  0.6488  0.2114 -0.0121
  209MOL0     C27504   6.918   7.859   5.853 -0.3672  0.4845 -0.6630
  209MOL0     C27505   7.026   7.906   5.779 -0.3823 -0.1630 -0.4063
  209MOL0     N27506   7.707   7.971   6.045  0.2965  0.5718 -0.2138
  209MOL0     N27507   7.698   7.961   6.170 -0.0949  0.3668 -0.0862
  209MOL0     C27508   8.622   7.888   6.822  0.2835  0.3579  0.0261
  209MOL0     C27509   8.727   7.816   6.886 -0.4296 -0.0735 -0.1493
  209MOL0     C27510   8.969   7.523   7.138  0.3750  0.4306  0.8814
  209MOL0     C27511   9.094   7.580   7.095 -0.4992  0.0757 -0.2373
  209MOL0     C27512   9.212   7.527   7.141  0.3702 -0.1469 -0.0564
  209MOL0     C27513   9.219   7.424   7.232 -0.1865  0.7277 -0.0219
  209MOL0     O27514   9.339   7.396   7.283 -0.7304  0.2451 -0.1394
  209MOL0     C27515   9.367   7.281   7.368 -1.0011 -0.7171  0.0724
  209MOL0     C27516   9.507   7.290   7.425  1.1349  0.6203  0.7795
  209MOL0     C27517   9.553   7.176   7.523 -0.4045  0.3205  0.3868
  209MOL0     C27518   9.547   7.233   7.664 -0.8631  0.0420  0.3669
  209MOL0     C27519   9.612   7.147   7.758  0.5007  0.5745  0.8179
  209MOL0     C27520   9.668   7.058   7.817 -1.2366  0.3797 -0.2560
  209MOL0     C27521   9.099   7.368   7.278 -0.1111 -0.3573  0.1087
  209MOL0     C27522   8.978   7.426   7.237 -0.1554  0.4091  0.9276
  209MOL0     H27523   8.613   7.493   6.884  1.7775  0.9369  0.8560
  209MOL0     H27524   8.411   7.608   6.806 -0.2338  0.0400  1.5929
  209MOL0     H27525   8.226   7.789   6.783 -0.2531 -0.1190 -0.5207
  209MOL0     H27526   8.284   7.755   6.617 -0.4839  1.6168 -1.0779
  209MOL0     H27527   8.295   7.983   6.562  1.3072 -1.4880  1.4828
  209MOL0     H27528   8.190   8.032   6.702 -0.4144  2.2572 -1.7921
  209MOL0     H27529   8.027   8.007   6.530  2.3415 -0.1479 -5.1233
  209MOL0     H27530   8.025   7.854   6.619 -1.5964  1.9311 -1.0396
  209MOL0     H27531   8.173   7.916   6.350  1.4956 -1.7562 -0.4606
  209MOL0     H27532   8.162   7.758   6.417 -0.6740 -1.0933 -3.3112
  209MOL0     H27533   7.987   7.821   6.233 -2.6318  1.5572  0.2947
  209MOL0     H27534   7.932   7.942   6.336  1.4056  1.0956 -1.7719
  209MOL0     H27535   7.852   7.762   6.508 -1.7007  0.5991 -1.4699
  209MOL0     H27536   7.964   7.649   6.419  3.0380  1.3915  0.8143
  209MOL0     H27537   7.803   7.643   6.229 -0.5480  1.1299 -0.7150
  209MOL0     H27538   7.732   7.585   6.374  0.9334 -1.2253 -0.7278
  209MOL0     H27539   7.639   7.827   6.405  0.2619  0.1875  0.4752
  209MOL0     H27540   7.562   7.695   6.318 -0.8715  2.0736 -2.0455
  209MOL0     H27541   7.605   7.676   6.032 -1.6071  0.4791  0.3207
  209MOL0     H27542   7.648   7.741   5.799  0.7093 -0.2391  2.5292
  209MOL0     H27543   7.743   7.891   5.764  0.1113 -0.2388 -1.7151
  209MOL0     H27544   7.445   7.837   5.753  0.0596 -2.3718  0.6445
  209MOL0     H27545   7.552   7.959   5.675 -0.3101 -2.7394 -0.2290
  209MOL0     H27546   7.435   7.979   5.949 -3.8054 -1.6320 -1.7796
  209MOL0     H27547   7.542   8.110   5.875  1.5838 -0.6887  1.5311
  209MOL0     H27548   7.380   8.127   5.691  2.0572 -2.2406 -1.0635
  209MOL0     H27549   7.310   8.182   5.842  1.8206  1.2715 -2.8762
  209MOL0     H27550   7.241   8.006   6.026 -0.4828 -0.1636  2.7566
  209MOL0     H27551   7.035   7.939   6.168 -1.1857  1.0429 -0.4255
  209MOL0     H27552   6.547   7.823   6.244 -1.1671 -0.5223 -0.1361
  209MOL0     H27553   6.427   7.627   6.376  2.7089 -1.1728  1.0453
  209MOL0     H27554   6.507   7.277   6.446  0.2853  2.0868 -0.4738
  209MOL0     H27555   6.520   7.225   6.270 -2.0655 -0.5044 -0.2621
  209MOL0     H27556   6.286   7.146   6.271 -2.2319  0.1695  0.1225
  209MOL0     H27557   6.263   7.195   6.434 -2.8181  1.8874 -3.5431
  209MOL0     H27558   6.499   7.017   6.354 -0.3722 -0.5047 -1.2087
  209MOL0     H27559   6.340   6.950   6.385  1.0902 -1.0770  3.3456
  209MOL0     H27560   6.493   7.104   6.591  0.1882 -1.3851  1.6554
  209MOL0     H27561   6.330   7.021   6.607  1.3534 -0.3774  1.9373
  209MOL0     H27562   6.600   6.900   6.563  0.4903  0.8243  3.1185
  209MOL0     H27563   6.434   6.810   6.553 -4.0004  1.9051  1.4023
  209MOL0     H27564   6.401   6.840   6.776  2.0714 -2.5297  1.0533
  209MOL0     H27565   6.551   6.941   6.794  3.2467 -1.4280 -0.7121
  209MOL0     H27566   6.504   6.665   6.806  0.7774  0.3940 -0.0675
  209MOL0     H27567   6.644   6.701   6.695 -0.2732 -0.2787 -2.2553
  209MOL0     H27568   6.749   6.822   6.883  0.2872  0.8784  1.2110
  209MOL0     H27569   6.709   6.653   6.924 -1.0680  0.6386  1.0039
  209MOL0     H27570   6.510   7.350   6.079  2.3129  0.1850 -1.6743
  209MOL0     H27571   6.640   7.518   5.941  0.9580  1.4338 -0.5288
  209MOL0     H27572   6.837   7.812   5.799  0.4534 -2.2888  0.3717
  209MOL0     H27573   7.018   7.898   5.671 -1.3995 -1.0264 -0.2828
  209MOL0     H27574   8.627   7.992   6.790 -0.7408  0.6856  0.8691
  209MOL0     H27575   8.811   7.874   6.923 -0.8005  0.6177 -0.3915
  209MOL0     H27576   9.097   7.660   7.022  0.1011 -1.1328 -1.5904
  209MOL0     H27577   9.306   7.575   7.112  0.4332 -0.8877 -1.1463
  209MOL0     H27578   9.346   7.187   7.316 -3.9687 -1.2797  2.0136
  209MOL0     H27579   9.304   7.281   7.458 -0.6997 -1.3492  0.2926
  209MOL0     H27580   9.583   7.295   7.347 -0.8699  0.9347 -1.2633
  209MOL0     H27581   9.515   7.389   7.470 -2.6606 -0.1357  3.7400
  209MOL0     H27582   9.655   7.151   7.491 -2.2593 -2.9846 -3.9082
  209MOL0     H27583   9.486   7.092   7.503 -0.4199  0.5201 -0.4468
  209MOL0     H27584   9.595   7.332   7.667 -1.6329  0.5796 -2.1655
  209MOL0     H27585   9.445   7.252   7.698 -0.3991  2.3218  0.6548
  209MOL0     H27586   9.719   6.976   7.865 -0.0475  0.7736 -0.7932
  209MOL0     H27587   9.081   7.289   7.351 -0.6773 -0.7966 -0.4974
  209MOL0     H27588   8.883   7.381   7.266 -0.5213  1.1404  0.8738
  210MOL0     O27589   2.785   1.212   2.160 -0.1719 -0.1894 -0.6498
  210MOL0     C27590   2.761   1.234   2.280 -0.4386  0.3383  0.0615
  210MOL0     O27591   2.630   1.252   2.341 -0.6180  0.0342 -0.0429
  210MOL0     C27592   2.539   1.207   2.252 -0.0480 -1.0446  0.3849
  210MOL0     C27593   2.489   1.077   2.271  0.5293 -0.5131 -0.2221
  210MOL0     C27594   2.406   1.015   2.177 -0.4201  1.0707  0.1563
  210MOL0     C27595   2.359   1.086   2.064 -0.1516  0.0220  0.4534
  210MOL0     O27596   2.272   1.035   1.977  0.7828  0.3228  0.0062
  210MOL0     C27597   2.297   0.899   1.936 -0.0124 -0.5685  0.3598
  210MOL0     C27598   2.207   0.873   1.819  1.0922  0.4580 -0.1550
  210MOL0     C27599   2.069   0.908   1.859  1.0174 -0.0387  0.0560
  210MOL0     C27600   1.964   0.853   1.746  0.4783 -0.8464  0.2354
  210MOL0     C27601   1.836   0.950   1.775  1.5563  1.1324 -0.2661
  210MOL0     C27602   1.854   1.087   1.715  0.2632 -1.0950  0.1432
  210MOL0     C27603   1.723   1.164   1.732 -0.5536 -0.7214 -0.1758
  210MOL0     C27604   1.759   1.319   1.731  0.8967  0.3135 -0.0746
  210MOL0     N27605   1.771   1.370   1.597 -1.0207 -0.4725 -0.1228
  210MOL0     C27606   1.681   1.384   1.501  0.7604  1.0439 -0.6099
  210MOL0     C27607   1.750   1.430   1.390 -0.7180  1.1026 -0.1295
  210MOL0     C27608   1.719   1.437   1.252 -0.8392 -0.1263 -0.0390
  210MOL0     C27609   1.798   1.332   1.158  0.2517 -0.4938  0.3919
  210MOL0     C27610   1.740   1.347   1.019 -0.0083  1.1813 -0.8662
  210MOL0     C27611   1.813   1.260   0.919 -0.5569  0.7688  0.4249
  210MOL0     O27612   1.767   1.300   0.792  0.3149 -0.5862  0.7281
  210MOL0     C27613   1.674   1.219   0.732  0.7096 -0.1811  0.1508
  210MOL0     C27614   1.671   1.226   0.592  0.0465 -0.4573  0.4246
  210MOL0     C27615   1.582   1.172   0.503 -0.7742 -0.0810 -0.2212
  210MOL0     C27616   1.473   1.101   0.557  0.1692  0.2420 -1.1161
  210MOL0     C27617   1.365   1.049   0.474  0.0220 -0.4808  0.7698
  210MOL0     O27618   1.376   1.071   0.340 -0.3335 -0.4799 -0.3978
  210MOL0     C27619   1.290   1.010   0.250  0.1300 -0.6307  0.7761
  210MOL0     C27620   1.329   0.993   0.111 -0.1575  0.0468  0.1855
  210MOL0     C27621   1.235   0.949   0.012 -0.1531  0.3059 -0.2801
  210MOL0     C27622   1.103   0.927   0.053 -0.5201 -0.3507 -1.7429
  210MOL0     O27623   0.997   0.905  -0.041 -1.3295  0.2177 -0.7633
  210MOL0     C27624   1.037   0.874  -0.174 -0.0812  0.5091  0.4754
  210MOL0     C27625   0.927   0.860  -0.278  0.3571 -0.3313 -1.0417
  210MOL0     C27626   0.841   0.987  -0.278 -0.7195 -0.0550  0.4540
  210MOL0     C27627   0.801   1.018  -0.420  0.7772  0.3073  0.4027
  210MOL0     C27628   0.704   1.138  -0.428 -0.7697  0.1487 -0.6647
  210MOL0     C27629   0.636   1.160  -0.563 -0.4741  0.2376 -1.7040
  210MOL0     C27630   0.542   1.281  -0.557  0.0414  0.9028  0.6946
  210MOL0     C27631   0.457   1.281  -0.690  0.4846 -0.1643  0.1817
  210MOL0    Cl27632   0.535   1.276  -0.854  0.1338  0.0154  0.3110
  210MOL0     C27633   1.057   0.945   0.179 -0.5493  0.5882  0.4150
  210MOL0     C27634   1.149   0.988   0.290  0.5296 -0.9406 -0.3526
  210MOL0     O27635   1.285   0.974   0.528  0.5127  0.8192  0.1935
  210MOL0     C27636   1.466   1.087   0.701 -0.3850  1.0009  0.8038
  210MOL0     C27637   1.571   1.143   0.782  0.5542  0.6911 -0.0459
  210MOL0     N27638   1.876   1.457   1.435 -0.4735  0.3214 -0.1909
  210MOL0     N27639   1.891   1.421   1.558  0.2146 -0.1709  0.2699
  210MOL0     C27640   2.402   1.218   2.039 -0.2528 -0.6212 -0.5708
  210MOL0     C27641   2.496   1.278   2.139 -0.1692  0.1850  0.7564
  210MOL0     C27642   2.880   1.273   2.351  0.2850  0.4853  0.2373
  210MOL0     C27643   3.005   1.286   2.289 -0.0663  0.5652  0.4787
  210MOL0     C27644   3.119   1.332   2.349 -0.1988 -0.2968 -0.3941
  210MOL0     C27645   3.104   1.374   2.487 -0.4050 -0.3846 -0.3901
  210MOL0     O27646   3.227   1.420   2.534  0.5996 -0.5785  0.2600
  210MOL0     C27647   3.210   1.519   2.643  0.3097  0.2896  0.7001
  210MOL0     C27648   3.328   1.580   2.705  0.8242 -0.5824  0.3776
  210MOL0     C27649   3.291   1.684   2.818 -0.6779  0.6582 -0.9260
  210MOL0     C27650   3.425   1.719   2.885  0.7053  0.4208 -0.0563
  210MOL0     C27651   3.483   1.606   2.960  0.3603 -0.1773  0.8282
  210MOL0     C27652   3.543   1.513   3.018 -0.1375 -0.8582  0.3881
  210MOL0     C27653   2.980   1.353   2.556  0.7790 -0.5192  0.0101
  210MOL0     C27654   2.868   1.299   2.491  0.0124  0.1334  0.6748
  210MOL0     H27655   2.509   1.036   2.370 -0.5990  1.5785  0.9362
  210MOL0     H27656   2.364   0.917   2.195  1.4208  0.0110 -1.0398
  210MOL0     H27657   2.283   0.834   2.023  1.4057  2.8480  3.4368
  210MOL0     H27658   2.400   0.879   1.906  1.6659  2.2569  3.4866
  210MOL0     H27659   2.201   0.769   1.786 -2.2139  0.8632 -1.1935
  210MOL0     H27660   2.233   0.932   1.731 -0.3240 -0.2956 -1.1225
  210MOL0     H27661   2.059   1.016   1.873  3.6757  0.3408 -0.3646
  210MOL0     H27662   2.048   0.844   1.945 -1.0189 -0.8240 -0.9591
  210MOL0     H27663   2.009   0.867   1.647  0.2199 -0.1736  0.2020
  210MOL0     H27664   1.930   0.751   1.765  2.1772 -1.6558 -0.8909
  210MOL0     H27665   1.819   0.967   1.882  3.5131 -2.2815  0.7733
  210MOL0     H27666   1.751   0.904   1.724  0.8813  1.7563  0.2945
  210MOL0     H27667   1.874   1.077   1.608 -3.0015 -0.4717 -0.6350
  210MOL0     H27668   1.938   1.135   1.764 -0.8410  0.4312  0.6030
  210MOL0     H27669   1.649   1.147   1.654 -4.1225 -0.2000  2.8497
  210MOL0     H27670   1.675   1.146   1.829 -0.5099  2.0731  0.4468
  210MOL0     H27671   1.849   1.335   1.791  1.8804 -1.0797 -1.1021
  210MOL0     H27672   1.679   1.371   1.783  0.2068  0.1787 -0.9720
  210MOL0     H27673   1.575   1.357   1.503  0.7644  0.8872 -1.8129
  210MOL0     H27674   1.735   1.541   1.223 -0.4468  0.0057  0.6437
  210MOL0     H27675   1.610   1.434   1.247 -0.7606 -1.2792 -2.0270
  210MOL0     H27676   1.786   1.233   1.203 -1.9719 -1.9664 -2.9986
  210MOL0     H27677   1.897   1.377   1.149  0.7608 -1.5310  0.6674
  210MOL0     H27678   1.633   1.328   1.036  0.2725  1.0379  0.8539
  210MOL0     H27679   1.756   1.447   0.977  2.9403  0.7265 -0.9991
  210MOL0     H27680   1.812   1.155   0.949  0.5776 -0.1625 -2.4646
  210MOL0     H27681   1.915   1.298   0.926  0.3608 -1.2676 -1.0609
  210MOL0     H27682   1.746   1.298   0.560 -3.1988  2.9186 -0.2036
  210MOL0     H27683   1.598   1.203   0.400 -0.7029  4.4517  0.9123
  210MOL0     H27684   1.431   1.027   0.095 -1.0000  2.4677 -0.5755
  210MOL0     H27685   1.273   0.934  -0.089  0.7772 -0.7563  0.2192
  210MOL0     H27686   1.093   0.781  -0.168 -1.5372 -0.7107 -2.5158
  210MOL0     H27687   1.097   0.951  -0.223  1.1175  0.7862  2.2820
  210MOL0     H27688   0.873   0.768  -0.256 -2.2023  1.2412 -0.3021
  210MOL0     H27689   0.976   0.849  -0.375 -2.7238  3.0429 -3.2559
  210MOL0     H27690   0.910   1.060  -0.236  2.3925 -1.4247 -1.8297
  210MOL0     H27691   0.765   0.974  -0.201  0.5593 -2.0906  1.4594
  210MOL0     H27692   0.879   1.037  -0.493  0.8902 -2.9806 -0.4770
  210MOL0     H27693   0.748   0.926  -0.446  3.2781 -1.3493  0.7770
  210MOL0     H27694   0.760   1.228  -0.400  2.2325 -1.7309 -0.1720
  210MOL0     H27695   0.631   1.126  -0.347  1.0796  1.3222  1.2792
  210MOL0     H27696   0.588   1.069  -0.599  1.2359 -2.6467  2.5405
  210MOL0     H27697   0.709   1.190  -0.639 -1.9665  4.3542 -1.7688
  210MOL0     H27698   0.477   1.283  -0.469 -0.2671 -2.5231  0.6777
  210MOL0     H27699   0.605   1.370  -0.559  0.4432  0.6458 -2.4945
  210MOL0     H27700   0.405   1.377  -0.700 -2.3697 -1.6027  0.5019
  210MOL0     H27701   0.384   1.201  -0.683 -3.1060  2.9244  1.3724
  210MOL0     H27702   0.951   0.949   0.200 -1.1386  2.5751 -2.4325
  210MOL0     H27703   1.101   0.998   0.387 -0.4019 -1.1169 -0.7872
  210MOL0     H27704   1.382   1.029   0.736  0.9051 -1.6785 -0.2524
  210MOL0     H27705   1.560   1.115   0.886  3.8780  0.0814  0.2431
  210MOL0     H27706   2.377   1.278   1.952  2.3447  2.4661  0.5821
  210MOL0     H27707   2.539   1.376   2.123 -0.6100  1.1090  4.3676
  210MOL0     H27708   3.010   1.253   2.186  0.1430  0.4255  0.5336
  210MOL0     H27709   3.219   1.338   2.307  1.5575 -0.8828  3.2478
  210MOL0     H27710   3.164   1.464   2.726  1.5793 -1.6947  0.1557
  210MOL0     H27711   3.135   1.591   2.609 -0.4456  1.1388  3.8195
  210MOL0     H27712   3.397   1.502   2.740  1.4327  0.0635  0.6519
  210MOL0     H27713   3.374   1.638   2.624 -1.6155 -0.6391 -1.1332
  210MOL0     H27714   3.223   1.635   2.888 -1.3839  1.5385 -0.9658
  210MOL0     H27715   3.245   1.780   2.791 -0.4322  1.1374  0.3087
  210MOL0     H27716   3.491   1.766   2.812  1.4601  3.4097  2.3482
  210MOL0     H27717   3.410   1.797   2.961  1.8918 -1.0520  1.7979
  210MOL0     H27718   3.607   1.445   3.069 -0.9888 -0.3734  2.2156
  210MOL0     H27719   2.966   1.392   2.657  3.3013  1.9805 -0.4725
  210MOL0     H27720   2.775   1.274   2.542 -1.7971  0.3710 -2.2693
  211MOL0     O27721   7.263   1.887   6.361  0.8315 -0.4727 -0.5082
  211MOL0     C27722   7.271   1.814   6.464  1.1231 -0.7539 -0.0935
  211MOL0     O27723   7.181   1.712   6.497  0.1130 -0.4184 -0.4336
  211MOL0     C27724   7.077   1.676   6.422  0.4472 -0.1413 -0.4772
  211MOL0     C27725   7.067   1.554   6.366  0.4887  0.5752  0.1082
  211MOL0     C27726   6.954   1.516   6.288  0.3475  0.2804 -0.9352
  211MOL0     C27727   6.847   1.605   6.265  0.2703 -0.1910  0.1677
  211MOL0     O27728   6.718   1.583   6.212  0.0997 -0.3738  0.3965
  211MOL0     C27729   6.712   1.473   6.123  0.3941 -0.2769 -0.1692
  211MOL0     C27730   6.577   1.467   6.055 -0.1131  0.4498  0.0052
  211MOL0     C27731   6.557   1.585   5.953  0.3157 -0.0286  0.1033
  211MOL0     C27732   6.430   1.593   5.862 -0.1390 -0.1779  0.0378
  211MOL0     C27733   6.297   1.575   5.942 -0.0980 -0.0167 -0.9913
  211MOL0     C27734   6.194   1.523   5.856 -0.9200 -0.6008  0.5340
  211MOL0     C27735   6.067   1.497   5.930  0.4103 -0.3650  0.3019
  211MOL0     C27736   5.982   1.617   5.968 -0.7094  0.2893 -0.3042
  211MOL0     N27737   5.844   1.564   6.004 -1.0388 -0.3344 -0.2419
  211MOL0     C27738   5.810   1.436   6.055  1.2032  0.0849 -0.5430
  211MOL0     C27739   5.676   1.433   6.051 -0.3287 -0.1030 -1.0127
  211MOL0     C27740   5.590   1.319   6.072 -0.0858 -0.5223  0.1422
  211MOL0     C27741   5.446   1.339   6.088  0.0574 -0.3670 -0.2309
  211MOL0     C27742   5.394   1.394   6.221 -0.1257  0.2148  0.3406
  211MOL0     C27743   5.239   1.425   6.203 -1.1926 -0.3084  0.1658
  211MOL0     O27744   5.178   1.438   6.332 -0.0254  0.2328  0.1069
  211MOL0     C27745   5.048   1.478   6.332 -0.3272 -0.0654  0.2361
  211MOL0     C27746   5.008   1.540   6.450  0.3156 -0.1774 -0.2057
  211MOL0     C27747   4.874   1.587   6.476 -1.1632  0.9821  0.6610
  211MOL0     C27748   4.778   1.554   6.379  0.7830 -0.2520  0.4777
  211MOL0     C27749   4.630   1.578   6.397  0.5885  0.2140  0.2505
  211MOL0     O27750   4.588   1.700   6.450  0.3601  1.0670  0.7290
  211MOL0     C27751   4.456   1.709   6.478 -0.3766 -0.2119 -0.0295
  211MOL0     C27752   4.371   1.759   6.387 -0.2595  0.7485  0.0350
  211MOL0     C27753   4.231   1.757   6.418  0.4020 -0.9594  0.1431
  211MOL0     C27754   4.190   1.735   6.547 -0.5714 -1.2882 -0.6968
  211MOL0     O27755   4.057   1.752   6.591 -0.8153 -0.4290 -0.3368
  211MOL0     C27756   3.964   1.834   6.513 -0.5795 -0.4953 -0.5469
  211MOL0     C27757   3.834   1.866   6.574 -1.1493 -0.4149 -0.8988
  211MOL0     C27758   3.848   1.937   6.718  0.1173  0.3869  1.1333
  211MOL0     C27759   3.742   1.895   6.822  0.3283  0.4000 -0.2368
  211MOL0     C27760   3.614   1.986   6.799 -0.2347  0.3804  0.3951
  211MOL0     C27761   3.520   1.992   6.915 -0.1103 -0.4579  0.3053
  211MOL0     C27762   3.570   2.072   7.035 -0.4628 -0.8225 -0.2432
  211MOL0     C27763   3.569   2.224   7.002 -0.8252 -0.8464  0.1538
  211MOL0    Cl27764   3.603   2.305   7.166  0.2832 -0.4973 -0.2170
  211MOL0     C27765   4.276   1.690   6.644 -0.3784  0.2233  0.1020
  211MOL0     C27766   4.413   1.676   6.603  0.4232 -0.2508  0.7836
  211MOL0     O27767   4.559   1.480   6.375  0.4181  0.0671 -0.6248
  211MOL0     C27768   4.815   1.502   6.255  0.4676 -0.0827 -0.2008
  211MOL0     C27769   4.951   1.462   6.231 -1.4688  0.2960  0.3863
  211MOL0     N27770   5.629   1.558   6.007 -0.3379 -0.6606 -0.3610
  211MOL0     N27771   5.730   1.642   5.985  0.0980 -0.1952 -0.0072
  211MOL0     C27772   6.867   1.731   6.313  0.2056 -0.9658  0.1935
  211MOL0     C27773   6.971   1.768   6.399  0.0168 -1.3855  0.2238
  211MOL0     C27774   7.382   1.831   6.553 -0.2342  0.0184  0.8767
  211MOL0     C27775   7.408   1.729   6.648 -0.1571  0.1861  0.8345
  211MOL0     C27776   7.513   1.743   6.741  0.4185  0.1181 -0.4033
  211MOL0     C27777   7.588   1.855   6.749 -1.0837 -0.3862 -0.5113
  211MOL0     O27778   7.684   1.871   6.846  0.5663  0.2887  0.0295
  211MOL0     C27779   7.682   1.806   6.970  0.9113  0.4975  0.2803
  211MOL0     C27780   7.645   1.904   7.082  0.1448 -0.7502  0.3752
  211MOL0     C27781   7.762   2.007   7.124  0.8561 -0.7382  0.8247
  211MOL0     C27782   7.869   1.924   7.204  1.0107  0.0112 -0.1245
  211MOL0     C27783   7.919   2.003   7.319 -0.0991 -0.0398  0.7144
  211MOL0     C27784   7.969   2.056   7.412  0.1307  0.8397 -0.0360
  211MOL0     C27785   7.579   1.943   6.638 -0.5554  1.1301 -0.5394
  211MOL0     C27786   7.471   1.942   6.548  0.6955  0.3819 -0.2226
  211MOL0     H27787   7.148   1.484   6.383 -0.8194 -0.4149  2.8859
  211MOL0     H27788   6.944   1.412   6.257 -1.1321 -0.1397  0.7987
  211MOL0     H27789   6.731   1.376   6.169  1.0570  0.2148  0.6459
  211MOL0     H27790   6.783   1.495   6.043 -0.2122  3.2411  0.0839
  211MOL0     H27791   6.493   1.453   6.124  0.7936 -1.8286  0.7336
  211MOL0     H27792   6.576   1.378   5.992 -2.8464 -0.1493  0.7588
  211MOL0     H27793   6.640   1.575   5.882  0.8910 -4.5948  1.1292
  211MOL0     H27794   6.573   1.679   6.008  2.4738  0.1129 -0.6582
  211MOL0     H27795   6.415   1.679   5.797 -1.2225  0.4823  1.1071
  211MOL0     H27796   6.442   1.511   5.791 -2.0110 -1.3395  0.9821
  211MOL0     H27797   6.270   1.677   5.973 -1.1750 -0.0530 -1.7701
  211MOL0     H27798   6.316   1.504   6.023  0.3022 -1.0846 -2.0035
  211MOL0     H27799   6.236   1.431   5.815  0.0721  0.4077 -0.8053
  211MOL0     H27800   6.167   1.593   5.776 -1.5832 -0.2190  1.0816
  211MOL0     H27801   6.007   1.439   5.860  0.5011 -1.5868  1.2014
  211MOL0     H27802   6.096   1.436   6.017  3.4377 -0.0245 -0.3710
  211MOL0     H27803   5.989   1.680   5.878  3.1244 -1.2875 -1.3298
  211MOL0     H27804   6.030   1.684   6.040 -1.8435 -0.1908  0.9242
  211MOL0     H27805   5.873   1.356   6.090  2.4642  2.3905  3.0523
  211MOL0     H27806   5.636   1.251   6.143  1.5403  0.6564  0.2681
  211MOL0     H27807   5.596   1.268   5.975  0.4069 -1.0043  0.4222
  211MOL0     H27808   5.391   1.244   6.078  0.6667 -0.8874  1.1059
  211MOL0     H27809   5.406   1.399   6.006  0.1674 -2.1530 -1.6533
  211MOL0     H27810   5.395   1.317   6.299 -2.3871  0.8022  1.0279
  211MOL0     H27811   5.462   1.475   6.248 -1.6892  1.4093  0.8465
  211MOL0     H27812   5.196   1.348   6.139  1.5148 -1.8670  0.1141
  211MOL0     H27813   5.233   1.517   6.143  2.6057  0.6265  0.9915
  211MOL0     H27814   5.087   1.560   6.521 -1.8648 -0.9772  2.6078
  211MOL0     H27815   4.837   1.631   6.568 -1.3637  0.7075  0.7124
  211MOL0     H27816   4.396   1.802   6.290  0.0052 -0.5446 -0.4849
  211MOL0     H27817   4.174   1.804   6.339  1.7068  2.4455  1.0331
  211MOL0     H27818   3.954   1.774   6.423  1.0858 -0.7277 -0.6081
  211MOL0     H27819   4.012   1.931   6.494  1.6368 -1.5121 -0.5153
  211MOL0     H27820   3.775   1.774   6.580  0.4466 -1.4375 -0.2481
  211MOL0     H27821   3.790   1.934   6.500 -1.3645 -0.9621 -1.2819
  211MOL0     H27822   3.859   2.045   6.704  0.5393  0.1697 -0.3819
  211MOL0     H27823   3.943   1.910   6.765  0.5601  0.6491  0.4091
  211MOL0     H27824   3.716   1.791   6.800 -1.0206  0.7051 -0.1690
  211MOL0     H27825   3.781   1.902   6.924  1.9563 -0.3732 -0.7679
  211MOL0     H27826   3.558   1.933   6.722  2.2939 -1.0843 -0.5668
  211MOL0     H27827   3.645   2.085   6.764 -0.7045  0.1998 -0.5532
  211MOL0     H27828   3.495   1.885   6.923 -0.6784 -0.5150 -1.5916
  211MOL0     H27829   3.428   2.044   6.887  0.7396  3.9319  4.4368
  211MOL0     H27830   3.505   2.057   7.122 -0.9293 -0.0761 -0.4534
  211MOL0     H27831   3.672   2.037   7.056 -1.0472 -2.2764  0.3145
  211MOL0     H27832   3.471   2.261   6.973  0.0340  2.0302  0.6012
  211MOL0     H27833   3.641   2.246   6.923 -0.5075 -0.0639  0.6554
  211MOL0     H27834   4.244   1.655   6.742 -3.7126 -4.2028 -2.2003
  211MOL0     H27835   4.500   1.635   6.654 -1.6730 -3.1128  2.3769
  211MOL0     H27836   4.734   1.490   6.184 -0.5729  1.2532  0.7139
  211MOL0     H27837   4.972   1.416   6.135 -0.2744  0.8060  0.3864
  211MOL0     H27838   6.785   1.800   6.297 -0.3530 -1.8715 -1.0818
  211MOL0     H27839   6.985   1.871   6.430 -1.1667 -0.5116 -1.9275
  211MOL0     H27840   7.347   1.641   6.663  0.7813 -0.5455  0.4511
  211MOL0     H27841   7.519   1.650   6.797  2.0934 -0.2792 -1.1666
  211MOL0     H27842   7.782   1.771   6.998  0.9416  2.2782  2.7225
  211MOL0     H27843   7.611   1.724   6.983  0.6435  0.7928  0.7164
  211MOL0     H27844   7.569   1.968   7.035  1.8048  4.1384  3.6000
  211MOL0     H27845   7.600   1.863   7.172  0.7916  0.8190  1.4574
  211MOL0     H27846   7.722   2.080   7.195  0.7309  1.7509 -1.6367
  211MOL0     H27847   7.809   2.048   7.035 -2.6211  0.6720 -0.5387
  211MOL0     H27848   7.822   1.833   7.243  3.0225 -0.3365  1.7089
  211MOL0     H27849   7.959   1.906   7.144  0.9702  2.7269 -1.1185
  211MOL0     H27850   8.017   2.103   7.495  2.5996 -1.0235 -0.3008
  211MOL0     H27851   7.645   2.028   6.648  0.3879  0.2293  1.6314
  211MOL0     H27852   7.458   2.026   6.481 -1.2454 -1.0560 -1.7782
  212MOL0     O27853   3.875   7.857   3.418 -0.1330 -0.6794 -0.3244
  212MOL0     C27854   3.830   7.964   3.445  0.1456 -0.3071  0.2131
  212MOL0     O27855   3.737   7.994   3.537 -0.3105 -0.4769 -0.3282
  212MOL0     C27856   3.641   7.903   3.585  0.6380  0.1204 -0.0539
  212MOL0     C27857   3.632   7.872   3.724 -0.4010 -0.1729  0.0060
  212MOL0     C27858   3.527   7.791   3.768 -0.8181 -0.6115  0.3277
  212MOL0     C27859   3.439   7.733   3.678 -1.0778 -0.2944  0.7480
  212MOL0     O27860   3.324   7.663   3.708 -0.1438  0.6710 -0.7620
  212MOL0     C27861   3.284   7.646   3.844 -0.1726  0.6614 -0.1810
  212MOL0     C27862   3.139   7.591   3.838 -0.7541 -0.0304  0.0036
  212MOL0     C27863   3.082   7.601   3.976  0.6966  0.4376  0.7258
  212MOL0     C27864   2.934   7.566   3.963 -0.0689 -0.8131 -0.3300
  212MOL0     C27865   2.861   7.567   4.098 -0.5298 -0.3656 -0.4768
  212MOL0     C27866   2.709   7.543   4.081  0.4212  0.0887  0.5559
  212MOL0     C27867   2.619   7.534   4.206 -0.1156 -0.1916 -0.1722
  212MOL0     C27868   2.692   7.475   4.319  0.1249  0.0038 -0.8622
  212MOL0     N27869   2.596   7.500   4.424  0.2921 -0.4932 -0.7014
  212MOL0     C27870   2.496   7.416   4.465 -0.3373 -0.1731  0.0165
  212MOL0     C27871   2.452   7.471   4.582 -0.1348 -0.9240 -0.1356
  212MOL0     C27872   2.347   7.407   4.665 -0.1937 -0.1401  0.6399
  212MOL0     C27873   2.283   7.497   4.772  0.2260 -0.0712  0.5372
  212MOL0     C27874   2.187   7.422   4.855  0.6680 -0.6017 -0.3417
  212MOL0     C27875   2.106   7.505   4.956 -0.2361 -0.1998  0.2778
  212MOL0     O27876   2.001   7.569   4.874  0.4221  0.2829 -0.4075
  212MOL0     C27877   1.929   7.663   4.946  0.5918 -0.0583 -0.7337
  212MOL0     C27878   1.853   7.637   5.063  0.9551  0.8708 -0.1520
  212MOL0     C27879   1.760   7.733   5.113 -0.1859 -0.1379  0.4024
  212MOL0     C27880   1.742   7.859   5.052 -0.5161  1.0789  0.0055
  212MOL0     C27881   1.632   7.947   5.097 -0.3298 -0.7940  0.1172
  212MOL0     O27882   1.550   7.922   5.206 -0.5321  1.0099  0.0358
  212MOL0     C27883   1.449   8.010   5.230 -1.1462  0.4296  0.3297
  212MOL0     C27884   1.438   8.094   5.343 -0.1035  0.3703  0.0467
  212MOL0     C27885   1.322   8.167   5.368  0.1662  0.2801 -0.0666
  212MOL0     C27886   1.214   8.168   5.284 -0.1406  0.0031 -0.3307
  212MOL0     O27887   1.102   8.246   5.309 -0.9053  0.4796  0.5375
  212MOL0     C27888   1.018   8.172   5.398  0.3442 -0.3461  0.3872
  212MOL0     C27889   0.890   8.256   5.420 -1.0370 -0.8482  0.3476
  212MOL0     C27890   0.916   8.384   5.497 -0.0867 -0.2919 -0.2203
  212MOL0     C27891   1.001   8.373   5.631  0.4482  0.0840  0.7423
  212MOL0     C27892   0.926   8.306   5.742 -0.1748 -0.3783 -0.1869
  212MOL0     C27893   0.795   8.363   5.789 -1.1971 -1.2386  0.5422
  212MOL0     C27894   0.733   8.298   5.907 -0.4491 -0.1340 -0.2618
  212MOL0     C27895   0.711   8.145   5.867  0.7366 -0.2736 -0.0112
  212MOL0    Cl27896   0.592   8.067   5.980 -0.4558  0.1856 -1.0648
  212MOL0     C27897   1.220   8.085   5.170 -0.4584  0.0826  0.2523
  212MOL0     C27898   1.337   8.009   5.147 -0.4354 -0.2232 -0.4143
  212MOL0     O27899   1.624   8.055   5.029  0.1779  0.2503 -0.4235
  212MOL0     C27900   1.825   7.888   4.946 -1.5019 -0.6132 -0.0735
  212MOL0     C27901   1.914   7.791   4.892  0.2682 -0.5647 -0.3478
  212MOL0     N27902   2.521   7.586   4.609 -0.2873  0.7123  0.5804
  212MOL0     N27903   2.609   7.603   4.510 -0.2365  0.4732 -0.4434
  212MOL0     C27904   3.453   7.753   3.541  0.2869 -0.0135  0.6343
  212MOL0     C27905   3.553   7.842   3.497 -0.7710  0.4526 -1.1794
  212MOL0     C27906   3.887   8.075   3.372 -1.0262  0.6724  0.3211
  212MOL0     C27907   4.005   8.061   3.302 -0.4088 -0.6303  0.1100
  212MOL0     C27908   4.051   8.171   3.223  0.5976  0.1839  0.2722
  212MOL0     C27909   3.966   8.287   3.205 -0.0125  1.1037 -0.2517
  212MOL0     O27910   3.992   8.395   3.125  0.1835 -0.5797  0.3531
  212MOL0     C27911   4.069   8.381   3.005 -0.2344 -0.0330  0.1333
  212MOL0     C27912   4.023   8.272   2.915  1.4792  0.1226 -0.2016
  212MOL0     C27913   3.885   8.302   2.848  0.0721 -0.8474 -0.0594
  212MOL0     C27914   3.798   8.176   2.840  0.4504  0.3043  0.3385
  212MOL0     C27915   3.775   8.093   2.958  0.0295 -0.7503  0.5783
  212MOL0     C27916   3.743   8.021   3.051 -0.7214  0.6691  0.1174
  212MOL0     C27917   3.836   8.284   3.255 -0.8216 -0.3648  0.0877
  212MOL0     C27918   3.803   8.184   3.338  0.0517  0.3658 -0.0573
  212MOL0     H27919   3.695   7.926   3.794 -2.0329 -1.1510  2.3617
  212MOL0     H27920   3.527   7.771   3.875 -1.7885  3.6076  1.2997
  212MOL0     H27921   3.279   7.743   3.893 -0.0744  0.3145  0.5257
  212MOL0     H27922   3.336   7.570   3.904 -1.6117 -1.1578 -1.1116
  212MOL0     H27923   3.124   7.485   3.813 -3.0230 -0.2719  1.9814
  212MOL0     H27924   3.089   7.656   3.765 -1.6761  1.3451  1.8011
  212MOL0     H27925   3.082   7.705   4.008  3.3851  1.8859 -3.1697
  212MOL0     H27926   3.129   7.532   4.047 -1.2379  0.1971  1.8589
  212MOL0     H27927   2.878   7.629   3.893 -0.0295 -0.5686 -0.1414
  212MOL0     H27928   2.930   7.461   3.930  3.9831 -1.2600  0.1863
  212MOL0     H27929   2.866   7.671   4.132 -0.5368 -0.6491  0.4200
  212MOL0     H27930   2.903   7.501   4.174  1.0870  2.6725  1.4910
  212MOL0     H27931   2.705   7.445   4.033 -0.7670 -1.3692  3.3926
  212MOL0     H27932   2.674   7.625   4.018  1.6233  0.7623  0.7297
  212MOL0     H27933   2.585   7.632   4.240 -2.0771 -0.3803 -1.4050
  212MOL0     H27934   2.524   7.485   4.183 -0.1256 -1.4159  2.1140
  212MOL0     H27935   2.783   7.530   4.343 -0.4133 -0.2199  2.1901
  212MOL0     H27936   2.722   7.370   4.308  0.0147 -0.1459  0.1044
  212MOL0     H27937   2.467   7.325   4.414  0.2598 -1.5068  1.9369
  212MOL0     H27938   2.400   7.316   4.695  1.3216 -0.2105 -1.9364
  212MOL0     H27939   2.273   7.379   4.588 -0.0830  0.5073  0.2914
  212MOL0     H27940   2.241   7.590   4.732 -1.5495 -0.8669  0.4352
  212MOL0     H27941   2.358   7.521   4.848  0.1035  2.1064  0.0525
  212MOL0     H27942   2.113   7.357   4.807 -0.4465 -2.6333  3.6926
  212MOL0     H27943   2.246   7.356   4.919  1.2933 -0.5617 -0.8752
  212MOL0     H27944   2.178   7.577   4.998  2.7696 -1.6991 -1.9447
  212MOL0     H27945   2.059   7.434   5.025 -0.1556 -0.2222  0.3095
  212MOL0     H27946   1.862   7.542   5.114 -1.8151 -1.1443 -3.0424
  212MOL0     H27947   1.708   7.716   5.207 -3.4064  2.6080 -0.6457
  212MOL0     H27948   1.526   8.090   5.407  0.6243  1.0138 -0.8964
  212MOL0     H27949   1.304   8.236   5.450  0.9002 -0.1047  0.4197
  212MOL0     H27950   1.059   8.147   5.496 -2.7431 -0.2340  1.8262
  212MOL0     H27951   0.982   8.079   5.354 -1.2707  0.0837  0.7236
  212MOL0     H27952   0.821   8.188   5.471 -2.2719 -0.5601 -0.8657
  212MOL0     H27953   0.838   8.287   5.329 -2.5681  1.1152  1.8126
  212MOL0     H27954   0.820   8.437   5.500 -1.1821 -2.2020  0.3305
  212MOL0     H27955   0.970   8.435   5.418 -2.8102 -1.2991 -2.9527
  212MOL0     H27956   1.091   8.319   5.604 -0.3554  0.1505 -2.5004
  212MOL0     H27957   1.038   8.467   5.672  0.6331  0.0258  0.7055
  212MOL0     H27958   1.000   8.283   5.819  0.1800 -1.9337 -0.9580
  212MOL0     H27959   0.909   8.202   5.711 -0.2129 -0.0378 -1.3551
  212MOL0     H27960   0.735   8.369   5.697  0.5964  1.0298 -0.5794
  212MOL0     H27961   0.810   8.461   5.834 -2.8704 -1.4694  1.7019
  212MOL0     H27962   0.797   8.314   5.994 -0.9447 -1.2084  0.3175
  212MOL0     H27963   0.641   8.349   5.935 -1.0075 -1.2005 -0.1122
  212MOL0     H27964   0.804   8.088   5.857 -0.6521 -2.8686  0.8219
  212MOL0     H27965   0.657   8.129   5.774  0.1541 -4.1435  0.8087
  212MOL0     H27966   1.132   8.064   5.111  0.5729 -0.2748 -1.2288
  212MOL0     H27967   1.338   7.946   5.059 -1.1965 -1.3772  0.3805
  212MOL0     H27968   1.819   7.985   4.899 -2.9903 -1.3533 -1.5120
  212MOL0     H27969   1.963   7.805   4.796  1.9562 -5.8144 -0.5476
  212MOL0     H27970   3.379   7.716   3.470  1.2875  2.1973 -1.7242
  212MOL0     H27971   3.564   7.874   3.394 -0.0134 -0.3672 -1.3685
  212MOL0     H27972   4.061   7.971   3.324  3.5468  1.2136 -1.4552
  212MOL0     H27973   4.149   8.172   3.177  0.4564  0.0472 -0.0329
  212MOL0     H27974   4.171   8.361   3.039 -0.4792  1.4913  1.9371
  212MOL0     H27975   4.055   8.479   2.957 -1.0088  0.5628  1.5152
  212MOL0     H27976   4.091   8.246   2.833  1.7690 -2.4159  0.7697
  212MOL0     H27977   4.023   8.178   2.970  1.0194  1.2283  1.7623
  212MOL0     H27978   3.903   8.318   2.741 -1.0752  3.5272  0.2399
  212MOL0     H27979   3.831   8.387   2.891 -1.9969 -2.6491  1.1213
  212MOL0     H27980   3.704   8.197   2.787 -0.1794 -1.6725  0.5886
  212MOL0     H27981   3.847   8.118   2.761 -3.2892  0.4324 -2.3750
  212MOL0     H27982   3.745   7.956   3.136  2.7716  0.0178 -0.3149
  212MOL0     H27983   3.772   8.367   3.224  1.2595  0.3914 -2.5585
  212MOL0     H27984   3.712   8.197   3.396 -0.1427 -1.9126  0.2291
  213MOL0     O27985   5.952  10.369   4.087 -0.0565 -0.2191 -0.5029
  213MOL0     C27986   5.948  10.383   4.215 -0.2306 -0.2800  1.2731
  213MOL0     O27987   5.850  10.342   4.293  0.1282  0.4268  0.1654
  213MOL0     C27988   5.735  10.302   4.230 -1.2338 -0.1322 -0.4277
  213MOL0     C27989   5.723  10.174   4.196  0.4358  0.2442 -0.0028
  213MOL0     C27990   5.614  10.118   4.134 -0.7643 -0.1058 -0.7335
  213MOL0     C27991   5.503  10.199   4.109  0.3552 -0.1844 -0.4044
  213MOL0     O27992   5.377  10.154   4.065  0.3604 -0.1761  0.6596
  213MOL0     C27993   5.367  10.016   4.019  1.1399  0.2629 -0.9289
  213MOL0     C27994   5.330   9.920   4.138  0.5573 -0.2965 -0.3173
  213MOL0     C27995   5.180   9.874   4.152 -0.4165 -0.8981 -0.2587
  213MOL0     C27996   5.146   9.785   4.031 -0.4120 -0.9416  0.2617
  213MOL0     C27997   4.993   9.757   4.033 -0.8083 -0.8656  0.5237
  213MOL0     C27998   4.931   9.695   4.152 -0.0059 -0.4454 -1.2401
  213MOL0     C27999   4.997   9.563   4.199 -0.3479  0.3513 -0.2868
  213MOL0     C28000   4.922   9.506   4.312 -0.3596 -0.2709  0.5912
  213MOL0     N28001   4.983   9.380   4.352 -0.3330 -0.2640 -0.4032
  213MOL0     C28002   4.952   9.257   4.302  0.0000 -1.2555  0.1134
  213MOL0     C28003   5.029   9.167   4.361 -0.0765  1.0200  0.1039
  213MOL0     C28004   5.042   9.018   4.342  0.3104 -0.4571  0.4417
  213MOL0     C28005   4.920   8.940   4.400  0.0047 -0.0947  0.0027
  213MOL0     C28006   4.808   8.942   4.304  0.9853 -0.2437 -0.0332
  213MOL0     C28007   4.680   8.867   4.354 -0.1061 -0.7796 -0.4294
  213MOL0     O28008   4.619   8.932   4.466  1.1922  0.6393 -0.5683
  213MOL0     C28009   4.552   8.841   4.539 -0.2253  0.7176  0.2204
  213MOL0     C28010   4.442   8.759   4.478 -1.2880 -0.7038  0.2434
  213MOL0     C28011   4.386   8.656   4.554  0.5948  0.0401  0.3049
  213MOL0     C28012   4.431   8.631   4.684 -0.2247  0.7740 -0.2861
  213MOL0     C28013   4.376   8.521   4.753 -0.3100 -0.0465  1.2076
  213MOL0     O28014   4.291   8.445   4.679  0.7877  0.0449  0.0969
  213MOL0     C28015   4.230   8.329   4.723  0.2293  0.2316 -0.7537
  213MOL0     C28016   4.219   8.292   4.860 -1.3682 -0.9032  0.4515
  213MOL0     C28017   4.165   8.167   4.884 -0.0092  0.2618  0.2172
  213MOL0     C28018   4.135   8.079   4.783  1.1862 -0.3454 -0.4683
  213MOL0     O28019   4.086   7.960   4.837  0.2209 -0.1509 -0.2798
  213MOL0     C28020   4.073   7.850   4.744 -0.3438  1.0451  0.3146
  213MOL0     C28021   3.922   7.837   4.702  0.2505  0.1966  0.5236
  213MOL0     C28022   3.890   7.722   4.613 -0.1139 -0.5633 -0.1388
  213MOL0     C28023   3.877   7.592   4.689 -0.2176  0.7724  0.1238
  213MOL0     C28024   3.843   7.467   4.607  0.4051  1.2886  0.5134
  213MOL0     C28025   3.693   7.439   4.578  0.1908 -0.1082 -0.4229
  213MOL0     C28026   3.678   7.341   4.462 -0.5210  0.1556 -1.5659
  213MOL0     C28027   3.526   7.313   4.458  0.1549  0.3162 -0.0039
  213MOL0    Cl28028   3.451   7.462   4.382 -0.2922  0.0739 -0.2575
  213MOL0     C28029   4.130   8.118   4.649 -0.5467 -0.0641  0.1264
  213MOL0     C28030   4.184   8.249   4.621 -0.4578  0.9872  0.3123
  213MOL0     O28031   4.433   8.489   4.855 -0.3099 -0.1360  0.3846
  213MOL0     C28032   4.528   8.709   4.738  0.1269 -0.0267  0.0587
  213MOL0     C28033   4.594   8.811   4.671  0.6399 -0.5124  0.7135
  213MOL0     N28034   5.114   9.238   4.438  0.4512  0.2295 -0.2926
  213MOL0     N28035   5.092   9.358   4.431 -0.0395  0.0528  0.0559
  213MOL0     C28036   5.508  10.336   4.155 -0.8116  0.6851  1.1195
  213MOL0     C28037   5.623  10.388   4.203  0.1969  0.2013 -0.2556
  213MOL0     C28038   6.060  10.435   4.291  0.2899  0.1839 -0.1468
  213MOL0     C28039   6.156  10.515   4.224  0.5981 -0.5149  0.0824
  213MOL0     C28040   6.252  10.579   4.302 -0.0876  0.0515  0.2075
  213MOL0     C28041   6.263  10.558   4.436 -0.6872  0.7091  0.1732
  213MOL0     O28042   6.359  10.617   4.502  0.3881 -0.6658 -0.4466
  213MOL0     C28043   6.497  10.623   4.456  0.2289 -0.0330 -0.2265
  213MOL0     C28044   6.579  10.495   4.460  0.0141  0.2868 -0.3218
  213MOL0     C28045   6.699  10.494   4.366  0.1605  0.1799  0.2148
  213MOL0     C28046   6.782  10.364   4.372 -0.2167 -0.1423 -1.3480
  213MOL0     C28047   6.855  10.339   4.505  0.9637  0.1139  0.5529
  213MOL0     C28048   6.911  10.342   4.611 -1.0275 -0.6637 -0.6581
  213MOL0     C28049   6.174  10.484   4.503 -0.2228  0.0923  0.5217
  213MOL0     C28050   6.071  10.415   4.428 -0.4547  0.5602  0.7593
  213MOL0     H28051   5.800  10.104   4.227 -0.7568 -0.4712  1.4171
  213MOL0     H28052   5.605  10.011   4.120  3.9697 -0.7596 -0.3480
  213MOL0     H28053   5.457   9.992   3.962  1.8738  1.0200 -0.1258
  213MOL0     H28054   5.279  10.020   3.954  0.1688 -0.9866  0.2397
  213MOL0     H28055   5.367   9.980   4.222  3.9413 -2.5608  0.0143
  213MOL0     H28056   5.393   9.832   4.123  0.5977 -0.2697 -0.3082
  213MOL0     H28057   5.121   9.966   4.146  0.6050 -0.2362 -0.4162
  213MOL0     H28058   5.176   9.815   4.244  0.0357 -0.2923  0.1621
  213MOL0     H28059   5.181   9.828   3.937 -0.5364  1.3001  1.1755
  213MOL0     H28060   5.196   9.688   4.041 -1.6964 -1.5523  1.0917
  213MOL0     H28061   4.962   9.692   3.950 -2.4776 -0.7718  1.0384
  213MOL0     H28062   4.948   9.855   4.012  2.3115 -0.1165 -4.3869
  213MOL0     H28063   4.825   9.687   4.128  0.0101  1.5509 -2.2101
  213MOL0     H28064   4.939   9.770   4.231  0.4843 -0.9985 -0.7513
  213MOL0     H28065   5.005   9.486   4.121 -1.6079 -0.7978  0.6706
  213MOL0     H28066   5.099   9.579   4.234 -1.0150 -1.4707  2.8340
  213MOL0     H28067   4.819   9.486   4.282 -1.1474  0.3892  2.7183
  213MOL0     H28068   4.910   9.573   4.397  1.2924 -0.1960  0.8058
  213MOL0     H28069   4.876   9.247   4.225  1.4997 -2.1025 -1.3095
  213MOL0     H28070   5.137   8.983   4.383  0.7898  1.3684  0.9810
  213MOL0     H28071   5.041   9.016   4.232 -0.9351  2.9443  0.2652
  213MOL0     H28072   4.889   8.982   4.496  2.4779 -3.3853  2.5168
  213MOL0     H28073   4.941   8.834   4.418  0.6111 -0.1880 -1.1497
  213MOL0     H28074   4.784   9.047   4.284 -1.0375 -0.1317  2.4281
  213MOL0     H28075   4.835   8.877   4.221 -0.8495  0.4015 -1.1718
  213MOL0     H28076   4.709   8.764   4.378 -2.9288 -1.6647 -0.5292
  213MOL0     H28077   4.606   8.862   4.274 -0.8224 -0.9206  0.2305
  213MOL0     H28078   4.415   8.773   4.374  0.8955 -4.8322 -1.1261
  213MOL0     H28079   4.314   8.594   4.503  1.1280 -1.6725  1.5341
  213MOL0     H28080   4.252   8.353   4.944 -0.3274 -0.8215 -0.0036
  213MOL0     H28081   4.165   8.141   4.990 -2.5849 -1.4754 -0.1178
  213MOL0     H28082   4.114   7.765   4.798 -1.8988 -0.8627 -1.3736
  213MOL0     H28083   4.129   7.855   4.650  0.5119  0.6647  0.8017
  213MOL0     H28084   3.895   7.922   4.638  1.3138  0.5178  0.4892
  213MOL0     H28085   3.862   7.839   4.793  0.4770 -1.5354  0.7355
  213MOL0     H28086   3.973   7.707   4.542  0.1376  3.5308 -0.9653
  213MOL0     H28087   3.801   7.756   4.559  0.9661  0.7982 -1.1389
  213MOL0     H28088   3.964   7.574   4.752 -0.3718  1.0098  0.4097
  213MOL0     H28089   3.788   7.595   4.753 -0.8477 -1.0682 -0.5876
  213MOL0     H28090   3.888   7.386   4.665 -0.0723  0.1168 -0.6888
  213MOL0     H28091   3.897   7.474   4.512 -0.8071  3.5414 -0.0751
  213MOL0     H28092   3.639   7.530   4.551  1.8768  1.2994  0.7061
  213MOL0     H28093   3.651   7.389   4.665  0.2959 -0.7075 -0.7121
  213MOL0     H28094   3.713   7.385   4.368  1.0785  1.1232 -0.5604
  213MOL0     H28095   3.733   7.248   4.477  1.5493  1.6130  0.4165
  213MOL0     H28096   3.489   7.294   4.559 -1.5911 -1.6214 -0.9248
  213MOL0     H28097   3.498   7.224   4.401  0.9431 -0.8152  1.3246
  213MOL0     H28098   4.103   8.050   4.569 -2.0726  1.2516 -0.5363
  213MOL0     H28099   4.197   8.270   4.516 -1.5421  0.4217  0.0481
  213MOL0     H28100   4.552   8.692   4.843 -1.0873 -0.0432  0.3488
  213MOL0     H28101   4.672   8.863   4.725 -0.5974  1.3293  0.8549
  213MOL0     H28102   5.419  10.398   4.151  1.0679  3.5426  0.8702
  213MOL0     H28103   5.634  10.496   4.213 -1.0276  0.6190 -2.5827
  213MOL0     H28104   6.129  10.538   4.122 -0.5028 -1.9257  0.0187
  213MOL0     H28105   6.315  10.654   4.256 -1.9611  2.6446  1.6177
  213MOL0     H28106   6.550  10.700   4.512  0.5022  3.6470 -4.9327
  213MOL0     H28107   6.507  10.662   4.354 -0.9375 -0.4419 -0.5093
  213MOL0     H28108   6.612  10.455   4.556  1.2138  0.6743 -0.5536
  213MOL0     H28109   6.512  10.413   4.434  1.2300 -1.9766  3.0559
  213MOL0     H28110   6.771  10.574   4.390  1.8177 -1.6105  1.5120
  213MOL0     H28111   6.656  10.502   4.266  0.4295  2.0156  0.2066
  213MOL0     H28112   6.715  10.279   4.352  3.1400 -2.8748 -1.8267
  213MOL0     H28113   6.854  10.361   4.291  0.4965  2.3955 -0.8965
  213MOL0     H28114   6.938  10.342   4.714  1.8453 -1.6247 -1.2971
  213MOL0     H28115   6.176  10.476   4.611  0.1599  2.2525  0.7355
  213MOL0     H28116   5.994  10.359   4.479  0.8478 -1.0207  1.0859
  214MOL0     O28117   3.198   3.281   0.376 -0.3548  0.3525 -0.3497
  214MOL0     C28118   3.160   3.162   0.387  0.1336 -1.0052  0.0776
  214MOL0     O28119   3.039   3.128   0.432  0.1767 -1.1624  0.1172
  214MOL0     C28120   2.943   3.219   0.447  0.1072  0.7386 -0.2837
  214MOL0     C28121   2.869   3.282   0.353  0.2161 -0.1424 -0.3255
  214MOL0     C28122   2.782   3.389   0.389 -0.3303 -0.3162  0.3022
  214MOL0     C28123   2.759   3.422   0.521  0.5666 -0.3330  0.4652
  214MOL0     O28124   2.669   3.515   0.580  0.4032 -0.4294 -0.4483
  214MOL0     C28125   2.621   3.628   0.498 -0.8271 -0.5475 -0.0237
  214MOL0     C28126   2.514   3.714   0.565  0.2607 -1.4134 -0.2308
  214MOL0     C28127   2.575   3.784   0.688 -0.2270 -0.8393 -0.2848
  214MOL0     C28128   2.465   3.863   0.760 -0.6009 -0.2985  0.4103
  214MOL0     C28129   2.527   3.987   0.827  0.8345 -0.0136 -0.1580
  214MOL0     C28130   2.406   4.071   0.860 -0.0754 -0.6249  0.1713
  214MOL0     C28131   2.430   4.208   0.921 -0.4560  0.1852  0.0128
  214MOL0     C28132   2.308   4.292   0.958  0.0506  0.1534  0.7198
  214MOL0     N28133   2.233   4.244   1.071  0.5884  0.7004 -0.0494
  214MOL0     C28134   2.265   4.257   1.208 -0.8474 -0.3043 -0.1336
  214MOL0     C28135   2.154   4.221   1.273 -0.2157  0.0166 -0.2251
  214MOL0     C28136   2.131   4.212   1.424  1.2550  0.1656 -0.2187
  214MOL0     C28137   2.113   4.350   1.494  0.0765 -0.2283 -0.4576
  214MOL0     C28138   2.080   4.319   1.644  0.4267  0.2830  0.1860
  214MOL0     C28139   1.993   4.436   1.715 -0.1097 -0.4785  0.1375
  214MOL0     O28140   2.062   4.561   1.688 -0.6535  0.1534 -0.6071
  214MOL0     C28141   2.055   4.654   1.784  0.2936 -0.0016 -0.4486
  214MOL0     C28142   2.167   4.705   1.832  0.2821  0.9882  0.8086
  214MOL0     C28143   2.164   4.807   1.929  0.2454  0.2907  0.2168
  214MOL0     C28144   2.040   4.851   1.985 -0.0052 -1.6246 -1.0625
  214MOL0     C28145   2.036   4.960   2.086 -0.0126  0.3495 -0.1139
  214MOL0     O28146   2.158   4.977   2.150  0.3433 -0.0774 -0.5209
  214MOL0     C28147   2.168   5.103   2.215 -0.6443 -0.2510 -0.2000
  214MOL0     C28148   2.182   5.109   2.355 -0.0746  0.5066 -0.2002
  214MOL0     C28149   2.181   5.233   2.420 -0.3900  0.3489 -0.9280
  214MOL0     C28150   2.175   5.354   2.353 -0.0984  0.5492 -0.2630
  214MOL0     O28151   2.173   5.469   2.426  0.4913 -0.1792  0.7729
  214MOL0     C28152   2.294   5.528   2.462 -0.4630 -0.6462 -0.1623
  214MOL0     C28153   2.271   5.672   2.507 -0.8159 -0.4688  0.3261
  214MOL0     C28154   2.265   5.756   2.374  0.2951 -0.4607 -0.2622
  214MOL0     C28155   2.252   5.906   2.422  0.0272  0.1392 -0.2250
  214MOL0     C28156   2.236   6.006   2.305  0.3060  0.3294 -1.1008
  214MOL0     C28157   2.122   5.972   2.206  1.0100 -0.1631 -0.0460
  214MOL0     C28158   2.110   6.096   2.110  0.3371 -0.1515  0.1010
  214MOL0     C28159   1.990   6.098   2.017  0.2620 -0.0684  0.2087
  214MOL0    Cl28160   2.027   6.219   1.897  0.3318  0.2839  0.0494
  214MOL0     C28161   2.180   5.352   2.211 -0.0240 -0.7114  0.0442
  214MOL0     C28162   2.167   5.224   2.148 -0.6953 -0.5561 -0.7211
  214MOL0     O28163   1.931   5.011   2.112  0.0778  0.7954 -0.5932
  214MOL0     C28164   1.925   4.793   1.929  0.2975  0.2131 -0.3603
  214MOL0     C28165   1.928   4.696   1.832 -0.0912 -0.2424  0.1937
  214MOL0     N28166   2.054   4.192   1.188 -0.5823  0.0830  0.3877
  214MOL0     N28167   2.101   4.208   1.068  0.6289 -0.2506  0.2458
  214MOL0     C28168   2.834   3.358   0.614  0.4439 -0.1302  1.0648
  214MOL0     C28169   2.921   3.255   0.583 -0.3611 -0.5985 -0.0023
  214MOL0     C28170   3.255   3.057   0.343 -0.3673 -0.1863  0.1169
  214MOL0     C28171   3.391   3.097   0.325  0.6318 -0.1913 -0.0911
  214MOL0     C28172   3.487   2.999   0.291 -0.5448 -0.2907  0.3579
  214MOL0     C28173   3.458   2.870   0.291  1.7110 -0.1487 -0.2668
  214MOL0     O28174   3.550   2.766   0.293  0.1907 -0.0991  0.0102
  214MOL0     C28175   3.660   2.777   0.198 -0.8074  0.3321 -0.4249
  214MOL0     C28176   3.744   2.655   0.188 -0.1211  1.0378  0.4007
  214MOL0     C28177   3.673   2.519   0.220  0.3395  0.4767  0.4399
  214MOL0     C28178   3.773   2.405   0.207  0.6944  0.1003  0.6271
  214MOL0     C28179   3.711   2.291   0.275 -0.4609  1.0547  0.3662
  214MOL0     C28180   3.671   2.194   0.330 -0.6673 -0.7459 -0.7126
  214MOL0     C28181   3.313   2.837   0.291 -0.1668  0.1160  0.3713
  214MOL0     C28182   3.222   2.928   0.322  0.4243  0.9697 -0.1731
  214MOL0     H28183   2.896   3.265   0.249 -1.1906 -0.3667 -0.6809
  214MOL0     H28184   2.745   3.455   0.311  1.7986  2.7708  1.7082
  214MOL0     H28185   2.590   3.585   0.402 -2.1218  1.9938 -0.8418
  214MOL0     H28186   2.707   3.695   0.485 -1.2659  0.2150  0.9213
  214MOL0     H28187   2.423   3.656   0.580 -0.5460 -0.2084 -0.2659
  214MOL0     H28188   2.496   3.788   0.486  0.7601  0.6687  1.5168
  214MOL0     H28189   2.650   3.855   0.652 -0.0768 -0.8172  0.0679
  214MOL0     H28190   2.609   3.707   0.759 -0.7112 -0.4056  0.4303
  214MOL0     H28191   2.395   3.903   0.686 -2.3966 -2.9369  0.5376
  214MOL0     H28192   2.411   3.793   0.824 -1.5165 -0.5744 -0.6191
  214MOL0     H28193   2.608   4.039   0.775  2.1754 -0.7619  1.1212
  214MOL0     H28194   2.580   3.961   0.919  0.3495 -0.7588 -0.0788
  214MOL0     H28195   2.338   4.015   0.925  1.4926 -1.3442  1.2512
  214MOL0     H28196   2.362   4.095   0.763 -1.3459 -0.7186  0.7029
  214MOL0     H28197   2.491   4.182   1.008 -0.0551 -2.2863 -0.9221
  214MOL0     H28198   2.494   4.254   0.846 -1.6448  1.7048 -0.1200
  214MOL0     H28199   2.252   4.324   0.870  2.1250  0.7510 -0.4574
  214MOL0     H28200   2.348   4.386   0.998 -1.4366  1.3440 -0.4710
  214MOL0     H28201   2.363   4.270   1.253 -0.8093 -0.8642 -0.0437
  214MOL0     H28202   2.218   4.167   1.472  1.7335  1.2086 -0.0813
  214MOL0     H28203   2.046   4.145   1.440  1.2322  0.5605  1.4982
  214MOL0     H28204   2.032   4.412   1.452  1.2817  0.9108 -1.1824
  214MOL0     H28205   2.201   4.414   1.488 -1.4185  1.8468 -1.9743
  214MOL0     H28206   2.028   4.223   1.651  0.4768  0.0297 -2.1594
  214MOL0     H28207   2.170   4.311   1.706  0.1391  1.4974  0.7775
  214MOL0     H28208   1.972   4.414   1.820 -1.0679 -2.0730 -0.3515
  214MOL0     H28209   1.892   4.444   1.672 -0.7197  0.3425  1.6809
  214MOL0     H28210   2.262   4.671   1.790  0.9476  2.4434  1.0756
  214MOL0     H28211   2.259   4.851   1.959  1.4005 -2.4133  0.8103
  214MOL0     H28212   2.197   5.017   2.411  1.3618 -0.2036 -1.6673
  214MOL0     H28213   2.177   5.239   2.528  1.0239  2.0624 -0.9368
  214MOL0     H28214   2.365   5.525   2.378  1.4707  2.2883  1.2006
  214MOL0     H28215   2.346   5.477   2.543 -1.9804 -0.4553  0.9711
  214MOL0     H28216   2.356   5.694   2.572 -0.6332  0.1214 -0.1159
  214MOL0     H28217   2.183   5.689   2.571 -2.5260 -0.3728 -1.9027
  214MOL0     H28218   2.176   5.739   2.312 -0.6358  1.0913  0.5794
  214MOL0     H28219   2.356   5.747   2.314  1.7835  0.3728  1.7369
  214MOL0     H28220   2.170   5.927   2.492 -1.0940  0.5188 -1.6038
  214MOL0     H28221   2.345   5.925   2.476 -0.1763 -0.2526  0.2769
  214MOL0     H28222   2.331   5.990   2.253  1.7122 -0.0935  1.4550
  214MOL0     H28223   2.236   6.110   2.336 -0.8360  0.9317 -2.9086
  214MOL0     H28224   2.028   5.947   2.257  0.1578  2.2369 -0.3114
  214MOL0     H28225   2.154   5.887   2.145  2.9042 -0.3286  1.0993
  214MOL0     H28226   2.114   6.188   2.169 -2.9091  0.0852  0.1201
  214MOL0     H28227   2.202   6.089   2.051  1.9936  0.6758  2.4203
  214MOL0     H28228   1.898   6.127   2.070  0.1141 -0.9419  0.4570
  214MOL0     H28229   1.962   6.004   1.967 -1.6344 -0.6675  2.2248
  214MOL0     H28230   2.181   5.442   2.150 -1.2710 -1.6531 -1.4342
  214MOL0     H28231   2.165   5.215   2.040 -1.1722 -2.2595 -0.5961
  214MOL0     H28232   1.823   4.812   1.962  0.1155  1.9221 -1.7489
  214MOL0     H28233   1.843   4.640   1.793  2.9160 -2.6476 -3.6996
  214MOL0     H28234   2.815   3.395   0.715 -3.5977  0.8257  0.1466
  214MOL0     H28235   2.976   3.204   0.662  0.1543 -0.2900 -0.1595
  214MOL0     H28236   3.418   3.202   0.325  0.4109 -0.1021  2.0666
  214MOL0     H28237   3.586   3.043   0.283  0.2600 -1.4293  2.9949
  214MOL0     H28238   3.717   2.866   0.228 -0.6705  1.0378 -2.5755
  214MOL0     H28239   3.624   2.800   0.097 -1.3262  0.9398 -0.1087
  214MOL0     H28240   3.789   2.646   0.089 -1.0414 -2.6156  0.1742
  214MOL0     H28241   3.820   2.661   0.267  2.6512 -0.0238 -2.0214
  214MOL0     H28242   3.584   2.506   0.157 -1.1549  2.7911  1.9294
  214MOL0     H28243   3.637   2.516   0.323  1.0825  1.9967  0.7592
  214MOL0     H28244   3.785   2.378   0.102 -2.3791 -1.7242  0.6106
  214MOL0     H28245   3.875   2.424   0.240  1.1129  0.4202 -0.7840
  214MOL0     H28246   3.634   2.114   0.391 -1.6801  0.8704  0.8884
  214MOL0     H28247   3.262   2.742   0.280 -1.3554  0.7397  0.2926
  214MOL0     H28248   3.120   2.896   0.342  1.8550 -2.2429  3.2939
  215MOL0     O28249  10.892   3.024   3.647 -0.3977 -0.1992 -0.0444
  215MOL0     C28250  10.885   3.090   3.752 -0.3526 -0.1387 -0.4010
  215MOL0     O28251  10.992   3.151   3.807 -0.0593 -0.6812 -0.0908
  215MOL0     C28252  11.122   3.138   3.752 -0.4944 -0.0859  0.1434
  215MOL0     C28253  11.233   3.122   3.848 -0.4304  0.8304  0.5119
  215MOL0     C28254  11.362   3.092   3.786  0.0582 -0.3009  0.2411
  215MOL0     C28255  11.385   3.099   3.649 -0.3184 -0.3988  0.2370
  215MOL0     O28256  11.508   3.049   3.604 -0.0570 -0.2227 -0.7525
  215MOL0     C28257  11.579   3.136   3.506 -0.2427 -0.4698 -0.3662
  215MOL0     C28258  11.556   3.286   3.501  0.1742 -0.4923  0.3298
  215MOL0     C28259  11.596   3.357   3.634 -0.1311  0.4534 -0.3863
  215MOL0     C28260  11.526   3.489   3.653  0.1368  0.9584 -0.0591
  215MOL0     C28261  11.535   3.541   3.791  0.1140 -0.2752 -0.7418
  215MOL0     C28262  11.425   3.474   3.886 -0.3419  0.0818  0.1631
  215MOL0     C28263  11.391   3.570   3.996 -0.0946  0.0615 -0.1666
  215MOL0     C28264  11.508   3.602   4.087  1.5051 -0.2186  1.1578
  215MOL0     N28265  11.466   3.681   4.196  0.8726 -0.2332 -0.4943
  215MOL0     C28266  11.422   3.626   4.316 -0.6107  0.6378  1.0451
  215MOL0     C28267  11.405   3.728   4.397 -0.6087 -0.7618  0.1120
  215MOL0     C28268  11.352   3.712   4.538 -0.7868 -0.2849 -0.9965
  215MOL0     C28269  11.211   3.664   4.559 -0.4096 -0.0241 -0.1457
  215MOL0     C28270  11.111   3.780   4.534 -0.6259  0.0061 -0.5706
  215MOL0     C28271  10.970   3.747   4.487 -0.6909  0.3395  0.1617
  215MOL0     O28272  10.896   3.717   4.600 -0.4109  0.8458  0.1840
  215MOL0     C28273  10.761   3.724   4.603 -1.1623 -0.3886 -0.9219
  215MOL0     C28274  10.684   3.727   4.490 -0.0947  0.1021  0.3907
  215MOL0     C28275  10.541   3.756   4.499  0.1032  0.2609 -0.2918
  215MOL0     C28276  10.484   3.769   4.627 -0.0719  0.6475  0.3514
  215MOL0     C28277  10.345   3.793   4.653  0.0978 -0.2073  0.8890
  215MOL0     O28278  10.272   3.811   4.541  0.0188 -0.0575  0.7761
  215MOL0     C28279  10.146   3.862   4.536  0.3117 -0.5225 -0.0608
  215MOL0     C28280  10.109   3.915   4.413 -0.4290  0.9875  0.8021
  215MOL0     C28281   9.989   3.972   4.392  0.1696  0.1181  0.4507
  215MOL0     C28282   9.895   3.979   4.491 -0.5372 -0.5959  0.0851
  215MOL0     O28283   9.775   4.038   4.459 -0.3780  0.4359  0.7554
  215MOL0     C28284   9.753   4.169   4.514 -0.0723  0.6206 -0.4046
  215MOL0     C28285   9.635   4.245   4.459 -0.7355 -0.4179 -0.5334
  215MOL0     C28286   9.596   4.348   4.572 -0.0639  0.0887 -0.1418
  215MOL0     C28287   9.699   4.425   4.655 -0.4188 -0.1548  0.1119
  215MOL0     C28288   9.624   4.478   4.783 -0.1079  0.9206 -0.6108
  215MOL0     C28289   9.504   4.567   4.745 -0.3183 -0.3279 -0.3466
  215MOL0     C28290   9.439   4.619   4.875 -1.0931  0.7160  0.9668
  215MOL0     C28291   9.521   4.724   4.942 -0.5987  0.3960  0.6355
  215MOL0    Cl28292   9.430   4.785   5.084 -0.5918  0.0387 -0.4567
  215MOL0     C28293   9.931   3.934   4.623 -0.2175  0.5536  0.0762
  215MOL0     C28294  10.053   3.868   4.643  0.5969 -0.0765  0.8059
  215MOL0     O28295  10.298   3.783   4.764  0.4866  0.5966 -0.2172
  215MOL0     C28296  10.565   3.757   4.740 -0.9838 -0.3015 -0.4201
  215MOL0     C28297  10.703   3.733   4.732  0.7432 -0.4786 -0.0057
  215MOL0     N28298  11.448   3.849   4.334  0.6563  0.6271 -0.3325
  215MOL0     N28299  11.483   3.812   4.217  0.1073 -0.1713 -0.4522
  215MOL0     C28300  11.279   3.135   3.567 -0.5500 -1.0467 -0.2338
  215MOL0     C28301  11.148   3.153   3.615 -0.7874 -0.2443 -1.0912
  215MOL0     C28302  10.756   3.137   3.803 -0.0888 -0.0713 -0.7720
  215MOL0     C28303  10.742   3.207   3.923  0.1226 -0.1228  0.5426
  215MOL0     C28304  10.616   3.252   3.968 -0.5157  0.1131 -0.5796
  215MOL0     C28305  10.503   3.205   3.910 -0.6827  0.5563 -1.3112
  215MOL0     O28306  10.382   3.242   3.963 -1.0547  0.7684 -0.2569
  215MOL0     C28307  10.331   3.357   3.904  0.7335  1.2890  0.2754
  215MOL0     C28308  10.271   3.456   4.004 -0.0090  0.0222 -0.0275
  215MOL0     C28309  10.240   3.598   3.936 -0.1913 -0.0539  0.3321
  215MOL0     C28310  10.193   3.707   4.037  0.0848  0.2114  0.6700
  215MOL0     C28311  10.078   3.675   4.106 -0.0840  0.2986 -0.0129
  215MOL0     C28312   9.989   3.624   4.171 -0.0137 -0.4402 -0.0963
  215MOL0     C28313  10.518   3.122   3.795  0.4882  0.1264 -0.7448
  215MOL0     C28314  10.638   3.096   3.742  0.9334  0.0969  0.6641
  215MOL0     H28315  11.231   3.107   3.956  0.9513 -1.5831  0.2801
  215MOL0     H28316  11.460   3.079   3.831 -0.0055 -0.7235  0.2637
  215MOL0     H28317  11.560   3.100   3.404 -2.3256  1.4743 -0.7619
  215MOL0     H28318  11.684   3.128   3.532 -0.1601  0.4169 -0.4009
  215MOL0     H28319  11.451   3.299   3.474 -0.2415 -1.4606  1.4008
  215MOL0     H28320  11.619   3.330   3.424 -1.1910 -0.8189 -1.0282
  215MOL0     H28321  11.706   3.361   3.636 -0.0094 -0.9325 -1.8337
  215MOL0     H28322  11.570   3.291   3.717  2.7571  1.7808  1.7693
  215MOL0     H28323  11.577   3.552   3.580  1.4204 -0.5321 -0.5011
  215MOL0     H28324  11.421   3.477   3.625  0.4624  3.0812 -2.5664
  215MOL0     H28325  11.520   3.649   3.784  0.1314 -0.1570  0.7206
  215MOL0     H28326  11.629   3.537   3.848 -0.6345 -0.4328  0.5132
  215MOL0     H28327  11.456   3.376   3.922 -1.3648 -0.1903  0.3225
  215MOL0     H28328  11.330   3.446   3.839  0.3989 -2.8896  0.2514
  215MOL0     H28329  11.342   3.656   3.951  0.6781 -0.2955 -1.7376
  215MOL0     H28330  11.311   3.525   4.056 -2.6215  4.0761 -0.1887
  215MOL0     H28331  11.581   3.658   4.027 -0.3516  0.7591 -0.3002
  215MOL0     H28332  11.557   3.509   4.117  2.1357 -1.8700 -3.9770
  215MOL0     H28333  11.402   3.521   4.336 -0.3421  0.6568  1.4291
  215MOL0     H28334  11.361   3.810   4.586  2.6069 -0.7954 -0.3349
  215MOL0     H28335  11.417   3.649   4.600 -1.7605  3.0354  3.9482
  215MOL0     H28336  11.203   3.619   4.659 -1.6250  0.2836 -0.0862
  215MOL0     H28337  11.191   3.576   4.498 -0.8442 -1.4025  1.8990
  215MOL0     H28338  11.110   3.846   4.621  0.7107 -0.1999 -0.3759
  215MOL0     H28339  11.154   3.836   4.450 -0.7310  0.5955 -0.2383
  215MOL0     H28340  10.969   3.660   4.421 -0.3611  1.6009 -1.5724
  215MOL0     H28341  10.933   3.836   4.436  3.5427  2.3720  0.2246
  215MOL0     H28342  10.722   3.701   4.392 -0.0661  1.1617  0.1109
  215MOL0     H28343  10.475   3.747   4.414 -0.1415 -3.0344  0.1225
  215MOL0     H28344  10.180   3.879   4.339 -1.7796 -3.0985  1.2539
  215MOL0     H28345   9.970   4.010   4.292  2.0637  0.1412  0.0658
  215MOL0     H28346   9.842   4.233   4.506  0.5139  0.2114  2.0489
  215MOL0     H28347   9.732   4.147   4.619  2.3573 -2.6871 -0.4434
  215MOL0     H28348   9.550   4.176   4.456  0.4582 -2.1378  1.7859
  215MOL0     H28349   9.658   4.290   4.362  2.2293 -0.9574 -0.1583
  215MOL0     H28350   9.530   4.302   4.646 -1.4099 -1.6899 -2.3027
  215MOL0     H28351   9.540   4.428   4.524  0.0641  0.9310  1.0845
  215MOL0     H28352   9.785   4.368   4.691 -2.2322 -2.6048  0.7950
  215MOL0     H28353   9.742   4.495   4.583  1.8388 -0.4758  1.0745
  215MOL0     H28354   9.688   4.526   4.858 -1.1899  0.5355  0.6040
  215MOL0     H28355   9.596   4.387   4.837  1.8682 -0.1395 -1.2848
  215MOL0     H28356   9.425   4.514   4.691 -1.4472  2.6716 -1.8656
  215MOL0     H28357   9.536   4.655   4.689  0.2112  1.0809  2.0348
  215MOL0     H28358   9.344   4.670   4.854 -1.4243 -0.1028  0.4516
  215MOL0     H28359   9.408   4.536   4.939  0.9840 -0.7388  0.1915
  215MOL0     H28360   9.554   4.802   4.874  0.5717 -1.3259 -0.8731
  215MOL0     H28361   9.610   4.680   4.988 -1.3805 -0.3721  1.4479
  215MOL0     H28362   9.862   3.945   4.706 -1.6551 -0.5657 -0.9157
  215MOL0     H28363  10.086   3.832   4.740  1.5489  1.5542  1.1234
  215MOL0     H28364  10.526   3.758   4.842  1.3226  1.0000  0.5321
  215MOL0     H28365  10.765   3.750   4.820  1.1485  4.4431 -0.9327
  215MOL0     H28366  11.292   3.151   3.461  0.1081  2.9976  0.3024
  215MOL0     H28367  11.073   3.182   3.541 -0.9898 -0.9119 -1.1585
  215MOL0     H28368  10.834   3.239   3.973 -2.3585  1.5658  4.5475
  215MOL0     H28369  10.606   3.312   4.058  0.2310 -1.5454  0.6826
  215MOL0     H28370  10.260   3.323   3.828  3.3145 -0.8697 -1.3521
  215MOL0     H28371  10.407   3.413   3.848  0.7280  0.7880 -0.2349
  215MOL0     H28372  10.188   3.407   4.054 -1.6836  1.0481 -1.6553
  215MOL0     H28373  10.351   3.477   4.075 -1.9501 -0.0166  2.3121
  215MOL0     H28374  10.167   3.575   3.858 -1.0869  0.0136  1.1301
  215MOL0     H28375  10.332   3.633   3.887  0.5400 -2.3416 -0.0534
  215MOL0     H28376  10.270   3.719   4.115 -0.3911 -1.5631  1.4829
  215MOL0     H28377  10.168   3.802   3.990 -4.7883 -1.5418 -0.8921
  215MOL0     H28378   9.902   3.589   4.224  1.3036  0.7457  3.0977
  215MOL0     H28379  10.427   3.090   3.746 -0.2627 -0.1610  0.7881
  215MOL0     H28380  10.634   3.054   3.642 -1.3679  2.7066 -0.4532
  216MOL0     O28381   6.169   4.984   3.803  0.5687  0.1464 -0.1784
  216MOL0     C28382   6.263   4.977   3.884  1.0180  0.1421 -0.5316
  216MOL0     O28383   6.253   4.987   4.017  0.4583 -0.0230  0.1779
  216MOL0     C28384   6.138   5.014   4.088 -0.3706  0.0966  0.2114
  216MOL0     C28385   6.010   5.051   4.042  0.6702 -0.4901  0.2734
  216MOL0     C28386   5.912   5.070   4.123  0.4091 -0.2319 -0.4921
  216MOL0     C28387   5.921   5.047   4.262 -0.0938  0.4349 -0.7416
  216MOL0     O28388   5.811   5.036   4.337 -0.0369  0.5188  1.1509
  216MOL0     C28389   5.706   5.129   4.319 -0.2203 -0.4178  0.1509
  216MOL0     C28390   5.615   5.080   4.433 -1.0357 -0.8044  0.9981
  216MOL0     C28391   5.526   5.202   4.477  1.3909  0.3939 -0.4738
  216MOL0     C28392   5.395   5.196   4.396 -0.9446  0.2344  0.0777
  216MOL0     C28393   5.304   5.316   4.425  0.8034 -1.1872  0.4483
  216MOL0     C28394   5.240   5.294   4.557 -0.0269  0.2049 -0.5813
  216MOL0     C28395   5.140   5.401   4.605  0.0561 -0.0966  0.0691
  216MOL0     C28396   5.113   5.370   4.752  0.0753  1.0501  1.2187
  216MOL0     N28397   4.982   5.408   4.813 -0.2830 -0.3649  1.2473
  216MOL0     C28398   4.983   5.472   4.935 -0.8536 -1.1456  0.6002
  216MOL0     C28399   4.866   5.449   4.985 -0.4409 -0.4926 -0.2584
  216MOL0     C28400   4.818   5.509   5.111  0.5905  0.1473 -0.1410
  216MOL0     C28401   4.669   5.535   5.124 -0.6024 -0.4223  0.8399
  216MOL0     C28402   4.622   5.665   5.061  0.0370 -0.3784 -0.1528
  216MOL0     C28403   4.647   5.789   5.143  0.2771 -0.8145  0.2556
  216MOL0     O28404   4.585   5.915   5.111  0.2905  0.2186 -0.5923
  216MOL0     C28405   4.458   5.942   5.139  0.6318  0.7271 -0.3878
  216MOL0     C28406   4.406   6.070   5.111 -0.6548  0.6688 -0.1840
  216MOL0     C28407   4.269   6.100   5.149  0.8575 -0.2082  0.4836
  216MOL0     C28408   4.179   6.005   5.191  0.0274 -0.2185  0.1858
  216MOL0     C28409   4.037   6.039   5.213  0.6718  0.0327 -0.0133
  216MOL0     O28410   4.007   6.176   5.191  1.0322  0.4198  0.0774
  216MOL0     C28411   3.885   6.213   5.246 -0.1546 -0.0752  0.3531
  216MOL0     C28412   3.782   6.256   5.166 -0.4669  0.9874  0.8066
  216MOL0     C28413   3.648   6.268   5.212 -1.2798  0.7654  0.1250
  216MOL0     C28414   3.622   6.243   5.346  0.3213 -0.0370  0.0960
  216MOL0     O28415   3.499   6.246   5.414  0.0604 -0.3308 -0.1915
  216MOL0     C28416   3.386   6.284   5.334  0.5923 -0.3280  0.0763
  216MOL0     C28417   3.260   6.249   5.411  0.1878 -0.1354 -0.4677
  216MOL0     C28418   3.212   6.096   5.410  0.0095 -0.2518  0.1720
  216MOL0     C28419   3.079   6.087   5.485 -0.4209  0.2235  0.0211
  216MOL0     C28420   2.954   6.121   5.399  0.3376 -0.6079  0.1112
  216MOL0     C28421   2.824   6.137   5.476  0.1640  0.2550  0.3209
  216MOL0     C28422   2.713   6.207   5.399 -1.4090 -0.1707  0.8710
  216MOL0     C28423   2.603   6.227   5.499  0.4729 -0.1704 -0.8996
  216MOL0    Cl28424   2.441   6.274   5.424 -0.0055 -0.2253  0.6418
  216MOL0     C28425   3.734   6.204   5.425 -0.3903 -0.6546 -0.4851
  216MOL0     C28426   3.864   6.192   5.377 -0.1924 -0.9161  0.2135
  216MOL0     O28427   3.957   5.945   5.246  0.5319 -0.4919 -0.0644
  216MOL0     C28428   4.229   5.870   5.217  0.9833 -0.3141  0.0355
  216MOL0     C28429   4.373   5.847   5.200 -0.0329 -0.3436 -0.1020
  216MOL0     N28430   4.785   5.383   4.891 -0.2031  1.0636 -0.1269
  216MOL0     N28431   4.857   5.354   4.786  0.5339  0.2685  0.4073
  216MOL0     C28432   6.052   5.037   4.314 -0.3922 -0.0138  0.3039
  216MOL0     C28433   6.158   5.005   4.227  0.2319  0.6404 -0.9552
  216MOL0     C28434   6.392   4.912   3.844 -0.0025 -0.7793 -0.0311
  216MOL0     C28435   6.497   4.913   3.936 -0.7854 -0.1939  0.2518
  216MOL0     C28436   6.622   4.849   3.901 -0.1316 -0.7806 -0.5311
  216MOL0     C28437   6.636   4.790   3.777  0.2736 -0.0408 -0.3380
  216MOL0     O28438   6.749   4.731   3.736  0.2068  0.0115 -0.1466
  216MOL0     C28439   6.873   4.783   3.775  0.3612  0.0164 -1.3101
  216MOL0     C28440   6.995   4.740   3.693 -0.0036  0.3218 -1.1318
  216MOL0     C28441   6.945   4.689   3.552 -0.3675  0.0245 -0.0339
  216MOL0     C28442   7.066   4.694   3.456 -0.2985  0.0701 -0.3541
  216MOL0     C28443   7.027   4.647   3.325  0.0429  0.2500 -0.0299
  216MOL0     C28444   7.014   4.603   3.208  0.1485  0.7105  0.3461
  216MOL0     C28445   6.536   4.807   3.683  0.2331 -0.3949  0.3754
  216MOL0     C28446   6.413   4.866   3.716 -1.0459  0.2259 -0.5515
  216MOL0     H28447   6.001   5.083   3.938  5.1666  3.2662  0.6883
  216MOL0     H28448   5.816   5.099   4.082  0.0514  1.1776  1.2382
  216MOL0     H28449   5.649   5.130   4.226 -1.0515 -0.2979  0.6604
  216MOL0     H28450   5.743   5.230   4.338  0.5552 -0.7500  0.4851
  216MOL0     H28451   5.669   5.051   4.524  3.0149 -0.7734 -1.1389
  216MOL0     H28452   5.570   4.986   4.399  0.5578 -2.5588  3.4304
  216MOL0     H28453   5.574   5.300   4.468  0.1421  0.9259 -1.7935
  216MOL0     H28454   5.492   5.176   4.578 -0.4921 -0.1405 -1.1955
  216MOL0     H28455   5.425   5.200   4.291  2.1731 -0.7042  0.8456
  216MOL0     H28456   5.339   5.104   4.416 -0.2466 -0.0308  0.8694
  216MOL0     H28457   5.221   5.306   4.354 -0.9526 -0.3899  2.3001
  216MOL0     H28458   5.343   5.417   4.415 -3.2716  0.5475  0.2571
  216MOL0     H28459   5.311   5.281   4.638 -2.2521 -3.8211  0.9893
  216MOL0     H28460   5.192   5.197   4.570  0.8481 -0.3698 -1.5012
  216MOL0     H28461   5.188   5.499   4.605  0.1120 -0.0980  1.3386
  216MOL0     H28462   5.050   5.407   4.544  0.2839  3.5559 -0.1044
  216MOL0     H28463   5.181   5.419   4.821 -3.1775  1.9962  4.0441
  216MOL0     H28464   5.115   5.261   4.765  0.4753  0.9237  0.1762
  216MOL0     H28465   5.048   5.550   4.974 -1.1777 -1.2128  1.2834
  216MOL0     H28466   4.890   5.586   5.140  0.9671 -0.4502  0.5267
  216MOL0     H28467   4.847   5.429   5.179  2.2510 -0.2904 -1.3020
  216MOL0     H28468   4.645   5.533   5.231 -3.1179  0.8734  0.3932
  216MOL0     H28469   4.614   5.453   5.077  1.4025 -2.7817  2.3955
  216MOL0     H28470   4.663   5.689   4.962 -1.2988  2.6670 -0.0926
  216MOL0     H28471   4.514   5.663   5.043 -0.4415  2.4053  1.8076
  216MOL0     H28472   4.753   5.815   5.140 -0.0012  0.5291  1.1176
  216MOL0     H28473   4.652   5.757   5.248  2.5125 -2.1011 -0.1740
  216MOL0     H28474   4.475   6.149   5.082  0.6536  0.3705  1.8722
  216MOL0     H28475   4.227   6.195   5.117 -2.5681 -1.7292  0.0923
  216MOL0     H28476   3.796   6.261   5.058 -2.1348 -0.5002  0.4623
  216MOL0     H28477   3.572   6.293   5.138 -1.8419 -3.1429 -0.8303
  216MOL0     H28478   3.381   6.228   5.240 -1.7399 -0.2306  0.1083
  216MOL0     H28479   3.380   6.388   5.303  0.4397 -0.4931 -0.4574
  216MOL0     H28480   3.169   6.289   5.366 -0.2816 -2.4627 -1.8023
  216MOL0     H28481   3.265   6.288   5.513 -1.2457 -1.1186  0.0123
  216MOL0     H28482   3.280   6.029   5.463 -0.1156  0.4693  1.2749
  216MOL0     H28483   3.220   6.053   5.310  0.5796  2.6357 -1.1297
  216MOL0     H28484   3.065   5.986   5.525  0.5295  0.1695  0.2361
  216MOL0     H28485   3.084   6.149   5.575 -1.0085  2.1322 -1.2031
  216MOL0     H28486   2.947   6.060   5.308  0.9653  1.6099 -1.5137
  216MOL0     H28487   2.969   6.218   5.352 -2.1916 -1.2416 -2.2230
  216MOL0     H28488   2.858   6.199   5.560  1.3772  0.2925 -0.1741
  216MOL0     H28489   2.811   6.031   5.501 -1.9736 -0.7575 -4.1845
  216MOL0     H28490   2.749   6.303   5.363  1.4512 -0.8596  1.6287
  216MOL0     H28491   2.668   6.148   5.319 -2.1925  0.4150  0.8640
  216MOL0     H28492   2.625   6.306   5.572  0.9926 -1.7465  0.6963
  216MOL0     H28493   2.587   6.141   5.564  2.8125  1.4335  2.0406
  216MOL0     H28494   3.702   6.172   5.524  0.6314 -4.9053 -1.3476
  216MOL0     H28495   3.936   6.146   5.444  0.9172  0.3080 -0.1135
  216MOL0     H28496   4.161   5.804   5.271  0.4807  2.0974  2.5564
  216MOL0     H28497   4.402   5.749   5.236  3.5894  0.1892 -1.1843
  216MOL0     H28498   6.078   5.029   4.419  1.6025  2.7162  0.1196
  216MOL0     H28499   6.251   4.965   4.264 -0.3828  0.2294  0.1757
  216MOL0     H28500   6.482   4.954   4.035 -1.1963 -0.2962  0.2359
  216MOL0     H28501   6.704   4.852   3.973 -1.4498 -1.7569  1.0780
  216MOL0     H28502   6.887   4.759   3.881  0.2980 -2.1193 -1.7477
  216MOL0     H28503   6.869   4.893   3.774 -3.2002  0.0374 -0.0402
  216MOL0     H28504   7.068   4.820   3.689  0.4813 -0.1707 -2.9167
  216MOL0     H28505   7.043   4.658   3.748 -1.6022  1.6892  2.6471
  216MOL0     H28506   6.860   4.752   3.523 -2.4284 -2.1198  1.0328
  216MOL0     H28507   6.914   4.584   3.560  2.9866 -1.2285 -1.7933
  216MOL0     H28508   7.114   4.793   3.457 -0.1206  0.1407 -3.8199
  216MOL0     H28509   7.137   4.617   3.487 -0.9268  0.1689  1.4320
  216MOL0     H28510   7.004   4.558   3.111 -2.2635 -1.9454  1.6870
  216MOL0     H28511   6.555   4.779   3.580  0.3284  1.7084 -0.2333
  216MOL0     H28512   6.329   4.865   3.647 -1.3957 -0.0800 -0.1263
  217MOL0     O28513   6.751   2.099   1.867 -0.0419 -0.0930 -0.4272
  217MOL0     C28514   6.802   2.192   1.806 -0.2982 -0.3445 -0.5631
  217MOL0     O28515   6.744   2.281   1.725  0.5463 -0.2418 -0.7647
  217MOL0     C28516   6.609   2.268   1.700 -0.4894  0.3129  0.4511
  217MOL0     C28517   6.561   2.171   1.607 -0.4728 -0.3356 -0.5106
  217MOL0     C28518   6.423   2.180   1.564 -0.0556 -0.4509 -0.0550
  217MOL0     C28519   6.337   2.290   1.604  0.3045 -0.5792  0.5364
  217MOL0     O28520   6.206   2.293   1.565  0.1457 -0.7192  0.1011
  217MOL0     C28521   6.169   2.367   1.452  0.0503 -1.1173 -0.3226
  217MOL0     C28522   6.113   2.503   1.483  0.1257  0.4552  0.0514
  217MOL0     C28523   5.970   2.519   1.434  0.2640  0.5577  0.0218
  217MOL0     C28524   5.927   2.655   1.475  0.7246 -0.6047  0.6979
  217MOL0     C28525   5.804   2.713   1.390  0.1066 -0.1004 -0.7806
  217MOL0     C28526   5.665   2.655   1.418  0.7354  0.7337 -0.0978
  217MOL0     C28527   5.597   2.714   1.541  0.0307 -0.1578  0.7514
  217MOL0     C28528   5.464   2.640   1.593 -0.4192 -0.2710  0.6926
  217MOL0     N28529   5.505   2.517   1.668  1.0823 -0.0812 -0.1623
  217MOL0     C28530   5.555   2.397   1.610 -0.0224 -0.1764 -0.0620
  217MOL0     C28531   5.567   2.315   1.723 -0.3314  0.2533  0.6989
  217MOL0     C28532   5.631   2.172   1.704 -0.7207 -1.4956 -0.6152
  217MOL0     C28533   5.598   2.080   1.820  0.2422  0.8392  0.1627
  217MOL0     C28534   5.688   2.097   1.944 -0.2188  0.6905  0.1880
  217MOL0     C28535   5.688   1.963   2.019 -0.5730 -0.2272  0.3123
  217MOL0     O28536   5.554   1.904   2.046 -0.7418  0.2554  0.2303
  217MOL0     C28537   5.456   1.958   2.120  0.8796 -1.2443 -0.5365
  217MOL0     C28538   5.457   2.057   2.216 -0.0809 -0.8622 -0.5452
  217MOL0     C28539   5.351   2.104   2.285 -0.0026 -0.2768  0.3387
  217MOL0     C28540   5.229   2.035   2.277  0.5579 -0.2206  0.2043
  217MOL0     C28541   5.105   2.079   2.347  0.1716  0.0214  0.4023
  217MOL0     O28542   5.124   2.162   2.450  0.2027  0.3686 -0.6181
  217MOL0     C28543   5.016   2.215   2.515 -0.6600 -0.0580  0.3222
  217MOL0     C28544   4.883   2.229   2.486  0.5267  1.3278 -0.1315
  217MOL0     C28545   4.793   2.271   2.586 -0.3214 -0.3701 -0.4900
  217MOL0     C28546   4.837   2.324   2.710  0.1817  0.0375  0.3450
  217MOL0     O28547   4.754   2.392   2.797  0.5937 -0.1494  0.6388
  217MOL0     C28548   4.809   2.506   2.867 -0.0202 -0.7192  1.3256
  217MOL0     C28549   4.700   2.559   2.969 -0.9753 -0.3474 -0.4933
  217MOL0     C28550   4.562   2.589   2.914  0.9254  0.4832 -0.2088
  217MOL0     C28551   4.572   2.683   2.798 -0.1689  0.0878 -0.0081
  217MOL0     C28552   4.459   2.756   2.732  0.2242  0.4418  0.1804
  217MOL0     C28553   4.346   2.656   2.711 -0.2902 -1.2169 -0.1168
  217MOL0     C28554   4.265   2.702   2.589  0.1135 -0.2516  0.4892
  217MOL0     C28555   4.154   2.600   2.548  0.5461  0.5858  0.7799
  217MOL0    Cl28556   4.245   2.463   2.461  0.2943 -0.0943  0.1290
  217MOL0     C28557   4.977   2.326   2.732 -0.4444  0.0068  1.0496
  217MOL0     C28558   5.062   2.266   2.639  0.5359  0.0740 -0.3118
  217MOL0     O28559   4.996   2.036   2.312 -0.1359 -0.4432  0.4059
  217MOL0     C28560   5.220   1.934   2.167 -0.8187 -0.4140  0.2586
  217MOL0     C28561   5.332   1.904   2.090 -0.7894 -0.2563  0.6655
  217MOL0     N28562   5.533   2.386   1.838 -0.3236  0.1756  0.9856
  217MOL0     N28563   5.495   2.505   1.801 -0.9548 -0.4445  0.4070
  217MOL0     C28564   6.396   2.382   1.682 -0.1704  0.1262  0.1635
  217MOL0     C28565   6.528   2.373   1.730  0.3608 -0.2602 -0.4778
  217MOL0     C28566   6.947   2.203   1.833 -0.0822  0.2123 -0.4504
  217MOL0     C28567   7.020   2.318   1.799 -0.6800  0.1126 -0.1493
  217MOL0     C28568   7.150   2.341   1.824 -0.2969 -0.0587 -0.4900
  217MOL0     C28569   7.229   2.245   1.876  0.3391  0.6541 -1.1500
  217MOL0     O28570   7.369   2.266   1.888 -0.2873  0.9094 -0.0814
  217MOL0     C28571   7.421   2.195   2.004  0.1822 -0.3940 -0.5088
  217MOL0     C28572   7.530   2.276   2.067 -0.2464  0.2478 -0.4684
  217MOL0     C28573   7.488   2.398   2.151  0.3300  0.5594  0.1193
  217MOL0     C28574   7.611   2.501   2.177  0.3566  0.0878  0.2876
  217MOL0     C28575   7.704   2.522   2.064 -0.1734 -0.1827 -0.0192
  217MOL0     C28576   7.776   2.559   1.972 -0.4819  0.0850  0.6558
  217MOL0     C28577   7.171   2.118   1.905 -0.3216 -0.2395  0.1311
  217MOL0     C28578   7.030   2.099   1.899  1.1916 -0.7959  0.4289
  217MOL0     H28579   6.628   2.091   1.579 -0.4088 -0.5300  0.1852
  217MOL0     H28580   6.375   2.095   1.516 -2.8201  0.9980 -0.0086
  217MOL0     H28581   6.096   2.304   1.400 -1.4735  0.2782  0.0404
  217MOL0     H28582   6.250   2.380   1.380 -2.1423  0.3110 -2.6980
  217MOL0     H28583   6.173   2.585   1.442 -1.1586  0.9475 -0.9220
  217MOL0     H28584   6.093   2.513   1.590  0.8368  0.6820  0.1637
  217MOL0     H28585   5.915   2.433   1.473  0.6632 -0.1200 -0.8692
  217MOL0     H28586   5.975   2.520   1.324  1.6114  0.8156  0.0673
  217MOL0     H28587   5.884   2.647   1.575 -2.7696 -1.6759 -0.7105
  217MOL0     H28588   6.013   2.722   1.470  0.5138 -0.2423  1.7102
  217MOL0     H28589   5.823   2.710   1.283 -0.6590 -3.4190 -0.9311
  217MOL0     H28590   5.797   2.816   1.426  3.3678 -0.4072  1.1074
  217MOL0     H28591   5.679   2.550   1.445  2.5407  1.7230  3.2775
  217MOL0     H28592   5.602   2.668   1.329 -0.3411 -1.4346  0.2762
  217MOL0     H28593   5.666   2.731   1.624 -1.9230  0.3031  2.3342
  217MOL0     H28594   5.570   2.814   1.507  0.9340  0.8859  2.9190
  217MOL0     H28595   5.423   2.594   1.502 -0.1080  0.4087  0.1948
  217MOL0     H28596   5.390   2.695   1.651  0.3471  0.0995  1.3425
  217MOL0     H28597   5.580   2.386   1.505 -0.4010  1.6436 -0.3877
  217MOL0     H28598   5.739   2.173   1.691 -0.5171  0.4745  0.7375
  217MOL0     H28599   5.586   2.129   1.614  0.2978  1.9133 -2.9711
  217MOL0     H28600   5.607   1.974   1.796 -1.5951  0.5774  0.4621
  217MOL0     H28601   5.495   2.101   1.850 -0.7118  1.4731 -3.0964
  217MOL0     H28602   5.789   2.114   1.907  0.3486 -2.0673  0.2631
  217MOL0     H28603   5.661   2.175   2.015 -0.1122  0.8755  0.0235
  217MOL0     H28604   5.739   1.974   2.115 -0.1758  0.1596  0.0590
  217MOL0     H28605   5.742   1.893   1.954 -0.9966 -2.4752  2.2542
  217MOL0     H28606   5.552   2.104   2.239 -1.4385  0.1178  4.0412
  217MOL0     H28607   5.363   2.186   2.355 -0.5050 -0.0042  0.1154
  217MOL0     H28608   4.843   2.208   2.387 -0.9638  0.2499  0.6689
  217MOL0     H28609   4.686   2.259   2.572 -0.1133 -2.0961 -0.9442
  217MOL0     H28610   4.832   2.587   2.796  0.9010 -1.9225  0.1831
  217MOL0     H28611   4.902   2.478   2.916  0.8592 -0.5515 -0.1775
  217MOL0     H28612   4.726   2.656   3.012 -0.5515 -0.9367  0.5991
  217MOL0     H28613   4.698   2.486   3.050  0.0983 -0.1333 -0.2630
  217MOL0     H28614   4.501   2.629   2.995 -1.4149 -0.1766 -1.5448
  217MOL0     H28615   4.505   2.503   2.877  2.5670 -1.0324  0.6679
  217MOL0     H28616   4.650   2.757   2.819  0.6120  0.1197 -2.6274
  217MOL0     H28617   4.623   2.626   2.719  1.4850  2.2524 -0.6102
  217MOL0     H28618   4.489   2.803   2.638 -2.0421  1.4214 -0.1320
  217MOL0     H28619   4.414   2.833   2.796 -0.7863 -1.8488  2.3933
  217MOL0     H28620   4.282   2.647   2.799 -1.8171  0.4926 -0.9896
  217MOL0     H28621   4.395   2.561   2.687  0.5506 -0.3150 -2.2078
  217MOL0     H28622   4.214   2.791   2.629  2.1420 -0.4269  3.8800
  217MOL0     H28623   4.337   2.720   2.508 -0.6559  1.0428  0.0622
  217MOL0     H28624   4.083   2.637   2.474  2.0745  1.7446 -0.1829
  217MOL0     H28625   4.096   2.558   2.631 -2.3221  2.3459 -0.1766
  217MOL0     H28626   5.032   2.355   2.821 -0.1067  0.6896  0.6330
  217MOL0     H28627   5.169   2.285   2.646  0.5658  0.4962 -1.5571
  217MOL0     H28628   5.131   1.877   2.142 -0.0885 -2.0108  1.1077
  217MOL0     H28629   5.325   1.818   2.025 -1.8621  1.5010 -1.6637
  217MOL0     H28630   6.346   2.462   1.737  0.8808  1.1819 -0.3679
  217MOL0     H28631   6.563   2.453   1.794  2.0532 -0.6062 -0.8942
  217MOL0     H28632   6.959   2.395   1.753 -2.4303 -0.8196  0.5382
  217MOL0     H28633   7.206   2.431   1.800  2.0710 -1.3082  0.0245
  217MOL0     H28634   7.457   2.097   1.969 -1.7463 -1.0462 -0.7954
  217MOL0     H28635   7.352   2.176   2.086  0.7091 -1.5830 -0.3131
  217MOL0     H28636   7.594   2.231   2.143 -0.4173  0.3768 -0.2485
  217MOL0     H28637   7.598   2.303   1.985 -0.3205 -0.9944 -0.9640
  217MOL0     H28638   7.461   2.353   2.246 -4.6878  0.1859 -1.1866
  217MOL0     H28639   7.398   2.442   2.108 -0.1436 -0.6465 -0.1590
  217MOL0     H28640   7.575   2.595   2.221  1.7904  0.3771  0.8901
  217MOL0     H28641   7.682   2.465   2.252 -0.7498  1.2797  1.9763
  217MOL0     H28642   7.833   2.580   1.884  0.5021 -0.9373  1.0158
  217MOL0     H28643   7.232   2.037   1.942  2.3497  2.2906  1.7707
  217MOL0     H28644   6.983   2.006   1.928  3.9754 -2.1346  1.0349
  218MOL0     O28645   1.012   5.637   3.154 -0.1556  0.7952 -0.2760
  218MOL0     C28646   1.132   5.627   3.177 -0.3564 -0.4085 -0.8124
  218MOL0     O28647   1.220   5.519   3.155 -0.0438  0.1122  0.4721
  218MOL0     C28648   1.170   5.413   3.080 -0.7368  0.9294 -0.9530
  218MOL0     C28649   1.106   5.427   2.956 -0.0898  0.1793 -0.5842
  218MOL0     C28650   1.045   5.322   2.891 -0.3144  0.3027  0.6179
  218MOL0     C28651   1.074   5.191   2.928 -0.3173  0.1383 -0.9010
  218MOL0     O28652   1.029   5.082   2.865  0.1401  0.1813  0.1387
  218MOL0     C28653   0.898   5.086   2.802 -0.0520  1.0213  0.0377
  218MOL0     C28654   0.872   4.943   2.746 -0.7607 -0.2420 -0.7251
  218MOL0     C28655   0.734   4.928   2.677 -1.1553 -0.6658  0.1837
  218MOL0     C28656   0.749   4.971   2.539 -0.1863 -0.0023  0.7835
  218MOL0     C28657   0.620   5.029   2.490  0.6821 -0.6049  0.1000
  218MOL0     C28658   0.634   5.097   2.348 -0.2912 -0.3255 -0.4343
  218MOL0     C28659   0.496   5.143   2.288 -0.3449 -0.0639 -0.9696
  218MOL0     C28660   0.496   5.145   2.125 -0.7900  0.4428 -0.5832
  218MOL0     N28661   0.570   5.259   2.063 -0.1676 -0.2889  0.2323
  218MOL0     C28662   0.704   5.264   2.037  0.2119  0.8971 -0.3047
  218MOL0     C28663   0.731   5.382   1.987  0.9602 -0.0335  0.1128
  218MOL0     C28664   0.878   5.419   1.961 -0.2779 -0.2889  0.3757
  218MOL0     C28665   0.927   5.557   1.925  0.5482 -0.6880  0.4120
  218MOL0     C28666   0.930   5.656   2.033 -0.0725 -0.3695 -0.5175
  218MOL0     C28667   0.826   5.657   2.139 -0.2448 -0.0765  0.1262
  218MOL0     O28668   0.864   5.556   2.245 -0.1848  0.1430  0.0241
  218MOL0     C28669   0.766   5.527   2.336  0.1675 -0.0940 -0.0213
  218MOL0     C28670   0.640   5.589   2.334 -0.2589 -1.4976  0.8874
  218MOL0     C28671   0.540   5.555   2.426  0.2740 -0.6618  0.4158
  218MOL0     C28672   0.568   5.462   2.526 -0.4979  0.1770  0.2038
  218MOL0     C28673   0.458   5.440   2.626  0.6599  0.3400  0.6668
  218MOL0     O28674   0.487   5.326   2.698 -0.0495 -0.6381 -0.2181
  218MOL0     C28675   0.417   5.283   2.809 -0.2602 -0.1765 -0.3609
  218MOL0     C28676   0.415   5.147   2.837  0.0314 -0.0429 -0.6291
  218MOL0     C28677   0.344   5.101   2.950  0.0634  0.3392  0.1170
  218MOL0     C28678   0.289   5.175   3.045  0.2064 -0.4671  0.8045
  218MOL0     O28679   0.238   5.125   3.164  0.5805  0.8360 -0.0871
  218MOL0     C28680   0.122   5.042   3.149  0.0683 -0.4598 -0.4534
  218MOL0     C28681   0.031   5.049   3.273  0.0373 -0.4428 -0.2053
  218MOL0     C28682   0.089   4.987   3.405  0.4965 -0.3063  0.6320
  218MOL0     C28683   0.007   5.004   3.536 -0.3498  0.2598 -0.4739
  218MOL0     C28684   0.056   4.924   3.657 -0.4866 -0.2871  0.0959
  218MOL0     C28685   0.195   4.992   3.712  0.7463 -0.1225 -0.5928
  218MOL0     C28686   0.248   4.899   3.826 -0.5729  0.6511  0.6985
  218MOL0     C28687   0.398   4.927   3.847 -0.6062  1.0019  0.3916
  218MOL0    Cl28688   0.421   5.096   3.889 -0.2823  0.4116 -0.0280
  218MOL0     C28689   0.306   5.316   3.022  0.2043  0.6339  0.2700
  218MOL0     C28690   0.359   5.368   2.902  0.8354 -0.2071 -0.7210
  218MOL0     O28691   0.377   5.533   2.655  0.8988  0.3466 -0.4055
  218MOL0     C28692   0.700   5.399   2.532  0.6755  0.9682 -0.6479
  218MOL0     C28693   0.791   5.433   2.436 -0.5678 -1.2408 -0.3364
  218MOL0     N28694   0.608   5.443   1.962  0.0553  0.3192 -1.3017
  218MOL0     N28695   0.517   5.374   2.016 -0.1020  0.4904 -0.0223
  218MOL0     C28696   1.138   5.168   3.047  0.3743 -0.4996 -0.8384
  218MOL0     C28697   1.189   5.280   3.125 -0.1266  0.1181 -0.0809
  218MOL0     C28698   1.202   5.752   3.218  0.1518  0.6008  0.4740
  218MOL0     C28699   1.125   5.876   3.207  0.0924  1.0196  0.5474
  218MOL0     C28700   1.187   5.998   3.244 -1.4452 -0.6472 -0.1281
  218MOL0     C28701   1.323   5.996   3.284 -0.1095 -1.3344 -0.2013
  218MOL0     O28702   1.388   6.121   3.309  0.0296  0.1145  0.0284
  218MOL0     C28703   1.522   6.117   3.357  0.2370  0.7838  0.5398
  218MOL0     C28704   1.546   6.256   3.426 -0.0703  0.6016  0.5455
  218MOL0     C28705   1.564   6.380   3.332  0.8384 -0.1140  0.1202
  218MOL0     C28706   1.596   6.493   3.423 -0.1549  0.1991 -0.2547
  218MOL0     C28707   1.608   6.616   3.346  0.1559 -0.5084  0.7172
  218MOL0     C28708   1.606   6.704   3.265 -0.0518 -0.2710  0.4690
  218MOL0     C28709   1.394   5.876   3.285  0.5065  0.2034  1.2532
  218MOL0     C28710   1.331   5.751   3.254  0.3368  0.2684  0.2133
  218MOL0     H28711   1.099   5.531   2.924 -0.2788 -0.1963 -1.8323
  218MOL0     H28712   0.995   5.361   2.803 -1.1748  0.3277  1.1078
  218MOL0     H28713   0.884   5.165   2.729 -0.2278  2.1721  1.2737
  218MOL0     H28714   0.820   5.108   2.875 -1.3859  0.2451 -1.1207
  218MOL0     H28715   0.876   4.877   2.833  2.1577 -0.7045 -1.1123
  218MOL0     H28716   0.951   4.915   2.675  1.4283 -0.2820  1.5647
  218MOL0     H28717   0.656   4.994   2.715  0.0553  1.9270 -1.5229
  218MOL0     H28718   0.695   4.826   2.678 -2.7107 -0.1440  2.6714
  218MOL0     H28719   0.832   5.042   2.530  1.4658 -1.5507  2.6102
  218MOL0     H28720   0.781   4.881   2.483  2.0377  0.3143  1.4324
  218MOL0     H28721   0.580   5.110   2.552  0.4644  1.6404 -2.7279
  218MOL0     H28722   0.538   4.957   2.496 -1.4435  1.6260 -0.4446
  218MOL0     H28723   0.674   5.031   2.270  1.1847  0.3564 -0.2854
  218MOL0     H28724   0.710   5.172   2.374  1.3859 -2.0514 -0.1210
  218MOL0     H28725   0.409   5.082   2.312 -2.6178  3.1158 -0.3823
  218MOL0     H28726   0.485   5.247   2.321  0.4156 -0.2753 -0.0421
  218MOL0     H28727   0.392   5.148   2.091 -1.5274  1.7373  1.6035
  218MOL0     H28728   0.536   5.046   2.101 -2.3785 -0.2973 -0.3372
  218MOL0     H28729   0.781   5.189   2.052  1.7838  1.9759 -2.3916
  218MOL0     H28730   0.921   5.346   1.892 -0.3207  0.8863 -0.9441
  218MOL0     H28731   0.923   5.405   2.060 -0.2311 -2.3708  0.1048
  218MOL0     H28732   0.856   5.591   1.848  2.7827  0.8298 -1.0943
  218MOL0     H28733   1.022   5.546   1.872 -0.1084 -1.2669 -0.6942
  218MOL0     H28734   1.029   5.668   2.077 -0.6853  1.5291  0.4824
  218MOL0     H28735   0.913   5.752   1.982 -1.3325 -0.5643 -0.4896
  218MOL0     H28736   0.727   5.633   2.101  0.6297 -1.1393 -1.5924
  218MOL0     H28737   0.818   5.756   2.184  0.6894 -0.3067  0.8399
  218MOL0     H28738   0.623   5.672   2.265  1.8087  0.2738  2.3490
  218MOL0     H28739   0.450   5.615   2.426  1.7375  1.6452 -0.4814
  218MOL0     H28740   0.470   5.085   2.766  0.8605  1.7258 -1.5777
  218MOL0     H28741   0.335   4.993   2.959  2.3860 -0.0488 -1.3837
  218MOL0     H28742   0.159   4.941   3.133  0.8072 -0.6923  2.2211
  218MOL0     H28743   0.068   5.093   3.069  2.4221  1.0582 -1.1885
  218MOL0     H28744  -0.056   4.989   3.243  2.1966 -2.9241 -1.9893
  218MOL0     H28745  -0.001   5.149   3.303  0.0489 -0.5865  0.2983
  218MOL0     H28746   0.184   5.039   3.422  1.5419 -1.8080 -0.4327
  218MOL0     H28747   0.115   4.882   3.394  1.3789 -0.1741  1.3280
  218MOL0     H28748  -0.003   5.111   3.557  0.8457  0.6651 -1.8280
  218MOL0     H28749  -0.092   4.963   3.518  0.5677 -1.4791 -1.8779
  218MOL0     H28750   0.066   4.819   3.626  0.6600 -0.1100 -0.1681
  218MOL0     H28751  -0.018   4.925   3.737 -1.4464 -1.2741 -0.7368
  218MOL0     H28752   0.182   5.095   3.749  0.8985 -0.4067  0.2569
  218MOL0     H28753   0.256   4.991   3.621  0.2046 -1.0596 -0.9536
  218MOL0     H28754   0.201   4.921   3.922 -1.1873  0.1931  0.5078
  218MOL0     H28755   0.218   4.797   3.802 -2.1501  1.3925 -0.7591
  218MOL0     H28756   0.463   4.896   3.764 -3.5884 -1.5031 -1.2010
  218MOL0     H28757   0.430   4.874   3.937  1.5479  0.2618 -0.7327
  218MOL0     H28758   0.266   5.380   3.100  0.9968  2.8162 -1.0279
  218MOL0     H28759   0.351   5.475   2.889 -1.8158 -0.0628  1.1698
  218MOL0     H28760   0.706   5.321   2.608 -3.6953  3.6758  2.9463
  218MOL0     H28761   0.896   5.404   2.446 -0.0773  0.5533  0.1819
  218MOL0     H28762   1.155   5.067   3.084  1.5677  0.1862  0.6125
  218MOL0     H28763   1.256   5.262   3.208 -3.8904 -2.4996  2.7668
  218MOL0     H28764   1.022   5.889   3.177  0.8423  0.2457 -2.7325
  218MOL0     H28765   1.134   6.092   3.241  1.0142  0.9312  1.7494
  218MOL0     H28766   1.604   6.098   3.287 -0.4301  2.6317 -0.8352
  218MOL0     H28767   1.524   6.046   3.440 -2.6295  2.4677  2.1918
  218MOL0     H28768   1.473   6.281   3.503  0.9434  1.7106  1.1855
  218MOL0     H28769   1.646   6.246   3.470  0.7705  2.8666 -0.6942
  218MOL0     H28770   1.479   6.393   3.263  1.2981  0.6775 -0.3155
  218MOL0     H28771   1.656   6.361   3.277  1.1883  0.4887  0.4845
  218MOL0     H28772   1.519   6.500   3.500  2.3275  0.4161  2.3379
  218MOL0     H28773   1.691   6.468   3.470  0.7455 -0.9909 -2.5383
  218MOL0     H28774   1.615   6.789   3.200 -0.6938 -0.8913 -0.4617
  218MOL0     H28775   1.500   5.862   3.306  1.3531  0.7849 -2.0245
  218MOL0     H28776   1.384   5.657   3.265 -0.5897  0.0173  3.7661
  219MOL0     O28777   2.873   9.401   8.350 -0.2653  0.3550 -0.3649
  219MOL0     C28778   2.973   9.322   8.347  0.9230 -0.0988 -0.0302
  219MOL0     O28779   2.963   9.187   8.317 -0.1359 -0.2961 -0.2955
  219MOL0     C28780   2.847   9.141   8.265  0.0862 -0.1385  0.2981
  219MOL0     C28781   2.838   9.113   8.131  0.9260  0.7197  0.1873
  219MOL0     C28782   2.731   9.060   8.064 -1.0321 -0.7422 -0.4769
  219MOL0     C28783   2.616   9.027   8.139 -0.0183  0.5824  0.0886
  219MOL0     O28784   2.495   8.971   8.106  0.2147  0.7848  0.1469
  219MOL0     C28785   2.488   8.916   7.975 -0.2950 -0.2167  0.2437
  219MOL0     C28786   2.359   8.835   7.958 -0.2545 -0.2568 -0.4147
  219MOL0     C28787   2.307   8.844   7.819 -0.1886 -0.0522  0.2639
  219MOL0     C28788   2.193   8.743   7.791 -0.2110  0.2528 -0.3136
  219MOL0     C28789   2.056   8.810   7.781 -0.2095  0.2266 -1.0022
  219MOL0     C28790   1.960   8.727   7.693  0.2421  0.5653 -0.5529
  219MOL0     C28791   1.905   8.616   7.770  0.1818  0.4257  0.1987
  219MOL0     C28792   1.781   8.537   7.704 -0.1739 -0.4872  0.3801
  219MOL0     N28793   1.755   8.426   7.793  1.2385  1.0758 -0.6961
  219MOL0     C28794   1.692   8.459   7.912 -0.1342  0.4189  0.1352
  219MOL0     C28795   1.636   8.343   7.951  0.5760  0.2052 -1.1327
  219MOL0     C28796   1.563   8.312   8.082 -0.1631 -0.3113 -0.7353
  219MOL0     C28797   1.461   8.423   8.097  0.1801  0.6342  1.0977
  219MOL0     C28798   1.367   8.416   8.214  0.4054  0.0898 -0.5548
  219MOL0     C28799   1.280   8.296   8.218  0.5383  0.0890 -0.1654
  219MOL0     O28800   1.220   8.299   8.091 -0.3958  0.6293  0.1448
  219MOL0     C28801   1.089   8.269   8.079 -0.1894  0.0363  0.0147
  219MOL0     C28802   1.030   8.320   7.960 -0.5578  0.0071 -0.5094
  219MOL0     C28803   0.890   8.304   7.944  0.1348  0.2061 -0.1153
  219MOL0     C28804   0.810   8.227   8.031  0.5449  0.2584 -0.1510
  219MOL0     C28805   0.663   8.200   8.004 -0.4258  0.3137 -0.4688
  219MOL0     O28806   0.618   8.261   7.904 -0.0671 -0.3963  0.0574
  219MOL0     C28807   0.489   8.263   7.854 -0.3850 -0.2097 -0.2581
  219MOL0     C28808   0.479   8.287   7.714 -0.2836  0.0220  0.4090
  219MOL0     C28809   0.353   8.299   7.661 -0.6176 -0.0774  0.2582
  219MOL0     C28810   0.228   8.278   7.738  0.6422 -0.1831  1.3073
  219MOL0     O28811   0.107   8.298   7.675 -0.3948 -0.0872 -0.1157
  219MOL0     C28812   0.015   8.379   7.758  0.3476  0.8619  0.0879
  219MOL0     C28813  -0.095   8.435   7.672  0.9095 -0.2048 -0.2012
  219MOL0     C28814  -0.209   8.497   7.758  0.1845  0.4305  0.6296
  219MOL0     C28815  -0.342   8.511   7.680 -0.1856  0.0205 -0.1935
  219MOL0     C28816  -0.433   8.637   7.716  0.3116 -0.0887  0.4147
  219MOL0     C28817  -0.565   8.629   7.634  0.1045  0.1683  0.2738
  219MOL0     C28818  -0.640   8.762   7.633  0.0750 -0.3242 -0.1182
  219MOL0     C28819  -0.789   8.752   7.577  0.2024  0.6683  1.4356
  219MOL0    Cl28820  -0.788   8.672   7.410  0.4170  0.2880 -0.3947
  219MOL0     C28821   0.243   8.244   7.873 -0.1585 -0.4488  0.6702
  219MOL0     C28822   0.369   8.246   7.928 -0.1919 -0.1133 -0.4230
  219MOL0     O28823   0.609   8.109   8.065 -0.1709  0.2278 -0.8907
  219MOL0     C28824   0.879   8.181   8.145  0.3681 -0.3081 -0.4270
  219MOL0     C28825   1.011   8.196   8.161 -0.7595 -0.5351 -0.1033
  219MOL0     N28826   1.651   8.255   7.849  0.0035 -0.2769 -0.8176
  219MOL0     N28827   1.723   8.298   7.747  0.1387  0.0787 -0.0341
  219MOL0     C28828   2.616   9.057   8.281  0.0366  0.6267  0.7499
  219MOL0     C28829   2.734   9.112   8.335  0.3992 -0.4644  0.6224
  219MOL0     C28830   3.100   9.386   8.404  0.2333  0.8384  1.0329
  219MOL0     C28831   3.209   9.299   8.452  0.6030  0.2143  0.6122
  219MOL0     C28832   3.322   9.358   8.499  0.1003  0.2007  0.0008
  219MOL0     C28833   3.337   9.498   8.493 -1.0723 -0.6862 -0.7831
  219MOL0     O28834   3.451   9.567   8.518  0.0334  1.0111  0.4336
  219MOL0     C28835   3.527   9.520   8.623  0.2246  0.7325  0.1454
  219MOL0     C28836   3.651   9.446   8.576  0.3151  0.0797  0.5661
  219MOL0     C28837   3.708   9.497   8.443 -0.6802 -0.6462 -0.0217
  219MOL0     C28838   3.853   9.450   8.423 -0.3774  0.4149 -0.1169
  219MOL0     C28839   3.902   9.510   8.301  0.1316  0.9306  0.3087
  219MOL0     C28840   3.954   9.556   8.200 -0.4489 -0.2007 -0.0145
  219MOL0     C28841   3.232   9.573   8.453 -0.4793  0.0730  0.0453
  219MOL0     C28842   3.116   9.521   8.410 -0.5700 -0.3703 -1.4996
  219MOL0     H28843   2.924   9.133   8.067  1.2147  1.2265  0.7227
  219MOL0     H28844   2.720   9.046   7.957 -1.3498  0.2193 -0.5731
  219MOL0     H28845   2.576   8.856   7.949  0.9161  1.8726 -0.7380
  219MOL0     H28846   2.481   9.003   7.910 -1.6594 -0.5090 -0.0323
  219MOL0     H28847   2.281   8.872   8.025 -0.0504  2.6003 -1.6077
  219MOL0     H28848   2.380   8.728   7.968  0.1320  0.0123  2.4533
  219MOL0     H28849   2.393   8.823   7.755 -1.4857  0.1369 -1.6172
  219MOL0     H28850   2.283   8.948   7.793  2.7994  0.9147  0.9604
  219MOL0     H28851   2.221   8.692   7.698  1.8458 -1.1180  0.9730
  219MOL0     H28852   2.198   8.667   7.869 -0.1415 -1.0480 -1.5524
  219MOL0     H28853   2.069   8.911   7.740  0.1701  1.5537  2.1138
  219MOL0     H28854   2.025   8.822   7.885  1.3312 -1.9193 -0.2211
  219MOL0     H28855   2.000   8.691   7.598 -2.5991 -1.7091 -1.0291
  219MOL0     H28856   1.872   8.791   7.676 -2.7575 -3.4952 -1.8909
  219MOL0     H28857   1.987   8.548   7.795  2.0616  3.5649  3.4940
  219MOL0     H28858   1.868   8.653   7.865  3.6532 -0.1256  1.9132
  219MOL0     H28859   1.806   8.489   7.609  1.8334  0.3489  0.4281
  219MOL0     H28860   1.693   8.599   7.693 -0.4774 -1.2683 -2.3254
  219MOL0     H28861   1.686   8.552   7.967 -1.3273  0.2908  0.2439
  219MOL0     H28862   1.633   8.320   8.166 -2.2624  2.3213  0.9522
  219MOL0     H28863   1.503   8.220   8.077 -0.4444 -0.0484 -2.8813
  219MOL0     H28864   1.402   8.431   8.005 -1.1541 -0.7820  1.7927
  219MOL0     H28865   1.514   8.518   8.102 -1.7323  1.7928  0.4855
  219MOL0     H28866   1.425   8.427   8.307  3.6312  2.7770 -2.6284
  219MOL0     H28867   1.295   8.499   8.209 -2.3794 -2.1190  0.3668
  219MOL0     H28868   1.209   8.301   8.301  0.9971  1.2366  0.1791
  219MOL0     H28869   1.348   8.210   8.231 -2.5573 -2.5572 -0.2490
  219MOL0     H28870   1.090   8.373   7.888 -0.2256  1.1120  0.5443
  219MOL0     H28871   0.844   8.352   7.858 -0.6773 -0.9589 -0.3566
  219MOL0     H28872   0.572   8.308   7.661  0.9103 -1.0759  1.9662
  219MOL0     H28873   0.329   8.322   7.558  0.5467 -1.9429 -0.4714
  219MOL0     H28874   0.061   8.466   7.806 -0.0621 -1.2019  4.7590
  219MOL0     H28875  -0.031   8.325   7.842  1.6177  0.1307  0.3407
  219MOL0     H28876  -0.144   8.358   7.612 -1.3411 -0.1918  1.4452
  219MOL0     H28877  -0.062   8.516   7.607  1.6338 -0.9029 -0.7062
  219MOL0     H28878  -0.171   8.590   7.801  0.8939 -0.2067  1.4131
  219MOL0     H28879  -0.227   8.427   7.840  1.0328 -3.7878 -2.4545
  219MOL0     H28880  -0.309   8.513   7.575  0.6295 -0.4751  0.0488
  219MOL0     H28881  -0.405   8.426   7.707  3.5034 -2.6319  0.6350
  219MOL0     H28882  -0.387   8.736   7.707 -2.6142  1.3567  0.3691
  219MOL0     H28883  -0.458   8.631   7.822  4.0844  0.5828  1.4992
  219MOL0     H28884  -0.635   8.559   7.681  0.7843  0.8105  2.3192
  219MOL0     H28885  -0.545   8.593   7.533 -2.8835 -0.3721 -0.2233
  219MOL0     H28886  -0.643   8.806   7.732 -0.0247 -0.0218 -0.2558
  219MOL0     H28887  -0.592   8.828   7.560  0.7517 -0.5980  0.0720
  219MOL0     H28888  -0.839   8.848   7.559 -1.1815 -0.6187 -3.1915
  219MOL0     H28889  -0.844   8.685   7.643  1.2703  0.1305  1.8005
  219MOL0     H28890   0.161   8.220   7.941 -0.4151  0.6264  0.7576
  219MOL0     H28891   0.359   8.218   8.032  0.8822 -3.6076 -1.0969
  219MOL0     H28892   0.822   8.126   8.219 -0.3544 -0.6198 -1.1979
  219MOL0     H28893   1.046   8.158   8.257  0.0950  0.8630  0.1783
  219MOL0     H28894   2.525   9.057   8.341  0.0167  0.6024  0.7199
  219MOL0     H28895   2.732   9.122   8.443 -3.1645 -1.0458  0.7263
  219MOL0     H28896   3.199   9.196   8.420 -1.4598  1.2431 -2.4822
  219MOL0     H28897   3.414   9.301   8.509 -1.0527 -1.7605 -0.0644
  219MOL0     H28898   3.468   9.474   8.703 -0.9989 -0.0251 -1.1484
  219MOL0     H28899   3.564   9.618   8.654  0.3920  1.0099 -0.9169
  219MOL0     H28900   3.731   9.456   8.650  1.4321 -1.9959 -0.2461
  219MOL0     H28901   3.634   9.338   8.583  1.6121 -0.1242  0.9534
  219MOL0     H28902   3.709   9.604   8.463  2.6899 -0.5841  0.0973
  219MOL0     H28903   3.650   9.464   8.357 -1.0411  0.0354 -0.0462
  219MOL0     H28904   3.916   9.490   8.503 -0.7839  2.0971 -0.5914
  219MOL0     H28905   3.860   9.341   8.420 -0.7491  0.3953 -0.3465
  219MOL0     H28906   3.999   9.589   8.109  0.5536 -0.2614  0.4452
  219MOL0     H28907   3.251   9.680   8.459 -0.6905  0.0431  1.6689
  219MOL0     H28908   3.040   9.596   8.389  1.9195  2.4894 -1.1152
  220MOL0     O28909  10.062  10.265   3.542 -0.7384 -0.0399  0.4412
  220MOL0     C28910  10.145  10.324   3.608  0.0257  0.5013  0.1791
  220MOL0     O28911  10.280  10.347   3.572  0.6979 -0.1777  0.1897
  220MOL0     C28912  10.337  10.282   3.463  0.0697 -0.0442 -0.7919
  220MOL0     C28913  10.305  10.317   3.325 -0.1390 -0.5495 -0.5772
  220MOL0     C28914  10.351  10.241   3.217  0.3712 -0.4456 -0.4078
  220MOL0     C28915  10.409  10.116   3.246  0.3188  0.2029 -0.1429
  220MOL0     O28916  10.448  10.022   3.149 -0.4660  0.3413  0.1715
  220MOL0     C28917  10.379  10.026   3.020  0.6467  0.4911  0.5525
  220MOL0     C28918  10.357   9.876   2.970  0.7678  0.0500  1.0398
  220MOL0     C28919  10.487   9.834   2.898 -0.2825  0.1179  1.0567
  220MOL0     C28920  10.505   9.682   2.924 -1.2977  0.4164  0.0416
  220MOL0     C28921  10.383   9.608   2.856  0.3691  0.5956 -0.6699
  220MOL0     C28922  10.404   9.456   2.861  0.4301 -0.4353  0.7778
  220MOL0     C28923  10.414   9.401   3.002  0.8153 -0.5796 -0.1418
  220MOL0     C28924  10.365   9.260   3.000  0.1386  0.4461  0.0985
  220MOL0     N28925  10.325   9.216   3.139 -0.3069  0.3364 -0.1067
  220MOL0     C28926  10.204   9.243   3.198  0.0854  1.2520  0.3133
  220MOL0     C28927  10.227   9.179   3.318  0.0138  0.2430 -0.1858
  220MOL0     C28928  10.137   9.209   3.433 -0.3598  1.2359  0.0515
  220MOL0     C28929  10.005   9.123   3.429 -0.0747  0.2084  0.3807
  220MOL0     C28930   9.952   9.090   3.573 -0.4845  0.3821  0.4537
  220MOL0     C28931   9.841   8.995   3.576 -0.0296  0.0680  0.2787
  220MOL0     O28932   9.866   8.869   3.514  0.6367  0.1011 -0.0953
  220MOL0     C28933   9.767   8.771   3.516 -0.0224 -1.0785 -0.8513
  220MOL0     C28934   9.796   8.649   3.464 -0.1064 -0.1962  0.5494
  220MOL0     C28935   9.694   8.551   3.459  0.2710 -0.6078  0.0295
  220MOL0     C28936   9.563   8.569   3.513  0.6773 -0.5920 -0.2487
  220MOL0     C28937   9.469   8.450   3.523 -1.3125 -0.2459 -0.2779
  220MOL0     O28938   9.381   8.433   3.628 -0.3623 -0.3901  0.4062
  220MOL0     C28939   9.309   8.316   3.617 -0.1181  0.1099  0.2157
  220MOL0     C28940   9.175   8.332   3.623  0.6692  0.2109 -0.1858
  220MOL0     C28941   9.084   8.222   3.625  0.2645 -0.6461  0.4177
  220MOL0     C28942   9.142   8.097   3.621 -0.3135  0.1311  0.4918
  220MOL0     O28943   9.069   7.985   3.605 -0.1209 -0.6002  0.5686
  220MOL0     C28944   8.928   7.988   3.584 -0.4018 -0.0296 -0.0845
  220MOL0     C28945   8.852   8.013   3.712 -0.7986  0.3442 -1.1109
  220MOL0     C28946   8.857   7.883   3.796  0.6889 -0.1834 -0.6024
  220MOL0     C28947   8.759   7.888   3.912 -0.0136  1.7006  0.2982
  220MOL0     C28948   8.734   7.751   3.981 -0.6211  0.3566 -0.3747
  220MOL0     C28949   8.851   7.659   4.009 -0.0329 -0.2275 -0.3044
  220MOL0     C28950   8.953   7.735   4.099  0.4322  0.3507 -1.0306
  220MOL0     C28951   9.058   7.637   4.168  0.4985  0.2926 -0.1358
  220MOL0    Cl28952   9.163   7.742   4.269 -0.5664  0.4265  0.5350
  220MOL0     C28953   9.277   8.080   3.605  0.0937  0.1826  0.5787
  220MOL0     C28954   9.362   8.189   3.607  0.9178  1.0422 -0.2236
  220MOL0     O28955   9.484   8.371   3.432  0.5428 -0.6700  0.3739
  220MOL0     C28956   9.537   8.693   3.570  0.9532  0.1096 -0.0248
  220MOL0     C28957   9.633   8.791   3.577  0.2910 -0.0547  0.3905
  220MOL0     N28958  10.349   9.106   3.326 -0.1325 -0.0235 -0.5407
  220MOL0     N28959  10.406   9.129   3.214  0.1647  0.1929 -0.2539
  220MOL0     C28960  10.424  10.081   3.377  0.0415 -0.0913  0.1621
  220MOL0     C28961  10.396  10.162   3.486  0.5216 -0.3129  0.7959
  220MOL0     C28962  10.112  10.365   3.740 -0.4087 -0.8621 -0.2575
  220MOL0     C28963  10.217  10.373   3.841 -0.6737  0.4607  0.4433
  220MOL0     C28964  10.178  10.425   3.961  0.3060 -0.5998 -0.1589
  220MOL0     C28965  10.046  10.466   3.988 -0.2281 -0.1683 -0.4211
  220MOL0     O28966  10.013  10.528   4.109 -0.1096 -0.5072  0.4106
  220MOL0     C28967  10.014  10.448   4.227  0.3660  0.0167 -0.2246
  220MOL0     C28968   9.993  10.543   4.334  0.2563 -0.2970 -0.0004
  220MOL0     C28969  10.127  10.597   4.383  0.6046 -0.9427 -0.4255
  220MOL0     C28970  10.184  10.707   4.286  0.6407  0.7898 -0.4453
  220MOL0     C28971  10.289  10.799   4.333  0.8325 -0.0309  0.0993
  220MOL0     C28972  10.365  10.873   4.397 -1.0449 -1.2046  0.1601
  220MOL0     C28973   9.946  10.456   3.898 -0.4851 -0.3571  0.4532
  220MOL0     C28974   9.978  10.412   3.768 -0.1712  0.3298 -1.1979
  220MOL0     H28975  10.271  10.419   3.311  1.7327  0.5325  1.9463
  220MOL0     H28976  10.341  10.259   3.110 -3.9005  1.1192  0.0492
  220MOL0     H28977  10.440  10.088   2.953 -1.3776  0.7205 -1.2132
  220MOL0     H28978  10.277  10.061   3.041 -0.2119 -2.7045  2.4965
  220MOL0     H28979  10.274   9.870   2.899  1.1163 -0.8681  0.6947
  220MOL0     H28980  10.330   9.810   3.053  0.6644 -0.6413  0.4700
  220MOL0     H28981  10.567   9.895   2.941 -3.0945  2.3629  3.4570
  220MOL0     H28982  10.487   9.867   2.793  0.9663  1.5925  1.4785
  220MOL0     H28983  10.593   9.640   2.875 -1.4733 -0.8310  0.7677
  220MOL0     H28984  10.513   9.671   3.032  2.2284  0.1109 -0.1546
  220MOL0     H28985  10.368   9.639   2.753 -1.7815 -0.5541 -0.7543
  220MOL0     H28986  10.292   9.634   2.911 -1.6700 -0.2537 -3.4285
  220MOL0     H28987  10.488   9.419   2.801 -1.3153 -1.2580 -1.2861
  220MOL0     H28988  10.317   9.411   2.813  1.7106 -3.2973  0.9452
  220MOL0     H28989  10.511   9.416   3.050  0.9451 -2.6193  0.3179
  220MOL0     H28990  10.341   9.453   3.064  2.1781 -0.0747  1.1143
  220MOL0     H28991  10.446   9.193   2.971  0.5078  0.3891  1.1896
  220MOL0     H28992  10.274   9.247   2.940 -0.0372 -0.5001  0.5468
  220MOL0     H28993  10.111   9.283   3.159 -0.8862 -0.2718  0.9793
  220MOL0     H28994  10.118   9.317   3.433  3.8629  2.1363  1.0724
  220MOL0     H28995  10.201   9.189   3.519  0.0089 -1.4000 -0.7535
  220MOL0     H28996  10.011   9.027   3.377  0.1337 -0.5846  1.8030
  220MOL0     H28997   9.921   9.171   3.378 -0.9785  0.3216  1.9243
  220MOL0     H28998  10.043   9.055   3.623 -0.5892  0.4050  0.6612
  220MOL0     H28999   9.929   9.187   3.619  1.4592  0.4865  1.3206
  220MOL0     H29000   9.747   9.038   3.540 -0.9998  0.4481  2.9767
  220MOL0     H29001   9.822   8.984   3.684 -1.4618  2.4285  0.3490
  220MOL0     H29002   9.895   8.634   3.423 -0.5556 -2.5455  0.2115
  220MOL0     H29003   9.725   8.454   3.422  0.2385 -0.0814 -1.4232
  220MOL0     H29004   9.139   8.434   3.624  0.5681  0.2135  2.1322
  220MOL0     H29005   8.978   8.247   3.620 -0.4095 -3.1721  0.4479
  220MOL0     H29006   8.886   7.900   3.536  1.1280 -2.0881  2.1344
  220MOL0     H29007   8.910   8.069   3.512  2.5285  0.1100 -0.8208
  220MOL0     H29008   8.749   8.037   3.685  0.0975  2.5947 -2.8138
  220MOL0     H29009   8.899   8.092   3.772 -0.4669  0.6454 -1.7673
  220MOL0     H29010   8.958   7.849   3.820  0.0338 -2.2479 -0.5513
  220MOL0     H29011   8.815   7.805   3.731  0.2543 -2.1435  1.8734
  220MOL0     H29012   8.800   7.952   3.990  0.7384  2.6476 -0.8371
  220MOL0     H29013   8.663   7.925   3.875 -1.4000 -2.0073 -0.3131
  220MOL0     H29014   8.667   7.688   3.921  2.4765 -2.6229 -1.0345
  220MOL0     H29015   8.687   7.778   4.075  0.0676 -1.5041  0.5479
  220MOL0     H29016   8.897   7.622   3.917 -0.8186  0.5516 -1.0340
  220MOL0     H29017   8.809   7.565   4.047  0.2702 -2.0629 -4.0733
  220MOL0     H29018   9.008   7.815   4.051 -1.3522  2.0486 -0.3807
  220MOL0     H29019   8.895   7.780   4.180  0.8134  0.6440 -0.9208
  220MOL0     H29020   9.122   7.591   4.092  1.9133  0.7903  0.7085
  220MOL0     H29021   9.005   7.562   4.227  3.5648 -0.3135  2.0874
  220MOL0     H29022   9.336   7.988   3.606  3.4604  2.1830 -0.0277
  220MOL0     H29023   9.468   8.164   3.599  0.8053  0.0370  1.1232
  220MOL0     H29024   9.445   8.694   3.628  0.6797 -1.7100 -0.3706
  220MOL0     H29025   9.601   8.877   3.635 -1.6867 -0.8800  0.6144
  220MOL0     H29026  10.445   9.977   3.401  0.8904  0.4976  2.1476
  220MOL0     H29027  10.414  10.126   3.586 -1.8759 -0.1845  1.3171
  220MOL0     H29028  10.319  10.342   3.820 -0.3903  1.5040  0.2461
  220MOL0     H29029  10.258  10.432   4.034 -0.0643  4.5131  0.1658
  220MOL0     H29030  10.103  10.385   4.237 -0.9774 -1.7609  1.4263
  220MOL0     H29031   9.928  10.381   4.219 -0.0627  0.7569 -2.8055
  220MOL0     H29032   9.919  10.623   4.321  0.1875 -0.3110  0.2832
  220MOL0     H29033   9.943  10.491   4.416  1.6917 -0.2166  0.9693
  220MOL0     H29034  10.210  10.527   4.398  3.3219  1.7952 -1.4985
  220MOL0     H29035  10.115  10.654   4.476 -1.9558 -1.7281 -0.1921
  220MOL0     H29036  10.228  10.663   4.196  0.1201  0.4921 -0.5592
  220MOL0     H29037  10.096  10.760   4.248 -0.0126  1.1913  1.4744
  220MOL0     H29038  10.443  10.922   4.452  1.4885 -1.3547 -2.9867
  220MOL0     H29039   9.846  10.484   3.929 -0.1178  0.6914  0.7412
  220MOL0     H29040   9.898  10.413   3.694 -1.1374 -1.9813 -0.3027
  221MOL0     O29041   0.475   1.845   4.567 -0.7971  0.0107 -0.3253
  221MOL0     C29042   0.523   1.939   4.508  0.4387  0.4319  0.4697
  221MOL0     O29043   0.643   1.990   4.531 -0.3833 -0.0007  0.2468
  221MOL0     C29044   0.740   1.947   4.615 -0.8321 -1.0244 -0.0530
  221MOL0     C29045   0.853   2.037   4.613  0.0163  0.6192 -0.2439
  221MOL0     C29046   0.966   1.997   4.692  0.3151 -0.4247 -0.4520
  221MOL0     C29047   0.969   1.885   4.774 -0.1158 -0.5971 -0.6179
  221MOL0     O29048   1.086   1.857   4.846 -0.1368 -0.1050  0.1888
  221MOL0     C29049   1.191   1.817   4.751  0.8270  0.3826  0.1521
  221MOL0     C29050   1.147   1.712   4.649  1.4239  0.1248  0.0346
  221MOL0     C29051   1.248   1.644   4.561 -0.7854 -0.3352  0.2800
  221MOL0     C29052   1.331   1.747   4.480 -0.9267  1.0915  0.2998
  221MOL0     C29053   1.417   1.660   4.381 -0.1234  0.0312  0.6637
  221MOL0     C29054   1.351   1.638   4.238  0.5183  0.6977 -0.4164
  221MOL0     C29055   1.224   1.558   4.243 -0.2637 -0.6709  0.1504
  221MOL0     C29056   1.172   1.543   4.095  0.4833  0.0939 -0.7138
  221MOL0     N29057   1.051   1.460   4.117 -0.6937  0.5664 -0.0009
  221MOL0     C29058   0.925   1.509   4.115  0.2000 -0.2585 -0.4099
  221MOL0     C29059   0.848   1.399   4.103 -0.5718 -0.1573  0.2524
  221MOL0     C29060   0.701   1.410   4.098  0.2966  0.6440 -0.2441
  221MOL0     C29061   0.641   1.324   3.984 -0.5973 -0.0946  0.4637
  221MOL0     C29062   0.495   1.374   3.948  0.7808 -0.0936  0.4914
  221MOL0     C29063   0.424   1.277   3.850 -0.6217  1.0983  0.1821
  221MOL0     O29064   0.460   1.303   3.716 -0.1267 -0.0270  1.3021
  221MOL0     C29065   0.459   1.200   3.627 -0.8955 -0.0988 -0.2765
  221MOL0     C29066   0.568   1.174   3.544  1.1798 -0.7974 -0.0010
  221MOL0     C29067   0.569   1.075   3.447 -0.1361 -0.8351 -0.2041
  221MOL0     C29068   0.459   0.990   3.427 -1.3205 -0.2187  0.1803
  221MOL0     C29069   0.454   0.885   3.317  0.7594  0.2300  0.1959
  221MOL0     O29070   0.328   0.837   3.283 -0.9407 -0.5242  0.6517
  221MOL0     C29071   0.307   0.729   3.203  1.2447 -0.9210 -0.7128
  221MOL0     C29072   0.365   0.719   3.074 -0.3759 -0.3003 -0.4251
  221MOL0     C29073   0.333   0.615   2.985  0.2457  0.5553  0.9640
  221MOL0     C29074   0.249   0.517   3.028  1.6184 -0.2658 -0.5487
  221MOL0     O29075   0.207   0.410   2.954 -0.0087 -0.2741 -0.4259
  221MOL0     C29076   0.303   0.359   2.862  0.1721 -0.8032  0.1142
  221MOL0     C29077   0.243   0.283   2.737  0.7360  0.1066 -1.0164
  221MOL0     C29078   0.342   0.188   2.675 -0.3749  0.1540  0.4536
  221MOL0     C29079   0.307   0.157   2.529 -0.9247 -0.8163  0.2319
  221MOL0     C29080   0.409   0.055   2.469  0.3797 -1.0803 -0.0599
  221MOL0     C29081   0.374   0.048   2.317  0.3322  0.2602 -0.2710
  221MOL0     C29082   0.481  -0.052   2.264 -0.8569 -0.4169  0.8090
  221MOL0     C29083   0.461  -0.098   2.121  0.0160 -0.4317 -0.6371
  221MOL0    Cl29084   0.581  -0.213   2.087  0.1786  0.0379  0.4081
  221MOL0     C29085   0.186   0.534   3.153  1.3115  1.4296 -0.7906
  221MOL0     C29086   0.212   0.638   3.247  0.0848  0.0819 -0.2195
  221MOL0     O29087   0.557   0.856   3.260  0.7594  0.1019  0.0946
  221MOL0     C29088   0.345   1.013   3.507  0.1293  0.1801 -0.1324
  221MOL0     C29089   0.343   1.124   3.594 -0.0661 -0.2603  0.0575
  221MOL0     N29090   0.939   1.288   4.103  0.5351  0.5048  0.1099
  221MOL0     N29091   1.056   1.327   4.111 -0.4737  0.6291  0.7480
  221MOL0     C29092   0.849   1.809   4.785 -0.1590 -0.3069  0.2839
  221MOL0     C29093   0.738   1.833   4.700 -0.2051 -0.5946  0.0395
  221MOL0     C29094   0.439   2.024   4.420 -0.4068 -0.1773  0.2578
  221MOL0     C29095   0.501   2.123   4.342 -0.1806 -0.5655 -0.4911
  221MOL0     C29096   0.436   2.206   4.249  0.2403  0.0601 -0.9070
  221MOL0     C29097   0.295   2.194   4.243  0.8382  0.6453  0.7254
  221MOL0     O29098   0.216   2.266   4.158 -0.2018  0.2680  0.2073
  221MOL0     C29099   0.247   2.402   4.135 -0.1495  0.3617  0.0724
  221MOL0     C29100   0.167   2.483   4.226 -0.0433 -0.8823 -0.2023
  221MOL0     C29101   0.009   2.458   4.210 -0.5832  0.1359 -0.3909
  221MOL0     C29102  -0.045   2.423   4.071 -0.5603  0.8887  0.5223
  221MOL0     C29103  -0.192   2.378   4.080 -0.1065 -0.3931 -0.8634
  221MOL0     C29104  -0.305   2.329   4.073 -0.9645  0.1256 -0.1013
  221MOL0     C29105   0.235   2.093   4.322  0.0947 -0.0695  0.4859
  221MOL0     C29106   0.302   2.013   4.410 -0.8776  0.1109 -0.7271
  221MOL0     H29107   0.862   2.119   4.542 -2.3612  0.9120 -0.2781
  221MOL0     H29108   1.053   2.062   4.689 -0.3415  1.0306  4.1484
  221MOL0     H29109   1.279   1.787   4.810 -0.3974 -0.9368  1.3690
  221MOL0     H29110   1.227   1.899   4.688  0.2673  3.2515  3.2510
  221MOL0     H29111   1.075   1.760   4.583 -0.2674  1.5833  2.7419
  221MOL0     H29112   1.091   1.640   4.710 -0.6615  3.3999  2.3220
  221MOL0     H29113   1.211   1.574   4.486  3.0169 -1.4997 -0.7543
  221MOL0     H29114   1.324   1.584   4.611  0.5463 -0.8587 -2.2042
  221MOL0     H29115   1.277   1.822   4.421  1.6554  2.3611 -0.6059
  221MOL0     H29116   1.399   1.806   4.542  0.8877 -0.0889 -0.4965
  221MOL0     H29117   1.450   1.569   4.432  0.9454  1.0724  1.9101
  221MOL0     H29118   1.516   1.705   4.367 -1.1867  1.5600 -3.4763
  221MOL0     H29119   1.421   1.584   4.174 -1.0224  0.6628 -2.1391
  221MOL0     H29120   1.327   1.738   4.201  1.0031  1.8053  2.0364
  221MOL0     H29121   1.231   1.459   4.287 -0.9509 -1.5925 -1.7040
  221MOL0     H29122   1.148   1.614   4.300  0.5284 -0.5344  1.1052
  221MOL0     H29123   1.243   1.489   4.033  2.3651  1.5466  0.0873
  221MOL0     H29124   1.143   1.628   4.033  3.3971  1.3529 -0.4799
  221MOL0     H29125   0.888   1.611   4.110 -0.1400 -0.4270 -1.5991
  221MOL0     H29126   0.668   1.512   4.079 -0.5097  0.0570 -2.3133
  221MOL0     H29127   0.666   1.384   4.198  1.1492 -0.4466 -0.2035
  221MOL0     H29128   0.649   1.217   4.007  1.2797 -0.4693 -1.6142
  221MOL0     H29129   0.704   1.336   3.896  0.3396  0.0722  1.1402
  221MOL0     H29130   0.427   1.377   4.034 -0.2161  0.1540 -0.2812
  221MOL0     H29131   0.486   1.481   3.925 -1.1673 -0.0675  1.1834
  221MOL0     H29132   0.315   1.266   3.859 -0.8191  0.1943 -2.4388
  221MOL0     H29133   0.464   1.178   3.874  0.9494  2.0054  1.4761
  221MOL0     H29134   0.650   1.244   3.551  1.0854 -0.7041  0.1840
  221MOL0     H29135   0.643   1.071   3.369 -1.8824 -0.3437 -1.9651
  221MOL0     H29136   0.422   0.805   3.038 -0.6076  0.1946  0.3540
  221MOL0     H29137   0.371   0.620   2.884  2.1632 -0.2635  1.5920
  221MOL0     H29138   0.371   0.291   2.916  2.5736 -1.4839 -3.3432
  221MOL0     H29139   0.379   0.431   2.828 -0.4781  1.4932  3.1710
  221MOL0     H29140   0.206   0.359   2.667  0.9725  0.4041 -0.8181
  221MOL0     H29141   0.154   0.227   2.767  1.1954 -0.4879 -0.7378
  221MOL0     H29142   0.356   0.096   2.733 -0.2798 -0.8105 -1.0658
  221MOL0     H29143   0.438   0.240   2.669 -0.0345 -0.4379  0.6352
  221MOL0     H29144   0.202   0.131   2.514 -1.7218  3.0176 -2.4244
  221MOL0     H29145   0.310   0.252   2.474  2.6027 -0.2068  1.2166
  221MOL0     H29146   0.393  -0.043   2.515  0.1857 -0.4780  1.1927
  221MOL0     H29147   0.511   0.089   2.489  0.0623  1.0219 -1.6342
  221MOL0     H29148   0.390   0.148   2.276  1.1775 -1.0279 -3.4300
  221MOL0     H29149   0.273   0.016   2.291  1.0439 -0.6157 -2.1538
  221MOL0     H29150   0.579  -0.004   2.255 -0.1090 -1.8259  0.9804
  221MOL0     H29151   0.493  -0.135   2.334 -0.9909 -0.2827  0.9905
  221MOL0     H29152   0.463  -0.004   2.065 -1.4727 -0.8984 -1.5244
  221MOL0     H29153   0.362  -0.140   2.099 -0.9216  0.6711  1.2494
  221MOL0     H29154   0.121   0.458   3.195  2.0367 -0.0107 -2.2077
  221MOL0     H29155   0.172   0.648   3.348 -4.1598 -0.7128 -1.6074
  221MOL0     H29156   0.247   0.966   3.503  0.5538 -0.9943  2.0249
  221MOL0     H29157   0.254   1.152   3.649 -0.9823 -1.1517 -0.9081
  221MOL0     H29158   0.854   1.730   4.859  0.7166 -0.7440 -0.2227
  221MOL0     H29159   0.640   1.788   4.714 -0.2547 -0.4440  0.1792
  221MOL0     H29160   0.608   2.140   4.353 -0.4697 -0.2305  2.6157
  221MOL0     H29161   0.512   2.272   4.208  0.1041  2.8239  2.7639
  221MOL0     H29162   0.211   2.415   4.033  0.5182 -1.5769 -0.4601
  221MOL0     H29163   0.352   2.424   4.156 -0.7376 -0.0133  4.1867
  221MOL0     H29164   0.203   2.462   4.328  1.8977  4.0544  0.4561
  221MOL0     H29165   0.189   2.591   4.224 -0.4693 -0.7741  0.5729
  221MOL0     H29166  -0.040   2.549   4.244  0.4539 -0.0311  1.7139
  221MOL0     H29167  -0.017   2.374   4.276  1.3340  0.0021  0.2551
  221MOL0     H29168  -0.026   2.491   3.987 -1.2193 -2.9099 -3.0425
  221MOL0     H29169   0.003   2.333   4.032  1.4895  0.4824  3.6622
  221MOL0     H29170  -0.392   2.267   4.077  0.7281 -2.3173  2.8830
  221MOL0     H29171   0.128   2.079   4.308  0.1373 -1.0742  1.0270
  221MOL0     H29172   0.251   1.936   4.467 -0.7827  1.6925  1.6407
  222MOL0     O29173   6.683   6.202   4.179  0.2279 -0.1366 -1.0237
  222MOL0     C29174   6.740   6.122   4.248  0.5388  0.0160 -0.1757
  222MOL0     O29175   6.714   6.096   4.374 -0.4452 -0.3635  0.2002
  222MOL0     C29176   6.594   6.138   4.438 -0.4086 -1.0205  0.3054
  222MOL0     C29177   6.509   6.036   4.472  1.4364 -0.5409  0.4157
  222MOL0     C29178   6.368   6.067   4.478  0.2623 -0.4951  0.5981
  222MOL0     C29179   6.334   6.204   4.489  0.4806  0.0783 -0.1633
  222MOL0     O29180   6.200   6.249   4.495 -0.2585 -0.4894  0.0083
  222MOL0     C29181   6.138   6.215   4.622 -0.5995 -0.1686 -0.8758
  222MOL0     C29182   6.000   6.294   4.649 -0.0213 -0.1147  0.2741
  222MOL0     C29183   5.946   6.286   4.786 -0.1395 -0.8280 -0.2287
  222MOL0     C29184   5.825   6.376   4.796  0.5701 -0.5986 -0.6055
  222MOL0     C29185   5.728   6.358   4.911 -0.4569  0.6580  0.5593
  222MOL0     C29186   5.673   6.218   4.922 -0.7074  1.0473  0.4185
  222MOL0     C29187   5.581   6.198   5.047 -0.1648 -0.0741 -0.0968
  222MOL0     C29188   5.482   6.077   5.033 -0.8488  0.4436 -0.4531
  222MOL0     N29189   5.557   5.960   5.040 -0.3276 -0.3116  0.6916
  222MOL0     C29190   5.601   5.894   4.924  0.0876  1.0323  0.0589
  222MOL0     C29191   5.695   5.796   4.956  1.0275  0.3636 -0.3847
  222MOL0     C29192   5.786   5.717   4.869 -0.1263  1.1844 -1.0564
  222MOL0     C29193   5.943   5.742   4.868  0.6761 -0.7183  0.4749
  222MOL0     C29194   5.989   5.890   4.862 -0.7137  0.5585  0.5528
  222MOL0     C29195   6.145   5.903   4.886 -0.8574 -0.3702  1.0570
  222MOL0     O29196   6.198   5.844   4.777 -0.1845 -0.3704 -0.6726
  222MOL0     C29197   6.327   5.806   4.785 -0.0447  0.1513  0.6169
  222MOL0     C29198   6.421   5.853   4.881 -1.1583 -0.6727 -0.1370
  222MOL0     C29199   6.560   5.833   4.871 -0.0443 -0.0030  0.0833
  222MOL0     C29200   6.613   5.750   4.766  0.7662 -0.2190 -0.0130
  222MOL0     C29201   6.759   5.736   4.737  1.7662  0.9148  0.1058
  222MOL0     O29202   6.797   5.704   4.613 -1.0975 -0.0643 -0.7498
  222MOL0     C29203   6.931   5.677   4.594 -0.5555  0.1587  0.0271
  222MOL0     C29204   6.976   5.547   4.596  0.5985  0.1259  0.5094
  222MOL0     C29205   7.114   5.513   4.587  0.2165 -0.0156 -0.0402
  222MOL0     C29206   7.208   5.616   4.557 -0.4402 -0.0560  0.1483
  222MOL0     O29207   7.343   5.587   4.541 -0.7388  0.1279 -0.3095
  222MOL0     C29208   7.434   5.673   4.473  0.3658 -0.1937 -1.0545
  222MOL0     C29209   7.551   5.601   4.392 -0.6141 -0.3347 -0.1476
  222MOL0     C29210   7.649   5.551   4.499 -0.6692  0.7146  0.1023
  222MOL0     C29211   7.757   5.462   4.432 -0.7063 -0.5385  0.7132
  222MOL0     C29212   7.876   5.449   4.519 -0.4052  0.0954 -0.9221
  222MOL0     C29213   7.999   5.382   4.467  0.4095  0.2753  0.3545
  222MOL0     C29214   8.048   5.458   4.346  0.5099  0.0567  0.3675
  222MOL0     C29215   8.185   5.407   4.298 -0.9220 -0.3224 -0.3529
  222MOL0    Cl29216   8.297   5.389   4.431  0.2602  0.0827 -0.2297
  222MOL0     C29217   7.156   5.756   4.548 -0.1113 -0.1063 -0.2345
  222MOL0     C29218   7.021   5.790   4.567 -0.2491 -1.1481 -1.2490
  222MOL0     O29219   6.830   5.772   4.828  0.3130  0.6185 -0.7493
  222MOL0     C29220   6.523   5.693   4.673 -0.0545  0.1374  0.0626
  222MOL0     C29221   6.384   5.725   4.684  0.1473  0.3676  0.5515
  222MOL0     N29222   5.702   5.802   5.098 -1.0748 -0.0961 -0.1154
  222MOL0     N29223   5.624   5.902   5.147 -0.5125 -0.1693  0.5439
  222MOL0     C29224   6.427   6.304   4.484 -0.1441  0.0504 -0.3782
  222MOL0     C29225   6.560   6.278   4.452 -0.4443  0.5991 -0.2358
  222MOL0     C29226   6.858   6.054   4.186 -0.1646  0.7861  0.0458
  222MOL0     C29227   6.924   6.110   4.081  0.1050  0.5443  0.6654
  222MOL0     C29228   7.035   6.036   4.024  0.2216 -0.8626  0.5646
  222MOL0     C29229   7.075   5.912   4.070 -0.2995  0.1053  0.2110
  222MOL0     O29230   7.190   5.854   4.027  1.2932  0.4887  0.2546
  222MOL0     C29231   7.316   5.922   4.061  0.8053  0.4829 -0.5026
  222MOL0     C29232   7.398   5.967   3.939 -0.2245  0.4189  0.8079
  222MOL0     C29233   7.498   5.846   3.882 -0.5767 -0.8900 -0.0192
  222MOL0     C29234   7.613   5.805   3.983  0.0099 -0.4135 -0.4126
  222MOL0     C29235   7.686   5.692   3.935  0.0665  0.0975  0.5633
  222MOL0     C29236   7.738   5.598   3.868  0.8071  0.0806  0.0470
  222MOL0     C29237   7.000   5.857   4.180 -0.2418 -0.1187 -0.3051
  222MOL0     C29238   6.888   5.928   4.239 -0.4759  0.8744  0.5916
  222MOL0     H29239   6.527   5.929   4.463  1.8027 -0.4420 -0.0402
  222MOL0     H29240   6.291   5.990   4.480  1.2386 -1.5558 -0.6035
  222MOL0     H29241   6.210   6.240   4.701 -0.5482 -1.4717 -0.4862
  222MOL0     H29242   6.128   6.106   4.631 -1.5595  0.0220  0.8068
  222MOL0     H29243   5.927   6.256   4.577 -1.4312 -1.3688  2.2702
  222MOL0     H29244   6.032   6.396   4.626  4.3258 -0.4590  3.4967
  222MOL0     H29245   6.017   6.322   4.861  1.0876 -2.8317 -0.3582
  222MOL0     H29246   5.927   6.181   4.808  0.8873 -1.0151 -0.1497
  222MOL0     H29247   5.848   6.483   4.788 -2.0911  0.0689 -0.3212
  222MOL0     H29248   5.767   6.360   4.704 -2.0035  1.4959  0.5153
  222MOL0     H29249   5.651   6.429   4.881  0.4243  0.8115 -1.5171
  222MOL0     H29250   5.780   6.392   5.001  1.0495  2.7068 -0.9782
  222MOL0     H29251   5.764   6.158   4.936  0.5328  3.0684  1.5226
  222MOL0     H29252   5.621   6.186   4.831 -0.9980 -0.3744  1.0621
  222MOL0     H29253   5.652   6.186   5.129  0.1095 -1.3468 -0.4938
  222MOL0     H29254   5.526   6.292   5.061  0.7139  0.1130  2.6038
  222MOL0     H29255   5.431   6.073   4.936  0.3541 -0.9202 -1.0649
  222MOL0     H29256   5.403   6.087   5.109 -0.9695  2.6920 -0.8038
  222MOL0     H29257   5.572   5.925   4.824 -1.4395 -2.1245 -0.6253
  222MOL0     H29258   5.752   5.736   4.767 -1.0333 -1.5329 -1.3401
  222MOL0     H29259   5.768   5.612   4.896  2.8818  0.8129 -0.0876
  222MOL0     H29260   5.989   5.693   4.782  0.3237 -0.5923  0.2103
  222MOL0     H29261   5.981   5.692   4.957 -1.2632  0.1609  1.8869
  222MOL0     H29262   5.950   5.949   4.779  0.0788 -0.6056 -0.6943
  222MOL0     H29263   5.954   5.942   4.952 -0.3659  1.3999  0.2095
  222MOL0     H29264   6.181   5.858   4.980 -2.8701 -1.0138  1.5755
  222MOL0     H29265   6.164   6.010   4.888 -0.8022 -0.2187 -2.1205
  222MOL0     H29266   6.396   5.916   4.965  2.6102 -0.1586  0.7877
  222MOL0     H29267   6.628   5.885   4.939 -0.4044  2.7052 -1.4553
  222MOL0     H29268   6.903   5.467   4.608  0.6718 -0.0696 -0.3406
  222MOL0     H29269   7.151   5.413   4.605 -0.8706 -0.6138 -1.0122
  222MOL0     H29270   7.483   5.722   4.558 -1.4912  0.6256 -0.3872
  222MOL0     H29271   7.381   5.750   4.416 -3.1832 -0.1504  1.8792
  222MOL0     H29272   7.606   5.669   4.327  0.2852 -0.0168  0.9158
  222MOL0     H29273   7.495   5.530   4.330 -2.1346  1.2998 -0.7440
  222MOL0     H29274   7.595   5.479   4.561 -0.1685  0.6852  0.5084
  222MOL0     H29275   7.689   5.634   4.558  1.3900 -0.8315  1.0475
  222MOL0     H29276   7.735   5.363   4.390 -1.9691  1.5001 -4.0586
  222MOL0     H29277   7.781   5.503   4.334  2.1400 -1.8061  0.7727
  222MOL0     H29278   7.839   5.393   4.606 -3.8075  1.8919 -1.0106
  222MOL0     H29279   7.913   5.543   4.562 -3.1917  0.6538  0.5302
  222MOL0     H29280   7.970   5.279   4.446  2.7111  0.1519 -2.8675
  222MOL0     H29281   8.074   5.394   4.546  0.6745  0.7860  0.0296
  222MOL0     H29282   7.975   5.450   4.265  2.9012  0.6817 -2.0200
  222MOL0     H29283   8.067   5.562   4.376 -2.0084  0.8249 -0.4881
  222MOL0     H29284   8.238   5.467   4.223  1.2510 -0.2528  1.1394
  222MOL0     H29285   8.169   5.313   4.245  1.0010 -1.2952  0.6836
  222MOL0     H29286   7.222   5.842   4.539 -0.8604  0.3138 -2.3273
  222MOL0     H29287   6.976   5.888   4.561  0.6594 -0.7248 -1.3732
  222MOL0     H29288   6.562   5.622   4.601 -1.7421 -0.2175 -0.5499
  222MOL0     H29289   6.302   5.680   4.629 -0.4616 -0.0288  1.7331
  222MOL0     H29290   6.398   6.408   4.495 -0.8123 -0.2756  1.2879
  222MOL0     H29291   6.632   6.359   4.448  1.6121 -1.1938 -1.7910
  222MOL0     H29292   6.910   6.211   4.045 -2.4467  0.3104  0.8371
  222MOL0     H29293   7.096   6.092   3.955 -0.9712  0.3617  0.4788
  222MOL0     H29294   7.378   5.871   4.135  3.5682  4.1077 -0.0419
  222MOL0     H29295   7.292   6.017   4.108  0.9588  0.7523 -0.9578
  222MOL0     H29296   7.329   5.968   3.854  0.2221 -2.9808  0.2589
  222MOL0     H29297   7.460   6.056   3.953  1.7382 -1.0907  2.3828
  222MOL0     H29298   7.532   5.885   3.786  2.4513 -2.5635  0.2263
  222MOL0     H29299   7.451   5.749   3.862  1.8995 -2.3890  0.8873
  222MOL0     H29300   7.679   5.891   3.987 -0.1317 -0.3433  0.7599
  222MOL0     H29301   7.585   5.779   4.086 -0.9362 -0.4845 -0.6756
  222MOL0     H29302   7.773   5.528   3.795  1.3437  2.1725 -1.8014
  222MOL0     H29303   7.043   5.769   4.227  0.3126 -0.6189 -1.6831
  222MOL0     H29304   6.831   5.872   4.313  0.4765  1.4300  1.7744
  223MOL0     O29305   2.620   4.531   5.043  0.3139  0.6634  0.4212
  223MOL0     C29306   2.555   4.620   4.991  0.0099 -0.1517  1.0800
  223MOL0     O29307   2.596   4.754   4.994 -0.4202  0.6700 -0.4446
  223MOL0     C29308   2.731   4.788   5.010  0.1163 -0.0976  0.4961
  223MOL0     C29309   2.756   4.919   5.070 -0.9715  0.7911  0.6985
  223MOL0     C29310   2.894   4.960   5.072  0.1321  0.7476 -1.0043
  223MOL0     C29311   2.997   4.891   5.007  0.2497 -0.6250 -0.1143
  223MOL0     O29312   3.120   4.949   5.025 -0.0061  0.5434  0.1637
  223MOL0     C29313   3.236   4.876   4.971  0.4850 -0.1310 -0.2734
  223MOL0     C29314   3.354   4.977   4.975  0.3042 -0.7430  1.3977
  223MOL0     C29315   3.462   4.949   4.871 -0.1307 -0.1182  0.0427
  223MOL0     C29316   3.437   5.005   4.732  0.2899  0.9973  0.8174
  223MOL0     C29317   3.502   4.910   4.620 -0.5264  0.2710  0.2906
  223MOL0     C29318   3.482   4.947   4.473 -0.3694 -0.4847 -0.2539
  223MOL0     C29319   3.538   4.848   4.365  0.1382 -1.5350 -0.0946
  223MOL0     C29320   3.430   4.746   4.323  0.4753 -0.1475  0.0294
  223MOL0     N29321   3.320   4.811   4.261  0.3596 -0.4421 -0.4250
  223MOL0     C29322   3.187   4.767   4.271  0.6838  0.4063  0.0456
  223MOL0     C29323   3.111   4.843   4.182 -0.8959 -0.1057 -0.5796
  223MOL0     C29324   2.959   4.839   4.167 -0.2407  0.3609  0.4122
  223MOL0     C29325   2.873   4.899   4.289 -0.4065 -0.2641  0.0020
  223MOL0     C29326   2.903   4.854   4.432 -0.4346  0.8740 -0.5279
  223MOL0     C29327   2.818   4.910   4.537  0.3222 -0.3089  0.0476
  223MOL0     O29328   2.684   4.864   4.507  0.6196 -0.3192  0.3525
  223MOL0     C29329   2.586   4.900   4.601  0.0043  0.6229  0.2184
  223MOL0     C29330   2.607   4.961   4.718  0.4348 -0.0305  0.5910
  223MOL0     C29331   2.496   5.015   4.785 -0.3249  0.0779  0.7824
  223MOL0     C29332   2.372   5.004   4.726 -0.0708  0.3624  0.4498
  223MOL0     C29333   2.257   5.057   4.787 -0.1137 -0.2441 -0.2700
  223MOL0     O29334   2.142   5.055   4.708 -0.9048  0.4873 -0.2948
  223MOL0     C29335   2.017   5.083   4.751 -0.1599  0.6569  0.3400
  223MOL0     C29336   1.966   5.043   4.881 -0.6015  0.5285  1.0860
  223MOL0     C29337   1.833   5.057   4.915  0.2661 -0.3300  0.4400
  223MOL0     C29338   1.750   5.132   4.829 -0.1294  0.6808  0.1132
  223MOL0     O29339   1.627   5.159   4.880 -0.3700 -0.0681  0.6839
  223MOL0     C29340   1.522   5.229   4.816  0.0926  0.2023  0.2873
  223MOL0     C29341   1.387   5.208   4.880 -0.0008 -0.0526  0.3096
  223MOL0     C29342   1.281   5.299   4.820 -0.1656 -0.0404 -0.5842
  223MOL0     C29343   1.156   5.276   4.912  0.0856 -0.3206  0.1558
  223MOL0     C29344   1.055   5.383   4.880  0.3385  0.4494 -0.6934
  223MOL0     C29345   0.930   5.394   4.965 -0.1022  0.3199 -0.0054
  223MOL0     C29346   0.817   5.475   4.918 -0.0627 -0.2689  0.3463
  223MOL0     C29347   0.763   5.446   4.774 -0.0977  0.0083 -0.5263
  223MOL0    Cl29348   0.826   5.549   4.650  0.0580  0.0231 -0.3658
  223MOL0     C29349   1.795   5.167   4.706 -1.1641  0.1775 -0.1817
  223MOL0     C29350   1.930   5.137   4.663  0.3062  0.7275 -0.0151
  223MOL0     O29351   2.263   5.092   4.906  0.0020 -1.3623 -0.5671
  223MOL0     C29352   2.358   4.925   4.613  0.3622  0.0680 -0.0766
  223MOL0     C29353   2.461   4.875   4.546  0.3814 -0.0321  0.2653
  223MOL0     N29354   3.195   4.931   4.114  0.1074  0.3631  0.1150
  223MOL0     N29355   3.316   4.913   4.157  0.4123 -0.3161  0.3045
  223MOL0     C29356   2.964   4.755   4.957 -0.4441  0.0131  0.7058
  223MOL0     C29357   2.833   4.710   4.953  0.3426 -0.2116 -0.4715
  223MOL0     C29358   2.421   4.584   4.921  0.1991  0.5877 -0.5693
  223MOL0     C29359   2.335   4.695   4.910  0.0776 -0.3780  0.7726
  223MOL0     C29360   2.203   4.685   4.879 -0.1957 -0.0501 -0.0247
  223MOL0     C29361   2.151   4.556   4.859  0.0045  0.5182  0.3161
  223MOL0     O29362   2.014   4.535   4.847  0.5627  0.2574 -0.2668
  223MOL0     C29363   1.920   4.635   4.864 -0.9359  0.3341 -0.9600
  223MOL0     C29364   1.781   4.584   4.822 -0.0194  0.2211  0.1698
  223MOL0     C29365   1.728   4.463   4.908  0.6456 -0.9017 -0.5416
  223MOL0     C29366   1.578   4.451   4.905 -0.6029 -0.5322  0.3452
  223MOL0     C29367   1.529   4.447   4.770  0.0950  0.4281  0.8693
  223MOL0     C29368   1.479   4.464   4.660  0.8159 -0.2474  0.3578
  223MOL0     C29369   2.237   4.441   4.864  0.8752 -0.0416 -0.7019
  223MOL0     C29370   2.372   4.454   4.901 -0.3179  0.7743 -0.6069
  223MOL0     H29371   2.668   4.966   5.112 -1.9146 -1.5619  1.5211
  223MOL0     H29372   2.927   5.055   5.114  1.6710  0.0948 -0.6770
  223MOL0     H29373   3.205   4.848   4.870  0.8853 -2.2216  0.1530
  223MOL0     H29374   3.246   4.784   5.030  0.3723 -0.3906 -0.6582
  223MOL0     H29375   3.394   4.987   5.077 -1.2834  2.7875  1.8038
  223MOL0     H29376   3.311   5.072   4.944  1.5523 -0.3272  0.8744
  223MOL0     H29377   3.448   4.842   4.857  1.5513 -0.2137 -1.1499
  223MOL0     H29378   3.562   4.973   4.907  0.2624 -0.4630 -0.8014
  223MOL0     H29379   3.329   5.009   4.718  0.1501 -0.1278  1.4673
  223MOL0     H29380   3.484   5.103   4.713 -0.3229  1.0136 -0.7419
  223MOL0     H29381   3.451   4.815   4.637  0.3980 -0.9302 -2.8731
  223MOL0     H29382   3.607   4.884   4.634 -1.0102 -3.9133 -2.0699
  223MOL0     H29383   3.534   5.043   4.464 -2.7988  0.7422 -2.9827
  223MOL0     H29384   3.375   4.965   4.458 -0.1197 -0.5601 -2.4941
  223MOL0     H29385   3.563   4.908   4.277  0.5839 -0.3248  0.8165
  223MOL0     H29386   3.629   4.800   4.404  0.8981 -0.3175 -0.3200
  223MOL0     H29387   3.397   4.691   4.411  0.0505  0.6923  0.4023
  223MOL0     H29388   3.464   4.667   4.255  2.7360  0.3930  0.4300
  223MOL0     H29389   3.157   4.685   4.336  1.9256 -2.3965 -2.6630
  223MOL0     H29390   2.924   4.736   4.156  3.0136 -1.1214  2.3518
  223MOL0     H29391   2.931   4.890   4.074 -1.0055  0.7959  0.8718
  223MOL0     H29392   2.766   4.891   4.270 -0.9222  0.8639  2.0853
  223MOL0     H29393   2.894   5.005   4.273  0.7108 -0.0632  2.2824
  223MOL0     H29394   2.905   4.745   4.432  1.4451  0.8530  0.7458
  223MOL0     H29395   3.006   4.891   4.442 -0.5278  1.3251 -1.1975
  223MOL0     H29396   2.829   5.017   4.519 -1.8905 -0.4271 -2.6850
  223MOL0     H29397   2.857   4.875   4.633 -1.8989  0.6907  1.3856
  223MOL0     H29398   2.704   4.990   4.757  1.4238  0.1526 -1.8504
  223MOL0     H29399   2.516   5.074   4.874  0.4908  2.8932 -1.1216
  223MOL0     H29400   2.029   4.977   4.940  0.9788  0.5219 -0.5272
  223MOL0     H29401   1.798   5.029   5.013 -1.6607  0.5521  0.0390
  223MOL0     H29402   1.519   5.195   4.712  0.4545  0.9764  0.0206
  223MOL0     H29403   1.545   5.335   4.812  0.5472  0.0754 -1.5659
  223MOL0     H29404   1.399   5.231   4.987  1.9098 -1.9855  0.5798
  223MOL0     H29405   1.368   5.100   4.878 -0.4514  0.0318 -0.1771
  223MOL0     H29406   1.254   5.283   4.715 -0.6316 -2.6613 -0.1535
  223MOL0     H29407   1.311   5.404   4.826  0.0498 -0.1547  0.3909
  223MOL0     H29408   1.120   5.176   4.887  0.4919 -1.2096  2.8062
  223MOL0     H29409   1.183   5.271   5.018 -0.7352 -2.2618  0.3095
  223MOL0     H29410   1.019   5.368   4.777  2.9795 -0.3969 -1.5721
  223MOL0     H29411   1.100   5.482   4.886  0.9967  0.0802  3.1045
  223MOL0     H29412   0.973   5.415   5.063  2.6665 -0.2283 -0.9985
  223MOL0     H29413   0.888   5.293   4.971 -0.3361  0.4082 -0.1494
  223MOL0     H29414   0.739   5.454   4.991  0.1849 -0.9395  0.4321
  223MOL0     H29415   0.841   5.579   4.940  0.6439 -0.8064  2.3864
  223MOL0     H29416   0.654   5.454   4.775 -0.2579 -1.7319  0.0873
  223MOL0     H29417   0.790   5.343   4.747 -0.5585 -1.7183  4.4875
  223MOL0     H29418   1.738   5.226   4.634 -0.8034  1.0355  0.2193
  223MOL0     H29419   1.964   5.160   4.563 -0.9888 -2.4638 -1.3261
  223MOL0     H29420   2.258   4.911   4.575 -0.0970 -0.1534  1.1510
  223MOL0     H29421   2.450   4.818   4.454 -0.8245  0.5203  0.0495
  223MOL0     H29422   3.041   4.693   4.912 -1.6903 -0.8797 -0.2967
  223MOL0     H29423   2.807   4.617   4.903 -1.8856  1.0273 -1.7912
  223MOL0     H29424   2.366   4.795   4.938  2.2064 -0.2954 -1.5386
  223MOL0     H29425   2.135   4.769   4.874 -0.1457  0.1639  2.0610
  223MOL0     H29426   1.942   4.721   4.800  2.5312 -1.7388 -2.8596
  223MOL0     H29427   1.923   4.660   4.970 -1.5456  0.3619 -0.9430
  223MOL0     H29428   1.698   4.656   4.818 -0.4187 -0.2808 -0.7050
  223MOL0     H29429   1.806   4.554   4.720  1.5789  1.3693  0.1854
  223MOL0     H29430   1.739   4.496   5.012  2.3775 -2.0974 -0.2925
  223MOL0     H29431   1.772   4.367   4.879  0.1479 -0.5895 -2.4348
  223MOL0     H29432   1.545   4.370   4.970  3.2050  0.2714  3.6786
  223MOL0     H29433   1.535   4.545   4.943  1.4570  0.7005 -0.2276
  223MOL0     H29434   1.449   4.498   4.563 -0.7562 -1.3631  0.4200
  223MOL0     H29435   2.210   4.339   4.839 -0.8565  0.1527  0.2270
  223MOL0     H29436   2.436   4.367   4.901  2.1565  2.4775 -0.0918
  224MOL0     O29437   6.443   1.378   0.748  0.1042 -0.0351 -0.3746
  224MOL0     C29438   6.503   1.410   0.851  0.1284 -0.7414  0.3431
  224MOL0     O29439   6.478   1.520   0.925 -0.3506  0.2898 -0.2285
  224MOL0     C29440   6.359   1.577   0.903  0.0448  0.1875  0.6786
  224MOL0     C29441   6.236   1.527   0.955  0.3284  0.1780 -0.1245
  224MOL0     C29442   6.115   1.589   0.934 -0.7539 -0.2263  1.1116
  224MOL0     C29443   6.110   1.701   0.843 -0.5675 -0.7055 -1.0526
  224MOL0     O29444   5.984   1.769   0.801  0.4403 -0.7970  0.0620
  224MOL0     C29445   5.861   1.692   0.812  0.1247  0.4727 -0.0442
  224MOL0     C29446   5.738   1.760   0.884 -0.2039 -0.0043  0.3006
  224MOL0     C29447   5.678   1.876   0.805  0.0796  0.7826  0.2190
  224MOL0     C29448   5.564   1.944   0.885  0.1272 -1.0134  0.9186
  224MOL0     C29449   5.525   2.076   0.809 -0.7423  0.2991 -0.3244
  224MOL0     C29450   5.436   2.038   0.686  1.1463 -0.1697 -0.3283
  224MOL0     C29451   5.357   2.159   0.653 -0.5520 -0.0749  0.6717
  224MOL0     C29452   5.288   2.164   0.515  0.5607  0.5904 -0.6122
  224MOL0     N29453   5.257   2.300   0.473  0.3118  0.0325 -0.0184
  224MOL0     C29454   5.125   2.347   0.462 -0.7759 -0.2117 -0.1207
  224MOL0     C29455   5.144   2.473   0.420 -0.0658 -0.6942  0.2160
  224MOL0     C29456   5.036   2.557   0.356 -0.9268  0.0595 -0.3364
  224MOL0     C29457   5.032   2.526   0.209  0.3390  0.2271  0.4384
  224MOL0     C29458   4.940   2.634   0.145  0.1681  0.8665 -0.6807
  224MOL0     C29459   5.016   2.747   0.083  0.7794 -0.6370  0.1031
  224MOL0     O29460   4.928   2.858   0.052  0.3969  0.2844  0.0472
  224MOL0     C29461   4.886   2.871  -0.082 -0.7038  0.7754 -0.4129
  224MOL0     C29462   4.854   2.997  -0.130 -1.1121 -0.2067  0.3852
  224MOL0     C29463   4.807   3.017  -0.261 -0.3833  0.3842  0.3046
  224MOL0     C29464   4.780   2.911  -0.346  0.5533  0.3607  0.4921
  224MOL0     C29465   4.720   2.941  -0.487  0.0629  0.1069  0.3884
  224MOL0     O29466   4.715   3.080  -0.513 -0.3289 -0.2165 -0.8941
  224MOL0     C29467   4.710   3.134  -0.639  0.0795 -0.2475 -0.1216
  224MOL0     C29468   4.600   3.207  -0.702  0.1891 -0.6294 -0.0897
  224MOL0     C29469   4.618   3.272  -0.823 -1.0579 -0.1458  0.7700
  224MOL0     C29470   4.739   3.248  -0.892  0.4862 -0.4398 -0.1612
  224MOL0     O29471   4.733   3.315  -1.013  0.6776 -0.7279 -0.2522
  224MOL0     C29472   4.849   3.386  -1.070  0.6392 -0.6196  0.1773
  224MOL0     C29473   4.797   3.507  -1.159  0.8519  0.0047  0.6973
  224MOL0     C29474   4.904   3.512  -1.278 -0.1058  0.4276 -0.4567
  224MOL0     C29475   4.874   3.606  -1.394  0.0409  0.4024 -0.3019
  224MOL0     C29476   4.722   3.607  -1.428 -0.7007 -0.7297  0.7923
  224MOL0     C29477   4.698   3.707  -1.544  1.1270 -0.1073 -0.5322
  224MOL0     C29478   4.659   3.855  -1.507 -0.2347 -0.0541  0.0404
  224MOL0     C29479   4.763   3.941  -1.438  0.5186  0.5042  0.2914
  224MOL0    Cl29480   4.717   4.108  -1.406 -0.1487  0.0988  0.1302
  224MOL0     C29481   4.850   3.185  -0.842 -0.0745 -0.7413 -0.2409
  224MOL0     C29482   4.837   3.136  -0.712  0.5787  0.0689 -0.2470
  224MOL0     O29483   4.685   2.849  -0.568 -0.1240 -0.3645  0.0531
  224MOL0     C29484   4.815   2.780  -0.306  1.0220 -0.3439  0.5975
  224MOL0     C29485   4.873   2.764  -0.177 -0.4392  0.2025  0.2844
  224MOL0     N29486   5.283   2.501   0.418  0.1359 -0.4459 -0.4969
  224MOL0     N29487   5.349   2.404   0.451 -0.0631 -0.7314 -0.1821
  224MOL0     C29488   6.225   1.758   0.793 -0.9820  0.2004  0.1303
  224MOL0     C29489   6.351   1.698   0.822  0.0028 -0.0636  0.0732
  224MOL0     C29490   6.607   1.318   0.896 -0.1972  1.2888 -0.1425
  224MOL0     C29491   6.663   1.339   1.034 -0.0794  1.0645  0.6317
  224MOL0     C29492   6.756   1.249   1.079  0.8681 -0.2947 -0.2276
  224MOL0     C29493   6.804   1.144   1.006 -0.0873  0.5658 -0.1724
  224MOL0     O29494   6.889   1.055   1.065 -0.1846 -0.6462  0.1672
  224MOL0     C29495   6.866   1.019   1.203 -0.0323  0.9596 -0.3113
  224MOL0     C29496   6.975   1.089   1.290 -0.4718  0.1905 -0.5272
  224MOL0     C29497   6.993   1.022   1.431 -0.5877 -0.3003  0.3354
  224MOL0     C29498   7.126   1.066   1.497  0.5683 -0.3001 -0.3972
  224MOL0     C29499   7.135   1.001   1.632 -0.3363 -0.0147 -0.8143
  224MOL0     C29500   7.161   0.948   1.742 -0.0513 -0.0288 -0.0275
  224MOL0     C29501   6.751   1.125   0.875  0.0806 -0.0865 -0.6456
  224MOL0     C29502   6.658   1.209   0.824  1.0097  0.0029 -0.1310
  224MOL0     H29503   6.239   1.445   1.026 -0.0094 -1.5076 -1.9677
  224MOL0     H29504   6.031   1.541   0.984 -1.4427 -1.2075 -0.9091
  224MOL0     H29505   5.875   1.592   0.853 -0.5764  1.2005  2.1110
  224MOL0     H29506   5.821   1.679   0.711 -0.7441  2.8125 -0.0502
  224MOL0     H29507   5.777   1.808   0.974  0.2256  0.3277 -0.0567
  224MOL0     H29508   5.660   1.691   0.916  1.6137 -3.0562 -1.3490
  224MOL0     H29509   5.628   1.836   0.716 -0.1928  1.0949  0.2283
  224MOL0     H29510   5.757   1.951   0.793  1.4857 -0.5478  0.8182
  224MOL0     H29511   5.465   1.898   0.885 -1.7160  2.5138 -0.4735
  224MOL0     H29512   5.604   1.972   0.982  0.0010 -2.2170  1.3295
  224MOL0     H29513   5.615   2.128   0.776  1.5796 -0.7103  3.7172
  224MOL0     H29514   5.462   2.142   0.869 -3.3132 -1.1170 -1.2850
  224MOL0     H29515   5.365   1.958   0.711 -0.3378  0.5583 -1.9779
  224MOL0     H29516   5.498   2.007   0.600  1.0768  0.5560 -0.6418
  224MOL0     H29517   5.283   2.168   0.733  0.0490 -2.1930  1.5559
  224MOL0     H29518   5.421   2.247   0.646  0.5181 -0.9152 -0.8335
  224MOL0     H29519   5.195   2.106   0.520  0.3539  0.7685 -1.9872
  224MOL0     H29520   5.353   2.123   0.436  1.3355  0.3057  0.1602
  224MOL0     H29521   5.033   2.291   0.468 -1.3682  0.8386  0.8918
  224MOL0     H29522   5.049   2.665   0.372 -1.3751  0.0938 -0.1779
  224MOL0     H29523   4.944   2.527   0.408 -1.8293  2.7353 -0.2006
  224MOL0     H29524   4.998   2.424   0.192  1.5480 -0.6550  2.8890
  224MOL0     H29525   5.130   2.533   0.161  0.2730  0.2560  0.3059
  224MOL0     H29526   4.881   2.591   0.063  0.3285  1.2490 -0.9988
  224MOL0     H29527   4.871   2.656   0.227 -0.5230 -0.3225 -0.9119
  224MOL0     H29528   5.067   2.713  -0.008 -1.1567 -0.1225 -1.2409
  224MOL0     H29529   5.090   2.781   0.157  0.2013 -1.5955  1.1444
  224MOL0     H29530   4.845   3.081  -0.062 -1.1168 -2.6683  3.6852
  224MOL0     H29531   4.779   3.120  -0.284 -0.5701 -0.0663 -1.6328
  224MOL0     H29532   4.514   3.215  -0.636  2.7952  0.2042  3.5833
  224MOL0     H29533   4.535   3.325  -0.868  0.7051  0.4451 -2.0298
  224MOL0     H29534   4.907   3.318  -1.134  0.9704 -0.0055 -0.1804
  224MOL0     H29535   4.920   3.412  -0.991  0.5160  0.2771  0.0021
  224MOL0     H29536   4.797   3.607  -1.115  0.2926  1.7829 -2.9581
  224MOL0     H29537   4.692   3.489  -1.184  0.5902  3.1953 -0.9533
  224MOL0     H29538   4.901   3.411  -1.319  2.3594  0.2389 -0.3160
  224MOL0     H29539   5.006   3.531  -1.243  0.1687 -1.2704 -0.2786
  224MOL0     H29540   4.899   3.703  -1.351 -2.5728  0.2755  1.7711
  224MOL0     H29541   4.934   3.591  -1.484 -0.4252  2.5010 -1.0014
  224MOL0     H29542   4.660   3.633  -1.342 -1.2442  1.1754 -0.1257
  224MOL0     H29543   4.707   3.508  -1.473  0.5264  1.2092 -4.7509
  224MOL0     H29544   4.601   3.678  -1.586  0.2367  0.1307  1.2246
  224MOL0     H29545   4.787   3.706  -1.606  2.1741 -0.8372  0.9318
  224MOL0     H29546   4.642   3.902  -1.605  1.5385 -0.3183 -0.4171
  224MOL0     H29547   4.571   3.841  -1.443  0.3360 -2.1773  0.4456
  224MOL0     H29548   4.847   3.954  -1.507  2.5806  1.1670  2.7895
  224MOL0     H29549   4.797   3.896  -1.344 -2.1409 -3.9260 -0.5629
  224MOL0     H29550   4.941   3.181  -0.901  0.2917 -1.6547  0.3687
  224MOL0     H29551   4.913   3.083  -0.656 -2.1660 -1.7076  2.1053
  224MOL0     H29552   4.805   2.701  -0.381  0.8575  2.1394 -2.1710
  224MOL0     H29553   4.912   2.667  -0.147  0.6570  1.3345  2.7393
  224MOL0     H29554   6.222   1.841   0.724 -0.2451 -0.9251 -1.3184
  224MOL0     H29555   6.440   1.743   0.779 -0.5822 -1.5627 -2.9848
  224MOL0     H29556   6.630   1.416   1.103  1.6312  0.6541  1.9784
  224MOL0     H29557   6.775   1.268   1.184 -0.5998 -2.6925  0.5546
  224MOL0     H29558   6.888   0.912   1.209  0.5260  0.9797 -1.5736
  224MOL0     H29559   6.762   1.035   1.231 -0.5432 -0.8255 -1.0763
  224MOL0     H29560   7.064   1.091   1.227  0.8337 -1.4378  1.1816
  224MOL0     H29561   6.951   1.195   1.307 -1.6130 -0.1572  0.1538
  224MOL0     H29562   7.000   0.914   1.417  1.1037 -0.2923  0.8125
  224MOL0     H29563   6.906   1.042   1.494 -2.7278 -1.4137 -2.1149
  224MOL0     H29564   7.200   1.035   1.423 -0.3805 -2.7326 -0.4077
  224MOL0     H29565   7.123   1.176   1.500  1.9993 -0.2306 -0.9504
  224MOL0     H29566   7.173   0.915   1.843 -2.1958  1.3318  0.7269
  224MOL0     H29567   6.782   1.034   0.824 -4.2039 -0.8721 -2.2512
  224MOL0     H29568   6.622   1.182   0.725  1.7440 -2.4093  0.1895
  225MOL0     O29569   6.263   6.815   3.204  0.4460 -0.8749  0.6121
  225MOL0     C29570   6.269   6.768   3.312  0.0852  0.8756  0.7474
  225MOL0     O29571   6.161   6.722   3.386 -0.0477 -0.3998 -0.0838
  225MOL0     C29572   6.042   6.709   3.317  0.6169  0.3133  1.1716
  225MOL0     C29573   6.025   6.672   3.181  0.4383  0.2668 -0.2603
  225MOL0     C29574   5.897   6.654   3.120 -0.8085  0.2964 -0.1120
  225MOL0     C29575   5.787   6.667   3.207  0.1783  0.1288 -0.7729
  225MOL0     O29576   5.658   6.643   3.167  0.9238  0.2969  0.5538
  225MOL0     C29577   5.630   6.602   3.029  0.4656 -0.6523  0.0171
  225MOL0     C29578   5.483   6.600   3.009  0.7885 -0.0530 -1.0057
  225MOL0     C29579   5.424   6.748   2.999  0.4832  0.4237 -0.5275
  225MOL0     C29580   5.413   6.797   2.851 -0.0812 -0.4176  0.1319
  225MOL0     C29581   5.408   6.952   2.850 -0.0833 -1.0060 -0.6156
  225MOL0     C29582   5.398   7.006   2.708 -1.0157  0.0627 -0.3413
  225MOL0     C29583   5.498   6.933   2.612  0.2647  0.5004  0.2416
  225MOL0     C29584   5.649   6.958   2.632 -0.7864 -0.3348 -0.2117
  225MOL0     N29585   5.724   6.960   2.506 -0.3796  0.3359  0.3383
  225MOL0     C29586   5.857   6.929   2.501  0.0799  0.2656  0.2223
  225MOL0     C29587   5.891   6.930   2.366 -0.4158 -0.1360  0.0336
  225MOL0     C29588   6.034   6.930   2.304  0.2764  0.6974  0.0106
  225MOL0     C29589   6.138   6.991   2.396 -0.3033 -0.3403  0.3263
  225MOL0     C29590   6.244   7.058   2.311 -0.3193 -1.2086  0.6488
  225MOL0     C29591   6.315   6.949   2.231  0.2369 -0.9306  1.0351
  225MOL0     O29592   6.446   6.997   2.186  0.8994  0.3632  0.0340
  225MOL0     C29593   6.559   7.021   2.259 -0.8166  0.2769 -0.6179
  225MOL0     C29594   6.661   7.079   2.200 -0.1322  0.4200 -0.2286
  225MOL0     C29595   6.790   7.078   2.254 -0.2990  0.5432  1.1901
  225MOL0     C29596   6.817   7.015   2.376  1.2420 -0.1522 -0.5351
  225MOL0     C29597   6.959   7.011   2.432 -0.0243  0.1696  0.2672
  225MOL0     O29598   7.049   7.060   2.349  0.7875  0.5483  0.0694
  225MOL0     C29599   7.170   7.092   2.408  0.0471  0.7380  1.3016
  225MOL0     C29600   7.235   7.202   2.356  0.3397 -1.1914  0.0165
  225MOL0     C29601   7.365   7.246   2.398  1.1730 -0.7562  0.1690
  225MOL0     C29602   7.436   7.174   2.486  0.4349  0.3835 -0.4365
  225MOL0     O29603   7.551   7.222   2.546  1.5902 -0.5866 -0.9989
  225MOL0     C29604   7.657   7.238   2.451  0.0248  0.5494 -0.9868
  225MOL0     C29605   7.761   7.291   2.556 -0.1171 -0.3148 -0.1076
  225MOL0     C29606   7.889   7.334   2.468  0.2730  0.1476 -0.2427
  225MOL0     C29607   8.002   7.354   2.574 -0.3382 -0.4469 -0.0945
  225MOL0     C29608   8.139   7.385   2.507  0.4251  0.0274  0.3972
  225MOL0     C29609   8.155   7.520   2.446  0.1058 -0.0412  0.4848
  225MOL0     C29610   8.193   7.632   2.539  0.8576  0.1800  0.6648
  225MOL0     C29611   8.074   7.718   2.591 -0.1138 -0.2489  1.0166
  225MOL0    Cl29612   8.137   7.880   2.635 -0.2580  0.0796  0.1423
  225MOL0     C29613   7.375   7.056   2.541 -0.4018  0.7848 -0.3773
  225MOL0     C29614   7.249   7.019   2.504  0.4207  0.6231  0.0731
  225MOL0     O29615   6.971   6.962   2.547 -0.0298  0.2845  0.2235
  225MOL0     C29616   6.706   6.955   2.445 -0.3447 -0.0454  0.4977
  225MOL0     C29617   6.577   6.961   2.385  0.2941 -0.5604  0.2874
  225MOL0     N29618   5.776   6.961   2.297  0.3206 -0.1413 -0.5903
  225MOL0     N29619   5.680   6.973   2.374  0.1442 -0.5407  0.3001
  225MOL0     C29620   5.802   6.701   3.338 -0.1010  1.1367  0.7842
  225MOL0     C29621   5.925   6.726   3.396  0.5501  0.3717 -0.5508
  225MOL0     C29622   6.403   6.759   3.372 -0.0830 -0.0364 -0.1462
  225MOL0     C29623   6.422   6.746   3.509  0.1449 -0.6066 -0.4316
  225MOL0     C29624   6.543   6.738   3.566  0.1539  0.8503 -0.8688
  225MOL0     C29625   6.658   6.755   3.489 -0.3201 -0.1599 -0.3181
  225MOL0     O29626   6.764   6.749   3.572 -0.4369 -0.1145 -0.5196
  225MOL0     C29627   6.887   6.800   3.510 -0.5563  0.5459 -0.5153
  225MOL0     C29628   6.979   6.690   3.440  0.8383 -1.3854 -1.1768
  225MOL0     C29629   7.116   6.743   3.408 -0.1523 -0.6110  0.9116
  225MOL0     C29630   7.211   6.663   3.326  0.2530  0.6648  0.1429
  225MOL0     C29631   7.212   6.520   3.367  0.3475  0.5610  1.0607
  225MOL0     C29632   7.209   6.399   3.391  0.0822  0.4968 -0.3046
  225MOL0     C29633   6.645   6.769   3.350  0.0256  0.7745  0.0402
  225MOL0     C29634   6.517   6.762   3.286  0.1003  0.7988  0.2598
  225MOL0     H29635   6.116   6.659   3.124  0.6335  1.6571 -0.3004
  225MOL0     H29636   5.891   6.636   3.013  0.9949  1.2685 -0.4225
  225MOL0     H29637   5.669   6.500   3.018  3.6480  0.5749 -1.6447
  225MOL0     H29638   5.671   6.682   2.966  1.3737 -0.6755  0.5471
  225MOL0     H29639   5.428   6.551   3.089 -2.2519  4.2687 -0.0758
  225MOL0     H29640   5.461   6.549   2.914  1.0386 -2.5656  0.2120
  225MOL0     H29641   5.481   6.830   3.046 -0.9523  0.8280  0.5969
  225MOL0     H29642   5.325   6.753   3.046 -0.1909 -1.3816 -1.6743
  225MOL0     H29643   5.501   6.750   2.806 -0.2518  2.1857 -3.2915
  225MOL0     H29644   5.326   6.767   2.793 -0.5986 -0.7731  1.0646
  225MOL0     H29645   5.498   6.998   2.892 -1.2004  3.2078 -2.3395
  225MOL0     H29646   5.317   6.989   2.899  0.2967 -0.0762 -0.5897
  225MOL0     H29647   5.412   7.114   2.694  0.7371 -0.4449 -3.2637
  225MOL0     H29648   5.295   6.987   2.677 -0.6718 -0.0100 -1.4664
  225MOL0     H29649   5.478   6.826   2.603  3.7005 -0.5719  3.1422
  225MOL0     H29650   5.469   6.989   2.522 -2.5398  0.9144  1.2902
  225MOL0     H29651   5.687   6.879   2.697 -0.3929  0.5827  0.7078
  225MOL0     H29652   5.670   7.056   2.676  1.8108 -0.0325 -1.9153
  225MOL0     H29653   5.933   6.900   2.572 -0.3188 -3.2373 -0.6295
  225MOL0     H29654   6.033   6.974   2.204 -0.4972 -2.0676 -1.2979
  225MOL0     H29655   6.073   6.831   2.280  0.5123  0.1659  2.3126
  225MOL0     H29656   6.193   6.915   2.453 -0.7706 -1.8173 -1.1171
  225MOL0     H29657   6.098   7.079   2.447  3.1205  2.3169 -1.0995
  225MOL0     H29658   6.211   7.144   2.251  3.5247  0.9284  1.3168
  225MOL0     H29659   6.315   7.112   2.374  0.9115  0.1640 -1.7709
  225MOL0     H29660   6.261   6.923   2.140 -1.1641 -0.8426  1.8085
  225MOL0     H29661   6.340   6.863   2.294  4.0001 -2.4919 -2.2097
  225MOL0     H29662   6.660   7.095   2.093 -1.3326 -3.2096 -0.9043
  225MOL0     H29663   6.868   7.118   2.190 -2.9103  0.8750 -2.0618
  225MOL0     H29664   7.195   7.259   2.272 -2.0760  2.5784  3.3747
  225MOL0     H29665   7.403   7.340   2.359 -0.8399 -0.1417 -0.4590
  225MOL0     H29666   7.630   7.301   2.365  0.5632 -0.0928 -1.6387
  225MOL0     H29667   7.697   7.143   2.415 -0.4018 -0.1271  0.2730
  225MOL0     H29668   7.786   7.217   2.633 -1.6824  0.8276  1.5981
  225MOL0     H29669   7.728   7.385   2.602  0.1725 -1.9527  3.8050
  225MOL0     H29670   7.870   7.426   2.412  0.6497  1.5306  1.8310
  225MOL0     H29671   7.913   7.262   2.389  0.5489 -0.4175  0.3529
  225MOL0     H29672   7.974   7.438   2.637 -0.0701 -0.1337 -0.3885
  225MOL0     H29673   8.022   7.269   2.640  0.0078 -1.5602 -1.5797
  225MOL0     H29674   8.143   7.310   2.427 -0.9805 -0.0614  0.3874
  225MOL0     H29675   8.223   7.357   2.571  1.2767 -3.1297 -1.8521
  225MOL0     H29676   8.069   7.550   2.385  0.2977  2.3017  1.2520
  225MOL0     H29677   8.234   7.521   2.369  1.8168  1.6290  2.1663
  225MOL0     H29678   8.241   7.594   2.630 -1.7268  2.3448  3.1133
  225MOL0     H29679   8.254   7.706   2.488 -0.6848  1.4530  0.5815
  225MOL0     H29680   8.022   7.671   2.675  0.4669 -0.4345  1.2773
  225MOL0     H29681   7.998   7.726   2.513  2.0939  2.4503 -1.0640
  225MOL0     H29682   7.441   7.013   2.616  0.6547  1.5473 -0.8536
  225MOL0     H29683   7.210   6.931   2.553  2.7253 -0.2149  0.5014
  225MOL0     H29684   6.714   6.913   2.545  1.8795 -0.2505  0.2873
  225MOL0     H29685   6.494   6.920   2.442  1.4936 -0.0884  2.5179
  225MOL0     H29686   5.717   6.701   3.405 -2.2979  2.2295 -1.7811
  225MOL0     H29687   5.935   6.755   3.500  0.0077 -2.1532  0.2644
  225MOL0     H29688   6.332   6.740   3.569  0.8564  1.4205  0.9382
  225MOL0     H29689   6.546   6.719   3.673  0.0924  1.0824 -0.8263
  225MOL0     H29690   6.947   6.852   3.585 -1.2413  1.9046 -0.8771
  225MOL0     H29691   6.858   6.874   3.434 -1.0615  2.4269  1.4205
  225MOL0     H29692   6.991   6.609   3.512  3.9104  2.3389  3.0761
  225MOL0     H29693   6.915   6.656   3.358 -2.2630 -2.2469  1.4340
  225MOL0     H29694   7.165   6.772   3.502  0.7181  0.4034  0.1711
  225MOL0     H29695   7.099   6.830   3.344 -2.3496 -2.8088 -1.7757
  225MOL0     H29696   7.174   6.662   3.223  3.4891 -0.1917 -1.1261
  225MOL0     H29697   7.307   6.715   3.324  1.0379 -0.6049  2.0854
  225MOL0     H29698   7.211   6.295   3.419 -0.0310  0.6055  0.1176
  225MOL0     H29699   6.736   6.774   3.292  0.6580  1.3247  1.0628
  225MOL0     H29700   6.504   6.766   3.179 -1.2530  1.0726  0.4153
  226MOL0     O29701   2.924   0.151   8.553 -0.4608 -0.1178  0.2053
  226MOL0     C29702   3.005   0.102   8.478 -0.7504 -0.5027  0.0928
  226MOL0     O29703   3.003  -0.022   8.423 -0.3148 -0.0650 -0.0287
  226MOL0     C29704   2.874  -0.087   8.433 -0.3326 -0.4808  0.0389
  226MOL0     C29705   2.863  -0.214   8.501  0.1872 -0.3913 -0.1526
  226MOL0     C29706   2.742  -0.273   8.502  0.5424 -0.4132 -0.5192
  226MOL0     C29707   2.642  -0.232   8.418  0.3057  0.3942 -1.0253
  226MOL0     O29708   2.539  -0.318   8.414  1.0416  0.2142  0.0434
  226MOL0     C29709   2.455  -0.308   8.295  0.2205 -0.5630 -0.6679
  226MOL0     C29710   2.361  -0.425   8.288  0.7644  0.7577 -0.0452
  226MOL0     C29711   2.428  -0.559   8.248  0.3891  0.7240  0.4079
  226MOL0     C29712   2.327  -0.673   8.211  0.8285  0.2100 -0.5716
  226MOL0     C29713   2.240  -0.649   8.077 -0.1854 -0.5405  0.5655
  226MOL0     C29714   2.169  -0.773   8.024  0.9079 -0.1346 -0.8712
  226MOL0     C29715   2.083  -0.748   7.902 -0.0512  0.9545 -0.4154
  226MOL0     C29716   1.971  -0.639   7.938  0.8140  1.2678 -0.5934
  226MOL0     N29717   1.871  -0.625   7.836  0.2389 -0.4481  0.0092
  226MOL0     C29718   1.900  -0.584   7.710 -0.5920 -0.5267 -0.7747
  226MOL0     C29719   1.785  -0.621   7.644  0.6323 -0.6736 -0.4108
  226MOL0     C29720   1.770  -0.617   7.496 -0.9251  1.5625 -0.3418
  226MOL0     C29721   1.649  -0.531   7.455  0.7250  0.5416 -0.3594
  226MOL0     C29722   1.665  -0.378   7.492  0.0595  0.0481 -0.0347
  226MOL0     C29723   1.562  -0.279   7.437 -0.6190  0.6388 -0.0562
  226MOL0     O29724   1.573  -0.150   7.501  0.5251  0.3998 -0.1681
  226MOL0     C29725   1.485  -0.050   7.471 -0.1338  0.0103  1.0098
  226MOL0     C29726   1.400  -0.050   7.366  0.9695  0.1625 -0.3019
  226MOL0     C29727   1.323   0.065   7.342 -0.4541 -1.1588  0.6640
  226MOL0     C29728   1.329   0.195   7.409  0.4362  1.6929  1.0201
  226MOL0     C29729   1.252   0.311   7.362  0.4475 -0.1463 -0.3855
  226MOL0     O29730   1.287   0.425   7.424  0.0231  0.2736 -0.0392
  226MOL0     C29731   1.227   0.536   7.376 -0.0904  0.2023  1.0616
  226MOL0     C29732   1.128   0.607   7.436  0.7745  0.9274 -0.1521
  226MOL0     C29733   1.087   0.730   7.380 -0.1380 -0.5345  0.1027
  226MOL0     C29734   1.132   0.787   7.270  0.5027 -0.8109  0.7285
  226MOL0     O29735   1.085   0.911   7.230  0.3156  0.5937  0.7362
  226MOL0     C29736   1.146   0.992   7.133 -0.1969 -0.0401 -0.2889
  226MOL0     C29737   1.074   1.127   7.122 -1.0244 -0.9176  0.3130
  226MOL0     C29738   0.930   1.105   7.098  0.8467 -0.6044  0.9462
  226MOL0     C29739   0.900   1.034   6.968 -0.9840 -0.1729 -0.5253
  226MOL0     C29740   0.757   1.050   6.920  0.4249 -0.3036  0.0608
  226MOL0     C29741   0.652   0.998   7.012  0.4225 -0.0212 -0.2945
  226MOL0     C29742   0.508   1.023   6.950 -0.0425  0.5657 -0.1802
  226MOL0     C29743   0.479   1.160   6.880 -1.0907  0.0040 -0.9862
  226MOL0    Cl29744   0.456   1.307   6.990  0.3316 -0.7473 -0.1176
  226MOL0     C29745   1.225   0.710   7.203 -0.5408 -0.3684 -0.1190
  226MOL0     C29746   1.270   0.582   7.249  0.3334 -0.6246 -0.5062
  226MOL0     O29747   1.179   0.296   7.265  0.2498 -0.4969  0.4516
  226MOL0     C29748   1.423   0.184   7.514 -0.0172 -0.1161  0.4970
  226MOL0     C29749   1.499   0.072   7.538  0.3388  0.7096  0.0110
  226MOL0     N29750   1.691  -0.667   7.729  0.7747 -0.0733 -0.0977
  226MOL0     N29751   1.746  -0.672   7.843  0.0835  0.2814  0.0872
  226MOL0     C29752   2.649  -0.108   8.353 -0.0548  0.1965 -0.2159
  226MOL0     C29753   2.766  -0.037   8.357 -0.3210 -0.4736 -0.6759
  226MOL0     C29754   3.127   0.196   8.457 -0.3861  0.3426 -1.4276
  226MOL0     C29755   3.234   0.149   8.384  1.0499  0.1316 -0.1715
  226MOL0     C29756   3.344   0.230   8.363  0.3196 -0.6726  0.5478
  226MOL0     C29757   3.351   0.361   8.418  1.0406  0.1579 -0.6581
  226MOL0     O29758   3.457   0.431   8.382  0.3390  0.3164  0.6335
  226MOL0     C29759   3.501   0.548   8.457  0.4006 -0.1399  0.6944
  226MOL0     C29760   3.486   0.679   8.386  0.7756  0.9156  0.4141
  226MOL0     C29761   3.568   0.789   8.466  0.2076  0.1577  0.3563
  226MOL0     C29762   3.682   0.855   8.398 -0.2610  1.0735 -0.0963
  226MOL0     C29763   3.780   0.769   8.342 -0.1799 -0.0969 -0.6625
  226MOL0     C29764   3.864   0.719   8.269  0.0213 -0.2484  0.7487
  226MOL0     C29765   3.243   0.401   8.502  0.2404 -0.1886 -0.1155
  226MOL0     C29766   3.136   0.325   8.523  0.8381 -0.4177  0.6036
  226MOL0     H29767   2.942  -0.264   8.557  0.4898  1.0138  0.7317
  226MOL0     H29768   2.742  -0.368   8.555  1.7376  1.1575  2.5408
  226MOL0     H29769   2.511  -0.294   8.202  1.3482  2.8953  0.3733
  226MOL0     H29770   2.400  -0.216   8.317  0.4458 -0.2090 -1.5640
  226MOL0     H29771   2.279  -0.402   8.218  0.4650  1.5244  0.5372
  226MOL0     H29772   2.307  -0.434   8.383 -0.2026  0.5951 -0.5921
  226MOL0     H29773   2.505  -0.589   8.320  0.7886  0.9150  0.0613
  226MOL0     H29774   2.482  -0.545   8.154 -0.5583  1.3183 -0.0613
  226MOL0     H29775   2.381  -0.767   8.194  0.6643 -0.2196  1.0930
  226MOL0     H29776   2.261  -0.691   8.296  3.8208 -1.8915  1.5360
  226MOL0     H29777   2.311  -0.626   7.997  2.2048  0.0635  2.7134
  226MOL0     H29778   2.179  -0.562   8.102  0.7613 -0.3989  2.5605
  226MOL0     H29779   2.114  -0.809   8.111 -1.6242 -0.0207 -2.3249
  226MOL0     H29780   2.240  -0.854   8.002  0.5237 -0.9424  0.6886
  226MOL0     H29781   2.150  -0.715   7.823  1.5044 -3.1231 -1.0347
  226MOL0     H29782   2.029  -0.837   7.868 -2.0521  1.8887  0.1905
  226MOL0     H29783   2.016  -0.539   7.940 -1.4790  2.3892  2.3153
  226MOL0     H29784   1.918  -0.642   8.033 -1.2422 -1.1161 -1.7022
  226MOL0     H29785   1.991  -0.548   7.663 -1.7932  0.9550 -2.0966
  226MOL0     H29786   1.731  -0.714   7.464 -0.8375  1.3946  0.0483
  226MOL0     H29787   1.869  -0.598   7.454  0.2137  0.4506  1.6851
  226MOL0     H29788   1.560  -0.572   7.502 -1.1654  1.7463 -2.6863
  226MOL0     H29789   1.623  -0.551   7.351  1.0873  0.0847 -0.3650
  226MOL0     H29790   1.657  -0.361   7.600  0.3552  1.0827 -0.1674
  226MOL0     H29791   1.765  -0.340   7.469  0.1508 -0.6868 -0.8649
  226MOL0     H29792   1.462  -0.322   7.447 -1.1868  1.6331 -1.1554
  226MOL0     H29793   1.567  -0.277   7.328 -1.9867  0.0637 -0.1562
  226MOL0     H29794   1.373  -0.135   7.305  1.7718 -1.0837  1.0187
  226MOL0     H29795   1.262   0.058   7.253 -0.3780  0.9494  0.4010
  226MOL0     H29796   1.082   0.558   7.521 -0.5371 -0.6373 -1.6917
  226MOL0     H29797   1.002   0.775   7.431  0.0653 -2.1967  2.0614
  226MOL0     H29798   1.144   0.941   7.036 -2.2804  3.7784 -2.4884
  226MOL0     H29799   1.252   1.004   7.158 -1.0361  2.0832  2.9223
  226MOL0     H29800   1.127   1.177   7.040 -0.6369 -2.8383 -0.6680
  226MOL0     H29801   1.090   1.189   7.210 -2.6895 -0.7279  0.5072
  226MOL0     H29802   0.889   1.206   7.096  0.4635 -0.7538  1.1101
  226MOL0     H29803   0.886   1.053   7.183 -1.8103  0.6606  0.4540
  226MOL0     H29804   0.969   1.070   6.891 -0.3741 -1.7959 -0.7702
  226MOL0     H29805   0.933   0.930   6.977 -0.9581 -0.2367 -1.2498
  226MOL0     H29806   0.750   0.998   6.824  2.3592 -0.9973  0.2330
  226MOL0     H29807   0.737   1.153   6.891 -0.6575 -1.0548 -2.0504
  226MOL0     H29808   0.663   1.044   7.110  1.8194  0.6663 -0.7472
  226MOL0     H29809   0.657   0.891   7.034 -0.8849 -0.7250 -2.9792
  226MOL0     H29810   0.483   0.942   6.881  0.3527  0.8399 -0.6498
  226MOL0     H29811   0.435   1.001   7.029  2.3563  0.9509  2.3289
  226MOL0     H29812   0.384   1.153   6.827 -1.3710  1.6705 -0.7559
  226MOL0     H29813   0.546   1.187   6.798  0.3912  1.2596  0.5769
  226MOL0     H29814   1.257   0.745   7.106  2.7657 -1.2276  0.5633
  226MOL0     H29815   1.334   0.526   7.182  1.2655  1.0360 -1.0721
  226MOL0     H29816   1.441   0.279   7.563 -3.6288 -0.2898  2.4361
  226MOL0     H29817   1.579   0.088   7.609  0.4999  1.4528 -0.3247
  226MOL0     H29818   2.566  -0.061   8.301 -0.3305  2.1342  1.8288
  226MOL0     H29819   2.775   0.056   8.302  3.0881 -1.6476 -2.4289
  226MOL0     H29820   3.224   0.045   8.354  0.9751 -0.7392  2.6325
  226MOL0     H29821   3.421   0.188   8.300 -2.7254 -1.1856 -3.2247
  226MOL0     H29822   3.606   0.529   8.482  1.0016  1.5793 -0.4129
  226MOL0     H29823   3.452   0.548   8.555  0.6080 -0.7980  0.8031
  226MOL0     H29824   3.516   0.664   8.282 -3.1993  2.1564 -1.0972
  226MOL0     H29825   3.377   0.692   8.388  0.3153 -2.1184  0.0175
  226MOL0     H29826   3.598   0.756   8.566 -0.5779  3.7354  1.9221
  226MOL0     H29827   3.495   0.866   8.493 -1.9952 -2.2686  1.7650
  226MOL0     H29828   3.643   0.913   8.314 -1.6306 -1.1711 -1.1015
  226MOL0     H29829   3.723   0.917   8.478 -1.7883 -0.0149  1.6228
  226MOL0     H29830   3.948   0.704   8.205 -0.3571  1.9045 -0.3416
  226MOL0     H29831   3.238   0.502   8.543  2.3916 -0.1682  0.1672
  226MOL0     H29832   3.049   0.375   8.564  0.1401 -0.6218 -0.5819
  227MOL0     O29833   5.495   3.011   3.302 -0.3656  0.3098 -0.2693
  227MOL0     C29834   5.580   2.925   3.281 -0.2027 -0.2490 -0.0631
  227MOL0     O29835   5.564   2.833   3.188 -0.6947 -0.1064  0.3321
  227MOL0     C29836   5.458   2.809   3.097 -0.2858 -0.8719 -0.6366
  227MOL0     C29837   5.473   2.836   2.959  0.4517  0.2722  0.1455
  227MOL0     C29838   5.380   2.809   2.866  0.2552 -0.5981  0.9527
  227MOL0     C29839   5.256   2.757   2.900  0.4395 -1.3071  0.4522
  227MOL0     O29840   5.161   2.711   2.817  0.0725  0.0429 -0.4347
  227MOL0     C29841   5.163   2.761   2.682 -0.2862  0.4383 -0.1295
  227MOL0     C29842   5.021   2.726   2.627 -0.8741 -0.7472  0.1789
  227MOL0     C29843   5.016   2.804   2.499  0.2352 -0.4501  0.0227
  227MOL0     C29844   4.874   2.832   2.445 -0.9134  0.0720  0.0543
  227MOL0     C29845   4.792   2.701   2.427 -0.3181 -0.1998  0.3212
  227MOL0     C29846   4.816   2.633   2.291  0.6051  0.0250 -0.2151
  227MOL0     C29847   4.774   2.483   2.278 -0.1163 -0.3841 -0.2320
  227MOL0     C29848   4.623   2.452   2.276 -0.3639 -0.8747  0.3500
  227MOL0     N29849   4.545   2.513   2.169  0.7056 -0.0366  0.1660
  227MOL0     C29850   4.410   2.480   2.147 -0.3047  0.5911 -0.3215
  227MOL0     C29851   4.374   2.541   2.032 -0.4736 -0.0741  0.5068
  227MOL0     C29852   4.241   2.538   1.952 -1.8174  0.4444 -0.6044
  227MOL0     C29853   4.121   2.528   2.047 -0.0605 -0.3825 -0.1930
  227MOL0     C29854   3.993   2.534   1.959  0.2097  1.1031  0.3653
  227MOL0     C29855   3.978   2.420   1.861  0.0687  0.8746 -0.4284
  227MOL0     O29856   3.866   2.452   1.784 -0.3560  0.2461 -0.2334
  227MOL0     C29857   3.841   2.387   1.673  0.8276 -0.4936  0.0836
  227MOL0     C29858   3.726   2.428   1.603  0.6968  0.6640 -0.0314
  227MOL0     C29859   3.698   2.365   1.481  0.5511 -0.0894  0.0425
  227MOL0     C29860   3.789   2.269   1.420  0.5281 -0.6908  0.0540
  227MOL0     C29861   3.771   2.221   1.286 -0.3876  0.1363  0.0524
  227MOL0     O29862   3.642   2.190   1.241 -0.5147  0.4559 -0.6521
  227MOL0     C29863   3.632   2.093   1.147 -0.1610 -0.4569  0.7913
  227MOL0     C29864   3.636   1.954   1.179  0.4546 -0.2777  0.3223
  227MOL0     C29865   3.640   1.857   1.074  0.1240  0.2387  0.1395
  227MOL0     C29866   3.617   1.901   0.940  0.3045  0.0380 -0.2170
  227MOL0     O29867   3.612   1.806   0.833  0.0376 -0.4931  0.2739
  227MOL0     C29868   3.499   1.790   0.746 -0.4765 -0.4115  0.2496
  227MOL0     C29869   3.482   1.887   0.622 -0.0585  1.5133 -0.5782
  227MOL0     C29870   3.386   1.823   0.524  0.7251 -0.2857 -0.5749
  227MOL0     C29871   3.408   1.885   0.381 -0.9238  0.2668 -0.4956
  227MOL0     C29872   3.345   2.024   0.347 -0.3210 -0.1990  0.9118
  227MOL0     C29873   3.330   2.036   0.201 -0.1529  0.7457  0.4390
  227MOL0     C29874   3.253   2.165   0.163 -1.1765 -0.4670  1.3517
  227MOL0     C29875   3.111   2.121   0.154 -0.2380 -0.5191  0.2870
  227MOL0    Cl29876   3.020   2.267   0.096  0.2719  0.3101 -0.6500
  227MOL0     C29877   3.596   2.037   0.921  0.1899  0.5713  0.7250
  227MOL0     C29878   3.597   2.136   1.017 -0.3051 -0.3843 -0.3419
  227MOL0     O29879   3.875   2.201   1.222  0.2581  0.3295  0.3876
  227MOL0     C29880   3.893   2.225   1.501  0.5893 -0.0571 -0.0525
  227MOL0     C29881   3.916   2.278   1.625  0.1991 -1.0412 -0.5591
  227MOL0     N29882   4.487   2.611   1.989  0.6129  0.3519  0.5110
  227MOL0     N29883   4.589   2.592   2.066 -0.0415 -0.3884 -0.1986
  227MOL0     C29884   5.222   2.760   3.037  0.3965  0.2996  0.1231
  227MOL0     C29885   5.330   2.770   3.132  0.1637  0.1506 -0.4243
  227MOL0     C29886   5.710   2.933   3.352  0.0766  0.2390  0.1654
  227MOL0     C29887   5.748   3.058   3.417 -0.2839 -0.5580  1.2499
  227MOL0     C29888   5.865   3.073   3.483 -0.1741 -0.2495 -0.4474
  227MOL0     C29889   5.956   2.967   3.482 -0.4215 -0.3804 -0.8271
  227MOL0     O29890   6.069   2.979   3.563 -0.1841 -0.4376  0.8507
  227MOL0     C29891   6.195   2.925   3.517  0.0772 -0.6270  1.4140
  227MOL0     C29892   6.291   3.026   3.563 -0.7472  0.0242 -1.0101
  227MOL0     C29893   6.440   2.977   3.571  0.5207 -0.2363  0.3474
  227MOL0     C29894   6.465   2.912   3.704  0.0202  0.1009  1.3003
  227MOL0     C29895   6.410   2.771   3.723  0.4281  0.5406  0.2920
  227MOL0     C29896   6.356   2.663   3.748  0.7989  0.7094  0.3656
  227MOL0     C29897   5.927   2.842   3.415  0.4996  0.4618 -0.1081
  227MOL0     C29898   5.802   2.830   3.351 -0.3257 -0.3389 -0.1237
  227MOL0     H29899   5.562   2.889   2.927  1.1684  1.6624  3.8738
  227MOL0     H29900   5.404   2.813   2.760 -0.5342  0.9761  0.8013
  227MOL0     H29901   5.231   2.695   2.628  1.5744  1.0382  1.3700
  227MOL0     H29902   5.195   2.866   2.673 -1.7938  0.8828 -0.5556
  227MOL0     H29903   4.931   2.757   2.681 -0.6925 -2.2579  1.4212
  227MOL0     H29904   5.022   2.616   2.624  0.3320 -0.8401  2.0437
  227MOL0     H29905   5.061   2.745   2.420 -0.1422 -2.7028  1.3958
  227MOL0     H29906   5.068   2.900   2.503 -2.3707  1.0523  2.5350
  227MOL0     H29907   4.806   2.884   2.512 -0.6288 -2.4299  2.4589
  227MOL0     H29908   4.883   2.896   2.357  1.7799 -1.8354 -1.2016
  227MOL0     H29909   4.686   2.729   2.430  0.4306  3.0833  0.1956
  227MOL0     H29910   4.813   2.630   2.508 -1.2486  1.0523  1.7186
  227MOL0     H29911   4.922   2.638   2.269  0.4420 -3.7632 -2.6517
  227MOL0     H29912   4.756   2.694   2.223 -0.4400  0.0001  0.6452
  227MOL0     H29913   4.823   2.439   2.191 -0.1309  0.6272 -0.7653
  227MOL0     H29914   4.820   2.447   2.370 -0.0111  0.8638  0.2180
  227MOL0     H29915   4.578   2.488   2.369 -1.5436 -0.6886 -0.2718
  227MOL0     H29916   4.613   2.344   2.271  0.9852 -1.0570  1.1531
  227MOL0     H29917   4.348   2.404   2.194  1.5843  0.7430  2.7081
  227MOL0     H29918   4.237   2.451   1.886 -1.7019  0.2241 -0.3272
  227MOL0     H29919   4.232   2.634   1.901 -1.2076 -0.2624 -2.1156
  227MOL0     H29920   4.133   2.613   2.115  3.5136 -0.3392 -0.6972
  227MOL0     H29921   4.121   2.449   2.122  2.4397  1.2044  1.6509
  227MOL0     H29922   3.907   2.546   2.025  0.8525  0.6932  1.2877
  227MOL0     H29923   3.993   2.628   1.902 -0.7663  0.3515 -0.9277
  227MOL0     H29924   3.951   2.331   1.919 -0.0100  2.2919  1.8265
  227MOL0     H29925   4.070   2.406   1.804 -0.1904 -1.4921 -0.3708
  227MOL0     H29926   3.645   2.495   1.629 -0.3786 -0.6146  0.0581
  227MOL0     H29927   3.614   2.397   1.420  1.1755  0.5946 -0.4718
  227MOL0     H29928   3.635   1.927   1.284 -4.9842  1.9337  1.1534
  227MOL0     H29929   3.666   1.754   1.095 -0.5958 -0.3805 -1.7715
  227MOL0     H29930   3.414   1.804   0.813 -2.3783 -0.1241 -2.0730
  227MOL0     H29931   3.505   1.684   0.716 -2.8300 -0.5816  0.1927
  227MOL0     H29932   3.580   1.892   0.574 -0.3009 -1.1259 -1.5040
  227MOL0     H29933   3.434   1.983   0.644 -4.2379 -0.5513  0.4821
  227MOL0     H29934   3.286   1.858   0.551  1.5587  0.5953  1.6056
  227MOL0     H29935   3.388   1.714   0.517  2.5769 -0.2767 -0.6726
  227MOL0     H29936   3.515   1.888   0.360 -0.4828  0.2178  1.5452
  227MOL0     H29937   3.364   1.816   0.309  0.5333 -2.1751  0.8237
  227MOL0     H29938   3.410   2.100   0.391  0.0344 -0.5838  1.0574
  227MOL0     H29939   3.246   2.027   0.392 -0.7617 -0.4203 -0.0205
  227MOL0     H29940   3.280   1.948   0.160  3.7680 -1.1447 -0.8167
  227MOL0     H29941   3.427   2.030   0.150 -1.9312 -5.5450 -3.3737
  227MOL0     H29942   3.281   2.245   0.232  1.0945 -0.4748  0.5278
  227MOL0     H29943   3.280   2.196   0.062 -1.9280 -2.4617  0.4931
  227MOL0     H29944   3.063   2.095   0.249 -1.4355  1.9236  0.4520
  227MOL0     H29945   3.096   2.041   0.081 -0.7982  1.3718 -1.7763
  227MOL0     H29946   3.579   2.071   0.819 -0.0279 -2.5413 -0.3563
  227MOL0     H29947   3.581   2.239   0.989  0.7895 -0.0542  0.1942
  227MOL0     H29948   3.956   2.141   1.472 -0.1256 -0.8071  0.5175
  227MOL0     H29949   4.004   2.254   1.684 -0.3538  2.6719  2.1054
  227MOL0     H29950   5.119   2.738   3.064  0.4437 -1.8734 -1.2130
  227MOL0     H29951   5.296   2.768   3.235 -2.4012 -2.1588 -1.1957
  227MOL0     H29952   5.670   3.131   3.436  0.0417  0.4514 -1.0173
  227MOL0     H29953   5.885   3.161   3.544 -1.5663 -1.0759  1.2704
  227MOL0     H29954   6.200   2.897   3.411 -2.4326  2.9801  0.1328
  227MOL0     H29955   6.212   2.827   3.562  1.0713 -2.5430 -2.6090
  227MOL0     H29956   6.283   3.108   3.491  2.2689  1.6876  0.3539
  227MOL0     H29957   6.265   3.062   3.663 -0.3816 -2.0595 -0.1168
  227MOL0     H29958   6.510   3.059   3.554  2.5996 -2.3646 -2.5673
  227MOL0     H29959   6.471   2.909   3.490  3.1318 -0.3285  1.3303
  227MOL0     H29960   6.574   2.910   3.711  0.5741  3.1205 -2.7810
  227MOL0     H29961   6.431   2.973   3.788 -2.9152  0.0166  0.2804
  227MOL0     H29962   6.322   2.567   3.783  2.7317  0.4103  1.6042
  227MOL0     H29963   5.983   2.749   3.422  1.5510  1.1228  0.5078
  227MOL0     H29964   5.775   2.734   3.310 -0.4012 -0.1061 -0.6258
  228MOL0     O29965   5.654   2.185  10.245 -0.1731 -0.1769 -0.7015
  228MOL0     C29966   5.606   2.249  10.343  0.4967  1.1159  0.0136
  228MOL0     O29967   5.659   2.269  10.464 -0.0648 -0.2552 -0.0272
  228MOL0     C29968   5.788   2.221  10.476 -0.0636 -0.2455 -0.0966
  228MOL0     C29969   5.817   2.085  10.508 -0.2395  0.6613  0.9469
  228MOL0     C29970   5.938   2.046  10.562 -0.9273 -0.2093 -0.2926
  228MOL0     C29971   6.047   2.138  10.577 -0.3734  0.2960  0.3723
  228MOL0     O29972   6.162   2.085  10.635  1.2997 -0.2999  0.2112
  228MOL0     C29973   6.268   2.179  10.668  0.3017  0.2746 -0.2198
  228MOL0     C29974   6.406   2.106  10.711 -0.1302  0.5985 -0.2085
  228MOL0     C29975   6.530   2.175  10.673  0.7892 -0.4282 -0.6872
  228MOL0     C29976   6.649   2.078  10.661 -0.1950  0.0259  0.1697
  228MOL0     C29977   6.786   2.138  10.714  0.6923  0.5224  0.3633
  228MOL0     C29978   6.780   2.159  10.866 -0.2909  0.4054 -0.2084
  228MOL0     C29979   6.922   2.160  10.923 -0.4013 -0.4002 -0.4203
  228MOL0     C29980   6.969   2.017  10.938 -0.5116  0.4041  0.6005
  228MOL0     N29981   7.107   2.004  10.985 -0.1703  0.3646  0.4738
  228MOL0     C29982   7.139   1.982  11.114 -0.6274  0.5361 -0.3413
  228MOL0     C29983   7.276   1.970  11.116  0.6797 -0.2342 -0.3268
  228MOL0     C29984   7.349   1.947  11.245 -0.0339  0.1505 -0.7216
  228MOL0     C29985   7.457   1.835  11.235 -0.4097 -0.3018 -0.8240
  228MOL0     C29986   7.393   1.701  11.226  0.5765 -0.9497  0.3336
  228MOL0     C29987   7.482   1.576  11.233  0.0760  0.1365  0.5602
  228MOL0     O29988   7.401   1.460  11.229 -0.2549  0.5465  0.0149
  228MOL0     C29989   7.370   1.391  11.119  0.7256 -0.5657 -0.5772
  228MOL0     C29990   7.394   1.434  10.987  0.5848  0.0558  0.2581
  228MOL0     C29991   7.340   1.360  10.879  0.0788 -0.5267  0.4678
  228MOL0     C29992   7.274   1.237  10.890 -0.8337 -0.3293  0.0650
  228MOL0     C29993   7.180   1.183  10.780  0.1770  0.3723 -0.6308
  228MOL0     O29994   7.159   1.257  10.672 -0.8023  0.0667  0.1168
  228MOL0     C29995   7.066   1.207  10.582  0.6292 -0.2895 -0.4954
  228MOL0     C29996   7.099   1.134  10.482 -1.3419  0.2981 -0.1307
  228MOL0     C29997   7.021   1.100  10.378 -0.5384  0.2129  0.4795
  228MOL0     C29998   6.891   1.147  10.375  0.2270 -0.4586 -0.9347
  228MOL0     O29999   6.794   1.107  10.290 -0.1789  0.3485  0.0078
  228MOL0     C30000   6.814   1.004  10.190  0.3035  0.2734  0.2511
  228MOL0     C30001   6.761   0.876  10.239 -0.5574 -0.2216 -0.6975
  228MOL0     C30002   6.609   0.878  10.230  0.2109 -0.1771 -0.0419
  228MOL0     C30003   6.557   0.738  10.271 -0.3229 -0.3279  0.2509
  228MOL0     C30004   6.408   0.715  10.243  0.7137 -0.2382 -0.0536
  228MOL0     C30005   6.379   0.562  10.261  0.5535  0.0954  0.1793
  228MOL0     C30006   6.231   0.511  10.253  0.8469 -0.7633  0.8400
  228MOL0     C30007   6.174   0.514  10.110  0.7363 -0.3830  0.4992
  228MOL0    Cl30008   6.040   0.399  10.082  0.0285  0.1619 -0.3527
  228MOL0     C30009   6.844   1.223  10.484 -1.0816  0.1900 -0.2113
  228MOL0     C30010   6.925   1.244  10.597 -0.4583  0.0793  0.1755
  228MOL0     O30011   7.122   1.079  10.810  0.1619  0.7015 -0.2826
  228MOL0     C30012   7.265   1.194  11.029 -0.1644 -0.1388  0.2869
  228MOL0     C30013   7.307   1.272  11.140  0.8077 -0.4972  0.1609
  228MOL0     N30014   7.334   1.993  10.984  0.5220 -0.1138 -0.3448
  228MOL0     N30015   7.231   2.026  10.909  0.9427 -0.3408 -0.8327
  228MOL0     C30016   6.024   2.265  10.518 -0.4530  0.4062  0.1446
  228MOL0     C30017   5.898   2.304  10.477 -0.2354  0.5206  0.2582
  228MOL0     C30018   5.467   2.311  10.322 -1.0992  0.0784 -0.6465
  228MOL0     C30019   5.355   2.259  10.241  0.3412 -0.2300 -0.1546
  228MOL0     C30020   5.237   2.328  10.247 -0.4112 -0.1754  0.0887
  228MOL0     C30021   5.207   2.431  10.333  1.1517  0.6925  0.0050
  228MOL0     O30022   5.076   2.471  10.346  0.2426 -0.2916 -0.3978
  228MOL0     C30023   4.969   2.379  10.307  0.6440 -0.8094  0.0363
  228MOL0     C30024   4.831   2.450  10.338 -0.1842 -0.4118 -0.1698
  228MOL0     C30025   4.801   2.563  10.235  0.3671 -0.0832  0.5476
  228MOL0     C30026   4.667   2.625  10.271  0.5242  0.2023  0.3531
  228MOL0     C30027   4.581   2.675  10.162 -0.3239 -0.4465 -1.1384
  228MOL0     C30028   4.505   2.725  10.085 -0.1720 -0.4829  0.4827
  228MOL0     C30029   5.311   2.482  10.412  0.4598  0.2712 -0.5030
  228MOL0     C30030   5.443   2.420  10.407  0.6600 -0.4744  0.2266
  228MOL0     H30031   5.725   2.028  10.497 -0.6762  1.7090 -1.3242
  228MOL0     H30032   5.954   1.947  10.603 -1.2102 -0.3585 -0.5418
  228MOL0     H30033   6.226   2.249  10.740 -0.6484 -0.4030 -0.1027
  228MOL0     H30034   6.298   2.241  10.582 -0.2888  1.2416  0.2585
  228MOL0     H30035   6.414   2.013  10.654 -1.5382 -0.0281  0.5835
  228MOL0     H30036   6.397   2.078  10.816  0.2247 -1.0700 -0.5983
  228MOL0     H30037   6.551   2.241  10.758  0.3952 -1.6151  0.3598
  228MOL0     H30038   6.513   2.219  10.575 -1.8786 -0.3613 -0.2721
  228MOL0     H30039   6.636   1.981  10.709  1.1551 -0.5515 -0.5827
  228MOL0     H30040   6.665   2.058  10.555  0.3441 -1.7273  0.5464
  228MOL0     H30041   6.822   2.223  10.656  3.1504  0.2354  1.3644
  228MOL0     H30042   6.859   2.061  10.689 -2.0343 -1.1968 -3.2368
  228MOL0     H30043   6.719   2.080  10.912  1.4417 -0.5872  0.4913
  228MOL0     H30044   6.716   2.242  10.895 -1.1957 -0.6483  0.9441
  228MOL0     H30045   6.981   2.211  10.847 -2.0868  0.4111 -1.2583
  228MOL0     H30046   6.913   2.208  11.021  0.2967 -1.9199  0.4093
  228MOL0     H30047   6.960   1.975  10.837 -1.3018  0.3564  0.6879
  228MOL0     H30048   6.901   1.950  10.991 -1.5120  1.1016  0.2352
  228MOL0     H30049   7.069   1.961  11.194  1.3102 -0.6670  1.1339
  228MOL0     H30050   7.280   1.922  11.326  2.0155 -3.8943  0.0365
  228MOL0     H30051   7.403   2.040  11.263  0.3498 -0.0029 -1.0689
  228MOL0     H30052   7.523   1.838  11.322 -0.7192 -2.6046 -0.4562
  228MOL0     H30053   7.512   1.860  11.144  1.7851  0.0742  0.5300
  228MOL0     H30054   7.335   1.694  11.318  0.6836 -0.9012  0.4053
  228MOL0     H30055   7.331   1.704  11.136  1.5027  2.2639 -0.3408
  228MOL0     H30056   7.531   1.589  11.330  0.9993  1.4911 -0.0640
  228MOL0     H30057   7.562   1.571  11.159  0.0768 -1.7369  0.6430
  228MOL0     H30058   7.454   1.523  10.979  0.9753 -0.2635 -0.4257
  228MOL0     H30059   7.358   1.411  10.784 -2.7983  0.2901  0.2731
  228MOL0     H30060   7.194   1.083  10.469 -1.4431  0.6558 -2.7267
  228MOL0     H30061   7.071   1.028  10.315  0.1319 -1.7374  3.0846
  228MOL0     H30062   6.922   1.006  10.179  0.7410  1.2188  3.6187
  228MOL0     H30063   6.777   1.049  10.097  0.5355 -1.9259 -0.9583
  228MOL0     H30064   6.798   0.845  10.337 -3.3616 -0.7445  0.2941
  228MOL0     H30065   6.794   0.799  10.168 -0.5535 -2.0503  1.1952
  228MOL0     H30066   6.575   0.921  10.136  0.8711  1.9879  0.6553
  228MOL0     H30067   6.578   0.945  10.311  1.5866 -0.5210  0.8092
  228MOL0     H30068   6.610   0.658  10.218 -1.1935 -1.0274  0.3936
  228MOL0     H30069   6.577   0.703  10.372  2.3539 -0.3050 -0.1934
  228MOL0     H30070   6.370   0.731  10.142  0.0527 -0.3173  0.1778
  228MOL0     H30071   6.357   0.785  10.310  2.5057  3.1382 -1.9482
  228MOL0     H30072   6.419   0.542  10.361  2.0769  0.4071 -0.3412
  228MOL0     H30073   6.443   0.502  10.196 -0.3594  0.9145 -1.5419
  228MOL0     H30074   6.229   0.406  10.281 -0.5601 -0.9390  0.1736
  228MOL0     H30075   6.174   0.558  10.334  2.4065 -0.5320  1.8466
  228MOL0     H30076   6.261   0.489  10.048  2.9257  2.9894  1.8971
  228MOL0     H30077   6.136   0.612  10.081 -2.0122 -1.7516 -0.9242
  228MOL0     H30078   6.738   1.246  10.483 -1.1600 -0.1701 -1.2469
  228MOL0     H30079   6.893   1.288  10.691  0.9112  0.5235  0.4509
  228MOL0     H30080   7.201   1.113  11.063  0.3315 -0.3833  0.6407
  228MOL0     H30081   7.277   1.240  11.239  0.5689  3.0943  1.3914
  228MOL0     H30082   6.112   2.327  10.531 -0.2924 -0.0041  1.0810
  228MOL0     H30083   5.879   2.409  10.462 -0.1208  0.2197 -2.4255
  228MOL0     H30084   5.370   2.176  10.171  2.1342  0.3788 -0.5617
  228MOL0     H30085   5.163   2.303  10.171  2.8329 -2.1665 -2.7091
  228MOL0     H30086   4.982   2.284  10.359 -0.5120  0.7225  3.4180
  228MOL0     H30087   4.974   2.356  10.200  0.1268  1.7030 -0.6036
  228MOL0     H30088   4.751   2.378  10.322 -0.5796  0.5642 -3.2854
  228MOL0     H30089   4.832   2.497  10.436 -2.3890  1.1174 -0.8176
  228MOL0     H30090   4.785   2.524  10.134 -0.4673  2.7534 -0.5167
  228MOL0     H30091   4.881   2.638  10.239 -0.1212  0.5804 -1.3703
  228MOL0     H30092   4.597   2.558  10.323  0.6097 -0.7931 -0.7801
  228MOL0     H30093   4.684   2.699  10.350 -0.7886 -0.3898  1.2409
  228MOL0     H30094   4.436   2.763  10.012  2.0623  3.1012 -0.0518
  228MOL0     H30095   5.304   2.564  10.482 -0.7307 -0.5618  0.3804
  228MOL0     H30096   5.529   2.464  10.455  2.2303 -2.2210 -0.8388
  229MOL0     O30097   2.441   8.026   8.748  0.6878 -0.5538 -0.0614
  229MOL0     C30098   2.366   7.944   8.814 -1.0771 -0.0340  1.1326
  229MOL0     O30099   2.403   7.875   8.925  0.3048  0.1864 -0.3389
  229MOL0     C30100   2.516   7.895   9.003  0.3250  0.0903  0.1465
  229MOL0     C30101   2.531   7.798   9.104 -0.5027 -0.3511 -0.0702
  229MOL0     C30102   2.639   7.804   9.190  0.9896  0.5702 -0.3331
  229MOL0     C30103   2.728   7.919   9.178 -0.4091  0.5755 -0.3428
  229MOL0     O30104   2.832   7.941   9.261  0.8682  0.1181 -0.7200
  229MOL0     C30105   2.812   7.908   9.403 -0.5788  0.9812 -0.6703
  229MOL0     C30106   2.928   7.967   9.487 -0.2486 -0.6654 -0.5060
  229MOL0     C30107   3.062   7.900   9.441 -0.0204 -0.4493  0.5773
  229MOL0     C30108   3.189   7.937   9.521  0.0903  0.1589 -0.2199
  229MOL0     C30109   3.320   7.880   9.462  0.0273 -0.7274 -0.2650
  229MOL0     C30110   3.452   7.944   9.519 -0.1750  0.5719 -0.5914
  229MOL0     C30111   3.565   7.853   9.487  0.2119  0.2246 -2.1478
  229MOL0     C30112   3.707   7.933   9.526  0.4419  0.4910 -0.3957
  229MOL0     N30113   3.710   8.064   9.465  0.3801 -0.4449 -1.2836
  229MOL0     C30114   3.748   8.066   9.337 -0.6568  0.3143  0.3250
  229MOL0     C30115   3.781   8.191   9.308  0.6361 -0.2949 -0.0170
  229MOL0     C30116   3.830   8.258   9.188  0.2518 -0.9436 -0.2145
  229MOL0     C30117   3.978   8.270   9.191  0.2827 -0.2296 -0.4532
  229MOL0     C30118   4.041   8.383   9.270 -0.9746  0.2632  0.3411
  229MOL0     C30119   4.198   8.393   9.248 -0.6927 -0.0824  0.7701
  229MOL0     O30120   4.276   8.272   9.270  0.8583 -0.6238 -0.0918
  229MOL0     C30121   4.357   8.240   9.157  0.0873 -0.1546  0.2373
  229MOL0     C30122   4.463   8.319   9.105  0.4370  0.5622  0.3181
  229MOL0     C30123   4.538   8.273   8.991 -0.6900  0.8884 -0.4420
  229MOL0     C30124   4.501   8.144   8.929  0.2255 -1.1056  0.6281
  229MOL0     C30125   4.575   8.098   8.809  0.3126 -0.3614  0.0328
  229MOL0     O30126   4.535   7.979   8.754  0.3440 -0.0935 -0.1608
  229MOL0     C30127   4.593   7.941   8.639 -0.1600  1.1795 -0.3740
  229MOL0     C30128   4.729   7.896   8.635 -0.3980  0.4423 -0.3320
  229MOL0     C30129   4.774   7.822   8.523 -0.8912 -0.8974 -0.5697
  229MOL0     C30130   4.694   7.823   8.402 -0.7651 -0.1808 -0.3068
  229MOL0     O30131   4.739   7.767   8.288 -0.3960 -0.1289 -0.8113
  229MOL0     C30132   4.820   7.653   8.278  0.0893 -0.5757 -0.6993
  229MOL0     C30133   4.747   7.528   8.340  0.4361 -0.0518 -0.0205
  229MOL0     C30134   4.620   7.490   8.267  0.2649 -1.0738  0.4436
  229MOL0     C30135   4.532   7.381   8.346  0.3698  0.0161  0.7898
  229MOL0     C30136   4.592   7.251   8.387  0.0753  0.4855 -0.1845
  229MOL0     C30137   4.486   7.139   8.379  0.7095  0.1899 -0.8269
  229MOL0     C30138   4.343   7.176   8.438 -0.1107  0.6695  0.4260
  229MOL0     C30139   4.360   7.181   8.591  0.0769 -0.4730 -0.0774
  229MOL0    Cl30140   4.244   7.304   8.669  0.3410  0.4453  0.1668
  229MOL0     C30141   4.567   7.882   8.415 -0.2942  0.5448 -0.4135
  229MOL0     C30142   4.516   7.923   8.534  0.4192 -0.0710  0.5772
  229MOL0     O30143   4.654   8.177   8.762 -0.7445 -0.0216  1.1245
  229MOL0     C30144   4.394   8.072   8.987 -1.0771  0.6766  0.1808
  229MOL0     C30145   4.328   8.120   9.098 -0.3262  0.2885 -0.5860
  229MOL0     N30146   3.737   8.264   9.416 -0.7729 -0.2345 -1.0137
  229MOL0     N30147   3.713   8.184   9.514  0.4371  0.0016  0.1687
  229MOL0     C30148   2.716   8.009   9.077  0.4262 -0.6143 -0.2572
  229MOL0     C30149   2.609   7.998   8.986 -0.0542  0.0257 -0.0216
  229MOL0     C30150   2.246   7.893   8.744  0.1145 -0.3920  0.7185
  229MOL0     C30151   2.190   7.947   8.626 -0.1721  0.8860 -0.0541
  229MOL0     C30152   2.072   7.892   8.579  0.6911  0.4520  1.2728
  229MOL0     C30153   2.004   7.783   8.627 -0.3140  0.5728  0.3561
  229MOL0     O30154   1.890   7.747   8.558  0.1007  0.1241 -0.4745
  229MOL0     C30155   1.791   7.651   8.604 -0.6665  0.4913 -0.2823
  229MOL0     C30156   1.853   7.509   8.623  0.0671  0.0013  0.4383
  229MOL0     C30157   1.760   7.404   8.567  0.3208 -0.2852 -0.5086
  229MOL0     C30158   1.806   7.264   8.623  0.3178  0.3804 -0.1199
  229MOL0     C30159   1.690   7.168   8.616 -0.4205 -0.9148 -0.4134
  229MOL0     C30160   1.587   7.096   8.618  0.5745  1.0348  0.6383
  229MOL0     C30161   2.062   7.722   8.745 -0.5124  0.3270  0.1413
  229MOL0     C30162   2.182   7.781   8.798  0.5600 -0.0019  0.2763
  229MOL0     H30163   2.480   7.703   9.115  1.5022 -1.6047 -1.0819
  229MOL0     H30164   2.655   7.732   9.269  1.8186  0.4447 -0.6102
  229MOL0     H30165   2.788   7.803   9.421  0.7188  0.6902 -0.5805
  229MOL0     H30166   2.725   7.967   9.435 -2.0122 -1.6118  0.5512
  229MOL0     H30167   2.917   7.935   9.591  1.8509 -2.4609 -0.7518
  229MOL0     H30168   2.930   8.071   9.455  0.2685 -1.2771 -2.6359
  229MOL0     H30169   3.079   7.929   9.337  1.5290  1.9461  1.4009
  229MOL0     H30170   3.059   7.791   9.438  0.1485 -0.4395 -0.6900
  229MOL0     H30171   3.192   8.046   9.535  1.2703 -0.1173  2.3308
  229MOL0     H30172   3.167   7.888   9.617 -1.8008 -0.9691 -1.1729
  229MOL0     H30173   3.312   7.900   9.355 -0.1212 -0.9173 -0.2891
  229MOL0     H30174   3.313   7.772   9.474 -1.2313 -0.7536 -1.1044
  229MOL0     H30175   3.440   7.949   9.628  2.4404 -0.7534 -0.1767
  229MOL0     H30176   3.467   8.043   9.475  1.0465  1.1505  1.0597
  229MOL0     H30177   3.569   7.759   9.543  3.0106  0.2854 -2.0591
  229MOL0     H30178   3.568   7.833   9.379 -1.3030  1.3885 -2.4363
  229MOL0     H30179   3.787   7.876   9.479 -0.4136  0.3335 -1.7296
  229MOL0     H30180   3.723   7.943   9.634  0.9879  0.7232 -0.4950
  229MOL0     H30181   3.749   7.979   9.272  2.0376  0.6732 -0.2302
  229MOL0     H30182   3.795   8.361   9.200 -0.0137 -1.2877  2.4729
  229MOL0     H30183   3.792   8.202   9.101  1.2164 -0.4562 -0.9658
  229MOL0     H30184   4.007   8.287   9.086  0.6643  5.0950  0.2452
  229MOL0     H30185   4.016   8.173   9.226 -0.6382 -1.1926 -2.0086
  229MOL0     H30186   3.987   8.475   9.245 -4.2055 -1.8563 -1.2162
  229MOL0     H30187   4.025   8.366   9.377  2.2063 -1.2612  0.6793
  229MOL0     H30188   4.237   8.476   9.308 -0.1014  0.7002 -0.6460
  229MOL0     H30189   4.220   8.429   9.147  3.4745 -0.5284  1.3332
  229MOL0     H30190   4.487   8.421   9.133 -0.7854  1.8551 -2.8181
  229MOL0     H30191   4.607   8.343   8.945  0.3090  0.3674  0.2104
  229MOL0     H30192   4.783   7.903   8.729 -2.8032 -3.1397  1.5875
  229MOL0     H30193   4.870   7.776   8.504 -1.0793 -0.3719 -3.1671
  229MOL0     H30194   4.922   7.660   8.316 -0.2663 -1.4906  0.5031
  229MOL0     H30195   4.831   7.639   8.170 -3.4958 -0.1721 -1.2626
  229MOL0     H30196   4.727   7.521   8.447  0.1453 -2.1800 -0.1723
  229MOL0     H30197   4.812   7.440   8.331 -1.8193 -1.7233 -0.7135
  229MOL0     H30198   4.638   7.446   8.169  0.5663 -0.1881  0.0924
  229MOL0     H30199   4.557   7.578   8.253 -0.9544 -2.1198 -0.8739
  229MOL0     H30200   4.477   7.421   8.432 -0.8776 -0.9346  0.4710
  229MOL0     H30201   4.447   7.363   8.280  2.0406  2.4801 -2.3034
  229MOL0     H30202   4.633   7.255   8.489  2.7256  1.7295 -1.2278
  229MOL0     H30203   4.674   7.217   8.323  1.4699 -1.8528  2.5866
  229MOL0     H30204   4.523   7.057   8.442  1.4219  1.9169  1.1300
  229MOL0     H30205   4.465   7.106   8.277 -0.6699  1.8671 -1.1218
  229MOL0     H30206   4.307   7.278   8.420 -4.6890 -0.4959  1.6663
  229MOL0     H30207   4.264   7.105   8.414  1.0068 -1.5105  2.6570
  229MOL0     H30208   4.463   7.208   8.615  1.8429 -4.4555 -2.3382
  229MOL0     H30209   4.348   7.081   8.634 -3.0613 -0.4109 -0.5472
  229MOL0     H30210   4.508   7.887   8.324 -2.7751  0.8313  1.1335
  229MOL0     H30211   4.422   7.976   8.533  0.1502 -0.3919  2.7621
  229MOL0     H30212   4.371   7.975   8.944  0.0538  0.1161  0.7939
  229MOL0     H30213   4.252   8.069   9.157 -1.6804  2.2605 -0.5396
  229MOL0     H30214   2.788   8.089   9.060  2.0187 -2.0083 -0.3016
  229MOL0     H30215   2.584   8.077   8.917  0.6050  1.1792  1.0237
  229MOL0     H30216   2.236   8.036   8.585 -1.3546  2.0421  1.0178
  229MOL0     H30217   2.025   7.939   8.493 -0.4117 -0.4416  1.3721
  229MOL0     H30218   1.715   7.646   8.525 -0.9244 -1.7629  0.0325
  229MOL0     H30219   1.753   7.687   8.700  1.2404  1.4407  0.1725
  229MOL0     H30220   1.955   7.501   8.583  0.1332 -0.7611  0.7437
  229MOL0     H30221   1.877   7.499   8.729  2.0985  0.5895  0.0787
  229MOL0     H30222   1.767   7.396   8.458 -1.1682  1.4641 -0.7921
  229MOL0     H30223   1.660   7.427   8.606  1.6152  0.6148  2.5912
  229MOL0     H30224   1.889   7.213   8.572 -0.7793 -0.5255 -1.0592
  229MOL0     H30225   1.847   7.266   8.725  2.6254 -1.5101 -0.9230
  229MOL0     H30226   1.489   7.054   8.605  0.7319  0.9847 -0.5311
  229MOL0     H30227   2.005   7.640   8.788  1.6271 -2.8095 -2.5213
  229MOL0     H30228   2.216   7.729   8.887 -0.7218 -1.8270 -0.2365
  230MOL0     O30229   0.072   7.995   6.706 -0.2553  0.3556 -0.8816
  230MOL0     C30230  -0.021   7.984   6.786 -0.3042 -0.0190  0.2359
  230MOL0     O30231  -0.031   8.054   6.897  0.2305 -0.2740  0.2130
  230MOL0     C30232   0.079   8.133   6.928  0.0928 -0.4285  0.9417
  230MOL0     C30233   0.081   8.267   6.883  0.7636  0.2372  0.1224
  230MOL0     C30234   0.187   8.345   6.922 -0.2539 -0.3305 -0.6185
  230MOL0     C30235   0.298   8.290   6.991 -0.3329 -0.6168  1.3624
  230MOL0     O30236   0.410   8.352   7.031 -0.0596 -0.2715  0.6249
  230MOL0     C30237   0.467   8.456   6.941  0.7358 -0.2101 -0.6114
  230MOL0     C30238   0.521   8.401   6.805 -0.1395 -0.6193  0.3506
  230MOL0     C30239   0.653   8.326   6.825 -0.9095 -0.1127  0.2379
  230MOL0     C30240   0.695   8.229   6.713 -1.4806 -0.4645 -0.1926
  230MOL0     C30241   0.612   8.103   6.714  0.7569 -0.2823 -0.1873
  230MOL0     C30242   0.621   8.033   6.584 -0.2286 -0.7557 -0.8433
  230MOL0     C30243   0.550   7.894   6.583 -0.4017 -0.2467 -0.4194
  230MOL0     C30244   0.551   7.833   6.440  0.1094 -0.4932  0.2676
  230MOL0     N30245   0.683   7.813   6.381 -0.1282 -0.1804  0.5679
  230MOL0     C30246   0.731   7.869   6.259 -0.8274  0.1052  0.5176
  230MOL0     C30247   0.861   7.821   6.247  1.1591 -0.8271 -0.1897
  230MOL0     C30248   0.952   7.859   6.130  0.7011  0.2039  0.6075
  230MOL0     C30249   0.932   7.756   6.012  0.5739  0.3157  1.2391
  230MOL0     C30250   0.959   7.820   5.877 -0.3824  0.0094  0.9032
  230MOL0     C30251   0.970   7.733   5.748  0.2144  0.3579  0.0791
  230MOL0     O30252   1.012   7.825   5.649 -0.2128  0.1328 -0.9058
  230MOL0     C30253   1.049   7.769   5.530  0.5773 -0.8297 -0.2475
  230MOL0     C30254   0.990   7.666   5.475  0.5337  0.8431  1.2324
  230MOL0     C30255   1.047   7.606   5.353  0.3307  0.8236  0.0260
  230MOL0     C30256   1.161   7.657   5.294 -0.3455  0.5817 -0.3676
  230MOL0     C30257   1.233   7.579   5.194  0.0714 -0.0436 -0.3940
  230MOL0     O30258   1.359   7.619   5.159 -0.0600  0.4100  0.2232
  230MOL0     C30259   1.431   7.560   5.060  0.1777 -0.9786 -0.2975
  230MOL0     C30260   1.507   7.638   4.974 -0.4336  0.4882  0.0710
  230MOL0     C30261   1.559   7.580   4.860 -0.0057 -0.4483 -0.3019
  230MOL0     C30262   1.543   7.444   4.830  0.0524 -0.6257 -0.5316
  230MOL0     O30263   1.597   7.397   4.711  0.1072  0.1683  0.3397
  230MOL0     C30264   1.637   7.263   4.703 -0.6272  1.1958 -0.2307
  230MOL0     C30265   1.765   7.232   4.790 -0.2308 -0.4196 -0.1126
  230MOL0     C30266   1.732   7.201   4.933 -0.0315 -1.1027 -0.3401
  230MOL0     C30267   1.863   7.146   5.002  0.6049 -0.8501 -0.5452
  230MOL0     C30268   1.842   7.125   5.158 -0.0253 -0.5923 -0.3001
  230MOL0     C30269   1.947   7.058   5.241  0.4756  1.3080 -0.8030
  230MOL0     C30270   1.946   6.903   5.250  0.5919 -0.2298  0.2394
  230MOL0     C30271   1.810   6.836   5.287 -0.7090 -0.1005 -0.3919
  230MOL0    Cl30272   1.825   6.660   5.264  0.0652  0.0193 -0.2627
  230MOL0     C30273   1.464   7.364   4.919 -0.5342 -0.6796  0.4665
  230MOL0     C30274   1.419   7.422   5.035  0.3669  0.6878 -1.1614
  230MOL0     O30275   1.173   7.483   5.140  0.2193  0.0088  0.3044
  230MOL0     C30276   1.216   7.772   5.351  1.0759 -0.5001  0.1188
  230MOL0     C30277   1.162   7.824   5.468 -0.2908 -0.6660 -0.0743
  230MOL0     N30278   0.888   7.737   6.351  0.2909 -0.3776  0.3937
  230MOL0     N30279   0.782   7.738   6.431 -0.9355  0.4527  0.7112
  230MOL0     C30280   0.299   8.164   7.031  0.7447  0.8533  0.5436
  230MOL0     C30281   0.181   8.090   7.009  0.1364  0.2491  1.0347
  230MOL0     C30282  -0.145   7.907   6.747 -0.1539 -0.3188 -0.9507
  230MOL0     C30283  -0.253   7.881   6.839 -0.1658 -0.0054 -0.6728
  230MOL0     C30284  -0.363   7.805   6.796 -0.6111  0.1323  0.5245
  230MOL0     C30285  -0.376   7.781   6.659 -0.7050  0.9882  0.2512
  230MOL0     O30286  -0.487   7.710   6.636 -0.0307  0.5246  0.1836
  230MOL0     C30287  -0.496   7.644   6.509  1.2945 -0.4334  0.6041
  230MOL0     C30288  -0.628   7.570   6.493  0.1113 -0.3153  0.6913
  230MOL0     C30289  -0.748   7.666   6.481 -0.2119  0.2027 -0.3522
  230MOL0     C30290  -0.895   7.610   6.446 -0.5638  0.3080 -0.5598
  230MOL0     C30291  -1.009   7.665   6.525  0.1838 -0.9250  0.3286
  230MOL0     C30292  -1.086   7.728   6.598 -0.9505 -0.1801 -1.0716
  230MOL0     C30293  -0.277   7.817   6.573 -0.9978  0.4322  0.0683
  230MOL0     C30294  -0.169   7.890   6.615  0.8727  0.2575 -0.0512
  230MOL0     H30295   0.001   8.315   6.828  0.2916  0.2592  0.8057
  230MOL0     H30296   0.185   8.452   6.903 -1.5726 -0.5943 -2.0951
  230MOL0     H30297   0.546   8.503   7.000  1.4946 -2.6524  0.4640
  230MOL0     H30298   0.398   8.539   6.927 -0.0591 -0.9290 -1.0444
  230MOL0     H30299   0.543   8.484   6.737 -0.2462 -0.9466 -0.0875
  230MOL0     H30300   0.448   8.339   6.752 -0.8079 -0.8640  1.5288
  230MOL0     H30301   0.658   8.288   6.928 -0.4467  1.4266  0.8105
  230MOL0     H30302   0.729   8.405   6.823  1.5821 -2.3696 -1.3306
  230MOL0     H30303   0.697   8.271   6.613  3.7554 -0.9004 -0.5471
  230MOL0     H30304   0.799   8.198   6.729 -1.2139  1.6335  3.0532
  230MOL0     H30305   0.505   8.122   6.712  0.5856 -1.2338 -0.7822
  230MOL0     H30306   0.646   8.028   6.787  1.7330  1.3236  1.0644
  230MOL0     H30307   0.727   8.019   6.560 -0.1595 -3.1608  0.5193
  230MOL0     H30308   0.569   8.096   6.512 -0.9219  1.0212  1.1151
  230MOL0     H30309   0.610   7.830   6.648 -1.4631 -0.6763  0.1481
  230MOL0     H30310   0.448   7.888   6.621  0.0539 -0.6091  0.7957
  230MOL0     H30311   0.491   7.895   6.373  3.3011  2.4823 -0.1205
  230MOL0     H30312   0.504   7.734   6.448  1.2202 -1.0937 -0.4473
  230MOL0     H30313   0.678   7.943   6.201 -1.3022 -1.3377 -0.9555
  230MOL0     H30314   1.055   7.872   6.165  1.8502  2.2164 -2.9889
  230MOL0     H30315   0.925   7.955   6.085  1.9313 -0.3240 -1.3750
  230MOL0     H30316   0.832   7.713   6.006  0.3294  0.8766  1.3165
  230MOL0     H30317   0.997   7.671   6.037  1.9429  1.4096  1.4923
  230MOL0     H30318   0.875   7.886   5.855  0.6690  1.1951  0.2760
  230MOL0     H30319   1.043   7.889   5.888  0.3470 -1.0376  2.2260
  230MOL0     H30320   0.878   7.678   5.726  0.7191 -1.3853  1.9705
  230MOL0     H30321   1.053   7.665   5.771 -1.2229 -2.4520 -2.3476
  230MOL0     H30322   0.915   7.604   5.523  1.7639 -0.8163  1.1052
  230MOL0     H30323   1.008   7.509   5.323  2.3790 -0.2825  0.6864
  230MOL0     H30324   1.522   7.745   4.979 -0.3866  0.4726  0.2861
  230MOL0     H30325   1.613   7.651   4.797 -1.3623  1.4312  0.5358
  230MOL0     H30326   1.668   7.251   4.598 -1.6208  1.1988 -0.5347
  230MOL0     H30327   1.558   7.191   4.720 -1.4214  2.5911  2.4598
  230MOL0     H30328   1.848   7.302   4.783  3.0794 -3.8979  0.5604
  230MOL0     H30329   1.821   7.149   4.744  0.0948  0.6833 -1.7852
  230MOL0     H30330   1.654   7.124   4.936 -2.6913  1.1720 -3.4525
  230MOL0     H30331   1.685   7.285   4.985  0.5388 -0.7737 -0.3541
  230MOL0     H30332   1.894   7.052   4.955 -0.4111 -1.4596 -0.0369
  230MOL0     H30333   1.943   7.219   4.989 -1.2597  1.1873 -1.3790
  230MOL0     H30334   1.751   7.069   5.178 -0.2223 -0.8140 -1.7073
  230MOL0     H30335   1.820   7.226   5.194 -0.6964 -1.4638  1.8801
  230MOL0     H30336   1.921   7.101   5.339 -1.5986 -2.1648  0.3553
  230MOL0     H30337   2.040   7.102   5.203  1.7968  1.4000  2.2587
  230MOL0     H30338   1.979   6.876   5.149 -2.1524 -1.3600 -0.4538
  230MOL0     H30339   2.022   6.875   5.323  0.6877  0.1978  0.3080
  230MOL0     H30340   1.716   6.866   5.240 -2.3427  1.0888  3.3124
  230MOL0     H30341   1.800   6.858   5.393  1.8918 -0.1630 -0.0827
  230MOL0     H30342   1.459   7.260   4.888 -0.0913 -0.6668  0.3421
  230MOL0     H30343   1.368   7.361   5.110  1.0542 -2.5138 -3.1198
  230MOL0     H30344   1.309   7.804   5.304  0.6328 -0.9854 -1.1336
  230MOL0     H30345   1.210   7.910   5.514  0.8451 -0.9848 -0.6151
  230MOL0     H30346   0.382   8.115   7.081 -0.0022  1.5554  2.5617
  230MOL0     H30347   0.174   7.986   7.040  0.5222  0.0670  0.5229
  230MOL0     H30348  -0.227   7.897   6.944  0.4578 -4.5169  0.0616
  230MOL0     H30349  -0.421   7.759   6.875  0.9422 -0.4135  1.3932
  230MOL0     H30350  -0.406   7.586   6.488  2.4087  0.9096  1.5336
  230MOL0     H30351  -0.501   7.718   6.430 -3.6644 -0.6889  0.3364
  230MOL0     H30352  -0.628   7.518   6.396 -1.8419 -1.1260  1.0775
  230MOL0     H30353  -0.647   7.498   6.573 -4.0079  0.2783  0.4494
  230MOL0     H30354  -0.719   7.747   6.413 -0.2391  0.3289 -0.2114
  230MOL0     H30355  -0.764   7.708   6.580 -2.4511  2.1462 -1.4479
  230MOL0     H30356  -0.906   7.618   6.337  1.7125  1.0151 -0.7865
  230MOL0     H30357  -0.867   7.508   6.473 -1.2721 -0.2010 -1.6627
  230MOL0     H30358  -1.155   7.784   6.658  1.5254 -0.3103  2.1912
  230MOL0     H30359  -0.281   7.804   6.466  0.9704  0.3934 -0.0365
  230MOL0     H30360  -0.100   7.933   6.543  3.6181 -0.3676  2.0166
  231MOL0     O30361   7.806  10.368   1.543 -0.3830 -0.2887  0.1140
  231MOL0     C30362   7.879  10.333   1.448 -0.2965 -0.0064 -0.6193
  231MOL0     O30363   7.998  10.385   1.410 -0.1964  0.2994 -0.2798
  231MOL0     C30364   8.024  10.509   1.446 -0.5560 -0.7836  0.2330
  231MOL0     C30365   7.960  10.607   1.364 -0.0129 -0.0612 -0.5890
  231MOL0     C30366   7.983  10.743   1.404  0.8738  0.5565  0.4617
  231MOL0     C30367   8.051  10.784   1.516 -0.8413 -0.4085 -0.0291
  231MOL0     O30368   8.050  10.915   1.551 -0.5659 -0.0494 -0.4394
  231MOL0     C30369   8.150  10.978   1.634  0.3393 -0.3512  0.6459
  231MOL0     C30370   8.115  11.118   1.688  0.2598 -0.0127 -0.0301
  231MOL0     C30371   7.980  11.125   1.755  0.2041 -0.1202 -0.2551
  231MOL0     C30372   7.966  11.053   1.890  0.0361  0.1179 -0.4649
  231MOL0     C30373   7.836  11.073   1.972 -0.2560  0.2661 -0.1953
  231MOL0     C30374   7.772  11.204   1.997  0.5693 -0.0145 -0.0490
  231MOL0     C30375   7.851  11.293   2.093  0.7532 -0.9250  0.3475
  231MOL0     C30376   7.898  11.245   2.225 -0.1381 -0.6326  0.0020
  231MOL0     N30377   7.966  11.358   2.300 -0.1097 -0.9233 -0.7645
  231MOL0     C30378   8.097  11.354   2.348 -0.1955  0.4910  0.4185
  231MOL0     C30379   8.128  11.489   2.369 -0.9576  0.6343  0.0436
  231MOL0     C30380   8.268  11.538   2.387  0.1774  0.3395  0.2756
  231MOL0     C30381   8.284  11.624   2.518  0.4110  1.3347 -1.2333
  231MOL0     C30382   8.226  11.767   2.493 -0.9308 -0.1353  0.5638
  231MOL0     C30383   8.312  11.866   2.575  0.1960  0.8202  0.2336
  231MOL0     O30384   8.429  11.893   2.501  0.5457  0.7439  1.2611
  231MOL0     C30385   8.487  12.007   2.518 -0.5963 -0.7027  0.1721
  231MOL0     C30386   8.627  12.015   2.527 -0.4992  0.1507 -0.4124
  231MOL0     C30387   8.695  12.133   2.576  0.0606  0.0641 -0.1737
  231MOL0     C30388   8.622  12.246   2.619  0.1919  0.1461  0.2133
  231MOL0     C30389   8.697  12.365   2.669 -0.5603 -0.4406 -1.3929
  231MOL0     O30390   8.629  12.481   2.696 -0.5675  0.4467 -0.2617
  231MOL0     C30391   8.703  12.581   2.763  0.4816  0.3629 -0.4378
  231MOL0     C30392   8.719  12.568   2.898 -0.3028  0.8470  0.2021
  231MOL0     C30393   8.790  12.666   2.971  0.0015 -1.0208  0.6264
  231MOL0     C30394   8.826  12.782   2.909  0.3720  0.7851 -0.3823
  231MOL0     O30395   8.900  12.881   2.967 -0.7806  0.4528  0.1031
  231MOL0     C30396   9.042  12.845   2.976 -0.1776  0.3134 -0.5664
  231MOL0     C30397   9.121  12.973   2.969 -0.5251 -0.3473 -0.0074
  231MOL0     C30398   9.266  12.957   3.007  0.5328 -0.1497  0.3169
  231MOL0     C30399   9.331  12.855   2.914  0.3923 -0.2737  0.5686
  231MOL0     C30400   9.481  12.828   2.952  0.1113  0.6030  0.0978
  231MOL0     C30401   9.550  12.748   2.843 -0.2545  0.4176 -0.3493
  231MOL0     C30402   9.701  12.710   2.885  0.5275  0.6865  0.3943
  231MOL0     C30403   9.794  12.832   2.872 -0.1348  0.1958 -0.5820
  231MOL0    Cl30404   9.782  12.929   2.725 -0.1843  0.0565  0.4099
  231MOL0     C30405   8.805  12.798   2.769 -0.9440 -0.1651  0.4701
  231MOL0     C30406   8.745  12.698   2.698  0.0530  0.5850 -0.0108
  231MOL0     O30407   8.809  12.344   2.713 -0.4192  0.8262  1.2874
  231MOL0     C30408   8.484  12.244   2.587  0.1031  0.0576 -0.8907
  231MOL0     C30409   8.418  12.133   2.542  0.1817 -0.3446  0.0174
  231MOL0     N30410   8.022  11.566   2.329 -1.1960 -0.0921 -0.1459
  231MOL0     N30411   7.926  11.489   2.289 -0.2094 -0.1160 -0.3421
  231MOL0     C30412   8.101  10.682   1.603 -0.7392 -0.0290  0.5546
  231MOL0     C30413   8.095  10.547   1.562 -0.6240 -0.3687  0.0254
  231MOL0     C30414   7.827  10.234   1.360 -0.0344  0.4396  0.3827
  231MOL0     C30415   7.865  10.209   1.232 -0.3216  0.0210 -0.1204
  231MOL0     C30416   7.804  10.109   1.158 -0.2096 -0.3485 -0.7114
  231MOL0     C30417   7.699  10.033   1.201 -0.3980 -0.2747  0.4951
  231MOL0     O30418   7.641   9.942   1.113  0.2865 -0.1428 -0.2425
  231MOL0     C30419   7.501   9.955   1.095  0.1483  0.0066 -1.0266
  231MOL0     C30420   7.465   9.851   0.987  0.2613  0.3064  0.4236
  231MOL0     C30421   7.490   9.705   1.041  0.0192  0.2177 -0.5361
  231MOL0     C30422   7.442   9.608   0.937  0.9975 -0.5852 -0.3126
  231MOL0     C30423   7.538   9.578   0.840 -0.0323  0.0737 -0.4255
  231MOL0     C30424   7.609   9.556   0.745  1.0348  0.6688 -0.0852
  231MOL0     C30425   7.659  10.058   1.329 -0.4805  0.4894  0.1793
  231MOL0     C30426   7.721  10.153   1.406  0.0382  0.2368  0.1182
  231MOL0     H30427   7.901  10.579   1.278  0.1871 -1.3729 -0.3161
  231MOL0     H30428   7.929  10.825   1.357  0.2827 -1.4485 -2.6539
  231MOL0     H30429   8.233  10.999   1.567 -0.8960 -0.9656 -1.1322
  231MOL0     H30430   8.184  10.908   1.712  1.6043 -2.5208 -1.7214
  231MOL0     H30431   8.096  11.183   1.602  0.1250  0.8931  0.6620
  231MOL0     H30432   8.196  11.161   1.747  0.8840 -0.3155 -0.6654
  231MOL0     H30433   7.898  11.100   1.687  0.4265  0.2890 -0.6750
  231MOL0     H30434   7.977  11.230   1.786  0.8675 -0.4207  0.8717
  231MOL0     H30435   7.963  10.944   1.896 -0.9855  0.2327  2.5168
  231MOL0     H30436   8.043  11.099   1.952 -0.2593  1.5245 -1.1023
  231MOL0     H30437   7.860  11.028   2.068  0.7847 -0.1338 -0.6193
  231MOL0     H30438   7.759  11.007   1.931  2.4496 -1.6493 -2.6153
  231MOL0     H30439   7.672  11.185   2.038  0.5662  1.6813  0.8026
  231MOL0     H30440   7.761  11.261   1.905 -0.9174 -1.0071 -0.5240
  231MOL0     H30441   7.934  11.335   2.037  0.7086  0.4653  1.2926
  231MOL0     H30442   7.791  11.383   2.109  3.7926  1.4416 -0.6573
  231MOL0     H30443   7.968  11.163   2.204  1.7537  0.5303  1.4904
  231MOL0     H30444   7.818  11.213   2.292  2.3445 -4.1304  1.6442
  231MOL0     H30445   8.149  11.259   2.351 -2.0049 -0.6548 -1.8030
  231MOL0     H30446   8.314  11.575   2.295  0.0775  0.4770  0.2807
  231MOL0     H30447   8.327  11.447   2.399 -2.6407 -2.5493 -4.6047
  231MOL0     H30448   8.389  11.627   2.546  0.1440  1.7473 -0.2321
  231MOL0     H30449   8.237  11.575   2.604  0.4793  2.4238 -0.5530
  231MOL0     H30450   8.254  11.788   2.390 -0.8345  2.1401  0.9998
  231MOL0     H30451   8.117  11.773   2.497 -0.9854  1.2518 -1.5690
  231MOL0     H30452   8.342  11.806   2.662 -0.3227  2.0426  1.3042
  231MOL0     H30453   8.265  11.951   2.626  0.8813  1.2507  0.1477
  231MOL0     H30454   8.674  11.924   2.491 -2.4531  0.0029 -2.9066
  231MOL0     H30455   8.800  12.122   2.600 -0.1853 -2.4496 -0.0174
  231MOL0     H30456   8.685  12.472   2.935 -0.0852 -1.5962 -5.0128
  231MOL0     H30457   8.818  12.653   3.075 -0.2436 -4.4820  0.3722
  231MOL0     H30458   9.062  12.775   2.894 -4.6337  1.1396 -2.6360
  231MOL0     H30459   9.051  12.813   3.080  1.8096  3.4540  0.3720
  231MOL0     H30460   9.073  13.035   3.045  1.5267 -0.0976  1.1335
  231MOL0     H30461   9.110  13.022   2.871  0.9144 -0.0860 -0.0604
  231MOL0     H30462   9.276  12.920   3.110  1.5249 -1.1522 -0.1129
  231MOL0     H30463   9.318  13.053   3.002 -2.0750  1.3431 -0.5472
  231MOL0     H30464   9.282  12.758   2.929 -0.3412  0.4250  3.2377
  231MOL0     H30465   9.315  12.896   2.814 -2.8061  1.5154  1.6533
  231MOL0     H30466   9.495  12.781   3.050  3.6177 -0.4454 -0.7552
  231MOL0     H30467   9.518  12.931   2.959  0.6367  0.4074  0.2679
  231MOL0     H30468   9.546  12.793   2.743 -0.6816 -0.4922 -0.7602
  231MOL0     H30469   9.492  12.656   2.835  1.4583 -0.9892  2.2232
  231MOL0     H30470   9.712  12.657   2.980 -0.6379  0.6328  0.5071
  231MOL0     H30471   9.741  12.636   2.815 -0.9193 -1.0493  1.3154
  231MOL0     H30472   9.898  12.799   2.885  0.5019  1.6943 -1.5310
  231MOL0     H30473   9.771  12.890   2.961 -1.3203 -2.2509  0.8155
  231MOL0     H30474   8.829  12.890   2.716  0.5142 -2.6874 -3.7834
  231MOL0     H30475   8.754  12.709   2.591  2.2065  0.5542  0.1360
  231MOL0     H30476   8.418  12.327   2.610 -4.6887 -3.0142 -2.2922
  231MOL0     H30477   8.309  12.137   2.548 -0.0199 -2.4889 -0.9469
  231MOL0     H30478   8.135  10.704   1.704 -1.2570 -0.9060  0.9335
  231MOL0     H30479   8.132  10.463   1.621  0.8056  1.8357  2.5122
  231MOL0     H30480   7.952  10.254   1.184 -0.9777  1.1993 -0.2416
  231MOL0     H30481   7.831  10.081   1.057 -1.1616 -3.6289 -0.1618
  231MOL0     H30482   7.466  10.057   1.075 -1.0135 -0.1325  0.1282
  231MOL0     H30483   7.453   9.924   1.189 -0.2454  0.8423 -0.9414
  231MOL0     H30484   7.359   9.849   0.960  1.0747 -1.4464 -3.3452
  231MOL0     H30485   7.533   9.869   0.903  0.0066  0.4189  0.2399
  231MOL0     H30486   7.428   9.683   1.128  0.0787 -3.1115 -1.2141
  231MOL0     H30487   7.593   9.684   1.072 -0.1619  2.1926  1.6921
  231MOL0     H30488   7.413   9.517   0.989  2.5858 -0.0058  1.6915
  231MOL0     H30489   7.363   9.664   0.885  1.8082 -0.2090 -1.1755
  231MOL0     H30490   7.666   9.509   0.668 -0.1595 -0.1972 -0.4779
  231MOL0     H30491   7.593   9.983   1.373  1.2070 -0.7379  0.7240
  231MOL0     H30492   7.692  10.146   1.511  1.8039  0.0847  0.6400
  232MOL0     O30493   7.116   1.545   9.750  0.3730  0.4012 -0.2418
  232MOL0     C30494   7.110   1.429   9.720  0.5493  1.0388 -0.4983
  232MOL0     O30495   7.211   1.338   9.741  0.5869 -0.0264 -0.2399
  232MOL0     C30496   7.317   1.361   9.824  0.1459 -0.3097 -1.1130
  232MOL0     C30497   7.328   1.471   9.917  0.4316  1.1520 -0.0392
  232MOL0     C30498   7.448   1.483   9.987 -0.9905  0.1235 -0.6682
  232MOL0     C30499   7.550   1.387   9.987 -0.0295 -0.1595  0.8888
  232MOL0     O30500   7.668   1.375  10.062 -1.1514 -0.3568  0.3009
  232MOL0     C30501   7.710   1.496  10.127  0.2171 -0.9974  0.0151
  232MOL0     C30502   7.831   1.494  10.222 -0.2029  0.3073  0.5618
  232MOL0     C30503   7.802   1.483  10.371 -0.2757 -0.0428  0.3155
  232MOL0     C30504   7.925   1.447  10.456  0.3915  0.0125  0.4828
  232MOL0     C30505   7.997   1.571  10.514  0.5364 -0.4076  0.2911
  232MOL0     C30506   8.088   1.542  10.634 -0.4541  0.5491 -0.1259
  232MOL0     C30507   8.237   1.600  10.631  1.6277  0.1899  0.1043
  232MOL0     C30508   8.315   1.569  10.504 -0.1652 -0.2500  0.6846
  232MOL0     N30509   8.357   1.428  10.512 -0.2475  0.1727  0.0740
  232MOL0     C30510   8.470   1.378  10.562  0.0083  0.0143 -0.5834
  232MOL0     C30511   8.462   1.244  10.551  0.4227 -0.0551 -1.0241
  232MOL0     C30512   8.576   1.155  10.593  0.2743  0.2140 -0.4428
  232MOL0     C30513   8.654   1.078  10.488  0.1344  0.2801  1.2158
  232MOL0     C30514   8.578   0.979  10.400  0.3065  0.5608 -0.5124
  232MOL0     C30515   8.688   0.906  10.312 -0.5190  0.2166  0.0578
  232MOL0     O30516   8.623   0.836  10.215  0.0428 -0.4060 -0.1873
  232MOL0     C30517   8.589   0.902  10.106  0.1812 -0.9936 -0.4646
  232MOL0     C30518   8.528   0.832  10.008  0.7744 -0.2087 -0.6606
  232MOL0     C30519   8.476   0.880   9.892 -0.3655  0.3585  0.2524
  232MOL0     C30520   8.496   1.020   9.862  0.2171  0.1242  0.0078
  232MOL0     C30521   8.432   1.077   9.749  0.8263 -0.1254  0.3148
  232MOL0     O30522   8.428   1.215   9.753 -0.0268  0.2900 -0.4369
  232MOL0     C30523   8.364   1.282   9.652 -1.0838  0.9438  0.2267
  232MOL0     C30524   8.406   1.413   9.647  0.4803 -0.3879 -0.1753
  232MOL0     C30525   8.350   1.506   9.558 -0.0356 -1.1736  0.5760
  232MOL0     C30526   8.249   1.468   9.469  0.2113  1.3047 -0.6904
  232MOL0     O30527   8.200   1.555   9.375 -0.4962 -0.0478  0.3764
  232MOL0     C30528   8.139   1.507   9.251  0.5724 -0.1690  0.2705
  232MOL0     C30529   7.981   1.517   9.225  0.5271 -0.4670 -0.2816
  232MOL0     C30530   7.926   1.406   9.131 -0.2202 -0.2124  0.5058
  232MOL0     C30531   7.773   1.411   9.123 -0.0620 -0.2567  0.3434
  232MOL0     C30532   7.724   1.309   9.025 -0.4957  0.6108  0.7721
  232MOL0     C30533   7.579   1.325   8.999  0.9797 -0.2207 -0.0426
  232MOL0     C30534   7.512   1.220   8.922 -0.1553  0.4725  0.7674
  232MOL0     C30535   7.557   1.203   8.778  0.2305  0.5977  0.0142
  232MOL0    Cl30536   7.450   1.087   8.684  0.3167  0.4010 -0.0698
  232MOL0     C30537   8.194   1.341   9.488 -0.4072 -0.2746 -0.2406
  232MOL0     C30538   8.256   1.247   9.568  0.4571 -1.4542  0.0347
  232MOL0     O30539   8.385   0.998   9.665  0.1102 -0.0027  1.0724
  232MOL0     C30540   8.567   1.095   9.955  0.9852  0.0122  1.0983
  232MOL0     C30541   8.608   1.040  10.084  0.1983 -0.3612  0.2176
  232MOL0     N30542   8.346   1.213  10.484 -0.1314 -0.0152  0.5964
  232MOL0     N30543   8.277   1.324  10.458 -0.7199 -0.1806 -0.3400
  232MOL0     C30544   7.528   1.267   9.907  0.6176 -0.2057 -0.6240
  232MOL0     C30545   7.414   1.257   9.822  0.3989  0.2970 -0.2470
  232MOL0     C30546   6.978   1.380   9.673  0.4929  0.1123 -0.1137
  232MOL0     C30547   6.974   1.271   9.590 -0.4648 -0.1065 -0.3018
  232MOL0     C30548   6.848   1.218   9.547 -0.0967  0.6026 -0.8214
  232MOL0     C30549   6.734   1.286   9.582  0.0827 -1.3730 -0.4226
  232MOL0     O30550   6.620   1.229   9.528 -0.7688 -0.9701  0.3578
  232MOL0     C30551   6.492   1.303   9.537 -1.0618 -0.6860  0.7049
  232MOL0     C30552   6.397   1.269   9.432 -0.8944 -0.3951 -0.0023
  232MOL0     C30553   6.434   1.329   9.288  0.1232 -0.2505  0.4322
  232MOL0     C30554   6.310   1.311   9.189  0.1207  0.0817  0.4691
  232MOL0     C30555   6.203   1.401   9.241  0.1728 -0.3351  0.6625
  232MOL0     C30556   6.145   1.495   9.294  0.3079 -0.1023  0.2037
  232MOL0     C30557   6.737   1.392   9.678 -0.6693 -0.4093  0.7666
  232MOL0     C30558   6.863   1.435   9.721 -0.3701  0.2028  0.3149
  232MOL0     H30559   7.251   1.545   9.935  1.0357  2.1695 -1.5119
  232MOL0     H30560   7.459   1.565  10.057  1.5174 -2.4117  2.1858
  232MOL0     H30561   7.620   1.522  10.184  1.3813  2.4618  0.5645
  232MOL0     H30562   7.736   1.573  10.053 -1.5902 -1.9774 -1.7220
  232MOL0     H30563   7.889   1.584  10.200  2.6717 -1.7542 -0.9318
  232MOL0     H30564   7.898   1.411  10.198 -2.0695 -0.7374 -1.3214
  232MOL0     H30565   7.753   1.386  10.361 -1.0143  0.4047 -0.5481
  232MOL0     H30566   7.746   1.563  10.419  1.7379  4.0232 -3.3720
  232MOL0     H30567   7.890   1.393  10.545  0.0018  0.2035  0.4475
  232MOL0     H30568   7.984   1.382  10.392 -2.5988  1.2453 -3.9967
  232MOL0     H30569   7.925   1.650  10.538  0.1132 -0.6590 -0.1418
  232MOL0     H30570   8.050   1.624  10.435 -0.2073  2.8748  1.8213
  232MOL0     H30571   8.077   1.434  10.650 -0.2641  0.1741 -2.3076
  232MOL0     H30572   8.026   1.588  10.712 -1.4174  0.6214 -0.9221
  232MOL0     H30573   8.243   1.708  10.645  4.0114 -0.2540  3.6374
  232MOL0     H30574   8.289   1.557  10.717  0.8705 -0.9041  0.0394
  232MOL0     H30575   8.404   1.631  10.490  0.8607 -2.4178 -4.3390
  232MOL0     H30576   8.255   1.587  10.415 -0.2602  0.6348  0.9162
  232MOL0     H30577   8.544   1.442  10.608 -0.9855  2.2604 -1.9542
  232MOL0     H30578   8.527   1.083  10.659  1.0302  1.9493  2.1763
  232MOL0     H30579   8.641   1.225  10.646  1.2686 -0.3701 -0.8589
  232MOL0     H30580   8.731   1.018  10.538  3.3324  1.7858 -1.4702
  232MOL0     H30581   8.704   1.157  10.431 -1.5956 -0.8723 -2.1930
  232MOL0     H30582   8.531   0.905  10.466 -0.2758  0.4584 -1.0384
  232MOL0     H30583   8.500   1.031  10.344  1.8603  2.3023 -1.1444
  232MOL0     H30584   8.739   0.838  10.381 -1.1622  0.6667  0.9984
  232MOL0     H30585   8.760   0.973  10.263 -1.3915  0.0538 -1.4730
  232MOL0     H30586   8.515   0.728  10.035 -2.7101  0.6539  1.5907
  232MOL0     H30587   8.442   0.817   9.810 -0.2504 -1.1571  1.3385
  232MOL0     H30588   8.487   1.442   9.712 -1.5377  0.3537  2.1517
  232MOL0     H30589   8.403   1.600   9.555 -0.4498 -0.8945  1.4865
  232MOL0     H30590   8.160   1.400   9.236  3.2784  0.4468 -0.9351
  232MOL0     H30591   8.189   1.546   9.162  1.5642  0.5868  1.1410
  232MOL0     H30592   7.962   1.611   9.173 -0.2996  0.0301  0.8758
  232MOL0     H30593   7.927   1.517   9.320  1.8138 -0.2433  0.4742
  232MOL0     H30594   7.973   1.314   9.166  1.8901  1.3678  2.1982
  232MOL0     H30595   7.977   1.430   9.038  1.3563 -0.0133  1.3901
  232MOL0     H30596   7.722   1.383   9.216 -1.8510 -0.5028 -0.6652
  232MOL0     H30597   7.743   1.512   9.094 -2.5051 -1.7176 -2.8375
  232MOL0     H30598   7.724   1.208   9.066 -5.1213  0.0636 -0.0233
  232MOL0     H30599   7.783   1.316   8.933  0.2020  0.0261  1.1695
  232MOL0     H30600   7.573   1.425   8.956 -0.8449  0.3915  1.4896
  232MOL0     H30601   7.513   1.327   9.086 -1.2887  2.8372 -1.6494
  232MOL0     H30602   7.525   1.128   8.979 -3.9650  1.3250  3.3861
  232MOL0     H30603   7.404   1.236   8.929 -0.3406  0.7051 -1.7742
  232MOL0     H30604   7.663   1.177   8.766 -0.4399 -2.5083 -0.0577
  232MOL0     H30605   7.536   1.303   8.738 -0.0129 -0.3469 -2.3693
  232MOL0     H30606   8.102   1.319   9.434 -0.2468 -3.6837  0.6351
  232MOL0     H30607   8.217   1.148   9.586 -0.7658 -1.1604 -0.9176
  232MOL0     H30608   8.587   1.202   9.950 -1.1636  0.4155 -0.3116
  232MOL0     H30609   8.658   1.104  10.157 -0.1186  2.6258 -2.0055
  232MOL0     H30610   7.589   1.180   9.927  2.2367  0.6350 -1.6085
  232MOL0     H30611   7.398   1.168   9.761  1.0277  0.4581 -0.6550
  232MOL0     H30612   7.063   1.216   9.560 -1.5268 -1.2836 -1.4303
  232MOL0     H30613   6.844   1.142   9.470  0.0333 -0.2514 -0.0065
  232MOL0     H30614   6.512   1.411   9.543 -3.2890 -0.2999  2.4289
  232MOL0     H30615   6.452   1.269   9.633 -0.5055 -0.7155  0.9338
  232MOL0     H30616   6.373   1.163   9.425  1.3107 -0.8653 -1.3739
  232MOL0     H30617   6.310   1.330   9.460 -1.4728 -2.1267  2.2118
  232MOL0     H30618   6.528   1.294   9.245  0.5293 -1.1899  2.0071
  232MOL0     H30619   6.457   1.436   9.298  0.1793 -0.3085  0.9585
  232MOL0     H30620   6.337   1.344   9.089  2.6487  1.7671  1.5833
  232MOL0     H30621   6.279   1.206   9.194  1.5016 -0.4143 -0.6413
  232MOL0     H30622   6.073   1.565   9.332  1.4836  2.2230 -1.5946
  232MOL0     H30623   6.652   1.446   9.718 -1.2300  3.0191 -4.1628
  232MOL0     H30624   6.870   1.510   9.800 -0.0558  1.2546 -0.6812
  233MOL0     O30625   0.479  10.770   2.578  0.1692  0.0145 -0.4592
  233MOL0     C30626   0.416  10.845   2.500 -0.0686 -0.4904 -0.6225
  233MOL0     O30627   0.340  10.952   2.543  0.7972  0.0643 -0.6234
  233MOL0     C30628   0.350  10.991   2.668 -0.2011  0.6956  0.2350
  233MOL0     C30629   0.302  10.920   2.776 -0.3539  0.6393  0.6186
  233MOL0     C30630   0.323  10.960   2.906  1.0609 -0.0360 -0.4066
  233MOL0     C30631   0.378  11.080   2.941 -0.2697 -0.2477 -0.6120
  233MOL0     O30632   0.401  11.113   3.073 -0.1427 -0.3785  0.2425
  233MOL0     C30633   0.312  11.066   3.176 -0.0020 -0.2237 -0.0544
  233MOL0     C30634   0.263  11.176   3.275  0.5299  0.3951 -1.2161
  233MOL0     C30635   0.368  11.275   3.332  0.1013  0.1581  0.5298
  233MOL0     C30636   0.457  11.198   3.433  1.0590  0.2028 -0.1128
  233MOL0     C30637   0.554  11.295   3.501 -0.2204 -0.0983  0.3943
  233MOL0     C30638   0.606  11.221   3.625 -0.2796 -0.0516  0.6205
  233MOL0     C30639   0.714  11.302   3.705 -0.0790 -0.7096 -0.2019
  233MOL0     C30640   0.659  11.437   3.778  0.6820  0.7101  0.3596
  233MOL0     N30641   0.546  11.409   3.863  1.2244  0.8107  0.2015
  233MOL0     C30642   0.416  11.413   3.830  0.1075 -0.9101 -0.2017
  233MOL0     C30643   0.346  11.366   3.935 -0.4539  0.8983  0.7700
  233MOL0     C30644   0.203  11.360   3.967 -0.8154  0.3649  0.7545
  233MOL0     C30645   0.137  11.500   3.987 -0.6285 -0.4073  0.1568
  233MOL0     C30646  -0.004  11.483   4.052  0.5724 -0.6946  0.7468
  233MOL0     C30647  -0.091  11.374   3.974 -0.2282 -0.0844 -0.7935
  233MOL0     O30648  -0.234  11.411   3.996  0.7811  0.0132 -0.1059
  233MOL0     C30649  -0.303  11.474   3.896  0.0212 -0.1765 -0.2802
  233MOL0     C30650  -0.250  11.533   3.776  0.4664 -0.4435 -0.7412
  233MOL0     C30651  -0.338  11.592   3.688 -0.0633 -0.3658  0.8378
  233MOL0     C30652  -0.480  11.601   3.704  0.5114  0.2196  0.0183
  233MOL0     C30653  -0.567  11.662   3.606  0.0395  0.6330  0.2765
  233MOL0     O30654  -0.504  11.698   3.484  1.1664  0.4195  0.4273
  233MOL0     C30655  -0.581  11.757   3.381 -1.0488  0.2005 -0.0483
  233MOL0     C30656  -0.515  11.859   3.322  0.1549  0.2403  0.7181
  233MOL0     C30657  -0.563  11.927   3.210 -0.4057 -0.4895 -1.0318
  233MOL0     C30658  -0.683  11.887   3.156 -0.0758  0.6212  0.7874
  233MOL0     O30659  -0.717  11.931   3.030  0.1081  0.2376  0.1308
  233MOL0     C30660  -0.856  11.934   3.005 -0.4667 -0.5260 -0.3374
  233MOL0     C30661  -0.869  12.017   2.879  0.5772  0.7154  0.6570
  233MOL0     C30662  -1.022  12.059   2.850  0.7349 -0.2145 -0.0264
  233MOL0     C30663  -1.039  12.139   2.719  0.7055  0.3629  0.1333
  233MOL0     C30664  -1.190  12.143   2.678  0.2726 -0.4177  0.5492
  233MOL0     C30665  -1.226  12.265   2.591  0.0177 -0.4973 -0.1731
  233MOL0     C30666  -1.241  12.383   2.687  0.0002  0.0293 -0.6405
  233MOL0     C30667  -1.204  12.515   2.624  0.2705 -0.0374  0.7938
  233MOL0    Cl30668  -1.310  12.535   2.477  0.3970 -0.1384  0.0521
  233MOL0     C30669  -0.760  11.791   3.228  0.6940  0.6579 -0.5241
  233MOL0     C30670  -0.712  11.727   3.342 -0.2998  1.0208 -0.3656
  233MOL0     O30671  -0.690  11.656   3.625 -0.5135 -0.1009 -0.1169
  233MOL0     C30672  -0.526  11.536   3.825  0.1579 -1.0685  0.2232
  233MOL0     C30673  -0.442  11.482   3.916  0.4112  0.2690 -0.2111
  233MOL0     N30674   0.440  11.312   4.022  0.2076 -0.0794 -0.2684
  233MOL0     N30675   0.554  11.332   3.976 -0.2754 -0.1848 -0.3831
  233MOL0     C30676   0.421  11.156   2.828  0.2573  0.3110 -1.1402
  233MOL0     C30677   0.410  11.112   2.698  0.4405  0.3703 -0.0154
  233MOL0     C30678   0.419  10.816   2.360  0.5814 -0.0915  0.5423
  233MOL0     C30679   0.462  10.691   2.309  0.3783  0.2500 -0.7860
  233MOL0     C30680   0.448  10.661   2.170  0.1174  0.1540 -0.0336
  233MOL0     C30681   0.382  10.751   2.081 -0.4456 -0.0913  0.9265
  233MOL0     O30682   0.377  10.710   1.953  0.3917  0.2374 -0.8070
  233MOL0     C30683   0.331  10.787   1.849  0.8496  0.0278  0.5404
  233MOL0     C30684   0.445  10.875   1.805  0.6206 -0.2007  0.8546
  233MOL0     C30685   0.390  10.964   1.698  0.3258 -0.2029  0.2412
  233MOL0     C30686   0.481  11.064   1.651  0.3004 -0.3140  0.4700
  233MOL0     C30687   0.401  11.164   1.585 -1.1776 -0.2726  0.2406
  233MOL0     C30688   0.349  11.245   1.510 -0.6558  0.5998  0.9077
  233MOL0     C30689   0.342  10.868   2.130  0.5354 -0.4749 -1.4024
  233MOL0     C30690   0.365  10.904   2.265  0.9639  0.6977  0.7151
  233MOL0     H30691   0.246  10.829   2.758 -0.5781  0.5660  1.6053
  233MOL0     H30692   0.288  10.893   2.984  3.8056 -1.6692 -0.4210
  233MOL0     H30693   0.356  10.989   3.239  3.3915  0.3020 -1.5605
  233MOL0     H30694   0.222  11.025   3.129 -1.9895  1.2475  2.2516
  233MOL0     H30695   0.228  11.114   3.358 -0.9769  2.2228 -0.4337
  233MOL0     H30696   0.190  11.235   3.218  0.8463 -0.9564 -3.1463
  233MOL0     H30697   0.322  11.357   3.387  1.6536 -0.7329  3.3295
  233MOL0     H30698   0.429  11.314   3.249  0.1711 -2.7236 -0.9044
  233MOL0     H30699   0.392  11.155   3.509 -0.1424  1.8327 -0.1682
  233MOL0     H30700   0.514  11.120   3.382  4.1599  1.9398  0.4608
  233MOL0     H30701   0.504  11.387   3.536  2.5792  1.3770  0.8251
  233MOL0     H30702   0.633  11.321   3.430 -0.4324  0.1882  0.2628
  233MOL0     H30703   0.657  11.135   3.581  0.0246  1.2403 -1.6998
  233MOL0     H30704   0.535  11.182   3.699  1.0764 -2.3288  0.8322
  233MOL0     H30705   0.754  11.244   3.789  2.8990  1.2179 -0.1121
  233MOL0     H30706   0.797  11.323   3.637 -0.8463 -0.4791 -1.0817
  233MOL0     H30707   0.630  11.513   3.704 -1.0360 -0.9838 -0.8004
  233MOL0     H30708   0.743  11.468   3.841  2.4243 -0.2228 -1.3970
  233MOL0     H30709   0.369  11.464   3.747 -1.2315 -0.5326  0.7558
  233MOL0     H30710   0.184  11.299   4.055 -0.2100 -1.2245 -0.1733
  233MOL0     H30711   0.153  11.307   3.886  1.3767  0.8701 -1.0292
  233MOL0     H30712   0.140  11.547   3.888  1.2301 -3.3137 -1.2759
  233MOL0     H30713   0.203  11.551   4.057  2.3917 -3.4534 -0.2179
  233MOL0     H30714   0.011  11.445   4.154 -0.6013 -1.2812  0.7174
  233MOL0     H30715  -0.056  11.579   4.051  1.0547 -0.4292  0.6914
  233MOL0     H30716  -0.076  11.277   4.023 -2.5851  0.9244  2.2025
  233MOL0     H30717  -0.059  11.377   3.869 -1.1376 -1.3287 -1.1338
  233MOL0     H30718  -0.143  11.536   3.762  0.8500 -0.6159  1.7465
  233MOL0     H30719  -0.287  11.639   3.604  0.8732  0.1530  1.6620
  233MOL0     H30720  -0.416  11.891   3.353  1.1253  3.4805 -4.4986
  233MOL0     H30721  -0.494  12.001   3.170 -0.4737  0.1050 -0.0982
  233MOL0     H30722  -0.919  11.969   3.087 -1.3994  0.7267 -1.5587
  233MOL0     H30723  -0.887  11.830   2.995 -0.8898 -0.4620  0.2612
  233MOL0     H30724  -0.828  11.954   2.799  0.5372  1.8431 -0.2629
  233MOL0     H30725  -0.823  12.116   2.879  0.9522  0.5733  2.6792
  233MOL0     H30726  -1.057  12.126   2.929 -2.1334 -0.0339 -1.3405
  233MOL0     H30727  -1.077  11.965   2.857 -0.7265  0.3394 -2.7678
  233MOL0     H30728  -1.000  12.240   2.737 -1.4463  1.5450 -1.3169
  233MOL0     H30729  -0.984  12.090   2.638 -2.2422 -0.9332 -1.2558
  233MOL0     H30730  -1.252  12.151   2.768 -0.1481  1.7445  0.1324
  233MOL0     H30731  -1.215  12.050   2.627  2.0747  0.5276 -2.3191
  233MOL0     H30732  -1.320  12.248   2.537  0.7906 -0.7960 -1.4529
  233MOL0     H30733  -1.153  12.283   2.512 -0.8512  1.0388 -0.6709
  233MOL0     H30734  -1.342  12.388   2.727 -0.8101  1.1278 -2.6980
  233MOL0     H30735  -1.170  12.381   2.770  0.1546  6.0157 -0.1681
  233MOL0     H30736  -1.100  12.524   2.590 -0.7022  0.5430 -2.4563
  233MOL0     H30737  -1.211  12.607   2.683  1.3518 -0.0879  1.0180
  233MOL0     H30738  -0.852  11.754   3.183  0.2713  3.3687 -2.1076
  233MOL0     H30739  -0.771  11.650   3.391 -0.7472  2.4163  1.3988
  233MOL0     H30740  -0.631  11.540   3.852 -0.3364 -0.1523 -1.6784
  233MOL0     H30741  -0.473  11.447   4.014  0.3549 -2.2358 -1.0636
  233MOL0     H30742   0.458  11.256   2.846 -0.8325  0.5745 -0.2400
  233MOL0     H30743   0.428  11.168   2.607  2.1424 -0.1695 -0.0398
  233MOL0     H30744   0.512  10.628   2.382 -0.4639  0.6730  0.1741
  233MOL0     H30745   0.494  10.566   2.141  1.2728  1.3943 -2.5886
  233MOL0     H30746   0.243  10.847   1.874  0.2731  1.7869 -4.5544
  233MOL0     H30747   0.298  10.724   1.766 -1.9481  4.2661 -1.9430
  233MOL0     H30748   0.472  10.943   1.886 -1.8520  2.7502 -0.5958
  233MOL0     H30749   0.528  10.808   1.781 -0.4907 -2.2142  2.3887
  233MOL0     H30750   0.292  11.003   1.731 -1.1375  0.9439 -4.5840
  233MOL0     H30751   0.358  10.913   1.607 -0.6288  1.6404 -0.5099
  233MOL0     H30752   0.523  11.108   1.742  0.2037  0.1399  0.2995
  233MOL0     H30753   0.562  11.023   1.590 -1.8929  0.0336 -2.9600
  233MOL0     H30754   0.292  11.307   1.443 -0.0126 -0.2559 -0.4807
  233MOL0     H30755   0.312  10.950   2.065 -0.7787  0.6992  0.5374
  233MOL0     H30756   0.322  11.001   2.288  1.0286  0.7446  0.6337
  234MOL0     O30757   5.761   7.941   9.357  0.0876 -0.1478 -0.0943
  234MOL0     C30758   5.823   8.000   9.270 -0.3222 -0.3992  0.0612
  234MOL0     O30759   5.857   8.133   9.281  0.6578 -0.4606 -0.0447
  234MOL0     C30760   5.805   8.229   9.372  0.6799  0.9241 -0.0366
  234MOL0     C30761   5.751   8.343   9.319 -0.7124 -0.3540 -0.3436
  234MOL0     C30762   5.722   8.443   9.401  0.2410  0.6727 -1.0737
  234MOL0     C30763   5.727   8.431   9.538  0.5584  0.8894  0.4034
  234MOL0     O30764   5.695   8.538   9.621 -0.1941  0.8701 -0.1176
  234MOL0     C30765   5.661   8.661   9.570 -0.3142 -0.9062 -0.3567
  234MOL0     C30766   5.629   8.736   9.702  0.3869  0.6039 -0.4006
  234MOL0     C30767   5.584   8.884   9.678 -0.6161 -0.2693 -0.0067
  234MOL0     C30768   5.560   8.949   9.811  0.0984  0.4457 -0.1217
  234MOL0     C30769   5.490   9.083   9.810 -0.2541 -0.7423 -0.0426
  234MOL0     C30770   5.337   9.080   9.774  0.0160  0.5154  0.5261
  234MOL0     C30771   5.278   9.212   9.788  0.2028  0.8858 -0.7598
  234MOL0     C30772   5.121   9.211   9.793 -0.0587 -0.4847 -0.6350
  234MOL0     N30773   5.071   9.344   9.815  0.2639 -0.8806 -0.3480
  234MOL0     C30774   5.120   9.454   9.758 -0.4202  0.1813 -0.1601
  234MOL0     C30775   5.114   9.549   9.852  0.0189 -0.1653  0.1111
  234MOL0     C30776   5.161   9.697   9.834  0.1698  0.2354  1.2111
  234MOL0     C30777   5.153   9.779   9.960 -1.6111  0.5776  0.7335
  234MOL0     C30778   5.245   9.901   9.965 -0.3249 -0.8777  0.0359
  234MOL0     C30779   5.232   9.985  10.081  0.7447 -0.4694  0.4941
  234MOL0     O30780   5.103  10.056  10.073 -0.1453 -0.2650  0.8154
  234MOL0     C30781   5.061  10.130  10.174 -0.9037 -0.2590 -0.1384
  234MOL0     C30782   5.130  10.154  10.291  0.1376  0.9883 -0.1357
  234MOL0     C30783   5.057  10.216  10.393  0.8957  0.5419  0.3025
  234MOL0     C30784   4.930  10.272  10.377  0.7907  0.4108 -0.9881
  234MOL0     C30785   4.869  10.348  10.495 -0.2022  0.0695  0.4227
  234MOL0     O30786   4.914  10.325  10.618 -0.0585  0.3963 -0.1180
  234MOL0     C30787   4.882  10.415  10.710  1.0357  0.2720 -0.0953
  234MOL0     C30788   4.976  10.516  10.753 -0.1905 -1.1296  0.5818
  234MOL0     C30789   4.937  10.619  10.846 -1.3533  0.2105 -0.5065
  234MOL0     C30790   4.814  10.614  10.912  0.2721 -0.5545  0.1121
  234MOL0     O30791   4.788  10.705  11.015  1.0058  0.3994  1.6132
  234MOL0     C30792   4.722  10.670  11.135  0.1680 -0.2513 -0.0973
  234MOL0     C30793   4.822  10.660  11.252 -0.4164  0.5096 -0.3069
  234MOL0     C30794   4.854  10.811  11.287  0.4071 -0.6263 -0.4446
  234MOL0     C30795   4.944  10.810  11.417 -0.2271 -0.4871 -0.7045
  234MOL0     C30796   5.018  10.942  11.447 -0.1277 -0.7904 -0.3816
  234MOL0     C30797   5.074  10.943  11.594  0.3293  1.0140 -0.4825
  234MOL0     C30798   5.139  11.078  11.621  0.7566 -0.9840 -0.3039
  234MOL0     C30799   5.044  11.180  11.671 -0.2507 -0.7096  0.3728
  234MOL0    Cl30800   4.996  11.142  11.841  0.2462  0.4574 -0.2596
  234MOL0     C30801   4.724  10.516  10.866  0.9681  0.1547  0.2347
  234MOL0     C30802   4.753  10.418  10.771 -0.2565 -0.0603 -0.6704
  234MOL0     O30803   4.792  10.437  10.461  0.2835  0.3374  0.2255
  234MOL0     C30804   4.865  10.255  10.255 -0.1321  0.9704 -0.7659
  234MOL0     C30805   4.936  10.184  10.156  0.5514 -1.0193 -0.6154
  234MOL0     N30806   5.039   9.507   9.958  1.0373  0.1651 -0.7656
  234MOL0     N30807   4.999   9.386   9.935  0.1301  0.0260  0.2227
  234MOL0     C30808   5.755   8.303   9.589  0.2376  0.0641 -0.4974
  234MOL0     C30809   5.802   8.203   9.506  0.6205  0.2822  0.3423
  234MOL0     C30810   5.856   7.934   9.141 -0.0025  0.3116 -0.1524
  234MOL0     C30811   5.862   7.793   9.134 -0.2154 -0.4280  0.0192
  234MOL0     C30812   5.896   7.724   9.009 -0.7608 -0.4620 -1.3356
  234MOL0     C30813   5.922   7.808   8.899  0.3623 -0.0601  0.3803
  234MOL0     O30814   5.956   7.764   8.769 -0.7193 -0.4757  0.6761
  234MOL0     C30815   6.006   7.627   8.744  0.2470 -0.3085 -0.5073
  234MOL0     C30816   5.885   7.540   8.697 -0.2333 -0.3968 -0.8374
  234MOL0     C30817   5.934   7.403   8.651  0.2477 -0.2836 -0.5491
  234MOL0     C30818   5.830   7.292   8.645  0.5391  0.2183 -1.1721
  234MOL0     C30819   5.865   7.181   8.558 -0.3699  0.2301 -0.1183
  234MOL0     C30820   5.872   7.082   8.477 -1.3385  0.8664  0.3193
  234MOL0     C30821   5.911   7.942   8.904 -0.7541 -0.2085 -1.1912
  234MOL0     C30822   5.880   8.002   9.029  0.3252 -0.2993  0.9926
  234MOL0     H30823   5.742   8.355   9.212 -1.8340 -2.6999 -0.6018
  234MOL0     H30824   5.694   8.541   9.363 -2.1452  0.7168  0.5493
  234MOL0     H30825   5.573   8.661   9.505 -0.0159 -1.0671 -0.7562
  234MOL0     H30826   5.751   8.694   9.517  0.3123 -4.7342 -1.9790
  234MOL0     H30827   5.708   8.733   9.777  1.1753  1.4851 -1.1599
  234MOL0     H30828   5.546   8.687   9.753 -0.4830  2.9051  0.5221
  234MOL0     H30829   5.492   8.883   9.618  0.3842  1.9235 -1.7334
  234MOL0     H30830   5.669   8.939   9.637  0.8205 -2.1861  0.2677
  234MOL0     H30831   5.493   8.882   9.865 -0.5655  0.7893 -0.5162
  234MOL0     H30832   5.656   8.970   9.860  0.7337  1.5173 -1.7384
  234MOL0     H30833   5.553   9.152   9.754  2.2551 -1.5040  1.6719
  234MOL0     H30834   5.499   9.115   9.914  4.6230 -1.8281  0.0736
  234MOL0     H30835   5.292   8.990   9.818 -0.7490  0.2753 -0.7109
  234MOL0     H30836   5.332   9.055   9.668 -2.2455 -0.1247  0.7266
  234MOL0     H30837   5.319   9.258   9.879  1.6012 -1.5051 -0.0605
  234MOL0     H30838   5.319   9.280   9.714 -3.9007  1.9275 -2.3344
  234MOL0     H30839   5.105   9.143   9.878  1.6627 -3.0104 -2.1726
  234MOL0     H30840   5.093   9.162   9.699 -1.6689  0.7520 -0.8435
  234MOL0     H30841   5.160   9.452   9.657  1.7656  2.2176  0.5718
  234MOL0     H30842   5.119   9.747   9.746  2.0936 -0.4007 -0.1300
  234MOL0     H30843   5.267   9.685   9.810  0.2629 -0.2260  1.8225
  234MOL0     H30844   5.187   9.723  10.048  2.1035  0.0521 -0.8405
  234MOL0     H30845   5.050   9.813   9.975 -2.7533 -2.0137 -0.6166
  234MOL0     H30846   5.350   9.873   9.953 -0.7928 -2.1441 -1.6105
  234MOL0     H30847   5.235   9.970   9.880 -0.9253  1.0532  1.6068
  234MOL0     H30848   5.314  10.057  10.079  0.4232 -0.0702 -2.2304
  234MOL0     H30849   5.232   9.924  10.172 -1.3987 -2.0522 -0.4681
  234MOL0     H30850   5.231  10.119  10.308  0.1054 -0.0882 -1.9420
  234MOL0     H30851   5.106  10.215  10.490 -0.0307  1.4108  0.7949
  234MOL0     H30852   5.069  10.521  10.697  0.6757  0.5189  2.0741
  234MOL0     H30853   4.999  10.707  10.858  0.3387 -0.7331 -1.9599
  234MOL0     H30854   4.670  10.574  11.131 -1.5459  0.6368  0.0866
  234MOL0     H30855   4.645  10.744  11.158 -0.2852 -1.0429  1.0544
  234MOL0     H30856   4.912  10.606  11.222 -1.3252 -1.7874  0.8462
  234MOL0     H30857   4.783  10.610  11.341  3.8731  1.3930  2.3346
  234MOL0     H30858   4.760  10.862  11.311  1.1600 -0.2229  1.9272
  234MOL0     H30859   4.905  10.859  11.203  0.4682  2.6080  1.2753
  234MOL0     H30860   4.878  10.797  11.504  1.0865  0.2554  0.4490
  234MOL0     H30861   5.022  10.734  11.417  0.5270  0.1668  1.9576
  234MOL0     H30862   4.950  11.024  11.422  0.1603 -0.9685 -1.8680
  234MOL0     H30863   5.102  10.944  11.376 -1.0422 -2.3227 -1.5728
  234MOL0     H30864   5.147  10.864  11.613 -0.6851 -0.2393 -1.6171
  234MOL0     H30865   4.993  10.919  11.663  1.0503  0.5261  0.2102
  234MOL0     H30866   5.205  11.059  11.706 -0.9016 -1.3684  0.9464
  234MOL0     H30867   5.184  11.121  11.530 -2.0380 -0.9741 -1.7738
  234MOL0     H30868   4.947  11.181  11.619 -0.1523  0.2477  0.1849
  234MOL0     H30869   5.084  11.281  11.663 -1.6009 -0.2472 -1.1531
  234MOL0     H30870   4.631  10.519  10.923  2.6808  0.8559  3.2369
  234MOL0     H30871   4.673  10.349  10.746  1.2760 -1.8243 -0.9391
  234MOL0     H30872   4.766  10.294  10.234 -0.3068  0.8946 -0.0993
  234MOL0     H30873   4.898  10.171  10.055 -0.1411  0.2703 -0.5503
  234MOL0     H30874   5.747   8.279   9.694 -0.4803 -0.3106 -0.6320
  234MOL0     H30875   5.829   8.106   9.547 -0.6137 -0.6000 -0.8470
  234MOL0     H30876   5.854   7.738   9.227 -0.5401  0.3115  0.4374
  234MOL0     H30877   5.915   7.617   9.010 -2.4733 -0.9491  3.5536
  234MOL0     H30878   6.039   7.586   8.840  0.2805  1.4857  0.2866
  234MOL0     H30879   6.090   7.625   8.673 -1.3672 -2.2317 -2.5121
  234MOL0     H30880   5.826   7.528   8.788  1.9503 -0.3180  0.6678
  234MOL0     H30881   5.826   7.598   8.626  1.3287  1.6872 -0.5310
  234MOL0     H30882   6.010   7.376   8.725  1.0809 -0.4988 -1.4749
  234MOL0     H30883   5.995   7.408   8.561  1.4697  2.4882  0.3095
  234MOL0     H30884   5.826   7.246   8.744 -0.0609 -2.0994 -2.2224
  234MOL0     H30885   5.728   7.328   8.625  0.1023 -0.3906 -0.1339
  234MOL0     H30886   5.882   6.985   8.433  1.1045  2.0191 -1.9413
  234MOL0     H30887   5.916   7.987   8.806  1.5400 -2.9255 -2.4746
  234MOL0     H30888   5.851   8.106   9.031  1.3748  0.0146  0.4792
  235MOL0     O30889   2.872  10.033   4.731  0.3766  0.5968 -0.5457
  235MOL0     C30890   2.812   9.986   4.640  0.2020 -0.6083 -0.2182
  235MOL0     O30891   2.860   9.962   4.518 -0.1016  0.5168 -0.5749
  235MOL0     C30892   3.002   9.960   4.504  0.3035  0.2523 -0.2275
  235MOL0     C30893   3.061   9.836   4.518  0.0768 -0.0218 -0.3659
  235MOL0     C30894   3.196   9.837   4.522  0.3625 -0.6301 -0.1201
  235MOL0     C30895   3.277   9.953   4.518 -0.1339  0.5026  0.3810
  235MOL0     O30896   3.414   9.938   4.512 -1.1706  0.9125  0.5772
  235MOL0     C30897   3.487  10.055   4.496 -0.4322 -0.2737 -0.5526
  235MOL0     C30898   3.623  10.022   4.471 -0.3318 -0.7987  0.1503
  235MOL0     C30899   3.710  10.156   4.472  0.2729 -0.4772  0.8141
  235MOL0     C30900   3.864  10.133   4.493  1.0681  0.0621  0.2954
  235MOL0     C30901   3.953  10.256   4.492  0.4475  0.2058  0.4487
  235MOL0     C30902   3.925  10.340   4.621 -0.2577 -0.3512  0.0457
  235MOL0     C30903   4.026  10.458   4.634 -0.4825 -0.8992  1.2966
  235MOL0     C30904   3.972  10.575   4.549  0.7472  0.9914 -0.7068
  235MOL0     N30905   4.041  10.701   4.578  0.5066  0.7832  0.4664
  235MOL0     C30906   4.132  10.734   4.674 -0.8584  0.4360 -0.0127
  235MOL0     C30907   4.182  10.864   4.645 -0.5280 -0.4484 -0.1817
  235MOL0     C30908   4.297  10.939   4.708  0.0858  0.2718  0.0420
  235MOL0     C30909   4.395  10.998   4.606  0.1499  0.9487 -0.7298
  235MOL0     C30910   4.515  11.074   4.666 -0.7053  0.7869 -0.8187
  235MOL0     C30911   4.616  11.121   4.555 -0.0031  0.7854  0.1642
  235MOL0     O30912   4.722  11.187   4.631 -0.3109  0.4010 -0.5726
  235MOL0     C30913   4.827  11.234   4.562  0.7456 -0.5607 -0.7262
  235MOL0     C30914   4.934  11.289   4.640  0.1321  1.6257  0.0140
  235MOL0     C30915   5.058  11.322   4.587  0.8606  0.5669 -0.7084
  235MOL0     C30916   5.071  11.311   4.446  0.4439 -0.1068  0.8539
  235MOL0     C30917   5.202  11.343   4.378 -0.0109  0.2176 -0.7527
  235MOL0     O30918   5.320  11.320   4.447  0.5026  0.4143 -0.3921
  235MOL0     C30919   5.436  11.341   4.377 -0.2513 -1.4685  0.2863
  235MOL0     C30920   5.503  11.235   4.307  0.5734  0.5498  0.7644
  235MOL0     C30921   5.625  11.263   4.236 -0.0888  0.2956  0.4066
  235MOL0     C30922   5.682  11.388   4.241  0.0245 -1.0644 -0.0996
  235MOL0     O30923   5.806  11.414   4.176  1.1993  0.2492 -0.9956
  235MOL0     C30924   5.916  11.421   4.264  0.3962 -1.2732 -0.2297
  235MOL0     C30925   6.031  11.487   4.190 -0.1711  0.4059 -0.5784
  235MOL0     C30926   6.150  11.526   4.280  0.7029  0.0590  0.6034
  235MOL0     C30927   6.272  11.575   4.199  1.3642 -0.2477  0.2332
  235MOL0     C30928   6.391  11.610   4.283 -0.1294 -0.2067  0.1648
  235MOL0     C30929   6.471  11.481   4.318  0.1326  0.7727 -0.1374
  235MOL0     C30930   6.559  11.495   4.432 -0.1861 -0.4584  0.2169
  235MOL0     C30931   6.674  11.594   4.422 -0.3058  0.3740  0.1802
  235MOL0    Cl30932   6.742  11.595   4.264 -0.5021 -0.0357  0.5076
  235MOL0     C30933   5.625  11.490   4.327  1.5200 -0.1100 -0.3589
  235MOL0     C30934   5.506  11.462   4.394 -0.1427  0.5554  0.1213
  235MOL0     O30935   5.197  11.378   4.259 -0.4112 -0.2256 -0.4877
  235MOL0     C30936   4.962  11.269   4.365 -0.1486 -0.4008 -0.6154
  235MOL0     C30937   4.840  11.225   4.421  0.5681  0.2400 -1.5949
  235MOL0     N30938   4.110  10.900   4.530 -0.3750  0.6005 -1.2310
  235MOL0     N30939   4.025  10.810   4.495  0.1726  0.5926 -0.0149
  235MOL0     C30940   3.210  10.072   4.515 -0.4304  0.7495 -0.0508
  235MOL0     C30941   3.074  10.077   4.506  0.4770 -0.4344  0.8225
  235MOL0     C30942   2.665   9.961   4.668 -0.5321  0.3899 -0.5646
  235MOL0     C30943   2.594   9.898   4.568  0.8062 -0.2175 -0.7035
  235MOL0     C30944   2.457   9.872   4.584 -0.6076  0.2113  0.1363
  235MOL0     C30945   2.390   9.911   4.706  0.0889  0.6358  0.1941
  235MOL0     O30946   2.251   9.879   4.718 -0.2791 -1.1349 -0.2099
  235MOL0     C30947   2.186   9.903   4.843  0.1370  0.2631  0.0528
  235MOL0     C30948   2.042   9.838   4.825  0.2264  0.0600 -1.4183
  235MOL0     C30949   1.962   9.846   4.952 -0.0720  0.1076  0.0760
  235MOL0     C30950   1.813   9.808   4.922  0.0350 -0.1189 -0.5153
  235MOL0     C30951   1.735   9.789   5.044  0.5255 -0.0611 -0.2891
  235MOL0     C30952   1.664   9.784   5.139 -0.0323 -0.0734 -0.5263
  235MOL0     C30953   2.456   9.983   4.803 -0.2508  0.0006  0.0704
  235MOL0     C30954   2.596  10.001   4.785  0.7222 -0.0082  0.5449
  235MOL0     H30955   2.998   9.750   4.536  0.9879 -0.2549  2.0703
  235MOL0     H30956   3.249   9.744   4.501 -0.4331 -1.3641  1.0191
  235MOL0     H30957   3.472  10.112   4.588  3.5555 -2.1636  1.5206
  235MOL0     H30958   3.449  10.123   4.418  3.0459  3.5758  0.7112
  235MOL0     H30959   3.625   9.971   4.374 -0.9061  0.2897 -0.4503
  235MOL0     H30960   3.670   9.966   4.553  2.4701  2.7503  1.2539
  235MOL0     H30961   3.677  10.225   4.550  2.7943  1.8729 -0.0106
  235MOL0     H30962   3.694  10.205   4.376  0.4610  0.7535  1.4002
  235MOL0     H30963   3.880  10.080   4.587 -2.3937  0.2409  1.1215
  235MOL0     H30964   3.897  10.071   4.409 -0.7635 -1.0036  0.3045
  235MOL0     H30965   3.945  10.318   4.402 -0.1840  1.1378  1.1363
  235MOL0     H30966   4.055  10.216   4.486  0.5393  0.5122 -0.0361
  235MOL0     H30967   3.929  10.273   4.707 -2.0502  0.0743  0.5032
  235MOL0     H30968   3.825  10.378   4.642 -0.5186 -1.5890  1.1301
  235MOL0     H30969   4.032  10.485   4.740  0.7382  0.3152  0.9398
  235MOL0     H30970   4.120  10.432   4.583 -1.2289 -0.0505 -0.6114
  235MOL0     H30971   3.866  10.578   4.578  1.1910 -0.6330  1.2787
  235MOL0     H30972   3.984  10.550   4.444  0.0968  2.7171 -1.2250
  235MOL0     H30973   4.152  10.665   4.756 -2.5569 -2.6473 -1.9922
  235MOL0     H30974   4.341  10.865   4.775  0.8060 -1.0225 -1.7854
  235MOL0     H30975   4.256  11.017   4.773  2.1560  1.4584  0.0389
  235MOL0     H30976   4.343  11.072   4.545 -4.0962  0.1066  1.4917
  235MOL0     H30977   4.437  10.924   4.538 -2.0349 -1.9471  0.8371
  235MOL0     H30978   4.474  11.158   4.722 -1.0603 -1.0827  1.9128
  235MOL0     H30979   4.572  11.010   4.734 -2.9122 -1.4740 -0.9616
  235MOL0     H30980   4.566  11.198   4.495  1.6954  2.8313  1.2001
  235MOL0     H30981   4.658  11.042   4.493  0.2659  1.5593 -0.6602
  235MOL0     H30982   4.922  11.307   4.746  2.3385 -1.3012  0.8995
  235MOL0     H30983   5.144  11.344   4.649  0.4491 -1.0398  0.4946
  235MOL0     H30984   5.471  11.131   4.313  3.3160 -0.4570 -0.6338
  235MOL0     H30985   5.678  11.181   4.188 -0.5881 -1.5927  2.8579
  235MOL0     H30986   5.949  11.326   4.306  3.4408  0.2072  1.0780
  235MOL0     H30987   5.876  11.493   4.336 -4.4844 -0.9420 -2.8029
  235MOL0     H30988   5.996  11.580   4.144 -0.0999  0.5605 -0.3221
  235MOL0     H30989   6.058  11.415   4.113 -1.8263  1.5827 -2.3633
  235MOL0     H30990   6.172  11.439   4.342 -1.0041 -1.9748 -1.5054
  235MOL0     H30991   6.115  11.604   4.349  1.7693 -0.1158  1.3645
  235MOL0     H30992   6.302  11.491   4.136 -3.3276 -0.8330 -1.6574
  235MOL0     H30993   6.245  11.654   4.127  1.5168 -1.3730 -1.1033
  235MOL0     H30994   6.364  11.656   4.379  0.1221  2.3805 -0.9366
  235MOL0     H30995   6.468  11.670   4.235  0.4152 -1.0579 -0.0604
  235MOL0     H30996   6.534  11.440   4.239 -0.1230  0.9903 -0.4579
  235MOL0     H30997   6.404  11.396   4.334 -0.4589  1.3072  0.3007
  235MOL0     H30998   6.505  11.508   4.526  3.5851  1.4966  2.3757
  235MOL0     H30999   6.606  11.397   4.441 -1.9321 -1.3500  0.1472
  235MOL0     H31000   6.750  11.558   4.493  1.3185  0.9176 -1.1960
  235MOL0     H31001   6.635  11.692   4.450  0.1482  0.6486 -0.1170
  235MOL0     H31002   5.683  11.581   4.339 -0.7316  1.2566  0.9119
  235MOL0     H31003   5.465  11.533   4.465  3.7007  0.2152  2.9568
  235MOL0     H31004   4.971  11.255   4.257 -0.7331 -0.5677 -0.6418
  235MOL0     H31005   4.774  11.171   4.354  0.9863  0.8932 -2.5528
  235MOL0     H31006   3.265  10.165   4.503  3.7338 -1.5910 -0.8355
  235MOL0     H31007   3.026  10.174   4.500 -2.4526 -1.8293 -1.6285
  235MOL0     H31008   2.634   9.859   4.474 -0.9342  0.1300 -1.6447
  235MOL0     H31009   2.401   9.814   4.512 -1.2258 -0.0325  0.7977
  235MOL0     H31010   2.172  10.009   4.866  0.5384  0.8482 -2.1395
  235MOL0     H31011   2.244   9.867   4.929 -2.3775  0.7748  2.0727
  235MOL0     H31012   1.986   9.865   4.735  0.7688 -0.4340 -1.9236
  235MOL0     H31013   2.066   9.732   4.807  1.5001 -0.0296  0.4614
  235MOL0     H31014   1.964   9.949   4.989 -0.2888  0.5757 -1.1590
  235MOL0     H31015   2.005   9.782   5.030 -1.8680 -1.8698 -0.4509
  235MOL0     H31016   1.776   9.893   4.864 -1.3459  1.9875  3.1447
  235MOL0     H31017   1.809   9.718   4.858 -0.3129 -0.5158  0.0558
  235MOL0     H31018   1.603   9.783   5.227  1.4059  0.6201  0.5322
  235MOL0     H31019   2.401  10.021   4.888 -1.2618  1.3729 -1.1433
  235MOL0     H31020   2.641  10.058   4.866 -3.7270  1.7833  2.1023
  236MOL0     O31021   7.192   6.448   3.809 -0.3537  0.2585  0.3769
  236MOL0     C31022   7.239   6.555   3.818  0.2588 -0.6730  0.3572
  236MOL0     O31023   7.371   6.578   3.828 -0.9871  0.4984  0.0210
  236MOL0     C31024   7.460   6.481   3.793  0.3869 -0.2452 -0.2755
  236MOL0     C31025   7.466   6.424   3.662  0.1070 -1.5960  0.2005
  236MOL0     C31026   7.553   6.322   3.639  0.5994 -0.7189 -0.6939
  236MOL0     C31027   7.644   6.280   3.746 -0.1908 -0.2323  0.0720
  236MOL0     O31028   7.735   6.180   3.740  0.9454 -0.7085 -0.2661
  236MOL0     C31029   7.703   6.066   3.659  0.3714 -0.4409 -1.2632
  236MOL0     C31030   7.778   6.085   3.529  1.0258  1.4611  0.4918
  236MOL0     C31031   7.764   5.961   3.436 -0.1325 -0.4339  0.6083
  236MOL0     C31032   7.621   5.931   3.384 -0.5039  0.5394 -0.4946
  236MOL0     C31033   7.625   5.866   3.250 -0.3569 -0.2254  0.0976
  236MOL0     C31034   7.490   5.842   3.204 -0.1799  0.6287  0.5570
  236MOL0     C31035   7.441   5.956   3.099  0.2488  0.2555 -0.4877
  236MOL0     C31036   7.422   6.086   3.178  0.4316 -1.0584 -0.0329
  236MOL0     N31037   7.326   6.170   3.099 -0.3078  1.0551 -0.2086
  236MOL0     C31038   7.194   6.145   3.072  0.5015  0.2416 -0.1316
  236MOL0     C31039   7.166   6.209   2.954 -0.1822  0.3378 -0.6039
  236MOL0     C31040   7.033   6.197   2.880 -0.1314  0.6588  0.9763
  236MOL0     C31041   7.064   6.156   2.738 -0.6797  0.2777  0.0295
  236MOL0     C31042   6.935   6.149   2.656 -1.2536 -0.2164 -0.1331
  236MOL0     C31043   6.852   6.019   2.663 -1.5968  0.4498  0.3871
  236MOL0     O31044   6.803   5.985   2.792  0.8662  0.5515 -0.0517
  236MOL0     C31045   6.691   6.044   2.837 -0.7776 -0.2176  0.0152
  236MOL0     C31046   6.658   6.002   2.967  0.2983  0.0593  0.0684
  236MOL0     C31047   6.534   6.039   3.022 -0.5077  0.5415  0.8036
  236MOL0     C31048   6.449   6.128   2.947 -0.1578  0.6166 -0.1049
  236MOL0     C31049   6.308   6.159   2.996 -0.4059 -0.7973 -0.3389
  236MOL0     O31050   6.263   6.110   3.122 -0.3785 -1.1992  0.7837
  236MOL0     C31051   6.142   6.143   3.189  0.0506 -0.2205  1.0456
  236MOL0     C31052   6.069   6.261   3.162  0.5164 -0.1856  0.2433
  236MOL0     C31053   5.939   6.287   3.215 -0.8995  0.4145  0.4957
  236MOL0     C31054   5.887   6.198   3.300 -0.9716 -0.4109 -0.6606
  236MOL0     O31055   5.760   6.204   3.344  0.3238  0.2571 -0.8781
  236MOL0     C31056   5.649   6.252   3.260 -0.4354 -0.1542  0.5248
  236MOL0     C31057   5.571   6.355   3.344 -0.1807  0.1743 -0.4679
  236MOL0     C31058   5.532   6.303   3.482 -0.4892  0.1040 -0.4241
  236MOL0     C31059   5.436   6.381   3.567  0.0407 -0.1667 -1.3985
  236MOL0     C31060   5.390   6.300   3.690 -0.3718 -0.0606 -0.8808
  236MOL0     C31061   5.293   6.191   3.647  0.3390 -0.2756  0.5938
  236MOL0     C31062   5.196   6.141   3.762  0.5680  0.2213 -0.9802
  236MOL0     C31063   5.284   6.121   3.891  0.7691  0.3140  0.4692
  236MOL0    Cl31064   5.416   6.009   3.858 -0.3977  0.1590 -0.1476
  236MOL0     C31065   5.966   6.092   3.341  0.3598  0.9395  0.8564
  236MOL0     C31066   6.089   6.062   3.291 -0.8495 -0.2178  0.7992
  236MOL0     O31067   6.236   6.210   2.907 -0.5272 -0.7219 -0.4173
  236MOL0     C31068   6.496   6.176   2.825 -0.2200  0.3386  0.1784
  236MOL0     C31069   6.617   6.134   2.768  0.4366  0.8377  0.4730
  236MOL0     N31070   7.280   6.278   2.926  0.2750 -0.3184  0.4252
  236MOL0     N31071   7.381   6.240   2.998  0.0607 -0.2112 -0.4668
  236MOL0     C31072   7.648   6.342   3.867 -0.0903  0.2545  0.4413
  236MOL0     C31073   7.539   6.437   3.899  0.3141  0.1026  0.1189
  236MOL0     C31074   7.153   6.671   3.840 -0.0124  1.3584 -0.2386
  236MOL0     C31075   7.026   6.661   3.885 -0.1055  0.1495  0.3904
  236MOL0     C31076   6.942   6.770   3.921 -0.1953 -0.1537 -0.3894
  236MOL0     C31077   6.995   6.897   3.897 -0.1647  0.3326 -0.2187
  236MOL0     O31078   6.921   6.997   3.941 -0.1244 -0.5604 -0.2111
  236MOL0     C31079   6.798   7.011   3.876  0.8144  0.7239  1.1426
  236MOL0     C31080   6.676   7.025   3.980  0.0544 -1.0235 -0.2384
  236MOL0     C31081   6.700   7.123   4.086 -0.2594  0.2832  0.0219
  236MOL0     C31082   6.761   7.254   4.042  0.1916  0.1077 -0.0644
  236MOL0     C31083   6.677   7.324   3.947 -0.2474  0.5387 -0.3409
  236MOL0     C31084   6.620   7.385   3.858  0.2031  0.5269 -0.2849
  236MOL0     C31085   7.129   6.915   3.851 -0.4698  1.0965  0.4401
  236MOL0     C31086   7.209   6.801   3.823  0.1182  0.6778  0.2438
  236MOL0     H31087   7.400   6.475   3.593 -2.6156 -1.2272  2.8601
  236MOL0     H31088   7.547   6.284   3.538 -2.5154 -3.4716  0.3365
  236MOL0     H31089   7.596   6.044   3.651  0.9166 -2.6857 -4.0642
  236MOL0     H31090   7.757   5.987   3.712  1.6190  0.1711 -1.5732
  236MOL0     H31091   7.885   6.103   3.546  1.5196 -0.3088 -0.5128
  236MOL0     H31092   7.738   6.172   3.475 -2.7821 -1.1020 -1.2606
  236MOL0     H31093   7.804   5.873   3.487  0.7712  0.9735  2.4578
  236MOL0     H31094   7.819   5.994   3.348  1.0702 -1.2744  1.0148
  236MOL0     H31095   7.584   5.877   3.471  2.9207  3.2428  3.0219
  236MOL0     H31096   7.567   6.026   3.378 -0.4890  0.5791  0.0202
  236MOL0     H31097   7.684   5.774   3.248 -1.7157 -1.1190  0.0100
  236MOL0     H31098   7.670   5.942   3.186  3.2244 -2.0553  0.1284
  236MOL0     H31099   7.409   5.824   3.274 -2.0539 -0.6842 -1.7964
  236MOL0     H31100   7.500   5.753   3.141 -0.0701  0.1041  1.3141
  236MOL0     H31101   7.509   5.967   3.014  0.5563 -0.1335 -0.2997
  236MOL0     H31102   7.348   5.907   3.068  0.5040 -0.2278 -0.4998
  236MOL0     H31103   7.513   6.141   3.206  0.0913 -1.1203  1.2502
  236MOL0     H31104   7.379   6.060   3.275  2.6918 -0.6913  1.1427
  236MOL0     H31105   7.127   6.083   3.131  0.2308  1.9542  1.4187
  236MOL0     H31106   6.977   6.291   2.890 -1.5155 -0.1769  1.3397
  236MOL0     H31107   6.978   6.121   2.936  0.0406 -3.6058 -3.9179
  236MOL0     H31108   7.112   6.058   2.745 -0.2803  0.4512 -0.1874
  236MOL0     H31109   7.130   6.229   2.691 -0.4710 -0.7731 -1.3830
  236MOL0     H31110   6.882   6.242   2.678  2.4468  2.0417  0.0750
  236MOL0     H31111   6.960   6.156   2.550  2.4842  2.6996  0.7273
  236MOL0     H31112   6.921   5.939   2.631 -1.1023  1.3338 -0.8393
  236MOL0     H31113   6.778   6.020   2.582  0.0206  1.7961 -1.1573
  236MOL0     H31114   6.725   5.930   3.013  0.7871  0.0409 -0.6630
  236MOL0     H31115   6.497   5.993   3.113  1.5093 -0.8479  0.9738
  236MOL0     H31116   6.116   6.337   3.100  1.3157  2.4477  3.7297
  236MOL0     H31117   5.909   6.389   3.191 -0.7426  0.2934 -0.2453
  236MOL0     H31118   5.573   6.177   3.237  0.2136 -0.2571 -1.4509
  236MOL0     H31119   5.685   6.300   3.168 -2.6182 -0.3253 -0.4756
  236MOL0     H31120   5.488   6.395   3.285 -0.0129  0.1219 -0.7451
  236MOL0     H31121   5.647   6.434   3.341 -1.8283  1.8489  0.3568
  236MOL0     H31122   5.626   6.276   3.532  0.6572  0.8735 -2.0696
  236MOL0     H31123   5.486   6.205   3.467 -0.7145  0.1642 -0.1354
  236MOL0     H31124   5.496   6.468   3.594  0.4056 -0.9228  0.3727
  236MOL0     H31125   5.344   6.416   3.518  0.0766  0.7601 -0.8267
  236MOL0     H31126   5.344   6.368   3.762 -0.0103 -0.8164  0.0947
  236MOL0     H31127   5.470   6.250   3.747 -0.0203 -0.4997 -1.7369
  236MOL0     H31128   5.350   6.109   3.602 -1.5960 -1.8522  0.8972
  236MOL0     H31129   5.220   6.225   3.572 -0.3918 -2.1951  0.3883
  236MOL0     H31130   5.119   6.218   3.773 -2.2347 -1.9650 -3.7345
  236MOL0     H31131   5.151   6.045   3.734  1.4673 -0.6538  0.4135
  236MOL0     H31132   5.230   6.088   3.980 -2.3941  3.2381 -0.1267
  236MOL0     H31133   5.332   6.213   3.926 -1.0137  1.1939  0.7190
  236MOL0     H31134   5.924   6.027   3.417 -3.3241  1.9746 -0.0653
  236MOL0     H31135   6.143   5.973   3.323 -1.6139 -0.7174  0.7368
  236MOL0     H31136   6.437   6.248   2.770 -2.0878 -1.5088 -0.3819
  236MOL0     H31137   6.657   6.174   2.675  3.6058 -1.5810  0.6290
  236MOL0     H31138   7.718   6.306   3.942 -0.1728 -1.4986 -0.2753
  236MOL0     H31139   7.541   6.473   4.002 -1.2591 -2.1955  1.0217
  236MOL0     H31140   6.985   6.564   3.914 -0.8767 -0.3509 -2.1489
  236MOL0     H31141   6.855   6.763   3.985  1.0725  0.0228  1.4300
  236MOL0     H31142   6.772   6.941   3.796  2.1681  0.9967  0.4344
  236MOL0     H31143   6.798   7.107   3.822 -2.0450 -0.5477 -1.4528
  236MOL0     H31144   6.589   7.051   3.919 -1.0772  1.7471  2.2655
  236MOL0     H31145   6.648   6.928   4.020  0.5842 -0.9098  0.4221
  236MOL0     H31146   6.760   7.076   4.164  3.8869  3.1214 -1.1128
  236MOL0     H31147   6.605   7.146   4.135 -1.3267 -1.4015 -1.1473
  236MOL0     H31148   6.764   7.330   4.120 -1.7835  0.3566 -0.1999
  236MOL0     H31149   6.861   7.244   3.997  1.2292 -0.9475  2.2905
  236MOL0     H31150   6.552   7.422   3.784 -2.0131 -2.2913  0.1603
  236MOL0     H31151   7.159   7.018   3.836 -0.9713  1.1365 -0.3310
  236MOL0     H31152   7.305   6.825   3.779  0.3738 -1.7993 -0.7163
  237MOL0     O31153   4.674   5.539   4.492 -0.2301  0.0557  0.4665
  237MOL0     C31154   4.691   5.643   4.557  0.5538 -0.8617 -0.0767
  237MOL0     O31155   4.798   5.735   4.543  0.4028 -0.3509 -0.5519
  237MOL0     C31156   4.882   5.733   4.424  0.2917  0.2481 -0.2009
  237MOL0     C31157   4.962   5.832   4.422  0.2063 -0.8200 -0.1700
  237MOL0     C31158   5.069   5.846   4.340 -0.3505 -0.4681  0.4736
  237MOL0     C31159   5.085   5.759   4.233  0.1008 -0.6525  0.7269
  237MOL0     O31160   5.196   5.802   4.157 -0.0182 -0.6593 -0.1661
  237MOL0     C31161   5.226   5.713   4.048 -0.1711 -0.8083 -0.1378
  237MOL0     C31162   5.318   5.600   4.097 -0.3350  0.6758 -0.5311
  237MOL0     C31163   5.469   5.622   4.054  0.7565 -0.7376  0.7276
  237MOL0     C31164   5.560   5.536   4.142  0.1123 -0.4686  0.4420
  237MOL0     C31165   5.706   5.546   4.068  0.1009  0.1768  0.6997
  237MOL0     C31166   5.828   5.496   4.138  0.5083  0.5321  0.3589
  237MOL0     C31167   5.952   5.453   4.052  0.0352 -0.1069 -0.1835
  237MOL0     C31168   6.073   5.400   4.142 -0.9410  0.5568 -0.6318
  237MOL0     N31169   6.194   5.373   4.061 -0.1962 -0.4972  0.1891
  237MOL0     C31170   6.307   5.306   4.097 -0.3718  0.5169  0.4216
  237MOL0     C31171   6.397   5.324   3.997  0.8466  0.4031  0.0093
  237MOL0     C31172   6.541   5.290   4.014  0.0439 -0.2974 -0.2197
  237MOL0     C31173   6.593   5.245   3.881 -0.4904  0.2458 -0.0693
  237MOL0     C31174   6.736   5.218   3.908 -0.2211 -0.3979  0.0440
  237MOL0     C31175   6.815   5.188   3.775 -0.7013  1.2624 -0.6252
  237MOL0     O31176   6.953   5.170   3.802 -0.2137  0.0845  0.0932
  237MOL0     C31177   7.024   5.136   3.682 -1.1301  0.0631  1.0673
  237MOL0     C31178   7.160   5.178   3.691 -0.0861 -0.0743  0.2885
  237MOL0     C31179   7.251   5.148   3.587  0.4143  0.6703 -0.1303
  237MOL0     C31180   7.208   5.098   3.473  1.0291  0.9212  0.5131
  237MOL0     C31181   7.304   5.078   3.364 -0.1164  0.4133  0.2718
  237MOL0     O31182   7.243   5.036   3.239 -0.3042 -0.5280 -0.0480
  237MOL0     C31183   7.302   5.019   3.121 -0.7799 -0.5472  0.4419
  237MOL0     C31184   7.442   5.017   3.094 -0.3333  0.0291 -0.4197
  237MOL0     C31185   7.480   5.007   2.960 -1.1403 -1.0953  0.3917
  237MOL0     C31186   7.388   5.004   2.853 -1.5018 -0.9115 -0.3991
  237MOL0     O31187   7.434   4.982   2.734 -0.5493  0.0456  0.2381
  237MOL0     C31188   7.523   5.087   2.665  0.4347 -0.1524  0.1370
  237MOL0     C31189   7.433   5.167   2.568 -0.8656 -0.3206 -0.4434
  237MOL0     C31190   7.515   5.264   2.475  0.3220 -0.1892 -0.4822
  237MOL0     C31191   7.418   5.322   2.387 -0.8534 -0.4252  0.1582
  237MOL0     C31192   7.411   5.240   2.256 -0.0147 -0.6918 -0.2014
  237MOL0     C31193   7.311   5.283   2.148 -0.9285  0.8959  0.0096
  237MOL0     C31194   7.301   5.177   2.040  0.0742 -0.0298  0.0458
  237MOL0     C31195   7.210   5.242   1.924 -0.8333  0.4339  0.5318
  237MOL0    Cl31196   7.283   5.390   1.838  0.7665  0.0528 -0.0454
  237MOL0     C31197   7.255   4.992   2.881 -0.4626 -1.0257  0.0244
  237MOL0     C31198   7.213   5.004   3.016  0.7222  0.9988 -0.4568
  237MOL0     O31199   7.421   5.095   3.390 -0.2887  0.1710 -0.8021
  237MOL0     C31200   7.069   5.057   3.453 -0.7488 -0.6299 -0.0382
  237MOL0     C31201   6.984   5.078   3.562 -0.4030 -0.3730  0.4730
  237MOL0     N31202   6.333   5.394   3.901 -0.4377  0.1978 -0.0504
  237MOL0     N31203   6.218   5.437   3.947 -0.4127  0.0844  0.5238
  237MOL0     C31204   4.993   5.655   4.212  1.1749 -0.0031  1.2364
  237MOL0     C31205   4.889   5.641   4.313 -1.0335 -0.2743  0.7358
  237MOL0     C31206   4.582   5.687   4.640  1.0466 -0.3020 -0.0100
  237MOL0     C31207   4.543   5.824   4.649 -0.6437 -0.0209 -0.5976
  237MOL0     C31208   4.438   5.860   4.732 -0.3468 -0.6502  0.9259
  237MOL0     C31209   4.372   5.761   4.803 -0.2616  0.1880  1.4888
  237MOL0     O31210   4.261   5.783   4.884  0.5776 -0.4419  1.0130
  237MOL0     C31211   4.153   5.838   4.798 -0.3364  0.4076  0.0663
  237MOL0     C31212   4.016   5.837   4.872  0.6101  0.7344 -0.0549
  237MOL0     C31213   3.960   5.693   4.907 -0.8143 -0.2340  0.9779
  237MOL0     C31214   3.824   5.697   4.972 -0.2935  0.1055  0.0734
  237MOL0     C31215   3.709   5.739   4.887  0.9503  0.5555  0.0856
  237MOL0     C31216   3.605   5.777   4.828 -0.7140 -0.0481  0.2932
  237MOL0     C31217   4.396   5.630   4.776  0.2192 -0.8444 -0.5395
  237MOL0     C31218   4.501   5.589   4.696 -0.2977 -0.4745  0.1954
  237MOL0     H31219   4.956   5.909   4.499  0.5006  0.4193 -1.3501
  237MOL0     H31220   5.141   5.928   4.345  1.0959 -1.5732 -1.1116
  237MOL0     H31221   5.280   5.762   3.966  1.1551  1.7791  2.1270
  237MOL0     H31222   5.132   5.679   4.002  0.3006  0.7660 -2.4549
  237MOL0     H31223   5.276   5.504   4.065 -1.6000  1.0576 -0.0868
  237MOL0     H31224   5.309   5.593   4.206 -1.6571  1.5467 -0.5646
  237MOL0     H31225   5.490   5.729   4.068 -4.7267  0.4759  1.8386
  237MOL0     H31226   5.486   5.597   3.949  2.0253 -0.0831  0.7522
  237MOL0     H31227   5.576   5.575   4.243 -1.1593  1.8050 -0.1498
  237MOL0     H31228   5.530   5.431   4.143 -1.1660 -0.1478 -0.5273
  237MOL0     H31229   5.729   5.646   4.030 -2.1113 -0.3812 -2.5136
  237MOL0     H31230   5.695   5.489   3.975 -1.5794  2.0221 -0.3191
  237MOL0     H31231   5.791   5.408   4.192 -0.2672  0.7277  0.1596
  237MOL0     H31232   5.867   5.572   4.206  1.8225  2.5680 -2.4913
  237MOL0     H31233   5.926   5.372   3.984  0.5549  0.6551 -1.3229
  237MOL0     H31234   5.988   5.538   3.993  0.9862  0.8357  1.6534
  237MOL0     H31235   6.048   5.305   4.191  1.7858  0.2100  0.2795
  237MOL0     H31236   6.087   5.473   4.223  1.1525 -0.1785 -0.2791
  237MOL0     H31237   6.322   5.239   4.182 -2.2010  0.0992  0.4501
  237MOL0     H31238   6.550   5.207   4.085  2.2846 -0.7211 -0.9127
  237MOL0     H31239   6.614   5.369   4.033  1.4744 -1.7122  0.4789
  237MOL0     H31240   6.579   5.320   3.803  0.7458  0.5585 -0.0136
  237MOL0     H31241   6.540   5.154   3.851 -1.4354  1.4792 -2.4011
  237MOL0     H31242   6.781   5.309   3.948 -1.4026  0.6266 -0.8848
  237MOL0     H31243   6.746   5.134   3.978 -0.4997 -1.3169 -0.9897
  237MOL0     H31244   6.792   5.269   3.705 -0.9865  0.4123 -1.5513
  237MOL0     H31245   6.787   5.088   3.741  1.5298 -1.8482  5.3063
  237MOL0     H31246   7.192   5.224   3.784  0.2929  0.1777  0.0324
  237MOL0     H31247   7.349   5.192   3.602  1.7222 -1.7536 -1.1271
  237MOL0     H31248   7.520   5.026   3.169  2.3455  1.0897 -3.1285
  237MOL0     H31249   7.583   4.978   2.942 -1.9154 -2.2219 -2.8588
  237MOL0     H31250   7.599   5.031   2.609  1.4023 -0.5873  1.8184
  237MOL0     H31251   7.577   5.152   2.734  1.0111 -0.2671 -0.1959
  237MOL0     H31252   7.366   5.233   2.623 -0.2275  0.3751 -0.4922
  237MOL0     H31253   7.377   5.089   2.515  1.9427 -2.4115 -0.5675
  237MOL0     H31254   7.602   5.215   2.430  2.3927  0.8967  2.0772
  237MOL0     H31255   7.555   5.338   2.545 -0.8281  1.3071 -1.3531
  237MOL0     H31256   7.316   5.325   2.425 -0.7955 -0.1198  0.2985
  237MOL0     H31257   7.454   5.421   2.355 -0.6672 -1.3953 -2.9608
  237MOL0     H31258   7.374   5.142   2.289 -1.4442  0.5760  2.1976
  237MOL0     H31259   7.510   5.220   2.214  0.1517  1.1989 -0.7866
  237MOL0     H31260   7.361   5.375   2.117  1.3024  0.0719  0.9876
  237MOL0     H31261   7.213   5.294   2.195 -0.6470 -1.3090  1.2576
  237MOL0     H31262   7.403   5.153   2.011  0.3575 -1.9691  2.2673
  237MOL0     H31263   7.264   5.080   2.077  0.9514 -0.9834 -1.5176
  237MOL0     H31264   7.115   5.276   1.966 -1.5607 -0.9656  0.1141
  237MOL0     H31265   7.194   5.175   1.838  1.8163  0.2442  0.0979
  237MOL0     H31266   7.184   4.978   2.800  0.1573 -0.9703 -0.5366
  237MOL0     H31267   7.110   5.009   3.050  1.0744  3.6123  0.4922
  237MOL0     H31268   7.034   5.016   3.359 -0.2410 -0.3653 -0.3482
  237MOL0     H31269   6.883   5.042   3.547 -0.8331  1.4437 -1.4650
  237MOL0     H31270   5.000   5.586   4.129  4.0100  1.0489  0.4846
  237MOL0     H31271   4.822   5.556   4.305  0.3275 -1.3875  0.6492
  237MOL0     H31272   4.603   5.898   4.597  0.3808  0.6581  1.4347
  237MOL0     H31273   4.402   5.957   4.766 -0.7371 -0.4804  0.0455
  237MOL0     H31274   4.156   5.774   4.709  2.0017  1.0207 -0.3533
  237MOL0     H31275   4.169   5.938   4.758  1.4367  0.0587 -0.1395
  237MOL0     H31276   4.034   5.895   4.963 -0.7318  1.8790 -0.4829
  237MOL0     H31277   3.946   5.891   4.808  1.0999  2.4826  0.8259
  237MOL0     H31278   4.019   5.634   4.978  0.0907 -1.4650 -0.7386
  237MOL0     H31279   3.966   5.636   4.814  0.4729  0.7332  0.4373
  237MOL0     H31280   3.799   5.594   5.000  1.2849  0.0235  1.3230
  237MOL0     H31281   3.830   5.748   5.068 -1.4705  2.6662 -1.1035
  237MOL0     H31282   3.521   5.833   4.792  0.1732  0.9160 -0.3250
  237MOL0     H31283   4.323   5.558   4.813  1.1220 -1.3298  0.3457
  237MOL0     H31284   4.519   5.483   4.683  1.5790 -0.4245  1.8719
  238MOL0     O31285  10.889   1.999   8.822  0.2846  0.2404  0.7468
  238MOL0     C31286  10.967   2.049   8.900 -1.6284 -0.3889 -0.7068
  238MOL0     O31287  11.072   2.129   8.868 -0.3191  0.0400  0.3998
  238MOL0     C31288  11.089   2.153   8.735 -0.0507  0.0275  0.2316
  238MOL0     C31289  11.090   2.277   8.671 -0.6617 -0.2704  0.0970
  238MOL0     C31290  11.141   2.287   8.545  0.3642 -0.2768  0.5503
  238MOL0     C31291  11.182   2.185   8.466 -0.7749  0.5130  1.4539
  238MOL0     O31292  11.241   2.210   8.343 -1.3889 -0.2688 -0.4850
  238MOL0     C31293  11.151   2.214   8.226 -0.5497 -0.3099 -0.5690
  238MOL0     C31294  11.049   2.331   8.235  0.6558  0.2031  0.0867
  238MOL0     C31295  10.969   2.345   8.104  0.2899 -0.5160 -0.9587
  238MOL0     C31296  10.861   2.459   8.111  0.1450  0.6760 -0.1971
  238MOL0     C31297  10.745   2.425   8.017 -0.1334 -0.3711 -0.4649
  238MOL0     C31298  10.628   2.521   8.007  0.3080  0.0424  1.5312
  238MOL0     C31299  10.690   2.652   7.959  2.5243 -0.4243 -0.1336
  238MOL0     C31300  10.569   2.738   7.902  0.3434 -0.7649  0.5625
  238MOL0     N31301  10.609   2.863   7.837  0.2235  0.3786  0.9149
  238MOL0     C31302  10.700   2.958   7.887 -0.6491  0.6697 -0.4784
  238MOL0     C31303  10.730   3.032   7.776  0.2061 -0.2853 -0.3602
  238MOL0     C31304  10.834   3.137   7.763 -0.0554 -0.6891 -0.4175
  238MOL0     C31305  10.893   3.144   7.624  0.4287  0.1484  0.8986
  238MOL0     C31306  11.025   3.216   7.631 -0.4675 -0.1338 -0.0677
  238MOL0     C31307  11.085   3.254   7.495 -0.1645 -1.0270  0.0562
  238MOL0     O31308  11.139   3.142   7.412  1.0170  0.2723 -0.1177
  238MOL0     C31309  11.244   3.089   7.472 -0.9635 -0.3903  0.5636
  238MOL0     C31310  11.233   2.962   7.524  0.2584  0.6044  0.2415
  238MOL0     C31311  11.341   2.897   7.588  0.0731  0.1252 -0.0509
  238MOL0     C31312  11.467   2.952   7.595  0.9396  0.8338 -0.8928
  238MOL0     C31313  11.581   2.878   7.654 -0.4971 -0.6729  0.4895
  238MOL0     O31314  11.655   2.962   7.734 -0.7128  0.7468  0.4923
  238MOL0     C31315  11.771   2.925   7.796  0.5036 -0.2714 -0.8983
  238MOL0     C31316  11.874   2.836   7.749 -1.1192  0.6456 -0.2763
  238MOL0     C31317  11.981   2.802   7.829 -0.3004  1.1209 -0.4678
  238MOL0     C31318  12.005   2.862   7.950  0.0725  0.0964 -0.4362
  238MOL0     O31319  12.112   2.817   8.026  0.6064 -0.4099  0.1399
  238MOL0     C31320  12.144   2.890   8.154  0.5322  0.4645 -0.4247
  238MOL0     C31321  12.279   2.840   8.208  0.1498  0.4380 -0.4202
  238MOL0     C31322  12.299   2.687   8.221 -0.1731  0.3255 -0.6489
  238MOL0     C31323  12.201   2.611   8.307  0.2938  0.0250  0.1595
  238MOL0     C31324  12.168   2.664   8.445 -0.8205  0.0846 -0.6627
  238MOL0     C31325  12.273   2.624   8.553  0.0271 -0.9218 -0.4290
  238MOL0     C31326  12.221   2.646   8.699 -0.3115  0.0759 -0.7041
  238MOL0     C31327  12.177   2.519   8.766 -0.4883 -0.0952 -0.9601
  238MOL0    Cl31328  12.146   2.558   8.944 -0.0014  0.1536  0.3747
  238MOL0     C31329  11.909   2.953   7.999  0.1954 -0.1029 -0.4247
  238MOL0     C31330  11.799   2.984   7.921 -0.1658 -0.9543 -0.9530
  238MOL0     O31331  11.588   2.759   7.648  0.2638 -0.9099  0.3654
  238MOL0     C31332  11.472   3.089   7.562  0.0259 -0.0338  0.6740
  238MOL0     C31333  11.370   3.164   7.508 -0.1822  1.1116  0.2893
  238MOL0     N31334  10.659   2.983   7.662 -0.6130  0.0161 -0.1749
  238MOL0     N31335  10.585   2.893   7.703 -0.6149  1.3708 -0.4198
  238MOL0     C31336  11.187   2.065   8.520  0.7360  1.3576 -1.0532
  238MOL0     C31337  11.139   2.040   8.653  0.2877 -0.3322  0.4619
  238MOL0     C31338  10.958   2.002   9.040 -0.1214  0.0166  0.8623
  238MOL0     C31339  10.846   1.942   9.090  0.2755  0.2637 -0.5383
  238MOL0     C31340  10.828   1.903   9.228  0.1834 -0.1200  0.3466
  238MOL0     C31341  10.940   1.920   9.310 -0.2164 -1.6864  0.6012
  238MOL0     O31342  10.931   1.868   9.438 -0.0432  0.3721  0.7501
  238MOL0     C31343  11.036   1.897   9.537  0.3662  0.3118  0.6686
  238MOL0     C31344  10.981   1.860   9.678  0.5479 -0.1512  0.9174
  238MOL0     C31345  10.835   1.897   9.698 -0.0941  0.0834  0.7755
  238MOL0     C31346  10.779   1.813   9.816  0.3844 -0.0625  0.5907
  238MOL0     C31347  10.659   1.865   9.870 -0.6794 -0.0237  0.0903
  238MOL0     C31348  10.556   1.894   9.920  0.2608 -0.0007 -0.2559
  238MOL0     C31349  11.054   1.979   9.268 -0.0237  0.3524  0.3068
  238MOL0     C31350  11.064   2.022   9.133  0.3198 -1.6687 -0.1629
  238MOL0     H31351  11.086   2.369   8.728 -0.5161  1.0731 -1.9817
  238MOL0     H31352  11.162   2.384   8.502 -0.9792 -0.4203 -0.4974
  238MOL0     H31353  11.098   2.122   8.202 -2.0549 -0.6701  3.4124
  238MOL0     H31354  11.216   2.239   8.142 -0.0268 -1.8536 -0.6510
  238MOL0     H31355  11.094   2.422   8.275 -0.8299 -0.0607  2.5124
  238MOL0     H31356  10.978   2.317   8.317  0.6864  2.6659  0.6120
  238MOL0     H31357  10.923   2.247   8.084  0.5979 -0.7327 -0.6105
  238MOL0     H31358  11.029   2.376   8.018  0.0593  3.8896  0.2658
  238MOL0     H31359  10.824   2.472   8.213  1.9008 -3.3842  1.1339
  238MOL0     H31360  10.913   2.548   8.073  1.1546  0.2838  0.2353
  238MOL0     H31361  10.700   2.329   8.043 -0.6190  0.5480  2.5137
  238MOL0     H31362  10.802   2.427   7.923  2.2745  2.0229  0.8931
  238MOL0     H31363  10.566   2.535   8.096  0.1356 -0.0122  1.4206
  238MOL0     H31364  10.563   2.487   7.927  0.5340 -0.4767  1.5612
  238MOL0     H31365  10.735   2.706   8.043 -0.6668  1.5587  0.4960
  238MOL0     H31366  10.768   2.642   7.884  1.4328  0.8288 -1.4913
  238MOL0     H31367  10.497   2.762   7.980 -0.5091 -2.8477  0.4866
  238MOL0     H31368  10.515   2.682   7.824  0.6656  2.0489 -1.8725
  238MOL0     H31369  10.743   2.960   7.986 -0.3443  1.7422 -0.6148
  238MOL0     H31370  10.909   3.126   7.843  1.0830  3.4714 -0.6586
  238MOL0     H31371  10.803   3.235   7.802 -1.1481  0.4355 -3.8260
  238MOL0     H31372  10.822   3.181   7.550 -0.0364 -1.9474  0.2269
  238MOL0     H31373  10.910   3.039   7.599  2.8697  0.4511  1.0913
  238MOL0     H31374  11.011   3.308   7.689 -2.4712 -1.1514  1.1725
  238MOL0     H31375  11.101   3.157   7.682 -1.3293 -0.0540  1.3758
  238MOL0     H31376  11.163   3.328   7.517 -0.0926 -1.2798  0.6878
  238MOL0     H31377  11.006   3.310   7.444 -2.4359 -2.8700  1.3429
  238MOL0     H31378  11.141   2.911   7.497  0.4822 -0.2868  1.1102
  238MOL0     H31379  11.327   2.800   7.634 -0.3030 -0.2841 -1.0234
  238MOL0     H31380  11.872   2.795   7.649  2.6619 -1.0001  0.1621
  238MOL0     H31381  12.042   2.714   7.807 -2.1473 -1.4158  3.3538
  238MOL0     H31382  12.063   2.860   8.221  1.4453 -0.6799  0.2053
  238MOL0     H31383  12.149   2.999   8.150  1.7796  0.4434  0.1090
  238MOL0     H31384  12.299   2.884   8.306  0.1217  3.7263 -1.7773
  238MOL0     H31385  12.360   2.885   8.150  4.0275 -0.0081  4.0773
  238MOL0     H31386  12.397   2.658   8.257 -1.4635 -2.8961  0.6314
  238MOL0     H31387  12.313   2.649   8.120  4.9245  2.3658 -0.9883
  238MOL0     H31388  12.106   2.615   8.254 -0.4609  1.2601  1.5393
  238MOL0     H31389  12.225   2.505   8.316  0.5566 -0.1036 -1.6706
  238MOL0     H31390  12.068   2.631   8.474 -1.0800  0.3506 -1.2337
  238MOL0     H31391  12.153   2.772   8.435  1.8689  0.4367 -1.9004
  238MOL0     H31392  12.351   2.702   8.546 -0.6059 -0.0273  1.6501
  238MOL0     H31393  12.317   2.529   8.522  1.7310 -0.8501  1.5414
  238MOL0     H31394  12.288   2.701   8.766 -1.2994  0.2316  0.1950
  238MOL0     H31395  12.128   2.704   8.697 -0.7141 -0.4844  0.6400
  238MOL0     H31396  12.261   2.448   8.766 -0.7972 -0.4637 -0.8915
  238MOL0     H31397  12.095   2.482   8.705  0.5217 -1.0565 -1.7870
  238MOL0     H31398  11.914   2.993   8.099  1.5034 -1.5589  0.1390
  238MOL0     H31399  11.722   3.050   7.960  3.2494  1.8721  1.7045
  238MOL0     H31400  11.559   3.147   7.592 -0.2625  1.5176 -1.2638
  238MOL0     H31401  11.379   3.267   7.473  0.5472  0.3270 -1.9867
  238MOL0     H31402  11.235   1.982   8.468 -3.1975 -0.7484 -1.7807
  238MOL0     H31403  11.140   1.942   8.698 -3.7484 -0.1868  1.2322
  238MOL0     H31404  10.762   1.913   9.028 -0.8300  0.2297  0.9100
  238MOL0     H31405  10.730   1.873   9.265 -0.4688  2.2064  0.6597
  238MOL0     H31406  11.062   2.002   9.553  0.7243  0.0617  1.8663
  238MOL0     H31407  11.128   1.838   9.531  0.5020  0.4799  1.0867
  238MOL0     H31408  10.989   1.752   9.692  3.1245 -0.1285  0.2102
  238MOL0     H31409  11.043   1.913   9.751  1.0790  3.4368 -1.8445
  238MOL0     H31410  10.769   1.862   9.618 -1.0388  0.2769  1.4439
  238MOL0     H31411  10.817   2.005   9.704  1.3923  0.5010 -1.2599
  238MOL0     H31412  10.765   1.714   9.772  0.6227  0.2755 -0.2570
  238MOL0     H31413  10.857   1.802   9.893  0.6324  2.7767  0.8559
  238MOL0     H31414  10.470   1.938   9.967  1.1275  2.2927 -0.6685
  238MOL0     H31415  11.135   2.014   9.331  1.0370  1.0150 -1.3636
  238MOL0     H31416  11.144   2.090   9.108  1.1809 -2.2195  1.0007
  239MOL0     O31417   5.340   2.286   5.993  0.1315 -0.3852  0.1886
  239MOL0     C31418   5.387   2.368   5.915 -0.3933  0.0983  0.3723
  239MOL0     O31419   5.515   2.376   5.868 -0.1243  0.0207 -0.1156
  239MOL0     C31420   5.612   2.284   5.881 -0.0031  0.1053 -0.1592
  239MOL0     C31421   5.741   2.321   5.835 -0.3950  0.0395  0.2434
  239MOL0     C31422   5.855   2.251   5.869  0.6528  1.1287  1.0154
  239MOL0     C31423   5.858   2.116   5.922  0.8813 -0.6177 -0.6167
  239MOL0     O31424   5.967   2.043   5.963  0.8447 -0.3965  0.9348
  239MOL0     C31425   6.088   2.094   5.915 -1.1338  0.3925  0.4273
  239MOL0     C31426   6.212   2.005   5.953 -0.5830  0.1162 -0.0306
  239MOL0     C31427   6.346   2.083   5.930 -0.1528 -0.2630  0.3698
  239MOL0     C31428   6.469   2.025   5.996  0.0535 -0.1002 -0.7018
  239MOL0     C31429   6.597   2.059   5.931 -0.7487 -0.4141 -0.7535
  239MOL0     C31430   6.622   2.209   5.937 -0.2748 -0.7750 -0.4414
  239MOL0     C31431   6.764   2.254   5.891 -0.0582 -0.0286 -0.0654
  239MOL0     C31432   6.781   2.407   5.869  0.4853 -0.2683  0.5153
  239MOL0     N31433   6.737   2.507   5.972  0.0435  0.6790  0.3944
  239MOL0     C31434   6.787   2.516   6.106  0.3828  0.2449  0.4629
  239MOL0     C31435   6.711   2.607   6.163  0.5439  0.0682  0.7271
  239MOL0     C31436   6.724   2.658   6.300 -0.7750  0.6419 -0.4195
  239MOL0     C31437   6.675   2.803   6.315 -0.5134  0.2578 -0.4540
  239MOL0     C31438   6.525   2.800   6.354 -0.3848 -0.5187  0.3498
  239MOL0     C31439   6.478   2.944   6.374  0.2220 -0.4261  0.4023
  239MOL0     O31440   6.485   3.006   6.242  0.3124 -0.1312 -0.3451
  239MOL0     C31441   6.435   3.133   6.223  0.3821  0.1896  0.4792
  239MOL0     C31442   6.376   3.224   6.317  0.2222 -0.0077 -0.0844
  239MOL0     C31443   6.356   3.354   6.283  0.2018  0.4749  0.1192
  239MOL0     C31444   6.380   3.394   6.151 -0.1322 -0.0225  0.4558
  239MOL0     C31445   6.347   3.538   6.110 -0.3244  0.2964  0.0248
  239MOL0     O31446   6.274   3.609   6.205 -0.2818  0.2582  0.4073
  239MOL0     C31447   6.206   3.716   6.168 -0.0267  0.2933  0.0819
  239MOL0     C31448   6.254   3.843   6.200  0.3616  0.3561 -0.2984
  239MOL0     C31449   6.185   3.959   6.176 -0.8073  0.0087 -0.0024
  239MOL0     C31450   6.053   3.947   6.133  0.3239  0.1873  0.7676
  239MOL0     O31451   5.964   4.053   6.122  0.3678 -0.2882 -0.2155
  239MOL0     C31452   5.878   4.083   6.234  0.5869 -0.1074 -0.4155
  239MOL0     C31453   5.941   4.126   6.363  0.0826  0.8741  0.2769
  239MOL0     C31454   6.002   4.260   6.349  0.8465  0.0314 -0.5232
  239MOL0     C31455   6.104   4.276   6.470  0.2419  0.3517 -0.5777
  239MOL0     C31456   6.040   4.287   6.611  0.8277  0.0023 -0.1604
  239MOL0     C31457   6.155   4.270   6.712  0.9090 -0.0498 -0.3082
  239MOL0     C31458   6.126   4.149   6.806  0.7946 -0.6037 -0.2161
  239MOL0     C31459   5.986   4.151   6.868 -0.2901  0.1803 -0.2233
  239MOL0    Cl31460   5.989   4.065   7.014 -0.0921  0.3673  0.2143
  239MOL0     C31461   6.004   3.821   6.093  0.5948  0.0516  0.0364
  239MOL0     C31462   6.083   3.704   6.114  0.1336 -0.4456 -0.2684
  239MOL0     O31463   6.370   3.575   5.996  0.2499 -0.9960 -0.6819
  239MOL0     C31464   6.431   3.304   6.054 -0.3317  0.0532 -0.2160
  239MOL0     C31465   6.468   3.176   6.091 -0.1219  0.1235  0.1555
  239MOL0     N31466   6.619   2.656   6.070 -0.1994  0.2064 -0.5093
  239MOL0     N31467   6.631   2.596   5.959  0.2415  0.0965  0.1384
  239MOL0     C31468   5.726   2.069   5.954 -1.0373  0.7101 -0.7453
  239MOL0     C31469   5.605   2.157   5.932  0.1096  0.4513 -0.8462
  239MOL0     C31470   5.289   2.476   5.878 -0.2503  0.7394  0.7729
  239MOL0     C31471   5.326   2.579   5.784 -0.2274 -0.0531 -0.1214
  239MOL0     C31472   5.236   2.682   5.752 -1.2463 -0.1739 -0.1312
  239MOL0     C31473   5.103   2.691   5.805 -0.1019 -0.3196  0.1616
  239MOL0     O31474   5.026   2.797   5.767 -0.1521 -0.1967 -0.2823
  239MOL0     C31475   4.903   2.818   5.820  0.2990 -0.0694  0.0566
  239MOL0     C31476   4.837   2.938   5.752  0.3774 -0.7575 -0.4063
  239MOL0     C31477   4.686   2.960   5.793  0.3316  1.0047  0.1361
  239MOL0     C31478   4.636   3.084   5.729 -0.2754 -0.6360 -0.2234
  239MOL0     C31479   4.491   3.083   5.752  0.1407  0.0517  1.0507
  239MOL0     C31480   4.370   3.074   5.782 -0.0155  0.7652  1.2907
  239MOL0     C31481   5.067   2.597   5.908  0.0722  0.5304  0.4733
  239MOL0     C31482   5.164   2.497   5.940 -0.4539 -0.5385  0.7237
  239MOL0     H31483   5.748   2.422   5.796 -1.9168 -0.6438 -1.9936
  239MOL0     H31484   5.944   2.309   5.846  1.2211 -0.3514 -0.8086
  239MOL0     H31485   6.097   2.199   5.942  1.8486  0.8015 -1.5927
  239MOL0     H31486   6.084   2.091   5.805  2.5757 -0.2504  0.1789
  239MOL0     H31487   6.205   1.916   5.890  0.8840 -2.0456  2.6793
  239MOL0     H31488   6.199   1.980   6.058  0.4897 -2.3209 -0.4280
  239MOL0     H31489   6.327   2.185   5.965 -0.3393 -0.5576  1.1438
  239MOL0     H31490   6.360   2.090   5.821 -0.1724 -3.1731  0.1095
  239MOL0     H31491   6.459   2.053   6.101 -3.0429  0.7517 -1.1066
  239MOL0     H31492   6.465   1.916   5.995  4.0347 -0.3858 -1.7972
  239MOL0     H31493   6.584   2.032   5.825 -1.6570 -1.5143 -0.3842
  239MOL0     H31494   6.679   2.004   5.977 -2.2100 -1.4372  0.7169
  239MOL0     H31495   6.600   2.252   6.035  1.6322  3.1704 -1.5400
  239MOL0     H31496   6.552   2.255   5.868  1.1989  0.5367 -1.1324
  239MOL0     H31497   6.836   2.220   5.967  1.1343  1.8289 -0.2922
  239MOL0     H31498   6.784   2.208   5.794  0.3436  0.0866 -0.0427
  239MOL0     H31499   6.744   2.431   5.769 -0.3149  1.7133  1.2331
  239MOL0     H31500   6.886   2.432   5.849  0.7236 -1.1835  0.6045
  239MOL0     H31501   6.876   2.485   6.160  3.8107  4.3230 -2.1149
  239MOL0     H31502   6.829   2.651   6.332 -1.1331 -1.1102  0.5054
  239MOL0     H31503   6.662   2.597   6.367  0.8502 -0.8106 -0.1537
  239MOL0     H31504   6.712   2.861   6.230 -2.5795  3.8123  0.8179
  239MOL0     H31505   6.728   2.851   6.398 -0.3109 -2.7599  1.3107
  239MOL0     H31506   6.464   2.752   6.276  1.7420 -0.9456 -1.1359
  239MOL0     H31507   6.523   2.749   6.451  0.9093  0.3878  0.8825
  239MOL0     H31508   6.543   2.993   6.448  0.0120 -0.2147  0.4466
  239MOL0     H31509   6.376   2.956   6.412  0.1669 -1.9855  0.8039
  239MOL0     H31510   6.363   3.201   6.422 -0.9268  1.3373  0.0985
  239MOL0     H31511   6.321   3.419   6.362  0.4257 -1.4798  1.9326
  239MOL0     H31512   6.354   3.848   6.242  2.6423 -1.5970 -4.8209
  239MOL0     H31513   6.224   4.049   6.221 -2.5478 -0.4954  2.6966
  239MOL0     H31514   5.809   4.002   6.260 -1.6655  1.1044 -2.2327
  239MOL0     H31515   5.813   4.163   6.200 -2.1415 -2.1267 -0.2734
  239MOL0     H31516   6.012   4.047   6.390 -1.1428  0.0799  1.2703
  239MOL0     H31517   5.863   4.139   6.438 -0.5170  0.5471 -0.2875
  239MOL0     H31518   5.926   4.338   6.343  0.1081 -0.6841 -0.7432
  239MOL0     H31519   6.055   4.258   6.254  1.9832 -5.0118 -0.0813
  239MOL0     H31520   6.171   4.191   6.483  2.7422  2.3794  0.7247
  239MOL0     H31521   6.153   4.373   6.461 -0.7992  0.9169 -0.3022
  239MOL0     H31522   5.956   4.219   6.623 -0.1739  1.0822 -0.8701
  239MOL0     H31523   6.002   4.390   6.614 -2.8029 -1.1403 -1.6124
  239MOL0     H31524   6.165   4.355   6.780 -1.0001  2.4117 -2.9059
  239MOL0     H31525   6.256   4.266   6.671  1.4475  0.6267  0.8946
  239MOL0     H31526   6.152   4.060   6.749  2.4115  1.2988 -2.6773
  239MOL0     H31527   6.205   4.152   6.883  1.6663  0.2406 -1.1090
  239MOL0     H31528   5.906   4.115   6.802 -1.1206 -0.8007  1.2537
  239MOL0     H31529   5.955   4.253   6.891  0.2016  0.4609 -0.7824
  239MOL0     H31530   5.907   3.805   6.046  2.2228 -1.3869 -3.0888
  239MOL0     H31531   6.049   3.603   6.093  4.5483 -1.7449 -2.6361
  239MOL0     H31532   6.451   3.337   5.952  0.1930  1.8855  0.4453
  239MOL0     H31533   6.512   3.113   6.014  1.2344  0.6700  0.4701
  239MOL0     H31534   5.726   1.969   5.996  0.2851 -0.1135 -2.5419
  239MOL0     H31535   5.511   2.113   5.965 -0.3390 -1.5237 -4.3060
  239MOL0     H31536   5.425   2.573   5.741  0.1319  0.0868  0.6814
  239MOL0     H31537   5.276   2.759   5.688 -0.0453  0.1353  0.9426
  239MOL0     H31538   4.907   2.832   5.929 -2.5254 -1.4304  0.4380
  239MOL0     H31539   4.859   2.720   5.799 -1.0301  1.1048 -3.3410
  239MOL0     H31540   4.880   3.036   5.773 -1.7730  0.3094 -0.6983
  239MOL0     H31541   4.839   2.925   5.643 -1.3994 -0.3546 -0.5174
  239MOL0     H31542   4.676   2.965   5.902  1.5061  1.3825  0.2376
  239MOL0     H31543   4.634   2.877   5.744 -1.4067  0.7050  2.3101
  239MOL0     H31544   4.681   3.170   5.780  0.9838 -1.9318  0.9217
  239MOL0     H31545   4.665   3.083   5.624  2.8220 -0.2918  0.5536
  239MOL0     H31546   4.268   3.044   5.795  1.1288 -4.2025  0.6075
  239MOL0     H31547   4.971   2.603   5.958  1.2798  2.7732  2.7421
  239MOL0     H31548   5.127   2.443   6.026  0.9730 -1.3575  0.8572
  240MOL0     O31549   3.442   9.912   3.723 -0.9525  0.2747 -0.5314
  240MOL0     C31550   3.455   9.902   3.845  0.2520  0.1599 -0.3577
  240MOL0     O31551   3.363   9.848   3.939  0.9950  0.3263 -0.3322
  240MOL0     C31552   3.246   9.802   3.895  0.2196 -0.4130 -0.6637
  240MOL0     C31553   3.225   9.727   3.782 -0.7923 -0.8331 -0.1867
  240MOL0     C31554   3.099   9.690   3.741  0.8445  0.7930 -0.5796
  240MOL0     C31555   2.984   9.718   3.821 -0.8975  0.0986 -0.1875
  240MOL0     O31556   2.866   9.663   3.788 -0.3355  0.2631  0.5388
  240MOL0     C31557   2.781   9.765   3.737  0.8200  0.1365 -0.8737
  240MOL0     C31558   2.673   9.699   3.642  0.8000 -0.5474 -0.1475
  240MOL0     C31559   2.573   9.810   3.599  0.1773 -0.6771 -0.1788
  240MOL0     C31560   2.466   9.747   3.509  0.6203 -0.4734 -0.2684
  240MOL0     C31561   2.363   9.848   3.445 -0.2684  0.8104  0.0401
  240MOL0     C31562   2.278   9.785   3.336  0.3301  0.4622 -1.0150
  240MOL0     C31563   2.343   9.729   3.211  0.0268  0.3804 -1.0059
  240MOL0     C31564   2.240   9.700   3.102  0.0212 -0.4062  0.8106
  240MOL0     N31565   2.296   9.617   2.985 -0.1748  0.6986  0.6750
  240MOL0     C31566   2.428   9.593   2.938 -0.0311 -0.5582 -0.2295
  240MOL0     C31567   2.420   9.505   2.842  0.3874 -0.2305 -0.3781
  240MOL0     C31568   2.526   9.448   2.747  0.4187  0.4555 -1.0973
  240MOL0     C31569   2.633   9.371   2.833 -0.0969 -0.1719  0.3897
  240MOL0     C31570   2.728   9.292   2.743  0.4658 -0.1288 -0.2503
  240MOL0     C31571   2.837   9.223   2.827 -0.6589 -0.4243  0.4394
  240MOL0     O31572   2.960   9.205   2.758  0.1576  0.5361 -0.1081
  240MOL0     C31573   3.041   9.297   2.707 -0.0348 -0.3927  0.2406
  240MOL0     C31574   3.146   9.240   2.630 -0.1705 -0.1835 -0.8208
  240MOL0     C31575   3.238   9.324   2.568 -0.7829  0.1207 -1.0006
  240MOL0     C31576   3.238   9.465   2.585  0.5347 -0.6763 -0.2524
  240MOL0     C31577   3.338   9.563   2.527  0.7303  0.5685  0.2669
  240MOL0     O31578   3.407   9.519   2.420 -0.8727 -0.6162  0.7625
  240MOL0     C31579   3.503   9.598   2.361 -0.5377  0.3030  0.0748
  240MOL0     C31580   3.599   9.660   2.433  0.5267 -0.1310  0.2443
  240MOL0     C31581   3.687   9.757   2.383 -0.8205  0.2760 -0.1923
  240MOL0     C31582   3.678   9.798   2.249  0.5648 -0.9417 -0.4375
  240MOL0     O31583   3.751   9.905   2.211 -0.8428 -0.4222  0.8295
  240MOL0     C31584   3.699   9.978   2.095  0.7512 -0.0627  0.8724
  240MOL0     C31585   3.794  10.087   2.034  0.1780 -1.4536 -0.4148
  240MOL0     C31586   3.755  10.159   1.905  0.7621 -1.0471 -0.2454
  240MOL0     C31587   3.828  10.290   1.882 -0.4001 -0.0001 -0.2081
  240MOL0     C31588   3.795  10.356   1.751  0.2145  0.3458  0.3179
  240MOL0     C31589   3.907  10.442   1.699 -0.0659 -0.5276  0.8816
  240MOL0     C31590   3.959  10.548   1.786 -0.6383 -0.3850 -0.1433
  240MOL0     C31591   3.938  10.691   1.747 -0.8406 -0.3115 -0.1343
  240MOL0    Cl31592   3.761  10.752   1.744 -0.1079  0.1953 -0.0252
  240MOL0     C31593   3.582   9.728   2.169 -0.0195 -0.1611  0.1576
  240MOL0     C31594   3.494   9.631   2.222 -0.7445  0.3125 -0.2830
  240MOL0     O31595   3.346   9.678   2.581  0.2986 -0.5371  0.1936
  240MOL0     C31596   3.143   9.520   2.678 -0.4580 -0.0398 -0.2264
  240MOL0     C31597   3.048   9.435   2.737 -0.5410 -0.2700  0.0597
  240MOL0     N31598   2.286   9.463   2.829  0.9022  0.3658 -0.7234
  240MOL0     N31599   2.215   9.534   2.915 -0.0269 -0.4462 -0.0276
  240MOL0     C31600   3.012   9.797   3.932  0.8455 -0.3217 -0.2115
  240MOL0     C31601   3.142   9.830   3.973 -0.2812 -0.3356  0.1382
  240MOL0     C31602   3.584   9.947   3.908  0.0084 -0.0410  1.2375
  240MOL0     C31603   3.691   9.983   3.816  0.5811 -0.0899  0.2151
  240MOL0     C31604   3.809  10.045   3.868  0.8143  0.5387 -0.5313
  240MOL0     C31605   3.824  10.058   4.005 -0.3662  0.0698 -0.3623
  240MOL0     O31606   3.930  10.121   4.064  0.7429  0.7059 -1.0295
  240MOL0     C31607   4.050  10.145   3.989 -0.7447 -1.3078 -0.3523
  240MOL0     C31608   4.163  10.173   4.085  0.2381  0.5205 -0.3775
  240MOL0     C31609   4.145  10.312   4.149  0.2893  0.5614 -0.3318
  240MOL0     C31610   4.234  10.319   4.277 -0.4104  0.2763  0.1390
  240MOL0     C31611   4.257  10.452   4.344 -0.7430  0.8822 -0.6504
  240MOL0     C31612   4.270  10.564   4.393  0.8504 -0.2085 -0.1810
  240MOL0     C31613   3.719  10.020   4.085  0.1032  0.2494  0.0959
  240MOL0     C31614   3.603   9.962   4.037 -0.1926  0.1544  0.1571
  240MOL0     H31615   3.310   9.698   3.720 -1.5490 -0.0305 -1.6530
  240MOL0     H31616   3.101   9.648   3.641  1.1393  0.6751 -0.5258
  240MOL0     H31617   2.834   9.839   3.676  1.1060 -0.1812 -1.0108
  240MOL0     H31618   2.735   9.819   3.820 -0.0998 -0.9462 -0.6549
  240MOL0     H31619   2.627   9.619   3.702  2.7530 -3.5148 -2.3331
  240MOL0     H31620   2.720   9.649   3.557  0.1825 -2.8447  0.7937
  240MOL0     H31621   2.622   9.898   3.555  0.7634 -0.3740  1.0398
  240MOL0     H31622   2.524   9.855   3.686 -0.6449  4.5795 -2.9348
  240MOL0     H31623   2.523   9.693   3.433  1.5158  0.2012 -0.1019
  240MOL0     H31624   2.416   9.673   3.572  0.8232 -0.3507  0.0386
  240MOL0     H31625   2.425   9.926   3.399  0.0376  0.6398  0.1616
  240MOL0     H31626   2.297   9.882   3.526  0.4836  0.3680  0.8628
  240MOL0     H31627   2.209   9.867   3.314 -0.0125  2.0251  4.4265
  240MOL0     H31628   2.210   9.714   3.383 -2.1380  3.8375  1.0223
  240MOL0     H31629   2.420   9.801   3.181  3.1813 -0.2585  4.2978
  240MOL0     H31630   2.399   9.638   3.236 -1.1239 -0.1408 -0.2184
  240MOL0     H31631   2.196   9.797   3.076  0.8954 -0.1611  0.2273
  240MOL0     H31632   2.158   9.644   3.149  0.4553 -2.6158 -0.9097
  240MOL0     H31633   2.521   9.637   2.972  0.9756 -3.3929  0.9493
  240MOL0     H31634   2.586   9.522   2.694  0.2176  1.6783  0.3237
  240MOL0     H31635   2.480   9.374   2.681  1.1743 -2.3848  1.3481
  240MOL0     H31636   2.570   9.305   2.894 -2.0704 -0.5131 -1.8774
  240MOL0     H31637   2.686   9.436   2.904 -1.0096  0.3949  0.5780
  240MOL0     H31638   2.682   9.216   2.680 -0.3391  1.6596 -1.8955
  240MOL0     H31639   2.774   9.367   2.678 -1.5901  2.4710  1.0876
  240MOL0     H31640   2.795   9.127   2.858 -2.0822  0.0448  0.0050
  240MOL0     H31641   2.858   9.265   2.926  1.8497 -0.3915 -0.0363
  240MOL0     H31642   3.150   9.134   2.606 -0.6574 -0.8661  1.7659
  240MOL0     H31643   3.324   9.278   2.521  0.7107  2.0574 -0.3122
  240MOL0     H31644   3.603   9.628   2.537  0.0210  0.5006  0.4674
  240MOL0     H31645   3.752   9.812   2.451 -2.5622  4.8513 -1.8467
  240MOL0     H31646   3.602  10.020   2.123 -0.2627  0.7175 -3.0875
  240MOL0     H31647   3.679   9.923   2.002  1.6829  5.3799 -3.0166
  240MOL0     H31648   3.884  10.032   2.006  0.2655 -1.0148 -1.0184
  240MOL0     H31649   3.812  10.169   2.105  2.2175 -2.2857  0.0777
  240MOL0     H31650   3.650  10.189   1.915  1.5317  2.1493 -0.7140
  240MOL0     H31651   3.776  10.087   1.825 -0.3414 -0.3197 -1.2210
  240MOL0     H31652   3.798  10.363   1.958 -0.8917  0.0737 -0.4661
  240MOL0     H31653   3.936  10.270   1.881 -0.2647  0.6700 -1.8582
  240MOL0     H31654   3.714  10.425   1.778  0.1145 -0.0810  1.1448
  240MOL0     H31655   3.764  10.284   1.675  1.8352 -0.1256  0.0642
  240MOL0     H31656   3.876  10.480   1.601 -0.0087 -2.8190 -0.0636
  240MOL0     H31657   3.985  10.371   1.672 -1.0020 -1.3957  0.3762
  240MOL0     H31658   3.920  10.533   1.887  1.0044  0.0540  0.5823
  240MOL0     H31659   4.068  10.538   1.782 -0.3333  2.4249 -1.2976
  240MOL0     H31660   3.983  10.703   1.647  3.6145 -0.6783  1.5760
  240MOL0     H31661   4.004  10.750   1.810  0.2559 -0.9639 -0.6328
  240MOL0     H31662   3.558   9.761   2.069 -0.3458 -1.9299 -0.3868
  240MOL0     H31663   3.424   9.579   2.157  0.1991  0.1261 -1.1750
  240MOL0     H31664   3.145   9.626   2.699 -1.2681 -0.1663  0.5478
  240MOL0     H31665   2.968   9.485   2.790 -0.3766  0.6328 -0.5177
  240MOL0     H31666   2.922   9.819   3.988  1.3664 -1.2531  1.0398
  240MOL0     H31667   3.149   9.879   4.070  0.3620 -0.3661  0.1049
  240MOL0     H31668   3.666   9.969   3.711  2.6811 -2.1784 -0.0988
  240MOL0     H31669   3.885  10.091   3.806  0.1368  1.5344 -0.6511
  240MOL0     H31670   4.041  10.232   3.922 -1.5270  0.7532  2.2670
  240MOL0     H31671   4.073  10.055   3.932 -0.6485 -0.8795 -1.0024
  240MOL0     H31672   4.158  10.097   4.164  0.3319  1.4995  0.5949
  240MOL0     H31673   4.252  10.155   4.025 -0.8140 -2.7375 -1.1674
  240MOL0     H31674   4.040  10.325   4.178 -0.4245 -4.0870  0.0493
  240MOL0     H31675   4.171  10.396   4.085 -0.9203 -0.6180 -2.5056
  240MOL0     H31676   4.202  10.257   4.360  1.4713 -0.6205  0.2622
  240MOL0     H31677   4.320  10.260   4.244 -0.6738 -0.7831  1.3203
  240MOL0     H31678   4.282  10.665   4.428 -0.3155 -0.3200  0.5840
  240MOL0     H31679   3.733  10.016   4.193  0.5952  1.3364  0.0758
  240MOL0     H31680   3.530   9.921   4.106  0.4321  1.4871  1.6808
  241MOL0     O31681  10.149   9.614   3.214  1.0959 -0.8832  0.3763
  241MOL0     C31682  10.221   9.695   3.258  0.2424 -1.0328 -0.4534
  241MOL0     O31683  10.196   9.835   3.271  0.3152  0.4614 -0.3743
  241MOL0     C31684  10.093   9.904   3.216 -0.1633  0.8755 -0.3632
  241MOL0     C31685  10.076  10.034   3.269  0.9024  0.4717  0.9477
  241MOL0     C31686   9.985  10.120   3.208 -0.0348 -0.1037 -0.4225
  241MOL0     C31687   9.896  10.079   3.116 -0.4931  0.8733 -0.0259
  241MOL0     O31688   9.811  10.165   3.066  0.3140 -0.3758  0.1570
  241MOL0     C31689   9.705  10.126   2.977 -1.1981 -0.5804  0.3725
  241MOL0     C31690   9.627  10.251   2.931  0.3796  0.1180 -0.8774
  241MOL0     C31691   9.561  10.244   2.790 -0.0469 -0.5783  0.2071
  241MOL0     C31692   9.491  10.371   2.725 -0.1490  0.1011  0.7183
  241MOL0     C31693   9.385  10.429   2.820 -0.8229 -0.3278 -1.0840
  241MOL0     C31694   9.271  10.503   2.756  0.7039 -0.4908  0.2633
  241MOL0     C31695   9.162  10.547   2.862  0.6148 -0.4600 -0.3655
  241MOL0     C31696   9.044  10.644   2.809 -0.0374  0.6073 -0.5473
  241MOL0     N31697   8.961  10.568   2.711  0.7252  0.1819  0.0143
  241MOL0     C31698   8.950  10.594   2.579 -0.4763 -1.6686 -0.7224
  241MOL0     C31699   8.865  10.507   2.534 -0.1205  1.1492 -0.1339
  241MOL0     C31700   8.816  10.498   2.394 -0.3939  0.4419 -0.1919
  241MOL0     C31701   8.908  10.416   2.297 -0.2151  0.1530  0.4666
  241MOL0     C31702   8.892  10.271   2.329 -0.8447  0.1933 -0.0746
  241MOL0     C31703   9.022  10.192   2.345 -0.9156 -0.0429  0.0977
  241MOL0     O31704   9.096  10.245   2.454 -0.7194 -0.4981  0.0473
  241MOL0     C31705   9.128  10.163   2.561  1.5868 -0.0248  0.0541
  241MOL0     C31706   9.047  10.164   2.684  0.1644 -0.3882  0.1856
  241MOL0     C31707   9.096  10.097   2.796  0.3294 -0.1656 -0.0419
  241MOL0     C31708   9.221  10.027   2.794 -0.5945  0.2251  0.3729
  241MOL0     C31709   9.277   9.958   2.914 -0.7499  0.0354 -0.0860
  241MOL0     O31710   9.213   9.979   3.032 -0.0797 -0.0356 -0.0726
  241MOL0     C31711   9.268   9.906   3.134 -0.5061 -0.2359  0.4864
  241MOL0     C31712   9.353   9.974   3.231 -0.8558 -0.0279  0.7683
  241MOL0     C31713   9.413   9.905   3.334 -0.5585 -0.4733  1.3262
  241MOL0     C31714   9.384   9.773   3.356  0.1157 -0.2447  0.5824
  241MOL0     O31715   9.423   9.700   3.460 -0.2288  0.4015 -0.9264
  241MOL0     C31716   9.488   9.780   3.565  0.1966 -0.5506 -0.6960
  241MOL0     C31717   9.504   9.704   3.697 -1.0337  0.2672 -0.4715
  241MOL0     C31718   9.629   9.740   3.772 -0.2556 -0.5706  0.3604
  241MOL0     C31719   9.657   9.667   3.900 -0.4184 -0.1516 -0.1062
  241MOL0     C31720   9.795   9.683   3.959  0.1139  0.4161 -0.8564
  241MOL0     C31721   9.793   9.823   4.035 -0.4738  0.4518  0.7031
  241MOL0     C31722   9.931   9.853   4.097  0.6216 -0.3183 -1.0588
  241MOL0     C31723   9.945   9.996   4.151  0.0096  0.0148  0.5241
  241MOL0    Cl31724  10.120  10.034   4.166 -0.3387 -0.2162  0.4099
  241MOL0     C31725   9.298   9.703   3.267 -0.5494 -0.0227  0.2181
  241MOL0     C31726   9.239   9.767   3.156 -0.2898 -0.1545  0.2547
  241MOL0     O31727   9.390   9.905   2.905 -0.6011  0.1493 -0.1476
  241MOL0     C31728   9.280  10.017   2.666  0.9581 -0.3063  0.2575
  241MOL0     C31729   9.241  10.093   2.551 -0.8563 -0.5196 -0.1016
  241MOL0     N31730   8.811  10.427   2.647 -1.2053  0.1017  0.6512
  241MOL0     N31731   8.878  10.463   2.746 -0.1055 -0.3410 -0.0249
  241MOL0     C31732   9.897   9.944   3.071 -0.8663  0.0000  0.1128
  241MOL0     C31733  10.001   9.864   3.115  0.3605 -0.0273 -0.0676
  241MOL0     C31734  10.352   9.636   3.296  0.3294 -0.9115  1.1155
  241MOL0     C31735  10.347   9.504   3.328 -0.0617  0.6622 -0.2574
  241MOL0     C31736  10.475   9.433   3.352  0.1367 -0.7888 -0.2473
  241MOL0     C31737  10.594   9.500   3.336  0.8283  0.1878 -0.2075
  241MOL0     O31738  10.716   9.443   3.319  1.1569  0.0928 -0.3122
  241MOL0     C31739  10.736   9.300   3.352 -0.5282 -0.0755  0.0373
  241MOL0     C31740  10.782   9.277   3.498 -0.7198 -0.2370  0.0488
  241MOL0     C31741  10.908   9.363   3.523 -0.0647 -0.0326  0.5347
  241MOL0     C31742  10.966   9.308   3.665  0.2274 -0.6560  0.5800
  241MOL0     C31743  11.084   9.383   3.713  0.0725 -0.5931 -0.0550
  241MOL0     C31744  11.191   9.438   3.740  0.0175  0.2772  0.0992
  241MOL0     C31745  10.595   9.636   3.304  0.2265 -0.0781 -0.6523
  241MOL0     C31746  10.470   9.704   3.288 -0.3463  0.2446 -0.5948
  241MOL0     H31747  10.142  10.061   3.351 -0.0335  3.3980  0.8316
  241MOL0     H31748   9.969  10.223   3.238  1.6935  0.1906 -0.3714
  241MOL0     H31749   9.644  10.045   3.019 -3.1704  1.0544  0.8432
  241MOL0     H31750   9.724  10.083   2.879 -1.7641  2.7400 -1.3293
  241MOL0     H31751   9.697  10.335   2.928  1.7480 -1.0005 -1.1101
  241MOL0     H31752   9.545  10.272   3.000  1.3214  0.4367  0.1782
  241MOL0     H31753   9.487  10.165   2.802 -0.3841 -0.1069  1.2765
  241MOL0     H31754   9.635  10.215   2.714  1.6939  1.1908  1.1458
  241MOL0     H31755   9.571  10.440   2.698  1.4023 -2.4254 -1.6641
  241MOL0     H31756   9.430  10.341   2.640  0.4127  0.0782  0.3232
  241MOL0     H31757   9.430  10.494   2.896 -1.2556 -1.8869  0.5767
  241MOL0     H31758   9.347  10.341   2.872  1.9629 -2.1084 -1.8112
  241MOL0     H31759   9.225  10.447   2.674  2.7004 -2.6303  0.5205
  241MOL0     H31760   9.298  10.595   2.704  1.2556 -0.7226  0.1305
  241MOL0     H31761   9.098  10.464   2.893 -5.5418  2.9931 -2.1189
  241MOL0     H31762   9.201  10.582   2.958  1.7592 -1.9040 -0.2697
  241MOL0     H31763   9.099  10.728   2.766 -0.4538  1.0438 -0.2334
  241MOL0     H31764   8.978  10.681   2.888  1.4212 -0.1916  1.1388
  241MOL0     H31765   8.999  10.654   2.504 -0.8027 -0.4163  0.0289
  241MOL0     H31766   8.803  10.598   2.351 -3.9129 -1.2054 -3.6396
  241MOL0     H31767   8.711  10.466   2.391  0.0838 -1.2391 -3.2742
  241MOL0     H31768   9.012  10.449   2.294 -0.1745 -0.0329 -0.5393
  241MOL0     H31769   8.879  10.442   2.195 -0.5858  1.3764  0.8723
  241MOL0     H31770   8.851  10.260   2.430  2.3061 -1.1087  1.1955
  241MOL0     H31771   8.823  10.224   2.258 -1.2469  0.1701  0.3239
  241MOL0     H31772   9.081  10.199   2.254  0.3609  0.1653  0.9127
  241MOL0     H31773   8.993  10.087   2.353 -4.1258  0.7216 -0.0258
  241MOL0     H31774   8.954  10.220   2.694 -0.1288 -0.1598 -2.9196
  241MOL0     H31775   9.031  10.085   2.883  3.1665 -0.1235  2.2318
  241MOL0     H31776   9.361  10.080   3.214 -0.4301  0.0789  1.5853
  241MOL0     H31777   9.485   9.957   3.395 -1.4119 -0.7578  2.6288
  241MOL0     H31778   9.431   9.870   3.590  0.2447 -0.4448 -0.9574
  241MOL0     H31779   9.588   9.816   3.538 -0.2236 -0.4167 -2.1721
  241MOL0     H31780   9.508   9.596   3.682  0.7952 -0.1412  2.2230
  241MOL0     H31781   9.414   9.721   3.758 -1.8403  2.8797 -2.2018
  241MOL0     H31782   9.596   9.839   3.803 -0.2780 -0.1402 -0.9994
  241MOL0     H31783   9.711   9.745   3.700 -0.0210 -0.5505  0.6223
  241MOL0     H31784   9.585   9.704   3.974 -1.0072 -0.9291 -0.2726
  241MOL0     H31785   9.626   9.563   3.885 -1.9261  0.5698 -2.8069
  241MOL0     H31786   9.880   9.679   3.890  1.5030 -0.0327  0.8248
  241MOL0     H31787   9.812   9.599   4.026 -2.0501  1.0106  0.5448
  241MOL0     H31788   9.704   9.828   4.099  0.4961 -2.3877  2.4802
  241MOL0     H31789   9.780   9.901   3.960  0.2257 -0.1018 -0.0085
  241MOL0     H31790   9.950   9.807   4.194 -2.2130  1.4659  0.4892
  241MOL0     H31791  10.000   9.829   4.016  0.2737  0.4241 -1.5892
  241MOL0     H31792   9.885  10.012   4.240 -2.7703 -1.1840 -1.0177
  241MOL0     H31793   9.908  10.070   4.080  1.1943 -1.8385 -2.2054
  241MOL0     H31794   9.279   9.598   3.285  2.2958 -0.8645 -1.0507
  241MOL0     H31795   9.186   9.720   3.074  4.5981 -1.9378 -2.2852
  241MOL0     H31796   9.366   9.953   2.651 -1.7905 -4.9151  2.2286
  241MOL0     H31797   9.305  10.095   2.463 -1.6325 -3.0171 -0.8131
  241MOL0     H31798   9.826   9.919   2.994 -1.7870 -0.5265  1.0999
  241MOL0     H31799  10.009   9.763   3.075  1.8076 -0.2742  0.7864
  241MOL0     H31800  10.249   9.457   3.331 -1.1987  2.9205 -0.1282
  241MOL0     H31801  10.466   9.332   3.390  2.6881 -0.3005  1.9679
  241MOL0     H31802  10.819   9.263   3.290 -3.3728 -0.0185 -4.2107
  241MOL0     H31803  10.647   9.237   3.341 -0.7784  0.2426  0.2613
  241MOL0     H31804  10.708   9.294   3.577  1.0762  2.1868  1.3430
  241MOL0     H31805  10.799   9.169   3.506  1.3824  0.1082  0.9397
  241MOL0     H31806  10.881   9.468   3.529  1.3196  0.4644 -1.0467
  241MOL0     H31807  10.994   9.347   3.457  1.0080 -1.9580  2.2438
  241MOL0     H31808  10.886   9.336   3.734  0.2031  0.9440 -0.0569
  241MOL0     H31809  10.976   9.199   3.654 -1.3716 -0.7788  0.0577
  241MOL0     H31810  11.281   9.485   3.775  0.1603  1.7075 -2.0425
  241MOL0     H31811  10.687   9.687   3.280  0.9471 -0.7671  0.5945
  241MOL0     H31812  10.482   9.801   3.241  2.0759 -0.3261 -1.3023
  242MOL0     O31813   3.944   3.135   8.370  0.0932  0.2999 -0.3756
  242MOL0     C31814   3.996   3.144   8.478  0.1663  0.8211  1.2908
  242MOL0     O31815   3.934   3.117   8.597 -0.1507  0.3406 -0.0303
  242MOL0     C31816   3.800   3.091   8.611  0.0147 -1.1275 -1.4004
  242MOL0     C31817   3.693   3.098   8.513 -0.6176  0.1138 -0.7683
  242MOL0     C31818   3.561   3.084   8.551  0.3602  0.0308 -0.0952
  242MOL0     C31819   3.536   3.060   8.688 -0.0406 -0.9727 -0.6422
  242MOL0     O31820   3.417   3.037   8.749  0.5085 -0.1485  0.0680
  242MOL0     C31821   3.300   3.043   8.665  0.2185 -0.3702 -0.5002
  242MOL0     C31822   3.170   3.004   8.754 -0.1746  0.0195 -0.5761
  242MOL0     C31823   3.056   2.934   8.664 -0.1328 -0.4340  0.6786
  242MOL0     C31824   2.931   2.877   8.737 -0.8660 -1.3072  0.4315
  242MOL0     C31825   2.815   2.837   8.642  0.3261 -0.7763  0.5136
  242MOL0     C31826   2.693   2.825   8.741  0.5368 -0.4853 -0.3414
  242MOL0     C31827   2.690   2.700   8.831  0.3264  0.0411 -1.0431
  242MOL0     C31828   2.674   2.568   8.748 -0.3607 -0.1585  0.7742
  242MOL0     N31829   2.532   2.517   8.745  0.2766 -1.1700  0.2340
  242MOL0     C31830   2.449   2.485   8.853 -1.1122 -0.0221  0.4515
  242MOL0     C31831   2.331   2.442   8.794  1.0165  0.7542  0.2367
  242MOL0     C31832   2.216   2.395   8.887 -0.1770  0.6007  0.2387
  242MOL0     C31833   2.123   2.288   8.835 -0.2443  0.0432 -0.8718
  242MOL0     C31834   2.009   2.257   8.934  0.7427 -0.5989  0.3763
  242MOL0     C31835   1.907   2.169   8.871 -0.2075 -0.8707 -0.5472
  242MOL0     O31836   1.801   2.161   8.964 -0.3060 -0.5108 -0.1560
  242MOL0     C31837   1.686   2.099   8.935 -0.3981  0.9491  1.0479
  242MOL0     C31838   1.593   2.067   9.029 -0.1246 -0.3267 -0.1188
  242MOL0     C31839   1.479   1.991   9.000 -0.7777 -0.7797  0.0912
  242MOL0     C31840   1.445   1.948   8.878  0.7737 -0.5938 -0.3096
  242MOL0     C31841   1.316   1.887   8.849  0.9899 -0.1922  0.1575
  242MOL0     O31842   1.293   1.835   8.722 -0.3820  0.3953  0.0390
  242MOL0     C31843   1.168   1.774   8.695  0.8398 -0.7379  0.1245
  242MOL0     C31844   1.165   1.666   8.595 -0.3373  0.3994 -0.7372
  242MOL0     C31845   1.041   1.609   8.556 -0.2402  0.0370 -0.5694
  242MOL0     C31846   0.916   1.662   8.598  0.1972  0.3693  0.6254
  242MOL0     O31847   0.804   1.622   8.537  0.3517  1.4498 -0.1784
  242MOL0     C31848   0.737   1.717   8.454 -0.5938 -0.6165  0.5953
  242MOL0     C31849   0.593   1.707   8.500  0.4885  0.2006  0.0897
  242MOL0     C31850   0.515   1.575   8.469 -0.9232  0.1554  0.3098
  242MOL0     C31851   0.370   1.594   8.489  0.0057  0.1986  0.1885
  242MOL0     C31852   0.292   1.476   8.436 -0.0006  0.6381  0.4896
  242MOL0     C31853   0.143   1.476   8.485  0.5996 -0.6406 -0.3998
  242MOL0     C31854   0.060   1.591   8.428 -0.7917  0.2046 -0.9345
  242MOL0     C31855  -0.063   1.616   8.510 -0.2247 -0.1931 -0.5774
  242MOL0    Cl31856  -0.196   1.679   8.406 -0.0557  0.0590 -0.4353
  242MOL0     C31857   0.928   1.781   8.672 -0.1623  1.0536 -0.2271
  242MOL0     C31858   1.041   1.832   8.722  1.1605  0.2686  0.0927
  242MOL0     O31859   1.241   1.871   8.945  0.3475 -0.2622 -0.8343
  242MOL0     C31860   1.531   1.974   8.777 -0.4185 -0.1343  0.2766
  242MOL0     C31861   1.651   2.050   8.804  0.8387  0.1592  0.1958
  242MOL0     N31862   2.351   2.438   8.654  0.8658  0.3705  0.1793
  242MOL0     N31863   2.458   2.498   8.628  0.4252 -0.0013 -0.1533
  242MOL0     C31864   3.636   3.062   8.788  0.1838 -0.1550  0.1077
  242MOL0     C31865   3.771   3.085   8.749  0.0139 -0.3820 -0.2100
  242MOL0     C31866   4.130   3.179   8.495  0.1328 -0.3490 -0.1267
  242MOL0     C31867   4.200   3.198   8.612 -0.1384  1.6006 -0.4544
  242MOL0     C31868   4.336   3.223   8.609 -0.6976 -0.8872  0.5469
  242MOL0     C31869   4.412   3.239   8.491 -0.2907  0.2961  0.1106
  242MOL0     O31870   4.547   3.280   8.485  0.3866 -0.0919  0.4997
  242MOL0     C31871   4.585   3.354   8.602 -0.6269 -0.3320 -0.2886
  242MOL0     C31872   4.712   3.430   8.575  0.1960 -0.1773  0.4820
  242MOL0     C31873   4.685   3.543   8.481  0.6480  0.1265  0.1740
  242MOL0     C31874   4.794   3.639   8.466  0.6831  0.4417 -0.6602
  242MOL0     C31875   4.911   3.583   8.385  0.0017 -0.3518  0.5386
  242MOL0     C31876   5.003   3.523   8.329  0.7414 -0.0854  0.0532
  242MOL0     C31877   4.347   3.212   8.375  0.4412  0.7966  0.6657
  242MOL0     C31878   4.213   3.179   8.383 -0.5103  0.5884  0.8822
  242MOL0     H31879   3.717   3.098   8.407 -2.2756 -0.2511 -1.1676
  242MOL0     H31880   3.484   3.082   8.475 -0.2739 -0.3142  0.5328
  242MOL0     H31881   3.318   2.962   8.594 -2.1018 -0.9844 -0.4728
  242MOL0     H31882   3.282   3.138   8.614 -0.1922  0.2096  0.6689
  242MOL0     H31883   3.135   3.086   8.818  2.7957  0.4990  0.6024
  242MOL0     H31884   3.216   2.934   8.824 -0.7154 -0.0513 -0.2912
  242MOL0     H31885   3.114   2.857   8.613  3.9617  2.5388  0.4009
  242MOL0     H31886   3.021   3.013   8.596 -2.2292 -1.6007  0.3278
  242MOL0     H31887   2.976   2.800   8.801 -0.2243 -0.6841  0.7379
  242MOL0     H31888   2.912   2.964   8.801 -0.8483 -1.2192  0.3161
  242MOL0     H31889   2.833   2.750   8.578  2.9460  0.8143 -1.1143
  242MOL0     H31890   2.805   2.918   8.569  3.2869 -0.7083  0.0630
  242MOL0     H31891   2.603   2.820   8.680  0.1896  1.9051 -0.1268
  242MOL0     H31892   2.684   2.919   8.797  1.2322  0.0618 -1.1271
  242MOL0     H31893   2.785   2.692   8.886 -0.9373 -1.4667  1.0881
  242MOL0     H31894   2.616   2.700   8.912  2.6434  0.3124  1.2216
  242MOL0     H31895   2.743   2.496   8.794  1.1646  2.6634  3.2956
  242MOL0     H31896   2.708   2.587   8.646 -2.4731  1.5654  0.3019
  242MOL0     H31897   2.467   2.501   8.959  0.0533  3.3267 -0.1187
  242MOL0     H31898   2.160   2.487   8.906 -1.2758  0.1031 -0.5213
  242MOL0     H31899   2.262   2.365   8.982  2.1400  3.2014  0.0713
  242MOL0     H31900   2.178   2.199   8.804  0.7006  0.1362  0.4664
  242MOL0     H31901   2.074   2.328   8.745 -1.1797 -2.6005 -1.6586
  242MOL0     H31902   2.048   2.213   9.026 -3.5969  0.1764  2.8910
  242MOL0     H31903   1.951   2.348   8.950 -2.3017 -2.4911  0.9241
  242MOL0     H31904   1.938   2.069   8.837 -1.9188 -1.9361  0.8850
  242MOL0     H31905   1.869   2.223   8.784  0.7042  1.6082  0.5223
  242MOL0     H31906   1.604   2.111   9.128  1.0868  1.7495 -1.1227
  242MOL0     H31907   1.423   1.975   9.091 -0.9492  2.6970  0.7178
  242MOL0     H31908   1.253   1.614   8.559  0.6204  0.8296  0.8992
  242MOL0     H31909   1.037   1.525   8.488 -1.7099  0.3626 -0.9301
  242MOL0     H31910   0.752   1.687   8.350  3.6093 -1.0646  1.1533
  242MOL0     H31911   0.785   1.814   8.471  0.2814 -1.4645  3.3634
  242MOL0     H31912   0.542   1.796   8.459  3.9467  2.3434  0.0202
  242MOL0     H31913   0.587   1.731   8.606 -0.8921  2.1070 -0.3625
  242MOL0     H31914   0.560   1.494   8.527  1.4423  1.0331 -0.1920
  242MOL0     H31915   0.539   1.554   8.364  2.3665 -0.1407  0.9901
  242MOL0     H31916   0.356   1.610   8.596  2.3767 -0.2932  0.6118
  242MOL0     H31917   0.335   1.683   8.436 -2.2003 -1.2409 -0.9815
  242MOL0     H31918   0.327   1.382   8.479  0.0988  1.7505  3.0090
  242MOL0     H31919   0.293   1.469   8.327 -1.6365  1.2956  0.4047
  242MOL0     H31920   0.146   1.472   8.594  0.7007 -1.5426 -0.4328
  242MOL0     H31921   0.102   1.385   8.441 -0.5534  0.5367 -1.8718
  242MOL0     H31922   0.112   1.687   8.425  1.0780 -0.5253  2.7030
  242MOL0     H31923   0.030   1.563   8.327  0.2592  2.1527 -1.8464
  242MOL0     H31924  -0.043   1.675   8.600  2.3770  0.2188 -1.3448
  242MOL0     H31925  -0.080   1.515   8.550  1.5247 -1.0036 -1.7532
  242MOL0     H31926   0.834   1.827   8.697 -2.0552 -2.3588 -0.4710
  242MOL0     H31927   1.024   1.915   8.790  1.4240  1.0309 -0.7524
  242MOL0     H31928   1.505   1.946   8.676  1.4342  0.8151 -0.4910
  242MOL0     H31929   1.714   2.062   8.716 -0.8943 -1.7126 -1.4189
  242MOL0     H31930   3.617   3.047   8.893 -0.0860  1.6545  0.3488
  242MOL0     H31931   3.846   3.104   8.825 -0.4479  1.9134 -0.2381
  242MOL0     H31932   4.150   3.198   8.709  0.5351 -3.0987  0.1278
  242MOL0     H31933   4.380   3.230   8.708 -2.7210  1.3843  1.4141
  242MOL0     H31934   4.607   3.297   8.693  0.1020  2.2224  1.2410
  242MOL0     H31935   4.503   3.420   8.632  0.4240  1.8538 -1.9446
  242MOL0     H31936   4.755   3.477   8.664 -3.9477  2.0214  1.6187
  242MOL0     H31937   4.769   3.345   8.536 -1.8619 -1.5533  0.2554
  242MOL0     H31938   4.597   3.594   8.520 -0.0441  1.5957 -3.0201
  242MOL0     H31939   4.659   3.496   8.386 -2.9182 -1.1330  1.5854
  242MOL0     H31940   4.748   3.719   8.408  0.0881  1.6633  1.3608
  242MOL0     H31941   4.826   3.682   8.562 -0.6586  3.1622 -1.3336
  242MOL0     H31942   5.072   3.459   8.278  1.4131  0.7952 -0.1737
  242MOL0     H31943   4.398   3.204   8.280  0.3822  3.3623  0.3530
  242MOL0     H31944   4.174   3.170   8.282  1.0215  3.6319 -0.1202
  243MOL0     O31945   2.084   9.007   0.561 -0.1658  0.5758  0.0730
  243MOL0     C31946   1.977   8.989   0.514  0.6757  1.0773  0.0581
  243MOL0     O31947   1.924   8.862   0.477  0.4756  0.2887  0.2240
  243MOL0     C31948   1.966   8.745   0.548  0.5338  0.0944  0.0267
  243MOL0     C31949   1.995   8.635   0.469 -0.9186 -0.8795  0.1405
  243MOL0     C31950   2.024   8.511   0.531  0.1385 -0.2735  0.9637
  243MOL0     C31951   2.038   8.500   0.672 -0.3362 -0.3481  0.1808
  243MOL0     O31952   2.073   8.391   0.750 -0.8774  0.0906 -0.0600
  243MOL0     C31953   2.203   8.352   0.707  0.2353  0.3840 -0.3174
  243MOL0     C31954   2.268   8.272   0.829  0.6052 -0.6852 -0.8709
  243MOL0     C31955   2.404   8.213   0.795 -0.7710 -0.4949 -0.0015
  243MOL0     C31956   2.525   8.311   0.820  0.7787  0.6937 -0.9054
  243MOL0     C31957   2.658   8.243   0.793 -0.0409 -0.4513  0.3963
  243MOL0     C31958   2.700   8.134   0.897  0.4989 -0.3798  1.3157
  243MOL0     C31959   2.844   8.097   0.896  0.1254  0.2181 -1.2728
  243MOL0     C31960   2.885   7.994   1.014  0.5644 -0.6851 -0.3223
  243MOL0     N31961   2.915   8.069   1.144 -0.2262  0.4857 -0.4756
  243MOL0     C31962   3.048   8.105   1.182  0.3558  0.0793 -0.1182
  243MOL0     C31963   3.036   8.184   1.287 -0.1545  1.0374 -0.6280
  243MOL0     C31964   3.153   8.252   1.363  0.4814 -0.0329  0.9111
  243MOL0     C31965   3.253   8.155   1.417  0.1106  0.1670  0.0432
  243MOL0     C31966   3.379   8.236   1.453 -0.1379  0.0207  0.2885
  243MOL0     C31967   3.477   8.142   1.516  0.2628 -0.8499  0.0640
  243MOL0     O31968   3.425   8.046   1.617  0.3115  0.9452 -0.2296
  243MOL0     C31969   3.521   7.962   1.678 -0.4251 -0.0222  0.9669
  243MOL0     C31970   3.662   7.958   1.661 -0.1418 -0.0138 -0.5520
  243MOL0     C31971   3.736   7.861   1.720 -0.4783  0.7302  0.0616
  243MOL0     C31972   3.678   7.755   1.805 -0.2092  0.6777 -0.2758
  243MOL0     C31973   3.755   7.656   1.861 -0.2267  0.2044  0.2092
  243MOL0     O31974   3.895   7.674   1.841 -0.0191 -0.4608 -0.0015
  243MOL0     C31975   3.989   7.592   1.892 -0.5752  0.4022  0.5764
  243MOL0     C31976   4.111   7.653   1.862 -0.1063 -1.0137  0.4460
  243MOL0     C31977   4.226   7.594   1.907  0.3627 -0.0500 -0.0520
  243MOL0     C31978   4.225   7.465   1.961 -0.1771  0.3237 -0.7870
  243MOL0     O31979   4.343   7.393   1.966 -0.2823  0.1123  0.4559
  243MOL0     C31980   4.391   7.373   2.097 -0.1321 -0.7490  0.7603
  243MOL0     C31981   4.479   7.497   2.156  1.4676  0.3784 -0.4003
  243MOL0     C31982   4.398   7.603   2.235  0.6559 -0.1267  1.1437
  243MOL0     C31983   4.472   7.729   2.232  1.0424  0.6600 -0.0586
  243MOL0     C31984   4.393   7.830   2.317  0.5319 -0.6710  0.4635
  243MOL0     C31985   4.373   7.791   2.467 -0.6126 -0.1185  0.0238
  243MOL0     C31986   4.345   7.916   2.539 -0.0948 -0.3182 -0.3468
  243MOL0     C31987   4.192   7.937   2.570  0.0375  0.3643 -0.6738
  243MOL0    Cl31988   4.172   8.101   2.635 -0.4107 -0.0717 -0.0117
  243MOL0     C31989   4.100   7.404   1.996 -0.4004  0.6406 -0.4523
  243MOL0     C31990   3.986   7.468   1.958 -0.6590  0.5645  0.1022
  243MOL0     O31991   3.705   7.563   1.922  0.1218 -1.6195 -0.1004
  243MOL0     C31992   3.541   7.764   1.826  0.2443  1.0014 -0.9853
  243MOL0     C31993   3.464   7.858   1.760 -0.2295  0.0224  0.1340
  243MOL0     N31994   2.903   8.196   1.316  0.3494 -0.6724  0.2968
  243MOL0     N31995   2.831   8.140   1.223  0.6800 -0.0720 -1.3838
  243MOL0     C31996   2.005   8.612   0.748  0.0229 -0.7369 -0.1647
  243MOL0     C31997   1.964   8.730   0.685  0.2381 -0.0415  0.0412
  243MOL0     C31998   1.899   9.104   0.471 -0.5338 -0.1330  0.0268
  243MOL0     C31999   1.763   9.103   0.464  0.1676 -0.2932  0.6908
  243MOL0     C32000   1.701   9.217   0.426 -0.6175 -1.3375  0.7946
  243MOL0     C32001   1.773   9.344   0.405  0.1886 -0.8430  0.1617
  243MOL0     O32002   1.689   9.450   0.377  0.5059  0.4975 -0.0548
  243MOL0     C32003   1.748   9.574   0.341  0.0659 -0.5710  0.3907
  243MOL0     C32004   1.789   9.563   0.189 -0.0646 -1.1885  0.0783
  243MOL0     C32005   1.926   9.640   0.160  0.5943 -0.2869 -0.6561
  243MOL0     C32006   1.908   9.791   0.179 -0.5659  0.2559  0.2760
  243MOL0     C32007   2.036   9.859   0.179 -0.1269 -0.3658 -0.0425
  243MOL0     C32008   2.150   9.919   0.171 -0.2083  0.0280  0.2442
  243MOL0     C32009   1.912   9.344   0.419  0.0933 -0.1846  0.0651
  243MOL0     C32010   1.976   9.223   0.449  0.4257 -0.1971 -0.4329
  243MOL0     H32011   1.988   8.647   0.361  1.5570  1.5470  0.1241
  243MOL0     H32012   2.055   8.419   0.482  2.0312  0.6663  0.2832
  243MOL0     H32013   2.260   8.442   0.682 -1.4409  1.1940 -1.4399
  243MOL0     H32014   2.199   8.292   0.616  0.8861 -1.4333  0.7806
  243MOL0     H32015   2.204   8.185   0.844 -0.5416  0.2207 -0.3176
  243MOL0     H32016   2.267   8.327   0.923  1.1344 -0.9818 -0.6890
  243MOL0     H32017   2.403   8.193   0.688 -0.0306  1.1963 -0.3608
  243MOL0     H32018   2.416   8.116   0.843 -0.2179  0.7681  2.5831
  243MOL0     H32019   2.519   8.403   0.761  0.2854  1.0558 -0.3071
  243MOL0     H32020   2.519   8.339   0.926 -1.0865  0.6981 -0.9828
  243MOL0     H32021   2.736   8.320   0.791  0.8052 -1.2991 -0.9943
  243MOL0     H32022   2.666   8.195   0.695 -1.3885  0.3516 -0.1417
  243MOL0     H32023   2.647   8.040   0.877 -2.7735  1.7058 -0.5723
  243MOL0     H32024   2.652   8.167   0.990 -6.8128  3.1432 -2.8200
  243MOL0     H32025   2.879   8.057   0.800 -0.8267 -1.1791 -1.0797
  243MOL0     H32026   2.902   8.184   0.927  1.1834 -1.5000  2.1192
  243MOL0     H32027   2.978   7.947   0.979  1.7500 -0.5786  2.4743
  243MOL0     H32028   2.807   7.919   1.031  1.2561 -1.0107  1.7143
  243MOL0     H32029   3.146   8.094   1.135  0.6153 -1.6080  0.7403
  243MOL0     H32030   3.113   8.308   1.448 -3.8173  2.1969 -2.2133
  243MOL0     H32031   3.201   8.312   1.285  1.3080 -3.3681 -1.3369
  243MOL0     H32032   3.284   8.085   1.340  1.2640 -1.1696  1.6511
  243MOL0     H32033   3.206   8.109   1.505 -3.6464  0.4207 -1.6368
  243MOL0     H32034   3.425   8.281   1.364  1.9675 -1.2124  0.6939
  243MOL0     H32035   3.349   8.309   1.529 -3.7729 -0.6558 -0.3081
  243MOL0     H32036   3.556   8.206   1.556 -0.8278  1.0701 -0.6936
  243MOL0     H32037   3.503   8.068   1.440 -0.5789 -0.0333 -1.0510
  243MOL0     H32038   3.710   8.033   1.598  1.8964 -1.8729 -1.3441
  243MOL0     H32039   3.842   7.854   1.696 -0.5974 -3.0495  0.0754
  243MOL0     H32040   4.122   7.731   1.787  1.3265 -1.0741  0.5702
  243MOL0     H32041   4.321   7.638   1.879 -0.2779 -0.4066 -3.2649
  243MOL0     H32042   4.463   7.291   2.104 -0.2551 -0.8558  0.7651
  243MOL0     H32043   4.313   7.362   2.173 -1.5953  1.6839 -0.2684
  243MOL0     H32044   4.530   7.548   2.074 -1.5195 -0.1071 -2.7791
  243MOL0     H32045   4.551   7.450   2.224  1.5834  1.5611  0.3302
  243MOL0     H32046   4.378   7.564   2.335  1.5097 -2.1854  0.5610
  243MOL0     H32047   4.299   7.604   2.187  0.6011 -1.2869  1.2079
  243MOL0     H32048   4.569   7.706   2.275  0.3882 -0.7638  0.7023
  243MOL0     H32049   4.477   7.766   2.129  1.6483  0.5089 -0.0858
  243MOL0     H32050   4.289   7.836   2.285  0.6100 -0.6880  0.2042
  243MOL0     H32051   4.443   7.926   2.297  0.9698 -1.0022 -0.0543
  243MOL0     H32052   4.467   7.756   2.510 -1.9055  0.6255  3.8279
  243MOL0     H32053   4.288   7.724   2.485 -2.4039  2.4216  1.7041
  243MOL0     H32054   4.381   7.913   2.642  0.1386  5.7449  0.1229
  243MOL0     H32055   4.383   8.011   2.502  1.4266 -0.4777  0.7257
  243MOL0     H32056   4.156   7.868   2.647 -2.4569  2.4708  0.1816
  243MOL0     H32057   4.130   7.914   2.483 -0.4648 -0.1226 -0.1919
  243MOL0     H32058   4.107   7.301   2.032 -0.0520  0.0833 -2.0277
  243MOL0     H32059   3.887   7.427   1.977 -1.4260  1.7123 -1.2814
  243MOL0     H32060   3.489   7.686   1.882 -1.9374  2.1860 -1.2605
  243MOL0     H32061   3.357   7.863   1.776 -0.4492  0.8802 -1.4425
  243MOL0     H32062   1.997   8.614   0.856  1.7750  0.0879 -0.0142
  243MOL0     H32063   1.937   8.816   0.746 -1.2338 -1.4940  1.5256
  243MOL0     H32064   1.694   9.020   0.468  1.0646 -1.1807 -0.9354
  243MOL0     H32065   1.599   9.198   0.395  0.1790 -1.6349 -1.8643
  243MOL0     H32066   1.832   9.588   0.409 -1.2482 -0.7761  2.1305
  243MOL0     H32067   1.674   9.654   0.349 -0.5361 -0.8794 -1.5291
  243MOL0     H32068   1.801   9.457   0.165 -3.3168 -1.9000  1.0424
  243MOL0     H32069   1.707   9.603   0.130  0.0894 -3.7566 -2.0455
  243MOL0     H32070   1.939   9.631   0.052 -1.0272 -2.1244 -0.7567
  243MOL0     H32071   2.009   9.590   0.212 -2.6293 -2.0527  3.4546
  243MOL0     H32072   1.836   9.831   0.107 -0.1810  4.9027  2.1172
  243MOL0     H32073   1.865   9.810   0.278  0.1691 -0.3383  0.7194
  243MOL0     H32074   2.242   9.969   0.154 -1.2606  1.7770 -0.6019
  243MOL0     H32075   1.967   9.435   0.395 -1.8402  1.0092 -0.0199
  243MOL0     H32076   2.084   9.227   0.456  0.5845 -3.5910  1.0411
  244MOL0     O32077   6.590   0.866   5.089  0.7599 -0.0253  1.3522
  244MOL0     C32078   6.606   0.762   5.153 -0.2773  0.0335 -0.7811
  244MOL0     O32079   6.513   0.667   5.179  0.0861 -1.0882  0.0555
  244MOL0     C32080   6.380   0.696   5.151 -0.1439  0.2194 -0.1283
  244MOL0     C32081   6.340   0.705   5.022 -0.5781  0.1021  0.8263
  244MOL0     C32082   6.202   0.725   4.990 -0.2251 -0.1509 -0.1909
  244MOL0     C32083   6.108   0.747   5.093  0.2960  0.2912  1.3187
  244MOL0     O32084   5.972   0.762   5.050  0.0135 -0.4656 -0.0087
  244MOL0     C32085   5.885   0.811   5.147  0.5493 -0.7502 -0.2331
  244MOL0     C32086   5.748   0.842   5.087  0.3067  0.1407  0.5559
  244MOL0     C32087   5.636   0.860   5.195  0.7742 -0.0171  0.9447
  244MOL0     C32088   5.499   0.888   5.126  0.4664  0.6133  0.7172
  244MOL0     C32089   5.389   0.942   5.227  0.6147  0.1174 -0.1922
  244MOL0     C32090   5.257   0.996   5.154 -0.4244 -1.5789  0.3033
  244MOL0     C32091   5.290   1.130   5.075 -0.1324 -0.1500 -0.1534
  244MOL0     C32092   5.349   1.243   5.147 -0.0930 -0.2181 -0.4124
  244MOL0     N32093   5.240   1.317   5.215 -0.0701 -0.3895 -0.0261
  244MOL0     C32094   5.202   1.318   5.351 -0.1522  0.1042 -0.1776
  244MOL0     C32095   5.101   1.416   5.354  0.6214  0.5244  0.1216
  244MOL0     C32096   5.029   1.455   5.474  0.3832 -0.8306 -0.9014
  244MOL0     C32097   4.874   1.449   5.452 -0.1159 -0.3639 -0.0075
  244MOL0     C32098   4.821   1.561   5.374  0.1976 -0.4714  0.0267
  244MOL0     C32099   4.673   1.595   5.402 -0.8937  0.7430  0.5788
  244MOL0     O32100   4.590   1.476   5.383 -0.0735 -0.0538  0.5646
  244MOL0     C32101   4.453   1.494   5.385 -0.5326 -0.6527  0.0463
  244MOL0     C32102   4.399   1.533   5.508  0.2391 -0.3916 -0.1379
  244MOL0     C32103   4.262   1.567   5.512 -0.4684  0.5287 -0.2435
  244MOL0     C32104   4.172   1.551   5.400 -0.6563  0.0894 -0.4937
  244MOL0     C32105   4.024   1.581   5.406 -0.7003 -0.3843 -0.0757
  244MOL0     O32106   3.988   1.670   5.505 -0.5036 -0.0156  0.9238
  244MOL0     C32107   3.859   1.706   5.542  0.4845 -1.2050 -0.2072
  244MOL0     C32108   3.731   1.654   5.500 -0.6214  0.8978 -0.4314
  244MOL0     C32109   3.604   1.693   5.543  0.7404  0.0138  0.0644
  244MOL0     C32110   3.599   1.807   5.616  0.4812 -0.8579 -0.3177
  244MOL0     O32111   3.477   1.830   5.672 -0.0419  0.1560  0.5759
  244MOL0     C32112   3.447   1.953   5.729 -1.0351 -0.1916 -0.0641
  244MOL0     C32113   3.334   1.936   5.830 -0.7533  0.4673  0.6971
  244MOL0     C32114   3.272   2.055   5.896  0.7091 -0.3775  0.3107
  244MOL0     C32115   3.374   2.168   5.943  0.2325 -1.1996 -0.0105
  244MOL0     C32116   3.299   2.278   6.014 -1.5288 -0.1230 -0.2792
  244MOL0     C32117   3.182   2.331   5.934  0.0301  0.2534  0.2802
  244MOL0     C32118   3.182   2.478   5.933 -0.5874  0.1885  0.4693
  244MOL0     C32119   3.052   2.538   5.888  0.3396  0.5727 -0.8289
  244MOL0    Cl32120   3.069   2.716   5.911  0.5461 -0.8005 -0.2232
  244MOL0     C32121   3.720   1.870   5.659  0.7027 -0.5600 -1.5045
  244MOL0     C32122   3.840   1.815   5.634 -0.8706  0.4912  0.3778
  244MOL0     O32123   3.947   1.517   5.331  0.6371 -0.4005 -0.4020
  244MOL0     C32124   4.230   1.514   5.287 -0.7661  0.2399  0.0522
  244MOL0     C32125   4.366   1.480   5.278 -0.3853 -0.2199  0.8733
  244MOL0     N32126   5.089   1.471   5.231 -0.0505  0.3101  0.7339
  244MOL0     N32127   5.167   1.410   5.154 -0.6867  0.4847 -0.4063
  244MOL0     C32128   6.147   0.753   5.223 -0.0374 -0.0865 -1.0853
  244MOL0     C32129   6.280   0.716   5.257 -0.2632 -0.6589 -0.3335
  244MOL0     C32130   6.739   0.729   5.197 -0.2828  1.0318 -0.5986
  244MOL0     C32131   6.787   0.595   5.207 -0.4688 -0.2774  0.0051
  244MOL0     C32132   6.912   0.571   5.267 -0.3076  0.4925 -0.4879
  244MOL0     C32133   6.998   0.670   5.318 -0.8533 -0.2968  0.3432
  244MOL0     O32134   7.126   0.660   5.378  0.0702 -0.3316 -0.1577
  244MOL0     C32135   7.149   0.561   5.478 -1.2760  0.3165 -0.2978
  244MOL0     C32136   7.273   0.477   5.446 -1.2928  0.4632 -0.5015
  244MOL0     C32137   7.404   0.566   5.446  0.0363 -0.5423 -1.1648
  244MOL0     C32138   7.536   0.492   5.455  0.3807  0.0155  0.2923
  244MOL0     C32139   7.533   0.420   5.580  0.1784 -0.0888  0.4261
  244MOL0     C32140   7.534   0.338   5.667 -0.2181 -0.2891  1.1704
  244MOL0     C32141   6.955   0.801   5.310  0.9604 -0.0405 -0.4428
  244MOL0     C32142   6.828   0.824   5.250  0.3800  0.2857 -0.6105
  244MOL0     H32143   6.411   0.717   4.941 -2.1348  1.7223 -0.3679
  244MOL0     H32144   6.173   0.740   4.887 -1.8529 -0.9564  0.1290
  244MOL0     H32145   5.928   0.907   5.176  0.1183  0.2094 -2.5903
  244MOL0     H32146   5.877   0.735   5.226  0.2939 -0.7771 -0.2849
  244MOL0     H32147   5.720   0.751   5.033 -1.1320  1.5671 -1.2308
  244MOL0     H32148   5.756   0.922   5.012  1.2716 -1.9523 -1.7099
  244MOL0     H32149   5.664   0.953   5.246  2.9840  0.8244 -1.5446
  244MOL0     H32150   5.638   0.767   5.252 -0.7858 -0.6111  0.0894
  244MOL0     H32151   5.531   0.964   5.055  0.8812 -0.9054 -0.7838
  244MOL0     H32152   5.455   0.800   5.077 -0.1350  0.9072  0.7145
  244MOL0     H32153   5.428   1.020   5.293 -2.5811  1.1625  0.6265
  244MOL0     H32154   5.359   0.860   5.292 -2.1740 -1.0380 -2.7228
  244MOL0     H32155   5.186   1.024   5.232 -1.7277 -1.4879 -0.8743
  244MOL0     H32156   5.215   0.927   5.080 -2.7963  1.6447 -1.6672
  244MOL0     H32157   5.346   1.095   4.988 -2.0678 -2.7234 -0.4798
  244MOL0     H32158   5.195   1.164   5.032 -0.3399  1.2127  1.2872
  244MOL0     H32159   5.401   1.313   5.082  2.0120  1.3206  2.6868
  244MOL0     H32160   5.426   1.200   5.212  0.0504 -0.9205 -1.0308
  244MOL0     H32161   5.247   1.260   5.431  0.7506 -0.6089 -1.1862
  244MOL0     H32162   5.067   1.556   5.492  0.0817 -1.0002  0.8027
  244MOL0     H32163   5.036   1.391   5.562 -3.1151 -0.6014 -0.3155
  244MOL0     H32164   4.839   1.444   5.556  1.0249  1.5201  0.5235
  244MOL0     H32165   4.854   1.363   5.389 -0.3854  0.2896 -0.8253
  244MOL0     H32166   4.876   1.654   5.390 -1.9178  0.3197  3.6947
  244MOL0     H32167   4.822   1.527   5.270  0.4263 -2.3354  0.5974
  244MOL0     H32168   4.649   1.673   5.328  1.4289 -0.6091 -1.7683
  244MOL0     H32169   4.671   1.629   5.506  0.8240 -1.8158  1.5338
  244MOL0     H32170   4.463   1.545   5.595  2.5617  0.8701 -1.8898
  244MOL0     H32171   4.207   1.625   5.585 -2.3597 -1.0676 -0.3167
  244MOL0     H32172   3.718   1.570   5.432 -3.1774  1.2050 -0.4029
  244MOL0     H32173   3.512   1.637   5.527  2.2609 -3.7345  2.8230
  244MOL0     H32174   3.429   2.022   5.646 -0.6145  2.3286  1.8299
  244MOL0     H32175   3.527   2.003   5.784  0.2901 -4.9654  2.9756
  244MOL0     H32176   3.374   1.881   5.915  0.2487  0.2241  0.0833
  244MOL0     H32177   3.252   1.884   5.781 -1.1727  2.8942 -1.3749
  244MOL0     H32178   3.200   2.022   5.971  1.4691  0.8497  1.6096
  244MOL0     H32179   3.204   2.097   5.821 -1.4999  1.3499  3.0788
  244MOL0     H32180   3.439   2.119   6.017 -0.3305  0.9805  2.0748
  244MOL0     H32181   3.427   2.211   5.858  1.1386  1.7415  1.8756
  244MOL0     H32182   3.370   2.356   6.042 -1.7412 -0.0615  0.0917
  244MOL0     H32183   3.245   2.239   6.100 -0.3209 -2.1596 -0.3798
  244MOL0     H32184   3.089   2.296   5.980 -1.2598  0.5537 -1.9779
  244MOL0     H32185   3.171   2.306   5.828 -2.3978 -1.9698  0.9318
  244MOL0     H32186   3.206   2.526   6.028  1.1484  0.2158  0.0420
  244MOL0     H32187   3.262   2.511   5.866  0.3683 -2.2333  0.3279
  244MOL0     H32188   2.970   2.506   5.954 -0.4418  1.8070 -1.1555
  244MOL0     H32189   3.021   2.521   5.785  0.4454 -1.7238 -0.5209
  244MOL0     H32190   3.710   1.962   5.718  0.9956  0.9440 -3.6954
  244MOL0     H32191   3.935   1.840   5.680 -0.6862 -1.5520  1.1717
  244MOL0     H32192   4.166   1.513   5.199 -0.4785  2.0244 -0.2255
  244MOL0     H32193   4.401   1.429   5.189  0.4082 -3.0371  2.6809
  244MOL0     H32194   6.074   0.771   5.302  2.6720  1.2671  1.2991
  244MOL0     H32195   6.304   0.705   5.363 -3.0170 -0.6871  0.3779
  244MOL0     H32196   6.731   0.517   5.155 -0.8533 -1.6774  2.3555
  244MOL0     H32197   6.963   0.475   5.270 -0.1998  0.5381  3.1893
  244MOL0     H32198   7.069   0.488   5.464  1.3998 -2.3222 -3.5666
  244MOL0     H32199   7.141   0.606   5.577 -1.1944 -0.0771 -0.1093
  244MOL0     H32200   7.273   0.394   5.518  2.5371  0.1059 -0.7226
  244MOL0     H32201   7.275   0.428   5.348 -0.9263  0.2199 -0.3759
  244MOL0     H32202   7.397   0.634   5.532  0.9298 -1.5475 -0.2495
  244MOL0     H32203   7.410   0.633   5.360  3.9147  0.7295 -0.1353
  244MOL0     H32204   7.549   0.437   5.361  0.0741 -0.3776  0.4790
  244MOL0     H32205   7.619   0.562   5.469 -0.0648  0.4167  0.9696
  244MOL0     H32206   7.515   0.276   5.753 -4.5905  1.4701  1.7320
  244MOL0     H32207   7.022   0.883   5.333 -1.8623  2.1568  0.5760
  244MOL0     H32208   6.783   0.923   5.244 -1.9291 -0.5930  0.8763
  245MOL0     O32209   6.787   0.977   2.802  0.4420  0.3403  0.5063
  245MOL0     C32210   6.751   0.933   2.687  0.3978 -0.1568 -0.7866
  245MOL0     O32211   6.749   1.008   2.578 -0.3604  0.0216  0.5653
  245MOL0     C32212   6.796   1.133   2.595 -0.7149  0.4150 -0.6457
  245MOL0     C32213   6.701   1.228   2.558 -0.4983 -0.6263 -0.0551
  245MOL0     C32214   6.738   1.364   2.555 -0.2101 -0.5676  0.8078
  245MOL0     C32215   6.870   1.395   2.596 -1.6431 -0.3583 -0.3923
  245MOL0     O32216   6.915   1.525   2.577  0.2787  0.6729 -0.5983
  245MOL0     C32217   6.830   1.633   2.628 -0.4652  0.6075  0.4300
  245MOL0     C32218   6.889   1.777   2.602 -0.5982  0.5984  0.8244
  245MOL0     C32219   6.954   1.782   2.465  0.2579 -0.2315 -0.1763
  245MOL0     C32220   6.860   1.737   2.352  0.7615  0.3334  0.2036
  245MOL0     C32221   6.751   1.848   2.333  0.1989 -0.3397  0.2957
  245MOL0     C32222   6.661   1.796   2.217  0.0873 -0.1770  0.4059
  245MOL0     C32223   6.583   1.918   2.153 -1.7496  0.2374 -0.5629
  245MOL0     C32224   6.446   1.884   2.092 -0.7038  0.3458 -0.4154
  245MOL0     N32225   6.467   1.808   1.970  0.1212  0.0004  0.3719
  245MOL0     C32226   6.520   1.856   1.848  0.0281 -0.7262 -0.6367
  245MOL0     C32227   6.524   1.758   1.762  0.5170 -1.1487  1.3690
  245MOL0     C32228   6.602   1.748   1.637  0.3563  0.1992  0.3579
  245MOL0     C32229   6.755   1.728   1.667  1.0522 -0.2731 -0.4778
  245MOL0     C32230   6.841   1.661   1.558 -0.1539 -0.6927  0.3789
  245MOL0     C32231   6.859   1.732   1.424  0.7314  0.6343  0.9383
  245MOL0     O32232   6.932   1.856   1.450  0.0016 -0.1454  0.6464
  245MOL0     C32233   7.061   1.842   1.488  0.0952 -0.2418 -0.1740
  245MOL0     C32234   7.105   1.876   1.616  0.5929  0.4355 -0.1992
  245MOL0     C32235   7.237   1.854   1.664  0.1223  0.1197  0.1401
  245MOL0     C32236   7.329   1.800   1.575 -0.1720 -0.3243 -0.2847
  245MOL0     C32237   7.474   1.782   1.621  0.7531 -0.5652  1.2184
  245MOL0     O32238   7.562   1.726   1.538 -0.8553  0.5855 -0.1500
  245MOL0     C32239   7.678   1.678   1.592 -0.5059  1.1610 -0.8767
  245MOL0     C32240   7.786   1.767   1.614 -0.5436 -0.7632 -1.2123
  245MOL0     C32241   7.910   1.728   1.684  0.0096  0.1693  0.5084
  245MOL0     C32242   7.928   1.593   1.725 -0.6357 -0.2665  0.9798
  245MOL0     O32243   8.042   1.544   1.795 -0.8926 -0.6118 -0.4388
  245MOL0     C32244   8.167   1.617   1.794  0.2493 -0.4864  0.3555
  245MOL0     C32245   8.290   1.529   1.832  0.7743 -1.4543  0.1553
  245MOL0     C32246   8.418   1.605   1.865  0.3734  0.4369  0.1393
  245MOL0     C32247   8.534   1.513   1.888  0.0955 -0.9271  0.1801
  245MOL0     C32248   8.650   1.594   1.962  1.4744  1.0511  0.0838
  245MOL0     C32249   8.708   1.716   1.888  0.2801 -0.0623 -0.1457
  245MOL0     C32250   8.777   1.806   1.989  0.1415 -0.2287 -0.2026
  245MOL0     C32251   8.838   1.927   1.915  0.4540 -0.6358 -1.1601
  245MOL0    Cl32252   8.696   2.035   1.892 -0.4309 -0.3177 -0.2739
  245MOL0     C32253   7.816   1.505   1.697 -0.0105 -0.2035 -0.3125
  245MOL0     C32254   7.702   1.545   1.631  0.3276  0.9727 -0.0038
  245MOL0     O32255   7.496   1.811   1.740 -0.8039 -0.2443  0.6278
  245MOL0     C32256   7.285   1.778   1.444 -0.2406  0.3915 -0.4271
  245MOL0     C32257   7.153   1.795   1.396 -0.3013  0.6931  0.7350
  245MOL0     N32258   6.493   1.637   1.826 -0.4029  0.2851 -0.3515
  245MOL0     N32259   6.448   1.676   1.945  1.0567  0.1575 -0.3538
  245MOL0     C32260   6.956   1.305   2.662 -0.1595 -0.9214 -0.1837
  245MOL0     C32261   6.924   1.170   2.658  0.5165 -0.6366 -0.2715
  245MOL0     C32262   6.704   0.796   2.668  0.0589 -0.5329 -0.0919
  245MOL0     C32263   6.704   0.705   2.775  0.0467 -0.2346  0.4279
  245MOL0     C32264   6.663   0.567   2.763 -0.5305 -0.0120  0.3258
  245MOL0     C32265   6.602   0.530   2.643  0.0836  0.3298  0.4638
  245MOL0     O32266   6.551   0.404   2.630 -0.6133  0.4024  0.0869
  245MOL0     C32267   6.485   0.363   2.514 -0.5563 -0.2315 -0.1062
  245MOL0     C32268   6.338   0.400   2.507 -0.7604 -0.7157 -0.5701
  245MOL0     C32269   6.270   0.331   2.388 -0.7748 -0.1913  0.2044
  245MOL0     C32270   6.120   0.336   2.389  0.2083 -0.2480  0.2217
  245MOL0     C32271   6.049   0.281   2.503 -0.1692 -0.0518  0.0751
  245MOL0     C32272   5.999   0.260   2.603 -0.4590 -0.5672 -0.4946
  245MOL0     C32273   6.597   0.621   2.534 -0.0405 -0.3743 -0.6032
  245MOL0     C32274   6.657   0.745   2.549  0.9462 -0.4934 -0.4747
  245MOL0     H32275   6.602   1.204   2.521 -0.5521  0.0524 -0.3697
  245MOL0     H32276   6.685   1.432   2.490  2.5016  0.0738 -0.8821
  245MOL0     H32277   6.815   1.626   2.736  3.7925  0.7098  1.2053
  245MOL0     H32278   6.738   1.619   2.570  0.0632 -2.0719  0.1070
  245MOL0     H32279   6.968   1.796   2.674 -1.9690 -0.4814  2.7076
  245MOL0     H32280   6.811   1.851   2.625 -2.2133 -0.5553 -0.6453
  245MOL0     H32281   7.052   1.735   2.468 -0.2055 -1.3524 -1.3792
  245MOL0     H32282   6.978   1.885   2.436 -1.6997 -0.3179 -2.4254
  245MOL0     H32283   6.917   1.727   2.260 -1.6389  2.3648 -1.6513
  245MOL0     H32284   6.810   1.642   2.372  0.0255  1.1499  2.5527
  245MOL0     H32285   6.791   1.946   2.308 -1.5546  0.5425  0.7858
  245MOL0     H32286   6.690   1.848   2.424 -0.4990  2.4847 -0.0931
  245MOL0     H32287   6.583   1.731   2.258 -1.8372  1.8132  0.0644
  245MOL0     H32288   6.718   1.746   2.138  0.7576  0.5368  0.4195
  245MOL0     H32289   6.563   1.979   2.242 -1.5453  0.5539 -0.7330
  245MOL0     H32290   6.659   1.966   2.092 -0.9536  0.4963  0.6106
  245MOL0     H32291   6.410   1.983   2.062  2.0348  0.1449 -5.5487
  245MOL0     H32292   6.374   1.827   2.150 -1.3854 -1.2339 -2.6528
  245MOL0     H32293   6.555   1.958   1.838 -1.6892 -0.0136  0.1568
  245MOL0     H32294   6.599   1.837   1.574 -0.3273 -0.5349 -0.6783
  245MOL0     H32295   6.575   1.656   1.583  3.3328 -0.5286 -0.0426
  245MOL0     H32296   6.757   1.676   1.764 -1.4925 -0.1455 -0.3022
  245MOL0     H32297   6.786   1.826   1.704 -3.5048  0.4729  2.0870
  245MOL0     H32298   6.944   1.647   1.590 -0.4161  0.2669  1.7180
  245MOL0     H32299   6.788   1.569   1.531 -1.0034  0.2014 -1.1382
  245MOL0     H32300   6.755   1.738   1.390  0.2260 -2.6400  1.6233
  245MOL0     H32301   6.907   1.662   1.356 -3.1645  1.7227 -3.4532
  245MOL0     H32302   7.029   1.913   1.685  1.0378 -2.8417  2.2999
  245MOL0     H32303   7.266   1.870   1.768 -0.5773 -2.1545  0.7562
  245MOL0     H32304   7.769   1.871   1.588 -0.8904 -0.9603 -1.8091
  245MOL0     H32305   7.977   1.809   1.713  0.7740 -0.9573  1.9966
  245MOL0     H32306   8.151   1.669   1.888  0.5903 -2.3205  1.4865
  245MOL0     H32307   8.183   1.677   1.704  2.1479 -1.0615  0.2616
  245MOL0     H32308   8.308   1.460   1.749 -2.4042 -0.2812 -1.6677
  245MOL0     H32309   8.259   1.460   1.910 -1.2781 -2.4194 -1.4232
  245MOL0     H32310   8.395   1.657   1.958  1.5248  0.1738  0.5781
  245MOL0     H32311   8.434   1.684   1.792 -1.2492  1.2619  0.6280
  245MOL0     H32312   8.515   1.427   1.953 -0.1987  0.2107  1.6480
  245MOL0     H32313   8.572   1.463   1.799 -1.4518 -1.2129 -0.3561
  245MOL0     H32314   8.733   1.524   1.973  0.1530 -0.7751 -0.9969
  245MOL0     H32315   8.610   1.614   2.062 -5.1270  0.7060 -2.0126
  245MOL0     H32316   8.636   1.773   1.829  0.4051 -1.5769 -1.8616
  245MOL0     H32317   8.773   1.672   1.811 -0.4143 -2.8070  0.7444
  245MOL0     H32318   8.708   1.842   2.067  1.4694  0.0204  0.8875
  245MOL0     H32319   8.854   1.750   2.043  0.4863  2.1070  1.9312
  245MOL0     H32320   8.900   1.906   1.827  1.0491 -1.5871 -0.5365
  245MOL0     H32321   8.907   1.976   1.984 -0.2959  0.0129 -0.8685
  245MOL0     H32322   7.840   1.404   1.726 -3.3782 -0.3879  2.5243
  245MOL0     H32323   7.627   1.471   1.604 -0.1245  2.1728 -2.2950
  245MOL0     H32324   7.351   1.727   1.375 -0.4435  0.2399 -0.5113
  245MOL0     H32325   7.138   1.754   1.297  2.4620  1.5297 -0.1200
  245MOL0     H32326   7.053   1.326   2.704 -0.3595  0.8068 -0.5169
  245MOL0     H32327   7.002   1.098   2.682  1.3356 -0.4643 -2.2057
  245MOL0     H32328   6.731   0.726   2.877 -0.3186  0.3794  0.4011
  245MOL0     H32329   6.692   0.485   2.829  0.2013 -0.4554 -0.5282
  245MOL0     H32330   6.491   0.254   2.510  0.4061 -0.1680 -0.9267
  245MOL0     H32331   6.546   0.390   2.427 -0.1920  0.6947  0.4104
  245MOL0     H32332   6.294   0.358   2.599 -0.2281  0.1263  0.0828
  245MOL0     H32333   6.329   0.509   2.501  1.7527 -0.4316 -0.0881
  245MOL0     H32334   6.299   0.226   2.396 -0.0760  0.1215  2.5885
  245MOL0     H32335   6.308   0.363   2.290 -0.9024  0.8034  0.4661
  245MOL0     H32336   6.097   0.441   2.367  0.7470 -0.1848 -0.0421
  245MOL0     H32337   6.093   0.274   2.302  1.1823  0.3125 -0.4971
  245MOL0     H32338   5.955   0.222   2.693  1.3782 -2.3249 -0.2374
  245MOL0     H32339   6.546   0.604   2.439 -0.6507  2.1856 -0.8119
  245MOL0     H32340   6.650   0.804   2.458  1.2891  0.2658 -0.0141
  246MOL0     O32341   3.048   8.319   0.246 -0.6719 -0.6995  0.0592
  246MOL0     C32342   3.119   8.422   0.248 -0.6850 -0.2630  0.2875
  246MOL0     O32343   3.081   8.546   0.287  0.4032 -0.3030  0.2039
  246MOL0     C32344   2.978   8.569   0.374 -0.2948  1.7850  0.0050
  246MOL0     C32345   2.929   8.693   0.377  0.0509  0.2879 -0.8799
  246MOL0     C32346   2.813   8.724   0.459 -0.8091 -0.1602  1.6100
  246MOL0     C32347   2.761   8.628   0.541  0.2601  0.4522 -0.4838
  246MOL0     O32348   2.651   8.647   0.622 -0.4080  0.1090 -0.1123
  246MOL0     C32349   2.536   8.683   0.559 -0.7850  0.5611  0.2150
  246MOL0     C32350   2.493   8.578   0.456 -1.1609 -0.6494 -0.2899
  246MOL0     C32351   2.346   8.606   0.433  0.6154  0.7517  0.0936
  246MOL0     C32352   2.313   8.731   0.356 -0.5962  0.5065 -0.3478
  246MOL0     C32353   2.349   8.699   0.203  0.4165 -1.0417 -0.2719
  246MOL0     C32354   2.241   8.766   0.102 -0.4862 -0.7391  1.0726
  246MOL0     C32355   2.288   8.771  -0.038 -0.2181  0.6792 -0.4132
  246MOL0     C32356   2.207   8.872  -0.127  0.2677 -0.2559  0.2723
  246MOL0     N32357   2.258   8.865  -0.269  0.6613  0.8211  0.4488
  246MOL0     C32358   2.387   8.840  -0.310  0.4693 -0.1176 -0.4984
  246MOL0     C32359   2.379   8.839  -0.444 -0.1888  0.0560 -0.5733
  246MOL0     C32360   2.496   8.823  -0.546  0.3756  0.7720 -0.1144
  246MOL0     C32361   2.573   8.957  -0.572 -0.2576 -0.4270  0.0890
  246MOL0     C32362   2.487   9.065  -0.649  0.3534  0.0383  0.2231
  246MOL0     C32363   2.557   9.203  -0.674 -0.4476  0.5076  0.3664
  246MOL0     O32364   2.469   9.305  -0.721 -0.3951 -1.2936  0.3236
  246MOL0     C32365   2.519   9.437  -0.736 -0.1112  0.2030 -0.2541
  246MOL0     C32366   2.654   9.475  -0.742 -0.3685 -0.8974 -0.9230
  246MOL0     C32367   2.686   9.617  -0.756 -0.1251 -0.0965  0.4509
  246MOL0     C32368   2.589   9.718  -0.763 -0.6073  0.1698  0.1859
  246MOL0     C32369   2.617   9.858  -0.804  0.1422 -0.3458  0.6806
  246MOL0     O32370   2.520   9.927  -0.871  0.6679 -0.7480  0.1200
  246MOL0     C32371   2.519  10.055  -0.914 -0.9176 -0.1923  0.5011
  246MOL0     C32372   2.612  10.159  -0.875 -0.8785  0.5041  0.8180
  246MOL0     C32373   2.603  10.285  -0.916  0.0271 -0.4303  0.9323
  246MOL0     C32374   2.502  10.318  -1.003  0.0555  0.8318 -0.0289
  246MOL0     O32375   2.469  10.445  -1.058  0.9937  0.6179 -0.9311
  246MOL0     C32376   2.575  10.532  -1.077 -0.1966 -0.3718  0.3555
  246MOL0     C32377   2.527  10.661  -1.157 -0.2279 -0.6114 -0.0933
  246MOL0     C32378   2.642  10.731  -1.214 -0.2252  1.2364 -0.7545
  246MOL0     C32379   2.723  10.639  -1.318  0.4433 -0.1052  0.4851
  246MOL0     C32380   2.781  10.712  -1.431 -0.7792 -0.3000  0.1726
  246MOL0     C32381   2.878  10.823  -1.398 -0.0571 -0.1969 -0.9573
  246MOL0     C32382   2.962  10.865  -1.519 -0.4342 -0.0874  0.4860
  246MOL0     C32383   3.015  10.998  -1.496 -0.4189 -0.8042 -0.3165
  246MOL0    Cl32384   3.123  11.029  -1.639  0.0649  0.5097  0.5222
  246MOL0     C32385   2.400  10.226  -1.039  0.7316 -0.1384 -0.4437
  246MOL0     C32386   2.416  10.094  -1.000 -0.0595  0.0285 -0.4560
  246MOL0     O32387   2.729   9.897  -0.771  0.0416  0.3659 -0.2026
  246MOL0     C32388   2.454   9.669  -0.772 -1.0839  1.6330  0.4898
  246MOL0     C32389   2.427   9.535  -0.768  0.0782 -0.2905  0.3714
  246MOL0     N32390   2.250   8.864  -0.486 -0.1064 -0.5809 -0.8191
  246MOL0     N32391   2.181   8.885  -0.382 -0.1105  0.5314  0.1794
  246MOL0     C32392   2.830   8.506   0.550 -1.3737  0.0985  0.2638
  246MOL0     C32393   2.941   8.473   0.470  0.1579 -0.1254  0.1181
  246MOL0     C32394   3.261   8.398   0.214 -0.1776  0.6810  0.1171
  246MOL0     C32395   3.350   8.497   0.253 -0.0682 -0.4564 -0.4895
  246MOL0     C32396   3.480   8.468   0.241  0.2588 -0.5189  0.4431
  246MOL0     C32397   3.529   8.360   0.167  0.5486 -1.3790 -0.8722
  246MOL0     O32398   3.663   8.343   0.152 -0.0107 -0.9656  0.0324
  246MOL0     C32399   3.715   8.262   0.042  0.6859 -0.2527 -0.1844
  246MOL0     C32400   3.869   8.247   0.050 -0.0785 -0.4278 -0.4172
  246MOL0     C32401   3.928   8.291   0.192 -0.5325  0.3614 -0.4008
  246MOL0     C32402   4.076   8.276   0.190  0.4687  0.0544 -0.2910
  246MOL0     C32403   4.148   8.380   0.123 -0.8518 -0.6980  0.0241
  246MOL0     C32404   4.213   8.459   0.059 -1.3354 -0.7915 -0.4351
  246MOL0     C32405   3.434   8.271   0.119 -0.6027  0.9361  0.6187
  246MOL0     C32406   3.302   8.285   0.148  1.0646  0.8992 -0.4350
  246MOL0     H32407   2.968   8.762   0.304  2.8041  1.8834  1.8700
  246MOL0     H32408   2.767   8.819   0.434  2.5344  0.3580 -4.4153
  246MOL0     H32409   2.558   8.779   0.512  0.1246  0.1690 -0.1795
  246MOL0     H32410   2.454   8.689   0.631 -0.8653 -1.8191  0.3917
  246MOL0     H32411   2.499   8.474   0.490 -2.9173 -0.9920 -0.9430
  246MOL0     H32412   2.555   8.589   0.367  1.4402  0.1468  1.5165
  246MOL0     H32413   2.299   8.625   0.530  4.9420  0.9512  2.4098
  246MOL0     H32414   2.309   8.525   0.370  1.0444  1.1419 -0.6660
  246MOL0     H32415   2.208   8.759   0.367 -0.3182  0.7211  2.1703
  246MOL0     H32416   2.379   8.810   0.394  1.7325 -1.3406 -0.2783
  246MOL0     H32417   2.344   8.592   0.183 -1.3397 -0.5795 -2.7451
  246MOL0     H32418   2.451   8.739   0.201 -0.6952  2.5528  2.6494
  246MOL0     H32419   2.237   8.874   0.121 -0.2193 -0.7670  1.2928
  246MOL0     H32420   2.146   8.712   0.098  0.5808 -2.6107 -0.9102
  246MOL0     H32421   2.397   8.783  -0.045  0.1999 -2.5800 -1.1054
  246MOL0     H32422   2.267   8.673  -0.082  0.2084 -1.0299  2.9172
  246MOL0     H32423   2.203   8.973  -0.086 -1.3278  0.7242 -2.0828
  246MOL0     H32424   2.099   8.854  -0.122  0.2784 -0.7779 -0.8640
  246MOL0     H32425   2.476   8.839  -0.247 -0.0778 -0.7075  0.2860
  246MOL0     H32426   2.473   8.769  -0.638  3.7497  0.8736 -1.1634
  246MOL0     H32427   2.563   8.760  -0.487 -3.8212 -0.9334  3.2962
  246MOL0     H32428   2.659   8.935  -0.635 -0.5011 -2.7447  0.4803
  246MOL0     H32429   2.607   9.003  -0.479 -1.6749 -1.8374  1.3690
  246MOL0     H32430   2.468   9.014  -0.744  1.5438 -0.2249  0.1130
  246MOL0     H32431   2.392   9.081  -0.597 -0.2971 -0.5030 -0.7532
  246MOL0     H32432   2.624   9.182  -0.758 -2.7128  1.9598 -1.9377
  246MOL0     H32433   2.613   9.231  -0.584 -2.1870  1.1288  1.2929
  246MOL0     H32434   2.728   9.396  -0.740 -0.6791 -1.1795 -0.2354
  246MOL0     H32435   2.786   9.654  -0.778  1.1077 -2.6752  1.2767
  246MOL0     H32436   2.700  10.133  -0.817  0.6251 -2.8507 -2.5663
  246MOL0     H32437   2.672  10.358  -0.875 -0.9228  1.4440 -0.6212
  246MOL0     H32438   2.646  10.484  -1.146 -0.3883  2.0604 -1.6912
  246MOL0     H32439   2.621  10.567  -0.984  2.1662  1.3576 -1.3466
  246MOL0     H32440   2.476  10.726  -1.086  0.4900  1.6633 -1.5668
  246MOL0     H32441   2.459  10.628  -1.235  1.7315 -2.8021 -1.0006
  246MOL0     H32442   2.709  10.774  -1.139 -2.4711 -0.4526  2.4665
  246MOL0     H32443   2.599  10.811  -1.276 -2.0311 -0.5545 -1.9565
  246MOL0     H32444   2.801  10.582  -1.265 -2.8078 -2.7672  2.8797
  246MOL0     H32445   2.657  10.563  -1.361  1.7854 -0.3996 -1.1697
  246MOL0     H32446   2.701  10.755  -1.493  0.9942 -0.2720 -2.2366
  246MOL0     H32447   2.836  10.639  -1.491  1.2915  1.2774  0.0600
  246MOL0     H32448   2.940  10.785  -1.316 -0.6110  1.9955  0.5478
  246MOL0     H32449   2.834  10.906  -1.343  0.0719  0.0145 -1.1688
  246MOL0     H32450   3.038  10.788  -1.537 -2.4594 -2.0752 -0.0364
  246MOL0     H32451   2.906  10.858  -1.612  0.2368 -0.6651  0.1120
  246MOL0     H32452   3.074  11.002  -1.404  1.3304  2.6991 -1.4298
  246MOL0     H32453   2.935  11.072  -1.489 -1.1043 -1.6716  2.3822
  246MOL0     H32454   2.318  10.261  -1.101 -0.5410  0.7920  1.6333
  246MOL0     H32455   2.352  10.016  -1.040 -0.9300 -0.0082  0.9456
  246MOL0     H32456   2.373   9.742  -0.772  1.2399  4.4148  0.7422
  246MOL0     H32457   2.325   9.504  -0.786  0.2796  0.5013 -2.6771
  246MOL0     H32458   2.790   8.434   0.621 -2.3843 -2.2089 -2.4764
  246MOL0     H32459   2.989   8.376   0.481  1.5585  0.5542  0.2603
  246MOL0     H32460   3.313   8.588   0.298 -0.2165 -1.6254  1.9592
  246MOL0     H32461   3.557   8.537   0.274  2.7473 -1.9410 -1.9396
  246MOL0     H32462   3.704   8.308  -0.057  0.1948 -1.9809 -0.9542
  246MOL0     H32463   3.668   8.164   0.032  1.2525 -0.4187 -1.4482
  246MOL0     H32464   3.880   8.141   0.026  1.0444 -0.0140 -1.8672
  246MOL0     H32465   3.926   8.302  -0.025  1.3014 -2.4362 -0.9138
  246MOL0     H32466   3.888   8.236   0.278 -0.7853  1.1992  0.0339
  246MOL0     H32467   3.900   8.393   0.218 -3.3559 -0.1796 -1.0474
  246MOL0     H32468   4.109   8.235   0.286  1.2460 -3.4313 -1.8700
  246MOL0     H32469   4.092   8.182   0.136 -1.2263 -1.3908  1.5682
  246MOL0     H32470   4.271   8.531   0.006 -2.1680  0.1915 -0.0506
  246MOL0     H32471   3.464   8.171   0.092  0.1954  1.1635  0.6315
  246MOL0     H32472   3.226   8.214   0.117  1.3840 -0.8133  2.3538
  247MOL0     O32473   4.750   0.411   5.573 -0.7978  1.0660  0.3526
  247MOL0     C32474   4.738   0.382   5.695 -0.0005  0.7016 -0.0088
  247MOL0     O32475   4.841   0.352   5.783 -0.1178  0.6448  0.4179
  247MOL0     C32476   4.972   0.319   5.754 -0.3586  0.2772 -1.1640
  247MOL0     C32477   5.033   0.307   5.634  0.3310  0.5312  0.4662
  247MOL0     C32478   5.165   0.274   5.632 -0.3870 -0.1645  0.2163
  247MOL0     C32479   5.240   0.242   5.749 -0.0588  0.2043  1.0150
  247MOL0     O32480   5.368   0.196   5.753  0.3083  0.4115  0.8787
  247MOL0     C32481   5.455   0.205   5.637 -0.1451 -0.3433 -0.5155
  247MOL0     C32482   5.603   0.207   5.691  0.1140 -0.0057 -0.7681
  247MOL0     C32483   5.631   0.063   5.752  0.6522 -1.2157 -0.8060
  247MOL0     C32484   5.777   0.031   5.745  0.0241  0.1843  0.1491
  247MOL0     C32485   5.801  -0.106   5.803 -0.2329  0.2070  0.0936
  247MOL0     C32486   5.949  -0.145   5.801 -0.4810  0.3462  0.5050
  247MOL0     C32487   6.012  -0.126   5.940 -0.3284  0.4565  0.3685
  247MOL0     C32488   5.967  -0.220   6.050  1.1547 -0.4917  0.4543
  247MOL0     N32489   5.839  -0.182   6.111 -0.1796 -0.6565 -0.6736
  247MOL0     C32490   5.744  -0.258   6.172  0.1082  0.0024 -0.0110
  247MOL0     C32491   5.678  -0.182   6.264  0.6755 -0.0789 -0.8842
  247MOL0     C32492   5.558  -0.218   6.356 -0.4305  0.5657 -0.0108
  247MOL0     C32493   5.458  -0.276   6.264 -0.2442  0.4480 -0.4614
  247MOL0     C32494   5.351  -0.313   6.356  0.3428  0.1194 -0.8696
  247MOL0     C32495   5.245  -0.379   6.276  0.0955 -0.3118  0.2404
  247MOL0     O32496   5.148  -0.437   6.365 -0.0527  0.7448 -0.3150
  247MOL0     C32497   5.038  -0.480   6.294  0.9009 -0.4061 -0.7984
  247MOL0     C32498   5.021  -0.480   6.159  0.6144  0.1174 -0.0435
  247MOL0     C32499   4.903  -0.531   6.111  1.3023 -0.1132  0.1248
  247MOL0     C32500   4.797  -0.575   6.195 -0.1498  0.0189 -0.5655
  247MOL0     C32501   4.670  -0.624   6.139 -0.3906  0.3996  0.9994
  247MOL0     O32502   4.663  -0.641   6.007 -0.8120 -0.0963 -0.0809
  247MOL0     C32503   4.538  -0.646   5.943 -0.5424  0.4941 -0.9844
  247MOL0     C32504   4.500  -0.527   5.873 -0.1389 -0.1252 -0.9780
  247MOL0     C32505   4.380  -0.509   5.814  0.0135  0.8716  0.2862
  247MOL0     C32506   4.278  -0.612   5.825 -0.0762  0.2390 -0.2561
  247MOL0     O32507   4.153  -0.612   5.769  0.0847 -0.0452 -0.4815
  247MOL0     C32508   4.114  -0.491   5.707  0.0682  0.7073 -0.1405
  247MOL0     C32509   3.977  -0.509   5.647 -0.8256 -0.1906 -0.7630
  247MOL0     C32510   3.856  -0.481   5.732  0.3814  0.5784 -0.0684
  247MOL0     C32511   3.738  -0.522   5.650  0.1864 -1.0020 -0.8965
  247MOL0     C32512   3.629  -0.413   5.623 -0.8965  1.2030 -0.8510
  247MOL0     C32513   3.656  -0.331   5.498  0.2513  0.3226 -1.2076
  247MOL0     C32514   3.675  -0.399   5.362  0.1261  0.0832 -0.0132
  247MOL0     C32515   3.550  -0.489   5.328  0.1629 -0.7225 -0.5371
  247MOL0    Cl32516   3.529  -0.637   5.425  0.0377 -0.2477 -0.2125
  247MOL0     C32517   4.320  -0.735   5.887  0.5357  0.6501 -0.7033
  247MOL0     C32518   4.444  -0.752   5.955  0.2733 -0.7820  1.2032
  247MOL0     O32519   4.571  -0.626   6.214 -0.0447 -0.3365 -0.3879
  247MOL0     C32520   4.804  -0.545   6.329 -1.0534  0.6697  0.2064
  247MOL0     C32521   4.931  -0.517   6.385  0.3573  0.4160 -0.8562
  247MOL0     N32522   5.730  -0.052   6.251 -0.0803 -0.0296 -0.0007
  247MOL0     N32523   5.828  -0.052   6.169  0.6029  0.6813  0.2690
  247MOL0     C32524   5.172   0.246   5.865  0.1438 -0.1300 -0.3350
  247MOL0     C32525   5.040   0.277   5.871  0.4174 -1.0763 -0.2489
  247MOL0     C32526   4.602   0.387   5.750 -0.1913 -0.1487  1.7449
  247MOL0     C32527   4.496   0.388   5.653  0.2997  0.6484 -0.0646
  247MOL0     C32528   4.362   0.415   5.701 -0.2440 -0.4430  0.2757
  247MOL0     C32529   4.339   0.416   5.836  0.3354 -0.6234 -0.6120
  247MOL0     O32530   4.208   0.429   5.882 -0.0437  0.8478 -0.0874
  247MOL0     C32531   4.169   0.425   6.022  1.1373  0.6147  0.1523
  247MOL0     C32532   4.025   0.460   6.050 -0.4759  0.3905 -0.1030
  247MOL0     C32533   3.926   0.374   5.962  0.2841  1.1964  0.1257
  247MOL0     C32534   3.784   0.365   6.017  0.2111 -0.2288 -0.0257
  247MOL0     C32535   3.751   0.491   6.083 -0.0791 -0.2552  0.4913
  247MOL0     C32536   3.707   0.585   6.143  0.1782 -1.0191  0.6771
  247MOL0     C32537   4.439   0.388   5.936  0.1410  0.1263  0.1043
  247MOL0     C32538   4.571   0.381   5.890  0.9063 -0.2549  0.0527
  247MOL0     H32539   4.981   0.339   5.544 -2.3373  1.5923  2.2526
  247MOL0     H32540   5.225   0.259   5.544  2.9198  3.6427  1.4784
  247MOL0     H32541   5.436   0.288   5.569  0.6222 -0.4237 -0.8462
  247MOL0     H32542   5.439   0.119   5.570 -0.8794  0.5139 -1.4692
  247MOL0     H32543   5.606   0.285   5.767 -0.1224  0.1939 -0.9642
  247MOL0     H32544   5.672   0.229   5.609 -1.4946  0.0981 -2.1368
  247MOL0     H32545   5.589  -0.017   5.689 -0.8063 -0.2905 -1.0280
  247MOL0     H32546   5.590   0.044   5.851 -0.2517  0.6638 -0.7796
  247MOL0     H32547   5.799   0.028   5.638  4.0080 -0.0443  0.8183
  247MOL0     H32548   5.839   0.108   5.793 -0.9576 -0.0582  1.9147
  247MOL0     H32549   5.740  -0.169   5.738  0.0730  2.4214 -2.5407
  247MOL0     H32550   5.766  -0.093   5.906  0.6729  0.0109  0.4416
  247MOL0     H32551   6.002  -0.079   5.732 -0.6094 -1.1277 -1.0726
  247MOL0     H32552   5.971  -0.250   5.782 -1.8738 -0.3057  2.1964
  247MOL0     H32553   6.115  -0.162   5.930 -0.5092 -0.5001  1.6134
  247MOL0     H32554   6.009  -0.022   5.974 -0.9961  1.0203 -1.2941
  247MOL0     H32555   6.037  -0.199   6.130  1.1382  2.0875 -0.1214
  247MOL0     H32556   5.960  -0.326   6.021  2.1250 -0.1038 -1.3232
  247MOL0     H32557   5.735  -0.366   6.163 -1.7085 -0.1937  2.6728
  247MOL0     H32558   5.530  -0.126   6.409  1.4725  0.0698  2.0052
  247MOL0     H32559   5.586  -0.284   6.438  2.0162 -0.8516 -1.8543
  247MOL0     H32560   5.497  -0.363   6.210  1.0268  1.7297 -1.7092
  247MOL0     H32561   5.423  -0.205   6.188  0.7565  1.0502 -0.3778
  247MOL0     H32562   5.386  -0.384   6.432  1.3349 -0.6351 -1.9897
  247MOL0     H32563   5.308  -0.225   6.405 -0.2087  1.7429 -4.0005
  247MOL0     H32564   5.290  -0.438   6.196 -0.5692  1.2424 -1.3321
  247MOL0     H32565   5.198  -0.299   6.219  0.5885 -1.1883 -1.4691
  247MOL0     H32566   5.084  -0.436   6.083  1.4084 -1.9678 -0.6443
  247MOL0     H32567   4.892  -0.543   6.003  0.2020  2.1862 -0.0774
  247MOL0     H32568   4.571  -0.446   5.856 -1.8402  1.1378 -2.5581
  247MOL0     H32569   4.358  -0.420   5.757 -1.6345 -0.1777 -0.7960
  247MOL0     H32570   4.188  -0.481   5.627  0.5865 -1.6632 -0.0277
  247MOL0     H32571   4.125  -0.410   5.780  0.3048  0.2790  0.3021
  247MOL0     H32572   3.992  -0.610   5.606  1.5627 -1.2938  2.4253
  247MOL0     H32573   3.972  -0.440   5.562 -0.0529  0.3840 -0.3474
  247MOL0     H32574   3.853  -0.375   5.759 -1.0935  1.0272 -1.7710
  247MOL0     H32575   3.863  -0.528   5.830  2.9384 -1.1702 -0.9621
  247MOL0     H32576   3.766  -0.565   5.554  2.9201 -4.4803  1.1795
  247MOL0     H32577   3.694  -0.609   5.699  0.5774 -2.3976 -2.9099
  247MOL0     H32578   3.614  -0.340   5.703  2.2360  1.3002 -0.2264
  247MOL0     H32579   3.533  -0.467   5.618  1.3732 -3.2219 -2.3844
  247MOL0     H32580   3.751  -0.280   5.514 -0.4289  1.3138 -0.2067
  247MOL0     H32581   3.569  -0.267   5.484 -0.5384 -0.1939  0.9579
  247MOL0     H32582   3.689  -0.331   5.277  1.2530  0.1073  0.1805
  247MOL0     H32583   3.764  -0.460   5.378 -0.6910 -0.9464  0.7128
  247MOL0     H32584   3.557  -0.530   5.227  0.0978 -1.1270 -0.3795
  247MOL0     H32585   3.458  -0.431   5.334 -0.0116 -0.7835 -2.2322
  247MOL0     H32586   4.241  -0.809   5.895  0.8719  0.2569 -1.0010
  247MOL0     H32587   4.475  -0.844   6.003 -0.2195 -2.0269 -0.7414
  247MOL0     H32588   4.721  -0.552   6.398  0.8617  0.3823  2.6656
  247MOL0     H32589   4.943  -0.508   6.492  0.5084 -0.8295 -0.7497
  247MOL0     H32590   5.222   0.209   5.954  0.4200  0.9448 -0.0178
  247MOL0     H32591   4.981   0.283   5.962  0.5103  2.2649 -0.2912
  247MOL0     H32592   4.513   0.389   5.546  3.8626 -0.3493  0.3689
  247MOL0     H32593   4.284   0.418   5.626  2.3608 -1.9923 -2.7358
  247MOL0     H32594   4.226   0.501   6.077  0.8336 -0.7293  2.4459
  247MOL0     H32595   4.187   0.326   6.064  0.0229 -0.5116 -1.8737
  247MOL0     H32596   4.019   0.432   6.155 -3.1348 -3.9482 -1.1319
  247MOL0     H32597   4.015   0.563   6.016 -0.6390  0.0245 -1.2422
  247MOL0     H32598   3.966   0.273   5.949  2.3519  1.9747  0.0516
  247MOL0     H32599   3.916   0.424   5.866 -0.7819  0.1114 -0.3491
  247MOL0     H32600   3.713   0.339   5.937  0.8481 -0.5932 -0.4817
  247MOL0     H32601   3.777   0.287   6.094 -3.4365 -2.1663 -1.9947
  247MOL0     H32602   3.686   0.662   6.215 -0.5282 -2.4667  2.0917
  247MOL0     H32603   4.419   0.386   6.043 -3.2886 -0.0209 -0.4277
  247MOL0     H32604   4.655   0.377   5.960  2.7743 -1.3094 -2.1167
  248MOL0     O32605   8.593   4.563   3.026  0.0771  0.8591 -0.3584
  248MOL0     C32606   8.574   4.456   2.966  0.5801 -0.5063  1.3352
  248MOL0     O32607   8.652   4.347   2.974 -0.6623  0.5532 -0.5438
  248MOL0     C32608   8.775   4.341   3.043  1.1509 -0.0587  0.1239
  248MOL0     C32609   8.814   4.219   3.090  0.0653 -0.0515  0.0048
  248MOL0     C32610   8.932   4.212   3.166  0.7444 -0.3044  0.3346
  248MOL0     C32611   9.015   4.325   3.185 -0.1631 -0.2931  0.3103
  248MOL0     O32612   9.144   4.307   3.247  0.5140 -0.4060  0.8436
  248MOL0     C32613   9.176   4.185   3.306 -1.2364 -0.2188  0.0831
  248MOL0     C32614   9.220   4.092   3.192 -0.2859  1.6344  0.1269
  248MOL0     C32615   9.341   4.007   3.233  0.1470 -0.3369  0.5949
  248MOL0     C32616   9.325   3.930   3.371 -0.7950 -0.6751 -0.2667
  248MOL0     C32617   9.460   3.878   3.423 -0.7013 -0.2105  0.8331
  248MOL0     C32618   9.523   3.767   3.346 -0.6615  0.6304 -0.0879
  248MOL0     C32619   9.646   3.695   3.421 -0.0071 -0.5026  0.0353
  248MOL0     C32620   9.786   3.759   3.429  0.6014  0.5001  0.2739
  248MOL0     N32621   9.888   3.672   3.494  0.0508  0.0947 -0.1224
  248MOL0     C32622   9.985   3.606   3.422  0.5374  0.8773 -0.8176
  248MOL0     C32623  10.023   3.507   3.504  0.0147  0.3890  0.2210
  248MOL0     C32624  10.143   3.427   3.472 -0.6620 -0.0720 -1.3517
  248MOL0     C32625  10.282   3.478   3.528 -0.3032  0.4399 -0.6186
  248MOL0     C32626  10.403   3.416   3.461 -0.2763 -0.1981 -0.3195
  248MOL0     C32627  10.526   3.440   3.553 -0.0104  0.2541 -0.7330
  248MOL0     O32628  10.571   3.575   3.543  0.3690 -0.5664 -0.2593
  248MOL0     C32629  10.675   3.619   3.613 -0.8356  0.0289  0.1336
  248MOL0     C32630  10.718   3.750   3.577 -0.1604 -0.0930 -0.6948
  248MOL0     C32631  10.845   3.793   3.629  1.1429 -0.4818  0.1803
  248MOL0     C32632  10.930   3.711   3.704  0.4825  0.2927  0.7755
  248MOL0     C32633  11.046   3.771   3.767 -1.0467  0.5261 -0.4983
  248MOL0     O32634  11.072   3.904   3.759 -0.1329  0.2615  0.3708
  248MOL0     C32635  11.203   3.936   3.789 -0.0283 -0.4792 -0.5337
  248MOL0     C32636  11.236   3.998   3.907 -0.0503  0.0435 -0.2318
  248MOL0     C32637  11.373   4.043   3.930 -0.2350 -0.4333 -0.0139
  248MOL0     C32638  11.470   4.020   3.837 -0.0263  0.2140 -0.5434
  248MOL0     O32639  11.598   4.069   3.857  0.2708 -0.0591  1.2788
  248MOL0     C32640  11.670   4.057   3.975  0.5356  0.3215 -0.2449
  248MOL0     C32641  11.739   3.928   3.967 -0.4107  0.9319 -0.8037
  248MOL0     C32642  11.828   3.913   3.839  0.3929 -0.0228 -0.4613
  248MOL0     C32643  11.871   3.768   3.815  0.9087 -0.9287  0.3324
  248MOL0     C32644  11.914   3.743   3.666 -0.2335 -0.3022 -0.0408
  248MOL0     C32645  12.048   3.813   3.636  0.5319  0.2979 -0.3386
  248MOL0     C32646  12.087   3.813   3.492  0.1291  0.4196  0.6622
  248MOL0     C32647  12.193   3.917   3.445 -0.5891 -0.6240  0.0903
  248MOL0    Cl32648  12.311   3.944   3.582 -0.2900 -0.4146 -0.3459
  248MOL0     C32649  11.437   3.936   3.730  0.1174  0.0218  0.5783
  248MOL0     C32650  11.303   3.904   3.704 -0.5249  0.1393  0.4419
  248MOL0     O32651  11.115   3.694   3.837 -0.4919  0.2803 -0.1569
  248MOL0     C32652  10.880   3.590   3.739  0.2952  0.3830 -0.6096
  248MOL0     C32653  10.759   3.544   3.695  0.3228  0.5185 -0.5335
  248MOL0     N32654   9.944   3.501   3.612  0.1030 -0.4176  0.2623
  248MOL0     N32655   9.865   3.607   3.613 -0.2136 -0.0445  0.5214
  248MOL0     C32656   8.971   4.445   3.128 -1.0924  0.5582  0.0808
  248MOL0     C32657   8.846   4.462   3.068 -0.3520  0.2953  0.6216
  248MOL0     C32658   8.458   4.444   2.864 -1.4818  0.0653  0.0601
  248MOL0     C32659   8.381   4.331   2.859  0.6940  0.2898  0.3565
  248MOL0     C32660   8.272   4.327   2.771  0.7109  0.1510 -0.0243
  248MOL0     C32661   8.232   4.439   2.702  0.0644  0.0993 -0.8110
  248MOL0     O32662   8.121   4.435   2.615 -0.4066  0.3652 -0.2794
  248MOL0     C32663   8.128   4.494   2.478 -0.6618  0.8519 -0.0958
  248MOL0     C32664   8.018   4.426   2.384 -0.5631 -0.6856 -0.2506
  248MOL0     C32665   7.883   4.404   2.451  0.3233  0.0662  0.1444
  248MOL0     C32666   7.814   4.296   2.362  0.0679  0.3918  0.0457
  248MOL0     C32667   7.675   4.272   2.405  0.6513 -0.1264  0.5693
  248MOL0     C32668   7.561   4.260   2.445 -0.9089  0.5997  0.4076
  248MOL0     C32669   8.307   4.558   2.718  0.2320  0.0902  0.8423
  248MOL0     C32670   8.422   4.554   2.794 -0.1427 -0.3785 -0.2673
  248MOL0     H32671   8.748   4.136   3.066  1.8165 -1.8592  1.1800
  248MOL0     H32672   8.958   4.114   3.204 -0.7393 -0.5724  0.7449
  248MOL0     H32673   9.106   4.144   3.380  0.4747 -2.3084  0.6287
  248MOL0     H32674   9.259   4.226   3.364 -2.5394  0.7138  1.3572
  248MOL0     H32675   9.257   4.138   3.100 -0.7496 -1.2205 -1.6048
  248MOL0     H32676   9.145   4.018   3.165  1.2328  0.2813 -0.5467
  248MOL0     H32677   9.423   4.079   3.243 -0.1133 -0.3232  4.1759
  248MOL0     H32678   9.363   3.934   3.155 -1.4462  0.8474 -1.0224
  248MOL0     H32679   9.276   3.999   3.440 -1.4864 -0.3869 -1.0300
  248MOL0     H32680   9.254   3.850   3.348 -3.8135  1.9798 -0.9090
  248MOL0     H32681   9.457   3.865   3.531 -0.1545  1.9617  1.1533
  248MOL0     H32682   9.527   3.964   3.421  2.1607 -2.2718  1.1077
  248MOL0     H32683   9.560   3.799   3.248 -2.1871  0.0083 -0.9119
  248MOL0     H32684   9.455   3.688   3.312  2.3658 -1.0807 -2.8086
  248MOL0     H32685   9.612   3.670   3.521 -1.1310  1.1884  0.1150
  248MOL0     H32686   9.679   3.606   3.367  5.0642  0.2670  1.3487
  248MOL0     H32687   9.785   3.859   3.474 -0.2550  0.7095 -0.1860
  248MOL0     H32688   9.812   3.765   3.323  1.9992 -3.8907  0.1520
  248MOL0     H32689  10.012   3.632   3.320  1.4903  1.8575 -0.3404
  248MOL0     H32690  10.157   3.407   3.365  0.5514 -1.2254 -1.0157
  248MOL0     H32691  10.132   3.327   3.515 -0.1849  1.2588  2.1671
  248MOL0     H32692  10.272   3.480   3.637 -2.8574 -0.3074 -0.7715
  248MOL0     H32693  10.282   3.585   3.504  0.6148  0.3556 -1.0207
  248MOL0     H32694  10.375   3.312   3.441 -3.3476  1.0315 -3.3747
  248MOL0     H32695  10.415   3.476   3.371 -3.5577 -0.0646 -0.7813
  248MOL0     H32696  10.602   3.370   3.515 -0.6502 -1.5527  1.1471
  248MOL0     H32697  10.501   3.410   3.655  0.9515 -0.3727 -0.6635
  248MOL0     H32698  10.659   3.802   3.502 -0.3557  0.0431 -0.4488
  248MOL0     H32699  10.895   3.884   3.597 -1.8634  0.4119 -2.4634
  248MOL0     H32700  11.170   4.018   3.990  1.1568  1.8912  0.3429
  248MOL0     H32701  11.393   4.112   4.011  0.5078 -0.7259  0.0544
  248MOL0     H32702  11.606   4.061   4.064 -1.0109 -2.1235 -1.1504
  248MOL0     H32703  11.729   4.149   3.980 -0.8213  1.1508  1.7319
  248MOL0     H32704  11.663   3.850   3.964  3.2358 -3.2086  1.8384
  248MOL0     H32705  11.795   3.909   4.059  0.6178  1.3939 -1.3124
  248MOL0     H32706  11.911   3.984   3.849 -0.0459  0.3814  0.4026
  248MOL0     H32707  11.770   3.952   3.754 -0.8150 -1.4666 -0.3463
  248MOL0     H32708  11.947   3.736   3.887  0.9178  1.0484  1.2835
  248MOL0     H32709  11.782   3.704   3.818 -1.0231  1.5835  0.3135
  248MOL0     H32710  11.838   3.779   3.597  1.8944  1.1217 -1.7726
  248MOL0     H32711  11.908   3.637   3.642  1.1231 -0.5634  0.6899
  248MOL0     H32712  12.123   3.758   3.694 -0.2629  0.3428  0.7586
  248MOL0     H32713  12.045   3.920   3.660 -2.4431 -0.3688  3.1371
  248MOL0     H32714  12.130   3.716   3.465 -1.0164  0.5868 -1.9870
  248MOL0     H32715  12.003   3.831   3.425  0.9236  2.5174  0.1599
  248MOL0     H32716  12.145   4.014   3.426 -1.0205 -1.0600 -1.1363
  248MOL0     H32717  12.245   3.895   3.352  0.0428 -0.4932  0.4078
  248MOL0     H32718  11.520   3.898   3.673 -1.0835 -2.5947  0.4132
  248MOL0     H32719  11.295   3.837   3.619 -1.3283  0.7077  0.0614
  248MOL0     H32720  10.934   3.527   3.810 -3.1636 -0.7672  1.2113
  248MOL0     H32721  10.737   3.442   3.723 -2.2839  1.3024  0.6501
  248MOL0     H32722   9.028   4.532   3.160 -0.5294 -0.5705  2.3145
  248MOL0     H32723   8.818   4.559   3.028 -0.3185 -0.3070 -0.9488
  248MOL0     H32724   8.395   4.245   2.924 -0.9954  0.6860  1.3038
  248MOL0     H32725   8.211   4.239   2.756 -3.3117  3.0852 -2.5855
  248MOL0     H32726   8.229   4.470   2.444  0.4951  0.2488  3.3973
  248MOL0     H32727   8.114   4.602   2.489  2.3622  1.1759  1.6514
  248MOL0     H32728   8.007   4.485   2.292 -1.2578  0.3607  0.4818
  248MOL0     H32729   8.056   4.328   2.355  3.2569  0.2391  0.9793
  248MOL0     H32730   7.825   4.496   2.449 -1.2098 -0.8743 -0.2144
  248MOL0     H32731   7.907   4.356   2.547  0.1245 -0.8370 -0.2426
  248MOL0     H32732   7.827   4.315   2.256 -1.2156  1.6078  0.0751
  248MOL0     H32733   7.870   4.204   2.380  0.2835  0.6870  0.9706
  248MOL0     H32734   7.474   4.223   2.496 -0.4606 -3.0136 -1.1560
  248MOL0     H32735   8.276   4.644   2.659  2.6792 -0.4897 -1.5000
  248MOL0     H32736   8.483   4.643   2.804 -2.6375  1.2228  2.9948
  249MOL0     O32737   7.197   0.739  10.053  0.6497 -0.3442  0.2446
  249MOL0     C32738   7.201   0.866  10.063 -0.6705 -0.2093  0.2144
  249MOL0     O32739   7.119   0.957  10.007  0.0106 -1.3490  0.1349
  249MOL0     C32740   7.011   0.920   9.933  0.2493 -0.4238  0.0540
  249MOL0     C32741   6.920   1.029   9.906 -0.3575 -0.5848  0.0761
  249MOL0     C32742   6.806   1.012   9.822  0.6296  0.7336 -1.0400
  249MOL0     C32743   6.777   0.886   9.772 -0.0103 -0.3121 -0.8910
  249MOL0     O32744   6.665   0.867   9.695 -0.2514  0.1039  0.7006
  249MOL0     C32745   6.539   0.914   9.743 -0.8220  0.4734 -0.0017
  249MOL0     C32746   6.428   0.901   9.639 -0.1527  1.0740  0.1014
  249MOL0     C32747   6.367   0.763   9.642  0.2426  0.0696  0.1122
  249MOL0     C32748   6.266   0.742   9.751 -0.5616 -0.4722 -0.3972
  249MOL0     C32749   6.204   0.598   9.752 -0.7447 -0.3099  0.2273
  249MOL0     C32750   6.119   0.560   9.624 -0.5770 -0.9750 -0.9447
  249MOL0     C32751   5.972   0.599   9.655 -0.3141 -0.2129  0.2960
  249MOL0     C32752   5.875   0.559   9.545  0.2105  0.4602 -0.2277
  249MOL0     N32753   5.740   0.527   9.605  0.4544 -0.5134 -0.0113
  249MOL0     C32754   5.684   0.407   9.614 -0.8568  0.4103  0.3755
  249MOL0     C32755   5.563   0.425   9.668 -0.5233 -0.6575 -0.4121
  249MOL0     C32756   5.450   0.334   9.670  0.2102  0.5972  0.1679
  249MOL0     C32757   5.340   0.355   9.582 -0.9931  0.4027 -0.5624
  249MOL0     C32758   5.230   0.241   9.585 -0.2674  0.4168  0.4424
  249MOL0     C32759   5.120   0.254   9.469 -0.9995  0.8225  0.4878
  249MOL0     O32760   5.169   0.242   9.334  0.8113  1.4307 -0.1637
  249MOL0     C32761   5.076   0.276   9.243  0.0555 -0.6408  0.1296
  249MOL0     C32762   5.121   0.286   9.112 -0.2452 -0.2273  0.3244
  249MOL0     C32763   5.035   0.331   9.012 -0.8737 -0.1830  0.6131
  249MOL0     C32764   4.901   0.355   9.032  0.8725 -0.0179  0.3677
  249MOL0     C32765   4.814   0.370   8.919 -0.5362  0.1628 -0.1272
  249MOL0     O32766   4.682   0.398   8.941 -0.2300 -0.5479 -0.2410
  249MOL0     C32767   4.596   0.362   8.838 -0.0711  0.1327 -0.6728
  249MOL0     C32768   4.562   0.461   8.732 -0.2220 -0.3412 -0.1875
  249MOL0     C32769   4.464   0.424   8.638 -0.1635 -0.4434  0.3830
  249MOL0     C32770   4.414   0.298   8.637 -0.2302 -0.8869 -0.3729
  249MOL0     O32771   4.318   0.259   8.552  0.7336  0.1073  0.0268
  249MOL0     C32772   4.274   0.340   8.450  0.1002 -0.4861  0.6301
  249MOL0     C32773   4.151   0.281   8.382 -0.3014  0.1189  0.2608
  249MOL0     C32774   4.185   0.147   8.313  0.0363 -1.2808  0.0764
  249MOL0     C32775   4.058   0.095   8.255  0.2425 -1.2421  0.0077
  249MOL0     C32776   4.077  -0.025   8.155 -0.3858 -0.4076  0.4061
  249MOL0     C32777   3.939  -0.068   8.094 -0.8705 -0.6356 -0.6717
  249MOL0     C32778   3.848  -0.163   8.176 -0.0065 -0.6317 -1.0032
  249MOL0     C32779   3.727  -0.197   8.105  0.0096 -0.7421  0.0255
  249MOL0    Cl32780   3.633  -0.301   8.200 -0.0583  0.0172 -0.5768
  249MOL0     C32781   4.431   0.212   8.747 -0.9364 -0.1012  1.0480
  249MOL0     C32782   4.532   0.235   8.839 -1.1099  0.2423 -0.6606
  249MOL0     O32783   4.859   0.336   8.807 -0.2826  0.5699 -0.2948
  249MOL0     C32784   4.848   0.348   9.167  0.2701  0.2800 -0.2891
  249MOL0     C32785   4.941   0.309   9.269  0.6885 -0.1129 -0.4225
  249MOL0     N32786   5.557   0.559   9.688  1.0785 -0.1275 -0.0631
  249MOL0     N32787   5.661   0.617   9.660  0.0188 -0.6963  0.2184
  249MOL0     C32788   6.867   0.779   9.790 -0.0442 -0.5313 -0.3456
  249MOL0     C32789   6.978   0.796   9.875  0.3055  0.0282  0.3921
  249MOL0     C32790   7.307   0.929  10.153  0.3017  0.4057 -0.2370
  249MOL0     C32791   7.390   0.839  10.239  0.5555  0.0999 -0.0933
  249MOL0     C32792   7.487   0.888  10.324  1.0233 -0.0011 -1.0771
  249MOL0     C32793   7.509   1.026  10.328 -0.0979 -0.5393 -0.0529
  249MOL0     O32794   7.617   1.081  10.402 -0.6473  0.4592 -0.6543
  249MOL0     C32795   7.593   1.201  10.479  0.2264 -0.4595  1.3393
  249MOL0     C32796   7.483   1.176  10.581  0.4891 -0.3476 -0.3863
  249MOL0     C32797   7.489   1.047  10.663  0.8934 -0.1693 -0.0814
  249MOL0     C32798   7.610   1.023  10.748 -0.2256 -0.5723  0.7270
  249MOL0     C32799   7.595   1.081  10.883  0.7834 -0.2660 -0.0174
  249MOL0     C32800   7.566   1.124  10.993 -0.3037 -0.7040  0.3323
  249MOL0     C32801   7.438   1.115  10.244  0.9277  1.2023  0.2542
  249MOL0     C32802   7.331   1.064  10.164  0.7034 -0.5423  0.5077
  249MOL0     H32803   6.958   1.115   9.961  3.4334 -2.6949  1.1588
  249MOL0     H32804   6.740   1.098   9.815 -0.4834  0.0006  0.0779
  249MOL0     H32805   6.560   1.020   9.765  2.1024 -0.3788  2.0506
  249MOL0     H32806   6.513   0.861   9.835 -3.1525  3.1552  1.0476
  249MOL0     H32807   6.466   0.914   9.538 -2.5851  0.5177 -0.9653
  249MOL0     H32808   6.353   0.980   9.636 -4.3293 -2.5210 -2.2269
  249MOL0     H32809   6.442   0.684   9.636  0.4143 -0.0091  2.4586
  249MOL0     H32810   6.320   0.759   9.543  1.2887  0.6296 -0.4317
  249MOL0     H32811   6.322   0.765   9.842 -0.0717  3.0181 -1.4266
  249MOL0     H32812   6.189   0.816   9.728  0.9635  2.0525  1.8930
  249MOL0     H32813   6.152   0.590   9.848  2.4994 -1.7416  2.0460
  249MOL0     H32814   6.286   0.528   9.768 -2.5326 -2.0623  2.4989
  249MOL0     H32815   6.126   0.453   9.604  1.4550 -1.2085  0.6406
  249MOL0     H32816   6.154   0.608   9.532  2.2943 -0.0710  0.4678
  249MOL0     H32817   5.943   0.537   9.740 -2.2458  0.9212  0.5213
  249MOL0     H32818   5.955   0.708   9.657  1.0820  0.1761 -3.0414
  249MOL0     H32819   5.902   0.468   9.492 -0.2967  2.0237 -3.4187
  249MOL0     H32820   5.870   0.634   9.465  5.2297 -0.1390 -1.4477
  249MOL0     H32821   5.730   0.318   9.573  0.0461  0.4380  1.2813
  249MOL0     H32822   5.421   0.316   9.774  0.7860 -0.8701  0.1011
  249MOL0     H32823   5.506   0.242   9.646  4.2722  1.7313  3.8569
  249MOL0     H32824   5.383   0.363   9.481 -3.3056 -0.0136 -1.6521
  249MOL0     H32825   5.294   0.453   9.595 -0.7289  0.3679  0.7309
  249MOL0     H32826   5.278   0.146   9.563 -2.2431 -0.5240  0.0264
  249MOL0     H32827   5.188   0.234   9.686 -1.2466  1.6827  0.1420
  249MOL0     H32828   5.092   0.360   9.470 -0.0897  1.1322 -1.5808
  249MOL0     H32829   5.038   0.184   9.489 -0.1804  0.0251  1.0701
  249MOL0     H32830   5.226   0.270   9.091 -0.6233 -0.3319 -1.7868
  249MOL0     H32831   5.067   0.346   8.910 -0.8867  0.6375  0.7210
  249MOL0     H32832   4.606   0.561   8.738  2.2886 -1.4351  1.6850
  249MOL0     H32833   4.447   0.504   8.567  2.0282 -1.7538 -1.7965
  249MOL0     H32834   4.346   0.344   8.369 -1.5626 -0.5861 -0.9173
  249MOL0     H32835   4.238   0.439   8.482 -1.2289 -0.4314 -0.9053
  249MOL0     H32836   4.109   0.359   8.317  0.5463 -0.1951 -0.7041
  249MOL0     H32837   4.081   0.271   8.466  0.2572  3.1342  1.1908
  249MOL0     H32838   4.205   0.066   8.384 -0.3783  1.3518  3.4205
  249MOL0     H32839   4.269   0.158   8.244 -0.3802 -1.1571 -0.4092
  249MOL0     H32840   3.991   0.059   8.333 -1.2869  2.7444  0.7453
  249MOL0     H32841   4.007   0.176   8.203  4.1107  2.0295  0.7695
  249MOL0     H32842   4.120  -0.115   8.201 -1.5562 -3.4338 -3.8091
  249MOL0     H32843   4.143  -0.000   8.071 -0.8492 -3.5494 -1.0520
  249MOL0     H32844   3.962  -0.126   8.005  2.0775  1.4551 -1.4210
  249MOL0     H32845   3.887   0.026   8.072 -0.7088 -0.6056 -0.9283
  249MOL0     H32846   3.902  -0.255   8.199 -0.5852 -0.2448  2.6008
  249MOL0     H32847   3.835  -0.113   8.273  0.2964 -1.6642 -0.4195
  249MOL0     H32848   3.749  -0.240   8.006 -2.3408 -1.9079 -0.0569
  249MOL0     H32849   3.662  -0.112   8.084  1.2331 -0.0273 -1.0435
  249MOL0     H32850   4.372   0.122   8.738 -0.4248 -0.2918 -0.6305
  249MOL0     H32851   4.552   0.173   8.926 -2.6542 -1.1497 -1.2490
  249MOL0     H32852   4.744   0.373   9.182  0.1066  0.2833 -1.3623
  249MOL0     H32853   4.894   0.312   9.366 -0.7949 -1.6843 -1.0397
  249MOL0     H32854   6.845   0.681   9.747  0.5225 -0.6872 -0.2986
  249MOL0     H32855   7.032   0.702   9.882  2.5687  1.2966  0.8603
  249MOL0     H32856   7.376   0.731  10.242 -0.1757  0.1231 -1.4991
  249MOL0     H32857   7.561   0.829  10.377  0.3792 -0.9936 -1.2761
  249MOL0     H32858   7.565   1.284  10.413 -0.4215 -0.8802  1.0794
  249MOL0     H32859   7.684   1.236  10.530  2.0932  0.0485 -2.0504
  249MOL0     H32860   7.485   1.264  10.646  1.2163 -0.9877  0.4752
  249MOL0     H32861   7.386   1.174  10.530  0.5563  1.8170 -0.7295
  249MOL0     H32862   7.471   0.968  10.590  0.0979  1.2011 -1.4194
  249MOL0     H32863   7.396   1.046  10.721 -0.0951  1.2433 -1.5408
  249MOL0     H32864   7.619   0.915  10.764  3.6762 -0.2935  1.4105
  249MOL0     H32865   7.700   1.064  10.703 -1.1520 -1.7319 -2.4088
  249MOL0     H32866   7.532   1.171  11.083 -4.5855 -0.8961 -0.9801
  249MOL0     H32867   7.454   1.222  10.247  1.3553  1.3033 -2.6233
  249MOL0     H32868   7.260   1.128  10.112 -0.2058 -2.5427 -0.8638
  250MOL0     O32869   7.950  10.551  10.920  0.2113  0.0496 -0.6789
  250MOL0     C32870   7.955  10.536  11.044 -0.2657 -0.0475 -0.5868
  250MOL0     O32871   7.856  10.515  11.131  0.5826  0.1668  0.3575
  250MOL0     C32872   7.726  10.494  11.084 -0.2527 -0.2038  0.1083
  250MOL0     C32873   7.616  10.542  11.155 -0.6178 -0.1898 -0.0323
  250MOL0     C32874   7.485  10.536  11.105 -0.2285  0.2359 -0.0062
  250MOL0     C32875   7.465  10.462  10.987  0.5414 -0.1471  0.0017
  250MOL0     O32876   7.345  10.428  10.930  0.5888  0.0015 -0.0388
  250MOL0     C32877   7.230  10.417  11.010  0.1383 -0.1745  0.0068
  250MOL0     C32878   7.153  10.545  10.987 -0.3787  0.0052  0.2961
  250MOL0     C32879   7.013  10.536  11.035 -0.4564  0.1200  1.0582
  250MOL0     C32880   7.017  10.521  11.189  1.0383  0.3722 -0.0763
  250MOL0     C32881   6.879  10.473  11.238 -0.3447  0.1968  0.1764
  250MOL0     C32882   6.878  10.460  11.396 -0.2394  0.3617  0.1047
  250MOL0     C32883   6.742  10.433  11.456 -0.8423  0.3749  0.0002
  250MOL0     C32884   6.765  10.468  11.608  0.3265  0.2332 -0.6902
  250MOL0     N32885   6.656  10.424  11.701  0.9957  0.2207 -0.7605
  250MOL0     C32886   6.525  10.460  11.688  0.1272  0.7600  0.2703
  250MOL0     C32887   6.459  10.398  11.795 -0.7346 -1.1826  0.1790
  250MOL0     C32888   6.313  10.393  11.836 -0.4546 -0.4878 -0.7676
  250MOL0     C32889   6.236  10.520  11.777  0.2229  0.4230 -0.5413
  250MOL0     C32890   6.084  10.530  11.793 -0.4508  0.1376 -0.2012
  250MOL0     C32891   6.020  10.539  11.933 -0.1760 -1.4258 -0.1830
  250MOL0     O32892   5.883  10.589  11.917  0.3646 -0.4210 -0.5611
  250MOL0     C32893   5.784  10.495  11.948  0.0213  0.3489 -0.1160
  250MOL0     C32894   5.704  10.443  11.844 -0.4883  0.4742  1.2053
  250MOL0     C32895   5.598  10.349  11.886  0.4987 -1.2074  0.0938
  250MOL0     C32896   5.581  10.314  12.017 -0.5456  0.8892  0.2268
  250MOL0     C32897   5.476  10.213  12.040  0.6733  0.5649  0.2350
  250MOL0     O32898   5.402  10.185  11.921 -0.2423 -0.4564 -0.2060
  250MOL0     C32899   5.296  10.100  11.912  0.3443 -0.7892 -0.7631
  250MOL0     C32900   5.230  10.104  11.791  0.4732  0.9172 -0.1449
  250MOL0     C32901   5.111  10.025  11.767  0.0065  0.1224 -0.4180
  250MOL0     C32902   5.063   9.944  11.859  0.7608 -0.0090 -0.1865
  250MOL0     O32903   4.947   9.868  11.828  0.6601 -0.0643  0.1014
  250MOL0     C32904   4.820   9.943  11.857  0.2812  0.0033  0.3808
  250MOL0     C32905   4.711   9.909  11.764  0.5433  0.2520  0.2147
  250MOL0     C32906   4.581   9.994  11.782  0.2880  0.1224 -0.4643
  250MOL0     C32907   4.495  10.000  11.657 -0.0764 -0.7892  0.0639
  250MOL0     C32908   4.368  10.075  11.666  0.5610 -0.6342 -1.7011
  250MOL0     C32909   4.292  10.071  11.533 -0.0184 -1.0038  0.1514
  250MOL0     C32910   4.172  10.156  11.542  1.4534  0.7491 -0.0321
  250MOL0     C32911   4.055  10.098  11.631 -0.2910 -0.0069  0.4378
  250MOL0    Cl32912   4.085  10.181  11.784  0.1370 -0.5881 -0.0476
  250MOL0     C32913   5.124   9.946  11.986  0.0659  0.7669  0.6903
  250MOL0     C32914   5.233  10.029  12.017 -0.3539  0.2397  0.1509
  250MOL0     O32915   5.446  10.180  12.154 -0.1568  1.1722 -0.0607
  250MOL0     C32916   5.667  10.363  12.118 -0.1110  0.2421  0.1950
  250MOL0     C32917   5.767  10.461  12.086 -0.6204  0.2312  0.5062
  250MOL0     N32918   6.558  10.338  11.876  0.4403 -0.7099  0.2616
  250MOL0     N32919   6.671  10.344  11.811  0.2537  0.1237 -0.3753
  250MOL0     C32920   7.571  10.404  10.921 -0.2769 -0.1778 -0.1752
  250MOL0     C32921   7.700  10.413  10.977 -0.4645 -0.3697 -0.0993
  250MOL0     C32922   8.081  10.561  11.116  0.7012  0.0716 -0.4636
  250MOL0     C32923   8.187  10.624  11.042  1.0286 -0.2877 -0.1815
  250MOL0     C32924   8.303  10.654  11.110  0.4473 -0.2014 -0.2894
  250MOL0     C32925   8.318  10.627  11.248  0.6991  0.6122  0.3916
  250MOL0     O32926   8.435  10.666  11.305  0.8105  0.4361 -0.7184
  250MOL0     C32927   8.443  10.662  11.448  0.7285  0.1944 -0.1356
  250MOL0     C32928   8.575  10.728  11.486  0.5092 -0.2856  0.4674
  250MOL0     C32929   8.558  10.858  11.565  1.6336 -0.0632  0.2597
  250MOL0     C32930   8.684  10.926  11.621 -0.4738 -0.2784  0.1552
  250MOL0     C32931   8.645  11.044  11.692  0.2229 -0.0517  0.2958
  250MOL0     C32932   8.628  11.148  11.747  0.4252  0.3114 -0.5609
  250MOL0     C32933   8.215  10.568  11.314  0.8792  0.0396  0.9242
  250MOL0     C32934   8.094  10.539  11.247 -0.9940  0.6856  0.1430
  250MOL0     H32935   7.632  10.588  11.252 -0.8263 -4.3616  2.2006
  250MOL0     H32936   7.408  10.586  11.163 -0.4487  0.1697 -0.2410
  250MOL0     H32937   7.254  10.388  11.113  0.7173  0.5006  0.0700
  250MOL0     H32938   7.176  10.337  10.959 -0.1523  1.6703 -2.8041
  250MOL0     H32939   7.152  10.561  10.879  1.9140 -0.2384  0.1963
  250MOL0     H32940   7.204  10.629  11.034 -0.3521  1.4421 -2.1212
  250MOL0     H32941   6.972  10.448  10.986  1.0408  1.0051 -2.0280
  250MOL0     H32942   6.950  10.623  11.012 -3.5389 -1.7185  1.9816
  250MOL0     H32943   7.089  10.448  11.227  0.5981 -0.7016 -1.2461
  250MOL0     H32944   7.034  10.621  11.230 -4.2286  0.9029  1.5318
  250MOL0     H32945   6.862  10.380  11.183  2.4243 -1.8917  2.5444
  250MOL0     H32946   6.802  10.546  11.213  0.8998  1.3631 -0.3952
  250MOL0     H32947   6.914  10.554  11.437 -3.2259  0.3995  3.0004
  250MOL0     H32948   6.945  10.375  11.417 -0.8747 -0.4459 -1.0020
  250MOL0     H32949   6.660  10.492  11.413 -0.3493  0.3083 -1.0542
  250MOL0     H32950   6.718  10.332  11.424 -1.4655  1.5160 -3.5627
  250MOL0     H32951   6.770  10.577  11.615 -1.4378  0.6697 -4.0960
  250MOL0     H32952   6.859  10.428  11.648 -0.8735 -0.5560  1.5177
  250MOL0     H32953   6.482  10.527  11.614 -1.6422  2.0277  2.3285
  250MOL0     H32954   6.310  10.376  11.944  0.6487 -3.0176 -1.0411
  250MOL0     H32955   6.272  10.304  11.788  0.0004 -0.7221 -0.7337
  250MOL0     H32956   6.251  10.521  11.668 -1.3061  0.2693 -0.7749
  250MOL0     H32957   6.278  10.615  11.812 -0.0849  1.2049 -2.1766
  250MOL0     H32958   6.051  10.600  11.717  1.0344  0.1875 -0.8430
  250MOL0     H32959   6.045  10.435  11.756  0.3164  0.2530 -1.3445
  250MOL0     H32960   6.076  10.602  12.003  0.7306 -3.2032  0.7467
  250MOL0     H32961   6.016  10.445  11.989 -1.9073 -0.2893  1.7732
  250MOL0     H32962   5.723  10.489  11.747  2.0100  1.3653  2.0339
  250MOL0     H32963   5.535  10.312  11.805 -2.1314 -4.8548  3.3902
  250MOL0     H32964   5.272  10.166  11.713 -1.5479  1.4301 -0.8997
  250MOL0     H32965   5.076  10.031  11.664 -2.0142 -0.4270  0.1917
  250MOL0     H32966   4.837  10.051  11.849  0.6324 -0.1364 -1.0473
  250MOL0     H32967   4.787   9.933  11.961 -2.1013 -0.1678 -0.3368
  250MOL0     H32968   4.687   9.803  11.758  3.8199 -0.5260 -2.2719
  250MOL0     H32969   4.752   9.931  11.665 -3.8429  0.1599 -1.8733
  250MOL0     H32970   4.601  10.093  11.824  1.0652 -0.0259 -0.4757
  250MOL0     H32971   4.521   9.950  11.862  0.9784 -3.1483 -1.6122
  250MOL0     H32972   4.553  10.056  11.583 -2.2025  0.5496 -0.6738
  250MOL0     H32973   4.479   9.902  11.612 -1.5205  0.0509 -1.3817
  250MOL0     H32974   4.374  10.173  11.714 -3.3733 -1.4698  0.9678
  250MOL0     H32975   4.313  10.014  11.738  4.6005 -2.1081  0.4595
  250MOL0     H32976   4.266   9.966  11.513 -1.5206 -1.0314  1.9419
  250MOL0     H32977   4.349  10.110  11.448 -1.5744  0.4053 -0.3076
  250MOL0     H32978   4.209  10.257  11.560  3.8219 -0.3765  2.0885
  250MOL0     H32979   4.130  10.163  11.441 -1.5779 -1.6094  0.9101
  250MOL0     H32980   4.036   9.991  11.641 -1.3369  0.2223  0.9986
  250MOL0     H32981   3.967  10.140  11.581  0.4559  1.1723  0.0670
  250MOL0     H32982   5.088   9.878  12.062 -1.4922  2.8149  1.8812
  250MOL0     H32983   5.260  10.035  12.122  2.3457  3.9497 -0.5709
  250MOL0     H32984   5.671  10.321  12.218 -0.5912 -2.4610 -0.8501
  250MOL0     H32985   5.837  10.493  12.162 -1.3235  0.3281  1.1253
  250MOL0     H32986   7.568  10.342  10.832 -0.4628 -0.2579 -0.1151
  250MOL0     H32987   7.787  10.363  10.936 -0.2403  1.1616 -1.5774
  250MOL0     H32988   8.177  10.653  10.938 -1.9719 -1.7043 -0.3780
  250MOL0     H32989   8.390  10.707  11.073  0.8195  1.7770  2.9475
  250MOL0     H32990   8.432  10.558  11.480 -1.7692 -0.3358 -2.3543
  250MOL0     H32991   8.356  10.720  11.478 -1.3946 -1.6139 -2.3539
  250MOL0     H32992   8.643  10.663  11.542  1.5104 -2.2163 -2.7188
  250MOL0     H32993   8.626  10.748  11.391 -2.3927  1.4387 -0.8838
  250MOL0     H32994   8.489  10.831  11.646  1.3055  0.6636  0.2297
  250MOL0     H32995   8.508  10.928  11.497  1.5719  0.8632  1.2181
  250MOL0     H32996   8.733  10.863  11.696 -1.4911 -0.7247  0.4613
  250MOL0     H32997   8.748  10.949  11.535  1.8836 -3.0421  1.0402
  250MOL0     H32998   8.602  11.235  11.803  0.3975  1.3011 -2.0637
  250MOL0     H32999   8.228  10.538  11.418  0.8476  1.2508  1.2920
  250MOL0     H33000   8.015  10.497  11.308  1.9449  1.1484  4.8129
  251MOL0     O33001   2.569   3.521   8.024 -0.4415  0.0319  1.1698
  251MOL0     C33002   2.471   3.591   8.034 -0.4307 -1.0666  0.5359
  251MOL0     O33003   2.466   3.731   7.994  0.0819  0.3032  0.6846
  251MOL0     C33004   2.562   3.773   7.903  0.2047  1.5132  0.0262
  251MOL0     C33005   2.690   3.785   7.944 -0.6558 -0.1578 -0.1861
  251MOL0     C33006   2.796   3.819   7.851  0.3328  0.4887  0.7698
  251MOL0     C33007   2.763   3.833   7.715 -0.7734 -0.7133  0.4702
  251MOL0     O33008   2.852   3.874   7.612  0.5580  0.0726 -0.3183
  251MOL0     C33009   2.988   3.907   7.656  1.4217  0.0051  0.6110
  251MOL0     C33010   3.058   3.968   7.538 -0.5635  0.2552  0.0257
  251MOL0     C33011   3.113   3.857   7.439 -0.8749  0.4286 -0.4533
  251MOL0     C33012   3.239   3.795   7.482 -0.8491 -0.2753 -0.5318
  251MOL0     C33013   3.294   3.708   7.369 -1.4038  1.4214 -0.2921
  251MOL0     C33014   3.221   3.573   7.350 -0.9717  1.1244  0.5969
  251MOL0     C33015   3.289   3.465   7.267 -0.8719 -0.8617 -0.0782
  251MOL0     C33016   3.190   3.351   7.238  0.3394  0.0735  0.4292
  251MOL0     N33017   3.260   3.232   7.175  0.4586 -0.0498  0.6446
  251MOL0     C33018   3.350   3.235   7.079 -0.2454  0.3471  0.0412
  251MOL0     C33019   3.361   3.105   7.037  0.7746 -0.4531  0.4143
  251MOL0     C33020   3.429   3.052   6.910 -0.5096 -0.9265 -0.0857
  251MOL0     C33021   3.543   2.952   6.938 -0.8700  0.2572 -0.0399
  251MOL0     C33022   3.656   3.028   7.003  0.2471 -0.0310  0.3514
  251MOL0     C33023   3.785   2.950   7.033  0.2146  0.3161  0.3869
  251MOL0     O33024   3.895   2.972   6.940  0.7323 -0.7236 -0.1117
  251MOL0     C33025   4.004   2.895   6.956 -0.0239 -0.1402  0.4037
  251MOL0     C33026   4.099   2.913   6.861 -0.3884 -0.6028 -0.1121
  251MOL0     C33027   4.226   2.858   6.871  0.1967 -0.6042 -0.0486
  251MOL0     C33028   4.253   2.769   6.977  0.4979 -0.0295  0.0314
  251MOL0     C33029   4.385   2.708   6.987  0.8464 -0.0240  0.3551
  251MOL0     O33030   4.455   2.703   6.872 -0.8005  0.4807  0.3692
  251MOL0     C33031   4.570   2.619   6.866  0.2874  0.7039  0.4252
  251MOL0     C33032   4.602   2.501   6.939 -0.6480  0.5047 -0.9175
  251MOL0     C33033   4.722   2.430   6.920 -0.3831  0.7449  0.1969
  251MOL0     C33034   4.814   2.475   6.816  1.1537  0.5011 -0.4740
  251MOL0     O33035   4.935   2.424   6.795  0.0021  0.0016 -0.7063
  251MOL0     C33036   4.975   2.291   6.833 -0.7035 -0.5266  0.4964
  251MOL0     C33037   5.089   2.290   6.934  0.9737  1.7983 -0.7565
  251MOL0     C33038   5.219   2.326   6.863  0.3817  0.7706  0.0627
  251MOL0     C33039   5.350   2.312   6.940  0.1971  0.3379  0.5183
  251MOL0     C33040   5.357   2.391   7.075 -0.6999 -0.2053 -0.3269
  251MOL0     C33041   5.481   2.344   7.158  0.8692 -0.0686  0.0467
  251MOL0     C33042   5.610   2.393   7.094  0.1656 -0.3359  0.2199
  251MOL0     C33043   5.725   2.369   7.197  0.1977 -0.0245 -0.2527
  251MOL0    Cl33044   5.739   2.195   7.247  0.3372  0.2488 -0.5992
  251MOL0     C33045   4.783   2.588   6.746  0.9505 -0.5048 -0.0610
  251MOL0     C33046   4.666   2.650   6.764 -0.3718 -1.3883  0.2488
  251MOL0     O33047   4.416   2.656   7.093  0.2381 -0.5816  0.1933
  251MOL0     C33048   4.147   2.753   7.072  1.0595  0.4062 -0.3330
  251MOL0     C33049   4.025   2.809   7.058  0.1641  0.1878 -0.2190
  251MOL0     N33050   3.281   3.030   7.113 -0.1442  0.6306  0.0396
  251MOL0     N33051   3.224   3.091   7.202  0.0014 -0.6907 -0.0633
  251MOL0     C33052   2.634   3.810   7.675  0.9780 -0.4949  0.9265
  251MOL0     C33053   2.534   3.780   7.770  0.6516 -0.7926 -0.0524
  251MOL0     C33054   2.347   3.535   8.088 -0.7072  0.2529 -0.7626
  251MOL0     C33055   2.221   3.597   8.076 -0.4775 -1.1164 -1.0723
  251MOL0     C33056   2.098   3.540   8.129 -0.1685 -0.5239 -0.0801
  251MOL0     C33057   2.113   3.409   8.177  0.4716  0.5846 -0.7018
  251MOL0     O33058   2.000   3.338   8.223 -0.3132 -0.9478 -0.0626
  251MOL0     C33059   1.867   3.393   8.195 -0.7037 -0.2010 -0.0758
  251MOL0     C33060   1.831   3.512   8.298 -0.9317  0.1640  0.2834
  251MOL0     C33061   1.727   3.604   8.238  0.4998  0.5271 -0.8126
  251MOL0     C33062   1.656   3.683   8.353 -0.2980  0.2479  0.2641
  251MOL0     C33063   1.570   3.596   8.435 -0.2465 -0.3839  0.3186
  251MOL0     C33064   1.497   3.526   8.509 -0.6112  0.0938  0.0278
  251MOL0     C33065   2.237   3.351   8.195  0.4836  0.1026  0.2986
  251MOL0     C33066   2.351   3.411   8.150 -0.4176 -0.0695 -0.0416
  251MOL0     H33067   2.724   3.770   8.046  1.2765 -0.6800 -0.8655
  251MOL0     H33068   2.894   3.833   7.896  1.1328 -4.7633  1.2638
  251MOL0     H33069   3.051   3.822   7.682 -1.3094 -2.1262  0.8162
  251MOL0     H33070   2.986   3.979   7.739 -0.3263 -1.4797  1.9425
  251MOL0     H33071   3.145   4.030   7.563 -1.3192  0.7555  1.5529
  251MOL0     H33072   2.977   4.024   7.492  0.5018  0.1506 -2.1103
  251MOL0     H33073   3.131   3.904   7.342  4.0472  0.6588  0.3007
  251MOL0     H33074   3.030   3.788   7.422 -1.7330  1.3099  0.0741
  251MOL0     H33075   3.314   3.871   7.509  0.4665 -0.1817 -3.9333
  251MOL0     H33076   3.243   3.730   7.570  1.6473 -2.1589 -1.8889
  251MOL0     H33077   3.399   3.683   7.391 -2.4202 -0.1760  3.5171
  251MOL0     H33078   3.288   3.756   7.271 -0.3572 -0.0068 -1.0917
  251MOL0     H33079   3.122   3.594   7.309 -0.9581  0.0002 -0.0485
  251MOL0     H33080   3.210   3.533   7.451  1.1433 -0.7042  0.1879
  251MOL0     H33081   3.330   3.517   7.180  0.2060  2.6207  2.2910
  251MOL0     H33082   3.372   3.422   7.323  0.7244  0.1316 -1.5399
  251MOL0     H33083   3.115   3.388   7.168  1.8361 -1.3030 -2.0360
  251MOL0     H33084   3.152   3.333   7.339  2.0519 -1.5954  0.8259
  251MOL0     H33085   3.397   3.322   7.035  2.3509 -1.7967 -1.8101
  251MOL0     H33086   3.465   3.140   6.855  1.0296 -0.7939  1.0661
  251MOL0     H33087   3.357   2.986   6.860 -1.6685  0.3762 -0.1978
  251MOL0     H33088   3.571   2.901   6.845 -2.1827 -0.0759 -0.2746
  251MOL0     H33089   3.505   2.881   7.012 -2.2039  0.8378 -0.1312
  251MOL0     H33090   3.683   3.098   6.924  2.0761 -1.2665 -0.1879
  251MOL0     H33091   3.627   3.076   7.097 -0.7175  0.4744 -0.1930
  251MOL0     H33092   3.760   2.845   7.050 -1.8872  0.5001 -1.2026
  251MOL0     H33093   3.821   2.985   7.131 -3.2512  0.3099  1.8157
  251MOL0     H33094   4.092   2.981   6.776 -0.8344 -0.4653  0.0272
  251MOL0     H33095   4.301   2.898   6.804  1.2159 -2.3191 -0.0030
  251MOL0     H33096   4.533   2.455   7.010 -0.1861 -1.7683 -1.8799
  251MOL0     H33097   4.740   2.345   6.986  2.7074  0.9086 -0.2532
  251MOL0     H33098   5.011   2.237   6.745 -4.0508  0.8297 -1.9374
  251MOL0     H33099   4.895   2.229   6.876 -0.3150 -1.3897  0.0017
  251MOL0     H33100   5.096   2.197   6.991 -0.1644  3.4093  2.2283
  251MOL0     H33101   5.076   2.366   7.011 -0.3159  0.5628  0.3060
  251MOL0     H33102   5.209   2.430   6.832  3.0155 -0.0213 -4.1944
  251MOL0     H33103   5.234   2.279   6.765  2.3597  0.6237  0.3872
  251MOL0     H33104   5.368   2.210   6.974 -1.3617  1.1207  4.0925
  251MOL0     H33105   5.427   2.339   6.867 -3.3957 -0.1610 -3.9320
  251MOL0     H33106   5.276   2.358   7.139 -0.5365  2.0058  1.1047
  251MOL0     H33107   5.362   2.499   7.060  0.4809 -0.1206  0.5454
  251MOL0     H33108   5.495   2.235   7.160  1.3753 -0.0423 -1.1203
  251MOL0     H33109   5.476   2.387   7.258  1.1822  1.2933 -0.4965
  251MOL0     H33110   5.624   2.337   7.001 -2.0501  0.5952 -0.7692
  251MOL0     H33111   5.609   2.494   7.052  0.5706 -1.0479 -1.6263
  251MOL0     H33112   5.698   2.436   7.279 -4.5731  0.6384 -2.0389
  251MOL0     H33113   5.816   2.398   7.145 -0.1393  1.3888 -0.0917
  251MOL0     H33114   4.864   2.621   6.681  1.8777 -2.5781 -0.0417
  251MOL0     H33115   4.652   2.731   6.693  0.6466 -1.5462 -0.1390
  251MOL0     H33116   4.172   2.695   7.160  1.4109 -0.7829 -1.1900
  251MOL0     H33117   3.951   2.792   7.135  1.7653 -0.3906  1.2435
  251MOL0     H33118   2.622   3.810   7.567  0.5541  0.3530  0.9693
  251MOL0     H33119   2.433   3.754   7.740  1.1203  0.0709 -2.6185
  251MOL0     H33120   2.213   3.695   8.031  4.6932 -0.0458 -0.3047
  251MOL0     H33121   2.011   3.601   8.112  1.8636  2.0842 -2.0122
  251MOL0     H33122   1.788   3.318   8.206 -0.5199 -0.2128  1.3669
  251MOL0     H33123   1.879   3.427   8.092  2.7270 -1.1031 -0.1142
  251MOL0     H33124   1.788   3.467   8.388 -0.1276  0.0382  0.6126
  251MOL0     H33125   1.921   3.565   8.330  1.3371 -2.1061 -1.8446
  251MOL0     H33126   1.652   3.540   8.191  2.6954 -0.6397 -2.9838
  251MOL0     H33127   1.780   3.666   8.165  0.8536  0.5565 -0.5320
  251MOL0     H33128   1.735   3.739   8.404 -0.8270  4.5138 -3.1019
  251MOL0     H33129   1.589   3.747   8.295 -0.1971 -1.3185 -1.7024
  251MOL0     H33130   1.421   3.469   8.559  0.2688 -2.2220 -1.1409
  251MOL0     H33131   2.249   3.248   8.229 -1.5987 -0.4451 -0.4622
  251MOL0     H33132   2.434   3.341   8.159 -0.4117  0.1967  2.8052
  252MOL0     O33133  10.591   4.298  10.530 -0.2073  0.0779 -0.2634
  252MOL0     C33134  10.603   4.225  10.430 -0.6023 -0.7434 -0.5915
  252MOL0     O33135  10.701   4.240  10.330  0.2205 -0.3415  0.6865
  252MOL0     C33136  10.781   4.351  10.343 -0.1737 -0.6562  0.6588
  252MOL0     C33137  10.724   4.477  10.328 -0.0329  0.1577 -0.2866
  252MOL0     C33138  10.797   4.594  10.308 -0.7592 -0.0914  0.0610
  252MOL0     C33139  10.933   4.590  10.322 -0.0222  0.1493 -0.0607
  252MOL0     O33140  11.007   4.704  10.301 -0.0252  0.4871 -0.3148
  252MOL0     C33141  11.111   4.689  10.195 -0.4125 -0.2297 -1.0707
  252MOL0     C33142  11.095   4.808  10.100  0.0967 -0.1520 -0.1193
  252MOL0     C33143  11.193   4.807   9.995 -0.3423  0.7564 -0.9879
  252MOL0     C33144  11.171   4.916   9.880  1.3227  0.3558 -0.0125
  252MOL0     C33145  11.304   4.919   9.801 -0.5466  0.1359 -0.7085
  252MOL0     C33146  11.285   4.948   9.657 -0.3067  0.0558  0.3078
  252MOL0     C33147  11.213   4.831   9.580 -1.1858 -0.1841  0.0607
  252MOL0     C33148  11.211   4.873   9.441 -0.0038  0.0814  0.6053
  252MOL0     N33149  11.219   4.762   9.345 -0.1519 -0.9116  0.6790
  252MOL0     C33150  11.336   4.709   9.310  0.6301 -0.1662 -0.2446
  252MOL0     C33151  11.302   4.617   9.215 -1.0331 -0.1586 -0.4058
  252MOL0     C33152  11.417   4.530   9.158  0.1284  0.2401  0.6402
  252MOL0     C33153  11.373   4.378   9.156 -0.0018 -0.3990  0.0484
  252MOL0     C33154  11.365   4.314   9.297  0.1911  0.2826  0.0247
  252MOL0     C33155  11.272   4.192   9.286  0.9029 -0.4587  0.2410
  252MOL0     O33156  11.267   4.113   9.405  0.3038  0.0942  0.3725
  252MOL0     C33157  11.162   4.029   9.414 -0.3393 -0.0266 -0.3033
  252MOL0     C33158  11.039   4.063   9.477 -0.1444 -0.6683  0.6890
  252MOL0     C33159  10.935   3.973   9.483  1.4984 -0.3265  0.1830
  252MOL0     C33160  10.958   3.843   9.438  0.1690 -0.6292  0.1542
  252MOL0     C33161  10.864   3.735   9.458 -0.3222  0.1308  0.5842
  252MOL0     O33162  10.866   3.640   9.361  0.2228  0.5679  0.0664
  252MOL0     C33163  10.752   3.577   9.326  0.3613  1.1241  0.4937
  252MOL0     C33164  10.645   3.651   9.276  0.3287 -0.0786  0.6115
  252MOL0     C33165  10.524   3.588   9.248 -0.5981 -0.0999  0.9199
  252MOL0     C33166  10.505   3.453   9.286  0.6818 -0.2102  0.3589
  252MOL0     O33167  10.377   3.394   9.276 -0.5838 -0.5571 -0.0355
  252MOL0     C33168  10.352   3.260   9.225 -0.2483  0.4089 -0.7795
  252MOL0     C33169  10.213   3.255   9.159 -0.5237  0.7749  0.1255
  252MOL0     C33170  10.190   3.143   9.054 -0.4820 -0.1484  0.6268
  252MOL0     C33171  10.034   3.132   9.039  0.1559 -0.0068  0.2463
  252MOL0     C33172   9.988   3.033   8.945 -0.2430  0.9378  0.1520
  252MOL0     C33173   9.834   3.018   8.932  0.5388 -0.1891 -0.3708
  252MOL0     C33174   9.800   2.901   8.854  0.4966 -0.0621  0.6618
  252MOL0     C33175   9.644   2.900   8.837  0.1551  0.2047  0.1784
  252MOL0    Cl33176   9.542   2.890   8.979 -0.4850 -0.6954 -0.2926
  252MOL0     C33177  10.619   3.383   9.331 -0.0681  0.3245 -0.0102
  252MOL0     C33178  10.735   3.442   9.354 -0.6129 -0.7700  0.7314
  252MOL0     O33179  10.772   3.766   9.536  0.9741  0.0219  0.3774
  252MOL0     C33180  11.073   3.812   9.359  0.9252 -0.2050  0.1944
  252MOL0     C33181  11.177   3.908   9.356 -0.5392  0.0449  0.4321
  252MOL0     N33182  11.176   4.609   9.191 -0.3437  0.3760  0.7978
  252MOL0     N33183  11.127   4.696   9.270 -0.2700  0.6451 -0.0503
  252MOL0     C33184  10.998   4.465  10.343  0.1851 -0.4031 -0.1087
  252MOL0     C33185  10.925   4.344  10.341  0.4103 -0.2877 -0.0352
  252MOL0     C33186  10.524   4.106  10.426  0.2275 -0.0368 -0.3433
  252MOL0     C33187  10.490   4.040  10.305  0.2360 -0.6253  0.3324
  252MOL0     C33188  10.425   3.920  10.314  0.7021 -0.3063 -1.1898
  252MOL0     C33189  10.381   3.860  10.434  0.6658  0.4112 -0.6918
  252MOL0     O33190  10.318   3.745  10.443  0.3686  0.3388  0.6017
  252MOL0     C33191  10.188   3.730  10.380 -0.0577 -1.1695 -0.1630
  252MOL0     C33192  10.174   3.599  10.297 -0.2730  0.2037  0.3398
  252MOL0     C33193  10.196   3.471  10.387 -0.1776  0.6179  0.4586
  252MOL0     C33194  10.155   3.341  10.308 -0.5486 -0.9004  0.5223
  252MOL0     C33195  10.266   3.311  10.212  0.5019 -0.3799  0.3686
  252MOL0     C33196  10.358   3.290  10.129 -1.3452  0.1355 -0.5381
  252MOL0     C33197  10.410   3.928  10.551 -1.0432 -0.2456  0.2559
  252MOL0     C33198  10.478   4.050  10.549 -0.1865  1.2403 -1.0631
  252MOL0     H33199  10.616   4.490  10.328 -0.2996 -0.9589 -3.8765
  252MOL0     H33200  10.748   4.689  10.287 -0.9669 -0.2232 -0.0565
  252MOL0     H33201  11.100   4.596  10.138  2.3046 -1.0680 -0.3831
  252MOL0     H33202  11.212   4.684  10.237 -1.3033 -3.4120  1.0562
  252MOL0     H33203  11.111   4.898  10.159  1.2650  1.3534 -2.5470
  252MOL0     H33204  10.995   4.807  10.056 -0.4132  0.2742  1.0007
  252MOL0     H33205  11.187   4.710   9.946  0.8115  0.5422 -0.7212
  252MOL0     H33206  11.291   4.834  10.036 -0.5087  0.6318 -0.4989
  252MOL0     H33207  11.084   4.881   9.823  0.9622 -0.8416  1.2148
  252MOL0     H33208  11.137   5.013   9.916 -0.8156 -0.1651 -0.5113
  252MOL0     H33209  11.359   4.825   9.813  0.8172  1.1248  1.5517
  252MOL0     H33210  11.363   4.998   9.849 -2.0223  0.3036  0.9509
  252MOL0     H33211  11.383   4.973   9.615 -0.3942  0.8432  0.5546
  252MOL0     H33212  11.220   5.034   9.642  0.4318  0.4744 -0.5608
  252MOL0     H33213  11.278   4.743   9.589 -0.6101  0.4302  2.8048
  252MOL0     H33214  11.109   4.818   9.611 -1.7572  0.6883 -1.4011
  252MOL0     H33215  11.296   4.938   9.418 -1.6399  1.8162 -0.9103
  252MOL0     H33216  11.128   4.944   9.435  2.4276  3.0136 -0.4561
  252MOL0     H33217  11.431   4.732   9.356  0.8786 -2.5708  0.5792
  252MOL0     H33218  11.508   4.550   9.215  0.2827  0.4364  0.3212
  252MOL0     H33219  11.427   4.557   9.053  0.6095  2.4855  1.2116
  252MOL0     H33220  11.455   4.329   9.104  2.3768  0.2875  2.8621
  252MOL0     H33221  11.278   4.377   9.103 -0.7416 -0.9374  1.3344
  252MOL0     H33222  11.467   4.292   9.328  0.2252 -1.6345 -1.2754
  252MOL0     H33223  11.308   4.383   9.360 -1.4721 -0.5428 -0.4999
  252MOL0     H33224  11.297   4.131   9.199 -1.5257 -1.2383  0.0155
  252MOL0     H33225  11.172   4.235   9.271 -0.1619 -2.4426  1.1572
  252MOL0     H33226  11.023   4.165   9.511  1.3654  0.1395 -0.8302
  252MOL0     H33227  10.841   3.981   9.537  0.6345 -3.0499 -0.7396
  252MOL0     H33228  10.652   3.756   9.250 -2.9791 -0.3461 -1.9094
  252MOL0     H33229  10.447   3.640   9.192  0.1364  0.9503  0.8401
  252MOL0     H33230  10.375   3.173   9.288 -1.1360 -0.6899 -1.9472
  252MOL0     H33231  10.420   3.252   9.140  0.7691 -0.6798  0.0896
  252MOL0     H33232  10.194   3.346   9.100  0.1546  1.4896  0.9872
  252MOL0     H33233  10.142   3.241   9.241 -0.6351  0.8772  0.0459
  252MOL0     H33234  10.216   3.044   9.091 -0.6283 -0.3002  0.3294
  252MOL0     H33235  10.252   3.159   8.965  2.1204  0.8605  2.4983
  252MOL0     H33236  10.015   3.093   9.139 -0.9069 -3.2506 -1.0879
  252MOL0     H33237   9.982   3.227   9.023 -0.4801 -0.1756  1.2150
  252MOL0     H33238  10.027   2.935   8.973  0.7939 -0.3347 -4.7845
  252MOL0     H33239  10.029   3.055   8.846  0.9738  0.6044  0.5645
  252MOL0     H33240   9.793   3.098   8.870 -0.4307 -1.4850 -1.4301
  252MOL0     H33241   9.774   3.025   9.024 -2.5055 -0.6099 -2.1726
  252MOL0     H33242   9.838   2.914   8.752  1.9071  3.5086  1.4953
  252MOL0     H33243   9.845   2.816   8.907  0.9491  0.9044  1.8663
  252MOL0     H33244   9.612   2.806   8.790 -0.6408 -0.1615  1.4094
  252MOL0     H33245   9.612   2.992   8.788 -0.0213 -0.0087 -0.1091
  252MOL0     H33246  10.605   3.282   9.368 -0.7313 -0.6523 -2.6635
  252MOL0     H33247  10.812   3.381   9.400  0.9571  0.6259  0.0383
  252MOL0     H33248  11.091   3.711   9.322 -2.2379  0.3855 -3.7618
  252MOL0     H33249  11.271   3.879   9.311  1.8491  1.4836  4.0575
  252MOL0     H33250  11.104   4.471  10.363 -0.1722 -0.2148  1.8872
  252MOL0     H33251  10.975   4.248  10.352  0.8049  0.1267  2.6677
  252MOL0     H33252  10.536   4.090  10.220 -1.9791  1.6370  0.3592
  252MOL0     H33253  10.395   3.873  10.220  0.9023 -1.3866 -0.7333
  252MOL0     H33254  10.185   3.816  10.313  3.1637  0.6814  1.8117
  252MOL0     H33255  10.106   3.755  10.449  1.1204  0.7358  0.6262
  252MOL0     H33256  10.067   3.604  10.270 -0.1109 -0.9547 -0.6009
  252MOL0     H33257  10.238   3.609  10.209  2.4121  1.2424  2.2807
  252MOL0     H33258  10.143   3.475  10.483 -2.3518  1.5185 -0.7203
  252MOL0     H33259  10.302   3.485  10.411  0.4179 -0.9284 -1.0423
  252MOL0     H33260  10.147   3.256  10.376  0.2242  1.1721  3.3886
  252MOL0     H33261  10.060   3.360  10.257 -0.5806  0.5066  1.0730
  252MOL0     H33262  10.424   3.254  10.052  0.9475  0.9249  0.9457
  252MOL0     H33263  10.376   3.892  10.648  1.0674 -0.6460  0.8963
  252MOL0     H33264  10.517   4.084  10.645  1.2365 -2.3303 -0.2325
  253MOL0     O33265   1.297   7.256  10.711 -0.4135 -0.1692 -0.2298
  253MOL0     C33266   1.223   7.221  10.804  0.6208  0.2186 -0.2056
  253MOL0     O33267   1.134   7.114  10.805  0.4770 -0.2802  0.7941
  253MOL0     C33268   1.116   7.019  10.712 -0.0482  0.0850 -0.3733
  253MOL0     C33269   1.129   7.034  10.570 -0.7518 -0.1672  0.3124
  253MOL0     C33270   1.114   6.917  10.490 -0.0001  0.6254  0.1286
  253MOL0     C33271   1.075   6.794  10.544  0.4188  0.5837 -0.3326
  253MOL0     O33272   1.052   6.674  10.475 -0.5945  0.1748  0.0786
  253MOL0     C33273   1.046   6.680  10.334 -0.5252 -0.5616  0.9671
  253MOL0     C33274   1.047   6.526  10.287  0.4495  0.0397 -0.2217
  253MOL0     C33275   0.964   6.424  10.374  0.4370 -0.1276 -0.3747
  253MOL0     C33276   0.951   6.301  10.288  0.9344  0.3764  0.3236
  253MOL0     C33277   0.883   6.176  10.351  0.7079 -0.1807  0.6627
  253MOL0     C33278   0.981   6.117  10.464 -1.0650 -0.7103 -0.3986
  253MOL0     C33279   0.909   5.993  10.525  0.5669 -0.7301  0.6410
  253MOL0     C33280   1.007   5.896  10.572 -0.1885  0.2791 -0.1175
  253MOL0     N33281   0.944   5.773  10.625 -0.2280  0.1547 -0.2925
  253MOL0     C33282   0.855   5.699  10.553  0.1691  0.3507 -0.0474
  253MOL0     C33283   0.820   5.592  10.625 -0.1503 -0.7856  0.5753
  253MOL0     C33284   0.724   5.482  10.582 -0.5156 -0.6435 -0.6868
  253MOL0     C33285   0.595   5.541  10.542  0.3640 -0.0128 -0.1229
  253MOL0     C33286   0.498   5.441  10.487 -0.6516  0.7945  0.6976
  253MOL0     C33287   0.364   5.503  10.439  0.1746 -0.3577  0.1621
  253MOL0     O33288   0.268   5.395  10.413 -0.4011 -0.4104  0.6056
  253MOL0     C33289   0.203   5.403  10.288 -0.4708 -0.4639 -0.0629
  253MOL0     C33290   0.260   5.456  10.165 -0.3306  0.3172  0.7573
  253MOL0     C33291   0.194   5.440  10.040 -0.0346  0.4983  0.4899
  253MOL0     C33292   0.064   5.381  10.031  0.7299 -0.8400 -0.3919
  253MOL0     C33293  -0.014   5.375   9.906 -0.4965  0.1200  0.3217
  253MOL0     O33294   0.052   5.414   9.795  0.7734  0.1313 -1.0622
  253MOL0     C33295  -0.009   5.378   9.679  0.0433 -0.0619 -0.7786
  253MOL0     C33296  -0.129   5.436   9.642  0.6710 -0.3521  0.9743
  253MOL0     C33297  -0.206   5.394   9.534 -0.3162 -0.0212  0.2090
  253MOL0     C33298  -0.160   5.286   9.456 -0.5267  0.0050 -0.2665
  253MOL0     O33299  -0.228   5.230   9.352 -0.4899 -0.6760  0.3238
  253MOL0     C33300  -0.265   5.311   9.236  0.0705 -0.4158  0.9275
  253MOL0     C33301  -0.309   5.202   9.137  0.7271  0.0782 -0.0502
  253MOL0     C33302  -0.191   5.138   9.065  1.4347 -1.0191 -0.2504
  253MOL0     C33303  -0.228   4.995   9.028  0.4885  0.0505 -0.5730
  253MOL0     C33304  -0.315   5.008   8.899  0.9040 -0.9149 -0.0499
  253MOL0     C33305  -0.258   4.910   8.796 -0.2314  0.0704 -0.6485
  253MOL0     C33306  -0.282   4.762   8.841  0.7620 -0.2451  0.1991
  253MOL0     C33307  -0.175   4.672   8.795  0.1070 -0.1533 -0.4883
  253MOL0    Cl33308  -0.203   4.655   8.619 -0.1000  0.0346 -0.1030
  253MOL0     C33309  -0.034   5.230   9.491 -0.3052 -0.4292  0.0967
  253MOL0     C33310   0.034   5.274   9.604 -0.4530 -0.2914  0.4551
  253MOL0     O33311  -0.121   5.312   9.913  1.0430 -0.0504  0.0892
  253MOL0     C33312   0.006   5.341  10.153 -0.1494 -0.9369  0.2077
  253MOL0     C33313   0.083   5.340  10.274  1.2964 -0.5707  0.0274
  253MOL0     N33314   0.891   5.602  10.750 -0.4255 -0.4238  0.3661
  253MOL0     N33315   0.953   5.717  10.751  0.3221  0.6978  0.7581
  253MOL0     C33316   1.053   6.782  10.684  0.2542  0.0228  0.3199
  253MOL0     C33317   1.073   6.898  10.765 -0.3270 -0.0568  0.2038
  253MOL0     C33318   1.201   7.309  10.915  0.2745 -0.3425 -1.0660
  253MOL0     C33319   1.308   7.359  10.983 -0.4825  0.9184  0.6290
  253MOL0     C33320   1.297   7.440  11.102  0.3857  0.8587 -0.2320
  253MOL0     C33321   1.173   7.476  11.149  0.5099  0.7861  0.6105
  253MOL0     O33322   1.147   7.563  11.250  0.7979  0.3184  0.2778
  253MOL0     C33323   1.238   7.666  11.259 -0.3836  1.0080 -0.8577
  253MOL0     C33324   1.344   7.640  11.363  0.1322  1.3540  0.2205
  253MOL0     C33325   1.457   7.739  11.358  0.3604  0.7991 -0.4563
  253MOL0     C33326   1.560   7.713  11.464 -0.2331  0.4909  0.0922
  253MOL0     C33327   1.669   7.807  11.464 -0.5245 -0.0692  0.7135
  253MOL0     C33328   1.765   7.865  11.432 -0.8822 -0.0191 -0.1735
  253MOL0     C33329   1.060   7.424  11.080 -0.8268 -0.0763 -0.0065
  253MOL0     C33330   1.079   7.339  10.967 -0.5123  0.4922 -0.2024
  253MOL0     H33331   1.167   7.125  10.526  2.9673 -1.7567 -0.1742
  253MOL0     H33332   1.134   6.925  10.383  0.6279  0.2834  0.2143
  253MOL0     H33333   1.134   6.723  10.286 -0.4977 -2.0293 -0.3790
  253MOL0     H33334   0.954   6.733  10.305  0.3156 -0.5679 -1.9516
  253MOL0     H33335   1.150   6.490  10.290  0.3758 -0.1036  1.3203
  253MOL0     H33336   1.018   6.519  10.182 -1.4359 -1.3712  0.3473
  253MOL0     H33337   0.870   6.475  10.397  1.5426  1.1904  1.5095
  253MOL0     H33338   1.018   6.397  10.465  0.1964 -2.5021 -0.8847
  253MOL0     H33339   0.882   6.323  10.207 -0.6260  2.2811  2.0697
  253MOL0     H33340   1.047   6.275  10.242  0.6820  0.5905 -0.3363
  253MOL0     H33341   0.870   6.105  10.269 -0.6520 -0.0290  0.7381
  253MOL0     H33342   0.783   6.186  10.394  0.0487 -0.5337 -0.7281
  253MOL0     H33343   0.994   6.195  10.539 -2.3286  1.1306 -1.9877
  253MOL0     H33344   1.073   6.087  10.414 -2.2829 -1.1763 -2.5061
  253MOL0     H33345   0.840   6.017  10.607  2.1744  0.8759  1.6064
  253MOL0     H33346   0.838   5.946  10.456  0.4502 -0.5982  0.6704
  253MOL0     H33347   1.057   5.947  10.655 -0.0655  1.0808 -0.6709
  253MOL0     H33348   1.077   5.869  10.492 -0.7577  0.8027 -0.8108
  253MOL0     H33349   0.827   5.722  10.451 -0.0596 -0.2238 -0.1154
  253MOL0     H33350   0.709   5.421  10.672  1.1957 -0.1157 -0.0008
  253MOL0     H33351   0.761   5.420  10.500  0.0720 -2.3346  0.7761
  253MOL0     H33352   0.618   5.617  10.467 -0.9410  2.1289  1.5220
  253MOL0     H33353   0.539   5.588  10.623 -0.9171 -0.2463 -0.8495
  253MOL0     H33354   0.545   5.389  10.403 -1.0831 -0.7187  1.3629
  253MOL0     H33355   0.473   5.360  10.556 -1.5223  1.3947  1.0938
  253MOL0     H33356   0.368   5.573  10.354 -2.6214  1.4706  1.3909
  253MOL0     H33357   0.311   5.561  10.515 -0.4134  1.0429 -1.2579
  253MOL0     H33358   0.358   5.501  10.156 -0.6690  0.8191 -0.9056
  253MOL0     H33359   0.240   5.479   9.949  0.0672  0.0793  0.3567
  253MOL0     H33360  -0.155   5.527   9.694 -0.9622 -0.9440  1.2314
  253MOL0     H33361  -0.297   5.446   9.509 -0.0217  0.9973  1.1600
  253MOL0     H33362  -0.176   5.370   9.213  0.3002 -0.5440  1.4682
  253MOL0     H33363  -0.355   5.370   9.255 -0.8582 -2.1587  2.2278
  253MOL0     H33364  -0.373   5.247   9.061  2.0648  1.3793 -0.4594
  253MOL0     H33365  -0.388   5.142   9.185  1.6467 -1.0709  0.0781
  253MOL0     H33366  -0.104   5.141   9.131 -0.1554 -1.3772  1.9772
  253MOL0     H33367  -0.169   5.194   8.974 -2.3554 -0.1184 -0.7755
  253MOL0     H33368  -0.140   4.931   9.028 -0.7675 -1.7601 -0.4032
  253MOL0     H33369  -0.292   4.945   9.102  3.1687 -1.2147  1.0699
  253MOL0     H33370  -0.311   5.105   8.850 -0.7682 -2.5836 -3.9749
  253MOL0     H33371  -0.420   4.986   8.919  0.9187 -0.1396  0.9362
  253MOL0     H33372  -0.154   4.932   8.770  0.4533 -0.1086  1.6889
  253MOL0     H33373  -0.306   4.920   8.698  1.4217  1.0615 -1.3964
  253MOL0     H33374  -0.287   4.757   8.950 -0.3275  2.2361  0.3322
  253MOL0     H33375  -0.382   4.731   8.808  0.1914  1.0398  0.6354
  253MOL0     H33376  -0.209   4.579   8.842 -3.4827  1.9400  1.5769
  253MOL0     H33377  -0.079   4.704   8.836  2.3461 -6.0231 -0.2244
  253MOL0     H33378   0.008   5.155   9.424  1.1336 -0.1493  0.6574
  253MOL0     H33379   0.125   5.216   9.623 -1.4226 -2.1841 -0.4142
  253MOL0     H33380  -0.090   5.291  10.153 -0.0607 -1.1171  0.7285
  253MOL0     H33381   0.041   5.301  10.366  2.0581  2.6858  1.9454
  253MOL0     H33382   1.032   6.684  10.725 -0.4042 -0.5309 -1.2833
  253MOL0     H33383   1.056   6.879  10.870  0.9648 -3.0217 -0.0218
  253MOL0     H33384   1.405   7.337  10.940 -0.8924 -0.7630  0.4815
  253MOL0     H33385   1.384   7.465  11.161  0.1987  0.8858  0.0359
  253MOL0     H33386   1.187   7.757  11.291  1.4105  1.1738  1.8868
  253MOL0     H33387   1.276   7.695  11.160  1.3845 -3.4927 -1.7503
  253MOL0     H33388   1.297   7.619  11.460 -2.2232 -0.0956 -1.1474
  253MOL0     H33389   1.378   7.538  11.341 -0.3152  0.4588  3.1612
  253MOL0     H33390   1.415   7.840  11.363  0.3846  0.8586 -1.3708
  253MOL0     H33391   1.500   7.737  11.258 -3.4496  2.0235 -2.2769
  253MOL0     H33392   1.520   7.693  11.563  1.0359  0.3649  0.5964
  253MOL0     H33393   1.607   7.619  11.435  1.2522  0.8203  1.2734
  253MOL0     H33394   1.855   7.923  11.418  0.9051 -2.7404 -0.7283
  253MOL0     H33395   0.961   7.427  11.124 -0.9137 -2.1049  0.0629
  253MOL0     H33396   0.989   7.292  10.932  1.1483 -2.5132 -0.7937
  254MOL0     O33397   1.204   5.331   1.213 -0.7149 -0.8032 -0.4174
  254MOL0     C33398   1.182   5.453   1.212 -0.0871  0.4146 -0.2992
  254MOL0     O33399   1.087   5.513   1.147 -0.2281 -0.1496 -0.1507
  254MOL0     C33400   0.973   5.458   1.090  0.2896  0.1529  0.2937
  254MOL0     C33401   0.881   5.549   1.034  0.3890 -0.3934  0.0180
  254MOL0     C33402   0.747   5.502   1.007  0.7327  0.0374 -0.3823
  254MOL0     C33403   0.710   5.366   1.016 -0.5393  0.3919  0.3921
  254MOL0     O33404   0.582   5.330   0.989 -0.8289  0.1922 -0.3005
  254MOL0     C33405   0.529   5.195   1.018  0.0484  0.0903 -1.0846
  254MOL0     C33406   0.372   5.209   0.995 -0.0636 -0.5435  0.6860
  254MOL0     C33407   0.341   5.223   0.843  0.4851  0.2005  0.7996
  254MOL0     C33408   0.191   5.241   0.818  1.0479 -0.1668  1.0388
  254MOL0     C33409   0.137   5.223   0.675  0.4143  0.5984 -0.4274
  254MOL0     C33410   0.180   5.085   0.604  0.3530 -0.1135  0.9786
  254MOL0     C33411   0.315   5.101   0.519 -0.2314  0.6968  0.4794
  254MOL0     C33412   0.388   4.965   0.499  0.2293  0.6934  0.5388
  254MOL0     N33413   0.287   4.873   0.448 -0.3106 -0.0474  0.7753
  254MOL0     C33414   0.251   4.864   0.318  0.4159 -0.2485 -0.0575
  254MOL0     C33415   0.190   4.743   0.310  0.1792  0.2808  0.2723
  254MOL0     C33416   0.120   4.679   0.190 -0.2364 -0.5258 -0.3784
  254MOL0     C33417   0.056   4.782   0.099 -0.6729  1.4027  0.4885
  254MOL0     C33418  -0.048   4.857   0.178  1.0103  0.0669  0.8025
  254MOL0     C33419  -0.139   4.938   0.079 -0.4905 -0.8102  0.8787
  254MOL0     O33420  -0.255   4.857   0.045  0.1611  0.0059  0.1259
  254MOL0     C33421  -0.315   4.913  -0.064  0.0853  0.1608 -0.1290
  254MOL0     C33422  -0.426   4.989  -0.035 -0.5071  0.5325 -0.0133
  254MOL0     C33423  -0.503   5.039  -0.139  0.3014  0.6458  0.9002
  254MOL0     C33424  -0.453   5.022  -0.272  0.7552 -0.3919 -0.5457
  254MOL0     C33425  -0.519   5.079  -0.391 -0.2272  0.3523 -0.1993
  254MOL0     O33426  -0.653   5.126  -0.380 -0.6252 -0.8755  0.2187
  254MOL0     C33427  -0.734   5.172  -0.486  0.1424 -0.0361 -0.2440
  254MOL0     C33428  -0.695   5.158  -0.617  0.1838  0.8695  0.1443
  254MOL0     C33429  -0.788   5.211  -0.709 -0.6241 -0.1482  0.9838
  254MOL0     C33430  -0.915   5.256  -0.676  0.5335 -0.0415  0.5615
  254MOL0     O33431  -0.994   5.304  -0.778  0.0637 -0.6318  0.6979
  254MOL0     C33432  -1.123   5.351  -0.737  1.0677  0.1963  0.1014
  254MOL0     C33433  -1.208   5.382  -0.861  0.8590  0.0556  0.3486
  254MOL0     C33434  -1.349   5.429  -0.813 -0.3785  0.2465 -0.1315
  254MOL0     C33435  -1.442   5.452  -0.940 -0.6281 -0.7172 -0.4654
  254MOL0     C33436  -1.578   5.518  -0.893 -0.0895  0.4617 -0.4477
  254MOL0     C33437  -1.665   5.545  -1.012 -0.5110 -0.9850 -0.5918
  254MOL0     C33438  -1.809   5.570  -0.963  0.8456  0.2763  0.0212
  254MOL0     C33439  -1.828   5.697  -0.885  0.3440 -0.3310  0.1764
  254MOL0    Cl33440  -2.000   5.738  -0.846 -0.2567 -0.1193  0.1601
  254MOL0     C33441  -0.948   5.253  -0.543  0.4868 -0.9089 -0.0615
  254MOL0     C33442  -0.856   5.217  -0.446  0.1754 -0.4913 -0.2518
  254MOL0     O33443  -0.446   5.085  -0.489 -0.1564 -0.5470  0.5574
  254MOL0     C33444  -0.336   4.946  -0.290  0.7885  0.5288  0.1927
  254MOL0     C33445  -0.272   4.884  -0.188  0.2201 -0.0027 -0.4948
  254MOL0     N33446   0.196   4.677   0.426  1.0625  0.9612  0.0264
  254MOL0     N33447   0.246   4.756   0.514 -0.1313 -0.3136 -0.2131
  254MOL0     C33448   0.812   5.272   1.055  1.4386 -0.3234  0.7844
  254MOL0     C33449   0.935   5.318   1.100  0.3863 -0.5765 -0.0471
  254MOL0     C33450   1.265   5.548   1.278 -0.1988 -0.2898 -0.7570
  254MOL0     C33451   1.405   5.519   1.287  0.7374  0.2038  0.5077
  254MOL0     C33452   1.486   5.613   1.351  0.0444 -0.4083  0.3924
  254MOL0     C33453   1.438   5.735   1.397 -0.3334  0.5292  0.3899
  254MOL0     O33454   1.510   5.841   1.459  0.4928 -0.0071  0.2171
  254MOL0     C33455   1.656   5.820   1.496  0.5182  0.7480  0.9715
  254MOL0     C33456   1.698   5.916   1.610 -0.5365 -0.7018  0.1203
  254MOL0     C33457   1.627   5.890   1.747 -0.4846  0.3394 -0.4551
  254MOL0     C33458   1.651   5.997   1.852  0.0222  0.0297  0.4207
  254MOL0     C33459   1.561   5.991   1.972 -0.1794  0.5325  0.2782
  254MOL0     C33460   1.498   5.984   2.065 -0.2135 -0.0139 -0.0100
  254MOL0     C33461   1.302   5.766   1.390 -0.1954 -0.7337  0.2141
  254MOL0     C33462   1.212   5.672   1.332  0.0524 -0.0630 -0.8055
  254MOL0     H33463   0.908   5.654   1.032  2.6884 -0.9449 -1.2452
  254MOL0     H33464   0.667   5.567   0.973  0.4754 -0.1800 -0.1983
  254MOL0     H33465   0.545   5.155   1.119 -3.2982 -1.7111 -1.1183
  254MOL0     H33466   0.579   5.117   0.959 -0.2822 -1.3698  0.4831
  254MOL0     H33467   0.345   5.304   1.043  2.9174  0.4805  0.5364
  254MOL0     H33468   0.326   5.121   1.041 -1.4028  0.4143  1.2193
  254MOL0     H33469   0.392   5.145   0.787  0.9180 -1.1765  2.9779
  254MOL0     H33470   0.394   5.311   0.805  1.5475 -0.1881  1.3406
  254MOL0     H33471   0.142   5.172   0.887  3.4957 -3.6764 -0.4261
  254MOL0     H33472   0.165   5.346   0.832  0.3914 -0.0034 -1.0261
  254MOL0     H33473   0.174   5.310   0.620  0.8861  1.4944  1.2162
  254MOL0     H33474   0.029   5.235   0.687  0.5176  0.1172  1.2082
  254MOL0     H33475   0.099   5.049   0.540  1.7417  1.9530 -2.2124
  254MOL0     H33476   0.199   5.005   0.675  0.2708 -2.3230 -1.3292
  254MOL0     H33477   0.273   5.129   0.422  2.0058 -1.0649 -1.0928
  254MOL0     H33478   0.384   5.176   0.559 -1.2388  0.8514  2.0050
  254MOL0     H33479   0.431   4.919   0.589 -1.3926 -2.1844 -0.0261
  254MOL0     H33480   0.470   4.984   0.428 -0.6728 -0.2672 -0.8027
  254MOL0     H33481   0.279   4.928   0.235 -1.7199 -0.3016 -0.8603
  254MOL0     H33482   0.043   4.621   0.241 -1.0529  0.0587 -0.9254
  254MOL0     H33483   0.198   4.633   0.128  0.6504  0.1541  0.1997
  254MOL0     H33484  -0.004   4.737   0.018  3.1818 -1.1273 -1.2398
  254MOL0     H33485   0.130   4.843   0.047  0.5263 -0.9507 -0.7571
  254MOL0     H33486  -0.108   4.796   0.247 -0.7772  0.1431 -0.6067
  254MOL0     H33487   0.005   4.928   0.243  0.9289  1.0509 -0.1821
  254MOL0     H33488  -0.086   4.975  -0.009  0.9845  2.4487  2.9498
  254MOL0     H33489  -0.169   5.026   0.137  0.9716 -0.1563  0.6728
  254MOL0     H33490  -0.451   5.006   0.069 -0.0857 -3.6796  0.9617
  254MOL0     H33491  -0.588   5.102  -0.112 -0.1272  0.3226  0.3214
  254MOL0     H33492  -0.600   5.125  -0.658 -1.5430 -3.3954 -0.9483
  254MOL0     H33493  -0.763   5.229  -0.813 -0.4645 -0.1680  1.0172
  254MOL0     H33494  -1.114   5.431  -0.664  1.6020 -1.9011  2.4817
  254MOL0     H33495  -1.187   5.277  -0.690 -4.3104  2.6299 -2.5098
  254MOL0     H33496  -1.220   5.306  -0.938  0.4279  1.7576 -1.3268
  254MOL0     H33497  -1.163   5.464  -0.918  2.8088 -1.4954 -0.4919
  254MOL0     H33498  -1.328   5.512  -0.744  1.1759 -1.2147  1.2470
  254MOL0     H33499  -1.403   5.346  -0.767 -3.7053  0.3524 -3.4124
  254MOL0     H33500  -1.388   5.524  -1.001 -0.0422  0.8201  1.7390
  254MOL0     H33501  -1.469   5.360  -0.992 -0.4463 -0.1209 -1.6578
  254MOL0     H33502  -1.566   5.611  -0.837  1.9954 -0.4032  0.6577
  254MOL0     H33503  -1.622   5.445  -0.823  0.5856  1.7446  1.3745
  254MOL0     H33504  -1.662   5.464  -1.086  3.0537 -1.3382 -0.2175
  254MOL0     H33505  -1.621   5.632  -1.062  2.1088 -0.5018  2.2651
  254MOL0     H33506  -1.877   5.571  -1.049 -0.8883 -2.3788  1.2471
  254MOL0     H33507  -1.841   5.486  -0.901 -0.1734 -0.0749 -0.9340
  254MOL0     H33508  -1.795   5.778  -0.951 -0.9707 -0.0641 -0.1880
  254MOL0     H33509  -1.756   5.693  -0.802  3.6305 -1.4276 -2.4931
  254MOL0     H33510  -1.041   5.297  -0.510 -1.3426 -3.4981 -1.4232
  254MOL0     H33511  -0.883   5.230  -0.341  2.2112  3.1071 -0.0121
  254MOL0     H33512  -0.303   4.930  -0.392  3.0290 -1.7614  1.1771
  254MOL0     H33513  -0.190   4.817  -0.209 -0.3516 -0.1976 -2.2119
  254MOL0     H33514   0.797   5.164   1.062  1.4581 -0.5236 -1.4310
  254MOL0     H33515   0.989   5.238   1.149 -0.1650 -1.6618 -1.1734
  254MOL0     H33516   1.447   5.426   1.251  0.8704  0.7779 -0.8718
  254MOL0     H33517   1.590   5.583   1.344 -0.4281 -2.3779  1.1430
  254MOL0     H33518   1.719   5.834   1.408 -0.5764  0.8420  0.1670
  254MOL0     H33519   1.670   5.721   1.540  2.1732  1.3656  1.9025
  254MOL0     H33520   1.804   5.896   1.628 -0.0595  1.8164  0.4022
  254MOL0     H33521   1.699   6.022   1.583 -3.3817 -1.4276 -3.5631
  254MOL0     H33522   1.672   5.795   1.778  0.3890  0.6449 -0.7654
  254MOL0     H33523   1.522   5.875   1.721 -0.8753  2.0898  0.0330
  254MOL0     H33524   1.756   6.002   1.884 -0.3260  2.4238  1.4444
  254MOL0     H33525   1.625   6.095   1.810  0.4365 -0.9526 -2.2855
  254MOL0     H33526   1.446   5.975   2.159  1.5591  1.2261  1.1387
  254MOL0     H33527   1.268   5.869   1.401  0.6663 -0.3581 -0.5410
  254MOL0     H33528   1.107   5.686   1.310 -0.6224 -3.0043  0.1698
  255MOL0     O33529   6.814   2.910   0.925 -0.0671  0.3645  0.3783
  255MOL0     C33530   6.902   2.987   0.957 -0.0304  0.6286 -0.0747
  255MOL0     O33531   7.034   2.984   0.920  0.1917  0.3806 -0.4064
  255MOL0     C33532   7.073   2.915   0.810  0.6266 -0.8791  0.8440
  255MOL0     C33533   7.203   2.925   0.795 -0.2391 -0.2637  0.3199
  255MOL0     C33534   7.270   2.866   0.691 -1.3834  0.2247 -0.4158
  255MOL0     C33535   7.200   2.783   0.601  0.5060 -0.6487 -0.6094
  255MOL0     O33536   7.278   2.706   0.511 -0.3136  0.2839 -0.5034
  255MOL0     C33537   7.217   2.606   0.430  0.3048 -0.1503 -0.1098
  255MOL0     C33538   7.318   2.564   0.324 -0.5973 -0.2380 -0.1454
  255MOL0     C33539   7.243   2.526   0.200  1.0461  0.0514 -0.5717
  255MOL0     C33540   7.345   2.487   0.082  0.1810 -0.6259 -0.2985
  255MOL0     C33541   7.291   2.493  -0.060  0.6900  0.8655  0.1423
  255MOL0     C33542   7.267   2.363  -0.134  0.0845 -0.8625 -0.2326
  255MOL0     C33543   7.374   2.327  -0.236  0.2051 -0.2617  1.0480
  255MOL0     C33544   7.513   2.314  -0.171  0.0880  0.5690  0.6080
  255MOL0     N33545   7.622   2.275  -0.265  0.1826 -0.4643 -0.3857
  255MOL0     C33546   7.654   2.153  -0.322 -0.2112 -0.5113 -0.3016
  255MOL0     C33547   7.766   2.183  -0.398  0.0968  0.3554 -0.1346
  255MOL0     C33548   7.840   2.074  -0.478  0.4676 -0.5575 -0.4322
  255MOL0     C33549   7.829   2.095  -0.630  0.3734  0.6127  0.0009
  255MOL0     C33550   7.911   1.987  -0.717 -0.1995 -0.9241 -0.7449
  255MOL0     C33551   7.864   1.981  -0.860 -0.7018 -1.3144  0.9061
  255MOL0     O33552   7.957   1.903  -0.931 -0.0033 -0.9123  0.0089
  255MOL0     C33553   8.070   1.950  -0.982  0.1733 -0.3210 -0.7903
  255MOL0     C33554   8.148   1.863  -1.058  0.0340  0.6630  0.0559
  255MOL0     C33555   8.269   1.904  -1.114  0.5948 -0.9239  0.5915
  255MOL0     C33556   8.318   2.037  -1.095 -0.3871  0.4176  0.1883
  255MOL0     C33557   8.446   2.087  -1.159  0.0616  0.0753 -0.1623
  255MOL0     O33558   8.485   2.214  -1.129 -0.2867  1.1188 -0.1941
  255MOL0     C33559   8.610   2.262  -1.158 -0.5215  0.2682 -0.5861
  255MOL0     C33560   8.638   2.304  -1.284  1.2270  1.1158 -0.7633
  255MOL0     C33561   8.759   2.377  -1.306  0.3253  0.4184  1.2604
  255MOL0     C33562   8.843   2.415  -1.208 -0.1845  0.3288  0.1904
  255MOL0     O33563   8.956   2.488  -1.245  0.3468 -0.4647 -0.5463
  255MOL0     C33564   9.061   2.514  -1.159  0.4161 -0.3195  0.4039
  255MOL0     C33565   9.198   2.503  -1.219  0.6640  0.1629  0.0784
  255MOL0     C33566   9.228   2.355  -1.256 -0.1736  0.2907 -0.6853
  255MOL0     C33567   9.356   2.353  -1.323  0.4443 -1.4301 -0.6103
  255MOL0     C33568   9.400   2.216  -1.360 -0.8650  0.3139 -0.1837
  255MOL0     C33569   9.534   2.196  -1.444  0.6703  0.0782  0.3887
  255MOL0     C33570   9.562   2.309  -1.547 -0.0083 -0.0676  0.4252
  255MOL0     C33571   9.638   2.430  -1.478  1.1342  0.5696  0.5097
  255MOL0    Cl33572   9.780   2.352  -1.409 -0.3223 -0.1215 -0.2689
  255MOL0     C33573   8.807   2.387  -1.079 -0.2087 -0.4165  0.5752
  255MOL0     C33574   8.687   2.324  -1.053  1.0554 -0.1953  0.4037
  255MOL0     O33575   8.519   1.999  -1.207 -0.2826  0.6931 -0.0509
  255MOL0     C33576   8.233   2.124  -1.027  0.9626  0.7033 -0.8429
  255MOL0     C33577   8.110   2.087  -0.969 -0.7303 -0.1221 -0.0694
  255MOL0     N33578   7.789   2.318  -0.399 -0.7356 -0.2507  0.3100
  255MOL0     N33579   7.701   2.373  -0.315  0.6080 -0.5904  0.0358
  255MOL0     C33580   7.055   2.785   0.604 -0.3601  0.0314  0.6094
  255MOL0     C33581   6.986   2.862   0.703 -0.4519  1.0712  0.6355
  255MOL0     C33582   6.853   3.106   1.023  0.7047 -0.3355  0.3780
  255MOL0     C33583   6.732   3.102   1.085  0.9488 -0.1575  0.2141
  255MOL0     C33584   6.690   3.210   1.160  0.7804 -0.0008  0.3944
  255MOL0     C33585   6.770   3.323   1.171 -0.5447  0.8451  0.2583
  255MOL0     O33586   6.734   3.434   1.232  0.4516  0.2298 -0.0398
  255MOL0     C33587   6.617   3.435   1.317  0.2499 -0.1804 -0.5580
  255MOL0     C33588   6.550   3.569   1.291 -0.5630 -0.7183  0.2861
  255MOL0     C33589   6.614   3.677   1.371 -0.1985 -0.1881  0.2993
  255MOL0     C33590   6.554   3.815   1.329  0.0172  0.7046 -0.1465
  255MOL0     C33591   6.599   3.925   1.416 -0.4447 -0.3003  0.4276
  255MOL0     C33592   6.647   4.032   1.457  0.7675  0.0226 -0.0489
  255MOL0     C33593   6.892   3.328   1.098 -0.0846  1.0383 -0.6227
  255MOL0     C33594   6.942   3.217   1.031 -0.0401 -0.2344 -0.6156
  255MOL0     H33595   7.258   2.989   0.863  0.7491 -0.1365 -0.5762
  255MOL0     H33596   7.377   2.867   0.704 -1.1614 -2.7519 -1.1813
  255MOL0     H33597   7.134   2.655   0.380  0.8270 -0.3877 -1.2361
  255MOL0     H33598   7.177   2.521   0.486  2.3574  0.8730  3.2443
  255MOL0     H33599   7.390   2.496   0.372 -0.3581  1.4896  2.1357
  255MOL0     H33600   7.377   2.652   0.297 -0.9668 -0.2588 -1.0564
  255MOL0     H33601   7.186   2.612   0.164  2.7492  2.3425  1.7846
  255MOL0     H33602   7.176   2.444   0.229 -0.0808  0.9286 -0.6486
  255MOL0     H33603   7.431   2.555   0.085  0.0796 -0.5181  1.0369
  255MOL0     H33604   7.374   2.384   0.107 -0.4467 -1.2897 -2.1449
  255MOL0     H33605   7.370   2.536  -0.122  1.7838 -2.2868 -0.8848
  255MOL0     H33606   7.199   2.551  -0.068 -1.6526 -2.4326  0.9965
  255MOL0     H33607   7.164   2.374  -0.168  0.6987  0.4212 -1.8539
  255MOL0     H33608   7.266   2.275  -0.069  0.8120  0.8302  2.2530
  255MOL0     H33609   7.345   2.232  -0.282  3.6374 -1.5543  1.2745
  255MOL0     H33610   7.379   2.402  -0.316  0.2426 -1.3362  0.0126
  255MOL0     H33611   7.516   2.233  -0.098 -3.8313  1.7195  2.2745
  255MOL0     H33612   7.548   2.409  -0.131  0.9970  0.8341 -0.7345
  255MOL0     H33613   7.608   2.058  -0.298 -3.3900 -0.0803 -3.7471
  255MOL0     H33614   7.797   1.977  -0.452 -1.7160  0.1381 -1.2154
  255MOL0     H33615   7.949   2.076  -0.462  0.7080 -0.8518 -1.8911
  255MOL0     H33616   7.858   2.198  -0.652 -1.2596  1.5214  1.7171
  255MOL0     H33617   7.725   2.075  -0.656  0.5124  0.5231 -0.4896
  255MOL0     H33618   8.009   2.029  -0.696 -1.2546  1.8423 -0.9328
  255MOL0     H33619   7.910   1.884  -0.678 -0.2031 -0.3045  1.0130
  255MOL0     H33620   7.855   2.080  -0.904 -0.2466 -1.3663  0.6919
  255MOL0     H33621   7.771   1.923  -0.867 -0.3069 -1.7212 -2.7897
  255MOL0     H33622   8.109   1.764  -1.082 -3.4206  1.1864  2.7055
  255MOL0     H33623   8.328   1.833  -1.171 -1.7103 -0.3012 -2.8111
  255MOL0     H33624   8.583   2.263  -1.368  3.1944  0.2162 -1.6714
  255MOL0     H33625   8.780   2.382  -1.412 -1.0587  0.7324  0.9736
  255MOL0     H33626   9.065   2.431  -1.088  2.6920 -1.6431 -1.1369
  255MOL0     H33627   9.044   2.608  -1.106 -0.5270 -1.0804  1.4972
  255MOL0     H33628   9.272   2.529  -1.143  0.6480 -2.3594  1.0561
  255MOL0     H33629   9.194   2.568  -1.307 -3.8918 -1.2491 -1.0145
  255MOL0     H33630   9.145   2.319  -1.318 -1.8698 -1.5438  2.3915
  255MOL0     H33631   9.221   2.300  -1.162 -2.4690  1.2021 -0.2626
  255MOL0     H33632   9.353   2.416  -1.412 -2.3120 -2.1932 -1.1210
  255MOL0     H33633   9.427   2.404  -1.257  0.0877 -0.7200 -0.7632
  255MOL0     H33634   9.324   2.163  -1.417  2.3209 -3.7080 -1.1846
  255MOL0     H33635   9.396   2.160  -1.266 -3.6258  0.1169 -0.3374
  255MOL0     H33636   9.516   2.099  -1.490 -1.8654  0.5437  0.2484
  255MOL0     H33637   9.613   2.182  -1.371  1.0532  1.1897  0.2128
  255MOL0     H33638   9.626   2.273  -1.628 -0.2705  1.6292 -0.5854
  255MOL0     H33639   9.467   2.336  -1.596  0.1455  1.2254  0.7993
  255MOL0     H33640   9.579   2.476  -1.398  1.9637 -0.1717  1.5745
  255MOL0     H33641   9.666   2.517  -1.538  0.1654  1.5898  1.4710
  255MOL0     H33642   8.864   2.419  -0.992  0.6746 -3.7106  1.3615
  255MOL0     H33643   8.653   2.324  -0.950 -0.5564  2.3658 -0.0357
  255MOL0     H33644   8.261   2.229  -1.025  0.4198  0.9403 -2.9788
  255MOL0     H33645   8.043   2.161  -0.927  1.1777  1.4896  0.3136
  255MOL0     H33646   6.994   2.731   0.532 -0.5307  2.8545 -1.5432
  255MOL0     H33647   6.887   2.906   0.699  0.1621  2.4392 -0.5213
  255MOL0     H33648   6.664   3.017   1.085 -0.8775  1.2097 -1.4335
  255MOL0     H33649   6.597   3.205   1.214  1.1152  0.9105  1.0783
  255MOL0     H33650   6.645   3.405   1.418 -1.1875 -1.4561 -0.4970
  255MOL0     H33651   6.538   3.361   1.301 -0.7407  0.8109 -0.3567
  255MOL0     H33652   6.554   3.594   1.185 -2.9405 -0.3810  0.2363
  255MOL0     H33653   6.447   3.573   1.326 -0.8540 -2.8617 -0.1401
  255MOL0     H33654   6.720   3.678   1.346 -0.7278  1.4461 -2.3363
  255MOL0     H33655   6.599   3.657   1.477 -0.5029  2.7290  0.8901
  255MOL0     H33656   6.573   3.843   1.225  0.4038 -2.7753 -1.1137
  255MOL0     H33657   6.446   3.802   1.329  0.0724 -0.5233 -2.9870
  255MOL0     H33658   6.684   4.127   1.489  0.4155 -0.1240  0.7974
  255MOL0     H33659   6.959   3.412   1.116  0.4065  0.1376  2.3797
  255MOL0     H33660   7.039   3.231   0.985 -0.8111  2.0295 -1.6912
  256MOL0     O33661   4.576   3.067   4.103 -0.9925 -0.4901 -0.4617
  256MOL0     C33662   4.632   2.963   4.072  0.2519 -0.8101 -0.2570
  256MOL0     O33663   4.575   2.839   4.060 -0.2105  0.4999 -0.6447
  256MOL0     C33664   4.441   2.818   4.080  0.4888 -0.5518  0.2925
  256MOL0     C33665   4.332   2.904   4.063 -0.0486 -0.3214  0.5829
  256MOL0     C33666   4.205   2.860   4.080 -0.1659 -0.0107  0.5212
  256MOL0     C33667   4.177   2.727   4.103  0.5027  0.2960 -0.4691
  256MOL0     O33668   4.051   2.691   4.126  0.0033  0.1011 -0.6347
  256MOL0     C33669   4.027   2.653   4.269 -0.7720  0.8738  0.0716
  256MOL0     C33670   3.939   2.533   4.263  0.6415  0.1886 -0.6731
  256MOL0     C33671   3.795   2.578   4.250  0.7120 -0.2265 -0.4231
  256MOL0     C33672   3.700   2.457   4.252  0.3833 -0.1742 -0.0325
  256MOL0     C33673   3.554   2.478   4.228 -0.5890  0.5355 -1.1468
  256MOL0     C33674   3.488   2.352   4.178 -0.8873 -0.5764 -0.5405
  256MOL0     C33675   3.332   2.349   4.187 -0.4074 -0.4815  0.5005
  256MOL0     C33676   3.263   2.386   4.322  0.0686 -0.9344  0.0715
  256MOL0     N33677   3.330   2.287   4.411 -0.2724 -0.2787 -1.2285
  256MOL0     C33678   3.370   2.324   4.537 -0.5750  0.5697 -0.4921
  256MOL0     C33679   3.387   2.202   4.597  0.2981 -0.3686  0.3257
  256MOL0     C33680   3.435   2.198   4.736 -0.5076  0.1943 -0.8471
  256MOL0     C33681   3.336   2.174   4.853  0.1630 -0.0675  0.7489
  256MOL0     C33682   3.277   2.303   4.909  1.4897  0.2063  0.0622
  256MOL0     C33683   3.155   2.261   5.014  0.0601 -0.1013 -0.2957
  256MOL0     O33684   3.140   2.348   5.127 -0.2241 -0.3880  0.5199
  256MOL0     C33685   3.073   2.466   5.115  0.8597  0.5490  0.5016
  256MOL0     C33686   3.043   2.543   5.004  0.0700  0.1125 -0.0218
  256MOL0     C33687   2.972   2.658   5.012  0.3373  0.5995 -0.3068
  256MOL0     C33688   2.915   2.702   5.132  0.5775  0.4587  0.8976
  256MOL0     C33689   2.851   2.834   5.133  0.7757  0.6984 -0.3410
  256MOL0     O33690   2.824   2.863   5.271  0.0079  0.3436  0.9935
  256MOL0     C33691   2.752   2.972   5.312  0.3495 -0.1060 -0.1608
  256MOL0     C33692   2.702   2.962   5.443 -0.2338  0.9472 -0.8912
  256MOL0     C33693   2.633   3.077   5.495 -0.0473 -0.1657  1.1929
  256MOL0     C33694   2.606   3.184   5.414 -0.0560 -0.6542 -0.6182
  256MOL0     O33695   2.549   3.306   5.451 -0.3996 -0.3185  0.2623
  256MOL0     C33696   2.430   3.289   5.520 -0.1626 -0.3354 -0.3536
  256MOL0     C33697   2.449   3.325   5.670 -0.0367  0.5309  0.3103
  256MOL0     C33698   2.335   3.281   5.759 -0.0943  0.2734 -0.1448
  256MOL0     C33699   2.344   3.347   5.899  0.4797  0.0522  1.1327
  256MOL0     C33700   2.276   3.267   6.004  0.2649  0.5157 -0.2137
  256MOL0     C33701   2.134   3.296   6.009 -0.0487  0.1869  0.3548
  256MOL0     C33702   2.063   3.232   6.126 -0.0463  0.2364  0.2522
  256MOL0     C33703   1.938   3.320   6.178  0.0947 -0.3729  0.3084
  256MOL0    Cl33704   1.836   3.225   6.285  0.0761 -0.1603  0.0672
  256MOL0     C33705   2.665   3.198   5.287 -0.5280  0.1503 -0.4944
  256MOL0     C33706   2.734   3.088   5.234 -0.2073  0.3512 -0.0126
  256MOL0     O33707   2.811   2.896   5.034  0.6805 -0.4535 -0.0852
  256MOL0     C33708   2.945   2.623   5.249 -0.2562  0.0896 -0.2777
  256MOL0     C33709   3.026   2.511   5.238  0.7616 -0.5343 -0.2752
  256MOL0     N33710   3.360   2.097   4.508  0.1058 -0.8085  0.6508
  256MOL0     N33711   3.319   2.149   4.402  0.5991 -0.4807  0.5994
  256MOL0     C33712   4.275   2.630   4.112 -0.1482  0.4311  0.1220
  256MOL0     C33713   4.414   2.679   4.106  0.4838  0.1583  0.5183
  256MOL0     C33714   4.777   2.977   4.088  0.2077  0.7004 -0.0547
  256MOL0     C33715   4.841   2.873   4.158  0.2255 -0.2812 -1.2206
  256MOL0     C33716   4.984   2.884   4.172  0.2648  0.2880  0.0374
  256MOL0     C33717   5.058   2.982   4.113 -0.2549 -0.2585  0.4894
  256MOL0     O33718   5.200   2.990   4.119  0.4434  0.2812 -0.1822
  256MOL0     C33719   5.268   2.918   4.226  0.5796 -0.3018 -0.2558
  256MOL0     C33720   5.403   2.972   4.233 -0.2134  0.8160  0.3068
  256MOL0     C33721   5.511   2.900   4.154 -0.4782 -0.4272  0.0799
  256MOL0     C33722   5.642   2.970   4.168 -0.0031 -0.1323 -0.7088
  256MOL0     C33723   5.710   2.912   4.282  0.1017  0.1453 -0.3733
  256MOL0     C33724   5.766   2.863   4.385  0.4597 -0.1454  0.3148
  256MOL0     C33725   4.993   3.073   4.043 -0.2440 -0.6342 -0.8333
  256MOL0     C33726   4.856   3.076   4.031  0.1710  0.4203 -0.5962
  256MOL0     H33727   4.350   3.010   4.048  0.0291 -0.5067 -0.7562
  256MOL0     H33728   4.127   2.934   4.078 -1.1630 -0.9946 -2.5322
  256MOL0     H33729   3.988   2.744   4.318  0.2910  1.4059 -0.0354
  256MOL0     H33730   4.123   2.632   4.317  1.1518  2.9612 -2.5499
  256MOL0     H33731   3.958   2.491   4.362  0.5535  3.1759  0.7168
  256MOL0     H33732   3.966   2.469   4.178  0.2197  1.2278 -1.6120
  256MOL0     H33733   3.788   2.633   4.156  1.8443 -1.2615 -1.1388
  256MOL0     H33734   3.774   2.656   4.324 -0.1429  0.6130 -1.5053
  256MOL0     H33735   3.740   2.388   4.178  2.1809  1.5613 -0.7913
  256MOL0     H33736   3.712   2.414   4.352 -2.2384  0.0041  0.4301
  256MOL0     H33737   3.536   2.561   4.160  0.0601  2.0652  0.4752
  256MOL0     H33738   3.506   2.501   4.324  0.7303 -0.7932 -0.1184
  256MOL0     H33739   3.516   2.256   4.222 -1.9905 -2.9166 -4.4357
  256MOL0     H33740   3.515   2.338   4.073 -1.1736  0.6905 -0.7994
  256MOL0     H33741   3.301   2.419   4.110  1.8905 -1.7272 -1.7002
  256MOL0     H33742   3.287   2.254   4.155 -0.6444 -0.5309  0.9759
  256MOL0     H33743   3.154   2.382   4.330 -0.0342 -4.1188 -1.2215
  256MOL0     H33744   3.291   2.488   4.351 -0.8478 -1.0295  1.3736
  256MOL0     H33745   3.393   2.420   4.582  0.2212  0.5618 -0.8553
  256MOL0     H33746   3.498   2.282   4.765 -1.4574  1.1490 -1.4410
  256MOL0     H33747   3.489   2.103   4.737 -0.0299  0.4652 -0.2018
  256MOL0     H33748   3.376   2.113   4.934 -2.0006  0.1561  2.0596
  256MOL0     H33749   3.255   2.113   4.811  1.4556 -0.4473 -1.3593
  256MOL0     H33750   3.355   2.362   4.959  1.6654  1.3242 -1.4513
  256MOL0     H33751   3.228   2.362   4.831  1.3651 -0.9741 -0.7745
  256MOL0     H33752   3.171   2.163   5.060 -0.4525  0.6591  1.5903
  256MOL0     H33753   3.060   2.262   4.959  0.2629 -1.0878 -0.6943
  256MOL0     H33754   3.079   2.507   4.908  0.1200 -0.3957  0.1856
  256MOL0     H33755   2.962   2.715   4.921 -0.3123 -0.6086 -1.0215
  256MOL0     H33756   2.726   2.872   5.499  0.3863  1.1695 -0.7929
  256MOL0     H33757   2.583   3.071   5.591  0.3478  0.0714  1.4175
  256MOL0     H33758   2.403   3.183   5.522  2.0969 -0.9395  1.0210
  256MOL0     H33759   2.345   3.348   5.484  1.3451  1.4290 -1.2333
  256MOL0     H33760   2.456   3.434   5.670  2.0397  0.4619 -1.7376
  256MOL0     H33761   2.546   3.279   5.689 -0.0515 -0.9966 -2.7802
  256MOL0     H33762   2.338   3.172   5.766  1.3067  0.1559 -1.8785
  256MOL0     H33763   2.239   3.311   5.714  0.7619  1.8325 -0.9965
  256MOL0     H33764   2.452   3.349   5.918  0.8310  2.7495 -0.6007
  256MOL0     H33765   2.315   3.452   5.890  1.4251  0.2580  0.2368
  256MOL0     H33766   2.323   3.294   6.100  2.3193 -4.6630  0.6239
  256MOL0     H33767   2.297   3.161   5.984 -0.5765  0.8468 -3.2099
  256MOL0     H33768   2.083   3.272   5.915 -1.3659  2.2265  0.4808
  256MOL0     H33769   2.115   3.403   6.016  1.3297  0.5900 -1.4481
  256MOL0     H33770   2.021   3.134   6.100  1.1246 -1.0489  2.8621
  256MOL0     H33771   2.130   3.208   6.209  0.1149 -2.0995 -0.4654
  256MOL0     H33772   1.876   3.340   6.090 -1.0236 -1.9268  0.6923
  256MOL0     H33773   1.972   3.412   6.226 -2.7352 -0.0235  1.8118
  256MOL0     H33774   2.658   3.289   5.229  0.5234  0.0847 -0.7447
  256MOL0     H33775   2.774   3.086   5.134 -0.2691 -1.8857 -0.0460
  256MOL0     H33776   2.922   2.671   5.344  0.5212  1.5700 -0.8134
  256MOL0     H33777   3.034   2.452   5.329 -0.8070  2.4792  1.9913
  256MOL0     H33778   4.245   2.527   4.132  0.9697  0.0640 -0.0385
  256MOL0     H33779   4.491   2.614   4.145 -1.4942 -1.3947  2.1095
  256MOL0     H33780   4.787   2.785   4.192  1.2492 -1.0060 -1.4254
  256MOL0     H33781   5.035   2.798   4.214 -0.4380 -0.5806 -0.8452
  256MOL0     H33782   5.279   2.811   4.204 -0.9309 -0.3235 -1.0751
  256MOL0     H33783   5.222   2.949   4.320 -0.0189  1.0952 -0.9758
  256MOL0     H33784   5.397   3.072   4.190  1.6620  1.0370  0.4958
  256MOL0     H33785   5.441   2.984   4.335  2.0508  1.3609 -0.5410
  256MOL0     H33786   5.474   2.921   4.053  3.1116  1.6799 -0.9726
  256MOL0     H33787   5.513   2.796   4.187  0.0788 -0.2270  0.6838
  256MOL0     H33788   5.709   2.953   4.083 -0.4141  0.4503 -1.1558
  256MOL0     H33789   5.624   3.078   4.172 -2.2018 -0.1321 -4.8898
  256MOL0     H33790   5.816   2.838   4.477 -1.7439 -0.2099  1.5784
  256MOL0     H33791   5.048   3.162   4.012 -0.1898 -0.2517  0.2838
  256MOL0     H33792   4.784   3.137   3.977 -0.0089 -1.7817 -3.0344
  257MOL0     O33793   8.100   0.133   5.091 -0.3052 -0.6598  0.1278
  257MOL0     C33794   8.015   0.048   5.089  0.1983  0.4155 -0.6496
  257MOL0     O33795   7.885   0.072   5.053 -0.3275  0.3664  0.7997
  257MOL0     C33796   7.851   0.183   4.974 -0.0171  0.2228  0.1881
  257MOL0     C33797   7.925   0.218   4.859  0.1475  0.6975  0.5883
  257MOL0     C33798   7.880   0.311   4.771 -0.9058  0.1888 -0.4299
  257MOL0     C33799   7.769   0.382   4.794 -0.1074  0.5943 -0.2346
  257MOL0     O33800   7.719   0.473   4.706 -0.2020  0.8540  0.4128
  257MOL0     C33801   7.595   0.440   4.642  0.1615  1.1509  0.1736
  257MOL0     C33802   7.541   0.572   4.602 -0.1174 -0.2502 -0.5907
  257MOL0     C33803   7.402   0.554   4.531  0.5851 -0.4632  0.0408
  257MOL0     C33804   7.321   0.680   4.534  0.0774 -0.8199 -0.4347
  257MOL0     C33805   7.175   0.659   4.507 -1.0339 -0.1280  1.0559
  257MOL0     C33806   7.094   0.785   4.504  0.9345  0.3511 -0.0550
  257MOL0     C33807   6.947   0.749   4.462  0.3308 -0.3167  0.7666
  257MOL0     C33808   6.917   0.790   4.312 -0.9009  0.6651  0.0588
  257MOL0     N33809   6.780   0.825   4.264  0.7163  0.5168  0.3864
  257MOL0     C33810   6.673   0.737   4.292 -0.2604  0.1907 -0.8694
  257MOL0     C33811   6.563   0.802   4.241  0.2522  0.4799 -0.4088
  257MOL0     C33812   6.425   0.745   4.233  0.9747 -0.2971 -0.0482
  257MOL0     C33813   6.412   0.601   4.172 -0.4460 -0.4566 -0.0625
  257MOL0     C33814   6.277   0.587   4.112  0.4643  0.5222  0.0471
  257MOL0     C33815   6.164   0.569   4.214  0.0710 -0.8044 -0.2190
  257MOL0     O33816   6.033   0.543   4.158  0.5386 -0.1237 -0.1343
  257MOL0     C33817   5.933   0.520   4.247  0.2796  0.6837 -0.1680
  257MOL0     C33818   5.810   0.498   4.190  0.1232  0.2921  0.5691
  257MOL0     C33819   5.696   0.445   4.254  0.1205  0.1266 -0.6431
  257MOL0     C33820   5.696   0.440   4.389  0.5366  0.1709  0.1435
  257MOL0     C33821   5.567   0.398   4.459 -0.1125 -0.4126  0.2808
  257MOL0     O33822   5.454   0.429   4.382  0.1238 -0.0214 -0.4633
  257MOL0     C33823   5.336   0.392   4.440  0.3175 -0.6798 -0.0263
  257MOL0     C33824   5.289   0.419   4.563  0.0070 -0.2007 -0.3495
  257MOL0     C33825   5.160   0.373   4.603 -0.0969 -1.1759  0.0476
  257MOL0     C33826   5.083   0.300   4.516 -0.0288  0.5510  0.3119
  257MOL0     O33827   4.966   0.244   4.562 -0.2554 -0.6625  0.2802
  257MOL0     C33828   4.861   0.268   4.467 -0.7411  0.3817  0.5613
  257MOL0     C33829   4.718   0.292   4.514  1.0154  0.9439 -1.2472
  257MOL0     C33830   4.672   0.161   4.558  0.8570  0.6031  0.3096
  257MOL0     C33831   4.521   0.173   4.592  0.1705  0.6336  0.5377
  257MOL0     C33832   4.453   0.044   4.659 -1.0502  0.3129  0.4605
  257MOL0     C33833   4.315   0.078   4.725 -0.0383  0.7998 -0.6539
  257MOL0     C33834   4.247  -0.065   4.758 -0.9222 -0.4079  0.2993
  257MOL0     C33835   4.102  -0.073   4.788  0.8453 -0.1509 -0.5466
  257MOL0    Cl33836   4.064   0.032   4.929 -0.8459  0.1342 -0.3199
  257MOL0     C33837   5.130   0.271   4.390 -0.5852 -0.2429 -0.7492
  257MOL0     C33838   5.257   0.311   4.358  0.5518  0.5528  0.0759
  257MOL0     O33839   5.568   0.344   4.565  0.3555  0.2191 -0.2970
  257MOL0     C33840   5.820   0.459   4.454  0.7052 -0.1360  0.6332
  257MOL0     C33841   5.938   0.493   4.381 -0.2203 -0.2155  0.0602
  257MOL0     N33842   6.602   0.926   4.189 -0.2151 -0.3745 -0.0022
  257MOL0     N33843   6.735   0.940   4.206 -0.7760  0.4537  0.0584
  257MOL0     C33844   7.700   0.363   4.913 -0.7486  0.5472 -0.2803
  257MOL0     C33845   7.734   0.254   5.003  0.1841 -0.2248  0.7208
  257MOL0     C33846   8.050  -0.089   5.147 -1.1488 -0.8119 -0.9483
  257MOL0     C33847   7.963  -0.195   5.134 -0.5946 -1.0926  0.6685
  257MOL0     C33848   7.991  -0.320   5.171  0.2650 -0.3755 -0.4254
  257MOL0     C33849   8.118  -0.342   5.228 -0.4859 -0.0782 -0.2766
  257MOL0     O33850   8.152  -0.463   5.283  0.9101  0.6302 -0.0081
  257MOL0     C33851   8.211  -0.552   5.184 -0.3459 -0.2741 -0.0402
  257MOL0     C33852   8.243  -0.687   5.253 -0.1183  0.3750 -0.4056
  257MOL0     C33853   8.297  -0.675   5.395 -0.0197 -0.1037 -0.2031
  257MOL0     C33854   8.364  -0.805   5.442  0.2649  0.2514 -0.8079
  257MOL0     C33855   8.266  -0.916   5.463 -0.3885 -0.4324  0.4972
  257MOL0     C33856   8.186  -1.002   5.474 -0.6698  0.2544 -0.0627
  257MOL0     C33857   8.216  -0.247   5.225 -0.0443  1.0646  0.9133
  257MOL0     C33858   8.186  -0.126   5.168  0.7587 -0.1621 -0.9401
  257MOL0     H33859   8.019   0.168   4.839 -1.9216 -3.9308  1.1276
  257MOL0     H33860   7.936   0.329   4.680 -1.7281 -0.4011 -1.0626
  257MOL0     H33861   7.536   0.370   4.702 -3.5868  0.4971 -3.8455
  257MOL0     H33862   7.637   0.390   4.554  4.8171 -1.3595  3.3543
  257MOL0     H33863   7.609   0.627   4.537 -1.4442 -0.2942 -2.0618
  257MOL0     H33864   7.525   0.615   4.701  1.0036  0.3076 -0.6414
  257MOL0     H33865   7.339   0.473   4.569  1.4695 -0.3325  1.8703
  257MOL0     H33866   7.411   0.537   4.423 -0.1840  4.0625 -0.9641
  257MOL0     H33867   7.331   0.729   4.631 -1.7344  0.0552 -0.6582
  257MOL0     H33868   7.358   0.745   4.455 -0.6960 -0.9662 -0.9204
  257MOL0     H33869   7.122   0.600   4.582 -0.4879 -0.1924  1.3930
  257MOL0     H33870   7.171   0.616   4.406 -1.8117  0.5291  0.7932
  257MOL0     H33871   7.144   0.849   4.430 -0.2480  0.6653 -0.6048
  257MOL0     H33872   7.097   0.833   4.602  0.4944 -1.9568  1.1541
  257MOL0     H33873   6.917   0.646   4.480  0.5342 -1.0743 -2.5724
  257MOL0     H33874   6.885   0.809   4.530  0.8800  0.3911  0.6518
  257MOL0     H33875   6.956   0.713   4.245  0.1723  1.5271 -0.3411
  257MOL0     H33876   6.976   0.879   4.286 -1.7430  1.3236  0.3499
  257MOL0     H33877   6.675   0.642   4.344  4.8341 -0.3340 -1.5219
  257MOL0     H33878   6.364   0.812   4.171 -1.0306  0.2382  2.3449
  257MOL0     H33879   6.380   0.742   4.332 -0.3522  2.3143 -0.4867
  257MOL0     H33880   6.411   0.526   4.251 -0.6584  0.2030  0.5704
  257MOL0     H33881   6.493   0.590   4.100  0.5624  1.2205  0.7462
  257MOL0     H33882   6.260   0.664   4.036  3.2453  1.0601 -0.1141
  257MOL0     H33883   6.300   0.495   4.056  0.8043  0.1005  0.8655
  257MOL0     H33884   6.159   0.652   4.285  2.2525 -0.5849 -0.2425
  257MOL0     H33885   6.206   0.488   4.274  0.4759 -1.7269 -1.6776
  257MOL0     H33886   5.814   0.507   4.082  0.6436  1.5784  0.6835
  257MOL0     H33887   5.612   0.417   4.191 -0.9551  0.4742  0.6139
  257MOL0     H33888   5.349   0.473   4.636 -0.2102 -0.1100 -0.2392
  257MOL0     H33889   5.127   0.406   4.701  2.2136  0.1967  0.4383
  257MOL0     H33890   4.864   0.191   4.390  0.0401  0.1792  0.7802
  257MOL0     H33891   4.894   0.365   4.428  1.0047  0.5125  2.1846
  257MOL0     H33892   4.653   0.336   4.438  1.1568  0.4188 -1.6749
  257MOL0     H33893   4.721   0.355   4.603  1.6814 -2.0410  0.9878
  257MOL0     H33894   4.735   0.127   4.640  2.4761  3.0686  0.2066
  257MOL0     H33895   4.685   0.084   4.481  1.6484  1.1316 -0.1053
  257MOL0     H33896   4.519   0.248   4.672 -0.9251 -0.8698  1.9827
  257MOL0     H33897   4.463   0.211   4.507  1.7971 -2.0216 -1.9463
  257MOL0     H33898   4.525   0.010   4.733 -2.3762  0.9670  2.1065
  257MOL0     H33899   4.440  -0.026   4.576 -1.6995 -0.8673  1.5270
  257MOL0     H33900   4.249   0.130   4.653  1.5409  1.5590 -1.6044
  257MOL0     H33901   4.317   0.121   4.825  2.2674 -0.4860 -0.0774
  257MOL0     H33902   4.260  -0.125   4.667 -1.8915  1.1477 -0.9316
  257MOL0     H33903   4.301  -0.123   4.833 -0.5417 -0.3610  0.0659
  257MOL0     H33904   4.083  -0.173   4.828 -3.2581  1.1211  1.2114
  257MOL0     H33905   4.034  -0.046   4.707  2.0003  0.6940 -1.2587
  257MOL0     H33906   5.075   0.209   4.319 -1.9716  0.7774 -0.6119
  257MOL0     H33907   5.298   0.280   4.262 -2.2860  1.7552 -1.6681
  257MOL0     H33908   5.809   0.461   4.562 -1.7899  0.0180  0.4475
  257MOL0     H33909   6.029   0.497   4.441  2.1163  2.5317 -3.2705
  257MOL0     H33910   7.618   0.424   4.949 -2.4259 -2.5780  1.7033
  257MOL0     H33911   7.688   0.227   5.097  3.9334 -2.3560  2.1809
  257MOL0     H33912   7.870  -0.165   5.088  0.1231  3.8972  1.8303
  257MOL0     H33913   7.916  -0.398   5.164  0.0746 -0.0691 -3.3680
  257MOL0     H33914   8.306  -0.510   5.151 -0.0485 -0.8739  0.0471
  257MOL0     H33915   8.145  -0.577   5.100  1.6747 -3.2459 -0.8878
  257MOL0     H33916   8.147  -0.739   5.264 -0.5536  1.1215 -0.6273
  257MOL0     H33917   8.319  -0.745   5.200  1.6708  2.6192 -0.4179
  257MOL0     H33918   8.217  -0.655   5.467 -0.8949 -0.3954 -1.0833
  257MOL0     H33919   8.370  -0.594   5.404  2.5644 -2.3039  0.2096
  257MOL0     H33920   8.444  -0.830   5.371  0.5787 -1.5742  0.1086
  257MOL0     H33921   8.417  -0.783   5.536 -0.6154 -1.4659  0.1526
  257MOL0     H33922   8.125  -1.086   5.500 -1.8975  0.2302 -2.7148
  257MOL0     H33923   8.317  -0.259   5.264  0.2137  1.7466  0.4645
  257MOL0     H33924   8.265  -0.052   5.168  0.6571  0.0199  1.0936
  258MOL0     O33925   9.838   3.429  11.033 -0.4859  0.1331 -0.3578
  258MOL0     C33926   9.952   3.389  11.061 -0.4479  0.4349  0.6026
  258MOL0     O33927  10.066   3.441  11.020  0.7947 -0.5283  0.6607
  258MOL0     C33928  10.066   3.556  10.950  0.6814  0.6639 -0.3035
  258MOL0     C33929  10.133   3.562  10.824  0.9197  0.9763  0.5987
  258MOL0     C33930  10.136   3.683  10.744 -0.4519  0.6703 -0.2169
  258MOL0     C33931  10.089   3.803  10.799 -0.8340  0.1379 -0.2317
  258MOL0     O33932  10.091   3.909  10.707 -0.3873  0.5253 -0.3454
  258MOL0     C33933   9.998   4.014  10.720 -0.7723 -0.0326 -0.5503
  258MOL0     C33934  10.021   4.138  10.627  0.2519  0.0093  0.4747
  258MOL0     C33935  10.030   4.092  10.481 -0.3918  0.4926 -0.4233
  258MOL0     C33936  10.025   4.195  10.366 -0.2196  1.2675 -0.0839
  258MOL0     C33937  10.113   4.310  10.379  0.0897 -0.4849  0.6452
  258MOL0     C33938  10.089   4.392  10.254  0.9665  0.8562 -0.2005
  258MOL0     C33939   9.947   4.446  10.234 -0.5987  0.4090 -0.7555
  258MOL0     C33940   9.954   4.550  10.121 -0.1311  0.3294  0.5023
  258MOL0     N33941   9.824   4.613  10.101 -1.3318  0.1915 -0.6123
  258MOL0     C33942   9.813   4.749  10.099 -1.4251  0.4467 -0.3890
  258MOL0     C33943   9.725   4.769  10.003  1.1287 -0.0051 -0.0822
  258MOL0     C33944   9.648   4.899   9.994  0.2995 -0.3640  1.0582
  258MOL0     C33945   9.705   4.990   9.882  1.0494  0.9421 -0.8305
  258MOL0     C33946   9.599   5.088   9.839 -0.0193  0.0658 -0.2274
  258MOL0     C33947   9.663   5.190   9.740 -0.1630 -0.4046 -0.7927
  258MOL0     O33948   9.718   5.111   9.630  0.0016 -0.7784  0.0672
  258MOL0     C33949   9.752   5.174   9.512  0.4554  0.9662  0.5687
  258MOL0     C33950   9.767   5.094   9.401  0.2507  0.1156 -0.1113
  258MOL0     C33951   9.803   5.153   9.279  0.5329 -0.6790  0.2376
  258MOL0     C33952   9.831   5.288   9.267 -0.6524  0.1225  0.4647
  258MOL0     C33953   9.875   5.345   9.134  0.1922  0.0631 -0.4693
  258MOL0     O33954   9.898   5.480   9.112 -0.6195 -0.2213 -0.2676
  258MOL0     C33955   9.967   5.515   9.003 -0.6155 -0.1109  0.1117
  258MOL0     C33956  10.091   5.460   8.969 -0.8831 -0.6458  0.4299
  258MOL0     C33957  10.162   5.503   8.855 -0.6613  0.5414 -0.7856
  258MOL0     C33958  10.129   5.609   8.779  0.7994  0.1009  0.8574
  258MOL0     O33959  10.196   5.650   8.665  0.4253 -0.2186  0.4462
  258MOL0     C33960  10.182   5.563   8.560 -0.1058 -1.5080 -0.2169
  258MOL0     C33961  10.045   5.512   8.528 -0.3407  0.7727 -0.4926
  258MOL0     C33962  10.042   5.432   8.393 -0.2761 -0.0733  0.8062
  258MOL0     C33963  10.122   5.499   8.276  0.4996 -0.1868 -0.2377
  258MOL0     C33964  10.105   5.438   8.140  0.2836  0.1929  0.2054
  258MOL0     C33965  10.154   5.291   8.148 -0.1526 -0.1446 -0.5272
  258MOL0     C33966  10.169   5.238   8.010 -0.8739  0.1993  0.1476
  258MOL0     C33967  10.280   5.136   8.010  0.6473  0.9361 -0.7319
  258MOL0    Cl33968  10.285   5.063   7.841 -0.1764  0.5155 -0.2463
  258MOL0     C33969  10.011   5.672   8.816  0.3418 -0.6723 -1.0654
  258MOL0     C33970   9.932   5.628   8.928  0.9197  0.0939 -0.0799
  258MOL0     O33971   9.885   5.264   9.046  0.5283 -0.3000  0.2790
  258MOL0     C33972   9.827   5.364   9.382  0.1406  0.2856 -0.4215
  258MOL0     C33973   9.787   5.302   9.500 -0.2590 -1.3182  0.2122
  258MOL0     N33974   9.687   4.651   9.943 -0.2468  0.1553 -0.8251
  258MOL0     N33975   9.743   4.555  10.010 -0.6517  0.0990 -0.7983
  258MOL0     C33976  10.021   3.793  10.916  0.2916 -1.2488 -0.2284
  258MOL0     C33977  10.012   3.684  11.004 -0.8712  0.3241  0.7958
  258MOL0     C33978   9.973   3.272  11.154  0.2648  0.2550  1.8204
  258MOL0     C33979  10.101   3.219  11.176  0.2322 -0.0525  0.2980
  258MOL0     C33980  10.112   3.115  11.267  0.7106 -0.0411  0.0769
  258MOL0     C33981  10.001   3.059  11.335 -0.2051 -0.0018 -0.0015
  258MOL0     O33982  10.032   2.959  11.428  0.2815 -0.7679 -0.2996
  258MOL0     C33983   9.930   2.864  11.462  0.2952  0.3373 -0.5846
  258MOL0     C33984   9.992   2.758  11.553  0.6960 -0.6904  0.3820
  258MOL0     C33985   9.882   2.647  11.564 -0.5558  0.4625  0.1171
  258MOL0     C33986   9.893   2.547  11.435  0.2465  0.1037 -0.7273
  258MOL0     C33987  10.026   2.475  11.455  0.1933  0.8484  0.6191
  258MOL0     C33988  10.129   2.420  11.477  0.6025  1.1573  0.7050
  258MOL0     C33989   9.872   3.116  11.315  0.2093 -0.0410 -0.4576
  258MOL0     C33990   9.855   3.226  11.220 -1.3401  0.1331 -0.8512
  258MOL0     H33991  10.202   3.483  10.796  0.1367  0.2082  0.7668
  258MOL0     H33992  10.201   3.667  10.658 -1.0911 -2.0743 -0.2668
  258MOL0     H33993   9.990   4.052  10.822 -1.3559  1.4277 -1.1176
  258MOL0     H33994   9.898   3.975  10.699 -0.3072 -3.3568  2.3878
  258MOL0     H33995  10.114   4.191  10.647  1.4378 -1.2402 -1.3834
  258MOL0     H33996   9.932   4.201  10.638  0.3988  0.0728  1.3166
  258MOL0     H33997   9.952   4.021  10.452  0.1850 -0.2093 -0.2819
  258MOL0     H33998  10.128   4.043  10.488  0.5566  2.2307 -0.8410
  258MOL0     H33999  10.044   4.142  10.272 -1.4720  0.1789  0.2477
  258MOL0     H34000   9.920   4.226  10.358 -1.8371 -3.1100  1.2189
  258MOL0     H34001  10.217   4.279  10.380  0.0961 -0.7894  4.1525
  258MOL0     H34002  10.093   4.369  10.470 -0.0789  1.6990 -0.7397
  258MOL0     H34003  10.102   4.330  10.165  1.7952  1.5932 -0.6003
  258MOL0     H34004  10.168   4.468  10.258  0.8910  0.8905  1.5386
  258MOL0     H34005   9.879   4.364  10.210 -0.5727  0.3633 -0.6717
  258MOL0     H34006   9.920   4.497  10.326  3.5769  0.2573  0.7815
  258MOL0     H34007   9.988   4.504  10.028  0.8064  0.5842  0.7014
  258MOL0     H34008  10.030   4.623  10.149  0.5922  1.1103 -3.0015
  258MOL0     H34009   9.865   4.823  10.159  2.2096 -2.5108  0.4893
  258MOL0     H34010   9.629   4.945  10.091  1.6040 -0.9170  1.6065
  258MOL0     H34011   9.547   4.875   9.959  0.4499  0.9941 -0.3571
  258MOL0     H34012   9.726   4.933   9.792  0.2171  3.5098 -2.7808
  258MOL0     H34013   9.798   5.036   9.917  0.4693 -0.4312  2.9767
  258MOL0     H34014   9.519   5.033   9.788  3.2458 -2.7806 -2.7306
  258MOL0     H34015   9.566   5.141   9.929 -0.5887 -0.8459  0.1187
  258MOL0     H34016   9.747   5.239   9.789  0.4698 -1.4339 -0.8356
  258MOL0     H34017   9.590   5.262   9.702  0.7704  1.4915  0.8309
  258MOL0     H34018   9.761   4.987   9.417  0.9487  0.3051  1.6699
  258MOL0     H34019   9.803   5.090   9.190  0.5968 -2.0558  1.1788
  258MOL0     H34020  10.130   5.380   9.031 -0.7027 -0.3970  0.6370
  258MOL0     H34021  10.246   5.440   8.827 -1.9803 -1.2232 -0.9344
  258MOL0     H34022  10.264   5.491   8.559  2.3108  1.0340  0.9153
  258MOL0     H34023  10.210   5.632   8.480 -1.4643  1.3370  1.5946
  258MOL0     H34024   9.979   5.597   8.547  1.3885  1.8321  1.1549
  258MOL0     H34025  10.019   5.431   8.596  3.2745 -2.3568 -2.4176
  258MOL0     H34026   9.940   5.406   8.363  0.6714  0.1061 -3.0919
  258MOL0     H34027  10.088   5.336   8.421  0.2437 -0.2598 -0.6058
  258MOL0     H34028  10.071   5.595   8.266  1.6185  0.4538 -0.0206
  258MOL0     H34029  10.229   5.511   8.295  0.0666  3.3891  0.6209
  258MOL0     H34030  10.145   5.504   8.063 -2.9830  0.9555 -1.0032
  258MOL0     H34031   9.998   5.447   8.120  0.7542  2.1107 -1.9316
  258MOL0     H34032  10.080   5.229   8.199 -2.9442  0.6759 -3.2596
  258MOL0     H34033  10.251   5.295   8.198 -0.9824 -0.0052  1.1311
  258MOL0     H34034  10.082   5.180   7.978 -1.7399  1.9408 -0.8440
  258MOL0     H34035  10.186   5.320   7.939  1.3081 -0.4505 -0.1472
  258MOL0     H34036  10.253   5.063   8.087  0.1966  1.2350 -0.6018
  258MOL0     H34037  10.376   5.171   8.050  0.3818 -2.0509  3.0598
  258MOL0     H34038   9.966   5.753   8.758 -1.2200 -0.6093  0.1506
  258MOL0     H34039   9.836   5.674   8.953  1.1177  0.7339 -0.4725
  258MOL0     H34040   9.870   5.464   9.385  2.8494 -0.7991  0.5058
  258MOL0     H34041   9.779   5.357   9.593 -0.8688 -1.0650  0.0180
  258MOL0     H34042   9.965   3.876  10.957  0.0180 -2.3456  1.7110
  258MOL0     H34043   9.959   3.696  11.098 -4.0881  0.6659 -0.9261
  258MOL0     H34044  10.182   3.262  11.117 -2.1746  0.2727 -3.1121
  258MOL0     H34045  10.209   3.078  11.301  0.1436  0.2698  2.1947
  258MOL0     H34046   9.881   2.818  11.376 -1.4402 -0.9155  0.9814
  258MOL0     H34047   9.853   2.911  11.524  0.4604  1.9957 -1.5708
  258MOL0     H34048  10.094   2.736  11.521  0.7953  0.3139 -0.0363
  258MOL0     H34049  10.015   2.803  11.650 -2.2438 -1.9111  1.7541
  258MOL0     H34050   9.786   2.699  11.565 -1.3825 -0.9831 -0.6573
  258MOL0     H34051   9.903   2.585  11.651  2.3129 -1.4342 -1.7483
  258MOL0     H34052   9.815   2.470  11.444 -0.0724  0.0956 -3.0233
  258MOL0     H34053   9.879   2.591  11.336  4.5088 -0.9741 -1.9938
  258MOL0     H34054  10.212   2.363  11.513 -0.4150 -0.0151  1.2896
  258MOL0     H34055   9.787   3.072  11.367  1.8101 -1.9402  0.6744
  258MOL0     H34056   9.762   3.280  11.205 -1.6383 -0.6599 -1.9551
  259MOL0     O34057   0.304   2.010   2.822  0.5271  0.6411  0.5825
  259MOL0     C34058   0.224   2.014   2.917  0.3900 -0.3147  0.5102
  259MOL0     O34059   0.172   1.907   2.989  0.2982 -0.1880  0.6161
  259MOL0     C34060   0.234   1.785   2.988 -0.3978  0.4042 -0.2859
  259MOL0     C34061   0.168   1.662   2.986 -0.1273  1.3815 -1.3068
  259MOL0     C34062   0.236   1.532   2.984 -0.0822 -0.1651 -1.2955
  259MOL0     C34063   0.382   1.542   2.969  0.3134 -0.5988 -0.3698
  259MOL0     O34064   0.467   1.434   2.958 -0.1458 -0.6591 -0.2586
  259MOL0     C34065   0.440   1.327   3.046 -0.7614  0.0816 -1.4978
  259MOL0     C34066   0.522   1.203   3.020 -0.4033  0.4315  0.3351
  259MOL0     C34067   0.681   1.219   3.032 -0.3884 -0.4033  0.0164
  259MOL0     C34068   0.754   1.327   2.948  0.2156  1.3970 -0.3090
  259MOL0     C34069   0.726   1.302   2.801  0.3986 -0.2854 -0.2875
  259MOL0     C34070   0.744   1.421   2.711  0.3481  0.5232 -0.1506
  259MOL0     C34071   0.754   1.388   2.565 -0.2668  0.3817 -0.9314
  259MOL0     C34072   0.660   1.289   2.486  0.1768  0.5230  0.7946
  259MOL0     N34073   0.695   1.309   2.347  0.9588  0.3578 -1.3651
  259MOL0     C34074   0.643   1.414   2.276  0.4668 -0.6931 -0.3739
  259MOL0     C34075   0.696   1.396   2.147  0.3149 -0.8095 -0.2527
  259MOL0     C34076   0.666   1.507   2.043  0.1728  0.8132  0.1969
  259MOL0     C34077   0.521   1.507   2.001  0.3121 -0.4667 -0.3675
  259MOL0     C34078   0.523   1.577   1.860  0.0076 -0.3414 -0.5500
  259MOL0     C34079   0.390   1.613   1.817  0.8106 -0.3792  0.1083
  259MOL0     O34080   0.401   1.655   1.685  1.0306 -0.1017  0.9630
  259MOL0     C34081   0.278   1.672   1.616 -0.0355  0.4127  0.1981
  259MOL0     C34082   0.149   1.658   1.677 -0.4518  0.6994 -0.2021
  259MOL0     C34083   0.049   1.689   1.594  1.0424 -0.6433 -0.4503
  259MOL0     C34084   0.058   1.714   1.452 -0.7877  0.4524  0.0910
  259MOL0     C34085  -0.061   1.723   1.377 -0.5946 -0.6785  1.1168
  259MOL0     O34086  -0.044   1.676   1.250  0.3735  0.3593 -0.5457
  259MOL0     C34087  -0.151   1.659   1.162 -0.3251  0.4084 -0.1838
  259MOL0     C34088  -0.282   1.640   1.203 -0.2063  0.5210 -0.4087
  259MOL0     C34089  -0.381   1.643   1.108  0.1799  0.1119  0.2998
  259MOL0     C34090  -0.358   1.674   0.979 -0.2963 -0.5149  0.5614
  259MOL0     O34091  -0.463   1.671   0.897  0.2666 -0.5228 -0.3547
  259MOL0     C34092  -0.441   1.600   0.771 -0.0552 -0.2917 -0.1103
  259MOL0     C34093  -0.577   1.532   0.736 -1.0690  0.7761 -0.6234
  259MOL0     C34094  -0.678   1.499   0.852 -0.3010 -0.7280  0.1907
  259MOL0     C34095  -0.785   1.401   0.822  1.2236 -1.1726  0.1444
  259MOL0     C34096  -0.878   1.473   0.731 -0.6697  0.2269 -0.7290
  259MOL0     C34097  -0.998   1.388   0.699  1.0861 -0.6499 -0.6775
  259MOL0     C34098  -1.135   1.451   0.746  1.1067  0.7185 -0.1491
  259MOL0     C34099  -1.247   1.358   0.682  0.5795 -0.1506 -0.2560
  259MOL0    Cl34100  -1.407   1.428   0.725  0.3363 -0.1335 -0.3180
  259MOL0     C34101  -0.223   1.684   0.937  1.0032 -0.2656 -0.2039
  259MOL0     C34102  -0.116   1.676   1.024  0.7542 -0.1021 -0.0028
  259MOL0     O34103  -0.161   1.764   1.431  0.5612  1.4138 -0.3983
  259MOL0     C34104   0.182   1.704   1.397  0.3900 -0.9344 -0.2509
  259MOL0     C34105   0.289   1.682   1.480  0.8163 -0.0649  0.6390
  259MOL0     N34106   0.786   1.286   2.151  0.2765 -0.2812  0.7413
  259MOL0     N34107   0.787   1.243   2.271  0.1686  0.3043 -0.4014
  259MOL0     C34108   0.446   1.666   2.966 -0.1184 -0.0448 -0.3156
  259MOL0     C34109   0.370   1.776   2.983 -0.3769 -0.3924  0.6405
  259MOL0     C34110   0.195   2.146   2.984  0.7921 -0.2955  0.2582
  259MOL0     C34111   0.129   2.162   3.111  0.3849  0.2400  0.3774
  259MOL0     C34112   0.092   2.284   3.157  0.1816 -0.9406  0.0409
  259MOL0     C34113   0.120   2.403   3.089 -0.1930  0.2063 -0.5260
  259MOL0     O34114   0.056   2.513   3.134  0.4541  0.5870 -0.6104
  259MOL0     C34115   0.116   2.644   3.113  0.5001  0.5790 -0.4289
  259MOL0     C34116   0.050   2.736   3.211 -0.1587 -0.4605 -1.2950
  259MOL0     C34117   0.108   2.713   3.355 -0.6201  1.1927 -0.4588
  259MOL0     C34118   0.026   2.775   3.470 -0.0454 -0.7677  0.2659
  259MOL0     C34119  -0.117   2.758   3.455  0.5452  0.6628 -0.0480
  259MOL0     C34120  -0.238   2.765   3.453  0.4200 -0.3845  0.4887
  259MOL0     C34121   0.198   2.391   2.975 -0.2261 -0.7699  0.9442
  259MOL0     C34122   0.233   2.266   2.919  0.4162  0.3966  0.8679
  259MOL0     H34123   0.061   1.658   2.997 -0.0536  1.4779 -0.4975
  259MOL0     H34124   0.179   1.440   2.990  0.8716 -0.6849  0.4402
  259MOL0     H34125   0.333   1.308   3.037 -0.9462  0.3266  0.0417
  259MOL0     H34126   0.454   1.356   3.150 -3.2091  0.9080 -1.3455
  259MOL0     H34127   0.505   1.171   2.917  1.0312 -0.5786  0.3916
  259MOL0     H34128   0.494   1.129   3.095  2.1681 -2.4399 -1.3265
  259MOL0     H34129   0.723   1.121   3.005 -2.7108 -1.0213 -1.6849
  259MOL0     H34130   0.715   1.238   3.134  1.5275  0.2652 -0.7011
  259MOL0     H34131   0.717   1.422   2.987 -1.0280  0.7568  0.1610
  259MOL0     H34132   0.861   1.317   2.969  0.5895  2.0783 -1.7870
  259MOL0     H34133   0.631   1.258   2.772  1.2906 -1.4563 -1.5620
  259MOL0     H34134   0.800   1.231   2.763  1.3613 -0.5961  1.9939
  259MOL0     H34135   0.830   1.481   2.739 -0.2535  1.7632 -0.8715
  259MOL0     H34136   0.655   1.483   2.725 -1.1463 -1.8480  1.7174
  259MOL0     H34137   0.741   1.483   2.512 -2.5949  0.0488 -1.1079
  259MOL0     H34138   0.854   1.351   2.545 -1.5022 -3.8645 -0.1570
  259MOL0     H34139   0.559   1.327   2.503 -0.1468  1.1520 -2.1201
  259MOL0     H34140   0.678   1.184   2.512  0.3236  0.5366  0.7478
  259MOL0     H34141   0.564   1.482   2.306  0.6363 -0.5571 -0.2308
  259MOL0     H34142   0.734   1.498   1.957  0.2588  0.8183  0.2635
  259MOL0     H34143   0.696   1.600   2.093 -1.6554  1.8229 -0.4807
  259MOL0     H34144   0.472   1.573   2.073 -0.4186  1.9569 -2.8943
  259MOL0     H34145   0.485   1.404   2.002  0.5858 -0.5657 -0.6295
  259MOL0     H34146   0.582   1.669   1.866  2.7708 -1.9839 -0.9157
  259MOL0     H34147   0.567   1.514   1.783 -0.3501 -0.7704 -0.4068
  259MOL0     H34148   0.343   1.681   1.889 -0.3067  0.3245 -1.2431
  259MOL0     H34149   0.320   1.528   1.814 -1.0579  1.0126 -4.6918
  259MOL0     H34150   0.138   1.654   1.785  3.6300  0.4136  0.3332
  259MOL0     H34151  -0.045   1.695   1.647  0.4055  2.5714 -1.6706
  259MOL0     H34152  -0.322   1.636   1.304 -1.8316  1.9952 -0.9509
  259MOL0     H34153  -0.486   1.638   1.135  0.6522 -1.0709  2.1450
  259MOL0     H34154  -0.353   1.535   0.775 -0.0786 -0.2738  0.7287
  259MOL0     H34155  -0.419   1.676   0.695 -0.1515 -0.2518 -0.0981
  259MOL0     H34156  -0.558   1.439   0.681  0.8161 -2.4688  4.7766
  259MOL0     H34157  -0.625   1.608   0.673  0.5035  4.5163  2.2985
  259MOL0     H34158  -0.729   1.585   0.896  0.2401 -0.8647  1.1107
  259MOL0     H34159  -0.621   1.465   0.939 -1.5178  0.1741  1.3748
  259MOL0     H34160  -0.750   1.313   0.767 -2.0036 -1.7354 -1.1851
  259MOL0     H34161  -0.834   1.375   0.916 -2.0998  0.6290 -0.9517
  259MOL0     H34162  -0.830   1.488   0.634 -3.2616  0.4170 -2.0610
  259MOL0     H34163  -0.910   1.573   0.761  0.5625  1.5891 -3.5900
  259MOL0     H34164  -0.986   1.287   0.740 -2.6817 -1.5638 -1.4558
  259MOL0     H34165  -1.000   1.382   0.590 -0.2044  1.9588 -0.8718
  259MOL0     H34166  -1.152   1.466   0.853 -1.8316 -1.9167 -0.0906
  259MOL0     H34167  -1.135   1.549   0.699  1.0647  0.1766 -1.3247
  259MOL0     H34168  -1.241   1.252   0.708 -3.3525  0.1980  3.1607
  259MOL0     H34169  -1.239   1.356   0.573 -6.1185 -0.0307 -1.1414
  259MOL0     H34170  -0.198   1.688   0.831 -0.4095  0.0000 -0.5502
  259MOL0     H34171  -0.016   1.672   0.983  0.2542 -3.4900 -1.2393
  259MOL0     H34172   0.197   1.712   1.290 -2.1988 -1.7956 -0.7527
  259MOL0     H34173   0.389   1.682   1.439  1.3178  3.3603  1.5535
  259MOL0     H34174   0.550   1.667   2.935 -0.5262 -1.2308 -1.8479
  259MOL0     H34175   0.426   1.867   2.968 -0.2006 -0.8877 -2.3700
  259MOL0     H34176   0.100   2.070   3.161 -0.9421  0.4830  0.1084
  259MOL0     H34177   0.058   2.285   3.260 -1.8938 -3.4403 -0.5218
  259MOL0     H34178   0.088   2.681   3.013 -0.0901  2.1636  0.2915
  259MOL0     H34179   0.224   2.626   3.121  0.2812 -0.0941  1.3751
  259MOL0     H34180   0.077   2.839   3.185  2.7068 -0.4959  0.9460
  259MOL0     H34181  -0.057   2.717   3.217 -0.7144  2.0014 -2.1081
  259MOL0     H34182   0.206   2.762   3.365 -0.7635  1.5344 -0.7359
  259MOL0     H34183   0.106   2.605   3.376 -5.8976  1.4264  1.7502
  259MOL0     H34184   0.056   2.738   3.568 -0.4202 -0.2297  0.5906
  259MOL0     H34185   0.053   2.881   3.461  0.2843 -0.6449  2.2764
  259MOL0     H34186  -0.340   2.785   3.428 -0.2304 -4.7575 -1.1923
  259MOL0     H34187   0.214   2.479   2.914  1.7614 -1.4863  0.3578
  259MOL0     H34188   0.272   2.261   2.818 -0.0457 -1.1158  0.7447
  260MOL0     O34189   5.160   7.324   7.832  0.0838  0.0543  0.8614
  260MOL0     C34190   5.148   7.438   7.878 -0.5201 -0.3472 -0.4768
  260MOL0     O34191   5.056   7.493   7.955  1.1133  0.0068  0.7823
  260MOL0     C34192   5.009   7.402   8.050  0.4231  0.5931  0.1054
  260MOL0     C34193   5.086   7.367   8.163 -0.2336 -0.2158  0.6952
  260MOL0     C34194   5.047   7.266   8.248  0.0426 -0.3125 -0.3959
  260MOL0     C34195   4.938   7.180   8.228  0.5072  0.5087  0.5011
  260MOL0     O34196   4.911   7.061   8.282  0.0380 -0.4865 -0.3464
  260MOL0     C34197   4.988   6.996   8.386 -0.7647  0.6129 -0.0151
  260MOL0     C34198   5.008   6.854   8.350  0.5323 -0.0245 -0.2435
  260MOL0     C34199   5.109   6.791   8.438  0.6504  0.1903 -0.7907
  260MOL0     C34200   5.127   6.636   8.423 -0.5154 -0.3983  0.2162
  260MOL0     C34201   5.239   6.593   8.521  0.5862 -0.4199 -0.2289
  260MOL0     C34202   5.308   6.461   8.478  0.2351 -0.2943 -0.2188
  260MOL0     C34203   5.417   6.428   8.578  0.0327  0.1937  0.0664
  260MOL0     C34204   5.453   6.281   8.585 -0.2397 -0.8840 -0.4181
  260MOL0     N34205   5.550   6.228   8.689  0.3692  0.4918 -0.6695
  260MOL0     C34206   5.524   6.219   8.822  0.0215 -0.2182  1.1034
  260MOL0     C34207   5.628   6.159   8.884 -0.1565 -0.3094 -0.0778
  260MOL0     C34208   5.642   6.096   9.019  0.2254 -0.2473  0.1756
  260MOL0     C34209   5.790   6.079   9.069  0.2405  0.5641  0.3921
  260MOL0     C34210   5.875   5.979   8.991 -1.0026  0.4737 -0.4893
  260MOL0     C34211   5.997   5.941   9.074  0.2100  0.9337  0.2574
  260MOL0     O34212   6.100   6.045   9.067  0.0868  0.5684 -0.9099
  260MOL0     C34213   6.223   6.007   9.104 -0.5508  0.7864 -0.5071
  260MOL0     C34214   6.290   5.894   9.052 -0.1098 -0.5723 -0.6232
  260MOL0     C34215   6.419   5.868   9.100 -1.8205 -0.0356 -0.3656
  260MOL0     C34216   6.484   5.944   9.198  0.1814 -0.1282 -0.0973
  260MOL0     C34217   6.624   5.905   9.243 -1.2955 -0.6198 -0.4875
  260MOL0     O34218   6.677   5.990   9.337 -0.8964 -0.3005 -0.7026
  260MOL0     C34219   6.786   5.955   9.410 -0.0183  0.3147  0.1335
  260MOL0     C34220   6.784   5.835   9.494  0.2515 -0.0889 -0.6354
  260MOL0     C34221   6.904   5.796   9.554 -0.0170 -0.9415  0.9205
  260MOL0     C34222   7.027   5.870   9.537  0.3894  0.2155 -0.5216
  260MOL0     O34223   7.148   5.852   9.603  0.1925 -0.2647  0.3740
  260MOL0     C34224   7.162   5.738   9.691  0.2421 -0.2090  0.2604
  260MOL0     C34225   7.294   5.766   9.769  0.2892  2.3042 -0.0858
  260MOL0     C34226   7.424   5.720   9.685  0.0912 -0.1120  0.7168
  260MOL0     C34227   7.562   5.709   9.770 -0.5469  0.4455 -0.5032
  260MOL0     C34228   7.679   5.712   9.668  0.0379 -0.3988 -0.7727
  260MOL0     C34229   7.811   5.695   9.743 -0.2782 -0.3500  0.1599
  260MOL0     C34230   7.926   5.727   9.655 -0.7121 -0.2951  1.1310
  260MOL0     C34231   8.055   5.748   9.728 -0.8091 -1.6336  0.1716
  260MOL0    Cl34232   8.139   5.593   9.775 -0.4542  0.1705  0.1643
  260MOL0     C34233   7.031   5.983   9.463  0.0624 -0.4676  0.5140
  260MOL0     C34234   6.910   6.029   9.397 -0.1518  0.2652 -0.0078
  260MOL0     O34235   6.671   5.796   9.217  0.3304  0.4260  0.5494
  260MOL0     C34236   6.419   6.058   9.242  0.7670 -0.1121  0.6823
  260MOL0     C34237   6.288   6.085   9.196 -0.8856  0.3209 -0.0800
  260MOL0     N34238   5.730   6.141   8.786  0.5281  0.2769  0.9312
  260MOL0     N34239   5.679   6.180   8.674  0.1888  0.4577 -0.0066
  260MOL0     C34240   4.849   7.217   8.111  0.1124  0.2141 -0.3366
  260MOL0     C34241   4.891   7.325   8.022 -0.2532 -0.4532  0.3415
  260MOL0     C34242   5.239   7.539   7.827  0.2850  0.3884 -0.1768
  260MOL0     C34243   5.227   7.676   7.850  0.3210 -0.2154  0.4945
  260MOL0     C34244   5.319   7.767   7.807 -0.6505 -0.3898  0.2667
  260MOL0     C34245   5.428   7.729   7.737  0.5970 -0.9044 -0.4277
  260MOL0     O34246   5.512   7.833   7.706  0.6483  0.4434 -0.3808
  260MOL0     C34247   5.635   7.808   7.632 -0.0695  0.0037 -0.0265
  260MOL0     C34248   5.710   7.944   7.603  0.2862 -0.1139 -0.7331
  260MOL0     C34249   5.840   7.920   7.526  0.0870 -0.4568 -1.0187
  260MOL0     C34250   5.953   8.017   7.563 -0.3315 -0.4602  0.1893
  260MOL0     C34251   6.067   7.985   7.477 -0.3242  0.5628  0.1628
  260MOL0     C34252   6.164   7.957   7.418 -0.0445  0.3070 -0.7533
  260MOL0     C34253   5.436   7.593   7.705  0.4033 -0.1657 -1.1664
  260MOL0     C34254   5.346   7.498   7.757  0.1911  0.7831  0.4083
  260MOL0     H34255   5.174   7.426   8.189  0.0428  0.5284 -1.6724
  260MOL0     H34256   5.116   7.223   8.319  0.1574  0.0393 -0.2897
  260MOL0     H34257   4.926   7.006   8.475 -1.3055  2.7411 -0.5820
  260MOL0     H34258   5.087   7.036   8.408 -0.5670  0.2893 -0.3003
  260MOL0     H34259   5.037   6.840   8.246 -1.3487  0.6313 -0.8883
  260MOL0     H34260   4.916   6.794   8.359  1.6244 -1.8173 -0.3909
  260MOL0     H34261   5.102   6.816   8.544 -2.2651  2.2934 -1.3444
  260MOL0     H34262   5.204   6.830   8.399  2.0261 -2.0977  0.1026
  260MOL0     H34263   5.032   6.587   8.444 -0.8332  0.3702  0.6168
  260MOL0     H34264   5.157   6.622   8.318  1.6269  2.6316  0.2628
  260MOL0     H34265   5.205   6.598   8.625  0.3397  0.1499 -0.3266
  260MOL0     H34266   5.323   6.662   8.510  2.9777 -2.7200  2.0979
  260MOL0     H34267   5.342   6.460   8.374 -0.3377 -0.0894 -0.4101
  260MOL0     H34268   5.240   6.380   8.504  0.3230  0.6786  3.7171
  260MOL0     H34269   5.504   6.486   8.549 -1.2084  0.3088 -4.1814
  260MOL0     H34270   5.382   6.448   8.680  0.0777  1.6085 -0.1756
  260MOL0     H34271   5.496   6.257   8.487 -0.1966 -1.5851 -0.2294
  260MOL0     H34272   5.363   6.221   8.596 -0.5650 -0.5136 -0.9988
  260MOL0     H34273   5.434   6.247   8.875  0.7637  1.2137  1.6451
  260MOL0     H34274   5.581   6.005   9.012  1.1386 -0.9055  0.6433
  260MOL0     H34275   5.584   6.156   9.091  2.0691 -0.9744  2.3813
  260MOL0     H34276   5.793   6.048   9.174  2.2040  1.0408  0.5302
  260MOL0     H34277   5.838   6.176   9.055  0.4971  0.0155 -3.4529
  260MOL0     H34278   5.818   5.887   8.974  0.4164 -0.7768  1.0951
  260MOL0     H34279   5.912   6.024   8.898  0.9594  0.7190  0.3601
  260MOL0     H34280   6.036   5.851   9.025 -2.8506 -0.4903  0.2171
  260MOL0     H34281   5.974   5.897   9.171  3.1428 -1.1906  0.0895
  260MOL0     H34282   6.248   5.822   8.984  0.5458  0.1572 -1.8360
  260MOL0     H34283   6.471   5.779   9.066 -1.2167  0.6606 -1.3241
  260MOL0     H34284   6.697   5.772   9.502  1.5126 -1.9306 -0.7988
  260MOL0     H34285   6.902   5.698   9.602 -1.8681 -1.0767  0.6697
  260MOL0     H34286   7.163   5.644   9.634  0.7455 -0.8376  1.2845
  260MOL0     H34287   7.080   5.745   9.763  0.1484 -1.8657  0.3459
  260MOL0     H34288   7.293   5.693   9.850 -1.1733 -0.1974 -2.2152
  260MOL0     H34289   7.315   5.863   9.816  0.2722  3.1490 -1.7678
  260MOL0     H34290   7.441   5.792   9.604 -0.3078 -2.2408 -1.3836
  260MOL0     H34291   7.401   5.624   9.638 -3.9760  1.3850 -0.8001
  260MOL0     H34292   7.564   5.803   9.826  1.9010 -1.1982  2.4387
  260MOL0     H34293   7.560   5.625   9.839  1.4904  1.0425  0.3579
  260MOL0     H34294   7.677   5.813   9.625 -0.2858  0.3061  0.8251
  260MOL0     H34295   7.660   5.644   9.585 -2.6707  1.9964 -2.3142
  260MOL0     H34296   7.815   5.590   9.775 -3.5372 -1.2632 -1.9433
  260MOL0     H34297   7.805   5.755   9.834 -0.9534 -1.1152  0.6338
  260MOL0     H34298   7.931   5.639   9.590  1.0066  0.8136 -0.3441
  260MOL0     H34299   7.904   5.818   9.598  2.0720 -0.3669 -0.2583
  260MOL0     H34300   8.050   5.807   9.820  0.3059 -0.6884 -0.3591
  260MOL0     H34301   8.122   5.804   9.662  0.1467  0.8183  3.0059
  260MOL0     H34302   7.124   6.039   9.459 -0.2432 -0.0507 -1.7231
  260MOL0     H34303   6.921   6.117   9.335 -0.1933  0.2766  0.0024
  260MOL0     H34304   6.475   6.132   9.299  2.4041  1.7140 -2.8864
  260MOL0     H34305   6.241   6.177   9.229  0.0513  2.0575 -3.1817
  260MOL0     H34306   4.762   7.156   8.090  1.2005 -1.1807 -0.9738
  260MOL0     H34307   4.831   7.343   7.933 -2.3182 -3.5502  0.9526
  260MOL0     H34308   5.131   7.716   7.881  0.2730  1.1725 -1.3263
  260MOL0     H34309   5.287   7.868   7.827 -2.7102 -0.4564 -2.1283
  260MOL0     H34310   5.608   7.760   7.537 -2.3932  0.8357  0.1364
  260MOL0     H34311   5.698   7.735   7.682  1.9900  0.2478 -2.0905
  260MOL0     H34312   5.640   8.018   7.563  0.4001  0.7848  0.6430
  260MOL0     H34313   5.752   7.980   7.697 -0.8538 -2.1833  0.6388
  260MOL0     H34314   5.816   7.922   7.419 -0.8884  0.3118 -0.7958
  260MOL0     H34315   5.864   7.816   7.551 -0.8941  0.0854  2.8174
  260MOL0     H34316   5.920   8.120   7.550  1.7480  0.4760  1.7056
  260MOL0     H34317   5.979   8.002   7.669  1.7327 -0.8629 -0.3269
  260MOL0     H34318   6.244   7.952   7.347 -0.5649  0.0077 -1.3217
  260MOL0     H34319   5.526   7.559   7.656 -0.6848 -1.4561 -2.3486
  260MOL0     H34320   5.365   7.396   7.725 -1.2777  0.1308  1.4922
  261MOL0     O34321   5.608   6.410   8.152 -0.1443 -0.4722 -0.7587
  261MOL0     C34322   5.661   6.484   8.237  0.3600  0.5276 -0.2699
  261MOL0     O34323   5.783   6.456   8.293  0.4325 -1.0712 -0.6512
  261MOL0     C34324   5.867   6.368   8.233 -0.2056  0.7061  0.5489
  261MOL0     C34325   5.899   6.397   8.101 -0.1420  0.0551  0.3804
  261MOL0     C34326   5.990   6.307   8.033  0.7007 -0.0037 -0.3038
  261MOL0     C34327   6.038   6.194   8.101 -0.1898  0.6747  0.0119
  261MOL0     O34328   6.111   6.103   8.028  0.1635 -0.0531 -0.2337
  261MOL0     C34329   6.194   6.009   8.097 -0.1796  0.6010 -0.7773
  261MOL0     C34330   6.317   5.985   8.019 -0.2249  0.8201 -0.1744
  261MOL0     C34331   6.425   6.091   8.026 -0.1645 -0.2123 -0.2737
  261MOL0     C34332   6.562   6.037   7.961 -0.2155 -0.2386  1.1034
  261MOL0     C34333   6.677   6.141   7.943  0.5504  0.2802  0.3022
  261MOL0     C34334   6.751   6.189   8.077  0.5148  1.1087  0.0648
  261MOL0     C34335   6.857   6.304   8.040 -0.6348  0.0003 -0.2704
  261MOL0     C34336   6.815   6.437   7.975  0.5204  0.5179 -0.2362
  261MOL0     N34337   6.705   6.485   8.063  0.1662  0.4504  0.4805
  261MOL0     C34338   6.713   6.527   8.195  0.2062  0.1052  0.0749
  261MOL0     C34339   6.590   6.588   8.209  0.3505 -0.4951 -0.3696
  261MOL0     C34340   6.549   6.660   8.339 -0.8752  0.5300  0.1571
  261MOL0     C34341   6.631   6.785   8.351 -0.4470 -0.1107  0.1566
  261MOL0     C34342   6.618   6.864   8.487 -1.3121  0.5154  0.1942
  261MOL0     C34343   6.493   6.843   8.576  0.7131  0.5636 -0.4847
  261MOL0     O34344   6.381   6.895   8.506  1.1362 -0.5483 -0.4738
  261MOL0     C34345   6.370   7.030   8.500 -0.4420 -0.4447 -0.1111
  261MOL0     C34346   6.420   7.114   8.600 -0.5370  0.1837 -0.0309
  261MOL0     C34347   6.403   7.246   8.595  0.3112 -0.3994 -0.7694
  261MOL0     C34348   6.329   7.308   8.490  0.4534  1.0449 -0.5340
  261MOL0     C34349   6.300   7.452   8.487 -0.2693 -0.0623 -0.8629
  261MOL0     O34350   6.271   7.509   8.368 -0.4871  0.3508 -0.3686
  261MOL0     C34351   6.287   7.644   8.362  1.4027 -0.1729  0.4106
  261MOL0     C34352   6.416   7.694   8.333  0.7374 -0.5195 -0.4177
  261MOL0     C34353   6.435   7.834   8.330 -0.0438 -0.5516 -0.3747
  261MOL0     C34354   6.325   7.926   8.364 -0.1138  0.2168  0.7509
  261MOL0     O34355   6.326   8.068   8.368 -0.2283 -0.0300  0.4113
  261MOL0     C34356   6.452   8.138   8.364 -0.0258  0.4552  0.0031
  261MOL0     C34357   6.420   8.271   8.418  0.3960 -0.6119 -0.7466
  261MOL0     C34358   6.534   8.352   8.480 -0.1693  0.0025  0.5600
  261MOL0     C34359   6.497   8.502   8.493 -0.7255  1.3283  0.2995
  261MOL0     C34360   6.616   8.576   8.556  1.5156 -0.1218  1.7888
  261MOL0     C34361   6.702   8.621   8.444  0.2453  0.2647 -0.1661
  261MOL0     C34362   6.796   8.727   8.497 -0.5515  0.3493  0.1982
  261MOL0     C34363   6.919   8.741   8.411  0.3750 -0.7686  0.0949
  261MOL0    Cl34364   7.055   8.844   8.477 -0.4994 -0.3302  0.3065
  261MOL0     C34365   6.203   7.870   8.385  0.3922 -0.2573  0.7861
  261MOL0     C34366   6.182   7.733   8.383 -0.5654 -0.1431  0.4478
  261MOL0     O34367   6.305   7.508   8.591 -0.4601 -0.0566 -0.0277
  261MOL0     C34368   6.275   7.224   8.388 -1.5125  0.1180 -0.2291
  261MOL0     C34369   6.297   7.090   8.395 -0.0884  0.5127  0.1689
  261MOL0     N34370   6.519   6.580   8.097  0.1125  0.0389  0.0014
  261MOL0     N34371   6.578   6.505   8.011 -1.1610 -0.2858 -0.3047
  261MOL0     C34372   5.998   6.163   8.230 -0.8178 -0.2397  0.3055
  261MOL0     C34373   5.914   6.258   8.297  0.2636  0.0697  0.2917
  261MOL0     C34374   5.584   6.603   8.273 -1.2974  0.0140  0.1454
  261MOL0     C34375   5.630   6.677   8.374  0.2913 -0.0760 -0.4694
  261MOL0     C34376   5.560   6.787   8.413 -0.1734  0.9368 -0.8034
  261MOL0     C34377   5.476   6.856   8.324 -0.2952 -0.5490 -0.2925
  261MOL0     O34378   5.420   6.983   8.342  0.2356  0.8408 -0.1648
  261MOL0     C34379   5.511   7.075   8.409  0.9716 -0.4686 -0.3946
  261MOL0     C34380   5.474   7.221   8.373  0.0741 -0.2640  0.4190
  261MOL0     C34381   5.485   7.251   8.226  0.1749  0.1194 -0.1076
  261MOL0     C34382   5.619   7.253   8.155 -0.6356 -0.7602  0.4338
  261MOL0     C34383   5.720   7.319   8.233 -0.3449  0.0755 -0.1270
  261MOL0     C34384   5.812   7.375   8.296  1.1059  0.0434 -0.5996
  261MOL0     C34385   5.413   6.776   8.223  0.3561 -0.9015  0.4805
  261MOL0     C34386   5.472   6.647   8.197  0.3620 -0.5921 -0.8455
  261MOL0     H34387   5.865   6.492   8.063 -0.1108  0.5041  1.4484
  261MOL0     H34388   6.030   6.318   7.933 -3.7321 -4.2000 -2.9456
  261MOL0     H34389   6.154   5.911   8.123  4.0763 -1.0571  0.3066
  261MOL0     H34390   6.219   6.062   8.190 -0.1138 -1.4712  0.4349
  261MOL0     H34391   6.288   5.959   7.917 -0.2621 -1.6571  0.3876
  261MOL0     H34392   6.353   5.897   8.072 -2.4423  1.1701  2.1167
  261MOL0     H34393   6.444   6.136   8.123  2.9001  2.0342 -1.7317
  261MOL0     H34394   6.391   6.175   7.965  2.6990  1.3227  0.0811
  261MOL0     H34395   6.606   5.959   8.023  0.2778  0.1827  1.2890
  261MOL0     H34396   6.534   5.991   7.866 -2.5969  0.0326  1.6219
  261MOL0     H34397   6.637   6.229   7.892  0.9632  1.7561  2.4198
  261MOL0     H34398   6.748   6.087   7.880 -0.4840  0.0950 -0.7441
  261MOL0     H34399   6.801   6.112   8.135 -0.0628  2.1880  2.1031
  261MOL0     H34400   6.663   6.220   8.134 -2.0693  2.0300 -3.9518
  261MOL0     H34401   6.905   6.337   8.133 -2.8780 -0.6183  1.2086
  261MOL0     H34402   6.937   6.260   7.981  1.6060  3.1093  0.2133
  261MOL0     H34403   6.773   6.413   7.876 -5.2649 -2.7447  2.4888
  261MOL0     H34404   6.894   6.512   7.969 -0.5346  1.5480 -2.6396
  261MOL0     H34405   6.806   6.513   8.249 -0.3596 -3.5647  0.3248
  261MOL0     H34406   6.574   6.593   8.422 -0.5348 -0.6810 -0.8976
  261MOL0     H34407   6.441   6.679   8.339 -1.1100 -0.6643  1.3367
  261MOL0     H34408   6.624   6.846   8.261  0.0155 -2.2748 -1.4384
  261MOL0     H34409   6.734   6.747   8.348 -0.3403  0.2213 -0.5615
  261MOL0     H34410   6.700   6.829   8.549 -1.4631 -1.4738 -0.6393
  261MOL0     H34411   6.634   6.968   8.456  0.8224  0.4324  0.9277
  261MOL0     H34412   6.513   6.892   8.672  1.1554 -0.4260 -0.0639
  261MOL0     H34413   6.473   6.739   8.603 -2.3329  1.0097 -0.6558
  261MOL0     H34414   6.483   7.088   8.685 -0.7519  2.2287  0.8124
  261MOL0     H34415   6.435   7.311   8.676 -0.4322  1.6367 -2.0322
  261MOL0     H34416   6.497   7.623   8.321 -0.5729 -1.7971 -2.4796
  261MOL0     H34417   6.534   7.873   8.307  0.0667 -1.4072 -1.4162
  261MOL0     H34418   6.492   8.137   8.262 -2.6439  1.0631 -1.1054
  261MOL0     H34419   6.528   8.104   8.436  1.5444 -0.7557 -2.1152
  261MOL0     H34420   6.347   8.263   8.499 -1.5466  0.9094 -2.2584
  261MOL0     H34421   6.376   8.335   8.341 -0.6464  1.2939  1.3080
  261MOL0     H34422   6.615   8.344   8.407 -2.5497 -1.0775 -2.1831
  261MOL0     H34423   6.558   8.311   8.579 -2.3482 -0.6925  0.8597
  261MOL0     H34424   6.474   8.544   8.395 -0.2649  0.8181 -0.0328
  261MOL0     H34425   6.403   8.502   8.550 -3.7392 -1.3676 -4.0129
  261MOL0     H34426   6.667   8.515   8.632  1.2866  0.5768  2.5209
  261MOL0     H34427   6.577   8.671   8.594  0.0895  0.5751 -1.1856
  261MOL0     H34428   6.637   8.658   8.364  0.2614 -1.7711 -1.1757
  261MOL0     H34429   6.762   8.539   8.403  0.1687 -0.3870  0.9865
  261MOL0     H34430   6.738   8.819   8.500 -0.4083  0.4969 -1.0317
  261MOL0     H34431   6.821   8.708   8.601 -1.4351  0.4948  0.4434
  261MOL0     H34432   6.901   8.791   8.316  2.9009  0.6321  0.2667
  261MOL0     H34433   6.961   8.644   8.383  1.2275 -0.0102 -1.3662
  261MOL0     H34434   6.117   7.936   8.399  0.3095  0.4672 -2.4094
  261MOL0     H34435   6.079   7.704   8.404 -1.9821  3.6583 -0.4350
  261MOL0     H34436   6.213   7.263   8.308 -2.0909  0.3458  0.3216
  261MOL0     H34437   6.268   7.025   8.313 -0.2615  2.3196 -1.2584
  261MOL0     H34438   6.014   6.063   8.269 -0.3693 -1.0337 -1.7470
  261MOL0     H34439   5.879   6.241   8.399 -1.5395 -0.0903 -0.3083
  261MOL0     H34440   5.705   6.635   8.440 -0.8577 -0.9174  0.3159
  261MOL0     H34441   5.578   6.843   8.504 -2.4083  0.2972  0.0964
  261MOL0     H34442   5.615   7.050   8.385  1.4755 -1.4666  2.4383
  261MOL0     H34443   5.505   7.065   8.518 -1.5586  1.1211 -0.3049
  261MOL0     H34444   5.368   7.235   8.395  0.0215  1.1083 -0.5647
  261MOL0     H34445   5.531   7.291   8.434 -1.8658 -0.5395  2.7069
  261MOL0     H34446   5.458   7.356   8.210  1.0458  0.1641 -1.4617
  261MOL0     H34447   5.409   7.198   8.168 -1.5262  0.4471  1.7327
  261MOL0     H34448   5.668   7.156   8.142 -1.0614 -0.9970  0.5673
  261MOL0     H34449   5.613   7.289   8.052  2.2189  0.2712  0.5285
  261MOL0     H34450   5.903   7.405   8.343  2.2688 -0.9472 -2.1051
  261MOL0     H34451   5.327   6.804   8.164 -0.3935 -0.4735  1.7480
  261MOL0     H34452   5.436   6.591   8.112  0.9599  0.6675 -1.9617
  262MOL0     O34453   8.211   8.931   9.580  0.1922 -0.3300 -0.2734
  262MOL0     C34454   8.247   9.036   9.525 -0.4014  0.5426 -0.5207
  262MOL0     O34455   8.364   9.055   9.462 -0.4174 -0.1221  0.3892
  262MOL0     C34456   8.473   8.982   9.503 -0.4891 -0.6505 -0.9123
  262MOL0     C34457   8.530   8.996   9.631 -0.3864 -0.1653 -0.5121
  262MOL0     C34458   8.639   8.913   9.666  0.1946 -0.3543  0.6336
  262MOL0     C34459   8.705   8.833   9.577 -0.0807  0.0601  0.1379
  262MOL0     O34460   8.824   8.771   9.610  0.4329  0.1599  0.3853
  262MOL0     C34461   8.818   8.629   9.575  0.3882  0.8885 -0.0886
  262MOL0     C34462   8.896   8.553   9.677  0.5275  0.6244 -0.5964
  262MOL0     C34463   8.923   8.404   9.648 -1.0691  0.2823 -0.5593
  262MOL0     C34464   8.807   8.306   9.673  0.3424 -0.4209 -0.2550
  262MOL0     C34465   8.829   8.172   9.598  0.2199 -1.5506 -0.7487
  262MOL0     C34466   8.953   8.099   9.641  0.5855 -0.3315  0.0677
  262MOL0     C34467   8.943   7.950   9.614 -0.9538  0.0845 -0.2175
  262MOL0     C34468   9.071   7.888   9.666  0.2052 -0.0543  0.0729
  262MOL0     N34469   9.076   7.742   9.661 -0.0183 -0.2757  0.4955
  262MOL0     C34470   9.167   7.680   9.737 -0.1570  0.9406 -0.6358
  262MOL0     C34471   9.153   7.546   9.701  0.4465  0.2124 -0.1319
  262MOL0     C34472   9.231   7.429   9.758 -0.6314 -0.0124  0.0610
  262MOL0     C34473   9.384   7.444   9.747 -0.3855  0.3484 -0.8176
  262MOL0     C34474   9.474   7.340   9.824 -0.0706 -0.6714  0.0852
  262MOL0     C34475   9.626   7.371   9.811 -0.3997 -0.9088 -0.1988
  262MOL0     O34476   9.695   7.287   9.901 -0.7306  1.0667  0.1777
  262MOL0     C34477   9.785   7.193   9.856  0.6347  0.7275  0.2080
  262MOL0     C34478   9.766   7.121   9.744  0.1391 -0.3516  0.1495
  262MOL0     C34479   9.867   7.034   9.699 -0.1815  0.4843 -0.2123
  262MOL0     C34480   9.994   7.024   9.772  0.5023  0.5760 -0.0869
  262MOL0     C34481  10.098   6.922   9.732  0.2679  0.3219 -0.2376
  262MOL0     O34482  10.070   6.850   9.616  0.9198 -0.1063 -0.3602
  262MOL0     C34483  10.169   6.797   9.542  1.0462  0.3155  0.5037
  262MOL0     C34484  10.129   6.686   9.463  0.4662  0.0756 -0.1854
  262MOL0     C34485  10.226   6.611   9.402  0.0290 -0.8496  0.0800
  262MOL0     C34486  10.367   6.659   9.395  0.4337 -0.0881  0.1327
  262MOL0     O34487  10.446   6.589   9.314 -1.1303  0.2603  0.1838
  262MOL0     C34488  10.582   6.572   9.353  0.7064 -0.0828  0.9634
  262MOL0     C34489  10.604   6.511   9.491  0.4580  0.4460  0.3783
  262MOL0     C34490  10.731   6.419   9.503 -0.2290  0.2879  0.0351
  262MOL0     C34491  10.744   6.334   9.635 -0.7571 -0.6395  0.5677
  262MOL0     C34492  10.823   6.204   9.616 -0.8500  0.7849  0.6843
  262MOL0     C34493  10.975   6.213   9.584 -0.2001 -0.0420  0.3613
  262MOL0     C34494  11.019   6.061   9.578 -0.0368 -0.9288  0.2829
  262MOL0     C34495  11.164   6.039   9.548 -0.1057  1.0619 -0.2002
  262MOL0    Cl34496  11.215   5.881   9.626  0.4390  0.2979 -0.6884
  262MOL0     C34497  10.400   6.764   9.471 -0.2189 -0.3526  0.6894
  262MOL0     C34498  10.306   6.833   9.541  0.0033 -0.3158  0.4740
  262MOL0     O34499  10.203   6.917   9.790 -0.0053 -0.3928 -1.4595
  262MOL0     C34500  10.007   7.091   9.887  0.7469  0.3676  0.1640
  262MOL0     C34501   9.900   7.180   9.934 -0.0158  0.6014  0.7773
  262MOL0     N34502   9.056   7.543   9.597  0.1612  0.2486 -0.7391
  262MOL0     N34503   9.012   7.661   9.569 -0.1571 -0.4364 -0.5158
  262MOL0     C34504   8.642   8.811   9.454  0.4142 -0.4717  1.0379
  262MOL0     C34505   8.538   8.898   9.416 -0.0129 -0.0955 -0.7901
  262MOL0     C34506   8.148   9.144   9.518 -0.0398 -1.0656  0.1612
  262MOL0     C34507   8.178   9.261   9.450 -0.3879 -0.5927 -0.0172
  262MOL0     C34508   8.083   9.360   9.444  0.5592 -0.3195 -0.0398
  262MOL0     C34509   7.954   9.354   9.497  0.1253 -0.3622  0.0732
  262MOL0     O34510   7.856   9.450   9.488  0.5879  0.0070  0.1149
  262MOL0     C34511   7.889   9.572   9.415  0.3392  1.2494  0.2423
  262MOL0     C34512   7.767   9.667   9.418  1.1203  0.2770 -0.4102
  262MOL0     C34513   7.803   9.783   9.318 -0.1417 -0.3977 -0.4261
  262MOL0     C34514   7.680   9.844   9.255  0.3903 -0.1729  0.4235
  262MOL0     C34515   7.596   9.922   9.356  0.1928 -0.3605  0.5861
  262MOL0     C34516   7.545   9.990   9.442  0.1093 -0.5126 -0.0816
  262MOL0     C34517   7.926   9.237   9.573  0.1189 -0.3938 -0.1116
  262MOL0     C34518   8.019   9.135   9.579  0.9840  0.0195 -0.2579
  262MOL0     H34519   8.493   9.069   9.702  1.3636  2.2711 -1.9626
  262MOL0     H34520   8.688   8.941   9.759  2.9378  1.9504 -1.3215
  262MOL0     H34521   8.852   8.603   9.474  0.1886  3.7108 -0.9911
  262MOL0     H34522   8.714   8.595   9.575  1.3442 -2.5034  1.9027
  262MOL0     H34523   8.843   8.561   9.772  0.0668  0.1833 -0.8056
  262MOL0     H34524   8.989   8.605   9.698  1.0402  0.6860 -2.8249
  262MOL0     H34525   9.006   8.383   9.716 -2.4305  0.6256  1.2946
  262MOL0     H34526   8.964   8.386   9.549  0.5367 -1.7164  0.4013
  262MOL0     H34527   8.786   8.302   9.780  0.1590 -1.4099 -0.3150
  262MOL0     H34528   8.723   8.347   9.616  1.4592 -0.4618 -1.9932
  262MOL0     H34529   8.827   8.196   9.491  2.7984 -0.6774 -0.6823
  262MOL0     H34530   8.738   8.113   9.612 -1.7311  1.6984  1.6718
  262MOL0     H34531   8.963   8.115   9.749  2.8488  1.5447 -0.3296
  262MOL0     H34532   9.047   8.139   9.599 -0.4573  0.6440 -1.4478
  262MOL0     H34533   8.849   7.903   9.646 -0.7455  0.1263  0.4740
  262MOL0     H34534   8.941   7.924   9.507 -1.6777 -5.6024  0.8818
  262MOL0     H34535   9.079   7.926   9.768  2.2653  0.9764 -0.4101
  262MOL0     H34536   9.152   7.926   9.603 -0.8359 -0.6203 -1.7066
  262MOL0     H34537   9.242   7.717   9.805  1.2721 -0.3094 -1.4784
  262MOL0     H34538   9.202   7.330   9.721  2.2633 -2.4111  3.5227
  262MOL0     H34539   9.202   7.436   9.864 -0.0604  0.0634  0.2156
  262MOL0     H34540   9.415   7.544   9.777  1.7927 -0.6879  0.6195
  262MOL0     H34541   9.400   7.425   9.640  2.0080 -2.8128 -0.0371
  262MOL0     H34542   9.458   7.334   9.932 -2.2946 -2.4074 -0.2758
  262MOL0     H34543   9.449   7.242   9.784  1.7221 -1.9705  1.9408
  262MOL0     H34544   9.654   7.473   9.839  1.6270 -1.2713 -0.7916
  262MOL0     H34545   9.657   7.344   9.710  2.3040 -3.3263  1.1349
  262MOL0     H34546   9.679   7.141   9.683 -1.0393 -0.1290  1.8356
  262MOL0     H34547   9.849   6.971   9.612  0.2819 -0.9101  0.6617
  262MOL0     H34548  10.023   6.662   9.466  0.6377 -0.6645  2.4028
  262MOL0     H34549  10.203   6.516   9.353  0.5230 -2.4638  2.7673
  262MOL0     H34550  10.637   6.667   9.353 -0.3426  0.5874 -1.2725
  262MOL0     H34551  10.620   6.509   9.272 -4.0481 -0.1950 -1.4939
  262MOL0     H34552  10.517   6.449   9.513 -1.0175  2.6729  1.1306
  262MOL0     H34553  10.618   6.594   9.561  0.1651  1.5348 -0.8276
  262MOL0     H34554  10.816   6.485   9.484  0.6794 -0.4053  1.5501
  262MOL0     H34555  10.737   6.342   9.425 -4.2856  0.4867 -0.6838
  262MOL0     H34556  10.791   6.399   9.710 -0.6942  0.6375 -0.5440
  262MOL0     H34557  10.647   6.306   9.678 -1.2669 -0.1513 -0.2402
  262MOL0     H34558  10.774   6.154   9.532  2.2923 -3.3810  0.9863
  262MOL0     H34559  10.806   6.135   9.698  1.5418 -3.3063 -1.8840
  262MOL0     H34560  11.024   6.258   9.671  0.8266  0.3446 -0.4052
  262MOL0     H34561  11.000   6.270   9.495  2.1356  1.7753  2.0587
  262MOL0     H34562  10.991   6.023   9.677 -1.9020  2.8828  1.4000
  262MOL0     H34563  10.966   6.001   9.503 -0.1743 -1.6124  0.9097
  262MOL0     H34564  11.236   6.112   9.586  1.4788 -0.9410  0.8437
  262MOL0     H34565  11.172   6.035   9.439  1.9479 -1.9553 -0.0389
  262MOL0     H34566  10.506   6.785   9.470 -0.1138 -0.8768  0.6761
  262MOL0     H34567  10.343   6.924   9.587  0.3876  2.0967 -3.9924
  262MOL0     H34568  10.095   7.083   9.950  2.0924 -4.4618 -1.9093
  262MOL0     H34569   9.911   7.233  10.028  1.9310  1.5156  0.0849
  262MOL0     H34570   8.672   8.738   9.379 -0.5821  0.9115 -0.8102
  262MOL0     H34571   8.494   8.887   9.317 -0.7173 -0.0177 -0.4902
  262MOL0     H34572   8.271   9.274   9.396 -0.2124 -0.8530  0.2251
  262MOL0     H34573   8.111   9.440   9.376  0.3976  0.6776  1.0362
  262MOL0     H34574   7.912   9.538   9.314 -2.5771  1.1525 -0.4748
  262MOL0     H34575   7.979   9.613   9.460  3.9723 -3.0766 -2.2206
  262MOL0     H34576   7.676   9.613   9.391  1.4063 -1.1040  1.2060
  262MOL0     H34577   7.754   9.713   9.516 -2.7731  1.2774 -1.2187
  262MOL0     H34578   7.863   9.742   9.236 -0.0405  2.2274 -1.7672
  262MOL0     H34579   7.862   9.852   9.380 -2.2489 -0.5070  1.8515
  262MOL0     H34580   7.709   9.913   9.175 -3.4573  0.0505 -1.0012
  262MOL0     H34581   7.623   9.784   9.184 -1.0141  2.7821 -1.1446
  262MOL0     H34582   7.518  10.068   9.511  1.8123 -2.0367  2.4509
  262MOL0     H34583   7.832   9.233   9.626  0.2862  0.6170  0.2868
  262MOL0     H34584   7.996   9.049   9.641  2.4673 -1.8382 -2.1167
  263MOL0     O34585   7.181   4.413   4.929 -0.2523 -0.2870 -0.0996
  263MOL0     C34586   7.271   4.363   4.862  0.1503  0.1923  0.9690
  263MOL0     O34587   7.259   4.329   4.732  0.3293  0.8442 -0.3130
  263MOL0     C34588   7.135   4.305   4.674  0.8378 -0.5882  1.0339
  263MOL0     C34589   7.005   4.280   4.733 -0.7550  0.0637 -0.5318
  263MOL0     C34590   6.894   4.248   4.657  1.0463 -0.2469  0.4274
  263MOL0     C34591   6.900   4.232   4.515  0.2786  0.5978  0.4869
  263MOL0     O34592   6.788   4.197   4.442 -0.0009 -1.2545 -0.5609
  263MOL0     C34593   6.688   4.306   4.426 -0.2658  0.3915  1.0769
  263MOL0     C34594   6.724   4.409   4.330  0.6523  0.4964 -0.8179
  263MOL0     C34595   6.669   4.404   4.186 -0.5872  0.0112 -0.6133
  263MOL0     C34596   6.724   4.526   4.116  1.0462  0.6189 -0.4490
  263MOL0     C34597   6.865   4.517   4.049  1.0897 -0.2187 -0.2751
  263MOL0     C34598   6.969   4.606   4.124  0.1693 -0.2314  0.0695
  263MOL0     C34599   7.112   4.605   4.066  0.1508  0.4348  0.7885
  263MOL0     C34600   7.178   4.476   4.109 -0.4235 -0.2036 -0.3441
  263MOL0     N34601   7.322   4.489   4.069 -0.2423 -0.3119  0.6223
  263MOL0     C34602   7.433   4.523   4.146 -0.0148 -0.1597 -0.4060
  263MOL0     C34603   7.543   4.514   4.074  1.2325  0.6621  0.0648
  263MOL0     C34604   7.678   4.550   4.105  0.0751 -0.1616  0.2044
  263MOL0     C34605   7.723   4.690   4.056 -0.7866 -0.0299 -0.3258
  263MOL0     C34606   7.874   4.705   4.076 -0.5878 -1.0621  0.2587
  263MOL0     C34607   7.919   4.844   4.028 -0.5667  0.3285 -0.4328
  263MOL0     O34608   7.853   4.948   4.111 -0.7415 -0.1479  0.5079
  263MOL0     C34609   7.910   4.963   4.232 -0.4885  0.9116 -0.3519
  263MOL0     C34610   7.847   4.918   4.346 -0.0126 -0.0461 -0.5126
  263MOL0     C34611   7.895   4.941   4.476  0.2833 -1.0123 -0.3510
  263MOL0     C34612   8.013   5.014   4.487 -0.9436  0.4084 -0.1584
  263MOL0     C34613   8.057   5.037   4.627 -0.8002  0.1068 -0.2863
  263MOL0     O34614   8.010   4.958   4.717  0.0711 -0.4396 -0.2779
  263MOL0     C34615   8.053   4.977   4.848  0.0752  0.0518  0.0867
  263MOL0     C34616   8.094   4.865   4.913  0.0536  0.2845 -1.4615
  263MOL0     C34617   8.138   4.879   5.049  0.4883  0.1620  0.9999
  263MOL0     C34618   8.159   5.008   5.102 -0.2814 -0.4920  0.6989
  263MOL0     O34619   8.236   5.013   5.219 -0.7116  0.2697  0.2905
  263MOL0     C34620   8.376   5.036   5.186 -0.1853  0.2892 -1.3206
  263MOL0     C34621   8.463   4.974   5.298 -0.3536 -0.6751  0.4512
  263MOL0     C34622   8.415   4.838   5.345 -0.0553 -0.2194  0.0480
  263MOL0     C34623   8.535   4.769   5.421  0.4510 -0.1460  0.4012
  263MOL0     C34624   8.488   4.640   5.494  0.1261 -0.5962 -0.2597
  263MOL0     C34625   8.407   4.545   5.405 -0.0892 -0.0238  0.1425
  263MOL0     C34626   8.386   4.404   5.453 -0.4260  0.0290 -1.0798
  263MOL0     C34627   8.292   4.320   5.376  0.7259 -0.0899  0.0548
  263MOL0    Cl34628   8.122   4.393   5.351  0.1532 -0.1419  0.5260
  263MOL0     C34629   8.125   5.123   5.038  0.8646 -0.0202  0.0608
  263MOL0     C34630   8.069   5.107   4.912  1.0310 -0.5363  0.8550
  263MOL0     O34631   8.131   5.139   4.644  0.1332 -0.4556  0.1666
  263MOL0     C34632   8.088   5.049   4.372 -0.4628  0.0568 -0.4286
  263MOL0     C34633   8.025   5.039   4.251  0.4169 -0.3115 -0.6477
  263MOL0     N34634   7.498   4.474   3.946 -0.1757  0.4690  0.3941
  263MOL0     N34635   7.371   4.479   3.944  0.4985 -0.0833 -0.1714
  263MOL0     C34636   7.031   4.247   4.462  0.2895 -0.6047  0.9713
  263MOL0     C34637   7.137   4.296   4.542 -0.3275  0.5842  0.0651
  263MOL0     C34638   7.409   4.352   4.918  0.0016  0.1003  0.3048
  263MOL0     C34639   7.432   4.404   5.051  0.4661 -0.1972 -0.7111
  263MOL0     C34640   7.564   4.401   5.093 -0.2394  0.3205 -0.6995
  263MOL0     C34641   7.666   4.349   5.013 -0.3844  0.1261  0.8067
  263MOL0     O34642   7.795   4.341   5.062 -0.0203 -0.4607  0.4493
  263MOL0     C34643   7.886   4.430   4.989  0.5891 -0.2149  0.2476
  263MOL0     C34644   7.998   4.372   4.905 -0.0510  0.4734  0.1604
  263MOL0     C34645   8.137   4.353   4.968  0.0848 -0.0163 -0.7413
  263MOL0     C34646   8.214   4.487   5.012 -0.5884  0.0427  0.2195
  263MOL0     C34647   8.297   4.552   4.906  0.6961  0.2044 -0.0122
  263MOL0     C34648   8.353   4.612   4.816  1.0421  0.9412  0.4730
  263MOL0     C34649   7.642   4.305   4.883 -1.1854 -0.6926  0.0428
  263MOL0     C34650   7.507   4.301   4.834 -0.6517  0.1974 -0.3503
  263MOL0     H34651   7.002   4.277   4.842  1.1850  4.1885 -0.1480
  263MOL0     H34652   6.794   4.240   4.699 -2.8010  1.6466 -6.7445
  263MOL0     H34653   6.657   4.346   4.523  0.5377  0.5650  1.2760
  263MOL0     H34654   6.602   4.255   4.381  0.4663  1.3461 -1.5779
  263MOL0     H34655   6.832   4.429   4.335  0.9945 -1.4535  2.7714
  263MOL0     H34656   6.676   4.495   4.377  1.6738  0.9993 -0.6759
  263MOL0     H34657   6.561   4.422   4.183 -1.0007 -1.4302  2.4152
  263MOL0     H34658   6.689   4.308   4.139  1.4032  1.9703 -4.2444
  263MOL0     H34659   6.657   4.565   4.039  0.4527  0.4114 -0.0433
  263MOL0     H34660   6.720   4.603   4.194  3.0254 -0.1822  0.5248
  263MOL0     H34661   6.868   4.552   3.945  1.9153  1.3563  0.2442
  263MOL0     H34662   6.884   4.410   4.043 -1.6532 -0.8041  0.2175
  263MOL0     H34663   6.961   4.591   4.232 -1.6324  1.7544  0.2732
  263MOL0     H34664   6.929   4.706   4.105  2.9345  0.8030 -0.7762
  263MOL0     H34665   7.109   4.615   3.957  3.1542 -1.6664  0.3820
  263MOL0     H34666   7.163   4.694   4.104  2.3241 -0.8115  0.9585
  263MOL0     H34667   7.147   4.384   4.059  0.8057 -0.8191 -0.0213
  263MOL0     H34668   7.183   4.473   4.219  0.4596 -2.4725 -0.3927
  263MOL0     H34669   7.439   4.546   4.252  2.4582  0.0823 -0.5487
  263MOL0     H34670   7.740   4.474   4.057 -0.4348  0.2894 -1.2059
  263MOL0     H34671   7.712   4.525   4.206 -1.5853 -0.2762  0.7648
  263MOL0     H34672   7.676   4.767   4.118  3.7859  2.1759  0.8996
  263MOL0     H34673   7.713   4.706   3.949  2.2610  0.1203 -0.6820
  263MOL0     H34674   7.896   4.690   4.182 -0.8312  3.1011  1.0888
  263MOL0     H34675   7.928   4.625   4.025  2.2618 -0.2057  1.7071
  263MOL0     H34676   7.891   4.845   3.922  0.3061 -2.3533 -0.7533
  263MOL0     H34677   8.029   4.850   4.028 -0.5921  1.6828 -2.0866
  263MOL0     H34678   7.757   4.858   4.339 -0.1286  0.2031 -1.3176
  263MOL0     H34679   7.833   4.908   4.560 -0.9255  0.4358 -0.6120
  263MOL0     H34680   8.100   4.768   4.863 -0.6894 -0.1982 -0.6425
  263MOL0     H34681   8.154   4.790   5.108 -1.0149 -0.8942 -0.0762
  263MOL0     H34682   8.388   5.145   5.180 -1.7059  0.6843  1.1960
  263MOL0     H34683   8.385   4.994   5.086 -0.2446  1.6140 -1.9078
  263MOL0     H34684   8.454   5.042   5.383 -0.6319  0.2829 -0.3191
  263MOL0     H34685   8.564   4.976   5.257 -0.3192  0.1204  0.5551
  263MOL0     H34686   8.394   4.788   5.251  1.3194 -0.4064 -0.1779
  263MOL0     H34687   8.331   4.866   5.409 -0.3026  2.3912 -1.2938
  263MOL0     H34688   8.616   4.753   5.350  1.4170  1.9417  0.9355
  263MOL0     H34689   8.585   4.832   5.496  1.1649  0.4470 -0.5561
  263MOL0     H34690   8.443   4.667   5.589  0.4553 -4.1631  1.0579
  263MOL0     H34691   8.573   4.585   5.534  0.5459 -0.9569 -1.5935
  263MOL0     H34692   8.445   4.549   5.303 -2.7498  0.0999 -0.9197
  263MOL0     H34693   8.310   4.593   5.393 -0.7344 -1.0869  0.9748
  263MOL0     H34694   8.485   4.357   5.460  0.5852  2.2750  1.4406
  263MOL0     H34695   8.347   4.415   5.554  1.5963 -0.1390 -0.2313
  263MOL0     H34696   8.279   4.227   5.433  1.6428  1.1328  2.3948
  263MOL0     H34697   8.330   4.302   5.275 -0.2673  3.7045 -1.1616
  263MOL0     H34698   8.165   5.217   5.076  5.6377 -2.7320  2.7768
  263MOL0     H34699   8.055   5.203   4.865  0.3937  1.6392  5.0494
  263MOL0     H34700   8.182   5.102   4.383 -0.3190 -0.4065  0.6869
  263MOL0     H34701   8.080   5.081   4.168 -0.8799  1.9414 -0.4364
  263MOL0     H34702   7.056   4.236   4.358 -0.5977  1.9901  0.4181
  263MOL0     H34703   7.236   4.288   4.498 -0.5034  1.5461 -0.5351
  263MOL0     H34704   7.352   4.429   5.120  0.7702  2.1781 -1.1090
  263MOL0     H34705   7.584   4.428   5.196 -4.5691 -2.4260  1.1513
  263MOL0     H34706   7.930   4.493   5.067  0.6740  0.7930 -0.5877
  263MOL0     H34707   7.828   4.500   4.928 -3.6316 -2.5592  1.2439
  263MOL0     H34708   7.966   4.274   4.870 -0.8644  0.4954  0.8229
  263MOL0     H34709   8.005   4.438   4.818  0.6480  0.2436  0.0333
  263MOL0     H34710   8.195   4.308   4.887  0.3245  2.0407 -1.7786
  263MOL0     H34711   8.119   4.282   5.049 -0.2741  0.2310 -0.6039
  263MOL0     H34712   8.141   4.562   5.044 -0.7635  0.0592 -0.2176
  263MOL0     H34713   8.286   4.466   5.092  0.0772 -0.2136 -0.4284
  263MOL0     H34714   8.390   4.659   4.728 -1.5883  1.1535 -0.6082
  263MOL0     H34715   7.717   4.264   4.816 -3.5894 -1.6858 -2.1854
  263MOL0     H34716   7.486   4.252   4.740  2.8455 -1.1240 -0.5711
  264MOL0     O34717   5.702  10.332   8.298  0.5611  0.0700  0.2219
  264MOL0     C34718   5.710  10.242   8.384 -0.4409 -0.6544  0.5070
  264MOL0     O34719   5.661  10.247   8.508 -0.2499  0.4547  0.0102
  264MOL0     C34720   5.569  10.350   8.534 -0.8326 -0.8472  0.0601
  264MOL0     C34721   5.602  10.481   8.512 -0.4148 -0.0743  0.3427
  264MOL0     C34722   5.497  10.572   8.525 -0.2467 -0.7645 -0.0063
  264MOL0     C34723   5.369  10.543   8.579  0.0821  0.0414 -0.5755
  264MOL0     O34724   5.254  10.625   8.590  1.0975  0.0141 -0.2756
  264MOL0     C34725   5.211  10.674   8.459 -0.4679  0.2582  0.2661
  264MOL0     C34726   5.215  10.825   8.440 -0.8833 -0.6242  0.6103
  264MOL0     C34727   5.089  10.859   8.358  0.5511  0.7515  1.3602
  264MOL0     C34728   5.079  11.006   8.361  0.7448 -0.5388 -0.2818
  264MOL0     C34729   4.995  11.058   8.249  0.1875 -0.0882 -0.1303
  264MOL0     C34730   4.978  11.215   8.262 -0.4282 -0.3583  0.1477
  264MOL0     C34731   4.867  11.254   8.167 -0.2890  0.2055  0.4659
  264MOL0     C34732   4.882  11.209   8.023 -0.1256 -0.6834  0.7005
  264MOL0     N34733   4.792  11.285   7.934  0.2355  0.5609 -0.0563
  264MOL0     C34734   4.826  11.415   7.891 -0.7148 -0.0667  0.1540
  264MOL0     C34735   4.706  11.467   7.848 -0.7373  0.2692  0.1595
  264MOL0     C34736   4.685  11.609   7.809 -0.1955 -0.4734 -0.4147
  264MOL0     C34737   4.714  11.717   7.918  0.0165  0.3414 -0.8073
  264MOL0     C34738   4.603  11.733   8.021 -0.7295 -0.0091  0.1170
  264MOL0     C34739   4.584  11.604   8.106  1.3485 -0.1685 -0.7675
  264MOL0     O34740   4.567  11.640   8.250 -0.7575  0.7372  0.6160
  264MOL0     C34741   4.648  11.575   8.345  0.4476  0.0554  0.0777
  264MOL0     C34742   4.602  11.480   8.434 -0.0577  0.6072 -0.2831
  264MOL0     C34743   4.684  11.432   8.535  0.8481 -0.1590  0.4077
  264MOL0     C34744   4.819  11.469   8.535  0.4755  0.4619 -1.2648
  264MOL0     C34745   4.918  11.397   8.617 -1.2193  0.4603 -0.6272
  264MOL0     O34746   5.053  11.440   8.614  0.1331 -0.3233  0.0342
  264MOL0     C34747   5.145  11.365   8.685 -0.3936  0.6131 -0.0187
  264MOL0     C34748   5.204  11.254   8.626 -0.1909 -0.3270 -0.4674
  264MOL0     C34749   5.299  11.179   8.702  0.1195  0.0274  0.7033
  264MOL0     C34750   5.337  11.219   8.827 -1.2124  0.1431  0.6535
  264MOL0     O34751   5.429  11.137   8.888  0.6016  1.0017 -0.2711
  264MOL0     C34752   5.390  11.103   9.020 -0.3591 -0.0523  0.1774
  264MOL0     C34753   5.470  10.980   9.065 -0.8278 -0.6459 -0.6286
  264MOL0     C34754   5.492  10.888   8.952  0.5417 -0.4617  0.2077
  264MOL0     C34755   5.549  10.751   8.986 -0.5846  0.2394  0.3221
  264MOL0     C34756   5.541  10.645   8.864 -0.9018  0.1899 -0.4653
  264MOL0     C34757   5.563  10.503   8.921 -0.4531  0.0718  0.1874
  264MOL0     C34758   5.710  10.472   8.934 -0.5490  0.6001 -0.9197
  264MOL0     C34759   5.732  10.328   8.985 -0.4550 -0.0688 -0.1024
  264MOL0    Cl34760   5.648  10.203   8.890  0.3317  0.2645  0.6725
  264MOL0     C34761   5.283  11.337   8.882 -0.5995  0.0125  0.1492
  264MOL0     C34762   5.185  11.410   8.808 -0.0844  0.7190 -0.4551
  264MOL0     O34763   4.874  11.308   8.690 -0.4076 -0.4710 -0.0085
  264MOL0     C34764   4.867  11.543   8.422  0.7841  0.3327  0.3381
  264MOL0     C34765   4.778  11.611   8.339 -0.4409  1.0246  1.0215
  264MOL0     N34766   4.601  11.369   7.862 -0.7913 -0.3732 -0.3109
  264MOL0     N34767   4.650  11.270   7.928 -0.3352 -1.0937  0.0683
  264MOL0     C34768   5.351  10.409   8.601  0.1628  0.0749  0.7131
  264MOL0     C34769   5.447  10.312   8.582  0.6529  0.2717 -0.5971
  264MOL0     C34770   5.798  10.131   8.361  0.8729  0.7638 -0.4125
  264MOL0     C34771   5.822  10.037   8.460 -0.3688  0.5072 -0.8831
  264MOL0     C34772   5.915   9.938   8.448 -1.0349  0.5783 -0.2062
  264MOL0     C34773   5.986   9.920   8.333  0.5885 -0.3553 -0.3407
  264MOL0     O34774   6.067   9.807   8.318  0.1427 -0.2341 -0.1698
  264MOL0     C34775   6.162   9.818   8.207 -0.8242  0.5818 -0.7525
  264MOL0     C34776   6.248   9.685   8.196  0.5819  0.0639 -0.5815
  264MOL0     C34777   6.156   9.562   8.204 -0.1431  0.2471  0.1832
  264MOL0     C34778   6.235   9.433   8.191  0.8886 -0.4856 -0.5484
  264MOL0     C34779   6.133   9.332   8.189 -1.0165  0.4381 -0.6113
  264MOL0     C34780   6.048   9.246   8.188  0.2810 -0.9079 -0.9075
  264MOL0     C34781   5.952  10.009   8.225  0.1163  0.2258 -0.1471
  264MOL0     C34782   5.868  10.119   8.242  0.2097  1.3818  0.2208
  264MOL0     H34783   5.708  10.504   8.500 -0.9273  2.2494 -0.2073
  264MOL0     H34784   5.526  10.677   8.522 -0.4256 -0.5169  3.1783
  264MOL0     H34785   5.108  10.639   8.451 -1.0248  2.0568 -1.0063
  264MOL0     H34786   5.263  10.634   8.372  1.3486  2.2316  0.3446
  264MOL0     H34787   5.301  10.858   8.382 -1.6000 -0.6444 -0.4768
  264MOL0     H34788   5.207  10.882   8.534  2.3458  0.3902  0.3638
  264MOL0     H34789   4.998  10.817   8.402  0.8253 -2.1162 -0.5656
  264MOL0     H34790   5.105  10.834   8.253  0.7874  0.1109  1.5456
  264MOL0     H34791   5.041  11.061   8.448  1.3017  0.8690 -0.9008
  264MOL0     H34792   5.181  11.044   8.351  0.2106  1.4031  1.0491
  264MOL0     H34793   4.897  11.012   8.239 -1.6693  3.9698 -4.0165
  264MOL0     H34794   5.047  11.029   8.157  1.2170  2.3217 -0.3891
  264MOL0     H34795   5.073  11.266   8.244 -2.1098  3.1548  0.3338
  264MOL0     H34796   4.946  11.241   8.363 -1.9006 -1.3844 -0.0281
  264MOL0     H34797   4.774  11.211   8.205 -0.3727 -1.4719 -1.5209
  264MOL0     H34798   4.860  11.363   8.169  0.0038  0.3790 -3.0662
  264MOL0     H34799   4.848  11.105   8.015  0.4054 -1.0262  2.4269
  264MOL0     H34800   4.988  11.223   8.000  0.0556 -1.0142  1.3073
  264MOL0     H34801   4.919  11.472   7.887 -2.8398  3.6431 -2.6060
  264MOL0     H34802   4.581  11.611   7.775  1.1284 -0.1622 -5.2465
  264MOL0     H34803   4.739  11.629   7.716 -0.3250 -1.6604 -0.7697
  264MOL0     H34804   4.732  11.817   7.878  0.9569  1.1304  1.3865
  264MOL0     H34805   4.802  11.697   7.980 -0.2617  2.3232  0.3391
  264MOL0     H34806   4.623  11.820   8.086 -3.2344  1.1815 -0.5580
  264MOL0     H34807   4.511  11.764   7.971 -1.3845 -2.3992 -0.2545
  264MOL0     H34808   4.670  11.539   8.091  1.5734  0.6657 -3.4565
  264MOL0     H34809   4.493  11.553   8.072 -0.4678  1.5966  1.0893
  264MOL0     H34810   4.497  11.454   8.420 -0.0435  1.5662 -2.7119
  264MOL0     H34811   4.654  11.350   8.600  3.3343 -0.7691  0.9104
  264MOL0     H34812   5.166  11.212   8.533 -0.6752 -0.8559 -0.0431
  264MOL0     H34813   5.347  11.086   8.673 -0.5090 -1.3538  3.6653
  264MOL0     H34814   5.283  11.080   9.018 -0.5184  0.6827  0.1026
  264MOL0     H34815   5.410  11.188   9.085  1.4528 -0.0018 -0.4038
  264MOL0     H34816   5.421  10.919   9.142 -0.3660 -1.4496 -0.9518
  264MOL0     H34817   5.569  11.001   9.107  0.6227 -4.4165 -1.7093
  264MOL0     H34818   5.558  10.930   8.875 -1.7862 -2.1522 -2.9901
  264MOL0     H34819   5.398  10.863   8.901  1.1533 -3.1354  0.2306
  264MOL0     H34820   5.652  10.765   9.019 -0.4442 -0.1611  0.0599
  264MOL0     H34821   5.485  10.716   9.068  0.8136 -1.2372  0.8337
  264MOL0     H34822   5.606  10.650   8.776  0.4953  0.1144  0.5350
  264MOL0     H34823   5.436  10.657   8.836 -0.8600  1.4568 -0.1087
  264MOL0     H34824   5.510  10.436   8.852  0.6559  1.1029 -1.7739
  264MOL0     H34825   5.515  10.497   9.019 -1.6225 -2.6739 -0.4755
  264MOL0     H34826   5.755  10.489   8.836  3.0858  2.4586  0.8669
  264MOL0     H34827   5.763  10.537   9.005  0.1442 -1.4081  0.5186
  264MOL0     H34828   5.703  10.318   9.090 -1.2355  1.1837 -0.1857
  264MOL0     H34829   5.841  10.313   8.993  0.1489  3.0250 -1.0139
  264MOL0     H34830   5.330  11.368   8.975  0.0406  4.1305 -1.3271
  264MOL0     H34831   5.156  11.503   8.856  0.0024  0.7733 -0.5065
  264MOL0     H34832   4.973  11.563   8.417  0.8579 -0.2481 -0.5585
  264MOL0     H34833   4.816  11.678   8.263 -2.9352  0.7483 -0.5772
  264MOL0     H34834   5.248  10.379   8.618  0.1974  0.1812  1.1150
  264MOL0     H34835   5.427  10.206   8.584 -4.9963  1.0154  1.7766
  264MOL0     H34836   5.774  10.038   8.557 -0.3263  0.4453 -0.8614
  264MOL0     H34837   5.939   9.872   8.531 -3.8740 -1.8869 -1.1455
  264MOL0     H34838   6.228   9.903   8.226 -0.2764 -0.0764  0.3956
  264MOL0     H34839   6.128   9.832   8.104 -2.7322 -1.3457 -0.4551
  264MOL0     H34840   6.292   9.681   8.096 -2.2179  0.0191 -1.9193
  264MOL0     H34841   6.323   9.698   8.274 -0.5917  0.9761  0.4359
  264MOL0     H34842   6.091   9.581   8.118  1.6391 -1.8624 -1.7336
  264MOL0     H34843   6.116   9.566   8.306  1.2823  0.6613  0.7503
  264MOL0     H34844   6.282   9.435   8.092  1.2723 -1.2438 -0.3863
  264MOL0     H34845   6.306   9.417   8.272 -0.6083 -0.3485  0.8360
  264MOL0     H34846   5.967   9.178   8.167 -0.8699  0.8632 -2.6165
  264MOL0     H34847   5.988   9.987   8.125 -1.7044 -1.0633 -0.5764
  264MOL0     H34848   5.853  10.183   8.155  0.2569  1.0275 -0.0507
  265MOL0     O34849   6.103   4.088   2.727 -0.2515 -0.0688 -0.4288
  265MOL0     C34850   6.211   4.090   2.777  0.7294  0.1528  0.0676
  265MOL0     O34851   6.312   4.005   2.752 -0.3657  0.2255  0.5825
  265MOL0     C34852   6.297   3.889   2.674 -0.6314 -0.0014 -0.1226
  265MOL0     C34853   6.196   3.873   2.581  0.5805 -0.7582 -0.6080
  265MOL0     C34854   6.173   3.742   2.527 -0.3275  0.1504 -0.0756
  265MOL0     C34855   6.263   3.637   2.545  0.9138  0.1186 -0.0601
  265MOL0     O34856   6.221   3.520   2.487 -0.1086  0.4069 -0.9304
  265MOL0     C34857   6.311   3.444   2.404 -0.0409 -1.0008  0.0404
  265MOL0     C34858   6.227   3.384   2.283 -0.0608 -1.1442 -0.4958
  265MOL0     C34859   6.159   3.494   2.193 -0.0888  0.4535 -0.1317
  265MOL0     C34860   6.263   3.573   2.108 -0.1217 -0.0817 -0.5415
  265MOL0     C34861   6.191   3.660   2.008  0.0923  0.7072 -0.0077
  265MOL0     C34862   6.090   3.757   2.068 -0.2621  0.2467 -0.1606
  265MOL0     C34863   6.018   3.850   1.964 -0.3484  0.8496  0.6303
  265MOL0     C34864   5.934   3.951   2.033 -0.1613  0.5522 -0.0820
  265MOL0     N34865   5.908   4.063   1.946  0.0029  0.4345  0.9203
  265MOL0     C34866   5.948   4.187   1.969 -0.3816  0.5281 -0.8625
  265MOL0     C34867   5.892   4.265   1.872  0.2976  1.2585  0.4613
  265MOL0     C34868   5.898   4.411   1.885  0.0674  0.6670  0.6595
  265MOL0     C34869   5.869   4.489   1.759 -0.0899 -0.5991  0.6971
  265MOL0     C34870   5.903   4.639   1.772  0.1020  0.5957  0.3317
  265MOL0     C34871   5.925   4.706   1.636 -0.0457  0.7544  0.7118
  265MOL0     O34872   5.914   4.846   1.626 -0.6243  1.0994 -0.2441
  265MOL0     C34873   5.790   4.900   1.624  0.8082  0.3501  0.0544
  265MOL0     C34874   5.777   5.036   1.609 -0.4473  0.0299 -0.8291
  265MOL0     C34875   5.656   5.103   1.614 -0.0749  0.1458  0.0626
  265MOL0     C34876   5.542   5.040   1.629  1.0753  0.7801 -0.3820
  265MOL0     C34877   5.412   5.104   1.646  0.2064  0.0030  0.4349
  265MOL0     O34878   5.399   5.220   1.582 -0.5475 -0.4224  0.6585
  265MOL0     C34879   5.278   5.282   1.608  0.1585 -0.8731 -0.5442
  265MOL0     C34880   5.217   5.343   1.497 -0.6486 -0.0729  0.0297
  265MOL0     C34881   5.097   5.400   1.500 -0.0590 -0.4405 -0.5259
  265MOL0     C34882   5.031   5.425   1.625 -0.5570 -0.1457  0.3543
  265MOL0     O34883   4.910   5.486   1.607 -0.1782 -0.3189  0.8375
  265MOL0     C34884   4.793   5.432   1.671 -0.4018 -0.1123  0.3414
  265MOL0     C34885   4.673   5.519   1.648  0.6019 -0.0425 -0.2479
  265MOL0     C34886   4.681   5.641   1.723  0.8108 -0.5898 -0.5906
  265MOL0     C34887   4.545   5.714   1.722  0.7512 -0.2470 -0.0805
  265MOL0     C34888   4.557   5.862   1.780 -0.2103 -0.2476  0.3547
  265MOL0     C34889   4.427   5.941   1.783  0.7432  0.4133 -0.6256
  265MOL0     C34890   4.365   5.994   1.647  0.7507 -0.8952 -0.8904
  265MOL0     C34891   4.207   5.994   1.649  0.1423  0.1495  0.3659
  265MOL0    Cl34892   4.142   6.107   1.764 -0.0895  1.1503  0.1637
  265MOL0     C34893   5.092   5.376   1.745 -0.4842  0.4891 -0.2892
  265MOL0     C34894   5.215   5.299   1.732 -0.3057  0.0133  0.2799
  265MOL0     O34895   5.319   5.038   1.695  0.1260 -0.5977 -0.0537
  265MOL0     C34896   5.551   4.897   1.649  0.0373 -0.4510  0.1795
  265MOL0     C34897   5.671   4.831   1.641  0.1360 -0.7474 -0.6456
  265MOL0     N34898   5.834   4.179   1.777  0.6756 -0.6550 -0.6898
  265MOL0     N34899   5.842   4.054   1.827 -0.3390  0.5812 -0.2257
  265MOL0     C34900   6.375   3.662   2.628  0.7174  0.5039 -0.3230
  265MOL0     C34901   6.385   3.781   2.703 -1.0748  1.1064 -0.2583
  265MOL0     C34902   6.236   4.189   2.892 -0.6829  0.4840 -0.2058
  265MOL0     C34903   6.365   4.212   2.951 -0.9815  0.4096 -0.7992
  265MOL0     C34904   6.371   4.288   3.064 -0.2650 -0.2782  0.1601
  265MOL0     C34905   6.266   4.367   3.112 -0.5323 -0.6786  0.0258
  265MOL0     O34906   6.281   4.444   3.221 -0.1698 -0.5288 -0.4483
  265MOL0     C34907   6.380   4.420   3.314  0.3289 -0.2718 -0.4958
  265MOL0     C34908   6.365   4.519   3.424  0.7873  0.2199  1.0670
  265MOL0     C34909   6.425   4.474   3.559  0.0706  0.5896  0.6353
  265MOL0     C34910   6.569   4.421   3.556 -0.3789  0.6447 -0.1492
  265MOL0     C34911   6.594   4.364   3.696 -0.3267  0.3714  0.1184
  265MOL0     C34912   6.609   4.339   3.812 -0.1617  0.1234 -0.3981
  265MOL0     C34913   6.149   4.364   3.047 -0.4815  0.7150  0.4984
  265MOL0     C34914   6.133   4.268   2.944 -0.2451 -0.1125  0.1319
  265MOL0     H34915   6.121   3.946   2.550  0.7467 -0.4933 -0.3921
  265MOL0     H34916   6.080   3.717   2.477 -1.1487 -1.4604  2.0799
  265MOL0     H34917   6.345   3.362   2.468  0.4275 -2.3654 -1.8695
  265MOL0     H34918   6.399   3.503   2.378 -1.1331  1.8860  2.3633
  265MOL0     H34919   6.145   3.334   2.335 -3.0524  1.8569 -1.8944
  265MOL0     H34920   6.283   3.319   2.215 -0.0602  0.4997 -2.1602
  265MOL0     H34921   6.124   3.571   2.261  0.1733  1.3314 -0.9691
  265MOL0     H34922   6.079   3.453   2.130 -0.8785  1.0915  0.4320
  265MOL0     H34923   6.324   3.637   2.172 -1.9392 -2.3009  3.7975
  265MOL0     H34924   6.327   3.508   2.048  4.2176  1.0047  2.3971
  265MOL0     H34925   6.145   3.599   1.930 -0.6524 -1.2566  1.8561
  265MOL0     H34926   6.270   3.720   1.962 -0.5466  0.8973 -0.8797
  265MOL0     H34927   6.144   3.816   2.143 -2.1089  0.9928  0.6631
  265MOL0     H34928   6.015   3.695   2.119  0.5166 -2.2632 -1.8747
  265MOL0     H34929   6.088   3.908   1.902  2.5323 -1.7495  1.2180
  265MOL0     H34930   5.947   3.786   1.911  0.5771  0.7136 -0.4969
  265MOL0     H34931   5.989   3.982   2.122  1.5717  0.3028 -1.0160
  265MOL0     H34932   5.845   3.912   2.083  2.4876 -1.5339  3.4924
  265MOL0     H34933   6.006   4.223   2.053  0.5981 -0.3242 -1.1411
  265MOL0     H34934   5.994   4.443   1.927  0.0216  1.9133 -0.1191
  265MOL0     H34935   5.823   4.445   1.958 -0.2031  2.8226 -0.5248
  265MOL0     H34936   5.761   4.489   1.749 -0.0934 -1.0382  0.7005
  265MOL0     H34937   5.920   4.448   1.671  0.8606  0.2638  0.8340
  265MOL0     H34938   5.821   4.691   1.823  1.2630  0.0864  2.8435
  265MOL0     H34939   5.988   4.649   1.840  1.4050 -1.0137 -0.9759
  265MOL0     H34940   5.860   4.651   1.568  0.0823  1.1622  0.2532
  265MOL0     H34941   6.031   4.692   1.611  0.0032  3.9766 -1.5262
  265MOL0     H34942   5.866   5.097   1.596 -1.2139  0.6541 -4.0191
  265MOL0     H34943   5.663   5.211   1.609  4.5251  0.0457 -0.5910
  265MOL0     H34944   5.277   5.337   1.406  2.2777  1.3807  1.7027
  265MOL0     H34945   5.053   5.442   1.410  3.1423  2.4790 -0.8890
  265MOL0     H34946   4.812   5.415   1.777  0.9197  1.8079  0.4511
  265MOL0     H34947   4.784   5.332   1.627  1.4827 -1.1510  2.1344
  265MOL0     H34948   4.584   5.469   1.686 -1.0537  2.0689 -1.1155
  265MOL0     H34949   4.658   5.529   1.540  1.4645 -0.4762 -0.4162
  265MOL0     H34950   4.758   5.712   1.691  1.8263 -0.6881  1.5065
  265MOL0     H34951   4.699   5.619   1.828  0.4505  1.3789 -0.0742
  265MOL0     H34952   4.514   5.723   1.617  0.8729 -3.9616 -0.5466
  265MOL0     H34953   4.472   5.651   1.774  1.0973 -0.5118  0.0827
  265MOL0     H34954   4.636   5.924   1.737  0.2519  0.3301  1.9594
  265MOL0     H34955   4.597   5.857   1.882  2.5918 -2.1891 -0.7147
  265MOL0     H34956   4.432   6.026   1.851  0.8381  0.4624 -0.6942
  265MOL0     H34957   4.352   5.878   1.833  0.1948  1.6290  0.1439
  265MOL0     H34958   4.397   6.098   1.657  0.6733 -1.0876  2.2237
  265MOL0     H34959   4.405   5.945   1.558 -3.7394 -1.8167 -2.6904
  265MOL0     H34960   4.173   5.891   1.664 -3.7158  0.6655 -2.8789
  265MOL0     H34961   4.160   6.029   1.556  0.1758 -0.4627  0.1176
  265MOL0     H34962   5.061   5.381   1.849  0.4751 -0.5476  0.0760
  265MOL0     H34963   5.276   5.261   1.813  0.8880 -0.2552 -0.7066
  265MOL0     H34964   5.457   4.851   1.679 -1.1133  1.3016 -0.6040
  265MOL0     H34965   5.675   4.725   1.663  0.1718 -0.3419  1.4759
  265MOL0     H34966   6.455   3.589   2.638  0.4401 -0.2073 -2.6687
  265MOL0     H34967   6.459   3.764   2.780 -2.3637  0.1795  0.8203
  265MOL0     H34968   6.456   4.156   2.933  0.7097  2.7007  0.1604
  265MOL0     H34969   6.470   4.315   3.101 -1.4016  2.7339  1.2960
  265MOL0     H34970   6.480   4.425   3.270  0.8490 -3.5190  0.1127
  265MOL0     H34971   6.363   4.321   3.357  0.9410 -1.8844 -3.6279
  265MOL0     H34972   6.419   4.606   3.387 -0.2424  0.4090 -0.0454
  265MOL0     H34973   6.257   4.523   3.439  0.3248 -1.5486 -1.2087
  265MOL0     H34974   6.363   4.391   3.596  3.4888 -1.9388  1.2448
  265MOL0     H34975   6.414   4.563   3.622  0.2235  3.3122 -2.9064
  265MOL0     H34976   6.578   4.336   3.487 -1.0116  1.6212 -1.4812
  265MOL0     H34977   6.631   4.503   3.519 -1.5024  1.5753 -0.0022
  265MOL0     H34978   6.605   4.293   3.909 -1.4343  0.1083 -0.4363
  265MOL0     H34979   6.075   4.437   3.079 -0.6884  0.8456 -0.2744
  265MOL0     H34980   6.031   4.267   2.906 -3.0608  3.9150  6.0095
  266MOL0     O34981   2.062  10.042   6.564  0.2303 -0.1526 -0.1093
  266MOL0     C34982   2.111   9.943   6.613 -0.3669  0.2800  0.0403
  266MOL0     O34983   2.068   9.811   6.607  0.5930 -0.2086 -0.0493
  266MOL0     C34984   1.948   9.790   6.541  1.3231  0.2862  0.8583
  266MOL0     C34985   1.824   9.792   6.610 -0.3512 -0.0290  0.6953
  266MOL0     C34986   1.700   9.775   6.553 -0.3826  0.1121  1.0365
  266MOL0     C34987   1.698   9.759   6.414 -1.2190  0.3162  1.0426
  266MOL0     O34988   1.587   9.756   6.333  0.8520 -0.7057  0.1783
  266MOL0     C34989   1.457   9.781   6.389  1.1490 -0.0610  0.2478
  266MOL0     C34990   1.427   9.934   6.394 -0.6265 -0.5227  0.7379
  266MOL0     C34991   1.294   9.962   6.469 -0.4787 -0.1179  0.3192
  266MOL0     C34992   1.269  10.107   6.508  0.2912 -0.0932 -1.3113
  266MOL0     C34993   1.123  10.135   6.553 -0.3292 -0.7675 -0.1122
  266MOL0     C34994   1.079  10.279   6.534  1.1618  0.2518  0.3921
  266MOL0     C34995   0.933  10.280   6.547 -0.3595  0.2426  0.5423
  266MOL0     C34996   0.886  10.414   6.506 -0.2917 -1.0682  0.2236
  266MOL0     N34997   0.916  10.519   6.607  0.0971  0.5416  0.6408
  266MOL0     C34998   1.042  10.570   6.627 -0.6042 -0.3969  0.1394
  266MOL0     C34999   1.033  10.648   6.735  0.0373 -0.2125 -0.5097
  266MOL0     C35000   1.140  10.710   6.831 -0.5833  0.0987  0.0383
  266MOL0     C35001   1.281  10.743   6.778  0.0362  0.0520  0.2326
  266MOL0     C35002   1.382  10.783   6.893 -0.7213  0.0320  0.4367
  266MOL0     C35003   1.523  10.800   6.836 -0.5712  0.0485 -0.3549
  266MOL0     O35004   1.536  10.903   6.734 -0.0972  0.1981  0.4422
  266MOL0     C35005   1.633  10.890   6.648 -0.2456  0.3186  1.0160
  266MOL0     C35006   1.723  10.999   6.632  0.9379 -0.5584 -0.1703
  266MOL0     C35007   1.813  10.994   6.539 -0.6741 -1.1862  0.3208
  266MOL0     C35008   1.834  10.884   6.447  0.1905  0.4328 -0.0229
  266MOL0     C35009   1.928  10.889   6.337 -0.0037  0.1887 -1.3169
  266MOL0     O35010   1.930  10.781   6.255 -0.9481 -0.4889  0.2576
  266MOL0     C35011   2.048  10.750   6.195 -0.0218 -0.2282 -0.5982
  266MOL0     C35012   2.049  10.722   6.061  0.3869  1.0883 -0.1221
  266MOL0     C35013   2.156  10.684   5.985 -0.4037  0.2973 -0.1255
  266MOL0     C35014   2.278  10.688   6.047 -0.0335  0.0625 -0.0521
  266MOL0     O35015   2.406  10.677   5.992  0.0335 -0.0891  0.2121
  266MOL0     C35016   2.423  10.670   5.848 -0.0770  0.7210  0.1224
  266MOL0     C35017   2.567  10.691   5.807 -0.0779 -1.0287 -0.5644
  266MOL0     C35018   2.608  10.832   5.843 -1.0585 -0.0424 -0.3567
  266MOL0     C35019   2.765  10.839   5.828 -0.1184  0.5245  0.7293
  266MOL0     C35020   2.819  10.793   5.686  0.0809  0.0778 -0.0169
  266MOL0     C35021   2.966  10.836   5.679 -0.6808 -0.5687 -0.0764
  266MOL0     C35022   3.036  10.804   5.545 -0.6956 -0.3242 -0.4968
  266MOL0     C35023   3.185  10.804   5.552  0.3017  0.0685 -0.2842
  266MOL0    Cl35024   3.241  10.968   5.554  0.1749 -0.0246 -0.3855
  266MOL0     C35025   2.284  10.725   6.182  0.3399 -0.1860  0.0170
  266MOL0     C35026   2.169  10.750   6.259 -0.4522 -0.6242  0.1319
  266MOL0     O35027   1.977  10.996   6.316  0.2152 -0.5969  0.4765
  266MOL0     C35028   1.746  10.777   6.459  0.2942  0.7700  0.1709
  266MOL0     C35029   1.650  10.776   6.563  0.5789 -0.3018 -0.5527
  266MOL0     N35030   0.898  10.636   6.783 -0.1350 -0.5916  0.6893
  266MOL0     N35031   0.836  10.549   6.710  0.8828  0.2092 -0.0519
  266MOL0     C35032   1.822   9.754   6.342 -0.0470 -1.0716 -0.3372
  266MOL0     C35033   1.943   9.755   6.409  0.2731 -0.3846  0.3626
  266MOL0     C35034   2.233   9.975   6.689 -0.2872 -0.1837  0.1278
  266MOL0     C35035   2.308   9.867   6.742 -0.1942 -0.1017  0.1286
  266MOL0     C35036   2.427   9.890   6.816 -0.0304 -0.0091  0.0766
  266MOL0     C35037   2.470  10.026   6.837  0.1219  0.7417  0.1797
  266MOL0     O35038   2.585  10.047   6.918 -0.7168 -0.0522 -0.4454
  266MOL0     C35039   2.601  10.183   6.963  0.8041  0.0517  0.1282
  266MOL0     C35040   2.652  10.201   7.113  0.1448  0.1657 -0.3453
  266MOL0     C35041   2.706  10.334   7.137 -1.0686 -0.4666  0.5704
  266MOL0     C35042   2.743  10.360   7.286 -0.0722  0.6232 -0.3145
  266MOL0     C35043   2.797  10.498   7.319  0.9725  0.3302 -0.2524
  266MOL0     C35044   2.849  10.605   7.350 -0.8946 -0.2405  1.0558
  266MOL0     C35045   2.395  10.135   6.777 -0.0607 -0.2109 -1.1844
  266MOL0     C35046   2.282  10.109   6.702 -0.4451  0.0653  0.0136
  266MOL0     H35047   1.816   9.814   6.716 -1.0975  1.3009  0.3851
  266MOL0     H35048   1.613   9.787   6.617 -1.0076  0.0712  0.2070
  266MOL0     H35049   1.449   9.723   6.481 -0.8176  1.5572  1.1645
  266MOL0     H35050   1.377   9.740   6.326 -0.2229  0.3676  1.6745
  266MOL0     H35051   1.430   9.978   6.294 -0.6699 -0.8847  0.5758
  266MOL0     H35052   1.500   9.979   6.462  0.5564  0.4455 -1.1065
  266MOL0     H35053   1.294   9.898   6.558 -1.0168  1.8043  1.7811
  266MOL0     H35054   1.215   9.939   6.397 -3.0695  1.0975  2.5865
  266MOL0     H35055   1.338  10.128   6.589 -2.3211 -2.0604  1.6575
  266MOL0     H35056   1.303  10.159   6.417  3.2737  0.5096  0.0314
  266MOL0     H35057   1.101  10.107   6.657  0.6247 -1.5878 -0.1163
  266MOL0     H35058   1.072  10.060   6.492  2.2906 -2.0017 -0.8971
  266MOL0     H35059   1.115  10.318   6.438 -0.0467 -0.7844 -0.5241
  266MOL0     H35060   1.128  10.326   6.620  0.2473 -2.0459  2.3089
  266MOL0     H35061   0.888  10.215   6.472 -0.8107  0.6573  0.4475
  266MOL0     H35062   0.902  10.260   6.650 -0.6857 -0.7648  0.2539
  266MOL0     H35063   0.778  10.415   6.486  0.0727  1.6621 -2.3850
  266MOL0     H35064   0.924  10.436   6.406  3.0703 -1.9937  1.1676
  266MOL0     H35065   1.132  10.549   6.570  1.5423  3.5750  1.6592
  266MOL0     H35066   1.159  10.635   6.910  1.5240 -0.1499 -0.6471
  266MOL0     H35067   1.109  10.807   6.871 -1.5048 -0.5413  0.9502
  266MOL0     H35068   1.290  10.818   6.699  2.8395  0.6281  0.9955
  266MOL0     H35069   1.336  10.660   6.732  1.4667  0.6088  0.8897
  266MOL0     H35070   1.338  10.879   6.921 -1.7175  1.9648 -5.9971
  266MOL0     H35071   1.381  10.714   6.977 -5.5785  1.5431  1.8945
  266MOL0     H35072   1.567  10.704   6.809 -1.5169 -1.0276  1.6751
  266MOL0     H35073   1.589  10.836   6.916  1.4243  2.0714 -2.7409
  266MOL0     H35074   1.711  11.098   6.676  1.5275  0.0775 -1.3807
  266MOL0     H35075   1.876  11.081   6.524 -0.2168 -1.7344 -1.1163
  266MOL0     H35076   1.949  10.738   6.024 -0.0436 -1.0707 -0.0706
  266MOL0     H35077   2.156  10.670   5.878  3.5712 -0.2918 -0.2112
  266MOL0     H35078   2.377  10.757   5.799 -1.8535 -0.4706 -0.4133
  266MOL0     H35079   2.395  10.570   5.814 -0.0814 -0.6056  3.6936
  266MOL0     H35080   2.572  10.686   5.698  1.9358  1.0486 -0.6353
  266MOL0     H35081   2.630  10.625   5.867 -0.3680 -0.8185 -0.0186
  266MOL0     H35082   2.577  10.858   5.944  0.2523 -0.3587  0.1501
  266MOL0     H35083   2.565  10.908   5.778  0.6045  0.9928 -0.3241
  266MOL0     H35084   2.787  10.945   5.836  2.3205  0.5576 -3.4104
  266MOL0     H35085   2.813  10.781   5.908  2.8750  0.7932 -0.7247
  266MOL0     H35086   2.763  10.844   5.608 -0.8935  2.0939  1.8613
  266MOL0     H35087   2.812  10.684   5.681  0.3072  0.0267  0.6642
  266MOL0     H35088   3.010  10.788   5.767 -1.7443  2.2462  2.1572
  266MOL0     H35089   2.975  10.945   5.683  0.4017 -0.6827  1.4622
  266MOL0     H35090   2.996  10.706   5.519 -2.4579  0.5135 -1.1129
  266MOL0     H35091   3.009  10.887   5.479 -0.6281  1.2830  1.4185
  266MOL0     H35092   3.232  10.743   5.475 -2.1909 -1.9414 -0.3628
  266MOL0     H35093   3.220  10.761   5.647 -0.0943 -1.7509 -0.9157
  266MOL0     H35094   2.382  10.739   6.227 -0.2061  3.4657  0.3715
  266MOL0     H35095   2.170  10.762   6.367  0.0016 -1.2444  0.1997
  266MOL0     H35096   1.746  10.692   6.391  1.7551  2.1986 -1.7380
  266MOL0     H35097   1.595  10.684   6.581  1.8994 -0.7274  1.6908
  266MOL0     H35098   1.827   9.750   6.233 -0.5324  3.5510 -0.7259
  266MOL0     H35099   2.041   9.746   6.364 -0.2956  0.5107 -1.1232
  266MOL0     H35100   2.269   9.769   6.714  0.8982 -0.8280  1.0877
  266MOL0     H35101   2.481   9.802   6.849 -0.8214  0.4984  3.0290
  266MOL0     H35102   2.503  10.228   6.980  1.9913  2.1334  2.1653
  266MOL0     H35103   2.666  10.236   6.893  3.0833 -1.3534  1.0503
  266MOL0     H35104   2.568  10.187   7.181  0.0544  1.4330 -0.1791
  266MOL0     H35105   2.722  10.119   7.136  2.1587  1.5962 -1.0768
  266MOL0     H35106   2.635  10.411   7.103 -0.3040  0.8888  1.9031
  266MOL0     H35107   2.794  10.342   7.074 -0.2112  1.6137  1.8947
  266MOL0     H35108   2.657  10.342   7.351 -1.6556  2.3133 -1.8074
  266MOL0     H35109   2.826  10.298   7.322 -0.7954 -0.1196  0.0929
  266MOL0     H35110   2.899  10.698   7.370 -0.5266  0.2674 -1.7999
  266MOL0     H35111   2.429  10.236   6.796 -1.0225 -0.2388  0.9675
  266MOL0     H35112   2.232  10.197   6.662  1.0821  1.2358  0.5839
  267MOL0     O35113   0.982   7.298   4.112 -0.8966 -0.1648 -0.3206
  267MOL0     C35114   0.930   7.188   4.087 -0.2556  0.2500 -0.6025
  267MOL0     O35115   0.817   7.136   4.149 -0.9170  0.0536 -0.2730
  267MOL0     C35116   0.757   7.208   4.253 -1.0486 -0.0116  0.5695
  267MOL0     C35117   0.813   7.293   4.350  1.0413  0.1616 -0.3237
  267MOL0     C35118   0.742   7.354   4.450  0.0591  0.7039 -0.2915
  267MOL0     C35119   0.602   7.353   4.458 -0.4284  0.0960 -0.2724
  267MOL0     O35120   0.536   7.408   4.561  0.7234 -0.3335 -0.1846
  267MOL0     C35121   0.581   7.530   4.623  0.1064  0.5871  0.2899
  267MOL0     C35122   0.455   7.608   4.683  0.4866 -0.0857 -0.6219
  267MOL0     C35123   0.490   7.713   4.800 -0.3108 -0.8934 -0.6320
  267MOL0     C35124   0.583   7.826   4.748 -0.3739  0.0390 -0.4407
  267MOL0     C35125   0.531   7.887   4.616 -0.3127  0.7032 -0.2221
  267MOL0     C35126   0.627   8.011   4.597  0.1772 -0.5507  0.5367
  267MOL0     C35127   0.763   7.973   4.570 -1.1935 -0.1280  0.3187
  267MOL0     C35128   0.865   8.090   4.518  1.4431  1.0514 -0.5391
  267MOL0     N35129   0.818   8.150   4.393 -0.1443  0.0263  0.0577
  267MOL0     C35130   0.784   8.085   4.273 -0.4893  0.0027  0.7374
  267MOL0     C35131   0.760   8.183   4.180 -0.1891 -0.1678  0.1511
  267MOL0     C35132   0.721   8.156   4.036  0.0713  0.4416  0.5991
  267MOL0     C35133   0.827   8.180   3.928 -0.9328 -0.4508 -0.1946
  267MOL0     C35134   0.946   8.099   3.954 -0.5800  0.0708 -0.3352
  267MOL0     C35135   1.072   8.131   3.862 -1.3866  0.1059  0.6754
  267MOL0     O35136   1.182   8.062   3.918 -0.6772 -1.1955  0.4833
  267MOL0     C35137   1.291   8.032   3.841  0.1123 -0.4710 -0.3977
  267MOL0     C35138   1.323   8.092   3.721 -0.2011  0.3730 -0.1317
  267MOL0     C35139   1.435   8.047   3.645  0.5290  1.1591  0.5546
  267MOL0     C35140   1.518   7.936   3.687  0.4144  0.2555 -0.0536
  267MOL0     C35141   1.641   7.896   3.600  0.9520  0.9236  0.3374
  267MOL0     O35142   1.650   7.946   3.479  0.6149 -0.6035  0.8226
  267MOL0     C35143   1.778   7.931   3.423  0.4088 -0.6525 -0.1452
  267MOL0     C35144   1.790   7.858   3.306 -0.3584 -0.1571  0.6902
  267MOL0     C35145   1.916   7.851   3.241  0.0249  0.2424 -0.0924
  267MOL0     C35146   2.027   7.890   3.308 -0.5596  0.2602  0.4786
  267MOL0     O35147   2.158   7.866   3.261  0.3597 -0.5263 -0.1457
  267MOL0     C35148   2.162   7.788   3.144 -0.0723 -0.1879 -0.7409
  267MOL0     C35149   2.300   7.769   3.093 -0.3366 -0.3474 -0.1561
  267MOL0     C35150   2.295   7.687   2.960 -0.2704  0.0988 -0.4695
  267MOL0     C35151   2.437   7.714   2.892 -0.6385  0.4353  0.1573
  267MOL0     C35152   2.453   7.632   2.759  0.7476  0.3769 -0.0116
  267MOL0     C35153   2.593   7.641   2.711  0.2441  0.3214  0.5136
  267MOL0     C35154   2.617   7.573   2.570  0.4149  0.2970 -0.2513
  267MOL0     C35155   2.762   7.586   2.530 -0.2017 -0.4592  0.7816
  267MOL0    Cl35156   2.854   7.463   2.620  0.1416  0.3850 -0.0620
  267MOL0     C35157   2.015   7.961   3.430 -0.1846 -0.5723  0.7936
  267MOL0     C35158   1.891   8.001   3.482  1.0251  0.0196  0.8961
  267MOL0     O35159   1.714   7.815   3.652 -0.1939 -0.1245  0.2701
  267MOL0     C35160   1.491   7.881   3.819  0.6750 -0.3333 -0.2065
  267MOL0     C35161   1.376   7.926   3.883  0.6437 -0.0719  0.6621
  267MOL0     N35162   0.767   8.303   4.254 -0.5500 -0.0576 -0.1062
  267MOL0     N35163   0.820   8.282   4.371  0.6513  0.8365 -0.0014
  267MOL0     C35164   0.543   7.273   4.362 -0.4683  0.6859  0.1428
  267MOL0     C35165   0.618   7.200   4.266  0.3169 -0.1408 -0.1008
  267MOL0     C35166   0.990   7.095   3.977 -0.2000  0.6138  0.3113
  267MOL0     C35167   0.931   6.981   3.937 -0.1843 -0.2332  0.7945
  267MOL0     C35168   0.994   6.888   3.855  0.0297  0.6628 -1.0235
  267MOL0     C35169   1.121   6.921   3.805 -0.7329 -0.1623 -0.1177
  267MOL0     O35170   1.192   6.818   3.741  0.7377 -1.2192  0.0036
  267MOL0     C35171   1.137   6.801   3.609  0.1823  0.0372  0.0019
  267MOL0     C35172   1.240   6.740   3.513 -0.4931  0.3075  0.5113
  267MOL0     C35173   1.186   6.732   3.364 -0.6683  0.5305  0.1682
  267MOL0     C35174   1.067   6.638   3.329  0.0705 -0.0586 -0.3925
  267MOL0     C35175   1.113   6.502   3.358 -0.6008  1.1367  0.0289
  267MOL0     C35176   1.147   6.388   3.389 -0.3133  0.6675  0.1266
  267MOL0     C35177   1.184   7.043   3.831 -0.1750 -2.0238 -0.6936
  267MOL0     C35178   1.115   7.131   3.916  0.2313  0.2950  0.4258
  267MOL0     H35179   0.920   7.306   4.349  1.2155 -1.2203 -0.3601
  267MOL0     H35180   0.808   7.401   4.522  0.9577  0.1666 -0.7389
  267MOL0     H35181   0.637   7.598   4.559  0.1181  1.5629  1.3019
  267MOL0     H35182   0.657   7.502   4.698  2.1759  1.8728 -1.2094
  267MOL0     H35183   0.383   7.540   4.729  1.4289 -0.3096  0.5935
  267MOL0     H35184   0.415   7.656   4.594  1.3698 -0.6117 -1.3142
  267MOL0     H35185   0.523   7.654   4.886  0.8027  0.0571 -0.3715
  267MOL0     H35186   0.399   7.763   4.833  2.1410  2.1982  2.0775
  267MOL0     H35187   0.589   7.914   4.812 -1.1190 -1.0699  1.2251
  267MOL0     H35188   0.686   7.789   4.741  0.0502  0.3758  2.5566
  267MOL0     H35189   0.431   7.928   4.635  0.3523  1.9202  0.7860
  267MOL0     H35190   0.534   7.812   4.536 -0.7748 -0.2373  0.6188
  267MOL0     H35191   0.624   8.080   4.682  3.1027  1.4464 -0.8128
  267MOL0     H35192   0.590   8.069   4.512 -1.7932 -1.0317  1.0298
  267MOL0     H35193   0.821   7.939   4.656 -1.6027  0.7162  0.9423
  267MOL0     H35194   0.768   7.893   4.496  0.5231  0.2188  0.0054
  267MOL0     H35195   0.967   8.055   4.501  1.9696  1.3286  1.7512
  267MOL0     H35196   0.866   8.162   4.600 -3.0370 -2.6008  3.3385
  267MOL0     H35197   0.787   7.977   4.266  0.3767  0.1254 -1.6847
  267MOL0     H35198   0.636   8.221   4.013 -2.5102 -3.3627 -1.8888
  267MOL0     H35199   0.698   8.050   4.027 -0.7863  0.3817  2.9169
  267MOL0     H35200   0.857   8.284   3.944  0.9201 -1.1285  0.9556
  267MOL0     H35201   0.795   8.180   3.823  0.5817  3.8102 -0.8263
  267MOL0     H35202   0.981   8.124   4.055 -0.0432  0.0062 -0.5019
  267MOL0     H35203   0.920   7.996   3.928 -3.9830  0.3803  1.3885
  267MOL0     H35204   1.086   8.238   3.841 -2.3179 -0.1057 -1.3154
  267MOL0     H35205   1.056   8.092   3.761 -2.1474 -0.0907  0.8724
  267MOL0     H35206   1.251   8.167   3.691  0.5645  1.1534 -0.0443
  267MOL0     H35207   1.459   8.100   3.553  1.6249 -1.3862 -0.7245
  267MOL0     H35208   1.706   7.805   3.263  0.1753  0.0722 -0.6977
  267MOL0     H35209   1.908   7.792   3.150  0.8077  0.3412 -0.2391
  267MOL0     H35210   2.098   7.832   3.067 -0.0590 -2.5600 -2.1968
  267MOL0     H35211   2.118   7.695   3.183 -1.1405  0.4913 -0.2685
  267MOL0     H35212   2.365   7.728   3.171 -0.7238  3.9060  2.8206
  267MOL0     H35213   2.350   7.864   3.072  0.9515 -0.9942 -0.1096
  267MOL0     H35214   2.219   7.736   2.899 -0.0115  1.8343  0.5435
  267MOL0     H35215   2.258   7.586   2.984  0.3840 -0.3123 -1.1496
  267MOL0     H35216   2.450   7.820   2.868  1.3004  0.4766  1.1652
  267MOL0     H35217   2.517   7.690   2.963  0.3692 -0.1378 -1.1095
  267MOL0     H35218   2.387   7.682   2.687  2.6128  0.6088 -1.6317
  267MOL0     H35219   2.417   7.529   2.767  2.0769  0.0287  1.9518
  267MOL0     H35220   2.668   7.604   2.782  3.4177  0.0156 -2.7200
  267MOL0     H35221   2.604   7.750   2.707 -0.4312  0.4733  2.2307
  267MOL0     H35222   2.589   7.468   2.585 -0.4346  0.2961 -1.6574
  267MOL0     H35223   2.555   7.613   2.489 -0.0856  1.2912  0.5903
  267MOL0     H35224   2.785   7.687   2.565 -0.8725 -0.0150 -0.0116
  267MOL0     H35225   2.765   7.581   2.421 -5.7799 -0.8426  0.3223
  267MOL0     H35226   2.087   8.013   3.492 -1.1100  0.7275  0.8010
  267MOL0     H35227   1.882   8.055   3.575  1.3073  1.4802  0.1219
  267MOL0     H35228   1.553   7.802   3.859  1.2592 -1.1860 -2.6729
  267MOL0     H35229   1.359   7.889   3.983  0.3687  2.2752  1.5337
  267MOL0     H35230   0.435   7.274   4.368 -0.5307  2.0678 -0.6947
  267MOL0     H35231   0.571   7.135   4.193 -0.5288  0.5209 -0.1554
  267MOL0     H35232   0.834   6.949   3.972 -1.0020 -0.8258 -1.7568
  267MOL0     H35233   0.955   6.788   3.837 -2.3077  1.6359 -1.8026
  267MOL0     H35234   1.107   6.897   3.566  2.1309  0.7040  0.0222
  267MOL0     H35235   1.051   6.733   3.618  0.3500 -0.5432 -2.2746
  267MOL0     H35236   1.331   6.800   3.522 -0.5007  0.3047  0.6149
  267MOL0     H35237   1.263   6.638   3.548 -1.1161  1.3450  4.5134
  267MOL0     H35238   1.271   6.714   3.296  0.1382  2.1413  0.6930
  267MOL0     H35239   1.150   6.833   3.342 -1.4059  0.9006  2.8176
  267MOL0     H35240   0.987   6.674   3.394  0.3010 -0.3069  0.0365
  267MOL0     H35241   1.040   6.650   3.224  0.9200 -0.0570 -0.6205
  267MOL0     H35242   1.170   6.285   3.405 -1.5047 -0.3245 -3.4759
  267MOL0     H35243   1.282   7.066   3.790 -0.5660 -2.2690 -1.8031
  267MOL0     H35244   1.147   7.234   3.927  0.1740  0.3446  0.1238
  268MOL0     O35245   7.715   6.767   7.829  0.4409 -0.2320 -0.0727
  268MOL0     C35246   7.782   6.768   7.729  0.0816  0.0676 -0.3389
  268MOL0     O35247   7.742   6.824   7.608 -0.8436 -0.3773 -0.6765
  268MOL0     C35248   7.637   6.911   7.592  0.4535 -0.7748  0.5950
  268MOL0     C35249   7.577   6.987   7.694  0.6578  0.3242  0.3784
  268MOL0     C35250   7.470   7.079   7.671  0.2288 -0.5269 -0.4361
  268MOL0     C35251   7.414   7.086   7.543 -0.4017  0.0436 -0.0719
  268MOL0     O35252   7.316   7.167   7.504 -0.8060  0.0656  0.1535
  268MOL0     C35253   7.221   7.210   7.605 -0.2500  0.3269 -0.8024
  268MOL0     C35254   7.112   7.305   7.546  0.4877 -0.3820  0.8203
  268MOL0     C35255   7.056   7.394   7.664  0.8219  0.9957 -0.3484
  268MOL0     C35256   6.988   7.305   7.774  0.8730 -0.5580  0.0554
  268MOL0     C35257   6.922   7.387   7.877 -0.3237 -0.2613 -0.3945
  268MOL0     C35258   7.013   7.471   7.971 -1.3243 -0.1702 -0.0067
  268MOL0     C35259   7.115   7.394   8.056 -0.2685  0.0017 -0.5960
  268MOL0     C35260   7.152   7.483   8.178 -0.2595 -0.5282  0.4087
  268MOL0     N35261   7.047   7.464   8.285  0.1858 -0.8852  0.5288
  268MOL0     C35262   6.947   7.546   8.335 -0.0080 -0.3959  0.8552
  268MOL0     C35263   6.896   7.473   8.444  0.1407 -0.6191 -0.1070
  268MOL0     C35264   6.783   7.514   8.530 -0.4554  0.4173 -1.0575
  268MOL0     C35265   6.805   7.497   8.680  0.3141  0.2393 -0.0985
  268MOL0     C35266   6.678   7.503   8.769 -0.4140  0.3235 -0.1756
  268MOL0     C35267   6.576   7.606   8.727 -0.0784  0.4047  0.0547
  268MOL0     O35268   6.643   7.732   8.758  0.1316 -0.7552  0.1310
  268MOL0     C35269   6.556   7.843   8.776 -0.3832  1.1399 -0.2571
  268MOL0     C35270   6.419   7.840   8.747  0.3690 -0.2412  0.2192
  268MOL0     C35271   6.346   7.960   8.753  0.2715  0.3093 -1.4981
  268MOL0     C35272   6.404   8.081   8.789 -0.5923 -0.5276 -0.0953
  268MOL0     C35273   6.330   8.211   8.814  0.8398 -0.1146  0.0814
  268MOL0     O35274   6.195   8.213   8.776 -0.0638 -0.2842 -0.5809
  268MOL0     C35275   6.115   8.326   8.803  0.2588  0.3110  0.7284
  268MOL0     C35276   6.038   8.387   8.701  0.7309  0.1732  0.2394
  268MOL0     C35277   5.939   8.486   8.714  0.4911 -0.1167 -0.5754
  268MOL0     C35278   5.912   8.538   8.840 -0.0519  0.6912  0.7028
  268MOL0     O35279   5.837   8.646   8.862 -0.2457  0.5185  0.2238
  268MOL0     C35280   5.761   8.684   8.745 -0.1552  0.6198  0.1736
  268MOL0     C35281   5.663   8.799   8.764 -0.0305 -0.2137  0.3548
  268MOL0     C35282   5.540   8.751   8.834 -0.4003  0.3245  0.0313
  268MOL0     C35283   5.429   8.851   8.841 -0.5852  0.7326 -0.6488
  268MOL0     C35284   5.301   8.781   8.873  0.0589  0.2298 -0.3509
  268MOL0     C35285   5.185   8.882   8.876  0.2011  0.2317  0.0910
  268MOL0     C35286   5.114   8.870   9.018 -0.9626  0.0474 -1.0227
  268MOL0     C35287   4.982   8.955   9.014 -1.0505 -0.0759  1.4652
  268MOL0    Cl35288   4.947   8.957   9.186 -0.5099 -0.1493  0.3106
  268MOL0     C35289   5.976   8.464   8.951  0.6814 -0.3686  0.3784
  268MOL0     C35290   6.076   8.366   8.930 -0.3957  0.1802  0.2603
  268MOL0     O35291   6.384   8.311   8.864  0.1312 -1.0029  0.2734
  268MOL0     C35292   6.539   8.079   8.821  0.5491  0.2787 -0.0533
  268MOL0     C35293   6.617   7.963   8.816  0.2880  0.6150  0.7895
  268MOL0     N35294   6.972   7.362   8.460 -0.1075  0.5735  0.0721
  268MOL0     N35295   7.066   7.353   8.363  0.0976 -0.0251 -0.0417
  268MOL0     C35296   7.469   7.003   7.447  0.0776  0.0788 -0.5436
  268MOL0     C35297   7.582   6.917   7.466  0.0372 -0.4979  0.2977
  268MOL0     C35298   7.922   6.708   7.728 -0.2306 -1.0461 -1.2200
  268MOL0     C35299   7.962   6.653   7.852 -0.2288 -0.6185  0.5094
  268MOL0     C35300   8.082   6.574   7.856 -0.5267 -0.8348  0.2043
  268MOL0     C35301   8.161   6.563   7.739  0.4693  0.8324 -0.3366
  268MOL0     O35302   8.281   6.503   7.735 -0.4904 -0.5938 -0.3891
  268MOL0     C35303   8.340   6.430   7.855  0.1019  0.2233  0.7681
  268MOL0     C35304   8.486   6.394   7.843 -0.5962  0.1995  0.0217
  268MOL0     C35305   8.545   6.371   7.979  0.6916 -0.8946  0.0404
  268MOL0     C35306   8.694   6.351   7.972 -0.8726 -0.8099 -0.3012
  268MOL0     C35307   8.748   6.305   8.094 -1.1331  0.8114  0.6594
  268MOL0     C35308   8.807   6.269   8.189  0.5617  0.2933 -0.6223
  268MOL0     C35309   8.120   6.628   7.620 -0.0356  0.6306 -0.1544
  268MOL0     C35310   8.000   6.693   7.612 -0.3425 -0.4292  0.6028
  268MOL0     H35311   7.616   6.979   7.795  1.9277  0.3283 -0.0960
  268MOL0     H35312   7.449   7.142   7.757  1.9903  0.5472 -0.7340
  268MOL0     H35313   7.264   7.255   7.695 -3.9031  1.4936  0.5562
  268MOL0     H35314   7.161   7.124   7.638  0.4014  0.3071  0.3986
  268MOL0     H35315   7.033   7.261   7.486  1.7072  1.1165 -2.0717
  268MOL0     H35316   7.164   7.374   7.479 -2.6623 -0.6321 -2.1198
  268MOL0     H35317   6.978   7.456   7.618 -1.4949 -0.9200  0.8258
  268MOL0     H35318   7.133   7.459   7.706 -0.9358  1.5477  2.3150
  268MOL0     H35319   6.904   7.247   7.735 -0.4002 -0.9035  3.0523
  268MOL0     H35320   7.055   7.229   7.816 -0.1028 -4.8150 -5.0092
  268MOL0     H35321   6.860   7.319   7.935 -0.6750  0.4968  0.1365
  268MOL0     H35322   6.855   7.453   7.822  2.4802 -0.4465 -4.4403
  268MOL0     H35323   6.939   7.518   8.038 -1.1022 -1.7077  1.3803
  268MOL0     H35324   7.063   7.554   7.920  2.2222  0.0698  3.4160
  268MOL0     H35325   7.076   7.296   8.083 -3.4807  1.4923  0.6143
  268MOL0     H35326   7.208   7.382   7.999  1.2616  3.0036  1.0307
  268MOL0     H35327   7.174   7.586   8.150  1.2863 -0.8923  0.1661
  268MOL0     H35328   7.241   7.435   8.220 -0.2831  0.0121  1.0820
  268MOL0     H35329   6.917   7.644   8.301 -1.9878 -2.2951 -3.5522
  268MOL0     H35330   6.694   7.454   8.508  0.3592 -1.5523  0.6567
  268MOL0     H35331   6.770   7.620   8.507  1.3702  0.8743 -0.1835
  268MOL0     H35332   6.864   7.581   8.717 -0.3673  0.0210  1.5808
  268MOL0     H35333   6.860   7.406   8.704 -0.9403 -0.0931  1.7597
  268MOL0     H35334   6.629   7.406   8.778  0.9628 -0.2666  1.3789
  268MOL0     H35335   6.721   7.528   8.867 -0.4109  1.0588 -0.3571
  268MOL0     H35336   6.494   7.596   8.799  1.1847  0.9807  1.6580
  268MOL0     H35337   6.548   7.597   8.622  0.1286  2.7533 -0.2511
  268MOL0     H35338   6.373   7.744   8.726  0.5718 -0.7724  2.0007
  268MOL0     H35339   6.239   7.963   8.735 -0.1494  1.9357  0.7647
  268MOL0     H35340   6.074   8.364   8.601 -0.3026 -0.5005  0.0031
  268MOL0     H35341   5.892   8.519   8.622  0.9772  1.1077 -0.4019
  268MOL0     H35342   5.701   8.606   8.696 -1.1520  2.2109 -1.2458
  268MOL0     H35343   5.840   8.724   8.681  0.6270  0.2453  0.8730
  268MOL0     H35344   5.645   8.846   8.667  1.4350 -1.5329 -0.6163
  268MOL0     H35345   5.684   8.884   8.830 -0.1031  1.8670 -2.1047
  268MOL0     H35346   5.565   8.718   8.936 -1.0812 -1.6040 -0.3864
  268MOL0     H35347   5.512   8.668   8.769  2.6790 -1.1182  0.3645
  268MOL0     H35348   5.458   8.914   8.926  2.6498 -3.0040  1.3715
  268MOL0     H35349   5.416   8.912   8.752 -0.1901  2.1232  0.2182
  268MOL0     H35350   5.299   8.732   8.971 -1.7435  0.8049 -0.0524
  268MOL0     H35351   5.270   8.711   8.795  1.5294 -0.8431 -0.0089
  268MOL0     H35352   5.112   8.876   8.795  0.3096  1.4149 -0.1078
  268MOL0     H35353   5.228   8.982   8.865  1.5588 -0.5260 -2.3693
  268MOL0     H35354   5.090   8.767   9.047 -0.1079  0.4069  1.2285
  268MOL0     H35355   5.179   8.925   9.087 -0.1375 -1.0335 -0.8941
  268MOL0     H35356   4.899   8.910   8.958 -1.1108  1.3007  0.3923
  268MOL0     H35357   4.990   9.054   8.969 -5.3666 -0.1991 -0.0587
  268MOL0     H35358   5.953   8.503   9.050 -0.9667 -0.4309  0.0428
  268MOL0     H35359   6.112   8.305   9.013 -1.3906 -2.0750 -0.8717
  268MOL0     H35360   6.596   8.164   8.858 -1.3395  1.0830  1.1366
  268MOL0     H35361   6.723   7.964   8.840  0.0016 -0.4951  2.2016
  268MOL0     H35362   7.441   7.017   7.343  0.1091  0.1620 -0.5408
  268MOL0     H35363   7.630   6.869   7.382 -1.0285  2.2653 -2.0720
  268MOL0     H35364   7.904   6.669   7.942  0.6017 -1.2740  1.1768
  268MOL0     H35365   8.105   6.526   7.951 -0.1262  2.6713  2.0468
  268MOL0     H35366   8.282   6.339   7.875  0.5063 -0.4127 -0.7658
  268MOL0     H35367   8.330   6.486   7.948  0.1603  2.0976 -0.3093
  268MOL0     H35368   8.504   6.320   7.764 -1.6359  1.6738 -1.6966
  268MOL0     H35369   8.547   6.475   7.801 -0.6262  0.1847 -0.0512
  268MOL0     H35370   8.494   6.283   8.019 -2.6079  0.7368 -0.2070
  268MOL0     H35371   8.516   6.452   8.046 -5.4725 -1.0448 -1.8222
  268MOL0     H35372   8.723   6.279   7.895  2.5561 -0.5435  0.5845
  268MOL0     H35373   8.752   6.441   7.950 -1.4384 -0.6396 -1.1903
  268MOL0     H35374   8.858   6.247   8.280  1.3042  0.8275 -0.9029
  268MOL0     H35375   8.187   6.611   7.537 -2.3863  3.6852 -2.9496
  268MOL0     H35376   7.963   6.731   7.517 -0.5682 -0.4507  0.6802
  269MOL0     O35377   0.040  11.009   7.216  0.0787 -0.0177  0.2062
  269MOL0     C35378   0.058  10.947   7.319 -0.9235 -0.1366  0.0207
  269MOL0     O35379  -0.036  10.891   7.398 -0.0298 -0.6709 -0.5719
  269MOL0     C35380  -0.168  10.902   7.362  0.0596 -0.7072  0.2518
  269MOL0     C35381  -0.254  10.940   7.469 -0.4882  0.4250  0.7970
  269MOL0     C35382  -0.392  10.955   7.445  0.0472  0.3229 -0.2300
  269MOL0     C35383  -0.446  10.944   7.324  0.3302  0.2712 -0.3684
  269MOL0     O35384  -0.580  10.955   7.296  0.2545 -0.4367 -0.1433
  269MOL0     C35385  -0.662  10.847   7.344  0.4923 -0.3267  0.6882
  269MOL0     C35386  -0.799  10.815   7.272 -0.1870  0.7451  0.1141
  269MOL0     C35387  -0.919  10.895   7.326  0.0106 -0.2834 -0.0222
  269MOL0     C35388  -1.044  10.807   7.283 -0.1839 -0.5779  0.6195
  269MOL0     C35389  -1.157  10.874   7.359  0.2909  0.5996 -0.3545
  269MOL0     C35390  -1.291  10.801   7.325 -0.6313 -0.1899  0.4520
  269MOL0     C35391  -1.420  10.872   7.367 -0.1054  0.2460 -0.4071
  269MOL0     C35392  -1.547  10.812   7.326 -0.2182  0.0677 -1.1359
  269MOL0     N35393  -1.672  10.881   7.367 -1.3437 -0.6842  0.0213
  269MOL0     C35394  -1.696  10.915   7.501  0.1505 -0.2431  1.2270
  269MOL0     C35395  -1.826  10.959   7.498 -0.3209  0.2290 -0.6475
  269MOL0     C35396  -1.899  11.020   7.619 -0.2895  0.1853 -0.1474
  269MOL0     C35397  -1.964  10.909   7.698  0.6467 -0.2782 -0.5915
  269MOL0     C35398  -2.053  10.958   7.816 -0.1421 -0.0820 -0.6704
  269MOL0     C35399  -2.100  10.841   7.909 -0.7226  0.4798 -0.2496
  269MOL0     O35400  -2.177  10.760   7.820 -0.0926  0.7410 -0.0778
  269MOL0     C35401  -2.312  10.784   7.813 -0.8727 -0.3802  1.2796
  269MOL0     C35402  -2.393  10.685   7.754 -0.7991  0.0661 -0.8007
  269MOL0     C35403  -2.530  10.695   7.748  0.2803  0.4012 -0.7494
  269MOL0     C35404  -2.598  10.799   7.805 -1.3319  0.0638  0.1890
  269MOL0     C35405  -2.746  10.802   7.805  0.2328 -0.2796  0.7361
  269MOL0     O35406  -2.815  10.737   7.699 -0.7607  0.2993  0.3470
  269MOL0     C35407  -2.950  10.738   7.703  0.2019 -1.0964  0.2826
  269MOL0     C35408  -3.024  10.637   7.751 -0.5242  0.2657  0.2457
  269MOL0     C35409  -3.158  10.642   7.780 -0.6482  0.0962 -0.6282
  269MOL0     C35410  -3.223  10.764   7.757 -0.0586  0.9903  0.5281
  269MOL0     O35411  -3.358  10.783   7.790 -0.2275  0.0821  0.8792
  269MOL0     C35412  -3.374  10.791   7.927 -0.2733  0.0567  0.1119
  269MOL0     C35413  -3.293  10.905   7.992 -0.6535 -0.4554 -0.0104
  269MOL0     C35414  -3.360  11.037   7.959 -0.1155 -0.5022  0.0135
  269MOL0     C35415  -3.302  11.158   8.036 -0.6894  0.1508 -0.1702
  269MOL0     C35416  -3.161  11.183   7.984 -0.0202  0.2926  0.1987
  269MOL0     C35417  -3.133  11.215   7.843  0.6514  0.0395  0.7080
  269MOL0     C35418  -2.990  11.273   7.831 -1.0007 -1.0196 -0.3046
  269MOL0     C35419  -2.928  11.271   7.684  0.5107  0.2653 -0.2895
  269MOL0    Cl35420  -3.031  11.362   7.569  0.2633  0.1288  0.3265
  269MOL0     C35421  -3.156  10.867   7.703 -0.4119 -0.4184 -0.5233
  269MOL0     C35422  -3.021  10.851   7.674  0.6435 -1.8099 -0.1332
  269MOL0     O35423  -2.793  10.872   7.892  0.6227  0.3153 -0.6320
  269MOL0     C35424  -2.521  10.910   7.852 -0.1106 -0.2749 -0.4498
  269MOL0     C35425  -2.380  10.902   7.854 -0.1611  0.0222 -0.7830
  269MOL0     N35426  -1.875  10.946   7.373  0.0142 -0.1061  0.8450
  269MOL0     N35427  -1.786  10.898   7.297 -0.7882  0.2715  0.4378
  269MOL0     C35428  -0.367  10.911   7.215  0.6769 -0.3595 -1.0451
  269MOL0     C35429  -0.229  10.892   7.238 -0.1331 -0.8176  0.2624
  269MOL0     C35430   0.203  10.945   7.365 -0.7710 -0.9686  0.8944
  269MOL0     C35431   0.237  10.852   7.464  0.1520  0.2458  0.4925
  269MOL0     C35432   0.370  10.832   7.505  0.0003 -0.9801  0.5048
  269MOL0     C35433   0.466  10.916   7.456 -0.5350 -0.2835 -0.1397
  269MOL0     O35434   0.596  10.894   7.494  0.0072 -0.4418  0.2668
  269MOL0     C35435   0.708  10.973   7.448 -0.5296  0.4863 -0.6763
  269MOL0     C35436   0.739  11.096   7.546  0.4636  1.6162  0.1333
  269MOL0     C35437   0.883  11.150   7.503  0.6044 -0.0454  0.3516
  269MOL0     C35438   0.902  11.271   7.592 -0.3896 -0.0473 -0.5843
  269MOL0     C35439   1.039  11.301   7.591 -0.0888 -0.6959  0.0353
  269MOL0     C35440   1.153  11.339   7.613 -0.3132  0.2061 -0.3694
  269MOL0     C35441   0.426  11.025   7.373 -0.2825  0.0149 -1.0307
  269MOL0     C35442   0.304  11.042   7.320  0.0605 -0.7364  0.7545
  269MOL0     H35443  -0.228  10.929   7.574 -0.1568 -2.1750  0.5099
  269MOL0     H35444  -0.461  10.969   7.527 -1.4384 -4.2565 -0.4175
  269MOL0     H35445  -0.694  10.853   7.449 -4.1312 -0.1144 -0.5231
  269MOL0     H35446  -0.605  10.754   7.344  0.9055 -0.0756  0.5905
  269MOL0     H35447  -0.823  10.710   7.291 -0.2930  0.8374  0.4903
  269MOL0     H35448  -0.801  10.830   7.163 -1.3700  1.2890  0.2077
  269MOL0     H35449  -0.920  10.998   7.287 -1.0938  1.4661  4.0759
  269MOL0     H35450  -0.903  10.900   7.434  2.4590 -2.1478 -0.2138
  269MOL0     H35451  -1.054  10.814   7.174  2.8515  0.0092  0.2643
  269MOL0     H35452  -1.023  10.704   7.316  4.7168  0.7777  2.6941
  269MOL0     H35453  -1.155  10.978   7.325 -3.3684  0.3616 -1.6787
  269MOL0     H35454  -1.131  10.879   7.466 -0.3859  1.8214 -0.2308
  269MOL0     H35455  -1.295  10.700   7.367 -2.1058 -0.7050 -0.8259
  269MOL0     H35456  -1.288  10.800   7.216 -2.5546 -2.0814  0.3597
  269MOL0     H35457  -1.422  10.897   7.473  1.0528  1.7994 -0.7072
  269MOL0     H35458  -1.414  10.970   7.318 -1.0394 -0.2555 -1.5683
  269MOL0     H35459  -1.554  10.714   7.373  1.3950  0.7996  0.8399
  269MOL0     H35460  -1.542  10.796   7.218  0.6626 -2.1047 -0.8377
  269MOL0     H35461  -1.635  10.923   7.590  2.0115 -1.1202  0.0727
  269MOL0     H35462  -1.977  11.088   7.582 -0.2406 -0.1657 -0.9091
  269MOL0     H35463  -1.834  11.082   7.681 -1.4180  0.1611  1.1229
  269MOL0     H35464  -1.895  10.837   7.742  0.9551  0.3854  0.0356
  269MOL0     H35465  -2.031  10.864   7.624 -0.3169  0.4140 -0.1593
  269MOL0     H35466  -1.992  11.017   7.885 -2.1769  1.8433 -0.4016
  269MOL0     H35467  -2.135  11.016   7.773  1.9619  3.0507 -0.8298
  269MOL0     H35468  -2.169  10.873   7.988 -0.4667 -0.6368  0.4353
  269MOL0     H35469  -2.006  10.800   7.949 -0.1107 -0.1595 -2.2305
  269MOL0     H35470  -2.356  10.595   7.705 -0.5326 -0.8585  1.0055
  269MOL0     H35471  -2.594  10.621   7.700  1.9287 -1.7749  0.2267
  269MOL0     H35472  -2.964  10.551   7.780  0.6452  1.4490  1.4661
  269MOL0     H35473  -3.203  10.558   7.832 -0.4834 -0.8982 -2.0482
  269MOL0     H35474  -3.341  10.697   7.972 -1.9420 -1.5824 -1.8917
  269MOL0     H35475  -3.478  10.802   7.956 -0.2020  2.3195 -0.3126
  269MOL0     H35476  -3.187  10.903   7.963 -0.7150 -3.4728 -0.3174
  269MOL0     H35477  -3.305  10.904   8.101  1.6901 -2.9399  0.3241
  269MOL0     H35478  -3.468  11.036   7.976 -0.2364 -0.1991 -0.6830
  269MOL0     H35479  -3.367  11.056   7.851  1.9350  4.3554  0.4603
  269MOL0     H35480  -3.370  11.242   8.017  1.6741  2.4215  0.8734
  269MOL0     H35481  -3.305  11.148   8.145 -0.5669  3.5537  0.2511
  269MOL0     H35482  -3.107  11.093   8.016 -1.7633 -0.6445  0.6233
  269MOL0     H35483  -3.138  11.274   8.040  2.0373  1.6374 -2.5847
  269MOL0     H35484  -3.209  11.290   7.821  0.2751 -0.8802 -1.2996
  269MOL0     H35485  -3.146  11.133   7.771 -1.8365 -0.9676  2.1976
  269MOL0     H35486  -2.992  11.380   7.857  4.4781 -0.3473 -1.2218
  269MOL0     H35487  -2.913  11.223   7.890 -0.0081 -0.3322 -0.9796
  269MOL0     H35488  -2.924  11.167   7.649 -0.3049  0.0430  0.2284
  269MOL0     H35489  -2.831  11.321   7.681 -0.6560  2.6895 -0.1242
  269MOL0     H35490  -3.209  10.954   7.665  0.5978 -0.5397 -2.3327
  269MOL0     H35491  -2.968  10.938   7.636 -2.6137  0.3260 -0.1505
  269MOL0     H35492  -2.566  10.994   7.904 -0.3286 -0.3208 -0.5635
  269MOL0     H35493  -2.327  10.989   7.891  0.4018 -0.5103 -0.3220
  269MOL0     H35494  -0.404  10.901   7.113  0.5735 -2.3499 -0.8666
  269MOL0     H35495  -0.181  10.872   7.142  1.1703  0.8291  0.5179
  269MOL0     H35496   0.166  10.787   7.514  1.5136 -0.0893  2.0908
  269MOL0     H35497   0.402  10.767   7.586  0.9405  2.2993  2.9713
  269MOL0     H35498   0.687  11.001   7.345 -2.6846 -0.3619 -0.5171
  269MOL0     H35499   0.799  10.913   7.457 -0.3759  0.8018 -0.0103
  269MOL0     H35500   0.655  11.165   7.535 -2.9586 -2.2227  0.0760
  269MOL0     H35501   0.746  11.064   7.650 -0.2603  1.0134  0.0011
  269MOL0     H35502   0.896  11.176   7.398  0.8705 -0.0540  0.3811
  269MOL0     H35503   0.963  11.078   7.523  0.6379  0.3511  1.8095
  269MOL0     H35504   0.845  11.354   7.549  1.0990  0.9760 -0.6298
  269MOL0     H35505   0.868  11.259   7.695 -3.8642  2.0875 -1.3367
  269MOL0     H35506   1.252  11.376   7.632 -0.2649  0.1551 -0.5203
  269MOL0     H35507   0.503  11.097   7.346  1.3166 -0.6549  1.3563
  269MOL0     H35508   0.284  11.119   7.246 -1.0526 -0.1287  1.6448
  270MOL0     O35509   1.638   3.036   4.188  0.0823  0.5373  0.6217
  270MOL0     C35510   1.705   3.128   4.229 -0.0039  0.3826 -2.0322
  270MOL0     O35511   1.664   3.248   4.282 -0.0816  0.7902 -0.5107
  270MOL0     C35512   1.526   3.266   4.277  0.4169 -0.1695 -0.6795
  270MOL0     C35513   1.480   3.352   4.375  0.3264  0.5572  0.0623
  270MOL0     C35514   1.347   3.392   4.372  0.7644 -0.5029  0.0573
  270MOL0     C35515   1.264   3.363   4.264 -1.0040  0.4619 -0.6980
  270MOL0     O35516   1.136   3.407   4.272  0.1601  0.5227  0.6395
  270MOL0     C35517   1.041   3.308   4.239 -0.2956  0.4767 -0.9054
  270MOL0     C35518   0.967   3.253   4.367 -0.7960  0.7217  0.3058
  270MOL0     C35519   0.834   3.325   4.381  0.5938  0.0840 -0.7032
  270MOL0     C35520   0.773   3.277   4.509  0.5121  0.4013 -0.2123
  270MOL0     C35521   0.630   3.348   4.518 -0.8713 -0.3748  0.1475
  270MOL0     C35522   0.564   3.326   4.651  0.3503  1.1284  0.6627
  270MOL0     C35523   0.632   3.386   4.777 -0.4585 -0.5481  0.2800
  270MOL0     C35524   0.564   3.359   4.909  0.6185 -0.4307  0.3991
  270MOL0     N35525   0.420   3.407   4.931 -0.3976  0.8356 -0.1842
  270MOL0     C35526   0.347   3.495   4.853 -0.7807  0.9848  0.1338
  270MOL0     C35527   0.238   3.524   4.919  0.0914  0.0020 -0.0887
  270MOL0     C35528   0.128   3.628   4.894 -0.5516  0.3724  0.6525
  270MOL0     C35529   0.132   3.769   4.953 -0.8567  0.3053  0.3407
  270MOL0     C35530   0.035   3.866   4.889 -0.7419  0.4618 -0.2339
  270MOL0     C35531  -0.103   3.852   4.952  0.5355  0.3810  0.4951
  270MOL0     O35532  -0.182   3.957   4.889  0.1759  0.0214 -1.5619
  270MOL0     C35533  -0.301   4.001   4.939  0.6630  0.8511 -0.4794
  270MOL0     C35534  -0.351   3.962   5.070 -0.0675 -0.5402 -0.3451
  270MOL0     C35535  -0.479   4.004   5.116  0.3423 -0.4295 -0.2784
  270MOL0     C35536  -0.564   4.079   5.033  0.9602  0.9527 -0.0328
  270MOL0     C35537  -0.701   4.099   5.068  0.6226 -0.4753 -0.4910
  270MOL0     O35538  -0.770   4.174   4.978  0.6149  0.8420  0.3697
  270MOL0     C35539  -0.896   4.204   5.013  1.0989  0.6126  0.2631
  270MOL0     C35540  -0.924   4.338   5.049  0.8950 -0.6876  0.5932
  270MOL0     C35541  -1.054   4.375   5.101 -0.5916 -0.0636  0.0518
  270MOL0     C35542  -1.160   4.272   5.108 -0.1685 -0.5267 -0.7609
  270MOL0     O35543  -1.290   4.290   5.147  0.0284  0.3835  0.6515
  270MOL0     C35544  -1.347   4.411   5.090  0.6608 -0.6285  0.3936
  270MOL0     C35545  -1.496   4.433   5.114  0.3652  0.2333  0.3986
  270MOL0     C35546  -1.535   4.445   5.257 -0.6691  0.3894 -0.3646
  270MOL0     C35547  -1.688   4.443   5.276  0.4149 -0.1505 -0.4306
  270MOL0     C35548  -1.719   4.443   5.425 -0.2175  0.1544  0.7412
  270MOL0     C35549  -1.863   4.471   5.450  0.1754 -0.3956 -0.3053
  270MOL0     C35550  -1.952   4.373   5.371  0.1847  0.4294 -0.5623
  270MOL0     C35551  -2.101   4.381   5.418 -0.5999  0.2276 -0.5920
  270MOL0    Cl35552  -2.187   4.532   5.345  0.2086  0.4879  0.0607
  270MOL0     C35553  -1.133   4.142   5.068 -0.5387  1.1518  0.3321
  270MOL0     C35554  -1.008   4.105   5.023 -0.1143 -0.2166 -0.0597
  270MOL0     O35555  -0.743   4.042   5.167  0.4712  0.2335 -0.2291
  270MOL0     C35556  -0.509   4.123   4.914 -0.3067  0.8407  0.6055
  270MOL0     C35557  -0.377   4.081   4.866 -0.2160 -0.3259 -0.0834
  270MOL0     N35558   0.245   3.444   5.028  0.4460 -0.8254 -0.6361
  270MOL0     N35559   0.350   3.382   5.041  0.7775  0.2162  0.2700
  270MOL0     C35560   1.314   3.295   4.156 -0.2781  0.4380  0.3133
  270MOL0     C35561   1.448   3.248   4.160 -0.4545 -0.1205  0.3760
  270MOL0     C35562   1.851   3.116   4.209 -0.4113  0.0531  0.0077
  270MOL0     C35563   1.937   3.226   4.221 -0.2904  0.7192 -0.2692
  270MOL0     C35564   2.075   3.218   4.179 -0.5169 -0.3239 -0.9647
  270MOL0     C35565   2.121   3.106   4.120 -0.6321  0.7298 -1.3827
  270MOL0     O35566   2.255   3.110   4.098 -0.1557 -0.6488 -0.0435
  270MOL0     C35567   2.338   2.997   4.122  0.3387  0.1133  0.2608
  270MOL0     C35568   2.357   2.957   4.272 -0.4814 -0.1269  0.8449
  270MOL0     C35569   2.412   3.066   4.357 -0.6661  0.1086  0.6540
  270MOL0     C35570   2.409   3.034   4.502 -0.7499 -0.8917 -0.3980
  270MOL0     C35571   2.280   3.025   4.568  0.3413  0.2881  0.1254
  270MOL0     C35572   2.172   3.002   4.626 -0.3428 -0.5641 -1.6748
  270MOL0     C35573   2.037   2.990   4.124 -0.5181 -0.3166 -0.3593
  270MOL0     C35574   1.898   2.992   4.151 -0.2226  0.2118 -0.9368
  270MOL0     H35575   1.548   3.388   4.452 -2.1544  1.9407  1.7360
  270MOL0     H35576   1.321   3.472   4.439 -1.4784  0.5725 -1.9672
  270MOL0     H35577   1.080   3.221   4.185 -0.2099 -0.6219  0.8637
  270MOL0     H35578   0.955   3.340   4.179 -3.6264 -2.2931  1.9069
  270MOL0     H35579   1.037   3.272   4.449  0.9595  2.2679 -1.4470
  270MOL0     H35580   0.948   3.145   4.358  0.2793  0.3273  2.1749
  270MOL0     H35581   0.766   3.295   4.301 -1.7982  0.8221  0.9051
  270MOL0     H35582   0.857   3.431   4.365  5.2329 -0.7779 -1.1336
  270MOL0     H35583   0.742   3.172   4.503  0.4818  0.2304  1.9839
  270MOL0     H35584   0.838   3.301   4.594  1.1878  0.1494 -0.6514
  270MOL0     H35585   0.573   3.299   4.438  0.1119  1.9975 -2.1772
  270MOL0     H35586   0.641   3.456   4.500  0.5307 -0.5701 -0.2858
  270MOL0     H35587   0.545   3.218   4.660  0.0686  1.2779  2.0779
  270MOL0     H35588   0.460   3.357   4.645 -1.1349 -3.3726 -1.2095
  270MOL0     H35589   0.730   3.337   4.782 -1.0511 -1.8663 -0.4314
  270MOL0     H35590   0.647   3.494   4.764 -2.1804 -0.0793  1.8355
  270MOL0     H35591   0.624   3.386   4.997  1.4560 -2.6983  0.5926
  270MOL0     H35592   0.569   3.251   4.926  1.8760 -0.7315 -1.5512
  270MOL0     H35593   0.391   3.534   4.761 -1.6329 -0.0553 -0.7542
  270MOL0     H35594   0.027   3.600   4.929 -2.1912  1.5710 -2.7093
  270MOL0     H35595   0.130   3.628   4.785  1.6587 -0.2744  0.6572
  270MOL0     H35596   0.237   3.795   4.937 -0.8892  1.8904  2.2620
  270MOL0     H35597   0.121   3.782   5.061 -1.4896  2.2760  0.0757
  270MOL0     H35598   0.069   3.967   4.913 -2.4757  1.3477 -1.3213
  270MOL0     H35599   0.034   3.867   4.780  0.7554  0.6148 -0.2685
  270MOL0     H35600  -0.099   3.866   5.061 -4.6520  0.9307  0.8834
  270MOL0     H35601  -0.142   3.752   4.931  1.5747  0.0475  0.1172
  270MOL0     H35602  -0.287   3.908   5.139  3.0362  3.4024  0.2407
  270MOL0     H35603  -0.512   3.973   5.214  0.4778  0.2855  0.0002
  270MOL0     H35604  -0.841   4.407   5.039 -0.2248  0.3809 -2.6933
  270MOL0     H35605  -1.070   4.479   5.125 -0.0536 -0.3496  1.7922
  270MOL0     H35606  -1.328   4.415   4.982 -0.0603  1.8970  0.2886
  270MOL0     H35607  -1.303   4.498   5.140 -2.8350  0.6649  1.5104
  270MOL0     H35608  -1.558   4.362   5.057  1.9026 -0.8342  0.0086
  270MOL0     H35609  -1.524   4.531   5.074 -2.6877 -0.9860 -0.7386
  270MOL0     H35610  -1.501   4.540   5.300 -1.6428  2.1051 -3.1057
  270MOL0     H35611  -1.499   4.353   5.305  0.5754  1.3013  0.5126
  270MOL0     H35612  -1.716   4.537   5.227  3.7742 -0.1501 -2.6911
  270MOL0     H35613  -1.738   4.364   5.219 -1.8939 -0.3507  1.7035
  270MOL0     H35614  -1.657   4.518   5.474  0.6058 -0.5075  0.7516
  270MOL0     H35615  -1.686   4.350   5.472  1.8141  0.4935  0.0842
  270MOL0     H35616  -1.885   4.573   5.416  2.3777  0.6700  1.1893
  270MOL0     H35617  -1.883   4.460   5.557  1.5196  1.0828  0.1482
  270MOL0     H35618  -1.944   4.395   5.264 -2.5955 -2.4073 -1.5235
  270MOL0     H35619  -1.914   4.271   5.378 -0.9850 -0.0235 -0.5288
  270MOL0     H35620  -2.124   4.387   5.525  2.5450  0.8363  0.1571
  270MOL0     H35621  -2.150   4.291   5.381  2.2980 -1.3779 -0.7890
  270MOL0     H35622  -1.215   4.070   5.074 -3.4440  4.0823 -1.0915
  270MOL0     H35623  -0.989   4.001   5.001  4.4025  0.5466 -0.9501
  270MOL0     H35624  -0.566   4.181   4.842  0.5974 -0.2976 -1.1070
  270MOL0     H35625  -0.353   4.113   4.765  1.7956 -3.3826 -0.7042
  270MOL0     H35626   1.260   3.278   4.063  0.6092  2.5351 -0.6665
  270MOL0     H35627   1.501   3.207   4.074 -1.3494  1.2127 -0.8524
  270MOL0     H35628   1.909   3.322   4.265 -0.7461  0.6927 -0.4952
  270MOL0     H35629   2.139   3.306   4.188 -1.0083 -0.0561 -0.0654
  270MOL0     H35630   2.437   3.017   4.081  0.5722  0.6014  1.0298
  270MOL0     H35631   2.295   2.917   4.061 -3.0358 -0.4780  3.0811
  270MOL0     H35632   2.260   2.923   4.312  0.2052  0.7575  3.4968
  270MOL0     H35633   2.420   2.869   4.256  0.0795  0.7041 -2.1181
  270MOL0     H35634   2.354   3.157   4.340  1.3066  0.9247 -2.6470
  270MOL0     H35635   2.516   3.084   4.328 -0.0999 -2.2264  1.0183
  270MOL0     H35636   2.474   2.949   4.523  1.6030  1.3048  2.0253
  270MOL0     H35637   2.470   3.112   4.550  1.0961 -3.4066  1.5905
  270MOL0     H35638   2.084   2.973   4.680  0.4026 -3.1000 -1.7122
  270MOL0     H35639   2.076   2.894   4.091 -0.4851 -0.0831 -1.0217
  270MOL0     H35640   1.842   2.900   4.139  0.8248 -0.1555 -3.7399
  271MOL0     O35641   5.269   9.648   0.987 -0.0136  0.3114 -1.1268
  271MOL0     C35642   5.322   9.652   1.102  0.6547 -0.0885 -0.9240
  271MOL0     O35643   5.304   9.555   1.208 -0.4408  0.5039 -0.0430
  271MOL0     C35644   5.201   9.468   1.178 -0.8143  0.7461 -0.8792
  271MOL0     C35645   5.216   9.336   1.232  0.3755  0.5684  0.4742
  271MOL0     C35646   5.125   9.231   1.203  0.1458  0.4124 -0.0557
  271MOL0     C35647   5.009   9.270   1.132  0.1054 -0.1750  0.4080
  271MOL0     O35648   4.904   9.184   1.090 -0.7488 -0.0461  0.5579
  271MOL0     C35649   4.946   9.047   1.056 -0.2280  0.1306  0.5876
  271MOL0     C35650   4.822   8.986   0.968  0.2039 -0.5708 -0.1516
  271MOL0     C35651   4.763   9.092   0.883  0.4234 -0.2028 -0.2504
  271MOL0     C35652   4.678   9.030   0.769 -0.8799  0.4973  0.0207
  271MOL0     C35653   4.602   9.124   0.678 -0.5247  0.1701  0.3363
  271MOL0     C35654   4.484   9.202   0.748 -0.0675 -0.2505  0.7109
  271MOL0     C35655   4.406   9.289   0.646  0.1258 -0.2339 -0.4390
  271MOL0     C35656   4.338   9.220   0.533 -1.4360 -1.3259  0.8806
  271MOL0     N35657   4.223   9.142   0.564  0.5341 -0.0953  0.5497
  271MOL0     C35658   4.100   9.200   0.569 -0.1681 -0.0270  0.1454
  271MOL0     C35659   4.019   9.102   0.628 -0.1001 -0.6250 -0.9172
  271MOL0     C35660   3.875   9.126   0.663  0.0846  0.8542  0.0861
  271MOL0     C35661   3.777   9.086   0.554  0.1796 -0.4164  1.2620
  271MOL0     C35662   3.638   9.081   0.613  0.7770  0.8606 -0.2499
  271MOL0     C35663   3.599   9.208   0.695  0.9998  0.6705  0.5158
  271MOL0     O35664   3.465   9.237   0.671 -0.2499  0.2776  0.0739
  271MOL0     C35665   3.380   9.281   0.760 -0.2865  0.1830 -0.3699
  271MOL0     C35666   3.238   9.284   0.740  0.1589 -0.0090  0.0752
  271MOL0     C35667   3.157   9.325   0.841  0.0098  0.1044  0.1007
  271MOL0     C35668   3.208   9.384   0.963  0.7646  0.2806  0.2833
  271MOL0     C35669   3.114   9.421   1.072 -0.5261  2.1547 -0.0629
  271MOL0     O35670   3.154   9.511   1.159  0.1454 -0.8000 -0.1090
  271MOL0     C35671   3.067   9.529   1.263  0.2398  0.5241  0.5323
  271MOL0     C35672   2.979   9.640   1.260  0.9168  0.0858 -0.3567
  271MOL0     C35673   2.892   9.657   1.375  0.3198  0.1094  0.5750
  271MOL0     C35674   2.882   9.570   1.479 -0.2564  1.6018 -0.8125
  271MOL0     O35675   2.780   9.588   1.573 -0.0734  0.1925  0.3952
  271MOL0     C35676   2.677   9.482   1.586  0.7832 -0.2326  0.2613
  271MOL0     C35677   2.572   9.526   1.478 -0.4230 -0.5599  0.7556
  271MOL0     C35678   2.534   9.678   1.490  0.5559 -0.2770  0.1375
  271MOL0     C35679   2.413   9.722   1.398  0.6067  0.2260  0.0115
  271MOL0     C35680   2.420   9.868   1.371  0.3535  0.2193  0.1327
  271MOL0     C35681   2.534   9.914   1.291  0.3875 -0.6755  0.0297
  271MOL0     C35682   2.501  10.053   1.235 -0.3443 -0.6707  0.0780
  271MOL0     C35683   2.549  10.055   1.096 -0.9684 -0.3395  0.7178
  271MOL0    Cl35684   2.459   9.931   0.990 -0.1087  0.1932 -0.1999
  271MOL0     C35685   2.973   9.463   1.482 -0.4372 -0.8202 -0.3072
  271MOL0     C35686   3.062   9.446   1.377  0.2044  0.2133  0.7342
  271MOL0     O35687   3.002   9.358   1.066 -0.3313 -1.2280 -0.2828
  271MOL0     C35688   3.346   9.403   0.968  0.4229  0.0376 -1.0791
  271MOL0     C35689   3.431   9.345   0.874 -0.7903 -1.0199 -0.2010
  271MOL0     N35690   4.098   8.978   0.646  0.0273 -0.1767 -0.1774
  271MOL0     N35691   4.218   9.008   0.595 -0.3361 -0.1936 -0.3415
  271MOL0     C35692   4.979   9.402   1.099  0.8157  0.8085 -0.4350
  271MOL0     C35693   5.077   9.497   1.114 -0.0808 -0.5720  0.2118
  271MOL0     C35694   5.431   9.760   1.113 -0.1242  0.2081 -0.2140
  271MOL0     C35695   5.502   9.762   1.229  0.0173  0.0372  0.6904
  271MOL0     C35696   5.607   9.850   1.255  0.6778  0.2624  0.0545
  271MOL0     C35697   5.643   9.945   1.160  0.0069 -0.3536  0.1935
  271MOL0     O35698   5.728  10.053   1.179 -0.3645 -0.1978  0.6829
  271MOL0     C35699   5.839  10.028   1.260 -0.5983 -0.3001 -0.0380
  271MOL0     C35700   5.941   9.934   1.192  0.2434  0.5009 -0.1596
  271MOL0     C35701   6.067   9.920   1.281  0.2017 -0.6007 -0.1251
  271MOL0     C35702   6.200   9.910   1.197 -0.3305 -0.5141 -0.1596
  271MOL0     C35703   6.318   9.885   1.273 -0.1694 -0.6341  1.1853
  271MOL0     C35704   6.409   9.868   1.339  0.5132  1.3653  0.5430
  271MOL0     C35705   5.574   9.941   1.036  0.1128 -0.3861 -0.3258
  271MOL0     C35706   5.475   9.847   1.009  0.7296 -0.0663 -0.1794
  271MOL0     H35707   5.305   9.309   1.289 -1.1960 -1.1262  2.2869
  271MOL0     H35708   5.153   9.133   1.242 -1.9890  0.3190  1.4330
  271MOL0     H35709   4.973   8.991   1.146 -0.7985  0.6765  1.1095
  271MOL0     H35710   5.024   9.042   0.979 -0.3693 -2.6011  0.5473
  271MOL0     H35711   4.742   8.951   1.035 -0.3668  0.8459 -0.0691
  271MOL0     H35712   4.859   8.900   0.912 -1.0518 -1.4363  0.2889
  271MOL0     H35713   4.846   9.145   0.836  1.2259  0.5174  1.9073
  271MOL0     H35714   4.703   9.168   0.935 -0.5731 -0.1499 -1.4115
  271MOL0     H35715   4.741   8.971   0.701  0.9441  0.3953  1.7189
  271MOL0     H35716   4.606   8.968   0.824  2.4227 -3.3223  0.4875
  271MOL0     H35717   4.559   9.056   0.605  0.6974 -0.0243 -0.2308
  271MOL0     H35718   4.666   9.184   0.613  1.3617 -3.1882 -1.1637
  271MOL0     H35719   4.523   9.259   0.833  0.0441  0.1142  0.4207
  271MOL0     H35720   4.418   9.127   0.791 -0.4981 -2.8207 -3.7968
  271MOL0     H35721   4.326   9.353   0.684  0.9900  3.1373 -3.6932
  271MOL0     H35722   4.473   9.361   0.598 -3.1024  2.3406 -1.4248
  271MOL0     H35723   4.407   9.159   0.473 -2.7521  1.6352 -4.3146
  271MOL0     H35724   4.307   9.298   0.463  2.8423  0.0503  0.1823
  271MOL0     H35725   4.082   9.305   0.552 -0.4157 -0.1083 -0.0952
  271MOL0     H35726   3.857   9.231   0.689 -1.8855  0.6444 -0.2786
  271MOL0     H35727   3.853   9.061   0.748  1.3754  0.8219  0.4233
  271MOL0     H35728   3.803   8.985   0.522 -0.6779 -0.9637  2.2306
  271MOL0     H35729   3.779   9.142   0.460  2.8794 -2.2698  0.0960
  271MOL0     H35730   3.566   9.069   0.532 -0.3256  1.9520  0.5336
  271MOL0     H35731   3.629   8.989   0.672 -0.0663 -0.3585 -2.2064
  271MOL0     H35732   3.651   9.288   0.642 -1.1501 -0.6115 -4.0032
  271MOL0     H35733   3.625   9.183   0.798 -2.1925 -1.1734  1.0041
  271MOL0     H35734   3.197   9.235   0.652  0.3211  1.0013 -0.5713
  271MOL0     H35735   3.049   9.320   0.833 -0.1091 -1.1434  1.7746
  271MOL0     H35736   3.006   9.699   1.173  1.7864 -3.4969 -2.7411
  271MOL0     H35737   2.823   9.738   1.354 -1.6309 -1.9230 -1.4477
  271MOL0     H35738   2.643   9.502   1.688  1.8990  2.4261  0.1984
  271MOL0     H35739   2.702   9.376   1.579 -0.9867 -0.5818 -2.6069
  271MOL0     H35740   2.485   9.460   1.489  0.2127 -1.7016 -0.6152
  271MOL0     H35741   2.624   9.509   1.383 -1.8918 -1.4973  0.0748
  271MOL0     H35742   2.625   9.738   1.474 -0.1141  1.4511  2.2907
  271MOL0     H35743   2.505   9.705   1.592 -1.1780 -0.8377 -0.1863
  271MOL0     H35744   2.413   9.671   1.302  1.3418 -0.3578  0.3062
  271MOL0     H35745   2.324   9.704   1.459  0.4507  1.2562  0.0980
  271MOL0     H35746   2.427   9.911   1.471 -0.4221 -1.5474  1.0015
  271MOL0     H35747   2.328   9.913   1.333  1.2505  0.6613 -1.5861
  271MOL0     H35748   2.551   9.846   1.207 -1.2523  0.2180 -1.0739
  271MOL0     H35749   2.628   9.916   1.348 -0.8848 -0.6327  2.2205
  271MOL0     H35750   2.392  10.069   1.231 -0.4877 -1.6860 -0.5883
  271MOL0     H35751   2.558  10.123   1.297  1.9907 -2.0691 -0.3820
  271MOL0     H35752   2.657  10.045   1.081 -0.5795  2.4231  1.1203
  271MOL0     H35753   2.532  10.148   1.041  0.5799 -1.5996 -2.1453
  271MOL0     H35754   2.967   9.405   1.574 -0.1351 -1.9239 -0.9548
  271MOL0     H35755   3.134   9.364   1.381 -0.3472 -0.3585 -0.5194
  271MOL0     H35756   3.388   9.463   1.048  2.0190  1.2653 -2.7468
  271MOL0     H35757   3.536   9.365   0.893 -1.4379 -0.3844  3.3454
  271MOL0     H35758   4.885   9.426   1.050  0.3177 -1.2288 -0.5631
  271MOL0     H35759   5.044   9.594   1.076 -2.5146 -0.5259  2.1830
  271MOL0     H35760   5.472   9.701   1.314  2.2639  1.0394  2.3087
  271MOL0     H35761   5.655   9.847   1.353  0.2358 -0.7323  0.2504
  271MOL0     H35762   5.819   9.981   1.356  0.9669  1.0762  1.0124
  271MOL0     H35763   5.890  10.123   1.279 -0.5059 -0.5433  0.9848
  271MOL0     H35764   5.904   9.831   1.189 -0.6458  0.7991  0.1879
  271MOL0     H35765   5.959   9.970   1.090  0.6869  0.2505 -0.1744
  271MOL0     H35766   6.053   9.832   1.344  2.3410  0.6988  2.3866
  271MOL0     H35767   6.071  10.008   1.346  2.1884  0.1551 -1.1796
  271MOL0     H35768   6.177   9.839   1.117  1.1618 -1.5852  0.3097
  271MOL0     H35769   6.218   9.998   1.134 -1.1127 -2.6436 -3.6304
  271MOL0     H35770   6.479   9.850   1.419 -1.0549 -0.2150  1.6523
  271MOL0     H35771   5.612  10.009   0.960  1.2430  1.1953  1.5552
  271MOL0     H35772   5.437   9.844   0.907 -1.9240 -0.4652  0.7383
  272MOL0     O35773   5.476  10.233  10.263  0.5538 -0.0208  0.6308
  272MOL0     C35774   5.528  10.333  10.316  0.2936 -0.0131 -0.4614
  272MOL0     O35775   5.504  10.470  10.292  0.2284  0.1841 -0.3384
  272MOL0     C35776   5.383  10.496  10.245 -0.2577 -0.7722  0.0221
  272MOL0     C35777   5.271  10.532  10.332  0.3268  0.8636 -0.2941
  272MOL0     C35778   5.147  10.567  10.276  0.0375 -0.9120  0.6617
  272MOL0     C35779   5.127  10.570  10.140  0.0520  0.5249 -0.7032
  272MOL0     O35780   5.020  10.632  10.091  0.1478  1.0253 -0.2077
  272MOL0     C35781   4.942  10.589   9.982  0.7976 -0.2621 -0.8058
  272MOL0     C35782   4.798  10.640   9.985  0.5898  0.2504 -0.1912
  272MOL0     C35783   4.706  10.583   9.877  0.1132 -0.1460 -0.7607
  272MOL0     C35784   4.697  10.676   9.760 -0.4015 -0.1193  0.9169
  272MOL0     C35785   4.574  10.659   9.669 -0.4823 -0.3211  0.6084
  272MOL0     C35786   4.549  10.772   9.572  0.1200 -0.0051 -0.1070
  272MOL0     C35787   4.413  10.765   9.498 -0.7273  0.1140 -1.2587
  272MOL0     C35788   4.386  10.832   9.354  0.4895 -0.4127 -0.3009
  272MOL0     N35789   4.262  10.778   9.292 -0.1355  0.5384 -1.1894
  272MOL0     C35790   4.175  10.680   9.340  0.1227 -0.9453 -1.2084
  272MOL0     C35791   4.079  10.678   9.248 -0.2926  0.2193  0.2648
  272MOL0     C35792   3.960  10.583   9.241 -0.2460  0.3942  0.0548
  272MOL0     C35793   3.889  10.543   9.372  0.4807  0.2826 -0.6783
  272MOL0     C35794   3.805  10.410   9.371 -0.2503 -1.1138  0.3604
  272MOL0     C35795   3.774  10.369   9.515  0.1855 -0.1797 -0.5146
  272MOL0     O35796   3.630  10.371   9.535  0.3087  0.7009  0.1149
  272MOL0     C35797   3.583  10.333   9.660  0.2112 -0.2614  0.7263
  272MOL0     C35798   3.446  10.319   9.685 -0.2046 -0.1972  0.3657
  272MOL0     C35799   3.400  10.297   9.820 -0.3865 -0.7679 -0.2486
  272MOL0     C35800   3.496  10.269   9.927 -0.9193  0.8533  0.0651
  272MOL0     C35801   3.463  10.241  10.059  0.7368 -0.3200  0.0382
  272MOL0     O35802   3.560  10.215  10.152  0.1403  0.5040 -0.4548
  272MOL0     C35803   3.538  10.216  10.288  1.3966  0.1303 -0.2694
  272MOL0     C35804   3.565  10.098  10.359 -0.4706 -0.1534  0.9719
  272MOL0     C35805   3.554  10.086  10.497 -0.2550 -0.3749 -0.6233
  272MOL0     C35806   3.494  10.199  10.570 -0.1111 -0.3630 -0.4711
  272MOL0     O35807   3.473  10.200  10.709  0.2933  0.2379  0.3950
  272MOL0     C35808   3.582  10.169  10.803  0.6209  0.3328  0.0452
  272MOL0     C35809   3.544  10.204  10.939  0.1215 -0.4301  0.3433
  272MOL0     C35810   3.553  10.351  10.967  0.5882  0.4442  0.0222
  272MOL0     C35811   3.479  10.368  11.107  1.1704  0.6348  0.2080
  272MOL0     C35812   3.467  10.516  11.155 -0.6227  1.1494 -0.2259
  272MOL0     C35813   3.391  10.527  11.283 -0.0549 -0.8675  1.1084
  272MOL0     C35814   3.434  10.660  11.349  0.5503  0.4918 -0.5378
  272MOL0     C35815   3.347  10.709  11.465 -0.7534  0.5883  0.4861
  272MOL0    Cl35816   3.179  10.640  11.477  0.0811 -0.2188 -0.0742
  272MOL0     C35817   3.451  10.312  10.490 -0.0006 -0.0683  0.2984
  272MOL0     C35818   3.476  10.324  10.353 -0.1263 -0.1860 -0.1217
  272MOL0     O35819   3.343  10.245  10.081 -0.7608  1.3037 -0.0834
  272MOL0     C35820   3.627  10.277   9.896 -0.6107  0.2546 -0.0806
  272MOL0     C35821   3.676  10.317   9.769  0.0235  0.1574  0.0860
  272MOL0     N35822   4.105  10.763   9.143  0.2253  0.2002 -0.4397
  272MOL0     N35823   4.215  10.832   9.173  0.4227 -0.4160 -0.3917
  272MOL0     C35824   5.227  10.528  10.057 -1.1053  0.1477  0.9166
  272MOL0     C35825   5.356  10.497  10.111  0.3022  0.3517  0.5771
  272MOL0     C35826   5.649  10.312  10.407  0.4215  0.2151 -0.6711
  272MOL0     C35827   5.738  10.413  10.437 -0.2514  0.3600  0.9573
  272MOL0     C35828   5.841  10.395  10.521 -0.4697  0.5120 -0.5071
  272MOL0     C35829   5.867  10.272  10.582  0.1595 -0.3678 -0.4300
  272MOL0     O35830   5.968  10.260  10.678 -0.6418 -0.5449  0.1902
  272MOL0     C35831   6.097  10.331  10.672  0.1195  0.7461 -0.7093
  272MOL0     C35832   6.182  10.284  10.785  0.6715 -0.7039  0.5159
  272MOL0     C35833   6.267  10.407  10.830 -0.0806  0.0606 -0.2746
  272MOL0     C35834   6.367  10.475  10.726  0.1352  0.3680 -0.2548
  272MOL0     C35835   6.460  10.379  10.678 -0.0064  0.2330 -0.4144
  272MOL0     C35836   6.551  10.316  10.633  0.1560 -0.0061 -0.3595
  272MOL0     C35837   5.775  10.169  10.563  0.6012 -0.1823  0.9306
  272MOL0     C35838   5.662  10.188  10.479  0.5297 -0.0549  0.4435
  272MOL0     H35839   5.277  10.534  10.441  1.8528 -3.3632 -0.1213
  272MOL0     H35840   5.076  10.598  10.352 -0.7339 -0.2154 -0.3272
  272MOL0     H35841   4.953  10.481   9.964  0.9209 -0.2886 -0.5603
  272MOL0     H35842   4.993  10.626   9.892  2.3079 -0.4843 -0.0688
  272MOL0     H35843   4.808  10.749   9.986  2.7644  0.1067 -1.0433
  272MOL0     H35844   4.766  10.596  10.080  0.7612 -1.1221 -0.7456
  272MOL0     H35845   4.603  10.577   9.913  0.4275 -1.2152 -0.0056
  272MOL0     H35846   4.737  10.481   9.854  0.5473 -0.2661  0.2640
  272MOL0     H35847   4.694  10.778   9.801  2.3985  1.4019 -2.2184
  272MOL0     H35848   4.791  10.662   9.707 -0.2566  1.4662  0.7225
  272MOL0     H35849   4.490  10.665   9.738 -1.7189  4.9128 -0.9556
  272MOL0     H35850   4.578  10.564   9.614  2.1311  0.0089  0.0677
  272MOL0     H35851   4.634  10.771   9.503  0.7154 -5.0485  0.2815
  272MOL0     H35852   4.545  10.867   9.625 -1.7855  1.1092 -2.0850
  272MOL0     H35853   4.396  10.659   9.476 -1.0577 -0.3594  1.0610
  272MOL0     H35854   4.345  10.795   9.577 -0.3494 -1.7902 -0.1401
  272MOL0     H35855   4.472  10.803   9.293  0.0925 -2.9865  0.2648
  272MOL0     H35856   4.368  10.940   9.358  0.4822 -0.2790 -2.4547
  272MOL0     H35857   4.205  10.637   9.434 -1.1367  2.3754  0.9064
  272MOL0     H35858   4.009  10.494   9.200  0.9861  0.3806  1.4671
  272MOL0     H35859   3.878  10.619   9.179 -0.8314  2.2513  1.8260
  272MOL0     H35860   3.835  10.634   9.400 -0.0857 -0.0519 -0.6465
  272MOL0     H35861   3.966  10.530   9.448  1.5171  0.2297 -1.7226
  272MOL0     H35862   3.712  10.435   9.319  0.8698  0.1941 -1.1520
  272MOL0     H35863   3.870  10.334   9.327 -0.1634  0.2003 -1.9802
  272MOL0     H35864   3.825  10.441   9.580 -2.4120  1.9939 -0.7185
  272MOL0     H35865   3.814  10.271   9.542 -0.7182 -0.6403 -0.8100
  272MOL0     H35866   3.373  10.330   9.606  1.6040 -2.2665 -1.7516
  272MOL0     H35867   3.294  10.303   9.844 -0.8996  2.6455 -2.5715
  272MOL0     H35868   3.626  10.032  10.298  1.3890  1.1445  1.3362
  272MOL0     H35869   3.584   9.995  10.547  0.6771  1.3314  2.1554
  272MOL0     H35870   3.667  10.224  10.762  2.8658 -1.1900  2.3768
  272MOL0     H35871   3.598  10.061  10.794  0.4220  0.1194  1.9531
  272MOL0     H35872   3.604  10.156  11.017  0.2777  1.5448  1.5263
  272MOL0     H35873   3.441  10.166  10.943  0.3303 -1.6744 -2.9775
  272MOL0     H35874   3.495  10.409  10.894 -0.1759 -0.9379 -0.4994
  272MOL0     H35875   3.651  10.399  10.969  1.0324 -0.4303 -0.3255
  272MOL0     H35876   3.377  10.327  11.098  0.8980  1.1750  0.7688
  272MOL0     H35877   3.523  10.301  11.181  0.2779 -0.0164  0.1768
  272MOL0     H35878   3.415  10.578  11.081 -3.1956  0.6181  1.0427
  272MOL0     H35879   3.570  10.554  11.166  0.0156  0.8451 -3.8844
  272MOL0     H35880   3.404  10.439  11.347 -1.2212 -2.0656 -0.2302
  272MOL0     H35881   3.287  10.554  11.264  0.3205  0.8724  1.3732
  272MOL0     H35882   3.533  10.670  11.394  0.8239  0.8534 -1.2046
  272MOL0     H35883   3.434  10.734  11.269  1.6747  1.5871  0.4496
  272MOL0     H35884   3.344  10.817  11.480  0.9931  0.9168 -1.2195
  272MOL0     H35885   3.385  10.662  11.557  0.6063 -1.0847 -0.8649
  272MOL0     H35886   3.409  10.393  10.550 -0.4586 -1.6238  2.1726
  272MOL0     H35887   3.458  10.411  10.291  0.1827 -1.8242 -2.6699
  272MOL0     H35888   3.704  10.257   9.970  1.5666  4.1456 -1.0136
  272MOL0     H35889   3.784  10.322   9.756  0.1102 -0.1280  0.6378
  272MOL0     H35890   5.220  10.549   9.951  4.4450 -1.9172 -0.1970
  272MOL0     H35891   5.433  10.472  10.039 -0.2850  0.9967 -0.2926
  272MOL0     H35892   5.730  10.514  10.398  2.3195 -0.3906 -1.9402
  272MOL0     H35893   5.898  10.481  10.557  0.3353  0.3275 -1.2943
  272MOL0     H35894   6.084  10.439  10.684 -1.7415  0.5777 -0.9263
  272MOL0     H35895   6.143  10.319  10.574 -2.1605  0.3491 -1.7828
  272MOL0     H35896   6.121  10.247  10.868  1.1894 -0.0170  1.2172
  272MOL0     H35897   6.245  10.197  10.764  2.6811  1.1365 -1.7014
  272MOL0     H35898   6.317  10.382  10.924 -0.3661 -1.2491 -0.4492
  272MOL0     H35899   6.194  10.484  10.857 -0.5084 -1.2419  2.6483
  272MOL0     H35900   6.310  10.515  10.642 -0.5644  0.5800  0.3069
  272MOL0     H35901   6.423  10.553  10.777 -1.1511  0.8477  0.4771
  272MOL0     H35902   6.630  10.251  10.601 -0.4767 -0.2862 -1.3944
  272MOL0     H35903   5.793  10.075  10.614 -0.2716 -1.1316 -0.4384
  272MOL0     H35904   5.582  10.117  10.463  0.8940 -0.2593 -0.5800
  273MOL0     O35905   6.456   9.678   7.802 -0.1727 -0.9022  0.1989
  273MOL0     C35906   6.354   9.739   7.819  0.3885  0.0777 -0.3657
  273MOL0     O35907   6.343   9.878   7.839 -0.0209 -0.0523  0.4600
  273MOL0     C35908   6.449   9.961   7.833  0.2071  0.7159 -0.6114
  273MOL0     C35909   6.569   9.929   7.892 -1.0082 -0.2867 -0.1156
  273MOL0     C35910   6.679  10.017   7.893  0.5160 -0.4742  1.1478
  273MOL0     C35911   6.674  10.140   7.828 -0.8935  0.1054  0.3750
  273MOL0     O35912   6.781  10.225   7.811  0.1125 -0.9624 -0.4530
  273MOL0     C35913   6.911  10.197   7.860 -0.3573 -1.4216 -0.2941
  273MOL0     C35914   6.998  10.316   7.836  0.2305 -0.4502  0.4506
  273MOL0     C35915   7.011  10.423   7.947  0.3271  1.6415  0.2001
  273MOL0     C35916   6.891  10.507   7.948  0.2807  0.1891 -0.2355
  273MOL0     C35917   6.894  10.584   8.077  0.2761 -0.0155  0.4754
  273MOL0     C35918   7.015  10.682   8.079  0.2798  0.3711 -0.0920
  273MOL0     C35919   7.017  10.774   8.193 -0.2043  0.7273 -0.0702
  273MOL0     C35920   7.153  10.837   8.234 -0.4294  0.8987  0.6907
  273MOL0     N35921   7.252  10.738   8.272 -0.6785  0.8430 -0.6823
  273MOL0     C35922   7.344  10.673   8.188 -0.2119  0.3022 -0.5320
  273MOL0     C35923   7.420  10.593   8.273  0.2218 -0.2884  1.0332
  273MOL0     C35924   7.519  10.488   8.225 -0.3266 -0.3041 -0.1056
  273MOL0     C35925   7.655  10.467   8.291 -0.9506  0.0823  0.1946
  273MOL0     C35926   7.722  10.587   8.358  0.6866 -0.0888  1.0009
  273MOL0     C35927   7.868  10.548   8.392  0.4066 -0.2112  0.6213
  273MOL0     O35928   7.961  10.555   8.282  0.1188 -0.2500 -1.2287
  273MOL0     C35929   8.098  10.563   8.305 -0.1381  0.6961  0.0384
  273MOL0     C35930   8.178  10.539   8.193 -0.1913 -0.4376  0.0006
  273MOL0     C35931   8.318  10.561   8.206 -0.4743  1.0495 -0.3997
  273MOL0     C35932   8.381  10.567   8.334  0.3273 -0.2566  0.6014
  273MOL0     C35933   8.531  10.585   8.341 -0.6075  1.2090 -0.6194
  273MOL0     O35934   8.601  10.579   8.221 -0.8426 -0.3127  0.1199
  273MOL0     C35935   8.737  10.597   8.235  0.1757  0.0726  0.4013
  273MOL0     C35936   8.816  10.516   8.163  0.6304  0.4674  0.0499
  273MOL0     C35937   8.960  10.535   8.165 -0.5966  0.0164 -0.5779
  273MOL0     C35938   9.029  10.640   8.239  0.7689  0.1968  0.5228
  273MOL0     O35939   9.166  10.677   8.234  0.7567 -0.4730 -0.3687
  273MOL0     C35940   9.250  10.603   8.328  0.3245  1.0161 -0.7493
  273MOL0     C35941   9.221  10.656   8.467 -0.4015  1.4072 -0.6560
  273MOL0     C35942   9.212  10.541   8.572 -0.4735  0.3798  0.2877
  273MOL0     C35943   9.062  10.505   8.596  0.3425 -0.4642  0.5145
  273MOL0     C35944   9.025  10.384   8.675 -0.2650  0.6227  0.0562
  273MOL0     C35945   8.878  10.346   8.672 -1.0730  0.7392  0.1132
  273MOL0     C35946   8.835  10.304   8.530 -0.1988  0.1047 -1.1122
  273MOL0     C35947   8.695  10.239   8.527  1.0708  0.1332  0.2059
  273MOL0    Cl35948   8.682  10.074   8.606 -0.0746  0.0674  0.1501
  273MOL0     C35949   8.940  10.730   8.297  1.4391  1.0673  0.0708
  273MOL0     C35950   8.800  10.712   8.296  0.8015 -0.2310 -0.1486
  273MOL0     O35951   8.588  10.583   8.450 -0.1657 -0.5119  0.8953
  273MOL0     C35952   8.296  10.594   8.446 -0.8926 -0.6382  0.0239
  273MOL0     C35953   8.160  10.573   8.427  0.1358 -0.5164 -0.3500
  273MOL0     N35954   7.395  10.624   8.404  0.3920  1.1158 -0.2338
  273MOL0     N35955   7.298  10.712   8.397  0.3670  0.0044 -0.2550
  273MOL0     C35956   6.552  10.171   7.769  0.5605 -0.1540 -0.0493
  273MOL0     C35957   6.442  10.084   7.775  0.7969 -0.0836  1.2741
  273MOL0     C35958   6.229   9.652   7.827 -0.7267 -0.5324  0.7523
  273MOL0     C35959   6.104   9.710   7.835 -0.3115 -0.2412  0.1210
  273MOL0     C35960   5.989   9.637   7.837  0.2190  0.6301  0.0867
  273MOL0     C35961   5.994   9.496   7.833  0.1996  0.4912  0.0752
  273MOL0     O35962   5.877   9.430   7.826  0.4044 -0.2096 -0.0221
  273MOL0     C35963   5.838   9.383   7.954 -0.4161  0.5709  0.3086
  273MOL0     C35964   5.683   9.352   7.942 -0.7361  0.9688 -0.4936
  273MOL0     C35965   5.657   9.232   7.846  0.1630 -1.3365 -0.1172
  273MOL0     C35966   5.697   9.091   7.890  1.0152 -0.0911  0.1192
  273MOL0     C35967   5.659   8.997   7.781 -0.4285 -0.2073  1.3985
  273MOL0     C35968   5.635   8.920   7.686  1.1152 -0.1310  0.4372
  273MOL0     C35969   6.118   9.431   7.830 -0.1311 -0.0475 -0.0225
  273MOL0     C35970   6.230   9.511   7.824  0.1071  0.0511 -0.2216
  273MOL0     H35971   6.583   9.836   7.946  2.4506 -0.0249 -0.3218
  273MOL0     H35972   6.762   9.978   7.952  1.2936 -3.3876 -1.6454
  273MOL0     H35973   6.963  10.111   7.818  2.3748  0.4723 -1.0272
  273MOL0     H35974   6.899  10.180   7.968 -2.8247  1.8985  0.1292
  273MOL0     H35975   6.957  10.377   7.755  2.6298  0.2539 -0.3125
  273MOL0     H35976   7.095  10.280   7.802 -0.5059 -4.1095  1.7288
  273MOL0     H35977   7.102  10.475   7.918  2.1557 -2.6684 -2.8940
  273MOL0     H35978   7.021  10.371   8.043 -0.9100 -0.5232 -0.7599
  273MOL0     H35979   6.908  10.573   7.862 -2.0809  1.1949  0.0180
  273MOL0     H35980   6.792  10.461   7.945  1.5394 -2.7297 -1.0432
  273MOL0     H35981   6.889  10.515   8.162  3.0501  1.3594  1.8888
  273MOL0     H35982   6.803  10.647   8.078  0.9921  1.0606 -0.2417
  273MOL0     H35983   7.032  10.739   7.988  0.6310 -1.7565 -1.4313
  273MOL0     H35984   7.107  10.625   8.094  0.2086  0.3024  0.0941
  273MOL0     H35985   6.938  10.847   8.176 -0.0061  0.2182 -4.2817
  273MOL0     H35986   6.980  10.713   8.276  1.5523 -4.5618 -2.7189
  273MOL0     H35987   7.138  10.917   8.307  0.9205  0.0044  2.0138
  273MOL0     H35988   7.184  10.881   8.139  1.7202 -1.0350  0.3875
  273MOL0     H35989   7.338  10.673   8.080 -0.3242  0.2620 -0.5261
  273MOL0     H35990   7.541  10.505   8.119 -0.2942 -2.1271 -0.4141
  273MOL0     H35991   7.465  10.393   8.227  1.3181 -1.2832 -0.1771
  273MOL0     H35992   7.717  10.421   8.213 -3.4553 -1.4626 -0.9949
  273MOL0     H35993   7.626  10.388   8.361 -3.1304 -1.2998 -2.0960
  273MOL0     H35994   7.730  10.677   8.297  1.2210  0.2284  1.5306
  273MOL0     H35995   7.663  10.612   8.446 -0.4622 -1.4488  0.6573
  273MOL0     H35996   7.871  10.454   8.449  1.6792 -2.4355 -2.7817
  273MOL0     H35997   7.898  10.636   8.450 -1.0233 -0.2602  1.5036
  273MOL0     H35998   8.125  10.528   8.099 -0.8114  0.0921  0.2800
  273MOL0     H35999   8.385  10.560   8.121 -1.1450  1.3374 -0.9351
  273MOL0     H36000   8.774  10.439   8.099 -0.1628 -0.0306  1.1420
  273MOL0     H36001   9.013  10.464   8.102 -0.0466  0.5226 -0.6978
  273MOL0     H36002   9.355  10.624   8.306  0.5943  0.7733  0.2365
  273MOL0     H36003   9.226  10.496   8.335 -0.5262  1.2614  0.5659
  273MOL0     H36004   9.139  10.728   8.468 -0.6652  1.1538 -1.9623
  273MOL0     H36005   9.312  10.713   8.489 -1.4792  2.2458  2.0906
  273MOL0     H36006   9.254  10.580   8.665  1.3319  0.1688 -0.4094
  273MOL0     H36007   9.276  10.457   8.542  0.1784  0.6555  0.8908
  273MOL0     H36008   9.026  10.590   8.655 -0.0506  0.2826 -0.7647
  273MOL0     H36009   9.016  10.502   8.497 -1.1785  1.1543  1.1028
  273MOL0     H36010   9.068  10.402   8.774  0.3137 -1.2219  0.1877
  273MOL0     H36011   9.076  10.295   8.638  1.3806  1.6687 -0.3080
  273MOL0     H36012   8.810  10.423   8.711 -0.7121 -0.2840  2.9648
  273MOL0     H36013   8.858  10.261   8.739 -1.6408  1.7961  1.3236
  273MOL0     H36014   8.826  10.399   8.476  1.0778  0.8941  0.0022
  273MOL0     H36015   8.906  10.237   8.482  3.9134  2.2647  1.3784
  273MOL0     H36016   8.670  10.221   8.422  3.2951  2.8031 -0.8940
  273MOL0     H36017   8.623  10.310   8.569 -3.6357 -3.1068 -1.5598
  273MOL0     H36018   8.996  10.811   8.342  1.9463  0.2753  0.9012
  273MOL0     H36019   8.740  10.786   8.347  1.6540 -0.3569  1.0735
  273MOL0     H36020   8.346  10.601   8.542  2.7181  0.5296 -1.7741
  273MOL0     H36021   8.098  10.586   8.515 -1.2427 -6.1103 -0.1292
  273MOL0     H36022   6.542  10.268   7.720 -1.1059 -0.1073  0.3303
  273MOL0     H36023   6.354  10.117   7.721  0.1559 -2.6204  0.6432
  273MOL0     H36024   6.096   9.818   7.848 -2.3323 -0.7123  4.8344
  273MOL0     H36025   5.894   9.681   7.808  0.0344 -1.1216 -2.3372
  273MOL0     H36026   5.846   9.464   8.026  1.2788 -0.8159  1.7886
  273MOL0     H36027   5.898   9.300   7.993 -2.3799 -0.7348  0.7347
  273MOL0     H36028   5.635   9.334   8.039  2.4614 -0.9755  0.8854
  273MOL0     H36029   5.644   9.447   7.901 -1.6620  0.7786 -0.0810
  273MOL0     H36030   5.717   9.248   7.756 -0.8649  0.5914 -0.5279
  273MOL0     H36031   5.551   9.228   7.819  0.0952 -3.1057  0.3006
  273MOL0     H36032   5.803   9.092   7.917  0.5404 -2.4330  2.4545
  273MOL0     H36033   5.643   9.054   7.978 -3.2599  0.8162 -1.8350
  273MOL0     H36034   5.620   8.847   7.609  1.1707  0.0098  0.2947
  273MOL0     H36035   6.115   9.322   7.825 -1.2509 -0.0510  0.4870
  273MOL0     H36036   6.329   9.468   7.808  0.0781  0.2344 -0.9235
  274MOL0     O36037   7.879   3.287   4.298 -0.0204 -0.3047 -0.5107
  274MOL0     C36038   7.926   3.177   4.275  0.4300 -0.2131  1.2401
  274MOL0     O36039   8.025   3.118   4.346 -0.1758  0.2195  0.2038
  274MOL0     C36040   8.089   3.186   4.450  0.8771 -0.3601  0.1645
  274MOL0     C36041   8.027   3.196   4.575 -0.4312  0.2555  0.3111
  274MOL0     C36042   8.094   3.247   4.685 -0.0380  0.4998 -0.2216
  274MOL0     C36043   8.221   3.308   4.667 -0.0580  0.7813 -0.2306
  274MOL0     O36044   8.268   3.362   4.776 -0.6117  0.6291 -0.4511
  274MOL0     C36045   8.300   3.502   4.794 -0.0579  0.8182  0.4079
  274MOL0     C36046   8.248   3.545   4.937 -0.1039  0.2245  0.1180
  274MOL0     C36047   8.091   3.575   4.939 -0.6855 -0.1161 -0.2011
  274MOL0     C36048   8.039   3.609   5.075  0.1219 -0.2552 -0.5218
  274MOL0     C36049   8.075   3.751   5.113  0.8197  0.2715 -0.1599
  274MOL0     C36050   7.996   3.859   5.034  0.9248  0.7632  0.3392
  274MOL0     C36051   7.869   3.903   5.112  0.1275 -0.1902  0.1001
  274MOL0     C36052   7.785   4.024   5.063  0.0356  0.2343  1.0175
  274MOL0     N36053   7.708   3.980   4.945  0.2738 -0.0428  0.4647
  274MOL0     C36054   7.754   3.971   4.818  0.6251 -0.0781  0.7035
  274MOL0     C36055   7.645   3.945   4.732 -0.8084  0.2206 -0.4177
  274MOL0     C36056   7.651   3.947   4.585 -0.3086 -0.0208  0.3602
  274MOL0     C36057   7.508   3.903   4.535  0.4650  0.1415 -0.6876
  274MOL0     C36058   7.511   3.853   4.392 -1.2374 -0.7163 -0.1189
  274MOL0     C36059   7.370   3.855   4.335 -0.5590 -0.5261 -0.4396
  274MOL0     O36060   7.315   3.985   4.303  0.0121  0.0687  0.1571
  274MOL0     C36061   7.194   3.984   4.237 -0.1865 -0.7030 -0.9920
  274MOL0     C36062   7.091   3.895   4.276  0.2814 -0.6040 -0.8007
  274MOL0     C36063   6.965   3.887   4.212 -1.4452 -0.3945  0.3281
  274MOL0     C36064   6.932   3.973   4.104 -0.3110 -0.5757  0.4894
  274MOL0     C36065   6.804   3.960   4.031 -0.0650 -0.0394 -1.1671
  274MOL0     O36066   6.701   3.899   4.098 -0.1406  0.0295 -0.2665
  274MOL0     C36067   6.580   3.891   4.024 -0.4546 -0.7583  0.8149
  274MOL0     C36068   6.519   3.776   3.982  0.6229  0.0060 -0.7669
  274MOL0     C36069   6.396   3.771   3.922 -0.0695 -0.2067 -0.7632
  274MOL0     C36070   6.333   3.896   3.901  0.5928  0.3652 -0.8811
  274MOL0     O36071   6.199   3.897   3.868 -0.1164 -0.0167  0.5019
  274MOL0     C36072   6.160   4.000   3.776 -0.4256  0.8621  0.3119
  274MOL0     C36073   6.031   3.955   3.700 -0.3954  0.1100  0.2042
  274MOL0     C36074   5.909   3.935   3.793  0.5230  0.1155  0.0527
  274MOL0     C36075   5.783   3.901   3.705  0.0528 -0.1920  0.5180
  274MOL0     C36076   5.655   3.944   3.766 -0.3730  0.4201 -0.6309
  274MOL0     C36077   5.641   3.869   3.899  0.6487 -0.6033  0.1644
  274MOL0     C36078   5.509   3.908   3.964 -0.0260 -1.1059 -0.3432
  274MOL0     C36079   5.457   3.832   4.083 -0.9466  0.0725 -1.3835
  274MOL0    Cl36080   5.479   3.646   4.092  0.0944 -0.7612  0.0749
  274MOL0     C36081   6.389   4.021   3.943  0.4880  0.8527 -0.6277
  274MOL0     C36082   6.516   4.016   4.001 -1.0779 -0.5089 -0.0997
  274MOL0     O36083   6.797   4.023   3.928  0.1972  0.2231  0.4648
  274MOL0     C36084   7.037   4.069   4.073  1.8238 -0.2030 -0.4922
  274MOL0     C36085   7.165   4.079   4.138  0.1774 -1.5903 -0.1663
  274MOL0     N36086   7.541   3.944   4.811  0.8860 -0.9081 -0.0065
  274MOL0     N36087   7.575   3.955   4.938  0.3484 -0.6353  0.4235
  274MOL0     C36088   8.293   3.283   4.550  0.2882 -1.2692  0.0397
  274MOL0     C36089   8.230   3.224   4.442  0.4879  0.6251 -0.4733
  274MOL0     C36090   7.864   3.094   4.161 -0.2889 -0.1332  0.8379
  274MOL0     C36091   7.920   2.983   4.115  0.1770  0.3711  0.5725
  274MOL0     C36092   7.867   2.918   4.003 -1.7838 -0.5857 -0.5245
  274MOL0     C36093   7.749   2.962   3.940 -0.5572 -0.1838  0.3970
  274MOL0     O36094   7.692   2.885   3.836 -0.1106  0.1251 -0.6304
  274MOL0     C36095   7.558   2.906   3.790  0.4775 -0.4043  0.2813
  274MOL0     C36096   7.542   2.853   3.646  0.1405 -0.5850 -0.6921
  274MOL0     C36097   7.391   2.817   3.619 -0.2114  0.2425  0.3307
  274MOL0     C36098   7.337   2.845   3.477 -0.5712 -0.6414 -0.1729
  274MOL0     C36099   7.339   2.982   3.441  0.5690 -0.5274 -1.2014
  274MOL0     C36100   7.330   3.098   3.400  0.0695 -0.3317 -0.3556
  274MOL0     C36101   7.702   3.088   3.984  0.2544 -0.4720  1.2013
  274MOL0     C36102   7.753   3.152   4.097 -0.0807  0.0947 -0.9510
  274MOL0     H36103   7.923   3.162   4.574  0.5626 -3.2106 -0.5028
  274MOL0     H36104   8.039   3.252   4.778 -2.6066 -3.8360 -1.2521
  274MOL0     H36105   8.258   3.566   4.716  0.3471 -0.0704 -0.5631
  274MOL0     H36106   8.407   3.525   4.785 -0.5492  3.0940 -0.2559
  274MOL0     H36107   8.310   3.630   4.966  0.8599 -0.3437 -0.2242
  274MOL0     H36108   8.271   3.464   5.007 -1.7315 -1.9605 -1.7153
  274MOL0     H36109   8.038   3.482   4.920  1.3740 -1.7719  1.5541
  274MOL0     H36110   8.059   3.654   4.871  0.5798  0.9244  0.3628
  274MOL0     H36111   7.930   3.602   5.076 -0.0427 -0.9429  4.6044
  274MOL0     H36112   8.091   3.535   5.137 -0.1465 -0.6242 -0.7419
  274MOL0     H36113   8.183   3.758   5.092  0.9322 -2.5256 -0.8804
  274MOL0     H36114   8.074   3.761   5.222  3.0806 -0.1534 -0.0478
  274MOL0     H36115   7.966   3.824   4.935 -0.9083 -0.3466  1.2374
  274MOL0     H36116   8.064   3.944   5.020  3.7006 -1.2670  0.7045
  274MOL0     H36117   7.797   3.823   5.132  0.8471 -1.6948 -2.7682
  274MOL0     H36118   7.903   3.936   5.210  1.0253 -0.2566 -0.1763
  274MOL0     H36119   7.847   4.109   5.034  2.0707 -0.9375  1.6679
  274MOL0     H36120   7.721   4.056   5.145  1.0451  3.9797  0.5433
  274MOL0     H36121   7.856   3.977   4.783  0.9291  0.6437  1.6977
  274MOL0     H36122   7.727   3.873   4.557 -2.3161 -2.1522  0.2530
  274MOL0     H36123   7.680   4.048   4.556  4.8744 -1.4603 -0.4286
  274MOL0     H36124   7.443   3.991   4.538  2.5988  1.8158 -0.8038
  274MOL0     H36125   7.459   3.830   4.600 -4.3410  0.7100 -3.2098
  274MOL0     H36126   7.567   3.901   4.312  0.6920 -3.5928 -0.6378
  274MOL0     H36127   7.544   3.749   4.383 -3.8014 -1.4896 -1.8218
  274MOL0     H36128   7.314   3.789   4.401  2.8228 -3.7053 -0.4430
  274MOL0     H36129   7.374   3.794   4.244 -1.6010 -1.9814  0.4443
  274MOL0     H36130   7.096   3.821   4.355 -1.8980 -0.5297 -0.5186
  274MOL0     H36131   6.887   3.824   4.255 -1.5679  1.8678  3.9125
  274MOL0     H36132   6.561   3.678   4.003  0.8725  0.7178  2.6511
  274MOL0     H36133   6.358   3.672   3.899 -1.5441  0.7096 -2.5381
  274MOL0     H36134   6.243   4.025   3.710 -0.8803  0.1120 -0.5651
  274MOL0     H36135   6.132   4.094   3.826 -0.5685  2.4570 -2.5428
  274MOL0     H36136   6.055   3.864   3.645 -5.1300 -1.7854  0.8134
  274MOL0     H36137   5.998   4.037   3.636  1.5667  0.3067 -0.6306
  274MOL0     H36138   5.887   4.028   3.846 -1.2123  0.3832 -1.0467
  274MOL0     H36139   5.914   3.855   3.867 -3.5432  0.1976  0.6483
  274MOL0     H36140   5.794   3.944   3.604 -1.8704 -0.9898 -0.0626
  274MOL0     H36141   5.779   3.793   3.691 -2.2892  0.1080 -2.0669
  274MOL0     H36142   5.583   3.903   3.694  2.2404 -2.8429 -1.6505
  274MOL0     H36143   5.646   4.050   3.789 -0.8626 -0.1620  2.2635
  274MOL0     H36144   5.724   3.887   3.968  0.7560  0.4915 -0.2287
  274MOL0     H36145   5.646   3.763   3.872  0.8939 -1.0076  1.7054
  274MOL0     H36146   5.517   4.011   4.001  0.9243 -1.6633  1.0609
  274MOL0     H36147   5.424   3.897   3.896 -1.8249  2.6122  1.0048
  274MOL0     H36148   5.350   3.847   4.101 -0.8000 -1.5910  1.5849
  274MOL0     H36149   5.510   3.875   4.169 -0.5593  1.9833 -2.5192
  274MOL0     H36150   6.324   4.108   3.946 -2.8687 -1.4648  0.9886
  274MOL0     H36151   6.571   4.105   4.031  0.9289 -1.4573 -0.8151
  274MOL0     H36152   7.017   4.132   3.987 -0.8406 -2.1155 -1.4351
  274MOL0     H36153   7.240   4.148   4.100  0.9730 -2.0903  0.4680
  274MOL0     H36154   8.392   3.327   4.551  0.4883 -1.7219  0.4295
  274MOL0     H36155   8.288   3.195   4.355  1.2898  1.6054 -0.2789
  274MOL0     H36156   8.015   2.936   4.141  0.1810 -0.1229 -0.3102
  274MOL0     H36157   7.912   2.829   3.960 -0.5073  0.4652 -1.4246
  274MOL0     H36158   7.529   3.012   3.797 -0.9201 -0.8531  1.7293
  274MOL0     H36159   7.488   2.847   3.851 -1.0659 -0.4869 -1.4572
  274MOL0     H36160   7.572   2.937   3.583  1.5501 -2.4587 -2.6728
  274MOL0     H36161   7.614   2.771   3.638  1.6198  0.0315  3.4027
  274MOL0     H36162   7.329   2.867   3.693  0.5536 -0.7336  1.6808
  274MOL0     H36163   7.376   2.710   3.634 -0.8491 -0.3117 -3.2491
  274MOL0     H36164   7.400   2.797   3.402  0.4996  4.1202 -2.7720
  274MOL0     H36165   7.232   2.818   3.462 -2.2535  5.1218 -1.2501
  274MOL0     H36166   7.303   3.198   3.373  0.0654 -0.1780  0.2016
  274MOL0     H36167   7.628   3.147   3.930  0.7387 -0.8897  0.0411
  274MOL0     H36168   7.715   3.247   4.131  1.0777 -0.1105  1.0837
  275MOL0     O36169   7.170   7.027   3.199 -0.5650  0.3374 -0.5967
  275MOL0     C36170   7.192   7.065   3.090 -0.3240  0.1433  0.5253
  275MOL0     O36171   7.114   7.147   3.018 -0.6194 -0.7790 -0.1950
  275MOL0     C36172   6.991   7.186   3.059  0.4151 -0.1458 -1.1599
  275MOL0     C36173   6.880   7.113   3.050  0.4337  0.6884  0.5286
  275MOL0     C36174   6.756   7.160   3.092  0.0941 -0.4259  0.0265
  275MOL0     C36175   6.743   7.293   3.145 -0.1730 -0.0929 -0.4927
  275MOL0     O36176   6.636   7.359   3.188 -0.1121 -0.2071 -0.4450
  275MOL0     C36177   6.512   7.322   3.121 -0.1800 -0.0680 -0.0587
  275MOL0     C36178   6.393   7.350   3.216 -0.0667 -0.2745 -0.5401
  275MOL0     C36179   6.263   7.288   3.160 -0.1272  0.7248  1.6214
  275MOL0     C36180   6.152   7.362   3.219  0.1476  0.7536 -0.3681
  275MOL0     C36181   6.009   7.304   3.198 -0.0556 -1.3363  0.8245
  275MOL0     C36182   5.907   7.417   3.231  0.0177  0.0921 -0.0200
  275MOL0     C36183   5.769   7.349   3.256 -0.8103  0.2712  0.2333
  275MOL0     C36184   5.673   7.449   3.309 -0.2841 -0.2911  0.3333
  275MOL0     N36185   5.615   7.530   3.201  0.5580  0.5197 -0.7801
  275MOL0     C36186   5.548   7.493   3.091 -0.2952  0.2272  0.0039
  275MOL0     C36187   5.517   7.602   3.032 -0.4036  0.0583  0.1816
  275MOL0     C36188   5.423   7.609   2.918 -0.0787 -0.4546  0.8746
  275MOL0     C36189   5.278   7.560   2.960  0.4033  0.3881  0.2623
  275MOL0     C36190   5.182   7.579   2.837 -0.1194 -1.1183 -0.0517
  275MOL0     C36191   5.032   7.540   2.875 -0.1196  0.8452 -0.3400
  275MOL0     O36192   5.009   7.403   2.840  0.2650 -0.5466  0.3666
  275MOL0     C36193   4.883   7.349   2.869  0.4293 -0.1685 -0.2614
  275MOL0     C36194   4.862   7.223   2.821  0.8096 -1.1241  0.1369
  275MOL0     C36195   4.744   7.159   2.845  1.3042 -0.8748 -0.4071
  275MOL0     C36196   4.638   7.213   2.921  0.3901 -0.3440  0.4699
  275MOL0     C36197   4.501   7.146   2.945  0.1330  0.2989  0.3397
  275MOL0     O36198   4.406   7.223   3.009  0.1920  0.2760  0.2984
  275MOL0     C36199   4.276   7.179   3.004  1.0761 -0.2008 -0.3273
  275MOL0     C36200   4.214   7.099   2.899  0.1278  0.4761  0.1689
  275MOL0     C36201   4.079   7.059   2.897 -0.0983 -0.7390  0.7379
  275MOL0     C36202   3.991   7.118   2.997 -0.7588 -0.0027 -0.4892
  275MOL0     O36203   3.855   7.098   3.010  0.0725 -0.1266  0.1451
  275MOL0     C36204   3.769   7.043   2.903  0.2557 -0.2233  0.6037
  275MOL0     C36205   3.620   7.092   2.930 -0.1860  0.0147  0.2750
  275MOL0     C36206   3.530   7.053   2.809 -0.0119 -0.2194 -0.5330
  275MOL0     C36207   3.403   7.120   2.845 -0.0371  0.2957 -0.3578
  275MOL0     C36208   3.310   7.100   2.717 -0.6866  1.2291 -0.2261
  275MOL0     C36209   3.305   7.231   2.638 -0.4918 -0.4850  0.2353
  275MOL0     C36210   3.183   7.223   2.539  0.6317 -0.1777  0.3215
  275MOL0     C36211   3.164   7.339   2.441 -0.3420 -0.2849 -0.1583
  275MOL0    Cl36212   3.038   7.315   2.323 -0.1118 -0.2223  0.3119
  275MOL0     C36213   4.050   7.197   3.098 -0.3694 -0.1309 -0.2250
  275MOL0     C36214   4.187   7.224   3.102  0.0671 -0.3972 -0.0871
  275MOL0     O36215   4.491   7.028   2.921 -0.0114  0.1489  0.4031
  275MOL0     C36216   4.652   7.344   2.969  0.5124 -0.5909 -1.0306
  275MOL0     C36217   4.772   7.413   2.944 -0.1864  0.4091 -0.1423
  275MOL0     N36218   5.563   7.702   3.113 -0.4352  0.3116 -0.2074
  275MOL0     N36219   5.614   7.658   3.223  0.3616  0.1527  0.7771
  275MOL0     C36220   6.866   7.368   3.153  0.6111 -0.0740  0.3011
  275MOL0     C36221   6.984   7.314   3.115 -0.0165 -0.5909 -0.1500
  275MOL0     C36222   7.335   7.032   3.045  0.0714  0.0864 -0.5116
  275MOL0     C36223   7.385   7.095   2.931  0.4820  0.9658  1.2010
  275MOL0     C36224   7.520   7.086   2.906  0.8580  0.3468  0.5851
  275MOL0     C36225   7.604   7.004   2.981 -0.4026 -0.2072 -0.3219
  275MOL0     O36226   7.742   6.992   2.942 -0.5408  0.0957  0.5864
  275MOL0     C36227   7.847   6.953   3.030 -0.3058 -1.1949  0.4516
  275MOL0     C36228   7.859   7.044   3.160  0.2919 -0.5815  0.2129
  275MOL0     C36229   7.920   7.178   3.133 -0.9781  0.0526  0.1563
  275MOL0     C36230   7.974   7.244   3.255  0.3695  0.6120 -0.0357
  275MOL0     C36231   8.079   7.163   3.331  0.3688 -1.1777  0.7188
  275MOL0     C36232   8.162   7.101   3.387  0.6536  0.3156 -0.2909
  275MOL0     C36233   7.553   6.930   3.087 -0.4702 -0.1744  0.5318
  275MOL0     C36234   7.419   6.948   3.121 -0.0499 -0.0902  0.4958
  275MOL0     H36235   6.890   7.014   3.004 -0.3935  1.4353 -1.3955
  275MOL0     H36236   6.669   7.098   3.072  0.7547 -0.5527 -3.0011
  275MOL0     H36237   6.504   7.214   3.103 -1.7271 -0.4033  2.2239
  275MOL0     H36238   6.495   7.376   3.027 -1.1634 -0.0336  0.1208
  275MOL0     H36239   6.375   7.458   3.221  0.4644 -0.1330 -1.4704
  275MOL0     H36240   6.393   7.302   3.314 -0.9975 -2.1996 -1.4237
  275MOL0     H36241   6.260   7.180   3.180  3.1432 -0.0855 -1.2097
  275MOL0     H36242   6.269   7.291   3.051 -1.6543  0.5280  1.5160
  275MOL0     H36243   6.169   7.367   3.327  0.0766  1.8289 -0.3963
  275MOL0     H36244   6.161   7.459   3.171 -0.0746  1.4430  0.9337
  275MOL0     H36245   5.993   7.210   3.251  0.9352 -2.8729 -1.4163
  275MOL0     H36246   6.000   7.290   3.090 -0.7054 -0.3063  0.7353
  275MOL0     H36247   5.892   7.486   3.147  1.4135  1.0783  0.5080
  275MOL0     H36248   5.945   7.472   3.318  4.5687 -2.1255 -0.3441
  275MOL0     H36249   5.740   7.313   3.157  0.5171 -1.6027  0.4848
  275MOL0     H36250   5.779   7.267   3.328  1.9170  0.4622  0.1979
  275MOL0     H36251   5.715   7.515   3.386  1.4679 -0.3683 -0.5020
  275MOL0     H36252   5.589   7.390   3.346 -0.3173 -1.0174 -0.8440
  275MOL0     H36253   5.527   7.389   3.069  1.5722  0.0762 -1.3264
  275MOL0     H36254   5.462   7.536   2.846 -3.7491 -0.6166 -1.1614
  275MOL0     H36255   5.411   7.711   2.882 -0.7331 -1.1357 -0.9461
  275MOL0     H36256   5.247   7.626   3.042  1.4160  1.0660  0.1188
  275MOL0     H36257   5.270   7.454   2.987 -0.2153 -0.3040 -2.3958
  275MOL0     H36258   5.193   7.684   2.808  3.8382 -1.8209 -1.6580
  275MOL0     H36259   5.220   7.517   2.754  0.4666  1.4533 -1.8150
  275MOL0     H36260   4.955   7.610   2.839 -0.2400  5.0355  6.3083
  275MOL0     H36261   5.026   7.557   2.983 -1.8598  3.2320 -0.7188
  275MOL0     H36262   4.937   7.181   2.754 -1.0121 -0.3229 -2.5827
  275MOL0     H36263   4.727   7.056   2.816  2.9153 -0.1434 -4.6739
  275MOL0     H36264   4.275   7.055   2.821 -2.1831 -3.7210  0.3935
  275MOL0     H36265   4.048   6.983   2.826 -1.6004  1.8914 -1.6567
  275MOL0     H36266   3.782   6.934   2.897  2.0501 -0.0538  0.9225
  275MOL0     H36267   3.804   7.087   2.809 -0.0836 -2.9528 -0.9107
  275MOL0     H36268   3.619   7.201   2.941 -0.1489  0.3664 -2.3545
  275MOL0     H36269   3.581   7.045   3.020  0.3537 -2.0190 -0.5046
  275MOL0     H36270   3.519   6.944   2.797 -0.2920 -0.2591  0.0539
  275MOL0     H36271   3.562   7.101   2.716 -2.8533  2.0015 -0.4907
  275MOL0     H36272   3.357   7.070   2.931 -0.7033  0.3749 -0.6625
  275MOL0     H36273   3.412   7.223   2.880  0.2860 -0.3371  1.5726
  275MOL0     H36274   3.207   7.068   2.735 -0.8148  0.0876 -2.6061
  275MOL0     H36275   3.349   7.024   2.649 -4.5938  0.8164 -2.3108
  275MOL0     H36276   3.396   7.255   2.582 -0.7095  0.1735  0.1541
  275MOL0     H36277   3.292   7.313   2.709 -1.6979  0.0277 -0.5359
  275MOL0     H36278   3.192   7.131   2.482 -0.9999  0.8035 -1.6420
  275MOL0     H36279   3.093   7.210   2.599 -1.6645 -0.8730 -3.0056
  275MOL0     H36280   3.254   7.350   2.380 -2.2523  1.3099 -2.8776
  275MOL0     H36281   3.137   7.427   2.499  0.6629 -0.1059  0.0616
  275MOL0     H36282   3.988   7.235   3.178  0.7895 -1.6015  1.4393
  275MOL0     H36283   4.220   7.284   3.186 -6.8791 -0.9002  3.7278
  275MOL0     H36284   4.566   7.396   3.009 -2.4250 -4.6553 -1.3811
  275MOL0     H36285   4.768   7.519   2.963 -1.9936 -0.1038  3.1912
  275MOL0     H36286   6.852   7.468   3.193  0.2104 -1.1227  3.0560
  275MOL0     H36287   7.075   7.372   3.133 -0.2528 -0.1786 -0.2664
  275MOL0     H36288   7.325   7.162   2.870  0.3283 -0.9659 -0.8973
  275MOL0     H36289   7.550   7.137   2.815 -0.0974  0.6456  0.4186
  275MOL0     H36290   7.941   6.964   2.974  0.6412  1.2399  2.3258
  275MOL0     H36291   7.832   6.849   3.059 -3.2161 -0.9349  0.1087
  275MOL0     H36292   7.762   7.060   3.208 -1.8079 -4.2746 -2.3253
  275MOL0     H36293   7.928   6.991   3.226  3.4866  3.8474  0.9039
  275MOL0     H36294   7.849   7.249   3.090 -0.7099  1.2659  1.6425
  275MOL0     H36295   8.005   7.167   3.065 -1.6491 -0.3647 -0.6423
  275MOL0     H36296   8.001   7.350   3.244 -0.5711  0.7395 -1.4480
  275MOL0     H36297   7.886   7.257   3.319  2.5278  3.9072  2.6163
  275MOL0     H36298   8.237   7.048   3.442  0.0470  1.0905  1.3382
  275MOL0     H36299   7.620   6.861   3.138  0.0470 -1.8183 -2.1584
  275MOL0     H36300   7.372   6.905   3.209 -1.5271 -0.8043 -0.5960
  276MOL0     O36301   6.096   3.272   4.359  0.4584 -0.3294  0.2305
  276MOL0     C36302   6.082   3.159   4.408  0.3863  0.1790 -0.8988
  276MOL0     O36303   5.967   3.106   4.464  0.1599 -0.4090  0.1328
  276MOL0     C36304   5.845   3.168   4.469  0.7014  0.4233 -0.7583
  276MOL0     C36305   5.759   3.130   4.576  0.0609 -0.7078 -0.5745
  276MOL0     C36306   5.627   3.174   4.573  0.2479  0.0599  0.6003
  276MOL0     C36307   5.566   3.249   4.462  0.9348 -0.1738  0.4566
  276MOL0     O36308   5.431   3.274   4.444  0.9199  0.6717  0.4558
  276MOL0     C36309   5.386   3.377   4.356 -0.8863 -1.1605  0.0328
  276MOL0     C36310   5.237   3.405   4.358 -0.5918 -0.5358 -0.1619
  276MOL0     C36311   5.194   3.484   4.242 -0.3119  0.6167 -0.2181
  276MOL0     C36312   5.038   3.483   4.227  0.6269  0.4980 -0.0541
  276MOL0     C36313   4.993   3.599   4.134  1.2003 -0.0409 -0.3559
  276MOL0     C36314   4.837   3.636   4.161 -0.0609 -0.5785 -0.1185
  276MOL0     C36315   4.779   3.734   4.058  0.6626  0.0351  0.8190
  276MOL0     C36316   4.624   3.761   4.093 -1.2563 -0.2372  0.3383
  276MOL0     N36317   4.573   3.867   4.008 -0.5156 -0.2824 -0.3208
  276MOL0     C36318   4.603   3.901   3.875  0.2955 -0.3362  0.7851
  276MOL0     C36319   4.494   3.979   3.842  0.1193  0.1294  0.3669
  276MOL0     C36320   4.449   4.032   3.708  0.0311 -0.2336 -0.8236
  276MOL0     C36321   4.365   3.933   3.637  0.2785  0.0974  0.5351
  276MOL0     C36322   4.241   3.885   3.712  0.1587  0.1272 -0.0074
  276MOL0     C36323   4.129   3.984   3.725 -0.2836  0.3694 -1.3103
  276MOL0     O36324   4.065   3.993   3.596  0.0824  1.0630 -1.3481
  276MOL0     C36325   3.976   4.084   3.551 -0.6667 -0.0472  0.2729
  276MOL0     C36326   3.938   4.082   3.420  0.6123 -1.3186 -0.3926
  276MOL0     C36327   3.837   4.166   3.368  0.7561 -0.2389 -0.9784
  276MOL0     C36328   3.777   4.258   3.453 -1.1036 -0.2531  0.1451
  276MOL0     C36329   3.666   4.346   3.412 -0.4508  0.4850  0.1341
  276MOL0     O36330   3.659   4.365   3.273  1.0504  0.0880 -0.2657
  276MOL0     C36331   3.551   4.444   3.241  0.6275  0.9157 -0.8810
  276MOL0     C36332   3.423   4.395   3.226  0.0478 -0.5148  0.8180
  276MOL0     C36333   3.312   4.473   3.191 -0.2895 -0.3540  0.8599
  276MOL0     C36334   3.333   4.608   3.162  0.0769 -0.0367 -0.3488
  276MOL0     O36335   3.230   4.681   3.108  1.2101  0.5398  0.4176
  276MOL0     C36336   3.115   4.690   3.198  0.0200  0.7141  1.0122
  276MOL0     C36337   2.982   4.766   3.146 -0.4876 -0.8375  0.1569
  276MOL0     C36338   2.954   4.713   3.008 -0.2874  0.9163  0.0278
  276MOL0     C36339   2.836   4.790   2.955 -0.3046 -0.1069  1.4147
  276MOL0     C36340   2.794   4.734   2.817 -0.1721 -0.0031 -0.0237
  276MOL0     C36341   2.683   4.834   2.765  0.6150  0.1844  0.7504
  276MOL0     C36342   2.639   4.780   2.627  0.6579 -0.7536  0.8375
  276MOL0     C36343   2.533   4.866   2.566  0.4231 -0.2392 -0.4383
  276MOL0    Cl36344   2.377   4.835   2.657  0.1787  0.3658  0.1369
  276MOL0     C36345   3.463   4.663   3.178 -0.1208  0.8244  0.4074
  276MOL0     C36346   3.576   4.575   3.213  0.3255 -0.4033 -0.1088
  276MOL0     O36347   3.593   4.395   3.494 -0.7205 -0.6341  0.2832
  276MOL0     C36348   3.806   4.256   3.594 -0.4414 -0.5469  0.7845
  276MOL0     C36349   3.905   4.168   3.643  0.4375 -0.3761  0.4930
  276MOL0     N36350   4.432   4.012   3.953 -0.9885  0.5615 -0.7324
  276MOL0     N36351   4.478   3.954   4.054 -0.0445  0.3635 -0.3426
  276MOL0     C36352   5.654   3.274   4.360 -0.1996  0.6266 -0.4349
  276MOL0     C36353   5.784   3.236   4.361 -0.0671  0.1243 -0.3343
  276MOL0     C36354   6.213   3.093   4.440 -1.0789 -1.6333 -0.7567
  276MOL0     C36355   6.220   2.956   4.470  0.7591  0.4779  0.0324
  276MOL0     C36356   6.325   2.889   4.516  0.1897  1.2703  0.3470
  276MOL0     C36357   6.443   2.958   4.538  0.0118 -0.8244  0.2722
  276MOL0     O36358   6.555   2.886   4.558  0.7304  0.1334 -0.4161
  276MOL0     C36359   6.654   2.956   4.637 -0.0908  0.1370  0.7700
  276MOL0     C36360   6.712   2.868   4.745 -0.8635  0.1294 -0.1493
  276MOL0     C36361   6.624   2.797   4.847  0.1586  1.4690 -0.1602
  276MOL0     C36362   6.513   2.706   4.783  0.7230  0.0796 -0.3265
  276MOL0     C36363   6.434   2.617   4.869  0.6976  0.5483 -1.7667
  276MOL0     C36364   6.387   2.514   4.918 -0.6307 -0.4927 -0.9051
  276MOL0     C36365   6.449   3.084   4.485  0.2350 -0.4865  0.0702
  276MOL0     C36366   6.339   3.159   4.439 -0.4807 -0.6964 -0.4700
  276MOL0     H36367   5.781   3.062   4.657  4.1696  1.0580  0.0604
  276MOL0     H36368   5.564   3.137   4.653 -1.0286  3.2633  1.2534
  276MOL0     H36369   5.421   3.362   4.254  1.2676  3.7712 -0.2227
  276MOL0     H36370   5.450   3.463   4.376  0.3007 -1.1427 -3.1881
  276MOL0     H36371   5.217   3.462   4.450  0.3175 -2.4781  1.3283
  276MOL0     H36372   5.181   3.312   4.359 -1.5892  0.0548  0.7538
  276MOL0     H36373   5.243   3.425   4.163  3.3483 -1.6581  3.3685
  276MOL0     H36374   5.242   3.581   4.259  0.4044 -0.0977  2.2657
  276MOL0     H36375   5.000   3.392   4.180  2.0135  0.8164 -1.9350
  276MOL0     H36376   4.991   3.500   4.324  1.8469  2.5990  0.2420
  276MOL0     H36377   5.006   3.568   4.030  0.7432  0.7714 -0.6581
  276MOL0     H36378   5.048   3.693   4.143 -0.3366  1.1088 -2.3727
  276MOL0     H36379   4.823   3.688   4.256 -2.2463 -1.9603  0.3910
  276MOL0     H36380   4.771   3.549   4.155  2.4030 -2.5773 -0.1411
  276MOL0     H36381   4.835   3.827   4.069 -3.6032  3.1496 -1.1519
  276MOL0     H36382   4.787   3.697   3.955  0.3649  2.7421 -0.2361
  276MOL0     H36383   4.618   3.802   4.195 -0.7658  4.8889 -1.4060
  276MOL0     H36384   4.564   3.669   4.085 -1.6073  0.0507 -0.4728
  276MOL0     H36385   4.664   3.856   3.798 -0.6939 -1.2112  0.4851
  276MOL0     H36386   4.538   4.051   3.647  3.9961 -3.4321  3.1967
  276MOL0     H36387   4.390   4.120   3.733 -0.7304 -1.0097  0.2213
  276MOL0     H36388   4.416   3.840   3.613 -0.7230 -0.4122  0.3300
  276MOL0     H36389   4.322   3.978   3.547  0.6316  1.7397  1.1431
  276MOL0     H36390   4.198   3.794   3.669 -0.7316  0.0367  1.0372
  276MOL0     H36391   4.264   3.849   3.813 -1.4132 -2.1218 -0.3907
  276MOL0     H36392   4.174   4.075   3.767 -0.9832 -0.8678  2.4971
  276MOL0     H36393   4.050   3.961   3.797  0.5556  0.3792 -0.3615
  276MOL0     H36394   3.987   4.009   3.357  0.2724 -1.3108 -0.6745
  276MOL0     H36395   3.807   4.160   3.264  1.0308  2.2285 -1.2657
  276MOL0     H36396   3.406   4.289   3.239  0.7305 -0.8321 -0.6358
  276MOL0     H36397   3.216   4.422   3.186  0.7154 -2.5559  2.4204
  276MOL0     H36398   3.149   4.741   3.289  0.0827 -0.4421  1.6572
  276MOL0     H36399   3.083   4.587   3.220 -1.9601  1.5667  2.4431
  276MOL0     H36400   2.997   4.874   3.134 -2.1316 -0.6733 -0.6435
  276MOL0     H36401   2.895   4.739   3.206 -2.6033 -1.9270 -3.1193
  276MOL0     H36402   2.919   4.610   3.003 -0.0859  0.4528  4.2389
  276MOL0     H36403   3.045   4.734   2.952 -0.5395  0.2326 -0.6486
  276MOL0     H36404   2.751   4.807   3.022 -0.7561  2.6813  0.2803
  276MOL0     H36405   2.878   4.887   2.929 -1.2696  0.3613  1.5721
  276MOL0     H36406   2.758   4.634   2.841  0.9982 -0.5996 -0.6601
  276MOL0     H36407   2.877   4.729   2.746  1.6723  0.0997  2.0306
  276MOL0     H36408   2.723   4.935   2.756  1.9469 -0.4226 -0.5787
  276MOL0     H36409   2.603   4.829   2.839  0.7719  0.6261  0.9517
  276MOL0     H36410   2.717   4.759   2.553 -2.0313  0.1939 -2.5332
  276MOL0     H36411   2.586   4.685   2.630 -0.0334 -0.4573 -0.6446
  276MOL0     H36412   2.506   4.842   2.463 -1.7335  1.9651 -0.4925
  276MOL0     H36413   2.557   4.971   2.582  2.8438 -0.5490 -1.6112
  276MOL0     H36414   3.486   4.763   3.143  0.1972 -0.1129 -2.3086
  276MOL0     H36415   3.672   4.625   3.223 -0.2459  0.9081 -0.9677
  276MOL0     H36416   3.756   4.324   3.663  1.4900  0.5821  1.1409
  276MOL0     H36417   3.939   4.160   3.746 -0.3763 -2.7654  0.6373
  276MOL0     H36418   5.627   3.325   4.268 -1.3759  1.1855  0.1858
  276MOL0     H36419   5.854   3.267   4.283 -0.1117  1.8689  0.2710
  276MOL0     H36420   6.129   2.897   4.472 -0.0728  1.7009 -0.3682
  276MOL0     H36421   6.312   2.785   4.546 -0.6651  1.4231  0.5214
  276MOL0     H36422   6.627   3.048   4.689  2.9761  3.1264 -2.4738
  276MOL0     H36423   6.732   2.996   4.573 -0.6405  0.9995  0.6219
  276MOL0     H36424   6.771   2.792   4.692 -0.5851 -0.5111  1.0517
  276MOL0     H36425   6.790   2.923   4.798 -2.5179  2.1670  0.2872
  276MOL0     H36426   6.572   2.867   4.913 -2.5122 -2.5811  2.5380
  276MOL0     H36427   6.685   2.736   4.915 -1.2767  0.7787  0.5425
  276MOL0     H36428   6.440   2.772   4.735 -0.3491 -2.0959 -1.9007
  276MOL0     H36429   6.556   2.640   4.707  2.6747 -0.2872  1.0316
  276MOL0     H36430   6.351   2.415   4.941  0.3521 -0.8866 -0.9991
  276MOL0     H36431   6.546   3.131   4.480 -1.2370  2.7555 -0.7749
  276MOL0     H36432   6.342   3.261   4.402  0.1383 -0.7011 -0.4509
  277MOL0     O36433   8.592   6.758   8.148 -0.3936  0.1170 -0.4773
  277MOL0     C36434   8.691   6.748   8.075  0.2056  0.0628 -0.4555
  277MOL0     O36435   8.704   6.795   7.944 -0.0226  0.2581  0.2609
  277MOL0     C36436   8.594   6.852   7.873 -0.4531  0.5974  0.4127
  277MOL0     C36437   8.460   6.803   7.886 -0.0681  0.7236  0.6722
  277MOL0     C36438   8.350   6.855   7.807 -0.4360  0.2793 -0.7389
  277MOL0     C36439   8.384   6.961   7.723  0.6835 -0.1582  0.7011
  277MOL0     O36440   8.275   7.014   7.651  0.0706 -1.0171 -0.6826
  277MOL0     C36441   8.299   7.066   7.516 -0.1117 -0.3956 -0.2107
  277MOL0     C36442   8.150   7.068   7.459 -0.3026 -0.9096 -0.8671
  277MOL0     C36443   8.055   7.169   7.527  0.0081  0.4373  0.9212
  277MOL0     C36444   7.911   7.136   7.490 -0.4657  0.0235 -0.6944
  277MOL0     C36445   7.827   7.263   7.508  0.1713 -0.2311 -0.0204
  277MOL0     C36446   7.850   7.320   7.647  0.1028  0.2406 -0.2315
  277MOL0     C36447   7.766   7.436   7.679  0.2628  0.4684  0.5774
  277MOL0     C36448   7.622   7.401   7.715 -0.8796  0.2154 -0.4237
  277MOL0     N36449   7.549   7.522   7.763  0.6739  0.1325  0.4857
  277MOL0     C36450   7.590   7.635   7.823 -0.3658  1.1799 -0.8500
  277MOL0     C36451   7.484   7.694   7.872  0.6125  0.2148 -0.0368
  277MOL0     C36452   7.493   7.823   7.948  0.9418 -0.0341  0.3608
  277MOL0     C36453   7.447   7.950   7.875  0.1613  0.5413 -0.3078
  277MOL0     C36454   7.446   8.063   7.983  0.3667  0.8934  1.4558
  277MOL0     C36455   7.416   8.195   7.926 -0.7247 -0.9118  0.2554
  277MOL0     O36456   7.394   8.287   8.039 -0.3797 -0.0386 -0.0462
  277MOL0     C36457   7.256   8.325   8.072 -0.4251 -0.0972  0.8364
  277MOL0     C36458   7.224   8.438   8.149  0.2079  0.1071  0.2508
  277MOL0     C36459   7.094   8.490   8.143 -0.6204 -0.3874  0.5747
  277MOL0     C36460   6.987   8.429   8.076  0.6021  0.5855  0.8035
  277MOL0     C36461   6.852   8.493   8.087  0.3882 -0.4208  0.1903
  277MOL0     O36462   6.744   8.425   8.039  0.3181 -0.0966 -0.3523
  277MOL0     C36463   6.610   8.467   8.057  0.2405 -0.0914 -0.6959
  277MOL0     C36464   6.558   8.594   8.068 -0.0594  0.3731  0.1901
  277MOL0     C36465   6.425   8.619   8.099  0.1489  0.7444 -0.4384
  277MOL0     C36466   6.330   8.511   8.108 -0.2571  0.8140  0.7738
  277MOL0     O36467   6.196   8.532   8.122 -0.3461 -0.3123 -0.4463
  277MOL0     C36468   6.148   8.612   8.237  0.4952  0.6959  0.0603
  277MOL0     C36469   6.053   8.713   8.177  0.0802 -0.0874 -0.7705
  277MOL0     C36470   5.911   8.655   8.148 -0.2299 -0.0666  0.5392
  277MOL0     C36471   5.827   8.669   8.269 -0.3684  0.5224  0.6230
  277MOL0     C36472   5.685   8.623   8.234  0.1992 -0.3094  0.9498
  277MOL0     C36473   5.608   8.675   8.104  0.0010  0.4078  0.6618
  277MOL0     C36474   5.477   8.613   8.104  0.3523  0.3080 -0.0645
  277MOL0     C36475   5.384   8.677   7.992  0.8459 -0.5794 -0.1178
  277MOL0    Cl36476   5.447   8.660   7.827  0.2748 -0.3136  0.0379
  277MOL0     C36477   6.385   8.381   8.089  0.0295 -0.3928 -0.5885
  277MOL0     C36478   6.521   8.358   8.051 -0.4982 -0.0876 -0.0829
  277MOL0     O36479   6.843   8.599   8.158  0.6460 -0.5120  0.6536
  277MOL0     C36480   7.011   8.304   8.023  0.0824 -0.2495 -0.8930
  277MOL0     C36481   7.150   8.252   8.022  0.0236  0.9151  0.0439
  277MOL0     N36482   7.374   7.612   7.861  0.6970 -0.1431  0.3922
  277MOL0     N36483   7.412   7.517   7.782  0.0992 -0.4335 -0.6572
  277MOL0     C36484   8.514   7.015   7.716 -0.6031  0.1383 -0.2443
  277MOL0     C36485   8.621   6.958   7.793 -0.1126  0.2180  1.0808
  277MOL0     C36486   8.811   6.671   8.126 -0.9208 -0.0618  0.4291
  277MOL0     C36487   8.923   6.667   8.038  0.9972 -0.3129 -0.6049
  277MOL0     C36488   9.045   6.613   8.084 -0.4340 -0.1759  0.9585
  277MOL0     C36489   9.056   6.576   8.219  0.5474 -0.2448  0.6276
  277MOL0     O36490   9.171   6.537   8.277 -0.3700 -0.6158  0.1665
  277MOL0     C36491   9.238   6.412   8.250 -0.0810 -0.0896  0.4866
  277MOL0     C36492   9.344   6.424   8.140  0.3693 -0.0415 -0.0764
  277MOL0     C36493   9.440   6.308   8.137  1.1060 -0.6422  0.7733
  277MOL0     C36494   9.562   6.342   8.230 -1.2841 -0.2328  0.1134
  277MOL0     C36495   9.657   6.241   8.220 -0.2366  0.3918  0.0545
  277MOL0     C36496   9.748   6.164   8.237  0.0872  0.4913  0.1301
  277MOL0     C36497   8.944   6.590   8.308 -0.0468 -0.6866  0.2961
  277MOL0     C36498   8.822   6.645   8.260 -0.7003  0.6324 -1.3547
  277MOL0     H36499   8.449   6.714   7.946  3.8672 -0.5707 -0.2349
  277MOL0     H36500   8.248   6.819   7.817 -0.1631 -0.2072  0.4444
  277MOL0     H36501   8.346   6.987   7.458  2.6335 -0.9573  2.5630
  277MOL0     H36502   8.342   7.167   7.508 -3.3993  1.2527  1.0065
  277MOL0     H36503   8.104   6.969   7.468  0.1377 -0.9958  0.7947
  277MOL0     H36504   8.153   7.097   7.353 -0.2785 -1.8371 -1.1350
  277MOL0     H36505   8.082   7.264   7.480  0.2820 -0.8701 -1.7634
  277MOL0     H36506   8.070   7.181   7.635 -0.3777  1.4729  0.8684
  277MOL0     H36507   7.902   7.094   7.389 -1.8095 -0.9010 -0.2156
  277MOL0     H36508   7.890   7.060   7.565  3.2730  0.9748  1.5242
  277MOL0     H36509   7.722   7.244   7.485 -0.5762  1.7064  1.4889
  277MOL0     H36510   7.842   7.345   7.437 -0.5406 -1.4232 -1.6077
  277MOL0     H36511   7.952   7.355   7.663 -0.0284 -0.0718  1.4557
  277MOL0     H36512   7.848   7.237   7.718  5.8322 -0.6234 -0.6411
  277MOL0     H36513   7.813   7.499   7.755 -1.3325  1.5666  0.7089
  277MOL0     H36514   7.757   7.504   7.593  0.8334 -0.5557 -0.3169
  277MOL0     H36515   7.645   7.336   7.800  1.6235 -0.0779 -1.2255
  277MOL0     H36516   7.571   7.348   7.635  0.5966  0.5708 -1.6483
  277MOL0     H36517   7.689   7.671   7.849 -1.7675  2.9267  2.7402
  277MOL0     H36518   7.594   7.853   7.975  0.7064  1.5080 -0.3322
  277MOL0     H36519   7.432   7.800   8.036 -6.1107 -1.2541 -4.0539
  277MOL0     H36520   7.349   7.928   7.831 -0.1202  1.1252  0.0009
  277MOL0     H36521   7.520   7.971   7.797  2.1646  1.1499  1.6320
  277MOL0     H36522   7.360   8.041   8.047  1.7858 -1.4529  2.6865
  277MOL0     H36523   7.535   8.070   8.046  0.6771  1.0655  1.0014
  277MOL0     H36524   7.340   8.186   7.848 -1.6364 -1.7296  1.2050
  277MOL0     H36525   7.495   8.229   7.858  0.0901 -0.2613  1.4803
  277MOL0     H36526   7.302   8.480   8.211 -1.4606  0.8777  1.9235
  277MOL0     H36527   7.076   8.589   8.183 -2.4016 -0.8503  1.0009
  277MOL0     H36528   6.629   8.676   8.064 -0.1642  0.4254 -1.3571
  277MOL0     H36529   6.391   8.721   8.108  1.4829  1.1363  0.4164
  277MOL0     H36530   6.231   8.656   8.293 -1.5760  0.8091  3.2972
  277MOL0     H36531   6.102   8.553   8.317  3.1379  2.4716  3.1380
  277MOL0     H36532   6.108   8.743   8.087  1.4335  1.6874  0.5617
  277MOL0     H36533   6.044   8.802   8.239  1.4225 -0.5381  0.1189
  277MOL0     H36534   5.908   8.556   8.100  1.7381 -0.6735  1.5286
  277MOL0     H36535   5.876   8.709   8.060 -1.0399 -3.0549 -1.1410
  277MOL0     H36536   5.868   8.617   8.355 -1.4356 -1.4006  0.0239
  277MOL0     H36537   5.818   8.777   8.284 -3.9882  0.1718  2.1827
  277MOL0     H36538   5.625   8.662   8.316 -1.8273 -0.3622 -0.4407
  277MOL0     H36539   5.691   8.514   8.227 -1.0617 -0.4184  1.4311
  277MOL0     H36540   5.664   8.647   8.014  0.3372 -0.9037  1.2522
  277MOL0     H36541   5.591   8.783   8.105  2.1536  0.7814  0.4897
  277MOL0     H36542   5.478   8.507   8.078 -0.1624  0.1415  0.5567
  277MOL0     H36543   5.437   8.638   8.203  1.4069  1.6611  0.0528
  277MOL0     H36544   5.380   8.785   8.007  1.0062 -0.8231  1.9916
  277MOL0     H36545   5.280   8.643   7.997  0.6041  0.2193  0.2733
  277MOL0     H36546   6.309   8.303   8.093 -0.2293 -0.1010  0.6511
  277MOL0     H36547   6.567   8.261   8.033  2.2031  1.3223 -1.2355
  277MOL0     H36548   6.934   8.248   7.971 -0.2914 -2.3438  1.6745
  277MOL0     H36549   7.162   8.162   7.962  5.1728  1.7543 -0.5652
  277MOL0     H36550   8.535   7.098   7.650 -0.4358  0.1938 -0.1214
  277MOL0     H36551   8.717   7.007   7.785 -0.6727  1.3292  0.9155
  277MOL0     H36552   8.926   6.685   7.931  2.8395 -1.1402 -0.7200
  277MOL0     H36553   9.137   6.615   8.026 -1.6641  1.6771 -1.0847
  277MOL0     H36554   9.176   6.328   8.218  0.5321 -1.0240  1.6325
  277MOL0     H36555   9.297   6.390   8.340 -1.2181 -3.0078  0.6448
  277MOL0     H36556   9.296   6.426   8.041  0.1133 -2.0252 -0.0241
  277MOL0     H36557   9.386   6.525   8.147 -1.6428  0.7459  1.6948
  277MOL0     H36558   9.475   6.292   8.034 -1.5410  0.1157 -0.3409
  277MOL0     H36559   9.393   6.221   8.181 -0.3916 -0.1406  0.2249
  277MOL0     H36560   9.611   6.438   8.208 -0.9343 -0.0703  1.5282
  277MOL0     H36561   9.538   6.353   8.336  1.3466 -0.2199  0.7676
  277MOL0     H36562   9.829   6.095   8.251 -0.0552 -0.5635 -3.2747
  277MOL0     H36563   8.945   6.565   8.414 -0.1572  0.7403  0.6491
  277MOL0     H36564   8.748   6.667   8.337  0.3101 -0.3673 -0.0519
  278MOL0     O36565   7.361   3.316  10.635 -0.4260 -0.2148 -0.0244
  278MOL0     C36566   7.318   3.411  10.705  0.5900 -0.8556  0.1425
  278MOL0     O36567   7.390   3.472  10.798 -0.1538 -0.3378 -0.2763
  278MOL0     C36568   7.524   3.437  10.811 -0.4885  0.5557 -0.2117
  278MOL0     C36569   7.631   3.518  10.775 -0.0872  1.1223  0.2423
  278MOL0     C36570   7.761   3.466  10.796  0.6068 -0.0820 -0.6615
  278MOL0     C36571   7.782   3.337  10.860 -0.5116  0.0370 -0.5506
  278MOL0     O36572   7.908   3.285  10.880 -0.3835 -0.7867  0.2868
  278MOL0     C36573   7.925   3.170  10.954 -0.1381  0.3671  0.0677
  278MOL0     C36574   8.076   3.143  10.959 -0.6402  0.1672 -0.7682
  278MOL0     C36575   8.129   3.141  11.110  0.3741  0.2065  0.4527
  278MOL0     C36576   8.274   3.075  11.124  0.7513  0.8343  0.0692
  278MOL0     C36577   8.323   3.020  11.264  0.3889  0.4019  0.1899
  278MOL0     C36578   8.327   3.130  11.379 -0.0895 -1.0187  0.1186
  278MOL0     C36579   8.375   3.059  11.498 -0.1668 -0.0523 -0.1458
  278MOL0     C36580   8.386   3.177  11.604 -0.4256 -0.8422 -0.5758
  278MOL0     N36581   8.496   3.269  11.579 -0.2146  0.4836 -1.1676
  278MOL0     C36582   8.486   3.403  11.538 -0.3617 -0.1753  0.1260
  278MOL0     C36583   8.608   3.444  11.491 -0.4831 -0.1653 -0.2267
  278MOL0     C36584   8.645   3.574  11.412 -0.1222  0.7309 -1.4934
  278MOL0     C36585   8.797   3.595  11.415  0.2459  0.2760 -0.0999
  278MOL0     C36586   8.839   3.726  11.365  0.4348 -0.0554  0.7432
  278MOL0     C36587   8.879   3.735  11.220 -0.0427 -0.2766 -0.5502
  278MOL0     O36588   8.909   3.602  11.154 -0.1700  0.6627 -0.6024
  278MOL0     C36589   8.950   3.597  11.021 -0.5333 -0.0826  0.1079
  278MOL0     C36590   8.943   3.479  10.954  0.0334 -0.2718 -0.0104
  278MOL0     C36591   8.971   3.473  10.817 -1.1104  0.1773 -0.9660
  278MOL0     C36592   9.020   3.586  10.755  0.5388 -0.4464  0.3910
  278MOL0     C36593   9.052   3.569  10.612  0.5759  0.5566  0.7441
  278MOL0     O36594   9.052   3.680  10.536  0.2854  0.3883  0.7285
  278MOL0     C36595   9.084   3.685  10.400  0.0129  0.4001 -0.1271
  278MOL0     C36596   9.206   3.765  10.370  0.8874  0.2279 -0.2723
  278MOL0     C36597   9.250   3.773  10.231  0.0936  1.4344 -0.0807
  278MOL0     C36598   9.194   3.692  10.131 -0.3306 -0.3343  0.8946
  278MOL0     O36599   9.242   3.698   9.998 -0.3702  0.0287  0.4238
  278MOL0     C36600   9.379   3.740   9.984  0.1612  0.2339 -0.6136
  278MOL0     C36601   9.359   3.869   9.908  0.1784 -0.2095 -0.7386
  278MOL0     C36602   9.478   3.936   9.843 -0.8827  0.2194 -0.3352
  278MOL0     C36603   9.536   3.861   9.723 -0.0155 -0.6734 -0.2096
  278MOL0     C36604   9.656   3.938   9.667 -0.5869  0.2299 -0.0494
  278MOL0     C36605   9.739   3.855   9.563 -0.5732 -0.4457  0.5278
  278MOL0     C36606   9.829   3.746   9.616  0.4115  0.3594  0.2351
  278MOL0     C36607   9.959   3.790   9.687  0.3276 -0.5986  0.5626
  278MOL0    Cl36608   9.930   3.851   9.848  0.0008 -0.2555  0.1287
  278MOL0     C36609   9.081   3.620  10.168 -0.2168 -0.6700 -1.7292
  278MOL0     C36610   9.027   3.611  10.296  0.1694  0.8140 -0.9574
  278MOL0     O36611   9.067   3.454  10.565  0.3232 -0.2181  0.0296
  278MOL0     C36612   9.032   3.705  10.816  0.4967  0.4491  0.6078
  278MOL0     C36613   8.995   3.708  10.949  0.0277  0.0388  0.1296
  278MOL0     N36614   8.693   3.339  11.507 -0.2048 -0.5035 -0.7600
  278MOL0     N36615   8.634   3.238  11.561  0.2309  0.6759 -0.0506
  278MOL0     C36616   7.672   3.268  10.907  0.9673  0.4818  0.2619
  278MOL0     C36617   7.540   3.318  10.882 -1.0031  0.6398  0.0933
  278MOL0     C36618   7.169   3.443  10.694  0.4082 -0.1164 -1.2033
  278MOL0     C36619   7.074   3.369  10.614 -0.8088 -0.1448  0.0874
  278MOL0     C36620   6.942   3.399  10.610  0.0515  0.3863 -0.5480
  278MOL0     C36621   6.901   3.499  10.702  0.1796  0.9179 -0.4436
  278MOL0     O36622   6.775   3.543  10.718  0.7196 -0.1087 -0.2101
  278MOL0     C36623   6.689   3.458  10.805  0.0151 -0.3905 -0.6363
  278MOL0     C36624   6.590   3.388  10.710 -0.0478  0.2291  0.6147
  278MOL0     C36625   6.495   3.296  10.792 -0.0333 -0.6759 -0.1044
  278MOL0     C36626   6.434   3.187  10.707  0.1543  0.5206 -0.2582
  278MOL0     C36627   6.349   3.104  10.792 -0.9968 -0.0567 -0.4624
  278MOL0     C36628   6.277   3.023  10.848 -0.0778  0.3987 -0.0510
  278MOL0     C36629   6.994   3.580  10.765  0.2952  0.4612 -0.3268
  278MOL0     C36630   7.128   3.555  10.761 -1.0625  0.5215  0.3668
  278MOL0     H36631   7.629   3.619  10.736  3.2343  0.9764 -0.6635
  278MOL0     H36632   7.838   3.529  10.752 -0.5294  1.1302 -0.9639
  278MOL0     H36633   7.866   3.086  10.918  1.2732 -0.5248 -0.2336
  278MOL0     H36634   7.883   3.193  11.053 -0.6517  2.4760 -0.5814
  278MOL0     H36635   8.139   3.217  10.910  0.7586 -0.9639 -0.7251
  278MOL0     H36636   8.099   3.048  10.909  0.4230  0.5336 -0.9840
  278MOL0     H36637   8.062   3.083  11.174 -0.4453 -1.8832 -2.1423
  278MOL0     H36638   8.130   3.240  11.156 -0.6279  0.5395 -0.1945
  278MOL0     H36639   8.277   2.989  11.056  1.0362  0.4021  0.6161
  278MOL0     H36640   8.347   3.137  11.071  1.0515 -0.2204 -0.7654
  278MOL0     H36641   8.427   2.987  11.255 -0.3209 -1.7530 -0.7421
  278MOL0     H36642   8.267   2.936  11.305 -1.4495  3.0160  3.6115
  278MOL0     H36643   8.234   3.188  11.381  1.5405  1.7856  0.3824
  278MOL0     H36644   8.403   3.202  11.346 -0.5558 -0.2257  0.7200
  278MOL0     H36645   8.302   2.982  11.526  0.6478 -0.6970  0.2577
  278MOL0     H36646   8.469   3.006  11.480  0.3494  0.8832 -0.2798
  278MOL0     H36647   8.400   3.119  11.696 -2.9354 -0.4824  0.1094
  278MOL0     H36648   8.288   3.226  11.607 -0.6119 -0.7621 -4.1751
  278MOL0     H36649   8.392   3.458  11.543 -1.2065 -1.6261  1.0299
  278MOL0     H36650   8.609   3.665  11.460  2.2704 -0.7464  3.8937
  278MOL0     H36651   8.598   3.565  11.313 -0.3518  4.1084 -1.7885
  278MOL0     H36652   8.836   3.512  11.356  1.3305  0.3036  0.5412
  278MOL0     H36653   8.819   3.583  11.522  0.3806  4.4255  0.5093
  278MOL0     H36654   8.757   3.794  11.391 -1.1885 -2.3368  1.9237
  278MOL0     H36655   8.924   3.753  11.427  1.0716  1.0275 -0.5432
  278MOL0     H36656   8.967   3.799  11.213 -1.0193  1.1334 -0.2987
  278MOL0     H36657   8.798   3.775  11.158  0.8456 -0.5517 -1.9322
  278MOL0     H36658   8.901   3.390  11.000 -2.5833  0.6228 -0.5307
  278MOL0     H36659   8.979   3.373  10.776  2.1732 -0.2042  0.2755
  278MOL0     H36660   9.256   3.809  10.456  0.1259 -0.5085  0.5781
  278MOL0     H36661   9.340   3.833  10.231  0.4235  0.9831  1.2118
  278MOL0     H36662   9.420   3.663   9.918  0.9097 -1.7168  1.9849
  278MOL0     H36663   9.444   3.748  10.072 -3.1781 -0.8382  2.1377
  278MOL0     H36664   9.314   3.932   9.985 -1.9794 -4.1272  1.5616
  278MOL0     H36665   9.287   3.858   9.827  0.3243  0.5601 -0.9763
  278MOL0     H36666   9.562   3.947   9.913  0.8040 -0.1662 -2.2292
  278MOL0     H36667   9.447   4.039   9.823 -0.1480  0.9208  1.8333
  278MOL0     H36668   9.562   3.760   9.755  0.6621 -1.2579 -2.4722
  278MOL0     H36669   9.453   3.854   9.653 -0.8270 -0.8162  0.7419
  278MOL0     H36670   9.729   3.970   9.742  0.5368 -2.0579 -0.1203
  278MOL0     H36671   9.614   4.020   9.608  1.4420  2.2488  1.1562
  278MOL0     H36672   9.792   3.928   9.501 -0.3288  0.4195  1.7365
  278MOL0     H36673   9.663   3.806   9.501 -0.6167  0.1827  0.0714
  278MOL0     H36674   9.770   3.679   9.678 -2.2120  3.3439  1.2352
  278MOL0     H36675   9.861   3.688   9.529 -0.0788  0.6255 -0.1290
  278MOL0     H36676  10.014   3.849   9.613 -2.1520 -2.7897 -3.3948
  278MOL0     H36677  10.020   3.704   9.717  1.1079  0.1055  1.0508
  278MOL0     H36678   9.024   3.574  10.088 -1.0759 -0.8995 -0.9987
  278MOL0     H36679   8.947   3.541  10.316 -0.4340  2.1535  1.8880
  278MOL0     H36680   9.073   3.793  10.768  1.3680 -0.4260 -0.2932
  278MOL0     H36681   9.019   3.794  11.010 -1.8195 -1.3797  3.0697
  278MOL0     H36682   7.673   3.167  10.949 -1.2062  0.8689  1.4144
  278MOL0     H36683   7.453   3.263  10.914  0.2845 -1.3852  0.3187
  278MOL0     H36684   7.122   3.285  10.563  3.3480  1.3572  1.1473
  278MOL0     H36685   6.868   3.337  10.561 -1.0085  0.4595  0.8858
  278MOL0     H36686   6.642   3.518  10.883  1.6636  1.3993 -0.9380
  278MOL0     H36687   6.750   3.378  10.846 -2.0243 -2.0508 -0.6906
  278MOL0     H36688   6.536   3.458  10.646 -2.0839 -1.1786  0.7177
  278MOL0     H36689   6.644   3.310  10.656 -0.6913  0.7471 -0.8088
  278MOL0     H36690   6.424   3.358  10.847  0.2269  2.2266 -2.7259
  278MOL0     H36691   6.548   3.249  10.874 -1.5704 -1.8174  0.2826
  278MOL0     H36692   6.371   3.234  10.630  1.3200  1.4709 -0.6632
  278MOL0     H36693   6.515   3.126  10.666 -1.7622 -2.9890  0.8272
  278MOL0     H36694   6.210   2.948  10.882 -0.3198 -0.3243 -1.9922
  278MOL0     H36695   6.964   3.675  10.808 -0.3875 -0.1988  0.7047
  278MOL0     H36696   7.191   3.637  10.794 -0.1210 -0.0887  0.0942
  279MOL0     O36697   1.566   2.172   1.277  0.3804  0.1074 -1.3017
  279MOL0     C36698   1.654   2.171   1.190 -1.3843  0.1189  0.1835
  279MOL0     O36699   1.680   2.058   1.114 -0.4147 -0.0526  0.1211
  279MOL0     C36700   1.582   1.954   1.110 -0.4117 -1.1348  0.0660
  279MOL0     C36701   1.450   1.986   1.054 -0.1875  0.1915  0.0637
  279MOL0     C36702   1.351   1.887   1.044 -0.0490  0.1285  1.1198
  279MOL0     C36703   1.394   1.752   1.056  0.9508 -0.9878 -0.2214
  279MOL0     O36704   1.297   1.655   1.031 -0.3646  0.2952  0.6882
  279MOL0     C36705   1.255   1.572   1.141 -0.2623 -0.7435 -0.4271
  279MOL0     C36706   1.276   1.424   1.118 -0.1052 -0.0896 -0.7604
  279MOL0     C36707   1.228   1.359   0.991 -0.5506  0.3345 -0.0861
  279MOL0     C36708   1.079   1.365   0.980 -0.0651  0.3059 -0.0023
  279MOL0     C36709   1.015   1.254   0.892  0.9121  0.7450  0.1316
  279MOL0     C36710   1.049   1.271   0.734 -0.0771 -0.4666 -0.0031
  279MOL0     C36711   0.996   1.162   0.638  0.3808  0.2060 -0.0848
  279MOL0     C36712   0.848   1.166   0.641  0.1929 -0.1897  0.2932
  279MOL0     N36713   0.788   1.046   0.596  0.5695  0.4869  0.3954
  279MOL0     C36714   0.709   1.056   0.482  0.7503  0.3767  0.7795
  279MOL0     C36715   0.697   0.928   0.435 -0.3304 -0.3753  0.2016
  279MOL0     C36716   0.619   0.883   0.313 -0.2905 -0.5123 -0.9675
  279MOL0     C36717   0.622   0.979   0.190 -0.3737  1.1796 -0.2959
  279MOL0     C36718   0.596   0.918   0.056  0.8880  0.5895  0.9899
  279MOL0     C36719   0.452   0.870   0.035  0.8022  0.1015 -0.0000
  279MOL0     O36720   0.438   0.838  -0.103 -0.6076  0.0556 -0.8402
  279MOL0     C36721   0.385   0.924  -0.197 -0.4504  0.4766 -0.6036
  279MOL0     C36722   0.370   0.870  -0.322  0.0353 -0.9539 -1.0244
  279MOL0     C36723   0.315   0.952  -0.422 -0.4294 -1.1004  0.6763
  279MOL0     C36724   0.267   1.082  -0.402 -0.3201 -0.6795 -0.2611
  279MOL0     C36725   0.190   1.159  -0.506  0.0026 -0.2709  0.4061
  279MOL0     O36726   0.122   1.089  -0.601 -0.3027 -0.2626  0.4580
  279MOL0     C36727   0.025   1.151  -0.680  0.4720  0.7519 -0.0839
  279MOL0     C36728   0.069   1.225  -0.792 -1.0148  0.2898  0.5394
  279MOL0     C36729  -0.016   1.310  -0.852  0.8835 -0.3443  0.6471
  279MOL0     C36730  -0.151   1.313  -0.825 -0.0460  0.4917  0.2141
  279MOL0     O36731  -0.235   1.386  -0.910  0.3195  0.4492 -0.2949
  279MOL0     C36732  -0.239   1.518  -0.868 -0.0847 -0.5604  0.0854
  279MOL0     C36733  -0.275   1.615  -0.979 -1.1179  0.0664  0.3732
  279MOL0     C36734  -0.241   1.762  -0.940  0.8396  0.2698 -0.2187
  279MOL0     C36735  -0.094   1.799  -0.974  0.4452  0.4138  0.4742
  279MOL0     C36736  -0.069   1.830  -1.118 -0.2731 -0.3106  0.9244
  279MOL0     C36737   0.068   1.897  -1.130  0.7289  0.4102 -0.3727
  279MOL0     C36738   0.078   1.942  -1.277 -0.1678 -0.5108 -0.1517
  279MOL0     C36739   0.228   1.983  -1.313 -0.0592  0.2332 -0.0239
  279MOL0    Cl36740   0.285   2.125  -1.224  0.1258 -0.6946  0.5114
  279MOL0     C36741  -0.196   1.226  -0.725  0.3327  0.5945 -0.3256
  279MOL0     C36742  -0.102   1.140  -0.658 -0.3062 -0.1231  0.6211
  279MOL0     O36743   0.196   1.280  -0.503 -0.5384 -0.6106  1.0048
  279MOL0     C36744   0.293   1.132  -0.281 -0.0107  0.3666 -0.2041
  279MOL0     C36745   0.347   1.060  -0.170  0.1674  0.6686  0.5604
  279MOL0     N36746   0.776   0.851   0.521 -0.4282 -0.8063  0.8779
  279MOL0     N36747   0.835   0.919   0.610  0.0773  0.6768  0.7026
  279MOL0     C36748   1.524   1.716   1.109 -0.3659  0.3861 -0.0793
  279MOL0     C36749   1.618   1.823   1.145  0.3247  0.1420  0.4136
  279MOL0     C36750   1.751   2.291   1.164 -0.2397  0.6276 -0.3466
  279MOL0     C36751   1.840   2.296   1.056 -0.4651  0.2739 -0.6738
  279MOL0     C36752   1.930   2.407   1.047 -1.5493  0.1132  0.8010
  279MOL0     C36753   1.940   2.506   1.147  0.9661  0.8333  0.0424
  279MOL0     O36754   2.040   2.604   1.119 -0.5745  0.2806  0.4623
  279MOL0     C36755   2.082   2.671   1.234 -0.6255  0.5705 -0.3554
  279MOL0     C36756   2.214   2.731   1.189 -0.1260 -0.3444 -0.7649
  279MOL0     C36757   2.266   2.822   1.299  0.3968 -0.4612 -0.3622
  279MOL0     C36758   2.381   2.927   1.265  0.3588 -0.3284  0.9023
  279MOL0     C36759   2.506   2.844   1.254  0.3001  0.9465 -0.1011
  279MOL0     C36760   2.618   2.789   1.252  0.5018 -0.3790 -0.4111
  279MOL0     C36761   1.852   2.504   1.253 -0.4038  0.1444  1.2100
  279MOL0     C36762   1.764   2.395   1.258  0.6981  0.1014 -0.0168
  279MOL0     H36763   1.435   2.093   1.050 -0.1687  0.1657 -1.1629
  279MOL0     H36764   1.248   1.910   1.017  0.3426 -0.8833 -1.5834
  279MOL0     H36765   1.151   1.593   1.168 -0.2294 -1.7847  0.6261
  279MOL0     H36766   1.310   1.600   1.232 -0.7963 -0.4083 -0.2019
  279MOL0     H36767   1.238   1.372   1.206  1.9122  0.0780  0.2718
  279MOL0     H36768   1.384   1.415   1.128  0.2311  4.2882  2.5158
  279MOL0     H36769   1.261   1.255   1.004  0.5679  0.5989 -0.6452
  279MOL0     H36770   1.282   1.400   0.905  0.5561  0.6167  0.7214
  279MOL0     H36771   1.043   1.350   1.082 -1.6396  0.0542 -0.5636
  279MOL0     H36772   1.053   1.464   0.942  0.3119 -0.3868 -2.1929
  279MOL0     H36773   0.906   1.257   0.905  1.2174 -0.1728  3.9512
  279MOL0     H36774   1.048   1.158   0.931  0.3996 -0.2767 -1.8028
  279MOL0     H36775   1.152   1.279   0.698 -0.4521 -0.6916 -1.1983
  279MOL0     H36776   1.014   1.373   0.714  0.6229 -0.0302  0.9307
  279MOL0     H36777   1.021   1.171   0.532  1.3690  0.3861  0.1520
  279MOL0     H36778   1.034   1.068   0.679  0.6193 -0.5036 -1.8679
  279MOL0     H36779   0.814   1.246   0.574 -3.0032  1.1623  3.2023
  279MOL0     H36780   0.811   1.197   0.740  2.6830  1.1875  0.8887
  279MOL0     H36781   0.658   1.134   0.427 -1.8152 -1.3427  0.5637
  279MOL0     H36782   0.513   0.876   0.340 -0.4789  0.3154 -1.4536
  279MOL0     H36783   0.654   0.785   0.280  3.1698  0.1412  0.3523
  279MOL0     H36784   0.721   1.026   0.182  0.7575 -0.9725  0.1494
  279MOL0     H36785   0.558   1.066   0.205 -1.4553  0.0785  1.9090
  279MOL0     H36786   0.599   1.001  -0.015 -1.8022 -1.8377 -2.3179
  279MOL0     H36787   0.671   0.843   0.029 -0.0304  0.5499 -1.7110
  279MOL0     H36788   0.378   0.943   0.070 -1.2988 -1.4446 -0.9814
  279MOL0     H36789   0.432   0.780   0.094 -2.6500  0.6393 -0.1255
  279MOL0     H36790   0.406   0.773  -0.356  4.2227  0.1701 -0.3498
  279MOL0     H36791   0.293   0.903  -0.516 -1.2598 -0.7145  0.6609
  279MOL0     H36792   0.172   1.210  -0.823 -1.1858 -1.3637  0.6577
  279MOL0     H36793   0.020   1.370  -0.935 -2.5631  3.0988  1.3522
  279MOL0     H36794  -0.141   1.549  -0.832  0.6462 -0.5042 -1.8097
  279MOL0     H36795  -0.321   1.527  -0.796 -0.8209 -1.9507 -0.5190
  279MOL0     H36796  -0.379   1.599  -1.010 -0.4959  0.3219 -2.1384
  279MOL0     H36797  -0.211   1.594  -1.066  0.7233 -0.2518  1.7452
  279MOL0     H36798  -0.249   1.773  -0.832  2.8134 -1.2436  0.1491
  279MOL0     H36799  -0.319   1.822  -0.986 -1.1901 -1.5449  0.6995
  279MOL0     H36800  -0.081   1.897  -0.928 -3.2374  0.7233  1.1278
  279MOL0     H36801  -0.031   1.717  -0.939  0.2587  0.1587  0.2141
  279MOL0     H36802  -0.141   1.911  -1.137 -0.8521 -0.2979  2.9339
  279MOL0     H36803  -0.089   1.749  -1.188  0.9603  0.1953 -0.0575
  279MOL0     H36804   0.148   1.823  -1.121  2.1713  1.7760 -1.5435
  279MOL0     H36805   0.080   1.981  -1.061 -2.6445 -0.8962  2.0879
  279MOL0     H36806   0.049   1.858  -1.341 -0.3464 -0.0060 -0.7397
  279MOL0     H36807   0.015   2.030  -1.291  0.4871 -0.4030 -3.0005
  279MOL0     H36808   0.233   2.004  -1.420  1.7193 -1.2883 -0.2824
  279MOL0     H36809   0.300   1.902  -1.300  1.9870  1.9112 -0.3965
  279MOL0     H36810  -0.305   1.227  -0.717  0.4763  0.4050  2.6320
  279MOL0     H36811  -0.137   1.072  -0.580 -0.3993  0.6176  1.2400
  279MOL0     H36812   0.244   1.227  -0.263  0.4682  0.5577  0.1111
  279MOL0     H36813   0.348   1.093  -0.067  0.5640 -2.3310  1.6171
  279MOL0     H36814   1.555   1.612   1.118  1.7467  1.0110  0.4519
  279MOL0     H36815   1.714   1.797   1.188  1.9644  2.2798 -1.7228
  279MOL0     H36816   1.853   2.211   0.989 -0.4427  2.1523 -3.2011
  279MOL0     H36817   2.006   2.400   0.970 -1.1278 -0.1640  1.2448
  279MOL0     H36818   2.093   2.607   1.322 -2.5086  0.7656  0.0733
  279MOL0     H36819   2.017   2.757   1.252  0.8279  1.7599 -0.6446
  279MOL0     H36820   2.286   2.650   1.169  2.2903  1.1055  1.4857
  279MOL0     H36821   2.192   2.794   1.102  0.6791 -0.4642 -1.0660
  279MOL0     H36822   2.304   2.764   1.384  1.8759  0.9878  0.0104
  279MOL0     H36823   2.181   2.880   1.338  0.4162 -0.4759 -0.2980
  279MOL0     H36824   2.360   2.974   1.169  2.5836 -1.7107 -0.3673
  279MOL0     H36825   2.390   2.990   1.354  0.2869 -0.8284  1.2729
  279MOL0     H36826   2.721   2.761   1.244  1.9992  4.2346 -0.2831
  279MOL0     H36827   1.853   2.585   1.325  2.5084  0.0996  1.3469
  279MOL0     H36828   1.689   2.400   1.337  2.7013  0.0112  1.9870
  280MOL0     O36829   4.849   7.739   1.855  0.2178 -0.0067 -0.8118
  280MOL0     C36830   4.781   7.808   1.932 -0.4465  0.0034  0.1058
  280MOL0     O36831   4.675   7.883   1.899 -0.0628  0.4738  0.2521
  280MOL0     C36832   4.638   7.900   1.767  0.1709 -0.6123 -0.9991
  280MOL0     C36833   4.508   7.937   1.749 -0.7514 -0.2759  0.4070
  280MOL0     C36834   4.459   7.970   1.624  0.6041 -0.6705  0.2230
  280MOL0     C36835   4.538   7.970   1.509  0.3056 -0.1525  0.3711
  280MOL0     O36836   4.475   8.026   1.396 -0.1820 -0.7305  0.2209
  280MOL0     C36837   4.528   8.027   1.263  1.0213 -0.0704 -0.6985
  280MOL0     C36838   4.430   8.114   1.186 -0.7122 -0.1611 -0.1380
  280MOL0     C36839   4.287   8.047   1.159  0.2267  0.3042 -0.3437
  280MOL0     C36840   4.215   8.156   1.078  0.1877 -0.0473  1.6440
  280MOL0     C36841   4.067   8.117   1.069  1.1062 -0.3907  0.6310
  280MOL0     C36842   3.988   8.229   1.012 -0.0370 -0.0696  0.0997
  280MOL0     C36843   3.848   8.173   0.986 -0.0906  0.0557 -0.1047
  280MOL0     C36844   3.763   8.164   1.114 -0.8112  0.7726  0.0712
  280MOL0     N36845   3.624   8.131   1.085 -0.0063  0.0118  0.3812
  280MOL0     C36846   3.585   8.016   1.018  0.1866  0.0858  1.0477
  280MOL0     C36847   3.452   8.011   1.031  0.4430 -0.0630  0.2266
  280MOL0     C36848   3.358   7.903   0.990  0.4675  0.0869 -0.4294
  280MOL0     C36849   3.394   7.872   0.841 -0.4513  0.0626  0.4835
  280MOL0     C36850   3.281   7.778   0.775 -0.6801  0.1092  0.0219
  280MOL0     C36851   3.310   7.631   0.777 -0.1078  0.5686  0.8167
  280MOL0     O36852   3.433   7.591   0.700 -0.7246 -0.0402  0.2194
  280MOL0     C36853   3.415   7.553   0.573  0.8461  0.0745  0.9867
  280MOL0     C36854   3.296   7.542   0.491  0.4506 -0.0777 -0.3393
  280MOL0     C36855   3.307   7.502   0.360  0.0419 -0.7326  0.3181
  280MOL0     C36856   3.428   7.463   0.304 -0.7819 -0.1519  0.0813
  280MOL0     C36857   3.428   7.438   0.154 -0.6593  0.3804  0.2890
  280MOL0     O36858   3.303   7.474   0.092 -1.0706  0.3209  0.6337
  280MOL0     C36859   3.295   7.427  -0.048 -0.1675 -0.6553 -0.4217
  280MOL0     C36860   3.300   7.288  -0.070 -0.5022 -0.4292 -0.2607
  280MOL0     C36861   3.302   7.242  -0.205  0.0480 -0.0669 -0.1716
  280MOL0     C36862   3.305   7.328  -0.313  0.2987 -0.3471  1.0105
  280MOL0     O36863   3.332   7.265  -0.436  0.5191  0.6379  0.0323
  280MOL0     C36864   3.359   7.344  -0.548  0.1220  0.0179  0.3280
  280MOL0     C36865   3.364   7.258  -0.661 -0.0814 -0.4270  1.1297
  280MOL0     C36866   3.391   7.343  -0.784 -0.3258  0.2434 -0.9050
  280MOL0     C36867   3.397   7.246  -0.905 -0.2673  0.6244 -0.6637
  280MOL0     C36868   3.375   7.321  -1.036 -0.4866  0.0354 -0.4939
  280MOL0     C36869   3.491   7.416  -1.074  0.3793  0.5935 -0.3432
  280MOL0     C36870   3.455   7.506  -1.203  0.2777  1.1097 -0.0835
  280MOL0     C36871   3.437   7.426  -1.332  0.0497 -0.0805  1.3705
  280MOL0    Cl36872   3.586   7.340  -1.370 -0.1775 -0.0853 -0.4243
  280MOL0     C36873   3.295   7.467  -0.294 -0.2343  0.0071 -0.0654
  280MOL0     C36874   3.285   7.511  -0.156  0.1256 -0.1194  0.8171
  280MOL0     O36875   3.534   7.397   0.095 -0.2639 -0.3525  0.3816
  280MOL0     C36876   3.541   7.454   0.383  1.1641 -1.0879  0.6584
  280MOL0     C36877   3.532   7.499   0.514  0.5686  0.4980 -0.2353
  280MOL0     N36878   3.418   8.133   1.090  0.5221  0.8536  0.4268
  280MOL0     N36879   3.520   8.194   1.131 -0.2904 -0.2451 -0.1464
  280MOL0     C36880   4.670   7.931   1.530 -0.7711  0.2884 -0.4383
  280MOL0     C36881   4.727   7.903   1.657  0.9629  0.4843 -0.0013
  280MOL0     C36882   4.827   7.801   2.075  0.0128  0.0999  0.1507
  280MOL0     C36883   4.775   7.900   2.164  0.2384  0.3320 -0.1938
  280MOL0     C36884   4.805   7.883   2.300  0.4680 -0.3665 -1.1659
  280MOL0     C36885   4.876   7.778   2.345 -1.0699  0.4453  0.6990
  280MOL0     O36886   4.892   7.778   2.488 -0.7067 -0.2211  0.1183
  280MOL0     C36887   4.929   7.655   2.552  0.7373  0.1285 -0.2410
  280MOL0     C36888   4.842   7.530   2.521 -0.5089  0.7507  1.2529
  280MOL0     C36889   4.704   7.539   2.592 -0.0280  0.2958  0.1762
  280MOL0     C36890   4.624   7.418   2.537  0.4068  0.2931 -0.0259
  280MOL0     C36891   4.491   7.400   2.610  0.1228 -0.2028 -0.1899
  280MOL0     C36892   4.397   7.401   2.684 -0.6463 -1.3614 -0.1310
  280MOL0     C36893   4.943   7.694   2.254  0.6658  0.5213 -1.0706
  280MOL0     C36894   4.916   7.701   2.118  0.3702 -0.5387 -0.5950
  280MOL0     H36895   4.442   7.958   1.833 -0.9824 -0.4810  0.2784
  280MOL0     H36896   4.358   8.009   1.623 -0.6415 -3.4990  1.9411
  280MOL0     H36897   4.519   7.923   1.232 -1.0368 -0.4656  1.0257
  280MOL0     H36898   4.630   8.064   1.247  1.7909 -2.4090 -1.5040
  280MOL0     H36899   4.475   8.140   1.089 -2.1984  0.5490 -0.6540
  280MOL0     H36900   4.421   8.200   1.253 -0.4739 -0.8384  0.7749
  280MOL0     H36901   4.230   8.021   1.248 -0.5229 -0.2081 -0.9668
  280MOL0     H36902   4.297   7.953   1.104  1.4457 -0.0058  0.3630
  280MOL0     H36903   4.235   8.256   1.118  4.1802  0.8493 -1.9456
  280MOL0     H36904   4.264   8.161   0.981  1.6772  2.3195  2.4283
  280MOL0     H36905   4.016   8.093   1.162 -0.6109 -3.4833 -0.9324
  280MOL0     H36906   4.056   8.029   1.004 -0.3337 -0.8689  1.4915
  280MOL0     H36907   4.029   8.260   0.915 -1.9637 -0.0882 -0.7631
  280MOL0     H36908   3.987   8.315   1.080 -1.1085  1.2238 -1.4836
  280MOL0     H36909   3.797   8.238   0.913  1.6621  0.2354 -1.2252
  280MOL0     H36910   3.861   8.074   0.943 -0.3741  0.4464 -1.1333
  280MOL0     H36911   3.763   8.264   1.159 -1.1502  2.7039 -3.7844
  280MOL0     H36912   3.798   8.077   1.170 -0.9121 -1.3860 -2.9604
  280MOL0     H36913   3.648   7.941   0.970 -0.2062  1.7471 -2.3698
  280MOL0     H36914   3.258   7.924   1.026  1.3095  3.3768  0.2658
  280MOL0     H36915   3.372   7.811   1.047 -0.2214  0.5551  0.5152
  280MOL0     H36916   3.486   7.813   0.831 -0.2965  0.1557  1.3258
  280MOL0     H36917   3.406   7.969   0.792  2.3867 -1.0078 -1.2407
  280MOL0     H36918   3.186   7.799   0.824  0.0898  1.6518  0.9275
  280MOL0     H36919   3.267   7.806   0.670  0.6258 -0.7173 -0.4065
  280MOL0     H36920   3.219   7.581   0.742  0.7197 -0.3473 -0.1244
  280MOL0     H36921   3.323   7.590   0.877 -1.0191 -1.6989  0.0746
  280MOL0     H36922   3.196   7.572   0.521  0.9933 -0.1427  1.7138
  280MOL0     H36923   3.211   7.508   0.309 -2.6595 -2.2773  4.6250
  280MOL0     H36924   3.292   7.220   0.014 -1.8008 -0.4357 -0.3766
  280MOL0     H36925   3.308   7.135  -0.221  3.9063  0.0569 -0.3120
  280MOL0     H36926   3.455   7.396  -0.536 -0.9978  2.2387  0.1259
  280MOL0     H36927   3.281   7.420  -0.558 -1.1305 -0.8934  2.4902
  280MOL0     H36928   3.270   7.206  -0.679 -0.1255 -0.2176  0.7252
  280MOL0     H36929   3.447   7.189  -0.642  0.5651  0.3360  1.1602
  280MOL0     H36930   3.488   7.394  -0.775 -0.2448  0.0322 -0.5473
  280MOL0     H36931   3.317   7.423  -0.791 -4.7681 -3.5267 -2.0640
  280MOL0     H36932   3.486   7.182  -0.909  0.0809  1.0667 -0.1860
  280MOL0     H36933   3.309   7.184  -0.889  1.0113 -1.0453  0.2955
  280MOL0     H36934   3.290   7.389  -1.025 -1.8411 -1.5439 -0.8421
  280MOL0     H36935   3.356   7.251  -1.118  4.5629 -2.0707 -0.2275
  280MOL0     H36936   3.577   7.357  -1.105 -2.5917 -2.6995 -3.1831
  280MOL0     H36937   3.517   7.479  -0.989 -1.2364  2.5469 -1.1900
  280MOL0     H36938   3.363   7.560  -1.183  1.0985  1.4457  3.3887
  280MOL0     H36939   3.526   7.588  -1.211  0.4725  0.7627 -3.3578
  280MOL0     H36940   3.425   7.484  -1.424 -0.4971 -1.9022  0.2278
  280MOL0     H36941   3.346   7.365  -1.339 -1.0224  1.5860  0.1350
  280MOL0     H36942   3.291   7.537  -0.377  2.8372  0.4114 -0.0060
  280MOL0     H36943   3.270   7.614  -0.127 -1.8198  0.7725 -2.7481
  280MOL0     H36944   3.632   7.423   0.333  0.0498 -2.2688 -0.7482
  280MOL0     H36945   3.618   7.505   0.579 -1.4651 -2.5494  3.1634
  280MOL0     H36946   4.733   7.930   1.441 -2.7398 -1.5663 -1.9140
  280MOL0     H36947   4.834   7.897   1.670  0.7779  1.5059  2.6003
  280MOL0     H36948   4.724   7.990   2.133 -0.6247 -0.4838 -1.2300
  280MOL0     H36949   4.763   7.952   2.372 -0.2104  1.5181 -3.2553
  280MOL0     H36950   4.946   7.679   2.657 -0.6493 -0.6271  0.1866
  280MOL0     H36951   5.026   7.632   2.509  0.5449  3.2134 -2.6272
  280MOL0     H36952   4.829   7.520   2.413  2.1465 -2.6746  1.0976
  280MOL0     H36953   4.885   7.436   2.555 -3.5776 -2.0831 -1.9198
  280MOL0     H36954   4.652   7.627   2.552 -0.5202  0.3896  1.0045
  280MOL0     H36955   4.716   7.554   2.700  0.4650  1.7598 -0.0659
  280MOL0     H36956   4.603   7.435   2.431  1.4424  0.3756 -0.2359
  280MOL0     H36957   4.675   7.322   2.538 -1.5202 -0.8085 -1.3530
  280MOL0     H36958   4.308   7.398   2.744 -0.1473 -3.0312  0.5805
  280MOL0     H36959   5.000   7.605   2.280 -1.7984 -1.6547 -2.6909
  280MOL0     H36960   4.967   7.627   2.057  2.4147 -1.0340  1.5612
  281MOL0     O36961   8.554   9.797   9.980 -0.0884  0.2283 -0.6972
  281MOL0     C36962   8.571   9.804  10.100  0.5106  0.1788  0.2916
  281MOL0     O36963   8.656   9.898  10.160 -0.1346  0.3153 -0.0484
  281MOL0     C36964   8.719   9.999  10.089  0.6732  0.9822  0.1876
  281MOL0     C36965   8.673  10.060   9.973  0.0220 -1.1964 -0.8089
  281MOL0     C36966   8.744  10.163   9.902 -0.3318  0.0418 -0.4373
  281MOL0     C36967   8.871  10.201   9.954 -0.1861 -0.6760  0.1783
  281MOL0     O36968   8.928  10.305   9.888 -0.0186  0.1790  0.3545
  281MOL0     C36969   8.860  10.423   9.914 -0.2912 -0.7747  0.2828
  281MOL0     C36970   8.972  10.534   9.923 -0.1713  0.5617  0.0902
  281MOL0     C36971   8.919  10.668   9.969 -0.3958 -0.1235  0.5625
  281MOL0     C36972   9.030  10.764   9.972 -0.5335 -0.4741  0.5944
  281MOL0     C36973   8.963  10.901   9.982  0.6468  0.8350  0.1062
  281MOL0     C36974   9.057  10.999  10.045 -0.3979  0.7882 -0.2459
  281MOL0     C36975   9.163  11.038   9.935 -0.1129  0.2305 -0.8149
  281MOL0     C36976   9.285  11.089  10.015  0.8423  0.2071  0.2177
  281MOL0     N36977   9.354  10.976  10.093 -0.0905  0.3446  0.1408
  281MOL0     C36978   9.407  10.867  10.023  0.2193 -0.9888  0.1614
  281MOL0     C36979   9.454  10.781  10.119  0.8289  0.1626 -1.3524
  281MOL0     C36980   9.521  10.647  10.105 -0.3250 -0.8401  0.1908
  281MOL0     C36981   9.520  10.579  10.242 -0.0487  0.5123 -0.9039
  281MOL0     C36982   9.596  10.448  10.227  0.3752 -0.0609 -0.2405
  281MOL0     C36983   9.587  10.352  10.347  0.1150 -0.0276  0.7421
  281MOL0     O36984   9.448  10.313  10.361  0.1558  0.5818 -0.2247
  281MOL0     C36985   9.402  10.194  10.308  0.6893  0.3637 -0.2851
  281MOL0     C36986   9.265  10.164  10.339 -0.4476  0.2588  0.0317
  281MOL0     C36987   9.208  10.048  10.304 -0.3047  0.9315  0.0729
  281MOL0     C36988   9.278   9.950  10.238 -0.3785 -0.5337 -0.5552
  281MOL0     C36989   9.211   9.821  10.218 -1.0853  0.2022  0.2522
  281MOL0     O36990   9.084   9.814  10.278 -0.2750 -0.4291  0.4641
  281MOL0     C36991   9.035   9.692  10.273  0.3055 -0.2968 -0.4141
  281MOL0     C36992   8.931   9.663  10.182 -0.9014  0.6128  0.1941
  281MOL0     C36993   8.884   9.531  10.171 -0.9492  0.6829  0.3293
  281MOL0     C36994   8.930   9.434  10.268  0.2444  0.5105 -0.7914
  281MOL0     O36995   8.906   9.293  10.269  0.0164 -0.5743 -0.5326
  281MOL0     C36996   8.835   9.245  10.163 -0.4663 -0.1420 -0.7501
  281MOL0     C36997   8.694   9.259  10.211  1.0347  0.2169 -0.0514
  281MOL0     C36998   8.608   9.160  10.129 -0.6046 -0.3343 -0.3026
  281MOL0     C36999   8.460   9.191  10.133  0.1768 -0.4570 -1.1393
  281MOL0     C37000   8.384   9.096  10.040  0.2159  0.0384  0.3904
  281MOL0     C37001   8.394   8.954  10.089 -0.1155 -0.6121 -0.6108
  281MOL0     C37002   8.281   8.867  10.046 -0.0173  0.4914  1.4239
  281MOL0     C37003   8.325   8.798   9.912  0.3721  0.1789  0.0375
  281MOL0    Cl37004   8.235   8.655   9.870  0.7563  0.1708  0.0051
  281MOL0     C37005   9.018   9.469  10.366  0.3732 -0.9150 -0.0456
  281MOL0     C37006   9.078   9.596  10.365 -0.6177  0.1778 -0.9445
  281MOL0     O37007   9.258   9.739  10.138  1.0645 -0.4001 -0.0339
  281MOL0     C37008   9.411   9.979  10.194 -0.0047  0.2532 -0.3482
  281MOL0     C37009   9.469  10.102  10.229 -0.0774  0.8489 -0.2840
  281MOL0     N37010   9.423  10.844  10.244 -0.5355  0.2146  0.2195
  281MOL0     N37011   9.372  10.961  10.227 -0.5164  0.2369 -1.1981
  281MOL0     C37012   8.914  10.150  10.076  0.7435  0.1981  1.3773
  281MOL0     C37013   8.842  10.048  10.134  0.8482  0.3429  0.4882
  281MOL0     C37014   8.512   9.689  10.178  0.4470 -1.4962  0.7629
  281MOL0     C37015   8.570   9.633  10.294  1.0626  0.3646  0.5714
  281MOL0     C37016   8.510   9.522  10.364 -0.8809 -0.0119  0.3351
  281MOL0     C37017   8.394   9.461  10.313  0.1482 -0.7153  1.1771
  281MOL0     O37018   8.336   9.359  10.360  0.1795  0.3171  0.0107
  281MOL0     C37019   8.210   9.384  10.416 -0.5080 -0.3414  0.2432
  281MOL0     C37020   8.115   9.265  10.378  0.1227 -0.2495 -0.7264
  281MOL0     C37021   8.130   9.138  10.460  0.5280 -0.7167  0.9748
  281MOL0     C37022   8.114   9.173  10.614  0.3967 -0.0481 -1.2847
  281MOL0     C37023   7.967   9.200  10.645 -1.0890 -0.9266 -0.2668
  281MOL0     C37024   7.853   9.224  10.658  0.1453  0.7754  0.4952
  281MOL0     C37025   8.332   9.525  10.195 -1.1061 -0.4550  0.5183
  281MOL0     C37026   8.393   9.638  10.135 -0.5062  0.5741 -0.7571
  281MOL0     H37027   8.578  10.026   9.933  0.7126  0.7543 -4.5192
  281MOL0     H37028   8.709  10.189   9.802 -1.7878 -1.6347 -0.4138
  281MOL0     H37029   8.799  10.407  10.004 -2.5563 -0.7195 -1.1540
  281MOL0     H37030   8.796  10.449   9.829  3.3894  1.0611 -2.1767
  281MOL0     H37031   9.022  10.542   9.826 -1.4798 -0.9427 -0.7477
  281MOL0     H37032   9.044  10.492   9.993  1.3821  0.1915 -1.6487
  281MOL0     H37033   8.867  10.660  10.065 -1.3065  0.3109  0.1303
  281MOL0     H37034   8.855  10.706   9.889 -0.9348  1.4620  1.6898
  281MOL0     H37035   9.094  10.741  10.058  0.3388  0.8974  0.3435
  281MOL0     H37036   9.091  10.775   9.882  0.6646  2.1136  1.6099
  281MOL0     H37037   8.879  10.886  10.050  1.5669 -0.4076  1.0075
  281MOL0     H37038   8.912  10.944   9.895  2.7565 -1.4239 -2.4326
  281MOL0     H37039   9.102  10.965  10.138 -3.1999 -1.8319  0.3270
  281MOL0     H37040   8.999  11.085  10.078  0.0164  1.9838 -2.4237
  281MOL0     H37041   9.203  10.961   9.869  1.6890  1.0092 -0.6949
  281MOL0     H37042   9.119  11.121   9.878 -2.0606 -1.1660 -1.4465
  281MOL0     H37043   9.250  11.164  10.086  1.8302  0.7291  0.1705
  281MOL0     H37044   9.362  11.130   9.950  2.4477 -1.7975  0.7186
  281MOL0     H37045   9.414  10.859   9.915  1.7326  0.7155  0.0742
  281MOL0     H37046   9.627  10.666  10.085 -0.5698  1.9053  1.0371
  281MOL0     H37047   9.469  10.592  10.026 -5.2043  2.3750  0.6763
  281MOL0     H37048   9.416  10.560  10.272  0.1181 -2.3755 -1.8391
  281MOL0     H37049   9.562  10.640  10.323 -3.6087  1.8994  0.0809
  281MOL0     H37050   9.545  10.397  10.144 -0.4584  0.1505  0.1294
  281MOL0     H37051   9.697  10.486  10.213 -0.2603  0.9164 -2.6876
  281MOL0     H37052   9.627  10.407  10.433  1.2018 -0.7931  0.7492
  281MOL0     H37053   9.649  10.263  10.331 -0.6168 -0.2517 -1.1134
  281MOL0     H37054   9.210  10.233  10.402 -3.4826 -0.9455 -1.0910
  281MOL0     H37055   9.104  10.037  10.335 -0.8040 -0.4930 -1.8662
  281MOL0     H37056   8.900   9.737  10.109  1.9300  1.6509 -0.0962
  281MOL0     H37057   8.817   9.511  10.088 -0.3225 -2.8269  0.5264
  281MOL0     H37058   8.866   9.142  10.140  2.3119  0.7738 -1.4277
  281MOL0     H37059   8.853   9.300  10.070 -3.6872  0.9873 -0.8330
  281MOL0     H37060   8.656   9.359  10.191  0.5917  0.1534  0.4384
  281MOL0     H37061   8.675   9.247  10.318 -0.1903 -1.7809 -0.4422
  281MOL0     H37062   8.629   9.057  10.161  1.5826 -0.2507 -1.2942
  281MOL0     H37063   8.629   9.164  10.022 -0.9742 -1.5994 -0.4436
  281MOL0     H37064   8.443   9.182  10.241 -1.8480 -1.7029 -1.5049
  281MOL0     H37065   8.443   9.295  10.102  0.5466 -0.2631 -0.7087
  281MOL0     H37066   8.419   9.088   9.937 -0.0545 -0.9095  0.3654
  281MOL0     H37067   8.281   9.134  10.036 -0.0155 -0.5430  0.6968
  281MOL0     H37068   8.392   8.960  10.198 -1.5777 -0.5407 -0.6162
  281MOL0     H37069   8.495   8.926  10.057 -1.3417 -2.9049 -2.8276
  281MOL0     H37070   8.260   8.792  10.122 -1.1005  2.0905  2.7533
  281MOL0     H37071   8.191   8.928  10.046 -0.5172 -0.2350  1.7908
  281MOL0     H37072   8.430   8.779   9.888 -0.2000 -2.8110 -0.3728
  281MOL0     H37073   8.295   8.878   9.844  0.0611 -1.2811 -1.6161
  281MOL0     H37074   9.053   9.395  10.436 -2.7550 -4.6713 -2.0785
  281MOL0     H37075   9.153   9.628  10.437  0.1525 -0.4888 -1.4297
  281MOL0     H37076   9.457   9.894  10.144  0.2506  0.2549 -0.1218
  281MOL0     H37077   9.569  10.120  10.193  0.5075  0.1185  0.8932
  281MOL0     H37078   9.011  10.174  10.119  0.1417  1.0718  2.2643
  281MOL0     H37079   8.881  10.000  10.223  2.5466 -0.5634 -0.6755
  281MOL0     H37080   8.665   9.666  10.334  2.2508 -3.1036  1.0100
  281MOL0     H37081   8.566   9.475  10.443 -1.3092  1.1144  1.3358
  281MOL0     H37082   8.162   9.481  10.401  1.9167  1.5807  3.4643
  281MOL0     H37083   8.216   9.413  10.521  0.1204  2.0127 -0.3914
  281MOL0     H37084   8.024   9.322  10.398  1.5017  0.8188  3.6372
  281MOL0     H37085   8.135   9.247  10.272  3.5554 -0.6433 -0.1436
  281MOL0     H37086   8.231   9.098  10.444  0.4497 -0.9000  0.9361
  281MOL0     H37087   8.073   9.055  10.419  3.8730 -0.5719 -5.0738
  281MOL0     H37088   8.136   9.090  10.682 -0.1796  0.3038 -0.6570
  281MOL0     H37089   8.183   9.249  10.652 -0.9733  0.0502  1.1857
  281MOL0     H37090   7.747   9.240  10.660 -0.0359 -0.2148  0.0128
  281MOL0     H37091   8.249   9.483  10.138  0.3177 -1.4386 -0.9097
  281MOL0     H37092   8.340   9.673  10.047  1.1295  1.8252 -1.2890
  282MOL0     O37093  10.804   7.288  10.312  0.6236 -0.5991  0.4511
  282MOL0     C37094  10.807   7.184  10.242 -0.6250 -0.3092 -0.0275
  282MOL0     O37095  10.749   7.070  10.286 -0.1439 -0.1189 -0.6489
  282MOL0     C37096  10.703   7.073  10.416  0.0603  0.2852 -1.0824
  282MOL0     C37097  10.782   7.116  10.524  0.4444  0.2423  1.5338
  282MOL0     C37098  10.746   7.090  10.656  0.3348  1.2209  0.1878
  282MOL0     C37099  10.629   7.021  10.684  0.2991 -0.5198  0.0462
  282MOL0     O37100  10.606   6.980  10.813 -0.9209 -0.0559  0.4464
  282MOL0     C37101  10.512   6.874  10.834 -0.8767  0.5608  0.2176
  282MOL0     C37102  10.543   6.831  10.977 -1.6812  0.1396  0.5518
  282MOL0     C37103  10.497   6.690  11.000 -0.1503 -0.5289 -0.5374
  282MOL0     C37104  10.494   6.660  11.157 -0.2735  0.1792  0.5318
  282MOL0     C37105  10.421   6.521  11.175  0.3145  0.5923 -0.4911
  282MOL0     C37106  10.436   6.487  11.316  0.7080 -0.5654 -1.0506
  282MOL0     C37107  10.566   6.430  11.370 -0.0865 -0.1388  0.5255
  282MOL0     C37108  10.581   6.459  11.530 -0.2339 -0.2067 -0.3521
  282MOL0     N37109  10.464   6.388  11.596  0.3123 -0.3926 -0.2154
  282MOL0     C37110  10.389   6.437  11.705 -0.4424 -0.2395 -0.8427
  282MOL0     C37111  10.330   6.338  11.765  0.0787 -1.1931  0.0202
  282MOL0     C37112  10.277   6.349  11.904 -0.4255  0.5272  0.3844
  282MOL0     C37113  10.134   6.308  11.922  0.0167  0.3431  0.3517
  282MOL0     C37114  10.085   6.296  12.070 -0.3334  0.5163  0.0700
  282MOL0     C37115   9.951   6.223  12.088 -0.3459 -0.5582 -1.1445
  282MOL0     O37116   9.988   6.089  12.049 -1.1948 -0.4081 -0.3386
  282MOL0     C37117   9.986   5.992  12.148  0.6635  0.2665  0.8717
  282MOL0     C37118   9.927   5.872  12.112 -0.7477 -0.0761  0.7514
  282MOL0     C37119   9.928   5.772  12.203  0.5144 -0.3602 -0.1643
  282MOL0     C37120   9.992   5.782  12.331  0.2826 -0.3073 -0.1409
  282MOL0     C37121   9.994   5.665  12.411  0.3787  0.0277 -0.5587
  282MOL0     O37122   9.996   5.674  12.550  0.4591  0.2115  0.1715
  282MOL0     C37123  10.047   5.576  12.622 -0.2203 -0.0860  0.8688
  282MOL0     C37124   9.982   5.452  12.641  0.2744  0.7172 -0.3062
  282MOL0     C37125  10.046   5.358  12.725  0.3920 -0.4355 -0.2448
  282MOL0     C37126  10.161   5.395  12.798  1.3278 -0.2595  0.1598
  282MOL0     O37127  10.211   5.316  12.902 -0.8451 -0.0275  0.0755
  282MOL0     C37128  10.218   5.181  12.853 -1.0026  0.0337 -0.1171
  282MOL0     C37129  10.267   5.082  12.957 -0.0679  0.0602 -0.7575
  282MOL0     C37130  10.242   4.940  12.899 -0.0301  0.2019  0.3123
  282MOL0     C37131  10.335   4.831  12.960  0.3258  0.1472  0.1592
  282MOL0     C37132  10.479   4.867  12.955 -0.6047 -0.1927  0.5964
  282MOL0     C37133  10.571   4.751  13.001  0.5515  0.0648 -0.9185
  282MOL0     C37134  10.559   4.745  13.159 -0.0217 -0.5580 -0.0535
  282MOL0     C37135  10.658   4.649  13.216  0.6246  0.4977 -0.5522
  282MOL0    Cl37136  10.806   4.739  13.248 -0.2517 -0.1290 -0.0299
  282MOL0     C37137  10.216   5.525  12.775 -0.7465 -0.2713 -0.0755
  282MOL0     C37138  10.161   5.619  12.690 -0.4946  0.8340 -0.3095
  282MOL0     O37139  10.002   5.556  12.350 -0.0614 -0.9248 -0.0166
  282MOL0     C37140  10.036   5.906  12.365 -0.3953 -0.4445  0.1605
  282MOL0     C37141  10.034   6.006  12.278  0.3601 -0.3645 -0.0006
  282MOL0     N37142  10.358   6.226  11.688 -0.2396 -0.4743 -0.6124
  282MOL0     N37143  10.440   6.253  11.594 -0.0527 -0.1617 -0.1099
  282MOL0     C37144  10.539   6.997  10.577 -0.9289  0.7470  1.2302
  282MOL0     C37145  10.577   7.019  10.442 -0.6901  0.4966 -0.0655
  282MOL0     C37146  10.874   7.189  10.104  0.9408  0.8260 -0.4507
  282MOL0     C37147  10.944   7.298  10.051  0.0164  0.4521  0.9350
  282MOL0     C37148  11.006   7.295   9.926  0.0636  0.0873 -0.5395
  282MOL0     C37149  10.989   7.182   9.843  0.4963 -0.2135 -0.0871
  282MOL0     O37150  11.051   7.167   9.712  0.5361 -0.2928 -0.5521
  282MOL0     C37151  11.167   7.244   9.679 -0.6740 -0.3400 -0.0765
  282MOL0     C37152  11.209   7.224   9.538 -0.6256  0.2016 -0.0619
  282MOL0     C37153  11.313   7.339   9.515  0.3772  0.2288  1.1024
  282MOL0     C37154  11.351   7.355   9.369 -0.7253 -0.5842  0.5169
  282MOL0     C37155  11.409   7.486   9.339  0.2321 -0.2228 -0.3831
  282MOL0     C37156  11.458   7.595   9.334 -0.0540 -0.9778 -0.5187
  282MOL0     C37157  10.917   7.071   9.895 -1.3317 -0.4217  0.1856
  282MOL0     C37158  10.858   7.076  10.021 -0.8798  0.6111  0.1460
  282MOL0     H37159  10.879   7.161  10.506  0.3293  0.8829  2.4544
  282MOL0     H37160  10.812   7.115  10.739  0.8952  2.3356 -0.5734
  282MOL0     H37161  10.539   6.791  10.768 -2.6121 -1.2898  1.6842
  282MOL0     H37162  10.407   6.900  10.818 -1.3312 -1.4182 -0.2447
  282MOL0     H37163  10.500   6.903  11.048 -0.2938 -0.6198  2.2457
  282MOL0     H37164  10.649   6.824  11.002 -1.3295  0.6815 -0.7014
  282MOL0     H37165  10.559   6.620  10.943  3.2878  1.1637  0.8673
  282MOL0     H37166  10.392   6.689  10.970 -0.1005  2.8553 -1.1391
  282MOL0     H37167  10.599   6.649  11.188 -0.2511 -0.0546  0.3697
  282MOL0     H37168  10.461   6.747  11.215  2.9812  3.3646 -1.9100
  282MOL0     H37169  10.444   6.439  11.107 -5.4631 -2.7078  0.9046
  282MOL0     H37170  10.316   6.538  11.149 -0.4559 -2.7008  0.0582
  282MOL0     H37171  10.363   6.412  11.348  1.3387 -2.0473 -2.8984
  282MOL0     H37172  10.408   6.576  11.373  2.7218 -1.7341  2.0481
  282MOL0     H37173  10.570   6.322  11.354 -1.5210 -0.1574  0.1641
  282MOL0     H37174  10.649   6.489  11.330  0.5569 -1.9375 -0.9119
  282MOL0     H37175  10.583   6.565  11.559  0.8248 -0.7804  1.8614
  282MOL0     H37176  10.679   6.421  11.558  0.6216  2.3045  0.3176
  282MOL0     H37177  10.411   6.533  11.751 -0.5453  0.8103 -2.8591
  282MOL0     H37178  10.297   6.443  11.957 -0.9852  1.5288 -1.0995
  282MOL0     H37179  10.325   6.263  11.952  0.5507 -0.0162 -1.4566
  282MOL0     H37180  10.113   6.213  11.873  1.0294  0.8973 -1.2208
  282MOL0     H37181  10.066   6.383  11.880 -0.3280  0.2801  0.7923
  282MOL0     H37182  10.164   6.245  12.126 -0.4928  1.1050  0.8393
  282MOL0     H37183  10.067   6.400  12.100 -2.2373  0.9778 -2.3706
  282MOL0     H37184   9.867   6.260  12.029 -0.3408  1.1689 -0.1522
  282MOL0     H37185   9.922   6.223  12.193  2.3804 -0.2245 -0.3144
  282MOL0     H37186   9.877   5.850  12.019  1.2594 -7.5154  0.7492
  282MOL0     H37187   9.883   5.677  12.175  0.9739 -0.0683 -2.0321
  282MOL0     H37188   9.888   5.419  12.600  0.7791 -1.3504  0.0760
  282MOL0     H37189  10.000   5.260  12.732 -1.8291  0.2066 -3.7948
  282MOL0     H37190  10.285   5.180  12.767 -1.4018  3.3334 -0.5703
  282MOL0     H37191  10.126   5.129  12.825 -0.4185 -2.5054  2.2270
  282MOL0     H37192  10.205   5.092  13.047  0.3544 -0.0401 -0.4496
  282MOL0     H37193  10.370   5.110  12.984 -0.3255  0.2570  0.0337
  282MOL0     H37194  10.276   4.945  12.795  0.3031 -3.4354  0.1222
  282MOL0     H37195  10.135   4.914  12.895  0.5790 -2.4783 -1.1079
  282MOL0     H37196  10.296   4.817  13.061  2.4950 -2.6727  0.7187
  282MOL0     H37197  10.316   4.734  12.913 -0.5389  1.5119 -2.5110
  282MOL0     H37198  10.502   4.958  13.011 -0.8590 -0.4356  1.1044
  282MOL0     H37199  10.499   4.877  12.848  0.3961 -1.8601  0.5852
  282MOL0     H37200  10.677   4.773  12.983  0.9705  0.5180  1.6858
  282MOL0     H37201  10.551   4.655  12.953  1.7743 -0.1623 -1.0180
  282MOL0     H37202  10.582   4.845  13.196 -0.4821 -0.1544 -0.8396
  282MOL0     H37203  10.463   4.706  13.196  0.7402 -0.0467  2.6706
  282MOL0     H37204  10.675   4.567  13.145  2.7831  0.0987  0.3240
  282MOL0     H37205  10.623   4.610  13.312 -1.8475 -0.4266 -1.7449
  282MOL0     H37206  10.306   5.560  12.824  0.2835 -0.3045 -1.8359
  282MOL0     H37207  10.196   5.718  12.665 -2.3405  1.1259 -2.0160
  282MOL0     H37208  10.091   5.908  12.458  1.5183  0.0590 -0.9124
  282MOL0     H37209  10.069   6.103  12.313  0.4708  0.5498 -2.4931
  282MOL0     H37210  10.439   6.958  10.599 -1.6139 -0.2829 -2.8112
  282MOL0     H37211  10.518   6.978  10.361  2.6284 -1.4010 -1.7265
  282MOL0     H37212  10.942   7.392  10.105 -1.0132  2.7278 -2.6779
  282MOL0     H37213  11.078   7.363   9.882  1.9678 -0.2172  1.8837
  282MOL0     H37214  11.256   7.231   9.742 -1.7507 -0.7748  1.4109
  282MOL0     H37215  11.127   7.344   9.700 -3.4063 -1.9450  3.2932
  282MOL0     H37216  11.263   7.131   9.515 -0.6079  0.4900 -1.2550
  282MOL0     H37217  11.125   7.239   9.470 -0.9067 -0.1019  0.2217
  282MOL0     H37218  11.400   7.312   9.575  1.3204 -2.8613 -1.3668
  282MOL0     H37219  11.266   7.433   9.546 -0.7769  0.4108 -0.9715
  282MOL0     H37220  11.424   7.277   9.342  0.7088  1.0952 -0.6959
  282MOL0     H37221  11.262   7.328   9.311 -0.0934 -4.5943  1.0959
  282MOL0     H37222  11.480   7.697   9.356 -0.0991 -1.1862  0.5524
  282MOL0     H37223  10.895   6.983   9.836  2.8626 -2.5242  1.3449
  282MOL0     H37224  10.809   6.988  10.061 -3.4931  2.6959  1.8113
  283MOL0     O37225   1.055   1.915   3.971  0.5376  1.1488  0.4714
  283MOL0     C37226   1.094   1.963   4.076 -0.2398 -0.3965  0.8121
  283MOL0     O37227   1.025   1.970   4.198  0.4535  0.4101  0.2776
  283MOL0     C37228   0.911   1.905   4.204  0.3956  0.9706  0.9064
  283MOL0     C37229   0.794   1.931   4.133  0.0539 -0.0329 -0.4760
  283MOL0     C37230   0.678   1.862   4.170 -0.9990  0.0550  0.5289
  283MOL0     C37231   0.677   1.755   4.263  0.1805  0.3362  0.4049
  283MOL0     O37232   0.566   1.683   4.297 -0.4314  0.4145  0.2479
  283MOL0     C37233   0.442   1.697   4.217 -0.0918 -0.2262  0.1506
  283MOL0     C37234   0.332   1.618   4.288 -0.3435  0.6050  0.6800
  283MOL0     C37235   0.200   1.653   4.204 -0.5832  0.2291 -0.0773
  283MOL0     C37236   0.086   1.588   4.293  0.2653  0.8375  0.1627
  283MOL0     C37237  -0.056   1.634   4.241  0.5339 -0.0978 -0.7722
  283MOL0     C37238  -0.081   1.790   4.254 -0.0824 -0.7246 -0.3028
  283MOL0     C37239  -0.090   1.843   4.394 -0.4850  0.3551 -0.5308
  283MOL0     C37240  -0.215   1.796   4.465  0.9386  0.0002  0.4563
  283MOL0     N37241  -0.344   1.829   4.400 -0.0407 -0.8402  0.2781
  283MOL0     C37242  -0.410   1.951   4.432  0.0964  0.7833 -0.6838
  283MOL0     C37243  -0.518   1.950   4.355  0.4849 -0.7168 -0.8515
  283MOL0     C37244  -0.633   2.051   4.370 -0.0359 -0.0056 -0.0633
  283MOL0     C37245  -0.646   2.133   4.239  0.5307 -0.0442 -0.5867
  283MOL0     C37246  -0.761   2.221   4.216  0.5957  0.0728 -0.5946
  283MOL0     C37247  -0.753   2.314   4.087  0.1390  0.5077 -0.8087
  283MOL0     O37248  -0.857   2.416   4.110 -0.1058 -0.4569 -0.6725
  283MOL0     C37249  -0.991   2.374   4.100 -0.2722  1.0202 -0.4380
  283MOL0     C37250  -1.075   2.479   4.145  0.1969  0.2880 -0.0894
  283MOL0     C37251  -1.219   2.451   4.140 -0.9208 -0.2523 -0.6488
  283MOL0     C37252  -1.270   2.328   4.099  0.6269 -0.0873  0.3566
  283MOL0     C37253  -1.415   2.309   4.100 -0.1161 -0.1053 -0.3478
  283MOL0     O37254  -1.461   2.200   4.036  0.0164  0.5221  0.3358
  283MOL0     C37255  -1.581   2.142   4.065 -0.5047 -0.3079 -0.1548
  283MOL0     C37256  -1.670   2.176   4.158  0.2069 -0.2517 -0.3650
  283MOL0     C37257  -1.793   2.100   4.168 -0.6455  0.8083 -0.6244
  283MOL0     C37258  -1.822   1.992   4.079 -0.8862  0.2521 -0.3132
  283MOL0     O37259  -1.937   1.919   4.090 -0.2271  0.1938 -0.0053
  283MOL0     C37260  -2.015   1.935   3.970  0.0035  0.3595 -0.0682
  283MOL0     C37261  -2.162   1.952   3.993  0.4284 -0.1121 -0.2281
  283MOL0     C37262  -2.234   1.838   4.070  0.5332 -0.1795 -0.7834
  283MOL0     C37263  -2.238   1.848   4.227  0.2323  0.0708 -1.1058
  283MOL0     C37264  -2.297   1.733   4.303  0.9640 -0.5053 -0.8784
  283MOL0     C37265  -2.288   1.766   4.457 -0.6237 -0.3437  0.2591
  283MOL0     C37266  -2.162   1.739   4.532  0.0985 -0.3537 -0.9133
  283MOL0     C37267  -2.149   1.832   4.658  0.6511 -0.3375  0.2149
  283MOL0    Cl37268  -2.123   2.007   4.601 -0.5316  0.1531 -0.3564
  283MOL0     C37269  -1.718   1.953   3.993  0.4750 -0.4944 -0.6707
  283MOL0     C37270  -1.614   2.043   3.967  0.1995  0.7399 -0.3456
  283MOL0     O37271  -1.483   2.390   4.158 -0.0308 -0.7841 -0.4536
  283MOL0     C37272  -1.178   2.224   4.066  0.2789 -0.0509 -1.0598
  283MOL0     C37273  -1.046   2.253   4.060  0.3606 -0.5596 -0.3844
  283MOL0     N37274  -0.510   1.850   4.270 -0.5203  0.1926  0.1534
  283MOL0     N37275  -0.402   1.780   4.287  1.1404 -0.1316  0.5610
  283MOL0     C37276   0.794   1.734   4.339  0.7011 -0.0769 -0.6242
  283MOL0     C37277   0.907   1.813   4.311  0.3240 -0.0287 -0.4707
  283MOL0     C37278   1.239   2.022   4.059  0.0559 -0.7695  0.9019
  283MOL0     C37279   1.304   2.082   4.177 -0.2669 -0.5190  0.1323
  283MOL0     C37280   1.429   2.150   4.162  0.2019 -0.2415 -0.3953
  283MOL0     C37281   1.485   2.176   4.036 -0.2794 -0.0644  0.2524
  283MOL0     O37282   1.605   2.244   4.021 -0.3850 -0.4736  0.2620
  283MOL0     C37283   1.660   2.230   3.884 -0.2498  0.6059 -0.3294
  283MOL0     C37284   1.806   2.276   3.862 -0.5719  0.0608 -0.5569
  283MOL0     C37285   1.812   2.427   3.910 -0.4567  0.7944 -0.1240
  283MOL0     C37286   1.959   2.477   3.932  0.0042 -0.2728  0.4045
  283MOL0     C37287   2.062   2.412   3.843 -0.1313  0.1371  0.3323
  283MOL0     C37288   2.145   2.347   3.786 -0.3417  0.6719 -0.1666
  283MOL0     C37289   1.403   2.136   3.923  0.3935 -0.9182  0.5889
  283MOL0     C37290   1.288   2.067   3.933 -0.1570  0.4604  0.3363
  283MOL0     H37291   0.789   1.995   4.044  4.4500 -1.7253 -2.2263
  283MOL0     H37292   0.585   1.898   4.127 -1.0928  0.4618  1.0737
  283MOL0     H37293   0.450   1.667   4.112 -1.9255  1.7371 -0.6248
  283MOL0     H37294   0.416   1.803   4.208  1.2103  0.1075  0.1455
  283MOL0     H37295   0.328   1.652   4.392  0.1002  0.5987  0.7011
  283MOL0     H37296   0.337   1.509   4.294 -2.7606  0.2055 -2.2091
  283MOL0     H37297   0.192   1.595   4.112 -0.5746  1.4965 -0.8941
  283MOL0     H37298   0.200   1.762   4.190  0.2664  0.0030 -2.0985
  283MOL0     H37299   0.094   1.480   4.303 -1.0693  0.6750 -0.2913
  283MOL0     H37300   0.094   1.629   4.395  0.8176  0.0398  0.4467
  283MOL0     H37301  -0.122   1.580   4.309  2.8009 -0.2736  1.4177
  283MOL0     H37302  -0.090   1.609   4.140 -3.2723  2.2053 -0.2648
  283MOL0     H37303  -0.175   1.820   4.207 -1.5355  1.0150  3.2968
  283MOL0     H37304  -0.001   1.846   4.204  0.3800  0.2623  1.4457
  283MOL0     H37305   0.002   1.804   4.440 -1.3823 -4.6312 -2.3626
  283MOL0     H37306  -0.091   1.952   4.403  0.1422  0.1560  3.9883
  283MOL0     H37307  -0.211   1.841   4.564  0.1238 -4.4570  2.8009
  283MOL0     H37308  -0.209   1.690   4.494  2.0652  0.8065  3.5215
  283MOL0     H37309  -0.405   2.024   4.511  1.0248  0.8490 -0.7982
  283MOL0     H37310  -0.619   2.123   4.452 -2.4051  1.5309 -0.9137
  283MOL0     H37311  -0.734   2.015   4.388 -0.3070  0.9111  0.3111
  283MOL0     H37312  -0.662   2.054   4.165  2.4127 -1.3736  0.3206
  283MOL0     H37313  -0.545   2.168   4.215  1.3218 -1.6292  0.2884
  283MOL0     H37314  -0.847   2.152   4.211 -0.5109  1.3173  0.5153
  283MOL0     H37315  -0.776   2.276   4.308 -3.2573 -1.3114 -0.2022
  283MOL0     H37316  -0.768   2.275   3.986 -1.3119 -0.9112 -0.0845
  283MOL0     H37317  -0.656   2.363   4.099  1.6543 -2.7926  2.0451
  283MOL0     H37318  -1.043   2.573   4.190 -1.4216  0.9785 -0.3006
  283MOL0     H37319  -1.284   2.528   4.182 -1.0169  0.0034 -1.2556
  283MOL0     H37320  -1.654   2.261   4.223  2.2556 -0.2538 -0.7925
  283MOL0     H37321  -1.874   2.130   4.233  0.0328  0.9820  0.1473
  283MOL0     H37322  -2.003   1.838   3.921 -1.2497  0.3327 -0.3518
  283MOL0     H37323  -1.988   2.014   3.899 -1.0887  1.9922  1.2689
  283MOL0     H37324  -2.202   1.937   3.892 -2.3229 -1.0077  0.9125
  283MOL0     H37325  -2.184   2.053   4.026  0.6882  0.2415 -1.1198
  283MOL0     H37326  -2.200   1.738   4.041  2.3022  0.0882  0.2015
  283MOL0     H37327  -2.341   1.845   4.052 -0.3388 -1.5031  3.0338
  283MOL0     H37328  -2.137   1.851   4.270 -1.2615 -0.7058  2.9277
  283MOL0     H37329  -2.287   1.942   4.254 -2.2415 -0.7054 -2.5897
  283MOL0     H37330  -2.243   1.642   4.276 -0.0772 -1.3407 -0.2482
  283MOL0     H37331  -2.402   1.727   4.272  0.8935  3.0681 -1.7848
  283MOL0     H37332  -2.378   1.726   4.504 -0.7635  0.3176  0.5736
  283MOL0     H37333  -2.309   1.872   4.476  0.2964 -0.0228 -0.4181
  283MOL0     H37334  -2.163   1.635   4.567  1.2624 -0.2300 -0.4506
  283MOL0     H37335  -2.076   1.744   4.465  1.6459 -0.8940  0.9453
  283MOL0     H37336  -2.057   1.793   4.702 -0.6825 -1.0725  2.5065
  283MOL0     H37337  -2.235   1.832   4.726  0.2789  0.3155 -0.2446
  283MOL0     H37338  -1.713   1.855   3.946 -1.3947 -1.0301  0.1445
  283MOL0     H37339  -1.536   2.032   3.892  0.2249  1.0157 -0.3630
  283MOL0     H37340  -1.206   2.124   4.035  0.7859 -1.1463  1.7398
  283MOL0     H37341  -0.975   2.178   4.027  0.8481 -0.2282 -0.1065
  283MOL0     H37342   0.800   1.655   4.413  1.8744  2.5252  2.2869
  283MOL0     H37343   0.991   1.788   4.375 -1.2839 -0.3629  1.6201
  283MOL0     H37344   1.256   2.059   4.272  1.5770 -3.9815  0.4040
  283MOL0     H37345   1.471   2.197   4.251 -3.7828  2.4169  0.3811
  283MOL0     H37346   1.598   2.300   3.827  0.1926  1.7867  0.5985
  283MOL0     H37347   1.651   2.126   3.852  1.1874  0.3224  0.1027
  283MOL0     H37348   1.867   2.204   3.918  2.0518  1.0470 -1.9767
  283MOL0     H37349   1.830   2.270   3.756 -0.0927  2.6569 -0.6652
  283MOL0     H37350   1.774   2.425   4.013  0.2746 -0.9249  0.1419
  283MOL0     H37351   1.753   2.488   3.841 -2.5244 -0.4752  0.4031
  283MOL0     H37352   1.967   2.584   3.914  1.4832 -0.5878 -1.1795
  283MOL0     H37353   1.997   2.456   4.032  0.6746  1.2210  0.4810
  283MOL0     H37354   2.223   2.297   3.733  0.6425  2.3377 -0.3641
  283MOL0     H37355   1.431   2.161   3.822  0.9330  0.1425  0.9864
  283MOL0     H37356   1.248   2.025   3.841 -0.5945 -2.1614  1.6257
  284MOL0     O37357   1.752   0.027   9.842 -0.4713  0.1850  0.4260
  284MOL0     C37358   1.766   0.015   9.718  0.1031  0.0181 -0.1139
  284MOL0     O37359   1.878  -0.025   9.652 -1.0765 -0.4913 -0.2751
  284MOL0     C37360   1.999  -0.004   9.717  0.0675 -2.0313 -0.0600
  284MOL0     C37361   2.029   0.092   9.816  0.5682  0.7688  0.0561
  284MOL0     C37362   2.148   0.103   9.876 -0.3646 -0.1134  0.9388
  284MOL0     C37363   2.258   0.037   9.830 -0.1540  0.2708  0.1478
  284MOL0     O37364   2.390   0.054   9.861  0.1409 -0.3308 -0.4300
  284MOL0     C37365   2.443   0.182   9.881  0.3593 -0.4892  0.1737
  284MOL0     C37366   2.469   0.245   9.743  0.5742  0.0025 -1.2377
  284MOL0     C37367   2.569   0.361   9.742  0.3993 -0.1723  0.2638
  284MOL0     C37368   2.608   0.414   9.601  0.1458 -0.4827 -0.0097
  284MOL0     C37369   2.670   0.562   9.610  0.5120  0.3787  0.0298
  284MOL0     C37370   2.810   0.565   9.651 -0.2303 -0.3771 -0.5988
  284MOL0     C37371   2.864   0.711   9.673 -0.1682 -0.3574  0.1181
  284MOL0     C37372   2.935   0.742   9.813  0.6205  0.1000 -0.2717
  284MOL0     N37373   3.056   0.663   9.829  0.6592 -1.2104  0.7292
  284MOL0     C37374   3.065   0.561   9.914  0.8733 -0.1470 -0.0187
  284MOL0     C37375   3.193   0.518   9.920  0.2291  1.1043  0.4664
  284MOL0     C37376   3.269   0.414  10.001  0.2181 -0.3531  0.3403
  284MOL0     C37377   3.421   0.455   9.993 -0.9371  0.7219 -0.5012
  284MOL0     C37378   3.482   0.365  10.102 -0.0347  0.1668  0.6630
  284MOL0     C37379   3.640   0.392  10.114  0.2249  0.7213  0.6958
  284MOL0     O37380   3.704   0.278  10.164 -0.7539  0.3803  0.3296
  284MOL0     C37381   3.844   0.272  10.188  0.9871 -0.5575  0.4046
  284MOL0     C37382   3.936   0.370  10.145  0.4243  0.2255  0.4435
  284MOL0     C37383   4.076   0.361  10.167  0.0305  0.8519  0.0325
  284MOL0     C37384   4.114   0.244  10.241 -0.2729 -1.0028 -0.3628
  284MOL0     C37385   4.256   0.250  10.289  0.0949  0.1598  0.5856
  284MOL0     O37386   4.319   0.367  10.323  0.9648  0.4819 -0.6745
  284MOL0     C37387   4.450   0.380  10.331 -0.3131 -0.7757 -0.2514
  284MOL0     C37388   4.530   0.390  10.216  0.1008  0.4203 -0.0033
  284MOL0     C37389   4.669   0.388  10.224  0.2425  0.1005  0.9248
  284MOL0     C37390   4.738   0.389  10.350  0.2355  0.5616  0.0327
  284MOL0     O37391   4.875   0.399  10.347  0.1660  0.2145  0.0526
  284MOL0     C37392   4.942   0.466  10.459  0.0086  1.0263  0.5446
  284MOL0     C37393   5.071   0.548  10.427 -0.7161  0.7438  0.0422
  284MOL0     C37394   5.179   0.518  10.539 -0.0268 -0.0258 -0.0797
  284MOL0     C37395   5.285   0.627  10.531 -0.0073 -0.1440  0.0369
  284MOL0     C37396   5.410   0.582  10.602  0.2259 -1.1373 -0.3782
  284MOL0     C37397   5.408   0.569  10.754 -0.6451 -0.9586 -0.8048
  284MOL0     C37398   5.533   0.521  10.820  0.3743 -0.4175 -1.1799
  284MOL0     C37399   5.528   0.512  10.975 -0.0249 -0.7934 -0.4512
  284MOL0    Cl37400   5.429   0.369  11.032 -0.0990  0.3271 -0.0012
  284MOL0     C37401   4.657   0.383  10.461  0.1445 -0.2632  0.6420
  284MOL0     C37402   4.516   0.383  10.454 -0.2471  0.8275 -0.0519
  284MOL0     O37403   4.313   0.135  10.279  0.1876  0.3521  1.4285
  284MOL0     C37404   4.026   0.150  10.289  0.0387 -0.1835  1.0083
  284MOL0     C37405   3.890   0.160  10.259  0.2421 -0.4669  0.0040
  284MOL0     N37406   3.258   0.610   9.827 -0.1913  0.8782 -0.0261
  284MOL0     N37407   3.173   0.680   9.764 -0.9363 -0.5527  0.3076
  284MOL0     C37408   2.237  -0.061   9.730  0.0912 -0.2138 -0.7670
  284MOL0     C37409   2.105  -0.078   9.673 -1.0943  0.3020 -0.1033
  284MOL0     C37410   1.641   0.026   9.644  0.3838  0.5108  0.0983
  284MOL0     C37411   1.646   0.025   9.503  0.6262  0.6132 -0.6502
  284MOL0     C37412   1.525   0.032   9.428 -1.0879 -0.0467 -0.4626
  284MOL0     C37413   1.401   0.027   9.494  0.0562 -0.6214 -0.2575
  284MOL0     O37414   1.286   0.027   9.416 -0.1599 -0.5676 -0.6200
  284MOL0     C37415   1.164  -0.003   9.499 -0.2810  0.6409 -0.7877
  284MOL0     C37416   1.053  -0.003   9.400  0.0931  0.2333  0.7643
  284MOL0     C37417   0.914   0.034   9.445  1.3211 -0.4985 -0.3018
  284MOL0     C37418   0.869   0.182   9.435 -0.3838 -0.5527 -0.4606
  284MOL0     C37419   0.892   0.237   9.302  0.2910 -0.3173  0.5687
  284MOL0     C37420   0.918   0.255   9.182  1.1418 -0.0447  0.0371
  284MOL0     C37421   1.397   0.017   9.630 -0.3174 -0.7780 -1.5431
  284MOL0     C37422   1.511   0.017   9.705  0.1436  0.3915  0.6665
  284MOL0     H37423   1.961   0.167   9.855  1.7631  1.0887  1.6352
  284MOL0     H37424   2.168   0.181   9.949 -2.3664  2.1067 -0.7046
  284MOL0     H37425   2.539   0.172   9.933  0.9239 -2.1070 -1.0915
  284MOL0     H37426   2.389   0.243   9.954 -0.4468 -1.3294  0.2998
  284MOL0     H37427   2.368   0.284   9.726 -1.4278 -4.6447 -1.5573
  284MOL0     H37428   2.485   0.174   9.661 -0.4132 -1.2467 -0.3870
  284MOL0     H37429   2.666   0.327   9.781  1.2753  0.3662 -1.3722
  284MOL0     H37430   2.531   0.443   9.803 -0.8143 -0.5335  0.0295
  284MOL0     H37431   2.695   0.362   9.560  2.5483 -0.8580  4.7619
  284MOL0     H37432   2.524   0.410   9.532  0.2708 -2.5922 -0.1038
  284MOL0     H37433   2.598   0.620   9.668  2.4350  0.3712  2.5899
  284MOL0     H37434   2.659   0.620   9.518  1.8667  3.9001  1.8880
  284MOL0     H37435   2.884   0.515   9.587  1.2835 -1.9531  2.2204
  284MOL0     H37436   2.811   0.521   9.751 -2.8148 -0.8249 -0.6961
  284MOL0     H37437   2.939   0.732   9.596  1.5600 -0.1900  1.7697
  284MOL0     H37438   2.783   0.785   9.676 -0.3422 -0.5790  1.3208
  284MOL0     H37439   2.866   0.714   9.893  0.9815  2.1716  0.8263
  284MOL0     H37440   2.957   0.847   9.832 -0.5730  0.3303 -0.1099
  284MOL0     H37441   2.983   0.515   9.968 -2.1428  2.0226 -2.4253
  284MOL0     H37442   3.259   0.318   9.949 -1.0104  0.8556 -1.8297
  284MOL0     H37443   3.220   0.412  10.098 -0.0227  0.7423  0.2571
  284MOL0     H37444   3.430   0.560  10.022 -2.6960  1.4782 -2.4375
  284MOL0     H37445   3.473   0.450   9.897  1.2900  3.3844  0.4417
  284MOL0     H37446   3.424   0.388  10.191 -1.6631 -1.8993  0.2287
  284MOL0     H37447   3.474   0.258  10.081  0.6814  0.0288  1.0832
  284MOL0     H37448   3.649   0.478  10.180  3.7119  1.0419 -0.0045
  284MOL0     H37449   3.673   0.409  10.011 -2.0865 -0.4047 -0.3246
  284MOL0     H37450   3.908   0.465  10.099  0.6583  1.5022  2.7512
  284MOL0     H37451   4.138   0.434  10.116 -0.9715  0.2275 -2.2198
  284MOL0     H37452   4.479   0.397  10.120  0.2111 -0.0055 -0.0942
  284MOL0     H37453   4.721   0.393  10.129 -0.9868 -0.3864  0.2063
  284MOL0     H37454   4.973   0.381  10.521 -1.9495  0.9341  1.4809
  284MOL0     H37455   4.868   0.523  10.516 -0.3198  0.8965  0.2509
  284MOL0     H37456   5.038   0.652  10.423  1.3778  1.4771  0.3223
  284MOL0     H37457   5.108   0.519  10.328 -1.4466 -2.7354  0.6839
  284MOL0     H37458   5.222   0.420  10.515 -1.3545 -0.5305 -0.4967
  284MOL0     H37459   5.143   0.527  10.642  1.1342  1.1857  0.2537
  284MOL0     H37460   5.308   0.631  10.425 -0.2588 -2.3364 -0.1501
  284MOL0     H37461   5.242   0.725  10.554  1.2304  0.0474  1.7244
  284MOL0     H37462   5.479   0.666  10.589  0.7945 -1.7852 -1.9184
  284MOL0     H37463   5.445   0.487  10.560  1.7881 -1.4099  1.3900
  284MOL0     H37464   5.319   0.512  10.781 -2.4413  1.3110 -1.6439
  284MOL0     H37465   5.394   0.669  10.796  1.6174 -1.2468  0.8612
  284MOL0     H37466   5.569   0.428  10.776  0.8798 -1.5908  1.4882
  284MOL0     H37467   5.615   0.589  10.796 -0.2721  0.9638  0.2916
  284MOL0     H37468   5.488   0.599  11.028 -0.9963 -1.2666 -0.3842
  284MOL0     H37469   5.625   0.484  11.015  0.1938 -0.1920 -0.5427
  284MOL0     H37470   4.695   0.382  10.563  0.7871 -1.5500  0.4094
  284MOL0     H37471   4.461   0.392  10.547 -1.8380 -0.2592 -0.8574
  284MOL0     H37472   4.060   0.072  10.356 -1.1958 -2.0152 -0.4019
  284MOL0     H37473   3.821   0.088  10.301 -0.6603  1.8938  2.8798
  284MOL0     H37474   2.316  -0.107   9.672  1.2560 -1.8106  1.8894
  284MOL0     H37475   2.098  -0.148   9.590 -0.7001  0.9835 -0.7136
  284MOL0     H37476   1.739   0.005   9.451 -0.7865 -2.1507 -2.3443
  284MOL0     H37477   1.518   0.026   9.320 -1.7521  0.3954 -0.4487
  284MOL0     H37478   1.136   0.069   9.577 -3.5095 -2.6413  1.4354
  284MOL0     H37479   1.164  -0.099   9.553  2.1623  2.0936  2.1476
  284MOL0     H37480   1.082   0.067   9.322  0.7683 -1.0516 -0.1790
  284MOL0     H37481   1.047  -0.106   9.362  3.1836  0.0277  0.5550
  284MOL0     H37482   0.883  -0.012   9.540 -2.3920 -1.9425 -2.0205
  284MOL0     H37483   0.855  -0.019   9.370  0.2460  0.6827 -0.3214
  284MOL0     H37484   0.762   0.194   9.455 -0.5564  1.9464 -2.3646
  284MOL0     H37485   0.932   0.232   9.509  0.3766  1.1649 -2.1780
  284MOL0     H37486   0.933   0.255   9.076 -2.4811  1.7382 -0.6335
  284MOL0     H37487   1.308   0.018   9.692  0.5483  2.2321 -0.1816
  284MOL0     H37488   1.488   0.005   9.810 -0.8057 -1.3288  0.3192
  285MOL0     O37489   6.315   6.802   5.526  0.1312 -0.3936 -0.0538
  285MOL0     C37490   6.253   6.694   5.525  0.2593 -0.2490  0.0965
  285MOL0     O37491   6.308   6.567   5.528  0.6638  0.1959 -0.0721
  285MOL0     C37492   6.405   6.543   5.442 -0.3350 -0.2102  0.7181
  285MOL0     C37493   6.509   6.456   5.484  0.3123 -0.6580  0.4737
  285MOL0     C37494   6.624   6.430   5.405 -0.3614 -0.2435  1.3115
  285MOL0     C37495   6.625   6.481   5.276  1.4512 -0.3232  0.1745
  285MOL0     O37496   6.722   6.482   5.186 -0.2938 -0.0575 -0.3771
  285MOL0     C37497   6.810   6.370   5.168  0.3826 -0.1239  0.4010
  285MOL0     C37498   6.932   6.411   5.104  0.8363 -0.5342  0.2713
  285MOL0     C37499   7.020   6.290   5.054  0.1058 -0.2392 -0.7744
  285MOL0     C37500   7.143   6.346   4.987  0.0764 -0.0846  0.4512
  285MOL0     C37501   7.200   6.253   4.882 -0.3312 -0.0333  0.3133
  285MOL0     C37502   7.286   6.148   4.948  0.5030  0.3845  0.1469
  285MOL0     C37503   7.352   6.064   4.841  0.7491 -0.7020 -0.3860
  285MOL0     C37504   7.450   5.963   4.913 -0.1800 -0.2182 -0.4009
  285MOL0     N37505   7.378   5.862   4.998 -0.4109 -0.4360  0.3616
  285MOL0     C37506   7.292   5.766   4.946 -0.3698  0.0576  0.7195
  285MOL0     C37507   7.250   5.689   5.059 -0.6020 -0.6375  1.3924
  285MOL0     C37508   7.166   5.564   5.041 -0.1438  0.1782  0.2290
  285MOL0     C37509   7.018   5.580   5.058  0.6420 -0.5737  0.2078
  285MOL0     C37510   6.948   5.444   5.032 -0.7415 -0.6231 -0.3800
  285MOL0     C37511   6.800   5.453   5.025  0.1641 -0.7433 -0.4992
  285MOL0     O37512   6.762   5.475   5.154  0.6304  0.0059 -0.6351
  285MOL0     C37513   6.629   5.513   5.175  0.0405 -0.1627  0.4025
  285MOL0     C37514   6.586   5.539   5.301 -0.4475  0.5978 -0.4197
  285MOL0     C37515   6.453   5.593   5.334  0.2280 -0.3217  0.3013
  285MOL0     C37516   6.361   5.613   5.231  0.4516  0.0078  0.3538
  285MOL0     C37517   6.230   5.678   5.258 -0.0185  0.2654 -0.3898
  285MOL0     O37518   6.196   5.703   5.385  0.1955 -0.6030  0.2563
  285MOL0     C37519   6.072   5.746   5.433  0.1665 -0.2254  0.9931
  285MOL0     C37520   5.950   5.774   5.360 -0.1504 -0.2071 -0.0415
  285MOL0     C37521   5.838   5.820   5.430  0.4501 -1.3143 -0.0965
  285MOL0     C37522   5.840   5.836   5.576  0.1283 -0.1740 -0.2210
  285MOL0     O37523   5.735   5.870   5.661 -0.9355  0.6334  0.6678
  285MOL0     C37524   5.610   5.844   5.599 -0.2444 -0.1140  0.1373
  285MOL0     C37525   5.507   5.851   5.714  0.4498 -0.0424  0.1927
  285MOL0     C37526   5.499   5.979   5.793 -0.3377 -0.1317  0.5492
  285MOL0     C37527   5.378   5.972   5.896  0.3239 -0.2337  0.5176
  285MOL0     C37528   5.394   6.086   6.003  0.0327 -0.5163 -0.2002
  285MOL0     C37529   5.279   6.073   6.097 -0.1471 -0.5192 -0.5797
  285MOL0     C37530   5.304   5.964   6.207 -0.8965 -0.4949  0.3460
  285MOL0     C37531   5.411   5.994   6.307 -0.9231  0.2304 -0.0963
  285MOL0    Cl37532   5.389   6.147   6.394 -0.2312 -0.3470 -0.4859
  285MOL0     C37533   5.964   5.807   5.634 -0.7339  1.3036  0.1326
  285MOL0     C37534   6.077   5.758   5.569  0.0780 -0.1428  0.3483
  285MOL0     O37535   6.152   5.679   5.167  0.9154  0.6075  1.1149
  285MOL0     C37536   6.400   5.585   5.105  0.3417  0.5235  0.4064
  285MOL0     C37537   6.533   5.539   5.076 -0.2355 -0.4773  0.6003
  285MOL0     N37538   7.319   5.734   5.160  0.8622  0.0982  0.1605
  285MOL0     N37539   7.399   5.835   5.135  0.1751 -0.2571 -0.5664
  285MOL0     C37540   6.517   6.564   5.240 -0.2034 -0.2108 -0.5512
  285MOL0     C37541   6.404   6.596   5.318 -0.7206  0.6893 -0.4335
  285MOL0     C37542   6.105   6.707   5.534  0.1277  0.1335  0.2349
  285MOL0     C37543   6.029   6.823   5.564  0.6808  0.7985  1.1627
  285MOL0     C37544   5.890   6.834   5.581  0.1217 -0.0977  0.3541
  285MOL0     C37545   5.817   6.718   5.580  0.1358  0.1028 -0.4451
  285MOL0     O37546   5.680   6.734   5.597 -0.1933  0.3720 -0.2488
  285MOL0     C37547   5.594   6.617   5.581 -0.6476 -0.4067 -0.1783
  285MOL0     C37548   5.543   6.595   5.442  0.3567 -0.1705 -0.4058
  285MOL0     C37549   5.475   6.726   5.406  0.3201  0.0100  0.1226
  285MOL0     C37550   5.392   6.720   5.280 -0.1864 -0.7743 -0.1848
  285MOL0     C37551   5.479   6.698   5.161  0.1146  0.5973 -0.5558
  285MOL0     C37552   5.523   6.672   5.052 -0.1796  0.9293  0.1206
  285MOL0     C37553   5.885   6.607   5.540  0.1196  0.4978 -0.3944
  285MOL0     C37554   6.024   6.592   5.521  0.2188  0.5636  0.1443
  285MOL0     H37555   6.509   6.422   5.588 -0.9183  1.3143  1.1822
  285MOL0     H37556   6.713   6.383   5.447  1.6015  1.5874 -0.5589
  285MOL0     H37557   6.759   6.300   5.101  1.0449 -1.0084  0.8000
  285MOL0     H37558   6.847   6.324   5.260  3.5359  2.7452  0.7467
  285MOL0     H37559   6.997   6.472   5.169  2.1411 -0.5624 -0.9529
  285MOL0     H37560   6.907   6.465   5.012  0.4433 -0.3195  0.5022
  285MOL0     H37561   6.957   6.240   4.979  0.5850 -1.0249 -0.6570
  285MOL0     H37562   7.053   6.224   5.135 -1.5208  1.2796  1.2309
  285MOL0     H37563   7.110   6.427   4.922 -1.6958 -0.2456  1.0904
  285MOL0     H37564   7.224   6.374   5.056  0.3245 -1.3915  0.7174
  285MOL0     H37565   7.255   6.316   4.812  1.2168 -0.2560  1.2946
  285MOL0     H37566   7.121   6.197   4.832 -1.8310  3.6808 -1.8695
  285MOL0     H37567   7.228   6.080   5.010  0.0211  0.5880 -0.0765
  285MOL0     H37568   7.357   6.197   5.015 -0.4441  0.2052  1.3092
  285MOL0     H37569   7.283   6.010   4.777  0.1898 -1.6283  0.9590
  285MOL0     H37570   7.407   6.129   4.772 -0.2332 -0.5193 -1.0216
  285MOL0     H37571   7.519   6.019   4.977 -2.2218  1.0538  0.8259
  285MOL0     H37572   7.506   5.908   4.837 -2.4007 -2.4749 -0.5213
  285MOL0     H37573   7.265   5.758   4.841  0.7005  1.6240  0.2797
  285MOL0     H37574   7.212   5.486   5.103  0.5095  0.7207  0.4411
  285MOL0     H37575   7.199   5.528   4.943  1.4807  0.2308  0.7306
  285MOL0     H37576   6.983   5.659   4.991  0.4732  0.0275  0.9887
  285MOL0     H37577   7.001   5.619   5.158  0.1152  1.4751 -0.6255
  285MOL0     H37578   6.978   5.412   4.932 -0.1306  3.1918 -1.5736
  285MOL0     H37579   6.983   5.368   5.103  0.9800 -0.9161 -1.4883
  285MOL0     H37580   6.747   5.378   4.965  0.3031 -1.0920 -0.1888
  285MOL0     H37581   6.782   5.551   4.980 -1.0732  0.3898  2.2726
  285MOL0     H37582   6.660   5.517   5.377 -0.0674  0.2662 -0.8771
  285MOL0     H37583   6.442   5.612   5.440  2.8838 -2.3475  1.0583
  285MOL0     H37584   5.941   5.763   5.253 -1.7043  2.9061 -0.3548
  285MOL0     H37585   5.759   5.860   5.369 -1.6710 -1.0218  2.6482
  285MOL0     H37586   5.620   5.744   5.557  1.9644 -1.1226  2.7391
  285MOL0     H37587   5.580   5.916   5.523 -0.8141 -0.3406  0.1432
  285MOL0     H37588   5.526   5.773   5.788 -4.3602 -0.7008  1.0617
  285MOL0     H37589   5.408   5.825   5.676  0.3584  1.2183 -0.5034
  285MOL0     H37590   5.484   6.065   5.727  3.1249 -0.8913 -1.4935
  285MOL0     H37591   5.592   5.992   5.849 -0.2531  0.9789  0.1724
  285MOL0     H37592   5.287   5.993   5.840  1.9978  0.5796 -2.0438
  285MOL0     H37593   5.374   5.873   5.943  3.5654  0.4406  2.4691
  285MOL0     H37594   5.377   6.178   5.946  2.2273 -0.9884 -1.7320
  285MOL0     H37595   5.489   6.099   6.055  1.3882  3.0123 -3.1158
  285MOL0     H37596   5.181   6.039   6.061  1.1150 -2.1552 -2.7580
  285MOL0     H37597   5.274   6.173   6.140  0.1680 -2.3602  4.3158
  285MOL0     H37598   5.212   5.959   6.266  0.5038 -4.8968  2.6158
  285MOL0     H37599   5.322   5.870   6.154  2.0316  1.4473 -2.4715
  285MOL0     H37600   5.510   6.000   6.259 -1.3846  4.0692 -0.8861
  285MOL0     H37601   5.418   5.914   6.381 -0.5557 -1.5795 -1.9803
  285MOL0     H37602   5.969   5.818   5.742 -0.9598 -1.0229  0.4381
  285MOL0     H37603   6.165   5.726   5.626  0.4823  0.4863  0.0902
  285MOL0     H37604   6.337   5.601   5.019  0.5419 -0.7262  0.0035
  285MOL0     H37605   6.570   5.539   4.974  0.2910  0.4634  0.7728
  285MOL0     H37606   6.531   6.613   5.144 -0.3768  2.3184  0.6266
  285MOL0     H37607   6.321   6.659   5.288 -1.0434  3.5352  5.1515
  285MOL0     H37608   6.084   6.917   5.568  0.4270  0.9447  1.2779
  285MOL0     H37609   5.863   6.937   5.600  2.9340  1.0405 -1.2102
  285MOL0     H37610   5.511   6.634   5.650  0.2531  1.8002  0.4173
  285MOL0     H37611   5.641   6.526   5.620 -0.6844 -1.0991 -1.6584
  285MOL0     H37612   5.631   6.569   5.382  0.4993 -1.0675  0.1681
  285MOL0     H37613   5.468   6.516   5.425 -1.8600  1.8589 -0.6307
  285MOL0     H37614   5.546   6.809   5.398  1.8985 -1.4683 -2.5857
  285MOL0     H37615   5.404   6.750   5.485  0.9440  1.4691  0.2751
  285MOL0     H37616   5.325   6.634   5.283  1.5270 -2.1266  0.1227
  285MOL0     H37617   5.343   6.818   5.282  3.3299  1.1512 -0.5288
  285MOL0     H37618   5.579   6.652   4.962  0.7137  1.7294  0.4782
  285MOL0     H37619   5.822   6.519   5.531  0.0047  0.1665  2.5055
  285MOL0     H37620   6.079   6.505   5.485 -0.3617  0.5007 -0.6124
  286MOL0     O37621   4.679   5.176  10.200 -0.4422  0.5359  0.2171
  286MOL0     C37622   4.591   5.238  10.257  1.4244  0.3036 -0.3762
  286MOL0     O37623   4.589   5.276  10.391 -0.3934 -0.1046 -0.5381
  286MOL0     C37624   4.699   5.243  10.469 -0.2835  0.0855  0.2786
  286MOL0     C37625   4.771   5.343  10.539  0.1475  0.6491  0.1966
  286MOL0     C37626   4.880   5.313  10.624  0.0289 -0.0961  0.3010
  286MOL0     C37627   4.920   5.175  10.623 -0.4815 -0.3234  0.3864
  286MOL0     O37628   5.031   5.141  10.707  0.1473 -0.0250  0.4149
  286MOL0     C37629   5.151   5.202  10.661 -0.7812 -0.3676  0.6196
  286MOL0     C37630   5.251   5.137  10.756 -0.5326  0.5425 -0.0371
  286MOL0     C37631   5.394   5.145  10.692 -0.2103 -1.0181 -0.4752
  286MOL0     C37632   5.488   5.053  10.779 -0.8994  0.2342  0.5955
  286MOL0     C37633   5.628   5.024  10.731  0.6019 -0.4093  0.2384
  286MOL0     C37634   5.700   4.930  10.823 -0.1387  0.8315 -1.1386
  286MOL0     C37635   5.839   4.916  10.777 -0.1804  0.2633  0.3417
  286MOL0     C37636   5.855   4.878  10.628 -0.3067 -0.1575 -0.0583
  286MOL0     N37637   5.977   4.791  10.607  0.6917 -0.7709 -0.0996
  286MOL0     C37638   6.097   4.853  10.595  0.7410  0.3444 -0.5271
  286MOL0     C37639   6.177   4.753  10.555  0.7672  0.2211  0.7099
  286MOL0     C37640   6.318   4.778  10.522  1.1123 -0.4038 -0.2945
  286MOL0     C37641   6.395   4.809  10.646  0.5793  0.2946 -0.4170
  286MOL0     C37642   6.408   4.694  10.750  0.4266 -0.5552  0.8598
  286MOL0     C37643   6.296   4.696  10.850  0.3223  1.2608  0.4490
  286MOL0     O37644   6.291   4.825  10.913  0.7803  0.2950  0.3221
  286MOL0     C37645   6.178   4.858  10.972 -0.4716 -0.1994 -0.7997
  286MOL0     C37646   6.154   4.991  11.002 -0.2674  0.3002  0.7014
  286MOL0     C37647   6.039   5.032  11.063 -0.0740  0.0827 -0.0165
  286MOL0     C37648   5.944   4.937  11.109 -0.8163 -0.2589  0.2187
  286MOL0     C37649   5.823   4.983  11.181  0.2105 -0.4069 -0.3161
  286MOL0     O37650   5.714   4.906  11.180 -0.1467 -0.3027 -0.2405
  286MOL0     C37651   5.597   4.952  11.243  0.7036 -0.2929  0.8552
  286MOL0     C37652   5.573   4.963  11.384  0.2395 -0.8071 -0.4618
  286MOL0     C37653   5.459   5.020  11.435  0.0524 -0.4128  0.5433
  286MOL0     C37654   5.361   5.061  11.336  0.8977 -0.4450 -0.1715
  286MOL0     O37655   5.251   5.117  11.392 -0.0312 -0.3084 -0.2152
  286MOL0     C37656   5.150   5.182  11.312  0.0251  0.3855  0.8866
  286MOL0     C37657   5.109   5.292  11.397 -0.5031  0.1112  0.0542
  286MOL0     C37658   5.084   5.412  11.314  0.0191  0.4385  0.2359
  286MOL0     C37659   5.001   5.527  11.375  0.5114  0.6406 -0.6738
  286MOL0     C37660   5.031   5.581  11.511  0.5760  0.1253  1.0461
  286MOL0     C37661   4.929   5.686  11.544  0.0550 -0.0005 -0.7760
  286MOL0     C37662   4.934   5.725  11.697 -0.0142 -0.2070 -0.3690
  286MOL0     C37663   5.065   5.787  11.739 -0.2459 -0.6262 -0.2798
  286MOL0    Cl37664   5.029   5.862  11.901 -0.0179 -0.1431 -0.1122
  286MOL0     C37665   5.376   5.039  11.194 -0.3742 -1.1224 -0.5571
  286MOL0     C37666   5.500   4.997  11.153 -0.5642  0.0934  0.1383
  286MOL0     O37667   5.827   5.096  11.236  0.3492 -0.2806 -0.4854
  286MOL0     C37668   5.962   4.804  11.079 -0.7792 -0.3376  0.2245
  286MOL0     C37669   6.078   4.767  11.008  0.1601 -0.0114 -0.3954
  286MOL0     N37670   6.111   4.630  10.559 -0.1170 -0.0962 -0.1060
  286MOL0     N37671   5.984   4.658  10.595  0.0565  0.8066  0.4303
  286MOL0     C37672   4.842   5.075  10.565  0.8206  0.8050  0.1018
  286MOL0     C37673   4.727   5.107  10.490 -0.2765  0.2115 -0.1152
  286MOL0     C37674   4.476   5.281  10.189 -1.1937  0.1100  0.0603
  286MOL0     C37675   4.494   5.310  10.054 -0.5650  0.2285  0.3620
  286MOL0     C37676   4.390   5.369   9.980 -1.2613  0.3113  1.0656
  286MOL0     C37677   4.267   5.390  10.041  1.0268 -0.5176 -0.1761
  286MOL0     O37678   4.151   5.439   9.981 -0.3107 -0.0392  1.8641
  286MOL0     C37679   4.156   5.515   9.852 -0.0695  0.7650 -0.9684
  286MOL0     C37680   4.051   5.622   9.839 -0.8500  0.3920 -0.1734
  286MOL0     C37681   3.920   5.600   9.906 -0.2639 -0.2404 -0.0465
  286MOL0     C37682   3.847   5.473   9.867 -0.5818  0.6387 -0.0555
  286MOL0     C37683   3.701   5.486   9.882  0.0484  0.9073 -0.8668
  286MOL0     C37684   3.580   5.485   9.858  0.0234  0.2589 -0.2621
  286MOL0     C37685   4.252   5.361  10.180  0.6819 -0.7345 -1.0803
  286MOL0     C37686   4.350   5.300  10.250  0.3630 -0.2523  0.7637
  286MOL0     H37687   4.721   5.439  10.547 -1.8951 -0.4821  2.2396
  286MOL0     H37688   4.921   5.393  10.686 -1.8264 -0.2069  1.7923
  286MOL0     H37689   5.145   5.311  10.675 -0.2362 -0.2812  0.2039
  286MOL0     H37690   5.164   5.179  10.555  0.4523  4.8372 -0.6332
  286MOL0     H37691   5.226   5.032  10.769 -1.6590  1.1348  3.7788
  286MOL0     H37692   5.260   5.192  10.851 -0.0105 -0.3076  0.4175
  286MOL0     H37693   5.442   5.243  10.689 -0.9583 -0.6594 -0.7970
  286MOL0     H37694   5.386   5.111  10.588  0.3263 -0.5981 -0.6576
  286MOL0     H37695   5.501   5.096  10.879  1.4526 -0.5505  0.6824
  286MOL0     H37696   5.440   4.954  10.788  0.0520 -0.2448  0.4656
  286MOL0     H37697   5.679   5.121  10.729  0.6946 -0.4645 -0.2960
  286MOL0     H37698   5.628   4.986  10.629 -0.0076 -0.2180  0.1680
  286MOL0     H37699   5.658   4.830  10.837  0.5882  0.6744 -0.0020
  286MOL0     H37700   5.700   4.961  10.928  1.8492 -4.7507  0.8516
  286MOL0     H37701   5.902   5.004  10.792 -0.1617  0.3748 -0.3420
  286MOL0     H37702   5.877   4.833  10.837 -0.9211  0.4045  1.0092
  286MOL0     H37703   5.856   4.974  10.576  1.4606  2.2675  3.9511
  286MOL0     H37704   5.771   4.819  10.591 -0.7280  0.0335  0.5804
  286MOL0     H37705   6.105   4.960  10.610 -0.5265  0.2670  0.9278
  286MOL0     H37706   6.315   4.859  10.449 -1.2842 -1.3712 -1.3684
  286MOL0     H37707   6.358   4.687  10.476  1.7447 -1.3116  1.9314
  286MOL0     H37708   6.364   4.908  10.682  0.4432  1.7226 -3.9891
  286MOL0     H37709   6.499   4.826  10.616  0.0217  1.8085 -1.6821
  286MOL0     H37710   6.402   4.595  10.702  2.7044 -0.6567  0.6568
  286MOL0     H37711   6.507   4.709  10.794 -0.1366 -0.0829  1.9919
  286MOL0     H37712   6.312   4.627  10.934  3.2711  0.7020 -0.4483
  286MOL0     H37713   6.202   4.671  10.801  1.0616  0.2380 -0.4870
  286MOL0     H37714   6.235   5.059  10.978  1.3803 -1.7231  0.1866
  286MOL0     H37715   6.031   5.138  11.082  1.8065  1.0880 -3.7919
  286MOL0     H37716   5.662   4.932  11.438  0.4976  1.0147  0.2443
  286MOL0     H37717   5.438   5.034  11.541 -1.0583  1.3244  0.1297
  286MOL0     H37718   5.064   5.115  11.300  0.7602 -0.2621 -1.3168
  286MOL0     H37719   5.189   5.203  11.212  2.8089 -0.8882  1.6209
  286MOL0     H37720   5.176   5.307  11.482 -0.9342  0.0048  0.4186
  286MOL0     H37721   5.015   5.250  11.434 -0.0347 -2.0588 -1.0580
  286MOL0     H37722   5.044   5.388  11.215  0.7447  0.8680 -0.1680
  286MOL0     H37723   5.177   5.460  11.283  0.3534  0.6182  1.4861
  286MOL0     H37724   5.012   5.614  11.309  4.5945  1.7478  1.1219
  286MOL0     H37725   4.896   5.496  11.376  1.5268 -3.3299  1.6172
  286MOL0     H37726   5.134   5.620  11.505  0.0577  1.5017  0.7087
  286MOL0     H37727   5.032   5.496  11.579 -1.8998 -1.1226 -0.3646
  286MOL0     H37728   4.829   5.652  11.515  0.4372  1.5086 -4.3130
  286MOL0     H37729   4.955   5.776  11.488 -0.1126  0.4155 -0.1946
  286MOL0     H37730   4.849   5.788  11.723  0.3177  1.1403 -2.3301
  286MOL0     H37731   4.907   5.633  11.750 -3.6516  0.4816 -0.8203
  286MOL0     H37732   5.085   5.873  11.673 -0.6839  0.8045  1.3601
  286MOL0     H37733   5.150   5.720  11.724 -1.3309 -1.2550 -5.4558
  286MOL0     H37734   5.300   5.050  11.117  1.7259  1.4440 -2.4677
  286MOL0     H37735   5.514   4.989  11.046  1.4222  2.6091  0.1136
  286MOL0     H37736   5.886   4.738  11.118 -1.5919 -0.3804 -1.3748
  286MOL0     H37737   6.096   4.662  10.987 -1.1119  0.0106 -1.8250
  286MOL0     H37738   4.852   4.973  10.601 -3.8120  0.5040  1.1430
  286MOL0     H37739   4.655   5.040  10.443 -0.3119  1.6436 -2.2436
  286MOL0     H37740   4.586   5.282  10.004 -0.1696  1.9069  0.0884
  286MOL0     H37741   4.416   5.404   9.881  1.5313 -0.2317  1.5215
  286MOL0     H37742   4.129   5.440   9.777 -0.4035 -0.7302  0.5882
  286MOL0     H37743   4.258   5.544   9.826  0.7894 -0.9737  0.3201
  286MOL0     H37744   4.093   5.713   9.882 -1.0591  0.5118 -0.2231
  286MOL0     H37745   4.042   5.639   9.731  0.6834 -1.4910 -0.6717
  286MOL0     H37746   3.851   5.685   9.897  0.6743  0.3937 -1.7157
  286MOL0     H37747   3.943   5.588  10.013  0.9177  1.8499 -0.0031
  286MOL0     H37748   3.871   5.451   9.762 -2.8178  1.0158 -0.7166
  286MOL0     H37749   3.884   5.394   9.933 -0.7744  0.6627  0.0833
  286MOL0     H37750   3.479   5.476   9.823  0.9990 -1.2696 -3.0562
  286MOL0     H37751   4.164   5.383  10.240  0.6410 -3.2747 -0.0803
  286MOL0     H37752   4.333   5.262  10.350  0.5881 -0.4311  0.7349
  287MOL0     O37753  10.127   9.974   0.058 -0.7267  0.5224  0.0240
  287MOL0     C37754  10.013   9.942   0.022  0.2255  0.6176 -0.0338
  287MOL0     O37755   9.938  10.007  -0.064 -0.4333 -0.5932 -0.1273
  287MOL0     C37756   9.994  10.064  -0.181 -0.3333 -0.5689  0.0755
  287MOL0     C37757   9.909  10.049  -0.290 -0.2325  0.6117  0.1612
  287MOL0     C37758   9.950  10.105  -0.414 -0.5026 -0.5029  0.1544
  287MOL0     C37759  10.071  10.174  -0.428 -0.3782  0.5348  0.5825
  287MOL0     O37760  10.104  10.234  -0.544  0.2076 -0.2246  0.1446
  287MOL0     C37761  10.133  10.142  -0.651 -0.7989  0.9327 -0.0676
  287MOL0     C37762  10.200  10.219  -0.763 -0.0587  0.4036 -0.8690
  287MOL0     C37763  10.102  10.304  -0.834 -0.0302 -0.4105  0.4513
  287MOL0     C37764  10.026  10.225  -0.934  0.0924 -0.8454  0.0928
  287MOL0     C37765   9.925  10.316  -1.004  0.1015  0.1059 -1.9850
  287MOL0     C37766   9.978  10.446  -1.070 -0.3417  0.8989  0.8465
  287MOL0     C37767  10.078  10.412  -1.176 -0.7246 -1.2111  0.3010
  287MOL0     C37768  10.025  10.317  -1.283 -0.2495 -0.0374 -0.2446
  287MOL0     N37769  10.088  10.331  -1.419  0.2566  0.0955  0.5888
  287MOL0     C37770  10.026  10.395  -1.529 -0.3298  0.4823  0.0413
  287MOL0     C37771  10.128  10.414  -1.617  0.1071 -0.3587  0.1431
  287MOL0     C37772  10.116  10.483  -1.754  0.0869 -0.1016  0.7174
  287MOL0     C37773   9.972  10.521  -1.792 -0.1918 -0.8199  0.1268
  287MOL0     C37774   9.975  10.583  -1.929 -0.2190 -0.2392  0.6240
  287MOL0     C37775   9.854  10.670  -1.947 -0.2442  0.5249  0.1183
  287MOL0     O37776   9.864  10.712  -2.079 -0.4299 -0.2702  0.3232
  287MOL0     C37777   9.759  10.789  -2.120 -0.2089  0.3035  0.2723
  287MOL0     C37778   9.642  10.820  -2.053 -0.3487  0.2384  1.1740
  287MOL0     C37779   9.544  10.890  -2.114 -0.2948  0.3284  0.7376
  287MOL0     C37780   9.572  10.961  -2.230 -0.3793  0.3277  0.9180
  287MOL0     C37781   9.469  11.051  -2.289 -0.5495 -0.0914 -1.0148
  287MOL0     O37782   9.473  11.072  -2.418  0.3872 -0.0096 -0.4046
  287MOL0     C37783   9.408  11.182  -2.461  1.3122 -0.5040  0.4265
  287MOL0     C37784   9.473  11.306  -2.470 -0.7824  0.6451 -0.6038
  287MOL0     C37785   9.412  11.421  -2.500  0.2240 -0.2125  1.0752
  287MOL0     C37786   9.277  11.411  -2.545 -0.6570 -0.3123  0.1322
  287MOL0     O37787   9.204  11.515  -2.602 -0.4701  0.2125 -0.0214
  287MOL0     C37788   9.264  11.652  -2.616  0.0090 -0.1600  0.1681
  287MOL0     C37789   9.366  11.673  -2.737  0.8438  0.0024 -0.1048
  287MOL0     C37790   9.284  11.689  -2.867 -0.0669  0.1277 -0.4335
  287MOL0     C37791   9.381  11.717  -2.979 -0.1424 -0.0806  0.4395
  287MOL0     C37792   9.326  11.745  -3.115 -0.0976  0.0094 -0.0383
  287MOL0     C37793   9.236  11.861  -3.142  0.3653 -0.0444 -0.1639
  287MOL0     C37794   9.148  11.850  -3.267 -0.0246  1.5753 -1.1542
  287MOL0     C37795   9.040  11.955  -3.267  0.3154  0.3873  0.6479
  287MOL0    Cl37796   9.090  12.120  -3.224  0.2992 -0.1054 -0.1264
  287MOL0     C37797   9.213  11.292  -2.546  0.2940  0.4536  0.4350
  287MOL0     C37798   9.277  11.176  -2.503 -0.4700 -0.6686 -0.1827
  287MOL0     O37799   9.390  11.106  -2.208 -0.5053 -0.5453 -0.3327
  287MOL0     C37800   9.690  10.940  -2.308 -0.3698  0.3248 -0.4397
  287MOL0     C37801   9.782  10.852  -2.246 -0.2071 -0.1331  0.1345
  287MOL0     N37802  10.250  10.366  -1.558 -0.0943 -0.3394 -0.2529
  287MOL0     N37803  10.224  10.309  -1.446 -0.7972  0.9859 -0.3426
  287MOL0     C37804  10.165  10.170  -0.323 -0.0913 -0.7341 -0.1999
  287MOL0     C37805  10.119  10.131  -0.200  0.3643  0.3738 -0.0068
  287MOL0     C37806   9.938   9.851   0.117 -0.4093 -0.3711 -0.1726
  287MOL0     C37807  10.001   9.778   0.223 -0.0466 -0.4151 -0.2299
  287MOL0     C37808   9.943   9.683   0.294 -0.7627 -0.5378 -0.0002
  287MOL0     C37809   9.801   9.663   0.282 -0.5654 -0.7051  0.4586
  287MOL0     O37810   9.739   9.567   0.362 -0.0032  0.0134  0.2076
  287MOL0     C37811   9.817   9.491   0.458 -0.2659  0.1514  0.9247
  287MOL0     C37812   9.694   9.411   0.510 -0.3468 -0.2716 -0.7897
  287MOL0     C37813   9.717   9.332   0.644 -0.0686  0.3602 -0.2271
  287MOL0     C37814   9.728   9.419   0.772  0.2908 -0.0112 -0.4036
  287MOL0     C37815   9.615   9.507   0.803  0.1820  0.1170 -0.5296
  287MOL0     C37816   9.519   9.579   0.825  0.2532  0.5439 -0.8364
  287MOL0     C37817   9.733   9.737   0.184 -0.2417  0.3640  0.7523
  287MOL0     C37818   9.803   9.828   0.109 -0.0073  0.0952 -0.2054
  287MOL0     H37819   9.821   9.987  -0.277 -0.4812 -0.1764 -3.7748
  287MOL0     H37820   9.884  10.112  -0.500 -0.7971 -1.2919  0.3163
  287MOL0     H37821  10.052  10.084  -0.698  1.0821 -0.4607 -1.7819
  287MOL0     H37822  10.216  10.079  -0.618  0.1594  0.5978 -2.8414
  287MOL0     H37823  10.237  10.144  -0.833  1.1825 -0.7751  0.9365
  287MOL0     H37824  10.279  10.282  -0.720 -2.0306  1.7028  1.0477
  287MOL0     H37825  10.160  10.391  -0.868  0.3167 -0.5162  0.7612
  287MOL0     H37826  10.030  10.350  -0.766 -0.6655 -1.8657  0.8136
  287MOL0     H37827  10.091  10.177  -1.007 -0.7921 -1.2481 -0.4343
  287MOL0     H37828   9.974  10.149  -0.875  0.9341 -0.2301  1.7050
  287MOL0     H37829   9.858  10.345  -0.923  0.3585 -1.5531 -1.1621
  287MOL0     H37830   9.871  10.261  -1.081  3.2064  0.1128 -4.3715
  287MOL0     H37831  10.016  10.511  -0.991 -1.0905  0.7619  1.3334
  287MOL0     H37832   9.891  10.497  -1.113 -2.1916 -1.2178  1.8543
  287MOL0     H37833  10.093  10.510  -1.221  0.6451  0.2558  3.6135
  287MOL0     H37834  10.179  10.392  -1.138  2.1244  4.4249 -3.0054
  287MOL0     H37835   9.917  10.339  -1.281 -0.5283 -1.2593 -0.8630
  287MOL0     H37836  10.054  10.215  -1.257  1.2721  0.2947 -0.5461
  287MOL0     H37837   9.918  10.411  -1.530 -0.7132 -1.7916 -0.7116
  287MOL0     H37838  10.152  10.401  -1.816  0.0673 -0.5818  1.3322
  287MOL0     H37839  10.176  10.574  -1.760 -0.5157  0.4552  2.4635
  287MOL0     H37840   9.941  10.597  -1.720 -0.2481 -0.6693 -0.0558
  287MOL0     H37841   9.907  10.433  -1.795 -0.8788 -0.3268  0.1972
  287MOL0     H37842  10.061  10.651  -1.932 -0.6232  0.2954  0.9678
  287MOL0     H37843  10.003  10.509  -2.005  3.1107  0.5600  0.9202
  287MOL0     H37844   9.865  10.751  -1.875  4.0913 -1.2229  1.7562
  287MOL0     H37845   9.767  10.605  -1.929  0.4937 -0.6748 -0.4995
  287MOL0     H37846   9.613  10.775  -1.958  0.3905  1.8599  2.2108
  287MOL0     H37847   9.450  10.906  -2.063 -0.6517  4.7906 -0.9041
  287MOL0     H37848   9.575  11.311  -2.433 -1.6194 -2.3020  2.5291
  287MOL0     H37849   9.468  11.514  -2.505 -0.8072  0.3730 -0.2583
  287MOL0     H37850   9.325  11.671  -2.527  0.7746 -1.7951  0.0375
  287MOL0     H37851   9.183  11.724  -2.633  1.1639  1.3975  0.9741
  287MOL0     H37852   9.446  11.598  -2.734  0.7583 -0.1543  3.5492
  287MOL0     H37853   9.411  11.770  -2.714 -1.6946  2.1583 -3.3115
  287MOL0     H37854   9.217  11.775  -2.853 -0.6520 -0.1650 -1.3521
  287MOL0     H37855   9.219  11.604  -2.893  2.0127 -1.4877 -0.5696
  287MOL0     H37856   9.444  11.797  -2.940  1.0430 -1.1983  0.8920
  287MOL0     H37857   9.433  11.624  -3.001  1.5223  1.5034 -3.3001
  287MOL0     H37858   9.273  11.655  -3.150 -2.4024  1.6370 -0.9575
  287MOL0     H37859   9.417  11.763  -3.172 -1.0986  5.4238 -0.3934
  287MOL0     H37860   9.302  11.947  -3.149  0.9275 -0.5965 -2.9411
  287MOL0     H37861   9.162  11.860  -3.062 -0.8747  1.9638 -1.1908
  287MOL0     H37862   9.209  11.851  -3.358 -0.2972 -1.6556 -1.4948
  287MOL0     H37863   9.098  11.753  -3.265 -0.1561  1.6426  0.9172
  287MOL0     H37864   8.957  11.926  -3.201  0.9387 -0.1727  1.2042
  287MOL0     H37865   8.983  11.964  -3.360 -2.5436 -1.6230  2.0348
  287MOL0     H37866   9.111  11.303  -2.583 -0.0872 -1.7552  0.6979
  287MOL0     H37867   9.236  11.076  -2.494 -2.4386  0.2433  1.9652
  287MOL0     H37868   9.723  10.980  -2.403  0.0599  1.3585  0.1333
  287MOL0     H37869   9.872  10.833  -2.305  1.0954  1.5784  1.4573
  287MOL0     H37870  10.264  10.209  -0.347 -2.1074  3.3058 -3.2604
  287MOL0     H37871  10.171  10.134  -0.105 -2.0390 -1.2900  1.4810
  287MOL0     H37872  10.106   9.802   0.241 -0.5885  0.9652  1.3014
  287MOL0     H37873  10.012   9.626   0.355 -1.0471 -0.2899  0.5631
  287MOL0     H37874   9.864   9.563   0.525  1.1899  1.0457 -0.9706
  287MOL0     H37875   9.888   9.429   0.404 -0.2592 -0.2055  1.3342
  287MOL0     H37876   9.609   9.474   0.539  1.0221  0.6735  1.3927
  287MOL0     H37877   9.664   9.336   0.437 -0.4679 -1.6788  0.6493
  287MOL0     H37878   9.813   9.279   0.636  0.2798  0.6393  1.6647
  287MOL0     H37879   9.628   9.270   0.656 -1.0433  1.8356  0.5392
  287MOL0     H37880   9.751   9.357   0.860  0.6452  0.2379 -0.3173
  287MOL0     H37881   9.819   9.478   0.761 -0.7169  1.6410 -0.3027
  287MOL0     H37882   9.435   9.638   0.857  0.5270 -1.1268  3.7841
  287MOL0     H37883   9.629   9.714   0.163 -0.9254  4.8469 -2.2320
  287MOL0     H37884   9.768   9.877   0.019  1.4616  0.6195 -0.5272
  288MOL0     O37885   3.369   9.751   0.863 -0.2599 -0.8861 -0.6375
  288MOL0     C37886   3.482   9.729   0.902  0.0222  0.2056  0.1984
  288MOL0     O37887   3.532   9.750   1.032 -0.1438 -0.2073 -0.0661
  288MOL0     C37888   3.441   9.797   1.121 -0.1755 -0.3486 -0.3371
  288MOL0     C37889   3.401   9.929   1.120  0.1752 -0.7901 -0.0602
  288MOL0     C37890   3.321   9.981   1.218 -0.4388 -0.0793 -0.8832
  288MOL0     C37891   3.295   9.899   1.332  0.4330  1.0785  0.8188
  288MOL0     O37892   3.234   9.943   1.446 -0.6619 -0.1721  0.4572
  288MOL0     C37893   3.125  10.030   1.439  0.7056  0.6120 -0.0104
  288MOL0     C37894   3.015   9.977   1.534 -0.1613  1.1031 -0.3929
  288MOL0     C37895   2.884  10.063   1.539 -0.5927 -0.0332  0.0622
  288MOL0     C37896   2.793  10.004   1.649 -0.2654  0.2758 -0.0597
  288MOL0     C37897   2.673  10.105   1.652 -0.4514  1.0385 -0.1534
  288MOL0     C37898   2.553  10.053   1.733  0.4732  0.5491 -0.0623
  288MOL0     C37899   2.578  10.032   1.876  0.3475  0.0522  0.3075
  288MOL0     C37900   2.467   9.983   1.961  0.4218  1.2541  0.8662
  288MOL0     N37901   2.368  10.088   1.988  0.8951  0.1615  0.3145
  288MOL0     C37902   2.247  10.111   1.929  0.6775 -0.7588  0.3305
  288MOL0     C37903   2.179  10.189   2.012 -0.0824  0.1667 -0.1628
  288MOL0     C37904   2.037  10.236   2.006  0.6549  0.1444 -0.4808
  288MOL0     C37905   1.951  10.138   2.093 -0.4630 -0.0611 -0.2673
  288MOL0     C37906   1.931  10.008   2.022 -0.0310 -0.4501 -0.5146
  288MOL0     C37907   1.849  10.026   1.891  0.0084 -0.6565 -0.0071
  288MOL0     O37908   1.811   9.892   1.851 -0.8791  0.1513  1.0743
  288MOL0     C37909   1.688   9.847   1.889  0.0008  0.2232 -0.7706
  288MOL0     C37910   1.688   9.721   1.948 -0.0535 -0.5770  0.9237
  288MOL0     C37911   1.565   9.669   1.984  0.0267 -0.3607  0.1296
  288MOL0     C37912   1.441   9.738   1.955 -0.7181 -0.0851 -0.7977
  288MOL0     C37913   1.310   9.686   2.000 -0.9236  0.1171  0.1536
  288MOL0     O37914   1.322   9.587   2.086  0.2696 -0.4281  0.0488
  288MOL0     C37915   1.207   9.524   2.112 -0.4958  0.2632  0.8602
  288MOL0     C37916   1.130   9.554   2.225 -0.2249 -0.2421 -0.6379
  288MOL0     C37917   1.018   9.475   2.258  0.2907 -0.0824  0.0364
  288MOL0     C37918   0.998   9.364   2.187 -0.5035  0.5554 -0.2010
  288MOL0     O37919   0.898   9.275   2.234 -0.4120  0.3828 -0.3158
  288MOL0     C37920   0.849   9.154   2.177 -0.1100  0.0924  0.1134
  288MOL0     C37921   0.710   9.119   2.243  0.0772 -0.3138  0.1056
  288MOL0     C37922   0.652   8.983   2.203 -0.5319 -1.0277  0.2414
  288MOL0     C37923   0.509   8.972   2.235 -1.1175  1.3188 -0.0727
  288MOL0     C37924   0.473   8.847   2.310  0.0582  0.0829  1.3973
  288MOL0     C37925   0.325   8.834   2.340 -0.1680  0.0105 -0.0203
  288MOL0     C37926   0.311   8.682   2.356  0.0894  0.5149  0.0630
  288MOL0     C37927   0.200   8.636   2.454  0.6073  0.3736 -1.1530
  288MOL0    Cl37928   0.199   8.448   2.491 -0.0533 -0.3519  0.4933
  288MOL0     C37929   1.072   9.325   2.078  0.3847 -0.0091  1.4399
  288MOL0     C37930   1.172   9.412   2.031  1.2522  0.5428  0.5641
  288MOL0     O37931   1.209   9.735   1.955  0.5607  0.0407  0.8111
  288MOL0     C37932   1.443   9.870   1.893  0.4435  1.1478  0.7163
  288MOL0     C37933   1.571   9.920   1.855  0.7335 -0.4842 -0.5119
  288MOL0     N37934   2.271  10.221   2.116  0.2790 -0.4628  0.0229
  288MOL0     N37935   2.379  10.156   2.102  0.0881 -0.4875 -0.3335
  288MOL0     C37936   3.339   9.763   1.325  0.5112 -0.4522 -0.1111
  288MOL0     C37937   3.417   9.713   1.228 -0.3618 -0.3677  0.2316
  288MOL0     C37938   3.579   9.682   0.801 -1.0161 -0.6140 -0.1886
  288MOL0     C37939   3.542   9.636   0.673 -0.4416 -0.4344 -0.6185
  288MOL0     C37940   3.647   9.595   0.585 -0.3145  0.2432  0.0042
  288MOL0     C37941   3.787   9.590   0.619  0.5126  0.0576 -0.6267
  288MOL0     O37942   3.896   9.558   0.539  0.1688  0.6302 -0.0281
  288MOL0     C37943   3.870   9.503   0.407 -0.3696 -0.8994  0.6877
  288MOL0     C37944   3.957   9.591   0.312 -0.6523 -0.2344  0.2337
  288MOL0     C37945   4.097   9.530   0.326  0.1516 -0.1322 -0.4550
  288MOL0     C37946   4.199   9.611   0.247  0.6825  0.4432 -0.0510
  288MOL0     C37947   4.325   9.536   0.265 -0.0367 -0.3897  0.1326
  288MOL0     C37948   4.439   9.514   0.297  0.1022  0.2631 -0.4055
  288MOL0     C37949   3.810   9.629   0.750 -0.3239 -0.0778 -0.8325
  288MOL0     C37950   3.721   9.685   0.839  0.3869  0.3712  0.7830
  288MOL0     H37951   3.420   9.984   1.028 -0.4858  2.1030  1.4137
  288MOL0     H37952   3.272  10.077   1.211  0.6127  0.5760  0.2801
  288MOL0     H37953   3.085  10.032   1.338 -2.0147  2.9757  0.9755
  288MOL0     H37954   3.160  10.127   1.478  0.7501 -0.4798  2.9429
  288MOL0     H37955   3.065   9.969   1.631 -2.1501 -1.5950  0.5469
  288MOL0     H37956   2.977   9.877   1.512 -1.2926  0.9692  1.8622
  288MOL0     H37957   2.839  10.058   1.440 -1.8616 -1.0548  0.6631
  288MOL0     H37958   2.895  10.169   1.564 -2.6762  0.0786  0.6822
  288MOL0     H37959   2.770   9.908   1.602  3.8717  1.3208 -5.1225
  288MOL0     H37960   2.851  10.010   1.742  2.4005  2.2916 -1.7049
  288MOL0     H37961   2.640  10.124   1.549 -1.7537 -0.7450 -0.1071
  288MOL0     H37962   2.708  10.204   1.683  2.4335  0.1391 -0.2924
  288MOL0     H37963   2.541   9.955   1.684 -2.0978  0.8742 -0.2267
  288MOL0     H37964   2.471  10.121   1.707  2.7631  2.6453 -2.2305
  288MOL0     H37965   2.651   9.952   1.870 -1.5962 -1.6780 -2.0668
  288MOL0     H37966   2.627  10.122   1.915  3.9628 -1.2810 -0.7873
  288MOL0     H37967   2.504   9.946   2.057  0.6853 -2.2950 -0.4464
  288MOL0     H37968   2.412   9.901   1.913 -1.1644  2.7046  0.1257
  288MOL0     H37969   2.212  10.055   1.842  2.0139 -0.7606 -0.2454
  288MOL0     H37970   1.995  10.256   1.907 -1.2301  2.3922  0.6652
  288MOL0     H37971   2.018  10.329   2.061 -2.8783 -1.9751  2.4208
  288MOL0     H37972   1.857  10.193   2.096  0.7648  2.4585 -2.7149
  288MOL0     H37973   1.994  10.124   2.193  1.2319 -0.3538 -0.9951
  288MOL0     H37974   2.023   9.955   1.996 -1.1140 -1.8960 -1.5635
  288MOL0     H37975   1.871   9.941   2.084 -1.1129  1.1706  0.2477
  288MOL0     H37976   1.910  10.067   1.810 -0.6518 -0.1536 -0.2608
  288MOL0     H37977   1.759  10.085   1.914 -0.4263 -2.1073  2.3208
  288MOL0     H37978   1.779   9.667   1.974 -0.9546 -1.9431  1.3405
  288MOL0     H37979   1.555   9.573   2.035  0.6251 -0.6624 -0.3159
  288MOL0     H37980   1.153   9.639   2.289 -1.9197  0.8615 -1.4381
  288MOL0     H37981   0.954   9.493   2.344 -1.2763 -4.3834  0.0267
  288MOL0     H37982   0.919   9.076   2.209  0.5787  1.0490  0.9692
  288MOL0     H37983   0.851   9.169   2.069  1.0738  1.5168  0.3122
  288MOL0     H37984   0.637   9.196   2.216  1.2440  0.7179 -0.1998
  288MOL0     H37985   0.728   9.121   2.351 -1.6744  1.7447  0.4199
  288MOL0     H37986   0.710   8.902   2.248 -1.1866 -2.1892 -0.9439
  288MOL0     H37987   0.670   8.978   2.095  3.7473  2.0107  0.5567
  288MOL0     H37988   0.483   9.058   2.298  1.5110  2.0403  0.1280
  288MOL0     H37989   0.447   8.974   2.145 -3.3724 -1.7793  1.2278
  288MOL0     H37990   0.520   8.851   2.409 -0.6545  0.4269  1.7320
  288MOL0     H37991   0.501   8.763   2.246 -0.0564  0.6670  0.5545
  288MOL0     H37992   0.256   8.873   2.264  0.2103  0.3759 -0.1809
  288MOL0     H37993   0.311   8.885   2.436  2.7054 -0.3010  0.6462
  288MOL0     H37994   0.307   8.632   2.259  2.4028 -1.1604  0.7380
  288MOL0     H37995   0.399   8.636   2.402 -1.0432 -3.7402 -1.5217
  288MOL0     H37996   0.100   8.659   2.416 -0.0351 -1.2421 -0.5086
  288MOL0     H37997   0.215   8.696   2.544 -3.5182 -1.1085  0.7643
  288MOL0     H37998   1.058   9.233   2.022  0.4798  2.1707 -2.6099
  288MOL0     H37999   1.237   9.383   1.950  0.3739 -0.2793  0.1336
  288MOL0     H38000   1.351   9.918   1.863  0.8082 -0.6652 -4.1508
  288MOL0     H38001   1.569  10.013   1.799 -0.1429 -0.1107  0.1061
  288MOL0     H38002   3.304   9.684   1.391  0.2506  0.1107  0.4363
  288MOL0     H38003   3.437   9.607   1.220 -2.4241 -0.8454  0.8218
  288MOL0     H38004   3.434   9.638   0.659 -0.3484  0.8627 -1.2750
  288MOL0     H38005   3.602   9.559   0.494  1.2756  0.8393 -1.0611
  288MOL0     H38006   3.767   9.523   0.375  0.2731  0.3999 -0.6500
  288MOL0     H38007   3.890   9.395   0.402  2.0761 -0.4999  0.7429
  288MOL0     H38008   3.926   9.575   0.208 -0.2035  1.4771 -0.1835
  288MOL0     H38009   3.948   9.696   0.339 -4.7526 -0.0130 -1.1927
  288MOL0     H38010   4.084   9.426   0.293  1.1916 -0.3710 -0.1651
  288MOL0     H38011   4.126   9.523   0.431 -2.8878  0.2140  0.4963
  288MOL0     H38012   4.152   9.612   0.148  0.3330  1.2840  0.1142
  288MOL0     H38013   4.215   9.715   0.277  0.2793  0.4113  0.2948
  288MOL0     H38014   4.542   9.510   0.325  0.2091  1.2705 -0.6070
  288MOL0     H38015   3.911   9.621   0.789 -0.4205  0.0818 -0.5445
  288MOL0     H38016   3.761   9.723   0.933  2.0429 -2.4647  1.3291
  289MOL0     O38017   5.478   2.440   4.408 -0.5776 -0.3637 -0.3474
  289MOL0     C38018   5.496   2.459   4.287 -0.2995 -0.8892 -0.1720
  289MOL0     O38019   5.407   2.494   4.187 -0.2963 -0.1756  0.0841
  289MOL0     C38020   5.275   2.482   4.206  0.0403  0.1005  0.0652
  289MOL0     C38021   5.210   2.556   4.312 -0.1113 -0.8743  1.0210
  289MOL0     C38022   5.072   2.550   4.326  0.2387 -0.4300  0.2188
  289MOL0     C38023   4.996   2.483   4.236  0.6054 -0.3407  0.5253
  289MOL0     O38024   4.859   2.476   4.251 -0.2027  0.6403 -0.5991
  289MOL0     C38025   4.811   2.339   4.273  0.2864 -0.6629 -0.5229
  289MOL0     C38026   4.685   2.334   4.359  0.7260  0.1040  0.1083
  289MOL0     C38027   4.570   2.431   4.306  0.7901 -0.4625 -0.2197
  289MOL0     C38028   4.460   2.445   4.397  0.6347  0.7851 -0.2395
  289MOL0     C38029   4.378   2.322   4.443 -0.1055  0.3572 -0.0077
  289MOL0     C38030   4.332   2.241   4.327 -0.1659  0.8136  0.9001
  289MOL0     C38031   4.247   2.121   4.383 -0.3612 -0.2300  0.0206
  289MOL0     C38032   4.147   2.062   4.276  0.1002 -0.7520 -0.4172
  289MOL0     N38033   4.210   2.033   4.146 -0.0605  1.0127 -0.4921
  289MOL0     C38034   4.331   1.960   4.137 -0.2369  0.2024 -1.2717
  289MOL0     C38035   4.381   1.998   4.014 -0.6795  0.4014 -1.2183
  289MOL0     C38036   4.522   1.978   3.974 -0.3080  0.8519 -0.4548
  289MOL0     C38037   4.526   1.887   3.845 -0.5772 -0.3877 -0.1662
  289MOL0     C38038   4.638   1.931   3.749 -0.8461 -1.1036  0.7511
  289MOL0     C38039   4.612   1.871   3.601  0.7873  0.1978  0.1106
  289MOL0     O38040   4.689   1.937   3.508  0.3359 -1.0457  0.1312
  289MOL0     C38041   4.828   1.931   3.517 -0.2752 -0.5040  0.2853
  289MOL0     C38042   4.903   2.034   3.459 -0.1346  0.7422  0.5575
  289MOL0     C38043   5.043   2.025   3.454  0.7247  1.0471 -0.4146
  289MOL0     C38044   5.108   1.918   3.519  0.7330  0.5184 -0.6489
  289MOL0     C38045   5.261   1.901   3.530  0.2541  0.2918  1.0548
  289MOL0     O38046   5.307   1.801   3.608  0.0552 -0.2446  0.8289
  289MOL0     C38047   5.443   1.778   3.593 -0.0038  0.2263  1.1309
  289MOL0     C38048   5.525   1.763   3.702  1.0346  0.3294 -0.9401
  289MOL0     C38049   5.652   1.715   3.687 -0.0517  0.1115 -0.1317
  289MOL0     C38050   5.701   1.661   3.569  0.3826 -0.1526  0.2878
  289MOL0     O38051   5.831   1.623   3.558 -0.4363  0.6187  0.0541
  289MOL0     C38052   5.908   1.581   3.672 -0.8277  0.3400 -0.3368
  289MOL0     C38053   5.848   1.458   3.758  0.7114  0.2061 -0.3385
  289MOL0     C38054   5.790   1.347   3.661 -0.0485 -0.3373 -0.0594
  289MOL0     C38055   5.806   1.213   3.721 -0.4142 -0.2824  1.1880
  289MOL0     C38056   5.688   1.159   3.801  0.1421  0.1649 -0.2693
  289MOL0     C38057   5.647   1.231   3.929 -0.2534 -0.1125 -0.9337
  289MOL0     C38058   5.772   1.244   4.025 -0.6117 -0.6269 -0.1501
  289MOL0     C38059   5.721   1.276   4.176 -0.5806  0.4544 -0.0318
  289MOL0    Cl38060   5.619   1.426   4.173  0.1891 -0.2920  0.3127
  289MOL0     C38061   5.618   1.676   3.455 -0.5213 -1.0301  0.5348
  289MOL0     C38062   5.493   1.735   3.470 -0.4173 -0.1117  0.2053
  289MOL0     O38063   5.332   1.973   3.458  0.6424 -0.0422 -0.2636
  289MOL0     C38064   5.033   1.821   3.586 -0.0434 -0.4555 -0.0649
  289MOL0     C38065   4.893   1.828   3.586  0.3372 -0.3470  0.0688
  289MOL0     N38066   4.283   2.070   3.943 -0.8773 -0.1074 -0.2829
  289MOL0     N38067   4.190   2.098   4.033  0.3951  0.0664  0.5001
  289MOL0     C38068   5.058   2.409   4.132  0.0230 -0.0570  0.9405
  289MOL0     C38069   5.195   2.410   4.110  0.1799 -0.7744 -0.0187
  289MOL0     C38070   5.634   2.442   4.249 -0.8491 -0.0533 -0.0593
  289MOL0     C38071   5.733   2.524   4.315 -0.0649  0.2995 -0.3958
  289MOL0     C38072   5.863   2.525   4.259 -0.4528 -0.4365 -0.5216
  289MOL0     C38073   5.902   2.424   4.178  0.4733 -0.0964  0.4464
  289MOL0     O38074   6.034   2.424   4.165 -0.8461 -0.3245 -0.9410
  289MOL0     C38075   6.081   2.379   4.043  0.1534  0.1082 -0.2311
  289MOL0     C38076   6.234   2.393   4.058 -0.3739  0.6245 -0.3634
  289MOL0     C38077   6.311   2.327   3.945 -0.1241  0.3434  0.6811
  289MOL0     C38078   6.326   2.178   3.982 -0.9172  1.1609  0.8194
  289MOL0     C38079   6.429   2.105   3.906  0.0321  0.3084 -0.6946
  289MOL0     C38080   6.503   2.047   3.828  0.6725  1.2450  0.2056
  289MOL0     C38081   5.805   2.339   4.119 -1.0031 -0.2630 -0.1245
  289MOL0     C38082   5.676   2.356   4.144  0.2488 -0.9527  0.5236
  289MOL0     H38083   5.273   2.620   4.372 -0.0880  1.5693 -1.4597
  289MOL0     H38084   5.020   2.609   4.401 -0.5977  1.4568 -1.7242
  289MOL0     H38085   4.885   2.276   4.323 -0.9533 -2.0749 -0.3836
  289MOL0     H38086   4.802   2.293   4.174  2.9573 -1.6446 -0.4083
  289MOL0     H38087   4.710   2.368   4.460 -0.4221  0.4204  0.2999
  289MOL0     H38088   4.646   2.232   4.360 -0.5705  0.5803  0.7791
  289MOL0     H38089   4.526   2.389   4.215 -2.8402  3.2631 -0.4457
  289MOL0     H38090   4.617   2.528   4.289  1.2636 -0.1947  2.2290
  289MOL0     H38091   4.493   2.500   4.485  0.3639  0.0057  0.3513
  289MOL0     H38092   4.384   2.514   4.359  0.2152  1.7413  2.1791
  289MOL0     H38093   4.303   2.352   4.517  3.3153  2.7478  2.7889
  289MOL0     H38094   4.446   2.255   4.496 -1.3322  0.7063  2.1455
  289MOL0     H38095   4.415   2.212   4.262 -0.4944  4.6918 -1.6038
  289MOL0     H38096   4.273   2.306   4.261  0.9642  2.0929  1.0950
  289MOL0     H38097   4.326   2.052   4.414  2.2342  2.3586 -0.3526
  289MOL0     H38098   4.186   2.162   4.463 -1.6373  1.1585 -1.5964
  289MOL0     H38099   4.066   2.133   4.260 -0.7032 -1.7910 -1.0846
  289MOL0     H38100   4.102   1.970   4.314  0.6097 -0.8824 -0.1205
  289MOL0     H38101   4.378   1.908   4.221  1.8374 -0.1039 -2.5563
  289MOL0     H38102   4.585   1.933   4.052 -0.3879  1.6351  0.0714
  289MOL0     H38103   4.560   2.078   3.952 -0.3024  0.6723 -1.2865
  289MOL0     H38104   4.429   1.860   3.802  0.5699 -2.1097 -1.7915
  289MOL0     H38105   4.549   1.791   3.892 -0.1874  0.3451  1.2108
  289MOL0     H38106   4.627   2.038   3.728  1.4752 -0.5414  1.9577
  289MOL0     H38107   4.741   1.910   3.781  0.3416  0.3725 -1.7490
  289MOL0     H38108   4.507   1.880   3.571  1.0657 -0.6913 -1.2362
  289MOL0     H38109   4.645   1.767   3.601 -3.2851 -1.2890  1.5578
  289MOL0     H38110   4.849   2.110   3.404 -0.9225  0.9786  1.6248
  289MOL0     H38111   5.111   2.094   3.404  1.4221 -0.2145 -1.2787
  289MOL0     H38112   5.491   1.803   3.797 -0.7491 -1.4801 -0.7405
  289MOL0     H38113   5.717   1.713   3.774  1.9986  2.5684 -1.4700
  289MOL0     H38114   5.934   1.669   3.731 -2.5620 -1.2039  3.0024
  289MOL0     H38115   6.006   1.553   3.633 -0.6658  0.7434 -0.2203
  289MOL0     H38116   5.770   1.492   3.827  1.8746  0.0681  1.1099
  289MOL0     H38117   5.917   1.410   3.829 -0.6653 -0.2696  0.7284
  289MOL0     H38118   5.847   1.347   3.567 -0.2863 -0.2071 -0.2039
  289MOL0     H38119   5.687   1.369   3.631 -0.3058  0.0011  1.0227
  289MOL0     H38120   5.836   1.148   3.639  3.6737  1.1998  1.2413
  289MOL0     H38121   5.903   1.208   3.773 -0.1691 -0.7707  0.6861
  289MOL0     H38122   5.701   1.055   3.833  1.8332  0.2512 -0.6090
  289MOL0     H38123   5.592   1.165   3.749  0.4805 -1.7856 -1.2147
  289MOL0     H38124   5.578   1.162   3.979 -0.8019  0.2819 -1.1287
  289MOL0     H38125   5.603   1.329   3.905  3.8871  1.5212 -2.7424
  289MOL0     H38126   5.839   1.158   4.011  0.0652 -0.1701  0.2213
  289MOL0     H38127   5.843   1.326   4.006  0.4503 -2.1365 -3.3377
  289MOL0     H38128   5.815   1.279   4.232 -1.1437 -0.2891  0.9733
  289MOL0     H38129   5.663   1.191   4.212 -0.8040  0.1003 -1.1719
  289MOL0     H38130   5.644   1.638   3.357 -0.8478 -1.0506  0.4552
  289MOL0     H38131   5.429   1.724   3.383  0.7894 -0.7265 -0.6426
  289MOL0     H38132   5.066   1.731   3.637 -3.5026 -1.7971  0.1245
  289MOL0     H38133   4.845   1.751   3.645 -0.2147  0.6270  0.9169
  289MOL0     H38134   4.994   2.353   4.064 -1.4054  0.3556  1.9121
  289MOL0     H38135   5.252   2.356   4.035  2.9816 -1.2433  2.2516
  289MOL0     H38136   5.710   2.589   4.398  1.4666  0.0696  0.2364
  289MOL0     H38137   5.941   2.586   4.305 -2.5373  1.7298  0.3150
  289MOL0     H38138   6.057   2.442   3.957  1.5992 -1.0973 -1.5891
  289MOL0     H38139   6.060   2.275   4.016  0.0064  0.9457 -3.8113
  289MOL0     H38140   6.262   2.499   4.061 -1.0039  0.7816  0.3425
  289MOL0     H38141   6.272   2.346   4.149 -1.0472  1.2760  0.2730
  289MOL0     H38142   6.404   2.382   3.930 -1.2759  1.9284 -1.0806
  289MOL0     H38143   6.264   2.328   3.846  1.7617  1.3244 -0.2471
  289MOL0     H38144   6.351   2.162   4.087  0.2291  1.6259  0.6335
  289MOL0     H38145   6.225   2.139   3.969 -0.6640  0.6981  0.1466
  289MOL0     H38146   6.555   2.005   3.744 -1.8581  0.3175 -1.0104
  289MOL0     H38147   5.845   2.265   4.051  1.3796  1.3633 -0.6079
  289MOL0     H38148   5.607   2.300   4.082  0.3108 -4.8195  3.5810
  290MOL0     O38149   8.785   2.068   9.876  1.1039 -0.4519  1.1479
  290MOL0     C38150   8.726   1.960   9.899 -0.4075 -0.0923 -0.6203
  290MOL0     O38151   8.774   1.853   9.969 -0.3040  0.2036  0.0762
  290MOL0     C38152   8.870   1.870  10.068  0.6042 -0.1842 -0.2932
  290MOL0     C38153   8.947   1.768  10.101 -1.3306  0.1966  0.7764
  290MOL0     C38154   9.048   1.769  10.195 -0.2070 -0.7964 -0.0560
  290MOL0     C38155   9.077   1.894  10.257  0.1148 -0.1295 -0.2468
  290MOL0     O38156   9.170   1.888  10.361 -0.0343 -0.1306  0.2002
  290MOL0     C38157   9.204   1.995  10.438 -0.8033 -0.3113 -0.6931
  290MOL0     C38158   9.337   1.981  10.510  0.7740 -0.2700 -0.1413
  290MOL0     C38159   9.457   1.995  10.417 -0.0227 -0.3349 -0.5393
  290MOL0     C38160   9.593   1.983  10.487 -1.0071 -0.4130 -0.0399
  290MOL0     C38161   9.719   2.015  10.412 -0.3447  0.0937 -0.4176
  290MOL0     C38162   9.845   1.987  10.501 -0.1543 -0.9422  0.0883
  290MOL0     C38163   9.958   2.081  10.460  0.1473 -0.5446 -0.0432
  290MOL0     C38164   9.976   2.106  10.311 -0.3169 -0.1293  0.2615
  290MOL0     N38165  10.016   2.002  10.210  0.2310  0.4884 -0.2573
  290MOL0     C38166  10.104   1.896  10.236  0.6203  0.0409 -1.2503
  290MOL0     C38167  10.112   1.831  10.120 -0.5076  0.0142 -0.8152
  290MOL0     C38168  10.210   1.728  10.103 -0.1369 -0.1250 -0.1746
  290MOL0     C38169  10.231   1.698   9.951 -0.3067  0.8273 -0.0321
  290MOL0     C38170  10.363   1.607   9.948  0.6361  0.5524  0.0032
  290MOL0     C38171  10.409   1.588   9.818  0.4252  0.2537 -0.0713
  290MOL0     O38172  10.538   1.532   9.820 -0.3964 -0.8413  0.2819
  290MOL0     C38173  10.560   1.397   9.838 -0.1709 -0.2924  0.3319
  290MOL0     C38174  10.688   1.362   9.881 -0.2891 -0.7961  0.1121
  290MOL0     C38175  10.722   1.232   9.903  0.5969  0.1701 -0.2638
  290MOL0     C38176  10.637   1.125   9.877  0.0611  0.0013  0.3855
  290MOL0     C38177  10.691   0.979   9.872  0.3342 -0.1814 -0.1331
  290MOL0     O38178  10.602   0.891   9.821  0.4303  0.1783 -0.5382
  290MOL0     C38179  10.615   0.758   9.844  0.5045  0.6020  0.2629
  290MOL0     C38180  10.554   0.690   9.956 -0.3238  0.3082  0.3145
  290MOL0     C38181  10.559   0.552   9.975 -0.4355 -0.3032  0.9327
  290MOL0     C38182  10.632   0.478   9.886 -0.2526 -0.6601  0.5828
  290MOL0     O38183  10.648   0.343   9.883 -1.4039 -0.1622  0.4737
  290MOL0     C38184  10.665   0.275  10.011  0.3536 -1.3517  0.0282
  290MOL0     C38185  10.755   0.156  10.011 -0.2242  0.3504  0.0375
  290MOL0     C38186  10.785   0.114  10.153 -0.9422  0.0868 -0.8756
  290MOL0     C38187  10.872  -0.020  10.166 -0.4238 -0.5979 -0.7018
  290MOL0     C38188  11.027  -0.008  10.149 -0.7363 -0.4965  0.4599
  290MOL0     C38189  11.116  -0.127  10.180  0.1426 -0.1338  0.9540
  290MOL0     C38190  11.124  -0.150  10.334  0.0633 -0.2178 -0.1393
  290MOL0     C38191  11.242  -0.257  10.350  0.3899 -0.1287 -0.2728
  290MOL0    Cl38192  11.243  -0.289  10.527 -0.5310  0.0271 -0.0937
  290MOL0     C38193  10.678   0.536   9.773 -0.3297 -0.0621 -0.0244
  290MOL0     C38194  10.668   0.673   9.747 -0.1610 -0.6084  0.1840
  290MOL0     O38195  10.797   0.956   9.914 -0.1961  0.0386  0.0030
  290MOL0     C38196  10.508   1.158   9.834  0.3295 -0.6951  0.1380
  290MOL0     C38197  10.471   1.291   9.817 -0.2967 -0.2397  0.0350
  290MOL0     N38198  10.012   1.882  10.032 -0.7522 -0.3479  0.0824
  290MOL0     N38199   9.952   1.973  10.093 -0.0220 -0.3846  0.1448
  290MOL0     C38200   8.980   1.995  10.240  0.9115 -0.0696 -0.0680
  290MOL0     C38201   8.869   1.982  10.150 -0.3939 -0.1131  0.1564
  290MOL0     C38202   8.596   1.943   9.829  0.4331 -0.5924  1.1102
  290MOL0     C38203   8.526   2.056   9.779  0.3033 -0.5718 -0.1881
  290MOL0     C38204   8.390   2.040   9.724 -0.8124  0.3761  0.0854
  290MOL0     C38205   8.336   1.915   9.706 -0.0848 -0.2558  0.3894
  290MOL0     O38206   8.203   1.909   9.652 -0.1278  0.2569 -0.2003
  290MOL0     C38207   8.210   1.895   9.507  0.2935 -0.4847 -0.6521
  290MOL0     C38208   8.079   1.932   9.431 -0.4107  0.4258 -0.3925
  290MOL0     C38209   8.078   2.085   9.430  1.8466  0.2563  0.5602
  290MOL0     C38210   7.948   2.135   9.370 -1.1714  0.3481 -0.2645
  290MOL0     C38211   7.953   2.262   9.301 -0.0923 -0.2050  0.2002
  290MOL0     C38212   7.971   2.368   9.251  0.5274 -0.5197  0.5689
  290MOL0     C38213   8.411   1.804   9.746 -0.7645  0.6564 -0.0830
  290MOL0     C38214   8.535   1.822   9.808 -0.6853  0.4556 -0.5444
  290MOL0     H38215   8.935   1.678  10.041  0.0730  0.1666  0.5049
  290MOL0     H38216   9.122   1.692  10.207 -1.5426 -2.3475 -1.3203
  290MOL0     H38217   9.118   2.010  10.505  0.1304 -2.7220  1.1708
  290MOL0     H38218   9.214   2.088  10.380  1.1546 -0.3834 -0.5274
  290MOL0     H38219   9.342   1.883  10.559 -1.2934 -0.3478  0.0021
  290MOL0     H38220   9.330   2.057  10.588 -2.6364 -0.0177 -0.5390
  290MOL0     H38221   9.457   2.086  10.356 -2.1996  0.7009  0.9071
  290MOL0     H38222   9.449   1.904  10.356  0.7782 -1.6053  1.1869
  290MOL0     H38223   9.575   2.058  10.565  2.5017  2.0775 -1.3833
  290MOL0     H38224   9.612   1.885  10.531  1.2721 -0.3986 -0.8650
  290MOL0     H38225   9.709   2.121  10.389  1.3783  0.2051 -0.7377
  290MOL0     H38226   9.716   1.948  10.325 -2.0532 -1.6156  0.8461
  290MOL0     H38227   9.879   1.884  10.485 -0.7320 -0.8337 -2.2102
  290MOL0     H38228   9.830   1.996  10.609 -0.0641 -0.6712  0.0775
  290MOL0     H38229   9.927   2.174  10.509  1.2475 -1.4664  2.6129
  290MOL0     H38230  10.054   2.044  10.497 -0.4637 -1.5057  0.6132
  290MOL0     H38231  10.055   2.182  10.312  1.4740 -1.9029  0.2952
  290MOL0     H38232   9.879   2.143  10.277 -0.1545  0.3687  0.3412
  290MOL0     H38233  10.146   1.859  10.329 -2.5606 -2.7441 -0.6781
  290MOL0     H38234  10.179   1.638  10.156 -1.2814  0.7929  0.7555
  290MOL0     H38235  10.299   1.760  10.157 -0.4874  5.8522 -2.3831
  290MOL0     H38236  10.253   1.788   9.893 -0.3658  0.7114 -0.2346
  290MOL0     H38237  10.140   1.651   9.913  0.1077 -0.5124  0.5643
  290MOL0     H38238  10.440   1.661  10.004  0.4586 -0.2656  1.0798
  290MOL0     H38239  10.344   1.513  10.001  0.7671  1.2847  1.3803
  290MOL0     H38240  10.427   1.693   9.793  2.6971  1.0422  4.0614
  290MOL0     H38241  10.332   1.529   9.766  1.7719 -1.2271 -0.4640
  290MOL0     H38242  10.764   1.433   9.913  0.2014 -0.2987 -1.9363
  290MOL0     H38243  10.823   1.227   9.944  0.9418  1.6988 -0.8760
  290MOL0     H38244  10.496   0.741  10.033 -3.4983 -1.7578 -0.5083
  290MOL0     H38245  10.490   0.505  10.044 -2.3468  1.4984  0.3356
  290MOL0     H38246  10.567   0.256  10.055 -0.3589  0.1712 -0.7872
  290MOL0     H38247  10.711   0.345  10.082 -0.3518 -1.6428  0.7802
  290MOL0     H38248  10.840   0.172   9.945  0.2873 -3.7799 -0.6172
  290MOL0     H38249  10.710   0.067   9.965  1.1912 -2.3506  3.4133
  290MOL0     H38250  10.691   0.090  10.204  0.7011 -0.2880  2.1767
  290MOL0     H38251  10.837   0.194  10.208 -1.0742  0.1737 -0.8761
  290MOL0     H38252  10.858  -0.059  10.268  2.3803 -0.8071 -0.3052
  290MOL0     H38253  10.830  -0.092  10.095 -1.8840 -0.2316 -0.2444
  290MOL0     H38254  11.060   0.077  10.210  1.0383 -0.5199 -0.3980
  290MOL0     H38255  11.041   0.022  10.045 -1.1623  2.5335  1.1679
  290MOL0     H38256  11.213  -0.106  10.132  0.3376 -0.9175  0.9940
  290MOL0     H38257  11.076  -0.216  10.130  3.1588  0.0098 -2.1673
  290MOL0     H38258  11.144  -0.058  10.388 -1.1182 -0.7186  1.2062
  290MOL0     H38259  11.024  -0.179  10.370 -0.6857  1.3431 -0.8472
  290MOL0     H38260  11.342  -0.228  10.316  1.4653 -0.1594  2.5962
  290MOL0     H38261  11.208  -0.352  10.307 -1.2232  0.7575 -1.0929
  290MOL0     H38262  10.712   0.456   9.708  2.0456 -0.1347  1.2197
  290MOL0     H38263  10.707   0.716   9.655 -0.3618 -1.9290 -0.5367
  290MOL0     H38264  10.434   1.079   9.825  0.9949 -1.6297  2.2001
  290MOL0     H38265  10.367   1.299   9.788  0.7058 -1.1671 -4.5630
  290MOL0     H38266   8.982   2.073  10.317  1.4003  0.0468 -0.1916
  290MOL0     H38267   8.790   2.056  10.157 -0.8498 -0.6028  0.3029
  290MOL0     H38268   8.579   2.147   9.807  0.9720 -1.7701  2.8623
  290MOL0     H38269   8.324   2.126   9.711  1.2656  1.9530 -0.6329
  290MOL0     H38270   8.215   1.787   9.491  0.5197 -0.1908 -3.0130
  290MOL0     H38271   8.299   1.943   9.465  1.4466 -0.8730  1.2382
  290MOL0     H38272   8.085   1.897   9.328  3.5482 -1.6951  0.3677
  290MOL0     H38273   7.993   1.892   9.485  2.1699 -1.2934  2.8215
  290MOL0     H38274   8.154   2.112   9.356  0.7692  0.0349 -0.6580
  290MOL0     H38275   8.090   2.124   9.532 -1.0395  1.4160  0.5475
  290MOL0     H38276   7.907   2.060   9.301  0.9777 -2.2345  1.0582
  290MOL0     H38277   7.879   2.125   9.455 -0.5233 -2.1654  0.0403
  290MOL0     H38278   7.995   2.467   9.216 -0.8127 -0.1405  0.6752
  290MOL0     H38279   8.369   1.705   9.730 -1.3252  0.8908 -0.0851
  290MOL0     H38280   8.584   1.736   9.855  1.3802  1.4572 -0.7455
  291MOL0     O38281  10.395   2.313   3.687  0.6168  0.4230  0.3671
  291MOL0     C38282  10.367   2.282   3.569  0.8311  0.4788 -0.2172
  291MOL0     O38283  10.240   2.304   3.504  0.1842  0.4401 -0.0974
  291MOL0     C38284  10.132   2.366   3.563  0.7040 -0.1555  0.6565
  291MOL0     C38285  10.050   2.445   3.488  0.8855  0.3110  0.5619
  291MOL0     C38286   9.933   2.505   3.540  0.3521 -0.0484  0.1463
  291MOL0     C38287   9.882   2.474   3.676 -0.8115  0.5102 -0.5567
  291MOL0     O38288   9.769   2.522   3.740  0.2130  0.8461  0.0052
  291MOL0     C38289   9.646   2.493   3.674 -0.4180 -0.2429 -0.2418
  291MOL0     C38290   9.564   2.617   3.623 -0.0007 -0.7984 -0.5602
  291MOL0     C38291   9.514   2.711   3.730  0.2738 -1.0108 -0.6245
  291MOL0     C38292   9.411   2.802   3.646  0.7834 -0.0763 -0.1752
  291MOL0     C38293   9.307   2.865   3.732  0.5079 -0.5631 -0.7504
  291MOL0     C38294   9.220   2.960   3.664 -0.1507  0.1674 -1.1209
  291MOL0     C38295   9.107   3.017   3.758 -0.1230  0.9467 -0.6862
  291MOL0     C38296   9.024   3.123   3.694 -0.1450 -0.1231 -0.2843
  291MOL0     N38297   8.951   3.086   3.572 -0.2563 -0.3347 -0.2042
  291MOL0     C38298   8.849   2.998   3.563 -0.3362  1.0325  0.3846
  291MOL0     C38299   8.833   2.988   3.427  0.9184 -0.2489 -1.2767
  291MOL0     C38300   8.721   2.908   3.360 -0.6933 -0.1351  0.0259
  291MOL0     C38301   8.577   2.927   3.427  0.1879 -0.8965 -0.6146
  291MOL0     C38302   8.500   2.845   3.327  0.1000 -0.7191 -0.0398
  291MOL0     C38303   8.346   2.858   3.349  0.1681  0.3132  0.5429
  291MOL0     O38304   8.289   2.963   3.260  0.6684 -0.1149 -0.5704
  291MOL0     C38305   8.224   2.921   3.150 -1.0586 -0.8505  0.6961
  291MOL0     C38306   8.246   2.806   3.075  0.8200 -0.5755  0.7034
  291MOL0     C38307   8.158   2.778   2.966 -0.4261 -0.6222  0.3763
  291MOL0     C38308   8.065   2.877   2.926 -0.2796  0.5506  1.3844
  291MOL0     C38309   7.989   2.854   2.800 -0.6030  0.6902 -0.4734
  291MOL0     O38310   7.865   2.898   2.802 -0.3638 -0.6109  0.7364
  291MOL0     C38311   7.788   2.840   2.711  0.4652 -0.1154 -0.5988
  291MOL0     C38312   7.745   2.911   2.599 -0.2976  0.3029 -1.7931
  291MOL0     C38313   7.648   2.867   2.516 -0.2089 -0.3680  0.6380
  291MOL0     C38314   7.570   2.752   2.545 -0.2416  0.0359 -0.8367
  291MOL0     O38315   7.480   2.711   2.448 -0.2958  0.7519 -0.1677
  291MOL0     C38316   7.383   2.612   2.488 -0.3406  0.5470 -0.2071
  291MOL0     C38317   7.288   2.585   2.368 -0.0247  0.1175 -0.3771
  291MOL0     C38318   7.203   2.458   2.412 -0.4953 -0.0314  0.1771
  291MOL0     C38319   7.070   2.457   2.337  0.0281  0.4922  0.1490
  291MOL0     C38320   6.996   2.316   2.345  1.0048  0.5171 -0.2789
  291MOL0     C38321   6.920   2.262   2.220 -0.8195 -1.2694 -0.0074
  291MOL0     C38322   6.796   2.332   2.190  0.7494  0.7679 -0.7642
  291MOL0     C38323   6.681   2.230   2.201  0.5347  0.5100  0.5051
  291MOL0    Cl38324   6.529   2.297   2.149  0.1202 -0.0801 -0.0078
  291MOL0     C38325   7.610   2.684   2.657 -0.0861  0.5783 -0.6135
  291MOL0     C38326   7.717   2.725   2.744  1.3817 -0.0037 -0.6958
  291MOL0     O38327   8.047   2.797   2.706  0.4351 -0.3945 -0.0009
  291MOL0     C38328   8.055   2.998   2.985 -0.8050 -0.9440  0.9400
  291MOL0     C38329   8.134   3.014   3.100  0.4207 -0.1328  0.9018
  291MOL0     N38330   8.918   3.072   3.362 -0.5123 -0.1099 -0.5811
  291MOL0     N38331   8.983   3.133   3.450  0.1836  0.0648 -0.6655
  291MOL0     C38332   9.978   2.400   3.753 -0.2316  0.2924 -0.6698
  291MOL0     C38333  10.092   2.339   3.698 -0.2036  0.9736  0.0261
  291MOL0     C38334  10.467   2.213   3.488 -0.4259 -0.0913  0.2298
  291MOL0     C38335  10.593   2.182   3.535  0.5114 -0.8716  0.1663
  291MOL0     C38336  10.688   2.117   3.455  0.3083 -0.7142  1.1688
  291MOL0     C38337  10.657   2.083   3.323  0.1643  0.2316 -0.3604
  291MOL0     O38338  10.750   2.044   3.229  0.6561 -0.5787  0.2658
  291MOL0     C38339  10.837   1.942   3.283 -1.7599  0.0145 -0.2515
  291MOL0     C38340  10.935   1.892   3.185  0.2682  0.2696  0.9140
  291MOL0     C38341  11.047   1.786   3.224  0.2567  1.3149 -0.9523
  291MOL0     C38342  11.161   1.770   3.119  0.6605 -0.3913 -0.7801
  291MOL0     C38343  11.121   1.685   3.008  0.5457 -0.6365 -0.8671
  291MOL0     C38344  11.094   1.607   2.922 -0.8768  0.0116  0.4574
  291MOL0     C38345  10.527   2.104   3.269  0.2432 -0.3614  0.1887
  291MOL0     C38346  10.433   2.174   3.358 -0.4467  0.0760  0.6857
  291MOL0     H38347  10.085   2.463   3.387  0.3357 -2.3710 -0.1826
  291MOL0     H38348   9.877   2.567   3.470  1.1054 -1.5148 -1.8461
  291MOL0     H38349   9.574   2.439   3.738  0.6937  1.8717  3.0571
  291MOL0     H38350   9.661   2.425   3.590  0.6299 -1.9784  1.2719
  291MOL0     H38351   9.492   2.586   3.547 -0.9564 -2.0947  0.8353
  291MOL0     H38352   9.635   2.677   3.564 -0.0624  1.7638  1.7929
  291MOL0     H38353   9.580   2.779   3.784 -1.1524 -0.7675  0.8827
  291MOL0     H38354   9.456   2.656   3.805 -1.4468  0.7496 -0.6015
  291MOL0     H38355   9.464   2.885   3.599  3.9825 -1.0375  1.4164
  291MOL0     H38356   9.355   2.747   3.569 -4.1456  1.4265  1.9611
  291MOL0     H38357   9.358   2.921   3.811 -0.6405  0.7875 -0.9356
  291MOL0     H38358   9.235   2.793   3.770 -0.6162  0.0607 -1.6170
  291MOL0     H38359   9.178   2.914   3.574  0.4130 -1.4778 -0.5746
  291MOL0     H38360   9.283   3.045   3.636 -0.3723 -0.1977 -2.8905
  291MOL0     H38361   9.028   2.947   3.789 -0.0366  0.6056 -1.2204
  291MOL0     H38362   9.150   3.064   3.846  0.7486  2.3989 -1.8418
  291MOL0     H38363   9.087   3.209   3.671 -0.4200  0.5141  1.2399
  291MOL0     H38364   8.950   3.169   3.760 -2.0651 -3.4200  0.1125
  291MOL0     H38365   8.804   2.943   3.645 -0.7701  0.3825 -0.2763
  291MOL0     H38366   8.754   2.804   3.357  1.4661  0.5014 -0.0993
  291MOL0     H38367   8.726   2.946   3.258  1.1805 -1.3259 -0.3746
  291MOL0     H38368   8.545   3.031   3.417  0.7209 -0.6250  0.3999
  291MOL0     H38369   8.560   2.892   3.529  2.1739 -0.3846 -0.0667
  291MOL0     H38370   8.524   2.888   3.230  0.8043  0.4686  0.6261
  291MOL0     H38371   8.523   2.738   3.324  1.4992 -0.4159 -0.6364
  291MOL0     H38372   8.335   2.875   3.457  3.5813  0.4602  0.9887
  291MOL0     H38373   8.298   2.764   3.324  0.3171  1.2368 -4.1309
  291MOL0     H38374   8.316   2.727   3.102 -1.6603 -3.5110 -0.8335
  291MOL0     H38375   8.165   2.682   2.916 -0.4207 -2.8700  4.2587
  291MOL0     H38376   7.802   3.003   2.583 -0.0382  0.6470  0.7655
  291MOL0     H38377   7.632   2.917   2.422  0.1923  0.1228  0.8280
  291MOL0     H38378   7.326   2.638   2.577  2.0915  0.2390  1.5361
  291MOL0     H38379   7.425   2.514   2.513 -1.8973 -0.2671 -0.6760
  291MOL0     H38380   7.338   2.553   2.276 -0.4615 -0.1672 -0.5158
  291MOL0     H38381   7.225   2.674   2.358 -2.2613 -1.4986 -1.5327
  291MOL0     H38382   7.173   2.457   2.518  0.6038 -2.4399  0.5540
  291MOL0     H38383   7.256   2.362   2.407 -2.1056 -0.9635  0.3549
  291MOL0     H38384   7.014   2.545   2.370  1.4517  1.4903  0.0104
  291MOL0     H38385   7.096   2.468   2.231  0.3647 -0.9581  0.0564
  291MOL0     H38386   6.923   2.322   2.425 -0.2967 -0.7354 -1.3301
  291MOL0     H38387   7.071   2.239   2.367 -0.0585 -1.1132 -2.0383
  291MOL0     H38388   6.905   2.154   2.225 -1.1843 -1.3457 -1.9049
  291MOL0     H38389   6.991   2.281   2.139 -1.7225 -1.8771 -0.9728
  291MOL0     H38390   6.795   2.425   2.249  1.4703 -0.7846  1.8980
  291MOL0     H38391   6.815   2.357   2.086  4.1212 -1.3041 -0.7904
  291MOL0     H38392   6.679   2.170   2.293  0.2246 -2.9357 -1.5371
  291MOL0     H38393   6.713   2.151   2.131 -0.5647  0.6440 -0.1722
  291MOL0     H38394   7.560   2.592   2.687 -2.7257  1.7803 -0.9881
  291MOL0     H38395   7.723   2.665   2.834 -4.4004 -2.4344 -1.5027
  291MOL0     H38396   7.996   3.081   2.949  2.7797  2.2362  1.7314
  291MOL0     H38397   8.122   3.112   3.144 -0.4200  1.5211 -2.6511
  291MOL0     H38398   9.956   2.394   3.859 -2.0101  0.9107 -0.9702
  291MOL0     H38399  10.150   2.272   3.761  2.6395  2.7878 -0.4743
  291MOL0     H38400  10.624   2.215   3.633  1.6123  1.5266 -0.9002
  291MOL0     H38401  10.791   2.111   3.489  1.9655 -2.5291 -3.4105
  291MOL0     H38402  10.771   1.860   3.314 -1.2500 -0.8476 -1.3667
  291MOL0     H38403  10.895   1.963   3.373  0.0210 -2.3751 -0.7254
  291MOL0     H38404  10.879   1.834   3.111  0.3494  1.0887  0.1922
  291MOL0     H38405  10.997   1.972   3.144 -1.6548  1.2822 -0.1542
  291MOL0     H38406  11.001   1.687   3.230  1.3315  0.5980 -3.4093
  291MOL0     H38407  11.103   1.806   3.315  1.1505  1.1684 -1.4662
  291MOL0     H38408  11.188   1.865   3.071  0.9240 -1.0919 -2.0683
  291MOL0     H38409  11.243   1.712   3.162 -0.3907  0.2185  2.2894
  291MOL0     H38410  11.071   1.534   2.847  3.1413 -5.7478  3.9904
  291MOL0     H38411  10.507   2.079   3.166  1.0367 -1.3985  0.2794
  291MOL0     H38412  10.337   2.198   3.313  0.7280 -1.5398 -3.1584
  292MOL0     O38413   2.500   0.465   2.659 -0.0009  0.5046 -0.0947
  292MOL0     C38414   2.442   0.406   2.566 -0.1737  0.6560 -0.1717
  292MOL0     O38415   2.503   0.331   2.468  0.3921 -0.9652 -0.0982
  292MOL0     C38416   2.639   0.330   2.471 -0.3317 -0.3760 -0.1311
  292MOL0     C38417   2.727   0.439   2.450  0.0795  0.5501 -0.0736
  292MOL0     C38418   2.868   0.423   2.433 -0.1117  0.4324 -0.2709
  292MOL0     C38419   2.920   0.295   2.450 -0.6400  0.6436  1.5013
  292MOL0     O38420   3.062   0.275   2.475  0.0927 -0.5217 -0.7508
  292MOL0     C38421   3.157   0.339   2.397  0.3769 -0.3818 -0.4148
  292MOL0     C38422   3.139   0.311   2.248 -0.1748 -0.5199 -0.6027
  292MOL0     C38423   3.267   0.306   2.170 -0.8792  0.5789 -0.3286
  292MOL0     C38424   3.352   0.438   2.177 -0.3740 -0.0251  0.0509
  292MOL0     C38425   3.278   0.557   2.102 -0.1085 -0.5406  0.2938
  292MOL0     C38426   3.246   0.512   1.949 -0.2941  0.1734 -0.7253
  292MOL0     C38427   3.209   0.638   1.861  0.0692 -0.0660  0.4198
  292MOL0     C38428   3.204   0.612   1.701 -0.2220  0.5345 -1.7587
  292MOL0     N38429   3.067   0.605   1.654 -0.2278  0.1298  0.4533
  292MOL0     C38430   2.996   0.722   1.635  0.3040 -0.6223 -0.2660
  292MOL0     C38431   2.884   0.680   1.579  0.1081  0.4419 -0.8698
  292MOL0     C38432   2.753   0.749   1.551  0.0158 -0.1778 -0.4787
  292MOL0     C38433   2.768   0.899   1.577 -0.6003  0.0876  0.0953
  292MOL0     C38434   2.747   0.931   1.721 -0.5500 -0.2090 -0.1202
  292MOL0     C38435   2.810   1.073   1.753 -0.0053 -0.5040 -0.9688
  292MOL0     O38436   2.955   1.070   1.739  0.0176  0.1209 -1.4762
  292MOL0     C38437   3.033   1.061   1.853  0.0037  0.0650  0.0071
  292MOL0     C38438   3.029   0.948   1.941 -0.1709  0.0904  0.8914
  292MOL0     C38439   3.109   0.949   2.055  0.5937  0.2920 -0.0828
  292MOL0     C38440   3.190   1.060   2.087  0.2757 -0.5986  0.2006
  292MOL0     C38441   3.290   1.044   2.191 -0.1154  0.0895 -0.0688
  292MOL0     O38442   3.379   1.145   2.190 -0.2570 -0.2891 -0.3015
  292MOL0     C38443   3.460   1.158   2.300  1.1931 -0.4259  0.3678
  292MOL0     C38444   3.598   1.181   2.273  0.0661 -0.0655  0.0053
  292MOL0     C38445   3.688   1.219   2.374 -0.4367  0.2912 -0.9699
  292MOL0     C38446   3.649   1.219   2.504 -0.5242  1.3864 -0.6954
  292MOL0     O38447   3.751   1.236   2.594  0.2891  0.0018  0.2986
  292MOL0     C38448   3.740   1.219   2.737 -0.2017  0.5742  0.1541
  292MOL0     C38449   3.814   1.341   2.789 -0.1317  0.1915 -0.1601
  292MOL0     C38450   3.963   1.329   2.804  0.2134 -0.1008 -0.1280
  292MOL0     C38451   4.035   1.450   2.876  0.0016  0.4322 -0.3395
  292MOL0     C38452   4.190   1.432   2.878  0.8682  0.8064  0.7126
  292MOL0     C38453   4.258   1.524   2.967 -0.0132 -0.4493 -1.1537
  292MOL0     C38454   4.218   1.673   2.951 -1.0401 -0.1663 -0.6649
  292MOL0     C38455   4.286   1.752   2.845 -0.1826  0.9239 -0.1863
  292MOL0    Cl38456   4.224   1.926   2.854 -0.0650 -0.2673 -0.5179
  292MOL0     C38457   3.512   1.192   2.532 -1.3085  0.0383 -0.0592
  292MOL0     C38458   3.417   1.168   2.427  0.2776  0.1260 -0.5403
  292MOL0     O38459   3.287   0.942   2.254 -0.2816 -0.1956 -0.0543
  292MOL0     C38460   3.185   1.177   2.004  0.7909  0.8969 -0.3344
  292MOL0     C38461   3.110   1.175   1.883  1.0144 -0.3202  0.6183
  292MOL0     N38462   2.886   0.543   1.567  0.2670  1.3131 -0.0712
  292MOL0     N38463   3.000   0.499   1.602 -0.3980 -0.2539  0.5247
  292MOL0     C38464   2.838   0.194   2.465  0.5438  0.7110 -0.2380
  292MOL0     C38465   2.704   0.206   2.474 -0.4234 -0.7944  0.4499
  292MOL0     C38466   2.296   0.408   2.563  0.0356 -0.1370 -0.2059
  292MOL0     C38467   2.220   0.345   2.460  0.3659  1.4135  0.3073
  292MOL0     C38468   2.083   0.371   2.447 -1.1922 -0.3121 -0.3666
  292MOL0     C38469   2.011   0.442   2.539 -0.4255 -0.2061 -0.4963
  292MOL0     O38470   1.878   0.472   2.539 -0.9621  0.1089 -0.1052
  292MOL0     C38471   1.819   0.446   2.417  0.6807  0.6721  0.4278
  292MOL0     C38472   1.670   0.469   2.441 -0.3449 -0.2990  0.5711
  292MOL0     C38473   1.591   0.430   2.316  0.5422  0.4006 -0.0251
  292MOL0     C38474   1.448   0.404   2.347  0.0667 -0.3808  0.3490
  292MOL0     C38475   1.381   0.508   2.434 -0.6988  0.3777  0.6460
  292MOL0     C38476   1.335   0.592   2.511 -0.0441  0.3666 -0.5391
  292MOL0     C38477   2.079   0.489   2.651 -0.2944 -0.7913  0.0568
  292MOL0     C38478   2.219   0.472   2.662 -0.8488 -0.2099  0.2174
  292MOL0     H38479   2.669   0.527   2.424  1.1970  1.2773 -0.1854
  292MOL0     H38480   2.935   0.507   2.418  3.3200 -1.6649  1.9775
  292MOL0     H38481   3.251   0.292   2.427  1.2375  1.5515  0.0468
  292MOL0     H38482   3.159   0.443   2.429 -0.0786 -1.0452  2.0214
  292MOL0     H38483   3.076   0.388   2.203  1.4571  1.4875  0.3309
  292MOL0     H38484   3.086   0.216   2.239 -0.0017 -0.5661 -1.1368
  292MOL0     H38485   3.260   0.282   2.063  0.0480  0.9760 -0.4917
  292MOL0     H38486   3.325   0.221   2.208 -0.7443  0.4178 -0.8772
  292MOL0     H38487   3.365   0.462   2.283 -0.1846 -0.6575  0.1739
  292MOL0     H38488   3.454   0.414   2.149  1.2762  1.0855  4.3334
  292MOL0     H38489   3.356   0.634   2.103  0.7478 -1.3472 -0.9605
  292MOL0     H38490   3.182   0.589   2.144  0.1827  0.0373  0.5321
  292MOL0     H38491   3.168   0.436   1.955  0.8125 -0.9657 -0.3629
  292MOL0     H38492   3.332   0.453   1.916 -0.6351 -2.3695  2.4497
  292MOL0     H38493   3.110   0.669   1.897  0.2813 -0.9939  1.9441
  292MOL0     H38494   3.277   0.722   1.873 -0.8933  0.7584  0.2300
  292MOL0     H38495   3.262   0.520   1.685 -0.5834 -0.0887  0.2613
  292MOL0     H38496   3.260   0.687   1.645  1.6203 -1.1797 -2.3512
  292MOL0     H38497   3.010   0.824   1.670 -2.1264 -0.8596  1.6837
  292MOL0     H38498   2.675   0.706   1.615 -0.0309 -1.6703 -1.4889
  292MOL0     H38499   2.731   0.734   1.445  1.8097  0.1899 -0.9384
  292MOL0     H38500   2.692   0.955   1.522 -0.4441  1.2760  1.0402
  292MOL0     H38501   2.864   0.916   1.530  0.3910 -2.0985  1.1464
  292MOL0     H38502   2.639   0.922   1.732 -0.6877 -0.0485 -1.2153
  292MOL0     H38503   2.769   0.854   1.796  2.6001  1.6502  1.0432
  292MOL0     H38504   2.788   1.101   1.856 -0.6185 -0.7982 -1.0150
  292MOL0     H38505   2.770   1.145   1.681 -1.3913 -0.9175 -0.6305
  292MOL0     H38506   2.958   0.868   1.923 -1.4001  1.8066 -3.0932
  292MOL0     H38507   3.123   0.852   2.101 -1.8755 -0.2086 -0.2326
  292MOL0     H38508   3.632   1.181   2.170  1.3011  0.8447  0.3901
  292MOL0     H38509   3.790   1.240   2.345 -0.9378  0.8656 -2.4471
  292MOL0     H38510   3.785   1.122   2.761  0.9159  1.6233  2.6129
  292MOL0     H38511   3.638   1.211   2.776 -0.1592 -0.1485  0.1286
  292MOL0     H38512   3.770   1.375   2.884  1.2702  1.3995  0.0996
  292MOL0     H38513   3.810   1.422   2.716 -0.9060  1.0751  0.8231
  292MOL0     H38514   4.013   1.312   2.708 -2.0403 -0.2703 -1.3341
  292MOL0     H38515   3.979   1.242   2.868  0.5497 -0.3785 -0.5853
  292MOL0     H38516   3.998   1.531   2.813 -0.9625 -0.2071 -0.6015
  292MOL0     H38517   4.009   1.454   2.982  0.2598  1.3570 -0.2973
  292MOL0     H38518   4.225   1.442   2.775  3.7638  1.1515  1.6246
  292MOL0     H38519   4.218   1.334   2.917  1.8738  0.6171 -0.4113
  292MOL0     H38520   4.364   1.498   2.968 -0.3789 -2.2654 -2.5672
  292MOL0     H38521   4.219   1.500   3.066 -0.7281  0.7605 -1.1294
  292MOL0     H38522   4.109   1.676   2.951 -1.0368  2.1566  0.5468
  292MOL0     H38523   4.252   1.727   3.040 -0.9817 -0.1822 -0.6776
  292MOL0     H38524   4.262   1.715   2.745 -1.6691  2.5767 -0.4989
  292MOL0     H38525   4.392   1.755   2.870 -0.9772  0.8201  4.1232
  292MOL0     H38526   3.466   1.211   2.629 -2.8932 -0.0676 -0.7555
  292MOL0     H38527   3.311   1.170   2.452  0.1015  1.9768 -1.2541
  292MOL0     H38528   3.254   1.257   2.031  0.3064  0.6210  1.9548
  292MOL0     H38529   3.114   1.263   1.820  1.8612 -1.0294 -0.3555
  292MOL0     H38530   2.882   0.094   2.460 -1.7558 -0.2858 -2.8228
  292MOL0     H38531   2.650   0.111   2.476  2.6661 -2.8508 -2.6289
  292MOL0     H38532   2.273   0.281   2.390  0.2707 -1.8450  3.0159
  292MOL0     H38533   2.040   0.317   2.364 -0.7900 -3.5263  1.3451
  292MOL0     H38534   1.821   0.344   2.378 -0.6366  1.8463 -3.0850
  292MOL0     H38535   1.859   0.510   2.338  1.0912 -1.2873 -1.0332
  292MOL0     H38536   1.640   0.415   2.531 -0.9844  2.5487  2.2058
  292MOL0     H38537   1.656   0.573   2.472 -1.2211 -0.4090  0.5749
  292MOL0     H38538   1.636   0.343   2.268 -1.0967 -2.4674  3.2119
  292MOL0     H38539   1.602   0.506   2.237 -0.7225 -2.5691 -3.3287
  292MOL0     H38540   1.395   0.385   2.253 -1.5977 -0.2388  1.2151
  292MOL0     H38541   1.449   0.318   2.414  2.7149  1.2732  2.6537
  292MOL0     H38542   1.302   0.671   2.575 -1.4385  1.6716 -2.7446
  292MOL0     H38543   2.021   0.544   2.726 -4.3279 -3.4416 -0.7780
  292MOL0     H38544   2.269   0.522   2.745 -0.4172  2.2571 -1.4306
  293MOL0     O38545   0.224   7.675   7.961 -0.1109 -0.3494 -0.0847
  293MOL0     C38546   0.279   7.781   7.935 -0.4328 -0.4046  1.8474
  293MOL0     O38547   0.265   7.908   7.993  0.1349 -0.1218  0.3765
  293MOL0     C38548   0.182   7.918   8.105  0.4432 -0.3834  0.2010
  293MOL0     C38549   0.042   7.896   8.094 -0.4158  0.0928 -0.5149
  293MOL0     C38550  -0.040   7.892   8.208 -0.5869  0.0543  0.3971
  293MOL0     C38551   0.016   7.941   8.330 -0.4078 -0.4560  0.5512
  293MOL0     O38552  -0.063   7.938   8.440  0.0636  0.3317 -0.3982
  293MOL0     C38553  -0.014   7.980   8.567  0.2300 -0.2067 -0.6665
  293MOL0     C38554  -0.126   7.984   8.671 -0.2397  0.3144  0.1019
  293MOL0     C38555  -0.239   8.064   8.617 -0.1135 -0.1974  0.7813
  293MOL0     C38556  -0.366   8.048   8.714 -0.3052 -0.3679 -0.5378
  293MOL0     C38557  -0.486   8.141   8.676  0.9137  0.1262  0.3487
  293MOL0     C38558  -0.628   8.067   8.680 -0.0062 -0.4519 -0.1572
  293MOL0     C38559  -0.641   7.977   8.559  0.3013 -0.7705  0.3670
  293MOL0     C38560  -0.790   7.918   8.561  0.0773  0.0985 -0.3454
  293MOL0     N38561  -0.824   7.845   8.434  0.2085  0.4207 -0.1865
  293MOL0     C38562  -0.750   7.754   8.368 -0.5165  0.0684 -0.5878
  293MOL0     C38563  -0.821   7.708   8.262  0.8172 -0.0920 -0.6466
  293MOL0     C38564  -0.790   7.597   8.163 -0.8924  0.0690 -0.6524
  293MOL0     C38565  -0.913   7.552   8.077  0.5728 -0.1680 -0.1881
  293MOL0     C38566  -1.003   7.457   8.165 -0.2434  0.4033 -1.2497
  293MOL0     C38567  -1.137   7.437   8.092 -0.3464  0.2833 -0.7532
  293MOL0     O38568  -1.134   7.471   7.956 -0.2281  0.2982 -0.1324
  293MOL0     C38569  -1.245   7.515   7.898  0.7522 -0.0011 -0.0545
  293MOL0     C38570  -1.243   7.521   7.762  0.6300  0.0992  0.2168
  293MOL0     C38571  -1.349   7.589   7.688  0.2011 -0.0781  0.4547
  293MOL0     C38572  -1.469   7.627   7.752 -0.1238  0.5208  0.2415
  293MOL0     C38573  -1.575   7.687   7.672  0.5498  0.4886  0.0711
  293MOL0     O38574  -1.595   7.657   7.538  0.5537 -0.0545  0.4416
  293MOL0     C38575  -1.681   7.745   7.470  0.7494 -0.4229 -0.0085
  293MOL0     C38576  -1.788   7.692   7.402 -0.2282 -0.4691  0.9156
  293MOL0     C38577  -1.869   7.777   7.319 -0.4009  0.3840  0.9733
  293MOL0     C38578  -1.851   7.920   7.309 -0.2201  0.0802 -0.8095
  293MOL0     O38579  -1.928   8.002   7.229 -0.2557  0.5652 -0.2686
  293MOL0     C38580  -1.967   7.942   7.100  0.3481 -0.2687 -0.6343
  293MOL0     C38581  -1.989   8.062   7.004  0.6132 -0.3049 -0.8183
  293MOL0     C38582  -1.873   8.171   6.992 -0.7312 -0.1712 -0.4367
  293MOL0     C38583  -1.737   8.112   6.943  0.8344 -0.3484  0.4543
  293MOL0     C38584  -1.610   8.183   6.971  0.1277  1.0876  0.2914
  293MOL0     C38585  -1.491   8.120   6.895  0.3931  0.1060  0.2373
  293MOL0     C38586  -1.369   8.218   6.916 -0.1799 -0.8330  0.6654
  293MOL0     C38587  -1.260   8.156   6.836 -0.8143  0.6547  0.6572
  293MOL0    Cl38588  -1.225   7.982   6.893  0.0130  0.4326  0.0586
  293MOL0     C38589  -1.741   7.972   7.386  0.6326  0.2694 -0.5706
  293MOL0     C38590  -1.656   7.880   7.467 -0.0632  0.7761  0.0618
  293MOL0     O38591  -1.646   7.759   7.739  0.2495 -0.4276  0.2515
  293MOL0     C38592  -1.480   7.604   7.891 -0.6289  0.1455  0.0470
  293MOL0     C38593  -1.365   7.550   7.963  0.3204  0.0223 -0.6016
  293MOL0     N38594  -0.947   7.766   8.282 -0.0105 -0.2829 -0.0633
  293MOL0     N38595  -0.946   7.850   8.375  0.3941  0.1074  0.5740
  293MOL0     C38596   0.147   7.990   8.333 -0.8330  0.0647 -0.0894
  293MOL0     C38597   0.230   7.975   8.223  0.1470  0.3022 -1.2051
  293MOL0     C38598   0.396   7.761   7.836  0.5708 -0.6855  0.6449
  293MOL0     C38599   0.417   7.641   7.765  0.1758 -0.1952  0.1033
  293MOL0     C38600   0.525   7.636   7.678 -0.3169 -0.6040 -0.8870
  293MOL0     C38601   0.615   7.741   7.665  0.1081 -0.0371  0.6547
  293MOL0     O38602   0.725   7.721   7.588  0.7627  0.3977 -0.2637
  293MOL0     C38603   0.703   7.652   7.465  0.2107 -0.1759  0.1392
  293MOL0     C38604   0.811   7.707   7.362  0.4296  1.0673 -0.2734
  293MOL0     C38605   0.951   7.698   7.420 -0.9934 -0.3565  0.3133
  293MOL0     C38606   1.060   7.679   7.307 -0.0218 -0.3047 -1.0879
  293MOL0     C38607   1.192   7.689   7.377  0.5897 -0.2895 -1.0609
  293MOL0     C38608   1.301   7.688   7.442 -0.1553  0.0848 -0.6081
  293MOL0     C38609   0.592   7.856   7.738  0.3227  0.7185  0.5075
  293MOL0     C38610   0.480   7.868   7.817  0.6247 -0.6103 -0.7427
  293MOL0     H38611  -0.004   7.868   7.999 -0.5000  2.8970 -1.3838
  293MOL0     H38612  -0.139   7.851   8.201  0.0230 -1.4618  0.4047
  293MOL0     H38613   0.024   8.083   8.562 -1.2970  0.6490  2.6698
  293MOL0     H38614   0.064   7.910   8.600 -1.9090 -3.5687 -2.1662
  293MOL0     H38615  -0.104   8.029   8.768 -2.2515 -1.1004  1.3037
  293MOL0     H38616  -0.147   7.878   8.689  1.3845 -0.1493 -0.5930
  293MOL0     H38617  -0.272   8.038   8.516  2.1375 -3.0968  0.6819
  293MOL0     H38618  -0.213   8.170   8.623  3.2820 -0.8313 -0.5628
  293MOL0     H38619  -0.408   7.948   8.705 -0.4311 -0.7065  2.7688
  293MOL0     H38620  -0.345   8.057   8.821  0.6572 -0.3729 -0.7164
  293MOL0     H38621  -0.459   8.191   8.583  1.0823 -0.6214 -0.0119
  293MOL0     H38622  -0.495   8.219   8.752  4.1176 -1.8974  3.0843
  293MOL0     H38623  -0.717   8.129   8.697 -1.6401 -1.9047 -2.7401
  293MOL0     H38624  -0.608   8.006   8.769  1.5489 -0.0681 -0.2165
  293MOL0     H38625  -0.642   8.043   8.472  2.7949  1.3300  1.7588
  293MOL0     H38626  -0.561   7.904   8.546  0.4111 -0.4857 -0.6113
  293MOL0     H38627  -0.871   7.991   8.570 -0.4376 -0.3803 -0.9611
  293MOL0     H38628  -0.808   7.852   8.647  2.5601 -0.7134 -0.3697
  293MOL0     H38629  -0.645   7.731   8.382  0.4754  3.5074 -1.4873
  293MOL0     H38630  -0.728   7.526   8.220  0.4174  1.0147 -0.8547
  293MOL0     H38631  -0.712   7.636   8.097  1.6900 -0.9436  1.5661
  293MOL0     H38632  -0.879   7.498   7.988 -1.0904  0.6472 -1.3507
  293MOL0     H38633  -0.972   7.638   8.046  1.8968  1.2864  1.1548
  293MOL0     H38634  -0.948   7.364   8.183 -1.3354  0.2800  2.1825
  293MOL0     H38635  -1.023   7.516   8.255 -1.1027 -0.5521 -0.8000
  293MOL0     H38636  -1.213   7.472   8.164 -0.9278 -3.6284  0.7786
  293MOL0     H38637  -1.171   7.333   8.091 -0.4508  0.2971  0.0901
  293MOL0     H38638  -1.151   7.500   7.708  0.7575  1.6849 -0.2395
  293MOL0     H38639  -1.333   7.602   7.582  0.7461  0.3508  0.5846
  293MOL0     H38640  -1.800   7.585   7.414  3.5808 -1.1589 -0.1723
  293MOL0     H38641  -1.950   7.745   7.254  0.2506  1.2034 -0.2911
  293MOL0     H38642  -2.054   7.875   7.106 -1.2147  1.6810 -0.3210
  293MOL0     H38643  -1.882   7.886   7.060  0.9863  0.2156  0.0151
  293MOL0     H38644  -2.081   8.117   7.025 -0.0324 -1.8475  0.7216
  293MOL0     H38645  -2.017   8.025   6.905  1.0867 -0.1982 -0.9958
  293MOL0     H38646  -1.860   8.223   7.088 -2.3920 -1.1632  0.3784
  293MOL0     H38647  -1.897   8.247   6.917 -1.3076  1.2456  1.0958
  293MOL0     H38648  -1.718   8.016   6.992  0.8124  0.6003  2.4438
  293MOL0     H38649  -1.750   8.106   6.835 -0.3658 -0.7620  0.6021
  293MOL0     H38650  -1.592   8.169   7.078 -1.8785 -1.8730  0.3799
  293MOL0     H38651  -1.622   8.288   6.944  0.4287  1.4118  1.3665
  293MOL0     H38652  -1.507   8.109   6.787  1.0726  2.7644 -0.2244
  293MOL0     H38653  -1.473   8.018   6.929 -0.0620 -0.1553 -0.2879
  293MOL0     H38654  -1.389   8.320   6.883 -0.5123 -0.4093  2.0960
  293MOL0     H38655  -1.338   8.224   7.020 -0.0969  2.1175  0.5514
  293MOL0     H38656  -1.165   8.209   6.827 -0.9509  0.5513 -2.1230
  293MOL0     H38657  -1.292   8.158   6.732  1.4205 -1.5298 -0.1890
  293MOL0     H38658  -1.716   8.077   7.397  6.4959 -0.8276 -0.1377
  293MOL0     H38659  -1.565   7.927   7.501 -0.4723 -0.3315  2.9935
  293MOL0     H38660  -1.566   7.627   7.952  0.8750 -0.4994  2.5445
  293MOL0     H38661  -1.381   7.536   8.069  1.0719 -1.5657 -0.6786
  293MOL0     H38662   0.177   8.045   8.421 -3.7051  0.9342  0.4666
  293MOL0     H38663   0.333   8.002   8.242  0.7820 -3.9682  3.4486
  293MOL0     H38664   0.364   7.551   7.795  2.9855 -1.7328  0.7779
  293MOL0     H38665   0.549   7.537   7.641  0.4423 -1.6621  2.1518
  293MOL0     H38666   0.603   7.658   7.421 -0.2529 -0.5977  1.1025
  293MOL0     H38667   0.717   7.544   7.469 -2.4717 -0.5466  1.6788
  293MOL0     H38668   0.816   7.648   7.270 -0.0959 -0.5617  0.7040
  293MOL0     H38669   0.794   7.811   7.331 -0.5832  0.3252 -2.4208
  293MOL0     H38670   0.953   7.619   7.496 -0.7521 -1.2576 -0.5974
  293MOL0     H38671   0.983   7.788   7.473  0.6729  1.4879 -3.3975
  293MOL0     H38672   1.051   7.578   7.265 -0.5120 -0.3752 -0.8220
  293MOL0     H38673   1.054   7.750   7.224  1.2002 -0.0183 -0.9490
  293MOL0     H38674   1.388   7.684   7.504 -1.4155  2.4883  1.5062
  293MOL0     H38675   0.675   7.926   7.732  1.8264 -1.0159 -0.0357
  293MOL0     H38676   0.459   7.959   7.872  1.3673  1.1735 -3.2549
  294MOL0     O38677   6.368   8.254   6.713  0.8189  0.3358 -0.7237
  294MOL0     C38678   6.318   8.312   6.617 -0.5130 -0.7418 -0.0529
  294MOL0     O38679   6.392   8.347   6.506 -0.4050  0.2387 -0.9273
  294MOL0     C38680   6.526   8.330   6.509 -0.7148  0.0476  0.7967
  294MOL0     C38681   6.574   8.205   6.468 -0.2830 -0.3418  0.9028
  294MOL0     C38682   6.708   8.172   6.462 -0.7719  0.1695  0.0531
  294MOL0     C38683   6.803   8.272   6.496  0.2366 -0.2853  0.4568
  294MOL0     O38684   6.938   8.255   6.482 -0.1181  1.1131 -0.0797
  294MOL0     C38685   6.979   8.163   6.582 -0.6364 -0.0582 -0.5426
  294MOL0     C38686   7.123   8.180   6.625 -1.1866 -0.2821  0.3641
  294MOL0     C38687   7.152   8.210   6.770 -0.9476  0.6560 -1.2897
  294MOL0     C38688   7.307   8.194   6.792 -0.0822 -0.3551 -0.5980
  294MOL0     C38689   7.350   8.229   6.935  0.2547  0.1428  0.9434
  294MOL0     C38690   7.387   8.379   6.940  0.6462 -0.1271 -0.7238
  294MOL0     C38691   7.440   8.399   7.080  0.6421 -0.9193 -0.5533
  294MOL0     C38692   7.501   8.545   7.098 -0.0045  0.5298  0.3312
  294MOL0     N38693   7.411   8.640   7.161 -0.5582  0.0350  0.0115
  294MOL0     C38694   7.296   8.697   7.093  0.3610  0.2126 -0.2816
  294MOL0     C38695   7.245   8.796   7.181  0.4663  0.3358  0.3058
  294MOL0     C38696   7.122   8.875   7.161  0.2732 -0.2518  0.7581
  294MOL0     C38697   6.992   8.802   7.200 -0.9891  0.3540 -0.5747
  294MOL0     C38698   6.870   8.893   7.235  0.0279 -0.8691 -0.0648
  294MOL0     C38699   6.755   8.820   7.314  0.3100  0.3759  0.5315
  294MOL0     O38700   6.678   8.712   7.244  0.3312  0.0316 -0.1332
  294MOL0     C38701   6.542   8.707   7.242  0.6689 -1.1684  0.3367
  294MOL0     C38702   6.490   8.588   7.187 -0.6729 -0.5614 -0.0499
  294MOL0     C38703   6.356   8.562   7.165  0.2761 -0.7816  0.5575
  294MOL0     C38704   6.264   8.660   7.210 -1.0862 -0.7170 -0.1296
  294MOL0     C38705   6.125   8.636   7.211  0.4707  0.3370 -0.9968
  294MOL0     O38706   6.087   8.512   7.178 -0.0943 -0.0962  0.4545
  294MOL0     C38707   5.954   8.495   7.137  0.7261 -0.9369 -1.3002
  294MOL0     C38708   5.895   8.378   7.192  0.4885  0.8225 -0.1516
  294MOL0     C38709   5.757   8.352   7.171  0.6040 -0.1832  0.1760
  294MOL0     C38710   5.668   8.435   7.101 -0.9862 -0.7944  1.1226
  294MOL0     O38711   5.542   8.398   7.087  0.1426 -0.1323 -0.5990
  294MOL0     C38712   5.472   8.442   6.975  0.1766 -0.6411  0.0171
  294MOL0     C38713   5.347   8.353   6.966 -0.1043  0.1101  1.2660
  294MOL0     C38714   5.372   8.203   6.965 -0.2749 -1.2270  0.2574
  294MOL0     C38715   5.246   8.133   6.913  0.7556 -0.5539  0.8025
  294MOL0     C38716   5.286   7.992   6.867  0.3268  0.9048 -0.2559
  294MOL0     C38717   5.332   7.893   6.978  0.2731 -0.5535 -0.7128
  294MOL0     C38718   5.327   7.755   6.935  0.3755 -0.0473  0.2257
  294MOL0     C38719   5.455   7.715   6.853 -0.7941 -0.2469  0.1495
  294MOL0    Cl38720   5.435   7.542   6.812 -0.3046 -0.3937 -0.0894
  294MOL0     C38721   5.735   8.548   7.047  0.4040  0.1365 -0.2160
  294MOL0     C38722   5.871   8.573   7.064  0.4711 -0.1835  0.8248
  294MOL0     O38723   6.043   8.726   7.237 -0.4010 -0.0583  0.0699
  294MOL0     C38724   6.315   8.773   7.275  0.5411 -0.0013 -0.3303
  294MOL0     C38725   6.452   8.806   7.277  0.4245 -0.2060  0.1778
  294MOL0     N38726   7.323   8.795   7.293  0.4094  0.2455 -0.5629
  294MOL0     N38727   7.419   8.703   7.283 -0.7449 -0.5848 -0.4834
  294MOL0     C38728   6.753   8.405   6.524 -0.3659 -0.8467 -1.4918
  294MOL0     C38729   6.620   8.432   6.540  0.5587 -0.5116  0.3037
  294MOL0     C38730   6.178   8.356   6.624 -0.1985 -0.2675 -1.9075
  294MOL0     C38731   6.093   8.322   6.738 -0.1509 -0.7222  0.4555
  294MOL0     C38732   5.962   8.369   6.747  0.2823 -0.0432  0.4600
  294MOL0     C38733   5.906   8.461   6.657 -0.7671  0.6513 -0.0250
  294MOL0     O38734   5.774   8.508   6.664 -1.1778  0.0326 -0.5091
  294MOL0     C38735   5.712   8.575   6.551  0.3886  0.3335 -0.2294
  294MOL0     C38736   5.559   8.579   6.561  0.0112 -0.1876 -0.2206
  294MOL0     C38737   5.501   8.434   6.586 -0.4210 -0.0179 -0.3521
  294MOL0     C38738   5.355   8.437   6.583 -0.3924 -0.5592 -0.3957
  294MOL0     C38739   5.293   8.448   6.451 -0.2608  0.4377  0.9194
  294MOL0     C38740   5.267   8.479   6.338  0.1672  0.3676  0.0620
  294MOL0     C38741   5.987   8.471   6.543  0.2059 -0.2439  0.3402
  294MOL0     C38742   6.119   8.427   6.526 -0.2261 -0.4384 -0.3903
  294MOL0     H38743   6.494   8.135   6.446 -2.0867  1.1454  2.4114
  294MOL0     H38744   6.734   8.074   6.423  1.3786  1.7035 -2.8109
  294MOL0     H38745   6.977   8.065   6.532 -3.6675  0.6541 -2.0468
  294MOL0     H38746   6.922   8.150   6.675  3.4014 -0.0611  2.1959
  294MOL0     H38747   7.184   8.246   6.564 -0.1997 -2.0013 -0.5839
  294MOL0     H38748   7.157   8.077   6.608 -1.8094 -0.6364  1.1511
  294MOL0     H38749   7.092   8.148   6.837 -2.2290  1.4107 -1.6851
  294MOL0     H38750   7.130   8.316   6.784  0.1044  0.7353 -0.1074
  294MOL0     H38751   7.336   8.089   6.789  2.8399  0.3824 -1.1148
  294MOL0     H38752   7.361   8.252   6.717  0.3346 -0.6120 -0.4964
  294MOL0     H38753   7.436   8.168   6.964 -0.6528 -0.7783  1.7956
  294MOL0     H38754   7.269   8.217   7.008  0.2816 -0.9722  0.8169
  294MOL0     H38755   7.308   8.446   6.907 -0.6741 -0.0894  2.2522
  294MOL0     H38756   7.470   8.393   6.869  2.1702  2.7501  1.4117
  294MOL0     H38757   7.370   8.378   7.161  2.0508 -3.4586  0.1137
  294MOL0     H38758   7.525   8.330   7.085  1.3458 -0.2540 -2.4165
  294MOL0     H38759   7.543   8.580   7.003 -0.2164  2.1846  0.8194
  294MOL0     H38760   7.595   8.541   7.154  1.1007  2.4276 -1.2486
  294MOL0     H38761   7.272   8.682   6.989  1.7312  0.5739 -0.6653
  294MOL0     H38762   7.114   8.887   7.053 -1.9153  1.9469  1.0604
  294MOL0     H38763   7.142   8.975   7.202  1.4095 -0.2221  0.1840
  294MOL0     H38764   7.001   8.743   7.291 -0.8674  1.4366  0.1354
  294MOL0     H38765   6.960   8.738   7.118  1.1851  0.1722 -1.3388
  294MOL0     H38766   6.919   8.975   7.289 -1.1954  0.6781 -1.1941
  294MOL0     H38767   6.830   8.949   7.150  2.8567  2.8254  0.7212
  294MOL0     H38768   6.689   8.903   7.342 -1.5775  1.1214 -4.9027
  294MOL0     H38769   6.798   8.778   7.405  0.1922 -3.2938 -0.9306
  294MOL0     H38770   6.552   8.501   7.166 -0.2993 -0.2709 -0.1659
  294MOL0     H38771   6.332   8.469   7.114  0.4081 -0.4539 -0.1288
  294MOL0     H38772   5.956   8.301   7.236 -0.5817  0.0188 -0.0292
  294MOL0     H38773   5.715   8.261   7.214 -0.4140 -0.2376 -0.8826
  294MOL0     H38774   5.540   8.447   6.889 -1.0565  1.7204 -0.9227
  294MOL0     H38775   5.429   8.541   6.990 -0.1072 -0.8605  0.7120
  294MOL0     H38776   5.285   8.371   6.878 -1.3414  1.3774  2.3441
  294MOL0     H38777   5.282   8.368   7.053  0.6962  0.0318  1.8874
  294MOL0     H38778   5.412   8.167   7.060 -0.1660 -2.4615 -0.2315
  294MOL0     H38779   5.458   8.182   6.900  3.1553  0.8808  3.6378
  294MOL0     H38780   5.162   8.128   6.982 -0.0736 -0.8403 -0.2016
  294MOL0     H38781   5.210   8.181   6.821  1.0286  1.5617  1.7324
  294MOL0     H38782   5.368   8.000   6.795 -2.0698  4.2548 -2.9339
  294MOL0     H38783   5.197   7.949   6.821  0.3975 -0.0905  0.5118
  294MOL0     H38784   5.259   7.892   7.059 -2.7556 -1.1650 -3.2231
  294MOL0     H38785   5.433   7.920   7.008 -0.3092  2.4225 -1.1329
  294MOL0     H38786   5.304   7.688   7.019 -2.0778 -2.1530 -1.9440
  294MOL0     H38787   5.241   7.725   6.875  1.2602 -2.7288  0.1474
  294MOL0     H38788   5.542   7.718   6.919 -0.4371 -2.0796 -0.2015
  294MOL0     H38789   5.470   7.780   6.766 -0.6181  0.8308  0.9656
  294MOL0     H38790   5.689   8.615   6.975 -1.3798 -3.1166 -2.3494
  294MOL0     H38791   5.902   8.661   7.009 -4.1870  1.9744  1.1592
  294MOL0     H38792   6.242   8.851   7.293  0.2321  0.6725 -3.7679
  294MOL0     H38793   6.489   8.893   7.330  0.6512  0.2153 -0.6613
  294MOL0     H38794   6.813   8.489   6.560  0.7167 -2.1598 -0.0926
  294MOL0     H38795   6.572   8.525   6.571 -0.0158 -1.2367  1.6824
  294MOL0     H38796   6.132   8.259   6.817  2.0444 -2.0389 -1.5425
  294MOL0     H38797   5.900   8.342   6.831 -0.6251  0.6899  0.0438
  294MOL0     H38798   5.733   8.521   6.458 -0.0923 -0.2662  0.0088
  294MOL0     H38799   5.751   8.676   6.534 -0.5508  0.3050 -3.1691
  294MOL0     H38800   5.536   8.655   6.636 -0.2205  1.5826 -2.0318
  294MOL0     H38801   5.532   8.607   6.459 -1.6311 -1.6072 -0.2153
  294MOL0     H38802   5.538   8.406   6.685  2.2286 -2.5786 -1.8879
  294MOL0     H38803   5.545   8.363   6.515 -0.0487  0.3677 -0.5068
  294MOL0     H38804   5.331   8.340   6.627 -2.5354 -0.6894 -1.6876
  294MOL0     H38805   5.318   8.510   6.655 -0.0785 -0.1199 -0.6781
  294MOL0     H38806   5.240   8.493   6.236 -1.6511  1.8048  0.6753
  294MOL0     H38807   5.954   8.526   6.456 -1.7601 -1.5758  0.1928
  294MOL0     H38808   6.166   8.451   6.431  0.2183 -0.5798 -0.2033
  295MOL0     O38809   9.829  10.126   5.922  1.1747  0.1376 -0.0526
  295MOL0     C38810   9.755  10.194   5.858  0.3229  0.3098 -0.7420
  295MOL0     O38811   9.805  10.282   5.761  0.8870 -0.2698 -0.2486
  295MOL0     C38812   9.935  10.281   5.744 -0.0552 -0.8255  0.0509
  295MOL0     C38813  10.015  10.383   5.795 -0.0373 -0.4216 -0.0237
  295MOL0     C38814  10.160  10.390   5.773 -0.3131  0.2091 -0.4221
  295MOL0     C38815  10.222  10.289   5.694  0.7715  0.7743 -0.0475
  295MOL0     O38816  10.355  10.281   5.661  0.1130  0.5832  0.1207
  295MOL0     C38817  10.449  10.359   5.730 -0.2618 -0.3588  0.4649
  295MOL0     C38818  10.602  10.337   5.696 -0.0897  0.5617  0.2985
  295MOL0     C38819  10.663  10.196   5.729  0.4198 -0.4436 -0.3834
  295MOL0     C38820  10.611  10.080   5.652 -0.4403  0.0959  0.2605
  295MOL0     C38821  10.646  10.092   5.501  0.4783 -0.0831 -0.2055
  295MOL0     C38822  10.654   9.961   5.427 -0.1969  0.8277 -0.3817
  295MOL0     C38823  10.769   9.870   5.470  0.4395  0.4487  0.1178
  295MOL0     C38824  10.769   9.739   5.383  0.0847  0.3699 -0.1187
  295MOL0     N38825  10.645   9.657   5.396 -0.2467 -0.2784 -1.3225
  295MOL0     C38826  10.606   9.583   5.512 -0.0011 -0.9584  0.5208
  295MOL0     C38827  10.491   9.525   5.465  0.3180 -0.0481  0.2909
  295MOL0     C38828  10.425   9.430   5.557  0.5518  0.9311 -0.7705
  295MOL0     C38829  10.459   9.277   5.531  0.2113  0.8223  0.1237
  295MOL0     C38830  10.588   9.246   5.617  1.0442 -0.1191 -0.2817
  295MOL0     C38831  10.652   9.110   5.569 -0.4464 -0.5732  0.1251
  295MOL0     O38832  10.569   9.011   5.629 -0.1408  0.2970 -0.9540
  295MOL0     C38833  10.634   8.900   5.656  0.3164  0.1634 -0.8491
  295MOL0     C38834  10.688   8.816   5.564 -0.2730 -0.0607 -0.4843
  295MOL0     C38835  10.757   8.704   5.602  0.3757  0.2724  0.3033
  295MOL0     C38836  10.798   8.682   5.736  0.2557 -0.3466 -0.3067
  295MOL0     C38837  10.881   8.568   5.765 -0.4521  0.1973  0.4111
  295MOL0     O38838  10.882   8.465   5.675  0.2975 -0.1352  0.2140
  295MOL0     C38839  10.979   8.372   5.678 -0.3839  0.2542 -0.1982
  295MOL0     C38840  11.114   8.379   5.682 -0.7963  0.0328  0.1311
  295MOL0     C38841  11.191   8.259   5.653  1.0359  1.0265  0.2196
  295MOL0     C38842  11.132   8.137   5.625 -0.0206 -0.1824  0.3452
  295MOL0     O38843  11.203   8.031   5.588  0.0837  0.0417  0.0792
  295MOL0     C38844  11.158   7.966   5.470  0.1106 -0.0388  0.0704
  295MOL0     C38845  11.250   7.845   5.443  1.3075 -0.0443  0.0668
  295MOL0     C38846  11.407   7.874   5.442  0.6250  0.0742 -0.6356
  295MOL0     C38847  11.477   7.761   5.370  0.2565  0.2016  0.3729
  295MOL0     C38848  11.631   7.775   5.356  0.3076  0.6186  0.7042
  295MOL0     C38849  11.703   7.686   5.257 -0.4785  0.3293  0.1308
  295MOL0     C38850  11.667   7.539   5.292 -0.7967 -0.6316  0.0429
  295MOL0     C38851  11.613   7.455   5.175  0.3030 -0.1067  0.3213
  295MOL0    Cl38852  11.593   7.277   5.208  0.4307  0.0538 -0.0007
  295MOL0     C38853  10.992   8.136   5.631 -0.5030  0.4224 -0.1773
  295MOL0     C38854  10.917   8.245   5.658  0.3060  0.0538  0.5825
  295MOL0     O38855  10.949   8.579   5.867  0.6062  0.0864 -0.4761
  295MOL0     C38856  10.755   8.776   5.837 -0.1781  0.5606  0.2773
  295MOL0     C38857  10.662   8.871   5.792  1.4084 -0.4043 -0.5863
  295MOL0     N38858  10.453   9.562   5.338  0.4800  0.7109  0.7610
  295MOL0     N38859  10.553   9.637   5.299  0.1859 -0.2387 -0.8591
  295MOL0     C38860  10.139  10.191   5.637 -0.1295  0.6640 -0.4387
  295MOL0     C38861  10.000  10.184   5.664 -0.7944 -1.7052 -0.3471
  295MOL0     C38862   9.611  10.202   5.895  0.1135 -0.0782 -0.0571
  295MOL0     C38863   9.545  10.100   5.962  0.3238 -0.0046  0.5455
  295MOL0     C38864   9.412  10.106   5.997  0.3883 -0.2539  0.2397
  295MOL0     C38865   9.348  10.228   5.972  0.1282  0.4388  0.1635
  295MOL0     O38866   9.219  10.240   6.003  0.0153 -0.2867  0.6503
  295MOL0     C38867   9.134  10.160   5.915 -0.3474 -0.6214 -0.3417
  295MOL0     C38868   9.102  10.248   5.792  0.5718 -0.6515  0.6012
  295MOL0     C38869   8.963  10.220   5.741 -0.6692  0.3831 -0.7278
  295MOL0     C38870   8.934  10.279   5.607  0.6653 -0.0922  0.3638
  295MOL0     C38871   8.795  10.315   5.578  0.2047  0.3168  0.5147
  295MOL0     C38872   8.678  10.342   5.550 -0.1404 -0.0943 -0.6297
  295MOL0     C38873   9.423  10.338   5.916  0.6215  0.5771 -0.4592
  295MOL0     C38874   9.543  10.319   5.866 -0.0215  1.1640 -0.2902
  295MOL0     H38875   9.969  10.459   5.856 -3.7687 -2.1898 -0.3987
  295MOL0     H38876  10.233  10.462   5.811 -2.3920  1.5425  1.3327
  295MOL0     H38877  10.451  10.353   5.839  4.1086  3.2000  0.8440
  295MOL0     H38878  10.421  10.461   5.705  0.3208 -0.6434 -1.5010
  295MOL0     H38879  10.643  10.416   5.760  2.0511 -0.4094  0.1971
  295MOL0     H38880  10.622  10.364   5.592  3.2712  0.1098  0.6998
  295MOL0     H38881  10.631  10.183   5.833  1.3567 -0.0363 -0.0327
  295MOL0     H38882  10.771  10.206   5.715  0.3317 -0.8318 -1.4012
  295MOL0     H38883  10.659   9.987   5.684 -0.9568 -0.9922 -1.9475
  295MOL0     H38884  10.504  10.065   5.663 -0.3196 -1.2613 -0.2920
  295MOL0     H38885  10.745  10.136   5.485 -0.1707  1.3441 -0.4076
  295MOL0     H38886  10.582  10.161   5.445  0.0002 -0.8858 -0.6580
  295MOL0     H38887  10.659   9.971   5.318 -1.1831 -2.1874 -0.7962
  295MOL0     H38888  10.558   9.913   5.445 -0.6279  1.4268 -1.0418
  295MOL0     H38889  10.871   9.908   5.466 -0.2851  2.3993 -0.9703
  295MOL0     H38890  10.743   9.831   5.569 -0.2905  3.8339  1.3858
  295MOL0     H38891  10.858   9.690   5.424  0.0345  0.1203 -0.3018
  295MOL0     H38892  10.778   9.772   5.279 -1.3599  0.1043 -0.3452
  295MOL0     H38893  10.668   9.582   5.601 -0.4927  2.1612  1.0014
  295MOL0     H38894  10.316   9.442   5.560  0.1196 -2.1759  1.6387
  295MOL0     H38895  10.438   9.458   5.662 -5.4400  0.8482  0.3343
  295MOL0     H38896  10.491   9.262   5.427  0.7967 -0.4560  0.4685
  295MOL0     H38897  10.377   9.208   5.552  1.3980 -0.5091  0.5711
  295MOL0     H38898  10.663   9.320   5.585 -0.2006  0.6187 -1.5707
  295MOL0     H38899  10.572   9.255   5.725  0.9134  1.9777 -0.4266
  295MOL0     H38900  10.754   9.102   5.606 -0.4949  1.4038  0.8357
  295MOL0     H38901  10.645   9.096   5.460 -3.0702  1.7483 -0.1356
  295MOL0     H38902  10.669   8.835   5.458 -3.5701  3.1478  0.4793
  295MOL0     H38903  10.790   8.635   5.526 -2.4410  0.0773 -0.8595
  295MOL0     H38904  11.177   8.466   5.698  1.7575 -1.5863 -0.5248
  295MOL0     H38905  11.299   8.253   5.660  1.1453  1.2806 -1.1526
  295MOL0     H38906  11.163   8.041   5.391 -1.8579  0.3697  0.2957
  295MOL0     H38907  11.058   7.924   5.482 -1.1574  2.7293 -0.0425
  295MOL0     H38908  11.233   7.804   5.343  3.1456 -1.3615  0.2486
  295MOL0     H38909  11.217   7.769   5.514 -0.0746 -0.1963 -0.6891
  295MOL0     H38910  11.448   7.882   5.543 -3.5356  1.5999  1.1846
  295MOL0     H38911  11.419   7.969   5.390  2.3343  0.5075  0.5047
  295MOL0     H38912  11.472   7.668   5.429  4.0660 -3.1127 -3.8669
  295MOL0     H38913  11.423   7.750   5.276 -0.8952  1.4099  0.8476
  295MOL0     H38914  11.669   7.775   5.458 -1.5528  0.5732  1.4320
  295MOL0     H38915  11.654   7.872   5.312 -0.4711  0.0224 -1.1337
  295MOL0     H38916  11.810   7.709   5.250 -0.3170 -0.3739  0.2588
  295MOL0     H38917  11.661   7.698   5.157  0.0373 -1.3661 -0.3174
  295MOL0     H38918  11.764   7.493   5.314  0.8525  2.9249  0.9985
  295MOL0     H38919  11.599   7.526   5.376  0.9231 -0.7013  1.4965
  295MOL0     H38920  11.673   7.470   5.085 -1.2507  0.3346 -0.6818
  295MOL0     H38921  11.511   7.491   5.160  0.6367 -0.0645 -2.2402
  295MOL0     H38922  10.944   8.040   5.616 -0.0889  0.0205  1.0124
  295MOL0     H38923  10.809   8.236   5.655  0.2959  0.4080 -0.7046
  295MOL0     H38924  10.801   8.774   5.935  0.1680  1.5118  0.1370
  295MOL0     H38925  10.628   8.947   5.861  2.4474 -1.7366  1.4766
  295MOL0     H38926  10.172  10.113   5.569  0.8161  0.8473 -0.1919
  295MOL0     H38927   9.931  10.119   5.612 -2.0749 -0.2766 -0.5033
  295MOL0     H38928   9.604  10.012   5.987 -1.4227 -1.3264  0.1766
  295MOL0     H38929   9.368  10.022   6.051 -0.5695 -0.4993 -0.8836
  295MOL0     H38930   9.042  10.133   5.967 -0.0675 -0.0063  0.4852
  295MOL0     H38931   9.190  10.071   5.882 -3.2298 -1.5400 -3.3068
  295MOL0     H38932   9.123  10.352   5.820  3.7845 -1.1831  0.5908
  295MOL0     H38933   9.166  10.218   5.709  4.2433 -2.1557  3.6600
  295MOL0     H38934   8.889  10.252   5.815 -2.5551 -2.3332 -1.2810
  295MOL0     H38935   8.953  10.112   5.733 -0.5598  0.3185 -0.0499
  295MOL0     H38936   8.990  10.371   5.591 -0.9714  0.6836 -1.3402
  295MOL0     H38937   8.971  10.217   5.524  3.0893  2.2369 -0.4519
  295MOL0     H38938   8.580  10.358   5.510  0.0034  2.2354 -0.1929
  295MOL0     H38939   9.363  10.427   5.902 -1.2264 -0.4790  0.3691
  295MOL0     H38940   9.592  10.403   5.817 -1.4979  0.6947 -2.7516
  296MOL0     O38941   1.820   6.044   8.501  0.0319  0.2903  0.4512
  296MOL0     C38942   1.896   6.140   8.478  0.2717  0.3317  0.0849
  296MOL0     O38943   1.910   6.203   8.363 -0.0983  0.2284  0.0879
  296MOL0     C38944   1.830   6.155   8.262 -0.6741  0.6510 -0.2211
  296MOL0     C38945   1.879   6.047   8.194  0.1750 -0.8284  0.2939
  296MOL0     C38946   1.802   5.991   8.092 -0.9664 -0.1387  0.4601
  296MOL0     C38947   1.683   6.049   8.053  0.7527  0.2512  0.5717
  296MOL0     O38948   1.608   6.012   7.948  0.1550 -0.0117 -0.1529
  296MOL0     C38949   1.569   5.871   7.928 -0.8447  0.8710  1.1642
  296MOL0     C38950   1.620   5.827   7.788 -0.0789 -0.5470 -0.0057
  296MOL0     C38951   1.542   5.712   7.732 -0.0039  0.1062  0.0385
  296MOL0     C38952   1.610   5.650   7.603  0.2571 -0.1425 -0.8621
  296MOL0     C38953   1.534   5.514   7.571  0.4277 -0.3376  0.3956
  296MOL0     C38954   1.619   5.392   7.624  0.2472  0.6628  0.4644
  296MOL0     C38955   1.557   5.254   7.588 -0.0065 -0.0338 -0.5850
  296MOL0     C38956   1.659   5.141   7.616  0.7960  0.0226  0.2914
  296MOL0     N38957   1.603   5.021   7.556  0.4262 -0.2410 -0.3198
  296MOL0     C38958   1.577   4.992   7.428  0.4350 -0.7326  0.4189
  296MOL0     C38959   1.518   4.871   7.418 -0.8590 -0.1979  0.0991
  296MOL0     C38960   1.493   4.794   7.286 -1.4713  0.4533 -0.6654
  296MOL0     C38961   1.364   4.715   7.287  1.2852  0.9647  0.1081
  296MOL0     C38962   1.315   4.688   7.146 -0.8385 -0.2836 -0.9427
  296MOL0     C38963   1.183   4.620   7.122  0.5024 -0.9115  0.1960
  296MOL0     O38964   1.107   4.664   7.014  0.3795  0.1669  0.3232
  296MOL0     C38965   0.972   4.643   7.013 -0.1532  1.0252  0.3427
  296MOL0     C38966   0.889   4.597   7.113  0.1933 -0.9182  0.5432
  296MOL0     C38967   0.755   4.558   7.090 -0.2894 -0.0990 -0.7841
  296MOL0     C38968   0.699   4.567   6.961 -0.4478 -0.4441  0.8183
  296MOL0     C38969   0.563   4.521   6.934 -0.0694 -0.5953  0.6027
  296MOL0     O38970   0.490   4.468   7.041 -0.2184  0.0989 -0.3798
  296MOL0     C38971   0.351   4.448   7.026 -0.7402 -0.4422 -0.2129
  296MOL0     C38972   0.300   4.345   7.110 -0.6188  0.2735 -0.5169
  296MOL0     C38973   0.168   4.318   7.111  0.0217 -0.2678 -0.2784
  296MOL0     C38974   0.082   4.401   7.030  0.5369  0.2319 -0.7094
  296MOL0     O38975  -0.056   4.376   7.027 -0.2868  0.1136 -0.0819
  296MOL0     C38976  -0.119   4.292   7.129  0.4249 -0.2377  0.4366
  296MOL0     C38977  -0.262   4.279   7.089 -0.3724  0.0799  0.2793
  296MOL0     C38978  -0.358   4.363   7.179 -0.6816  0.7954 -0.1025
  296MOL0     C38979  -0.508   4.340   7.160  0.3812  0.4313  0.6556
  296MOL0     C38980  -0.606   4.365   7.280 -0.3793 -0.2142  0.7325
  296MOL0     C38981  -0.754   4.366   7.240 -0.1628  0.2300 -0.1689
  296MOL0     C38982  -0.853   4.368   7.360  1.2726 -0.9886 -0.6805
  296MOL0     C38983  -0.997   4.414   7.322 -0.9024  1.0090 -0.0333
  296MOL0    Cl38984  -1.073   4.296   7.217 -0.0952  0.4857  0.2135
  296MOL0     C38985   0.124   4.493   6.940  0.7215 -0.3352 -0.5653
  296MOL0     C38986   0.257   4.519   6.943  0.0265  0.0408 -0.4928
  296MOL0     O38987   0.514   4.533   6.820  0.3963  0.1605  0.6602
  296MOL0     C38988   0.784   4.615   6.860  0.7108  0.5524 -0.3876
  296MOL0     C38989   0.920   4.645   6.888 -0.5936 -0.4764  0.3832
  296MOL0     N38990   1.507   4.823   7.550  0.3597 -0.7739 -0.4778
  296MOL0     N38991   1.555   4.911   7.630  0.3462  0.7521  0.4275
  296MOL0     C38992   1.636   6.164   8.113  0.5868  0.2986  0.6493
  296MOL0     C38993   1.709   6.213   8.216  0.4927 -0.6237 -0.3500
  296MOL0     C38994   1.991   6.173   8.582  0.1130 -0.7945 -0.8339
  296MOL0     C38995   2.084   6.283   8.569  0.5516  0.1747 -0.0828
  296MOL0     C38996   2.172   6.330   8.668 -0.6207  0.1411  0.2248
  296MOL0     C38997   2.182   6.252   8.782 -0.3482 -0.1534 -0.2813
  296MOL0     O38998   2.263   6.279   8.889  0.0940  0.1602 -0.0802
  296MOL0     C38999   2.370   6.383   8.889 -0.3584  0.4360 -0.8627
  296MOL0     C39000   2.438   6.367   9.028  1.3637  0.1953 -1.0048
  296MOL0     C39001   2.525   6.487   9.072  0.0528 -0.3650  0.0503
  296MOL0     C39002   2.600   6.467   9.208 -0.0770  0.2936  0.4011
  296MOL0     C39003   2.514   6.422   9.319 -0.5501  0.9439 -0.7248
  296MOL0     C39004   2.453   6.377   9.417  0.3015 -0.4326  0.3872
  296MOL0     C39005   2.095   6.144   8.802  0.6238  0.5156 -1.0560
  296MOL0     C39006   1.999   6.107   8.711  0.2246  0.1236  0.9426
  296MOL0     H39007   1.973   6.000   8.218  0.6806 -0.1477 -0.3053
  296MOL0     H39008   1.831   5.898   8.045  1.0491 -0.8822  2.9820
  296MOL0     H39009   1.460   5.880   7.925 -1.6163 -4.6509 -2.8702
  296MOL0     H39010   1.580   5.800   8.010 -3.8373 -1.0161  0.1211
  296MOL0     H39011   1.725   5.795   7.791  0.1003 -0.1886 -1.6214
  296MOL0     H39012   1.623   5.918   7.728 -3.9424  0.5345  1.1989
  296MOL0     H39013   1.444   5.754   7.711 -0.5139  0.9011  3.5339
  296MOL0     H39014   1.532   5.635   7.808  4.1404 -1.3146 -0.5620
  296MOL0     H39015   1.586   5.725   7.527 -1.1078 -0.5931 -0.8989
  296MOL0     H39016   1.718   5.643   7.618 -0.1569 -0.4772  3.0396
  296MOL0     H39017   1.524   5.519   7.462  0.7979  3.7281  0.3935
  296MOL0     H39018   1.436   5.516   7.619  1.1499 -0.8754  1.9831
  296MOL0     H39019   1.621   5.406   7.732  1.3106  1.4836  0.3546
  296MOL0     H39020   1.723   5.395   7.591  0.0442 -0.2446 -0.3041
  296MOL0     H39021   1.471   5.222   7.648 -0.3202 -0.1079 -1.0707
  296MOL0     H39022   1.528   5.247   7.483 -2.8284 -0.7508  0.1480
  296MOL0     H39023   1.673   5.132   7.724 -0.2465 -0.7985  0.3747
  296MOL0     H39024   1.755   5.162   7.567 -1.1236 -0.0308 -3.9199
  296MOL0     H39025   1.602   5.049   7.339 -2.5881  0.7528  0.3906
  296MOL0     H39026   1.572   4.727   7.252  2.2227  4.2385 -0.3681
  296MOL0     H39027   1.486   4.868   7.205 -2.1894  2.2086  0.9141
  296MOL0     H39028   1.283   4.762   7.344 -0.9903  1.4738 -3.2960
  296MOL0     H39029   1.377   4.617   7.335 -1.1250  0.0397 -0.9522
  296MOL0     H39030   1.307   4.792   7.111  0.0748  0.2524  0.3588
  296MOL0     H39031   1.400   4.649   7.088 -0.8981 -2.5328  0.3904
  296MOL0     H39032   1.135   4.636   7.219  3.4487  4.6174  1.1148
  296MOL0     H39033   1.206   4.513   7.110  3.9381 -0.3216  0.6765
  296MOL0     H39034   0.921   4.580   7.216 -1.0183 -0.8346  0.9554
  296MOL0     H39035   0.687   4.530   7.170 -1.4943  2.4066 -0.8242
  296MOL0     H39036   0.379   4.293   7.163 -1.0606 -0.0252 -0.1443
  296MOL0     H39037   0.127   4.238   7.172  0.3499 -0.2107  0.0181
  296MOL0     H39038  -0.115   4.333   7.231  1.2063 -2.0272  1.1746
  296MOL0     H39039  -0.072   4.193   7.139 -0.2059 -0.7793 -1.5593
  296MOL0     H39040  -0.300   4.177   7.102 -1.2979  0.3985  0.1212
  296MOL0     H39041  -0.281   4.322   6.990  2.6803  1.2606  0.1097
  296MOL0     H39042  -0.333   4.468   7.161  3.8262 -0.4240 -2.2140
  296MOL0     H39043  -0.329   4.330   7.279 -0.3745 -1.5429 -0.8992
  296MOL0     H39044  -0.527   4.423   7.092 -1.5978 -0.7496 -0.3242
  296MOL0     H39045  -0.518   4.237   7.123  0.2384  1.1829 -1.5135
  296MOL0     H39046  -0.582   4.462   7.326 -1.3785  0.0174  0.7728
  296MOL0     H39047  -0.590   4.287   7.355 -1.0549 -1.1891 -0.1190
  296MOL0     H39048  -0.767   4.277   7.177 -0.5729 -0.0433  0.2870
  296MOL0     H39049  -0.793   4.447   7.178 -1.4677 -0.4377 -0.2522
  296MOL0     H39050  -0.853   4.281   7.427  3.8660  1.3731  2.7648
  296MOL0     H39051  -0.825   4.463   7.407 -0.5059  0.2787 -2.0105
  296MOL0     H39052  -0.981   4.514   7.280 -0.0886  2.5840  3.6207
  296MOL0     H39053  -1.062   4.419   7.409 -0.1001 -0.2549  0.6816
  296MOL0     H39054   0.051   4.541   6.875  0.4834 -1.5179 -1.2091
  296MOL0     H39055   0.287   4.609   6.891  0.0786 -0.4553 -1.3335
  296MOL0     H39056   0.743   4.628   6.760 -1.4017  1.7126  0.5727
  296MOL0     H39057   0.979   4.679   6.803 -0.8517 -1.1522 -0.0785
  296MOL0     H39058   1.543   6.206   8.076  0.3384 -0.2989  0.5858
  296MOL0     H39059   1.671   6.302   8.265  1.0475 -0.4846 -0.1624
  296MOL0     H39060   2.090   6.344   8.479  3.3380  2.5255  1.5196
  296MOL0     H39061   2.236   6.415   8.650  2.9511 -2.7032 -1.7478
  296MOL0     H39062   2.326   6.481   8.868  0.2729  0.6121 -1.4127
  296MOL0     H39063   2.443   6.363   8.810 -1.0825  0.0360 -1.4445
  296MOL0     H39064   2.353   6.372   9.096  1.7087  0.2307 -0.5738
  296MOL0     H39065   2.497   6.275   9.024  2.7725  1.0854 -1.2325
  296MOL0     H39066   2.462   6.576   9.078  0.8758  0.1804  1.0279
  296MOL0     H39067   2.600   6.509   8.996 -0.4964  0.6606 -0.2093
  296MOL0     H39068   2.678   6.391   9.192 -0.3311 -0.4319  2.2629
  296MOL0     H39069   2.642   6.563   9.237 -1.4108  1.0067  0.0484
  296MOL0     H39070   2.418   6.333   9.508 -3.3195  1.1598 -0.0695
  296MOL0     H39071   2.108   6.089   8.895  1.5583 -1.1249 -2.0991
  296MOL0     H39072   1.945   6.017   8.737  2.2837 -2.4785 -2.8149
  297MOL0     O39073   1.525  10.817   8.452  0.8691 -0.3683  0.3793
  297MOL0     C39074   1.563  10.787   8.342 -0.3642  0.7039  0.3696
  297MOL0     O39075   1.691  10.791   8.301 -0.2626  0.0025  0.3571
  297MOL0     C39076   1.795  10.854   8.373  0.4892 -0.5804 -0.3516
  297MOL0     C39077   1.829  10.793   8.496 -0.4198 -0.4902 -0.7286
  297MOL0     C39078   1.916  10.855   8.585  0.1161  0.1053 -1.0843
  297MOL0     C39079   1.972  10.983   8.565 -0.7259  0.8276  0.1882
  297MOL0     O39080   2.040  11.037   8.670 -0.2440  0.5555  0.3385
  297MOL0     C39081   2.110  11.161   8.645 -1.0211  0.3900  0.5877
  297MOL0     C39082   2.229  11.175   8.739  0.4603  0.0598  0.3393
  297MOL0     C39083   2.284  11.321   8.745  0.1174 -0.6157 -0.4805
  297MOL0     C39084   2.388  11.340   8.858 -0.2388 -0.5746  0.9973
  297MOL0     C39085   2.420  11.487   8.865 -0.4069  0.2407 -0.0631
  297MOL0     C39086   2.537  11.506   8.966 -0.8455 -0.3113  0.8036
  297MOL0     C39087   2.481  11.536   9.105 -0.4810  0.4759  0.0961
  297MOL0     C39088   2.579  11.559   9.217  0.3182 -0.6206 -0.3917
  297MOL0     N39089   2.645  11.689   9.196 -0.1480  0.5291 -0.5493
  297MOL0     C39090   2.769  11.699   9.148 -0.0468  0.1657 -0.2694
  297MOL0     C39091   2.808  11.833   9.159 -0.4011  0.4622 -0.3559
  297MOL0     C39092   2.931  11.897   9.107  1.0061 -0.2659  0.9104
  297MOL0     C39093   3.064  11.875   9.188 -0.4284  0.3118 -0.6672
  297MOL0     C39094   3.044  11.890   9.340 -0.0405 -0.1151  0.1445
  297MOL0     C39095   3.165  11.895   9.428  0.9566  0.3134  0.0340
  297MOL0     O39096   3.265  11.802   9.379 -0.6397 -0.2332 -0.3606
  297MOL0     C39097   3.377  11.788   9.456 -0.7643  0.4055 -0.8374
  297MOL0     C39098   3.418  11.864   9.572 -0.4895 -0.1084  0.6716
  297MOL0     C39099   3.537  11.841   9.638 -0.3560  0.1435  0.4110
  297MOL0     C39100   3.626  11.743   9.598  0.9813  0.1168  0.7437
  297MOL0     C39101   3.754  11.724   9.663 -0.3790 -0.8378 -0.0293
  297MOL0     O39102   3.848  11.623   9.618 -0.0239 -0.2960 -0.1101
  297MOL0     C39103   3.971  11.611   9.675  0.4602 -0.7006 -0.7536
  297MOL0     C39104   3.993  11.622   9.811 -0.5468 -0.1740  0.6435
  297MOL0     C39105   4.120  11.591   9.860  0.4649 -0.1770 -0.5929
  297MOL0     C39106   4.225  11.560   9.784 -1.4528 -0.0075 -0.4579
  297MOL0     O39107   4.355  11.541   9.812 -0.1409 -0.2334 -0.1296
  297MOL0     C39108   4.371  11.491   9.945  1.0768  0.4421 -0.2098
  297MOL0     C39109   4.514  11.442   9.953  0.4049 -0.0087 -0.3851
  297MOL0     C39110   4.556  11.434  10.098 -0.5387 -0.6830  0.0717
  297MOL0     C39111   4.703  11.409  10.098 -0.9201  0.1339 -0.5340
  297MOL0     C39112   4.751  11.360  10.225 -0.2010 -0.9265  0.0037
  297MOL0     C39113   4.896  11.321  10.226 -0.1216 -0.8637  0.7993
  297MOL0     C39114   4.935  11.257  10.359 -0.1431  0.6237 -0.2491
  297MOL0     C39115   4.966  11.377  10.454  0.0396  0.2032  0.1471
  297MOL0    Cl39116   5.004  11.331  10.629  0.9113 -0.7520 -0.4969
  297MOL0     C39117   4.212  11.549   9.648  0.2803 -0.7158  0.4454
  297MOL0     C39118   4.086  11.560   9.599 -0.0625 -0.3302  0.6265
  297MOL0     O39119   3.784  11.804   9.760  0.4989  0.3016  0.5316
  297MOL0     C39120   3.576  11.664   9.489 -0.7239  0.1153  0.5960
  297MOL0     C39121   3.459  11.682   9.419 -0.8952  0.0155 -0.3912
  297MOL0     N39122   2.704  11.895   9.227 -0.4529  0.0336  0.0828
  297MOL0     N39123   2.609  11.808   9.254  0.4239 -0.4861  0.7364
  297MOL0     C39124   1.955  11.030   8.428 -0.2208 -0.1003 -0.1351
  297MOL0     C39125   1.873  10.965   8.332  1.2181  0.2023  0.0743
  297MOL0     C39126   1.468  10.725   8.247  0.0782  1.1241  0.2359
  297MOL0     C39127   1.359  10.659   8.301  0.4844 -0.7801 -0.1506
  297MOL0     C39128   1.266  10.595   8.222 -0.2265 -0.1089 -0.0379
  297MOL0     C39129   1.288  10.574   8.077 -0.2906 -0.5417 -0.4874
  297MOL0     O39130   1.194  10.530   7.990 -0.7413  0.5318  0.5210
  297MOL0     C39131   1.047  10.554   8.019  0.5083 -0.3395  0.0264
  297MOL0     C39132   0.976  10.424   8.040  0.8531 -0.1248 -0.5211
  297MOL0     C39133   1.010  10.311   7.942 -0.5096  0.2859 -0.6639
  297MOL0     C39134   1.008  10.352   7.794  0.4595  0.1822  0.4793
  297MOL0     C39135   0.869  10.386   7.759 -0.3027  0.1783  0.7645
  297MOL0     C39136   0.754  10.425   7.735  0.0955 -0.3180 -0.4466
  297MOL0     C39137   1.407  10.627   8.026 -0.1536  0.0917 -0.5100
  297MOL0     C39138   1.506  10.695   8.111  0.0890  0.4677  0.1588
  297MOL0     H39139   1.784  10.698   8.525 -1.2949  1.0483  3.7610
  297MOL0     H39140   1.934  10.814   8.683  0.7451  0.9786 -0.8301
  297MOL0     H39141   2.044  11.243   8.675 -0.6957  0.7569  0.3033
  297MOL0     H39142   2.150  11.162   8.544 -3.3502  2.6963 -0.4363
  297MOL0     H39143   2.310  11.124   8.686  0.0555  1.6099 -1.9346
  297MOL0     H39144   2.198  11.129   8.833  0.6744 -0.3714  0.2028
  297MOL0     H39145   2.207  11.392   8.777  0.5358 -0.4017  0.0830
  297MOL0     H39146   2.327  11.355   8.650  0.0674  2.9051  0.6105
  297MOL0     H39147   2.364  11.297   8.956  0.9406  0.1445  1.6267
  297MOL0     H39148   2.482  11.291   8.832 -0.7442 -3.5895  4.0629
  297MOL0     H39149   2.335  11.547   8.896 -0.6891 -0.9921  1.7323
  297MOL0     H39150   2.450  11.519   8.764  1.1984 -0.2426  0.2207
  297MOL0     H39151   2.578  11.606   8.948 -0.2400 -0.5199  1.0047
  297MOL0     H39152   2.620  11.435   8.964 -0.5041  0.0003  2.3675
  297MOL0     H39153   2.416  11.624   9.098  0.3890  1.6440  3.8490
  297MOL0     H39154   2.426  11.446   9.129  3.0285 -1.8131  0.3118
  297MOL0     H39155   2.625  11.461   9.234 -0.7490 -0.8360  1.5305
  297MOL0     H39156   2.527  11.576   9.312  0.1698 -2.1295 -0.1637
  297MOL0     H39157   2.835  11.637   9.088  1.6749  3.2503 -1.8094
  297MOL0     H39158   2.904  12.003   9.099 -0.4807 -0.8032 -2.1266
  297MOL0     H39159   2.952  11.857   9.008  0.7362 -3.3700  1.9795
  297MOL0     H39160   3.134  11.949   9.149 -1.5909  1.2787 -0.9931
  297MOL0     H39161   3.097  11.773   9.170 -1.1988 -0.2984  1.1942
  297MOL0     H39162   2.979  11.977   9.349 -1.0645 -0.9476  0.9679
  297MOL0     H39163   2.989  11.802   9.374  1.9279 -1.8699 -0.9396
  297MOL0     H39164   3.136  11.860   9.528  0.2503  1.8639  0.4101
  297MOL0     H39165   3.210  11.995   9.433  1.0045  0.2549  1.2899
  297MOL0     H39166   3.341  11.930   9.610 -0.0132 -0.8264  3.0613
  297MOL0     H39167   3.571  11.897   9.725  1.3537 -0.2409  0.0383
  297MOL0     H39168   3.915  11.636   9.885  0.5193 -2.2989  2.2685
  297MOL0     H39169   4.136  11.632   9.959  1.7984  3.1660 -2.0646
  297MOL0     H39170   4.298  11.409   9.954  0.1849  1.2770  0.4328
  297MOL0     H39171   4.345  11.565  10.022  1.1573  1.3318 -1.0198
  297MOL0     H39172   4.583  11.512   9.905  1.4070  0.6883  1.9134
  297MOL0     H39173   4.516  11.348   9.898  0.7077  0.3604 -1.0305
  297MOL0     H39174   4.493  11.355  10.142 -3.0371  1.0873 -0.0986
  297MOL0     H39175   4.538  11.529  10.149  1.5286 -0.7576  1.0427
  297MOL0     H39176   4.727  11.332  10.025 -3.0624 -2.4675  1.3151
  297MOL0     H39177   4.755  11.502  10.071  0.0277  0.6226  2.5792
  297MOL0     H39178   4.692  11.270  10.246 -0.6645  0.0813  3.6779
  297MOL0     H39179   4.727  11.431  10.304 -1.7684 -3.5137  2.0260
  297MOL0     H39180   4.956  11.411  10.210 -3.0391  1.0399 -0.4340
  297MOL0     H39181   4.920  11.263  10.136  1.0615  0.3957  0.2780
  297MOL0     H39182   4.865  11.178  10.386 -0.6534  0.5912 -1.6184
  297MOL0     H39183   5.030  11.204  10.347  0.1748  0.0701  3.4261
  297MOL0     H39184   4.882  11.443  10.479  0.7826 -0.2227  4.7045
  297MOL0     H39185   5.039  11.448  10.414  0.0826 -0.0966 -0.3161
  297MOL0     H39186   4.298  11.536   9.582  0.8734  1.3658  0.7080
  297MOL0     H39187   4.074  11.542   9.493 -0.0988 -0.6199  0.6799
  297MOL0     H39188   3.637  11.586   9.444 -2.0917 -1.6331  1.6244
  297MOL0     H39189   3.422  11.625   9.335  1.2578  0.9707 -2.0946
  297MOL0     H39190   2.002  11.124   8.401 -0.4058 -0.0371 -0.2344
  297MOL0     H39191   1.858  11.013   8.236  1.2729  1.4537  0.6726
  297MOL0     H39192   1.330  10.653   8.405 -1.2989  2.1398 -0.3876
  297MOL0     H39193   1.191  10.531   8.267  1.4278 -0.1354  2.9818
  297MOL0     H39194   1.010  10.589   7.922  3.3915 -0.5981 -1.2686
  297MOL0     H39195   1.020  10.614   8.106 -1.6463  0.3724 -1.0572
  297MOL0     H39196   0.998  10.382   8.139 -1.4047 -0.7899 -0.2517
  297MOL0     H39197   0.868  10.441   8.040  1.1429  2.2532 -2.3103
  297MOL0     H39198   0.927  10.241   7.951  3.2041 -4.4270  1.2654
  297MOL0     H39199   1.107  10.265   7.963 -2.4532 -3.1274  1.8389
  297MOL0     H39200   1.071  10.436   7.765  2.0190 -0.6121  1.4803
  297MOL0     H39201   1.042  10.262   7.741  1.9817  0.3829  1.0836
  297MOL0     H39202   0.655  10.463   7.719  0.5163  2.0380  1.8989
  297MOL0     H39203   1.424  10.601   7.922  0.3094 -0.2183 -0.3600
  297MOL0     H39204   1.593  10.725   8.054 -1.1434  0.7434 -1.6610
  298MOL0     O39205   7.330   6.579   0.169 -0.4906 -0.1948 -0.4131
  298MOL0     C39206   7.335   6.455   0.168  0.1211 -0.2800 -0.1069
  298MOL0     O39207   7.410   6.379   0.086  0.7360 -0.2614 -0.2158
  298MOL0     C39208   7.522   6.431   0.036  0.0073  0.8969  0.3375
  298MOL0     C39209   7.515   6.539  -0.050 -0.9277  0.1660  0.7964
  298MOL0     C39210   7.627   6.595  -0.116  0.2594  0.7812 -0.0072
  298MOL0     C39211   7.753   6.543  -0.079 -0.6907 -0.1556  0.9982
  298MOL0     O39212   7.873   6.603  -0.125  0.2166 -0.4392 -0.3392
  298MOL0     C39213   7.902   6.720  -0.037  0.6245  0.7105 -0.0959
  298MOL0     C39214   7.935   6.846  -0.112 -0.0812  1.0127 -0.1975
  298MOL0     C39215   7.808   6.897  -0.171  0.5586  0.0680  0.2756
  298MOL0     C39216   7.816   7.046  -0.174  0.1032  1.1796 -0.0577
  298MOL0     C39217   7.714   7.096  -0.286  0.2606  0.3612  0.0946
  298MOL0     C39218   7.567   7.083  -0.238  0.1106  0.4284 -0.0542
  298MOL0     C39219   7.484   7.120  -0.361 -0.2895  0.2534  0.5160
  298MOL0     C39220   7.442   7.276  -0.355  0.6013  0.4615  0.2799
  298MOL0     N39221   7.338   7.306  -0.457  0.0071  0.2157 -0.0896
  298MOL0     C39222   7.353   7.316  -0.594  0.5967 -0.0792 -0.0705
  298MOL0     C39223   7.224   7.310  -0.641  0.4614  0.4389  0.2766
  298MOL0     C39224   7.179   7.353  -0.780  0.5162  0.5860 -0.1337
  298MOL0     C39225   7.109   7.491  -0.776  0.2164  0.0849 -0.4832
  298MOL0     C39226   7.187   7.616  -0.760  0.1255 -0.5435 -0.5284
  298MOL0     C39227   7.276   7.648  -0.874 -0.4735 -0.2356  0.6244
  298MOL0     O39228   7.327   7.784  -0.858  0.5905 -0.0881 -0.1068
  298MOL0     C39229   7.458   7.793  -0.869 -0.3009  0.3617 -0.0250
  298MOL0     C39230   7.527   7.819  -0.755  0.3624  1.0654  0.0058
  298MOL0     C39231   7.668   7.806  -0.760  0.3672  0.4747  0.1548
  298MOL0     C39232   7.729   7.765  -0.879 -0.1155 -0.7148  0.3072
  298MOL0     C39233   7.874   7.764  -0.885 -0.1612  0.4332 -0.9410
  298MOL0     O39234   7.940   7.753  -0.765  0.3525  0.1325  0.4958
  298MOL0     C39235   8.073   7.764  -0.767 -1.1643  0.1679  0.7694
  298MOL0     C39236   8.143   7.697  -0.664  0.0134  0.8787 -0.4326
  298MOL0     C39237   8.280   7.703  -0.646 -0.3775  0.2345 -0.0874
  298MOL0     C39238   8.343   7.788  -0.729 -0.7963 -0.2692 -0.3115
  298MOL0     O39239   8.470   7.803  -0.710 -0.3686  0.7118  0.7789
  298MOL0     C39240   8.518   7.891  -0.617 -0.0827 -0.3465  1.0537
  298MOL0     C39241   8.584   8.012  -0.690 -0.0171 -0.9617  0.2254
  298MOL0     C39242   8.654   8.112  -0.598 -1.2931  0.6185 -0.9114
  298MOL0     C39243   8.767   8.055  -0.518 -0.6317 -0.3343  0.2043
  298MOL0     C39244   8.830   8.165  -0.425 -0.7761 -0.1316 -0.0138
  298MOL0     C39245   8.960   8.106  -0.358 -0.0986  0.5378 -0.0226
  298MOL0     C39246   9.009   8.182  -0.223  0.6843 -0.2529  1.2842
  298MOL0     C39247   9.138   8.270  -0.241  1.0836 -0.2078  0.2291
  298MOL0    Cl39248   9.138   8.387  -0.374  0.2937 -0.5773  0.8566
  298MOL0     C39249   8.285   7.863  -0.828  0.2904  0.1166 -0.1451
  298MOL0     C39250   8.146   7.856  -0.837  0.1719 -0.0111  0.0426
  298MOL0     O39251   7.921   7.751  -1.001 -0.3453  0.2964  0.3283
  298MOL0     C39252   7.655   7.749  -0.994  0.3947 -0.7969 -0.8903
  298MOL0     C39253   7.526   7.762  -0.984 -0.3477  1.3410  0.6912
  298MOL0     N39254   7.138   7.288  -0.547 -0.8006 -0.2377 -0.9578
  298MOL0     N39255   7.208   7.277  -0.442  0.4061  0.2488 -1.2514
  298MOL0     C39256   7.761   6.436   0.012 -0.3495 -0.5766  1.0051
  298MOL0     C39257   7.644   6.380   0.067  0.3824  0.2414 -0.1314
  298MOL0     C39258   7.236   6.385   0.256  0.4560  0.0731  1.1725
  298MOL0     C39259   7.263   6.256   0.288 -1.3353  0.6414 -0.0687
  298MOL0     C39260   7.171   6.172   0.352  0.1290 -0.4023  0.4453
  298MOL0     C39261   7.062   6.231   0.406 -0.2314  0.5973 -0.1207
  298MOL0     O39262   6.981   6.151   0.493 -0.0864 -0.1616 -0.3774
  298MOL0     C39263   6.896   6.220   0.583  0.5748 -0.1586  0.4083
  298MOL0     C39264   6.833   6.122   0.691  0.2350  0.2020  0.5632
  298MOL0     C39265   6.806   6.180   0.831 -0.2265 -0.8118 -0.1412
  298MOL0     C39266   6.712   6.310   0.849 -0.6382 -0.6644  0.1349
  298MOL0     C39267   6.759   6.445   0.800  0.6520  0.8048 -0.6026
  298MOL0     C39268   6.786   6.558   0.785  0.3994 -0.3152 -0.1289
  298MOL0     C39269   7.037   6.370   0.377  0.3566  0.3361 -0.8209
  298MOL0     C39270   7.120   6.442   0.296 -0.2298 -0.0330  1.0377
  298MOL0     H39271   7.415   6.578  -0.068  0.1632  2.4608 -0.7222
  298MOL0     H39272   7.608   6.683  -0.176  0.2689  1.0954  0.4520
  298MOL0     H39273   7.989   6.686   0.021  1.9769 -1.6983 -3.2483
  298MOL0     H39274   7.831   6.752   0.040  2.5074  4.0245  0.4205
  298MOL0     H39275   8.014   6.820  -0.182 -0.9311 -1.4890 -0.3477
  298MOL0     H39276   7.973   6.910  -0.032 -0.3022  1.0552 -0.1268
  298MOL0     H39277   7.720   6.871  -0.111  0.7855  1.0162  1.0440
  298MOL0     H39278   7.794   6.849  -0.268 -1.2289  0.8308  0.1070
  298MOL0     H39279   7.799   7.079  -0.071  1.8916  0.3867  0.5296
  298MOL0     H39280   7.922   7.059  -0.199  0.3589  1.9440  1.3214
  298MOL0     H39281   7.726   7.025  -0.368 -1.6592  0.5788 -0.4148
  298MOL0     H39282   7.735   7.200  -0.312 -1.0331  0.4109 -0.8649
  298MOL0     H39283   7.558   7.141  -0.145 -0.5821 -0.0421  0.1784
  298MOL0     H39284   7.555   6.984  -0.194  1.3427  0.6747  0.9200
  298MOL0     H39285   7.545   7.099  -0.448  3.1551  0.5885  2.6643
  298MOL0     H39286   7.396   7.056  -0.358 -0.0606 -0.1766 -1.2764
  298MOL0     H39287   7.535   7.334  -0.367  0.9759 -0.3175 -0.8067
  298MOL0     H39288   7.405   7.298  -0.255 -0.6322  3.8318 -0.7851
  298MOL0     H39289   7.433   7.358  -0.655 -1.1656  0.3781 -2.2129
  298MOL0     H39290   7.108   7.280  -0.819  0.5246  1.1051 -1.1509
  298MOL0     H39291   7.259   7.351  -0.855  0.2695 -0.5651 -0.3827
  298MOL0     H39292   7.035   7.482  -0.696  0.3316  0.4474 -0.3321
  298MOL0     H39293   7.039   7.508  -0.858  0.6059 -0.5311 -0.9536
  298MOL0     H39294   7.111   7.694  -0.752  2.5015  1.8929 -0.2423
  298MOL0     H39295   7.240   7.625  -0.664 -1.3377  2.6969  0.1251
  298MOL0     H39296   7.221   7.637  -0.968 -1.5713 -2.5224  1.4448
  298MOL0     H39297   7.360   7.578  -0.883  0.6596  1.0629  0.7335
  298MOL0     H39298   7.482   7.837  -0.658  2.4759  0.0733  1.2658
  298MOL0     H39299   7.724   7.815  -0.668 -0.9412  4.7816  0.7593
  298MOL0     H39300   8.085   7.625  -0.606 -0.3974  1.1775 -0.4739
  298MOL0     H39301   8.335   7.645  -0.572  5.1927  2.8059 -1.6946
  298MOL0     H39302   8.597   7.851  -0.555  3.6294  3.0538 -1.0024
  298MOL0     H39303   8.448   7.928  -0.541  2.7253  2.9278  2.3215
  298MOL0     H39304   8.514   8.058  -0.760  0.4569  2.5320  1.8471
  298MOL0     H39305   8.668   7.971  -0.747  1.3762  0.1350  1.4148
  298MOL0     H39306   8.584   8.144  -0.521  0.4890  3.1959 -0.2072
  298MOL0     H39307   8.683   8.195  -0.664 -1.0848  0.8390 -0.5515
  298MOL0     H39308   8.736   7.972  -0.454 -1.3532 -2.4544 -2.6891
  298MOL0     H39309   8.837   8.017  -0.593  1.0244  1.0995  0.9547
  298MOL0     H39310   8.752   8.193  -0.355  2.0538 -0.5087  3.5864
  298MOL0     H39311   8.849   8.251  -0.490  1.7812 -2.1773 -2.2324
  298MOL0     H39312   9.031   8.098  -0.441 -1.3273  1.3597 -1.1985
  298MOL0     H39313   8.943   8.003  -0.325  1.6934 -0.7496 -2.7231
  298MOL0     H39314   8.925   8.248  -0.194 -0.4549 -1.0855 -0.0101
  298MOL0     H39315   9.024   8.111  -0.141  0.7180  0.6430  2.0778
  298MOL0     H39316   9.219   8.198  -0.256  0.6194 -0.0324 -5.1040
  298MOL0     H39317   9.150   8.329  -0.150 -0.7906  2.0001 -0.8714
  298MOL0     H39318   8.344   7.921  -0.898 -2.7200  1.1491 -2.0409
  298MOL0     H39319   8.088   7.907  -0.913 -0.1176 -3.2651 -2.0770
  298MOL0     H39320   7.694   7.727  -1.092 -0.9098 -2.4572 -1.0770
  298MOL0     H39321   7.461   7.746  -1.070 -1.0627  3.5234  0.7493
  298MOL0     H39322   7.859   6.399   0.042 -1.0080 -1.0103  2.7536
  298MOL0     H39323   7.654   6.298   0.137  1.8007  0.3572 -0.1772
  298MOL0     H39324   7.356   6.209   0.260 -1.4197  0.4167  0.0321
  298MOL0     H39325   7.194   6.067   0.372 -0.0351 -0.1102  2.4322
  298MOL0     H39326   6.819   6.279   0.533 -1.2079 -1.5412  1.3751
  298MOL0     H39327   6.961   6.299   0.621  0.8501  0.1071 -0.5763
  298MOL0     H39328   6.734   6.096   0.652 -0.3527  3.5479 -0.5066
  298MOL0     H39329   6.886   6.026   0.699 -1.2402 -0.4940  2.9661
  298MOL0     H39330   6.901   6.209   0.875 -1.7060  3.2395  0.8133
  298MOL0     H39331   6.748   6.113   0.895 -3.2181  2.4832  0.9571
  298MOL0     H39332   6.626   6.283   0.787 -0.0300  0.2416 -1.1467
  298MOL0     H39333   6.676   6.318   0.952 -0.3126 -0.6501  0.2486
  298MOL0     H39334   6.791   6.664   0.768 -1.9390  0.7085  4.2708
  298MOL0     H39335   6.948   6.414   0.421 -0.2311 -3.8239  2.8631
  298MOL0     H39336   7.095   6.542   0.264  0.4447  0.3370  1.6458
  299MOL0     O39337   3.421   4.219   7.327 -0.3771  0.3448 -0.0007
  299MOL0     C39338   3.325   4.197   7.252 -0.4292 -0.1586  0.0973
  299MOL0     O39339   3.342   4.155   7.117  0.6270 -0.4711  0.2291
  299MOL0     C39340   3.456   4.093   7.072  0.0990  0.1751 -0.2926
  299MOL0     C39341   3.493   4.124   6.944  0.5813 -0.6158 -0.3518
  299MOL0     C39342   3.617   4.075   6.895  1.1561 -0.1944  0.4755
  299MOL0     C39343   3.692   3.995   6.971  0.1811 -0.6613 -0.0543
  299MOL0     O39344   3.811   3.928   6.933  0.2085 -0.0485  0.3164
  299MOL0     C39345   3.838   3.930   6.796 -0.2769 -0.7271  0.3966
  299MOL0     C39346   3.944   3.830   6.756  0.7125 -0.0515 -0.0517
  299MOL0     C39347   4.062   3.806   6.858  0.5433 -0.6791  0.9571
  299MOL0     C39348   4.146   3.934   6.884  0.1828  0.4873  0.7329
  299MOL0     C39349   4.283   3.894   6.936  0.4887 -0.3043  0.3407
  299MOL0     C39350   4.391   3.850   6.840  0.5189  0.0527 -0.0297
  299MOL0     C39351   4.531   3.830   6.913 -0.1756 -0.4390 -0.0607
  299MOL0     C39352   4.539   3.700   6.996  0.3443 -0.2574 -1.1947
  299MOL0     N39353   4.664   3.687   7.073  0.1444  0.1830  0.0383
  299MOL0     C39354   4.675   3.696   7.211 -0.0700  0.7148  0.3381
  299MOL0     C39355   4.797   3.629   7.237  0.5794  0.4601 -0.5856
  299MOL0     C39356   4.853   3.597   7.369 -0.4953  0.0008 -0.1811
  299MOL0     C39357   4.748   3.533   7.462 -0.4131  0.5891  0.0920
  299MOL0     C39358   4.794   3.511   7.608 -0.7891  0.2427  0.9602
  299MOL0     C39359   4.711   3.422   7.688  0.2984 -0.9438 -0.2484
  299MOL0     O39360   4.573   3.450   7.675 -0.1329 -0.3159  0.2649
  299MOL0     C39361   4.488   3.365   7.740  1.1303  0.3590 -0.4884
  299MOL0     C39362   4.365   3.329   7.673 -0.9826 -0.3447 -0.6114
  299MOL0     C39363   4.285   3.230   7.720  0.1775 -0.0442  1.1652
  299MOL0     C39364   4.299   3.170   7.847  0.5611  0.1027 -0.0704
  299MOL0     C39365   4.209   3.077   7.911 -0.5049  0.8582  0.6318
  299MOL0     O39366   4.096   3.048   7.840 -0.1267  0.0960 -0.2839
  299MOL0     C39367   4.005   2.958   7.892 -0.4972 -0.1619 -0.5335
  299MOL0     C39368   3.936   2.885   7.795  0.0211  0.7622  0.2469
  299MOL0     C39369   3.833   2.804   7.833  0.5352 -0.0910  0.2565
  299MOL0     C39370   3.801   2.774   7.962 -0.5038  0.7169 -0.5913
  299MOL0     O39371   3.713   2.672   7.981 -0.3566  0.1005 -0.1833
  299MOL0     C39372   3.602   2.685   8.073 -0.8413 -0.3833 -0.4993
  299MOL0     C39373   3.546   2.551   8.089  0.1489  0.6380 -0.8859
  299MOL0     C39374   3.455   2.494   7.981 -0.3661 -0.6140 -0.0536
  299MOL0     C39375   3.332   2.587   7.949 -0.5107  0.2297  0.5635
  299MOL0     C39376   3.225   2.532   7.844  0.2833 -0.2173 -0.9884
  299MOL0     C39377   3.096   2.619   7.831  0.5021 -0.7285  0.2605
  299MOL0     C39378   3.095   2.702   7.705 -0.1263  0.1648  0.1481
  299MOL0     C39379   2.985   2.808   7.690 -0.2389 -0.8430  0.2054
  299MOL0    Cl39380   3.023   2.914   7.539  0.5933  0.1321 -0.0618
  299MOL0     C39381   3.871   2.845   8.063 -0.9547  0.1326  0.6997
  299MOL0     C39382   3.970   2.940   8.031 -0.2458 -0.2372  0.7173
  299MOL0     O39383   4.236   3.021   8.018  0.1378 -0.3714 -0.2393
  299MOL0     C39384   4.416   3.206   7.921 -0.1612  0.1822  0.1274
  299MOL0     C39385   4.511   3.296   7.861  0.1244 -0.4902 -0.8434
  299MOL0     N39386   4.848   3.584   7.113  0.0682  0.2891 -0.3441
  299MOL0     N39387   4.766   3.625   7.020 -0.0370  0.3145 -0.0249
  299MOL0     C39388   3.662   3.969   7.106  0.8134  0.3375  0.6312
  299MOL0     C39389   3.533   4.014   7.155 -0.0624  1.7109 -0.2774
  299MOL0     C39390   3.198   4.244   7.305 -0.4261 -0.4558  0.0159
  299MOL0     C39391   3.081   4.270   7.213  0.4096  0.4114  0.8748
  299MOL0     C39392   2.965   4.308   7.278  0.8043  0.2374 -0.6736
  299MOL0     C39393   2.951   4.319   7.413 -1.0676 -0.3896 -0.1240
  299MOL0     O39394   2.826   4.337   7.473  0.7615  0.6647 -0.1946
  299MOL0     C39395   2.794   4.357   7.610 -0.3943  0.6839  0.4611
  299MOL0     C39396   2.664   4.274   7.653 -0.0319 -1.1175 -0.3779
  299MOL0     C39397   2.539   4.359   7.601  0.0771  1.1345 -0.7985
  299MOL0     C39398   2.396   4.303   7.652 -0.2311 -0.3854 -0.5841
  299MOL0     C39399   2.367   4.376   7.779  0.5088 -0.1918 -0.3238
  299MOL0     C39400   2.345   4.431   7.886  0.7875  0.1115  0.5731
  299MOL0     C39401   3.064   4.299   7.489 -0.2038 -1.0346 -1.3726
  299MOL0     C39402   3.179   4.266   7.439 -0.2147  0.2170  0.4537
  299MOL0     H39403   3.434   4.195   6.887 -2.4549 -0.0221  3.1535
  299MOL0     H39404   3.625   4.094   6.788 -1.6616  0.2968  0.2772
  299MOL0     H39405   3.875   4.029   6.767 -1.3007  0.6826  3.4829
  299MOL0     H39406   3.755   3.913   6.727  0.3173  2.6352 -1.4130
  299MOL0     H39407   3.980   3.861   6.657  0.8030 -0.6419 -0.2054
  299MOL0     H39408   3.890   3.735   6.752 -2.4586  1.6182 -0.6760
  299MOL0     H39409   4.118   3.719   6.822 -3.4691 -3.3934  0.5377
  299MOL0     H39410   4.026   3.779   6.958  0.7061 -0.8563  0.9670
  299MOL0     H39411   4.137   3.984   6.787 -1.0614 -0.7232  0.1837
  299MOL0     H39412   4.102   4.004   6.955 -1.5070  1.5385 -1.2565
  299MOL0     H39413   4.266   3.813   7.007 -1.7459 -1.2686 -1.1814
  299MOL0     H39414   4.328   3.981   6.985 -1.2650  1.2654 -0.6806
  299MOL0     H39415   4.413   3.918   6.758  5.0513 -2.1484 -0.9461
  299MOL0     H39416   4.365   3.750   6.802 -0.6828  0.8542 -1.3996
  299MOL0     H39417   4.603   3.824   6.831 -0.4295 -3.1163 -0.1622
  299MOL0     H39418   4.550   3.914   6.980  4.2943 -1.2990  0.0107
  299MOL0     H39419   4.534   3.614   6.929  3.3492  0.0064 -1.8751
  299MOL0     H39420   4.461   3.699   7.073 -0.5711 -0.3184 -2.1017
  299MOL0     H39421   4.595   3.724   7.279 -1.8044 -4.1433  0.6361
  299MOL0     H39422   4.881   3.694   7.413 -2.2261 -0.3265  1.8174
  299MOL0     H39423   4.948   3.542   7.371 -1.2750 -1.4379 -1.0100
  299MOL0     H39424   4.715   3.438   7.420 -1.8445  1.3333 -0.5504
  299MOL0     H39425   4.654   3.590   7.463 -1.5521 -1.2112  0.5613
  299MOL0     H39426   4.895   3.469   7.607 -0.3752  1.1712 -0.5424
  299MOL0     H39427   4.804   3.611   7.652 -0.2865  0.7509 -0.2442
  299MOL0     H39428   4.751   3.421   7.790 -0.4741 -2.0482  0.0529
  299MOL0     H39429   4.737   3.325   7.645  0.1846 -1.2672  0.4088
  299MOL0     H39430   4.345   3.380   7.580  0.7855  2.8810  0.6327
  299MOL0     H39431   4.200   3.218   7.654  1.6255 -2.2312 -0.4533
  299MOL0     H39432   3.956   2.890   7.689  2.8360  1.0208  0.7240
  299MOL0     H39433   3.773   2.759   7.754 -1.2598  2.3192  0.1400
  299MOL0     H39434   3.521   2.754   8.048 -0.3316  0.0629 -0.9356
  299MOL0     H39435   3.642   2.727   8.165  0.5475  0.0124 -1.2583
  299MOL0     H39436   3.492   2.551   8.184  1.4259 -0.8678 -0.0970
  299MOL0     H39437   3.623   2.474   8.107 -2.2561 -1.7849 -0.2849
  299MOL0     H39438   3.419   2.397   8.019  3.6071 -2.0984  0.3822
  299MOL0     H39439   3.515   2.492   7.890 -0.2947 -0.0113 -0.0208
  299MOL0     H39440   3.286   2.603   8.047 -3.5763 -1.9335 -0.3585
  299MOL0     H39441   3.368   2.679   7.902 -2.4409  0.5137 -0.4522
  299MOL0     H39442   3.199   2.432   7.880  1.1058 -0.7508 -1.8075
  299MOL0     H39443   3.273   2.523   7.746  0.2472 -2.8514 -0.8261
  299MOL0     H39444   3.075   2.665   7.928  2.5098  0.2021  0.3094
  299MOL0     H39445   3.010   2.552   7.825 -0.7652  0.8290  0.4819
  299MOL0     H39446   3.188   2.754   7.681 -0.2088 -0.3819 -1.5279
  299MOL0     H39447   3.077   2.625   7.629 -0.1155  0.0585  0.2530
  299MOL0     H39448   2.973   2.867   7.781  2.2528 -2.4797  1.7052
  299MOL0     H39449   2.888   2.761   7.672 -0.2330 -1.1868  1.0234
  299MOL0     H39450   3.851   2.828   8.168 -2.2910 -2.6100  0.0943
  299MOL0     H39451   4.016   2.983   8.120  0.6136 -1.7858  1.0470
  299MOL0     H39452   4.439   3.177   8.023  2.7988  3.1018  0.4374
  299MOL0     H39453   4.601   3.322   7.916  2.2871 -2.8328 -3.0578
  299MOL0     H39454   3.719   3.903   7.171 -2.3128 -1.1311  2.1071
  299MOL0     H39455   3.496   3.984   7.253 -0.4414  1.2154 -0.5656
  299MOL0     H39456   3.078   4.264   7.104 -0.5993  1.5414  0.8249
  299MOL0     H39457   2.874   4.332   7.223  2.3689  3.2948 -2.1962
  299MOL0     H39458   2.774   4.463   7.630  2.5830  1.8986 -2.0059
  299MOL0     H39459   2.876   4.321   7.672  1.4708 -1.4826 -2.9329
  299MOL0     H39460   2.656   4.171   7.615  0.5781 -1.8597  1.4167
  299MOL0     H39461   2.672   4.276   7.762  1.0525  1.1028 -0.4483
  299MOL0     H39462   2.540   4.355   7.492 -0.9848 -1.8077 -0.7856
  299MOL0     H39463   2.556   4.462   7.635  0.6354  0.0051  2.7845
  299MOL0     H39464   2.318   4.329   7.580  1.7105  1.7175 -2.1035
  299MOL0     H39465   2.400   4.196   7.674  2.3467  0.2043  2.6089
  299MOL0     H39466   2.334   4.485   7.977  0.7040  0.7229  0.2055
  299MOL0     H39467   3.055   4.314   7.596 -3.1742 -2.0639 -1.3934
  299MOL0     H39468   3.256   4.235   7.508 -1.0970 -3.2911  0.0632
  300MOL0     O39469   1.450   7.840   0.737 -0.0485  0.6558 -0.1383
  300MOL0     C39470   1.370   7.823   0.642 -0.1697 -0.8274  0.5785
  300MOL0     O39471   1.377   7.734   0.534 -0.1836 -0.9528 -0.0969
  300MOL0     C39472   1.502   7.674   0.508  0.2105 -0.3092 -1.0338
  300MOL0     C39473   1.528   7.544   0.525  0.4042 -0.3244  0.3819
  300MOL0     C39474   1.644   7.488   0.493  1.0217  0.0072  0.9196
  300MOL0     C39475   1.740   7.551   0.418  0.1369  0.1311 -0.4186
  300MOL0     O39476   1.830   7.474   0.348  0.1611 -0.4141  0.3446
  300MOL0     C39477   1.798   7.461   0.198 -0.5339 -0.2825  0.4034
  300MOL0     C39478   1.664   7.382   0.166 -0.0540  0.1372  0.8349
  300MOL0     C39479   1.678   7.236   0.194 -0.5664 -0.5183  0.1923
  300MOL0     C39480   1.561   7.154   0.150  0.8604  0.1332  0.0238
  300MOL0     C39481   1.434   7.189   0.237 -0.2452  0.1365 -0.3994
  300MOL0     C39482   1.442   7.149   0.388  0.4277 -0.0376 -1.1157
  300MOL0     C39483   1.326   7.203   0.481 -0.8511  0.0711 -0.5212
  300MOL0     C39484   1.186   7.174   0.435 -0.1666  0.4307  0.7424
  300MOL0     N39485   1.158   7.020   0.431 -0.6724 -0.2797 -0.7000
  300MOL0     C39486   1.162   6.940   0.322 -0.5912 -0.0717  0.7490
  300MOL0     C39487   1.161   6.819   0.371 -0.5043  0.2445 -0.5124
  300MOL0     C39488   1.194   6.688   0.286  0.1903  1.3170  0.0376
  300MOL0     C39489   1.301   6.592   0.353 -0.2109 -0.2130 -0.2776
  300MOL0     C39490   1.357   6.474   0.269 -0.3323  0.2931  0.3064
  300MOL0     C39491   1.469   6.531   0.176 -0.6894 -1.2963  0.4095
  300MOL0     O39492   1.586   6.563   0.253  0.2883 -0.1608  0.0308
  300MOL0     C39493   1.678   6.465   0.280  0.1088  0.2572  0.4703
  300MOL0     C39494   1.692   6.345   0.209 -0.2125 -0.2834 -0.0784
  300MOL0     C39495   1.810   6.266   0.225  0.2542  0.2614  0.1941
  300MOL0     C39496   1.912   6.295   0.324  1.2268  0.6837 -0.2402
  300MOL0     C39497   2.034   6.206   0.331  1.2219 -0.1645 -0.1453
  300MOL0     O39498   2.096   6.193   0.458 -0.0675  0.4317  0.5657
  300MOL0     C39499   2.229   6.146   0.471  0.0733 -0.3620 -0.5569
  300MOL0     C39500   2.324   6.138   0.374 -0.9144  0.3506  0.6586
  300MOL0     C39501   2.454   6.087   0.399 -0.0705 -0.8143  1.2495
  300MOL0     C39502   2.483   6.035   0.525  0.6279  0.1377  0.6381
  300MOL0     O39503   2.598   5.977   0.562 -0.4260  0.4035 -0.9012
  300MOL0     C39504   2.710   5.970   0.471  0.0404  0.5481  1.0628
  300MOL0     C39505   2.833   5.898   0.517 -0.2524 -1.1579 -0.0697
  300MOL0     C39506   2.947   5.914   0.408  0.5730  0.1242 -0.3016
  300MOL0     C39507   3.066   5.820   0.452 -0.0591 -0.6034 -1.3460
  300MOL0     C39508   3.169   5.800   0.338  0.3879 -0.2195  0.8964
  300MOL0     C39509   3.302   5.742   0.384  0.2559 -0.0878  0.3649
  300MOL0     C39510   3.399   5.736   0.274  0.0804 -0.0421  0.4445
  300MOL0     C39511   3.507   5.638   0.323  0.5777 -1.6032 -0.5905
  300MOL0    Cl39512   3.596   5.613   0.170 -0.2888 -0.7303 -0.3853
  300MOL0     C39513   2.376   6.035   0.618  0.5317  0.3602  0.7190
  300MOL0     C39514   2.259   6.101   0.597  0.2804  0.3790  0.1436
  300MOL0     O39515   2.053   6.133   0.236 -1.4783  0.1248  0.0179
  300MOL0     C39516   1.885   6.409   0.403  0.7058 -0.1143  0.1847
  300MOL0     C39517   1.781   6.493   0.383 -1.0903 -1.1732  0.2730
  300MOL0     N39518   1.154   6.817   0.515 -0.7147 -1.2218 -0.1718
  300MOL0     N39519   1.143   6.951   0.547 -0.1608 -0.2222 -1.2195
  300MOL0     C39520   1.725   7.690   0.400 -0.6753 -0.3390  0.7029
  300MOL0     C39521   1.605   7.754   0.449 -0.4367  0.0842  0.5316
  300MOL0     C39522   1.276   7.941   0.611 -0.2799 -0.2697 -0.2845
  300MOL0     C39523   1.304   8.070   0.662 -0.0301 -0.1240 -0.2036
  300MOL0     C39524   1.234   8.181   0.622 -0.3269  1.3326 -0.2186
  300MOL0     C39525   1.129   8.178   0.527 -1.0594  0.2132 -0.8877
  300MOL0     O39526   1.054   8.283   0.480 -0.0974 -0.1258 -0.9082
  300MOL0     C39527   1.098   8.412   0.516 -0.4748  0.0872  0.3601
  300MOL0     C39528   1.012   8.528   0.452 -0.8927 -0.2434  0.6441
  300MOL0     C39529   1.021   8.657   0.539  0.4829 -0.2646  0.5108
  300MOL0     C39530   0.947   8.781   0.470  0.4686 -0.9822 -0.3412
  300MOL0     C39531   0.799   8.764   0.471  0.1148 -1.2392 -0.0897
  300MOL0     C39532   0.675   8.750   0.483  0.0254 -0.4532 -0.1873
  300MOL0     C39533   1.100   8.055   0.474 -0.2585 -0.2129 -0.0449
  300MOL0     C39534   1.173   7.939   0.509  0.3612 -0.4174 -0.2787
  300MOL0     H39535   1.446   7.499   0.580  0.3823  0.5163  1.0669
  300MOL0     H39536   1.643   7.380   0.501 -2.9406 -0.0380  1.9400
  300MOL0     H39537   1.883   7.418   0.145 -2.0640 -1.0917 -1.5101
  300MOL0     H39538   1.790   7.557   0.147  1.1478 -1.9275 -3.2949
  300MOL0     H39539   1.639   7.408   0.063 -0.5182 -2.5247  0.1911
  300MOL0     H39540   1.592   7.418   0.240 -0.3768 -2.9001  2.1541
  300MOL0     H39541   1.706   7.207   0.296 -0.2085 -1.2391 -0.1093
  300MOL0     H39542   1.762   7.200   0.135 -1.5763 -1.2052 -0.8746
  300MOL0     H39543   1.543   7.173   0.044  2.0747 -4.4878 -1.2268
  300MOL0     H39544   1.584   7.047   0.160  0.8293  0.1604  0.4171
  300MOL0     H39545   1.350   7.135   0.192 -1.3604  2.4975 -1.3038
  300MOL0     H39546   1.408   7.295   0.228 -0.1648  0.1835 -0.0995
  300MOL0     H39547   1.539   7.190   0.416  0.2369 -0.9098  1.0113
  300MOL0     H39548   1.446   7.041   0.405 -1.2179  0.1200  0.6454
  300MOL0     H39549   1.344   7.158   0.580  0.6196  2.0555  0.1927
  300MOL0     H39550   1.335   7.312   0.485  2.5830 -0.0959 -0.5733
  300MOL0     H39551   1.175   7.216   0.335  4.3147  2.8390  1.0147
  300MOL0     H39552   1.114   7.226   0.497 -0.4276  2.4159 -1.1242
  300MOL0     H39553   1.172   6.974   0.220 -0.3555  0.6062  0.9953
  300MOL0     H39554   1.226   6.710   0.184 -1.4512 -1.2675 -1.1215
  300MOL0     H39555   1.108   6.625   0.266  3.4689 -3.1367 -1.6653
  300MOL0     H39556   1.256   6.545   0.440  1.9253  0.6207  1.3922
  300MOL0     H39557   1.369   6.663   0.403 -1.5030  1.0484 -0.2609
  300MOL0     H39558   1.400   6.391   0.326 -2.6767  0.1373  2.0101
  300MOL0     H39559   1.279   6.425   0.210  1.5775 -0.5037 -1.6821
  300MOL0     H39560   1.431   6.624   0.133 -0.5641  1.3397  5.2907
  300MOL0     H39561   1.486   6.470   0.087 -0.0332  2.0854 -1.9606
  300MOL0     H39562   1.607   6.320   0.147 -0.9233  0.4003  0.5985
  300MOL0     H39563   1.820   6.180   0.159 -0.2149  1.3545 -1.3708
  300MOL0     H39564   2.299   6.177   0.275  2.2318  1.0842  0.0362
  300MOL0     H39565   2.533   6.096   0.325  1.2978 -1.7424  2.5380
  300MOL0     H39566   2.735   6.072   0.441  1.2583  0.0502  0.2922
  300MOL0     H39567   2.681   5.922   0.377  2.2831  1.0789  0.0180
  300MOL0     H39568   2.810   5.792   0.535 -2.2633 -0.5589  1.1020
  300MOL0     H39569   2.861   5.943   0.613  0.5653 -3.5512  0.8978
  300MOL0     H39570   2.971   6.020   0.408  0.6145  0.1150 -0.2985
  300MOL0     H39571   2.904   5.891   0.310  1.5390  1.2459 -1.0115
  300MOL0     H39572   3.119   5.870   0.533 -0.3592 -1.1905 -0.7809
  300MOL0     H39573   3.028   5.721   0.478 -5.3481  0.5431 -3.4291
  300MOL0     H39574   3.176   5.890   0.276  0.6085 -0.4715  0.5579
  300MOL0     H39575   3.125   5.734   0.263  0.3403  3.8420 -3.0415
  300MOL0     H39576   3.285   5.643   0.427 -2.5291 -0.3312 -1.0909
  300MOL0     H39577   3.340   5.809   0.462  1.7952 -1.4401  0.8423
  300MOL0     H39578   3.352   5.693   0.185 -1.0891 -1.7326  1.8091
  300MOL0     H39579   3.436   5.838   0.263 -0.4191  0.0869 -0.1165
  300MOL0     H39580   3.465   5.549   0.371 -1.9870  0.0313  0.3944
  300MOL0     H39581   3.576   5.680   0.396  0.9961 -0.4264 -1.6188
  300MOL0     H39582   2.384   5.996   0.719 -1.0302  1.9130  1.5008
  300MOL0     H39583   2.178   6.109   0.668 -1.1103  1.8526 -1.4857
  300MOL0     H39584   1.953   6.443   0.480  1.2372  0.6058 -0.5743
  300MOL0     H39585   1.776   6.592   0.428  2.2675 -0.2091 -1.1562
  300MOL0     H39586   1.807   7.747   0.357  0.5287 -1.2680  1.6990
  300MOL0     H39587   1.597   7.862   0.440  0.9001  0.2017  0.5856
  300MOL0     H39588   1.387   8.077   0.731  0.4274  2.0439 -0.8706
  300MOL0     H39589   1.266   8.278   0.658  1.2746  0.3026  1.2670
  300MOL0     H39590   1.199   8.425   0.475 -2.3536  2.5716 -4.0433
  300MOL0     H39591   1.097   8.426   0.625  0.6045 -1.8279  0.6629
  300MOL0     H39592   1.048   8.548   0.351 -1.2195 -0.9533  0.3799
  300MOL0     H39593   0.910   8.490   0.437 -0.2739 -2.3727  1.4302
  300MOL0     H39594   1.124   8.692   0.548  0.3062 -0.2197  3.3163
  300MOL0     H39595   0.984   8.642   0.641  2.9618  0.3077  1.5728
  300MOL0     H39596   0.971   8.872   0.525 -3.3593  0.9628 -1.5057
  300MOL0     H39597   0.987   8.789   0.368  1.9477 -1.5570  0.1742
  300MOL0     H39598   0.576   8.725   0.516  0.9993 -0.5286  2.9822
  300MOL0     H39599   1.015   8.047   0.408 -1.6284 -0.6957  1.7100
  300MOL0     H39600   1.158   7.842   0.464  1.2594 -2.4448  3.4255
  301MOL0     O39601   2.054   7.433   5.286 -0.3642  0.2604  0.9216
  301MOL0     C39602   2.103   7.481   5.386  0.0266  0.5193  0.1163
  301MOL0     O39603   2.230   7.524   5.400 -0.7009  0.2183  0.3144
  301MOL0     C39604   2.326   7.509   5.296 -0.4977  1.0441 -0.3565
  301MOL0     C39605   2.329   7.391   5.218 -0.5838  0.1077 -0.2569
  301MOL0     C39606   2.430   7.387   5.119 -0.9503  0.2719  0.9268
  301MOL0     C39607   2.533   7.486   5.109  0.0586 -0.4922  0.4864
  301MOL0     O39608   2.625   7.474   5.004 -0.0757 -0.4090  0.3824
  301MOL0     C39609   2.629   7.592   4.911  0.3046  0.1278 -0.3995
  301MOL0     C39610   2.768   7.651   4.904  0.5821  0.0418 -0.0057
  301MOL0     C39611   2.759   7.796   4.882  0.4951  0.0943  0.3250
  301MOL0     C39612   2.894   7.866   4.904 -0.1842 -0.0709  0.2344
  301MOL0     C39613   2.893   8.018   4.858  0.2275  0.6396  0.7881
  301MOL0     C39614   2.848   8.044   4.717  0.8286 -0.6299  0.4759
  301MOL0     C39615   2.862   8.193   4.676 -0.0681 -0.4225  0.1964
  301MOL0     C39616   2.834   8.220   4.525  0.0699 -0.7637  0.4734
  301MOL0     N39617   2.815   8.363   4.493 -0.6186  0.4868  0.5822
  301MOL0     C39618   2.921   8.454   4.482  0.4754 -0.2885 -0.0076
  301MOL0     C39619   2.871   8.571   4.431 -0.3082 -0.6856 -0.3469
  301MOL0     C39620   2.958   8.700   4.422 -1.1776  0.0034  0.4516
  301MOL0     C39621   3.111   8.661   4.398  0.0737 -1.0787 -1.0078
  301MOL0     C39622   3.135   8.584   4.272  0.1979  0.4432 -0.6544
  301MOL0     C39623   3.274   8.531   4.274  0.1411  0.4357  0.2742
  301MOL0     O39624   3.290   8.432   4.383  0.6442 -0.0429 -0.1357
  301MOL0     C39625   3.226   8.301   4.373  0.0806 -0.5041  0.3872
  301MOL0     C39626   3.240   8.209   4.484  0.0354 -0.1309  0.0227
  301MOL0     C39627   3.190   8.076   4.480  0.4478 -0.3500  0.7805
  301MOL0     C39628   3.117   8.034   4.368 -0.3857 -0.9310 -0.7358
  301MOL0     C39629   3.060   7.903   4.355  0.6233  0.4667  0.3469
  301MOL0     O39630   3.057   7.834   4.473 -0.3674  0.2965  0.7419
  301MOL0     C39631   3.056   7.698   4.481 -0.6589  0.7609  0.9755
  301MOL0     C39632   3.136   7.622   4.396 -0.0686 -0.5217  0.0811
  301MOL0     C39633   3.130   7.479   4.395 -0.2141 -0.1772  0.2647
  301MOL0     C39634   3.040   7.411   4.478  0.4244 -0.7386  0.6071
  301MOL0     O39635   3.021   7.274   4.472  0.7114  0.0109  0.2365
  301MOL0     C39636   3.054   7.214   4.348  0.1602 -0.2723 -0.2092
  301MOL0     C39637   3.185   7.152   4.351 -0.6153  0.5257 -0.1784
  301MOL0     C39638   3.200   7.017   4.431  0.6072  0.1144 -0.7705
  301MOL0     C39639   3.141   6.881   4.373  0.2967  0.2832  1.6609
  301MOL0     C39640   3.137   6.761   4.480  0.4046  1.0114  0.1101
  301MOL0     C39641   3.148   6.623   4.412  0.2704  0.6466  0.0218
  301MOL0     C39642   3.017   6.578   4.347  0.2950  0.1520  0.3896
  301MOL0     C39643   2.904   6.548   4.451  0.3490 -0.1241 -0.1453
  301MOL0    Cl39644   2.759   6.467   4.382 -0.5218  0.5872  0.3239
  301MOL0     C39645   2.969   7.498   4.566 -0.7736 -0.0546  0.0386
  301MOL0     C39646   2.969   7.631   4.560 -0.8463 -0.4597 -1.1232
  301MOL0     O39647   3.025   7.860   4.244 -0.3042  0.6290 -0.7158
  301MOL0     C39648   3.110   8.122   4.254  0.3369  0.1003  0.3301
  301MOL0     C39649   3.157   8.251   4.262 -0.6362  0.0363 -0.1193
  301MOL0     N39650   2.730   8.549   4.403  0.0901 -0.2354 -0.5073
  301MOL0     N39651   2.701   8.423   4.442  1.1777 -0.3604 -0.3060
  301MOL0     C39652   2.526   7.591   5.196  0.1738 -0.3633  0.5110
  301MOL0     C39653   2.429   7.597   5.293  0.3725 -0.8636  0.2007
  301MOL0     C39654   2.012   7.497   5.507 -0.5722  0.0106  0.2712
  301MOL0     C39655   2.021   7.602   5.600 -0.0314  0.2361 -0.1029
  301MOL0     C39656   1.918   7.615   5.698  0.8679  0.5724  0.4973
  301MOL0     C39657   1.823   7.514   5.716 -0.4505  0.7520 -0.2538
  301MOL0     O39658   1.721   7.543   5.803  0.1446  0.5609 -1.0305
  301MOL0     C39659   1.637   7.437   5.856  0.5935  0.5284  0.5386
  301MOL0     C39660   1.517   7.504   5.924  0.5312 -0.3351 -0.1327
  301MOL0     C39661   1.456   7.393   6.016  0.9400  0.1853  0.9724
  301MOL0     C39662   1.318   7.436   6.078  0.6318 -0.0239 -0.1890
  301MOL0     C39663   1.313   7.553   6.161 -0.3809  0.3310  0.9992
  301MOL0     C39664   1.309   7.640   6.237  0.2932 -0.3629  0.3172
  301MOL0     C39665   1.827   7.400   5.634 -0.2314 -0.3621 -0.2000
  301MOL0     C39666   1.917   7.403   5.533  0.3523  0.9448 -0.1120
  301MOL0     H39667   2.259   7.309   5.228  0.0015 -0.1111  3.5636
  301MOL0     H39668   2.417   7.306   5.049 -0.4122  1.4897 -0.6516
  301MOL0     H39669   2.549   7.661   4.942 -1.3027 -1.6157 -0.4377
  301MOL0     H39670   2.613   7.539   4.817  0.7731  0.0005 -0.4101
  301MOL0     H39671   2.824   7.594   4.829  3.0547  3.0536 -0.6662
  301MOL0     H39672   2.827   7.639   4.995 -0.7171 -4.0117  0.4993
  301MOL0     H39673   2.689   7.843   4.952 -0.2015  0.8311 -0.8289
  301MOL0     H39674   2.721   7.822   4.783 -0.9402 -0.1977  0.7773
  301MOL0     H39675   2.920   7.863   5.010 -3.0597  1.7822  1.1095
  301MOL0     H39676   2.969   7.821   4.838 -1.0645  1.5252 -1.9717
  301MOL0     H39677   2.999   8.045   4.858  0.1715  0.8576  0.5468
  301MOL0     H39678   2.832   8.069   4.932  1.1877 -0.0495  2.0897
  301MOL0     H39679   2.740   8.024   4.713  0.4228  1.0455  1.7176
  301MOL0     H39680   2.909   7.982   4.653  2.4146  0.2194  1.1123
  301MOL0     H39681   2.788   8.245   4.737 -1.0140 -3.0633  1.4850
  301MOL0     H39682   2.959   8.232   4.710 -0.0476  0.3211 -0.6941
  301MOL0     H39683   2.736   8.175   4.503 -0.9978  0.1396  2.9755
  301MOL0     H39684   2.914   8.183   4.460 -0.5846 -0.6073 -0.4419
  301MOL0     H39685   3.020   8.433   4.519  0.5477  3.2094  2.2355
  301MOL0     H39686   2.960   8.772   4.504 -1.4281  1.3604 -0.7035
  301MOL0     H39687   2.926   8.752   4.332  0.7035  1.3464  0.4987
  301MOL0     H39688   3.146   8.610   4.488 -0.6607  0.1294  0.0066
  301MOL0     H39689   3.174   8.750   4.392  0.0925 -1.1804 -2.5791
  301MOL0     H39690   3.068   8.497   4.272 -1.1043  1.4171 -0.1383
  301MOL0     H39691   3.120   8.649   4.186  0.1868 -0.0166 -1.0034
  301MOL0     H39692   3.348   8.612   4.284 -1.0856  2.0768 -2.8291
  301MOL0     H39693   3.291   8.499   4.171 -4.7759  0.9657 -0.9162
  301MOL0     H39694   3.297   8.247   4.568  0.1904 -2.2661  0.9295
  301MOL0     H39695   3.195   8.015   4.570 -1.4258 -0.9024  0.5448
  301MOL0     H39696   3.209   7.673   4.334  0.2243  0.5834  1.2866
  301MOL0     H39697   3.187   7.440   4.311 -3.7402 -1.0661 -1.9153
  301MOL0     H39698   3.037   7.287   4.268  1.1318 -0.7336 -0.8455
  301MOL0     H39699   2.975   7.139   4.336  1.7481 -2.4774  2.1416
  301MOL0     H39700   3.253   7.226   4.394  3.0431 -2.1665 -0.8345
  301MOL0     H39701   3.236   7.134   4.256  4.2451 -1.3329  2.4063
  301MOL0     H39702   3.151   7.045   4.524  0.0694 -1.4425 -0.5504
  301MOL0     H39703   3.303   6.997   4.463  0.6648 -0.2269 -1.1663
  301MOL0     H39704   3.036   6.881   4.345  0.6473 -4.7249 -0.8446
  301MOL0     H39705   3.200   6.848   4.287 -0.9495  2.5077 -0.1653
  301MOL0     H39706   3.059   6.772   4.556 -1.8061 -0.5794 -1.7796
  301MOL0     H39707   3.233   6.783   4.529  0.7754  0.7880 -0.5083
  301MOL0     H39708   3.184   6.548   4.482  1.0186 -1.4824 -2.5068
  301MOL0     H39709   3.231   6.630   4.341 -0.8821 -1.3566 -1.6300
  301MOL0     H39710   2.985   6.649   4.270 -1.7452 -0.9107  0.1870
  301MOL0     H39711   3.033   6.489   4.285  2.0697 -0.2137  1.3112
  301MOL0     H39712   2.884   6.646   4.495  4.5470  0.5093  0.7323
  301MOL0     H39713   2.945   6.487   4.532  0.3863 -0.6117 -0.5237
  301MOL0     H39714   2.901   7.467   4.645 -0.2305  1.8296  1.3077
  301MOL0     H39715   2.892   7.689   4.610 -0.3466 -0.3577 -0.4485
  301MOL0     H39716   3.075   8.072   4.164 -0.3768 -0.9500  1.1674
  301MOL0     H39717   3.151   8.295   4.163  1.8511  1.2797  0.2292
  301MOL0     H39718   2.604   7.665   5.201 -0.3513  0.3297 -0.8713
  301MOL0     H39719   2.421   7.681   5.362  0.3029 -1.1935  0.5971
  301MOL0     H39720   2.101   7.674   5.592 -0.3711  0.4338 -3.5730
  301MOL0     H39721   1.920   7.711   5.748  0.2405  0.9731 -0.2314
  301MOL0     H39722   1.703   7.394   5.932 -0.6231 -2.1294  0.2027
  301MOL0     H39723   1.596   7.368   5.781 -0.9231  1.6120  0.3293
  301MOL0     H39724   1.542   7.583   5.996 -0.1477  0.9439 -1.2653
  301MOL0     H39725   1.436   7.532   5.856 -0.9374 -3.7822 -0.0032
  301MOL0     H39726   1.537   7.372   6.087  3.2167  3.3096 -0.5035
  301MOL0     H39727   1.436   7.307   5.952 -0.6584  1.2238  0.0101
  301MOL0     H39728   1.240   7.455   6.005  1.0385  2.1116 -0.1345
  301MOL0     H39729   1.286   7.350   6.138  0.0018 -0.1796 -0.7376
  301MOL0     H39730   1.292   7.715   6.313  1.6865 -1.1530  1.4647
  301MOL0     H39731   1.749   7.325   5.637  1.2757 -1.9347  2.0692
  301MOL0     H39732   1.903   7.333   5.451 -1.8479 -2.0312  2.5889
  302MOL0     O39733   5.344   7.350   6.457  0.2441 -0.0436 -0.1164
  302MOL0     C39734   5.445   7.419   6.434 -0.0299  0.9924 -0.5528
  302MOL0     O39735   5.447   7.537   6.372 -0.0093  0.2005 -0.2064
  302MOL0     C39736   5.332   7.618   6.370  0.0791  0.9839 -0.6893
  302MOL0     C39737   5.318   7.698   6.259  0.9641 -0.1971 -0.3854
  302MOL0     C39738   5.210   7.788   6.240  0.1790  0.7313 -0.0533
  302MOL0     C39739   5.118   7.813   6.351  0.4678  0.0451  0.3995
  302MOL0     O39740   5.015   7.905   6.344  0.2060 -0.2297 -0.6936
  302MOL0     C39741   4.992   7.997   6.458  0.1707  0.3657  0.3799
  302MOL0     C39742   4.905   8.111   6.412  1.4323 -0.2600  0.6568
  302MOL0     C39743   4.834   8.206   6.518 -0.3598  0.2904  0.0384
  302MOL0     C39744   4.927   8.328   6.539  0.5468  0.4090  0.3072
  302MOL0     C39745   4.899   8.414   6.655 -0.6055  0.2635  0.0276
  302MOL0     C39746   4.961   8.360   6.785 -0.5332 -0.1304  0.4440
  302MOL0     C39747   4.925   8.443   6.908  0.0348  0.0581  0.0361
  302MOL0     C39748   4.986   8.586   6.909 -0.3338 -0.2108  0.8795
  302MOL0     N39749   4.978   8.639   7.049  0.3782 -0.1060 -0.4578
  302MOL0     C39750   4.903   8.744   7.088  0.0683 -0.8688  0.2982
  302MOL0     C39751   4.916   8.759   7.229  0.2004 -0.0523 -0.8420
  302MOL0     C39752   4.848   8.859   7.325  1.4423  0.0028  0.6315
  302MOL0     C39753   4.709   8.918   7.264  0.0781  0.1028 -0.9183
  302MOL0     C39754   4.743   9.042   7.183 -0.1979 -0.3349 -0.7329
  302MOL0     C39755   4.751   9.156   7.291 -0.1810 -0.4691  0.4100
  302MOL0     O39756   4.760   9.285   7.220  0.0346  0.0170 -0.4184
  302MOL0     C39757   4.884   9.326   7.179  0.0294  0.6413  0.0395
  302MOL0     C39758   5.007   9.252   7.185  1.5257 -0.7529  0.6077
  302MOL0     C39759   5.120   9.304   7.122 -0.3408 -0.3711  0.4915
  302MOL0     C39760   5.112   9.431   7.055 -0.4950  0.9157 -0.3208
  302MOL0     C39761   5.234   9.481   6.981  0.2345  0.1384 -0.3435
  302MOL0     O39762   5.350   9.450   7.045  0.2205 -0.4169 -0.3609
  302MOL0     C39763   5.468   9.476   6.995  1.4259 -0.6071 -0.0206
  302MOL0     C39764   5.520   9.412   6.878  0.0322  0.1786  0.3198
  302MOL0     C39765   5.653   9.424   6.865  1.0332  0.1869  0.6258
  302MOL0     C39766   5.736   9.513   6.933  0.0527 -0.9098 -0.6127
  302MOL0     O39767   5.865   9.555   6.892 -0.1095 -0.3846 -0.1630
  302MOL0     C39768   5.952   9.456   6.835 -0.1900  0.9328 -1.0711
  302MOL0     C39769   6.018   9.370   6.944  0.1909 -1.2302  0.1877
  302MOL0     C39770   6.088   9.448   7.052 -0.0971 -0.5926  0.4687
  302MOL0     C39771   6.214   9.539   7.029  0.1520  0.1885  0.3550
  302MOL0     C39772   6.351   9.483   7.069  0.0858 -1.7861 -0.4721
  302MOL0     C39773   6.389   9.358   6.997 -0.1463  1.1147  0.8599
  302MOL0     C39774   6.486   9.278   7.082  0.2901 -0.5607 -0.2732
  302MOL0     C39775   6.591   9.205   6.996 -0.0972 -0.0410  0.6033
  302MOL0    Cl39776   6.721   9.305   6.934 -0.4349  0.1940  0.3624
  302MOL0     C39777   5.676   9.588   7.039 -0.2043  0.1493 -1.1599
  302MOL0     C39778   5.547   9.559   7.075  0.5243 -0.9120 -0.3072
  302MOL0     O39779   5.214   9.547   6.883  0.5961 -0.6254  0.0530
  302MOL0     C39780   4.997   9.509   7.069 -0.9701 -1.0271  0.8986
  302MOL0     C39781   4.881   9.448   7.115 -0.7830  0.3683 -0.7943
  302MOL0     N39782   5.004   8.665   7.258  0.0460  0.0419  0.5756
  302MOL0     N39783   5.042   8.590   7.151 -0.7075 -0.3072 -0.9018
  302MOL0     C39784   5.130   7.733   6.458  0.1281  0.0126  0.2141
  302MOL0     C39785   5.234   7.639   6.470 -0.7659 -0.2087 -0.3165
  302MOL0     C39786   5.575   7.349   6.466  0.4312  0.0988  0.0552
  302MOL0     C39787   5.590   7.206   6.473  0.5500 -0.3400  0.7032
  302MOL0     C39788   5.717   7.145   6.506 -0.1797  0.0536  0.5616
  302MOL0     C39789   5.826   7.232   6.519 -0.1007 -0.5854  0.7492
  302MOL0     O39790   5.951   7.181   6.552 -0.4636 -0.1112  0.0460
  302MOL0     C39791   5.984   7.196   6.694  0.0761  1.1748 -0.3665
  302MOL0     C39792   5.935   7.065   6.756  0.2577 -0.6361 -0.1782
  302MOL0     C39793   6.031   6.949   6.736 -1.3916 -0.3828  0.1309
  302MOL0     C39794   5.995   6.830   6.825 -0.0692  0.4708 -0.8845
  302MOL0     C39795   6.093   6.729   6.800  0.7158  0.3254  1.0197
  302MOL0     C39796   6.179   6.640   6.805  0.0220  0.9069  0.9390
  302MOL0     C39797   5.807   7.369   6.510 -0.7053 -0.9249 -1.1934
  302MOL0     C39798   5.681   7.427   6.503 -0.3260 -0.4880  0.1205
  302MOL0     H39799   5.383   7.677   6.176  2.0567 -0.3239  0.4743
  302MOL0     H39800   5.210   7.845   6.148 -1.4774  0.5552 -0.1788
  302MOL0     H39801   5.090   8.045   6.472  0.6771 -1.2348  3.3613
  302MOL0     H39802   4.966   7.950   6.553  1.9755  0.6382  1.0574
  302MOL0     H39803   4.828   8.060   6.353 -0.1159  0.7146  1.7734
  302MOL0     H39804   4.971   8.178   6.355  2.6326 -0.1163  2.1527
  302MOL0     H39805   4.814   8.155   6.612  1.0067  0.1682  0.2915
  302MOL0     H39806   4.736   8.236   6.480 -0.5344 -1.3873 -0.9502
  302MOL0     H39807   5.025   8.283   6.557 -1.5989 -4.1295  2.2346
  302MOL0     H39808   4.929   8.387   6.447  1.0615  0.8793  0.6134
  302MOL0     H39809   4.791   8.417   6.668 -0.6157 -0.7016  0.1721
  302MOL0     H39810   4.942   8.510   6.622 -0.6763 -0.4996 -2.4702
  302MOL0     H39811   5.070   8.361   6.790 -0.3653  1.8211 -1.9696
  302MOL0     H39812   4.939   8.253   6.796  0.3898 -0.3782 -0.0568
  302MOL0     H39813   4.817   8.434   6.924 -0.4030 -0.5114 -2.6845
  302MOL0     H39814   4.972   8.381   6.985  2.5948 -0.6358 -1.9571
  302MOL0     H39815   4.925   8.657   6.852  1.2256 -0.5838 -1.3979
  302MOL0     H39816   5.090   8.579   6.876  0.4240 -0.4881  3.1966
  302MOL0     H39817   4.841   8.800   7.020 -0.8956  1.0956  2.6213
  302MOL0     H39818   4.921   8.931   7.363  2.1072  0.1863 -0.9190
  302MOL0     H39819   4.825   8.803   7.416 -1.1218  0.0722  0.1143
  302MOL0     H39820   4.647   8.930   7.353 -1.2090  1.5192 -1.9504
  302MOL0     H39821   4.657   8.845   7.202 -0.9937  0.9562 -1.0433
  302MOL0     H39822   4.843   9.027   7.143  1.7905  1.3465  3.0662
  302MOL0     H39823   4.675   9.056   7.098  0.0620  1.7887 -0.6521
  302MOL0     H39824   4.828   9.143   7.368 -0.4324 -1.8220  0.4582
  302MOL0     H39825   4.665   9.155   7.359  0.9647  0.5329  1.9577
  302MOL0     H39826   5.012   9.158   7.240  3.4476 -0.3211  1.2448
  302MOL0     H39827   5.210   9.243   7.131 -0.1727 -0.4784 -1.5504
  302MOL0     H39828   5.458   9.360   6.805 -1.0036  2.4374 -0.4989
  302MOL0     H39829   5.707   9.361   6.796  2.4579  2.4493 -0.4202
  302MOL0     H39830   6.037   9.511   6.793  1.0053  0.9036  1.1648
  302MOL0     H39831   5.901   9.397   6.758 -1.6497  0.3877  0.2516
  302MOL0     H39832   6.086   9.298   6.897  3.2525 -0.0214  2.4579
  302MOL0     H39833   5.940   9.305   6.985 -1.2363  1.0320  1.2799
  302MOL0     H39834   6.123   9.370   7.120 -2.1892  0.8231  3.4007
  302MOL0     H39835   6.009   9.503   7.106 -0.3069 -2.9047  2.7280
  302MOL0     H39836   6.229   9.577   6.928  2.0766 -0.9718  0.1596
  302MOL0     H39837   6.200   9.628   7.091  2.4041  0.1489  0.9962
  302MOL0     H39838   6.346   9.457   7.175  0.7139  0.7968  0.2628
  302MOL0     H39839   6.416   9.570   7.057  0.1130 -2.0674 -2.6870
  302MOL0     H39840   6.432   9.397   6.904 -0.2794 -1.9134 -0.5862
  302MOL0     H39841   6.312   9.283   6.974  3.2528 -2.8164  1.1961
  302MOL0     H39842   6.541   9.351   7.143 -0.2592 -0.8158  0.5432
  302MOL0     H39843   6.425   9.209   7.141  0.6811  1.0967  2.2473
  302MOL0     H39844   6.542   9.186   6.900 -0.2819  3.6546 -0.1881
  302MOL0     H39845   6.624   9.111   7.040 -3.1864 -2.6756 -2.1410
  302MOL0     H39846   5.728   9.674   7.081 -3.2591  2.3154 -1.4644
  302MOL0     H39847   5.490   9.602   7.157 -1.6327 -0.0897 -2.1277
  302MOL0     H39848   5.000   9.610   7.029 -0.6687 -0.4711  2.2831
  302MOL0     H39849   4.788   9.503   7.117 -1.4744 -0.7627 -1.2645
  302MOL0     H39850   5.063   7.731   6.544 -0.1431 -1.5560 -0.0044
  302MOL0     H39851   5.234   7.592   6.568 -0.7787  1.2637  0.4199
  302MOL0     H39852   5.496   7.152   6.463 -1.0620  2.1726  1.3628
  302MOL0     H39853   5.724   7.038   6.517 -0.2321 -0.6207 -4.0321
  302MOL0     H39854   5.923   7.273   6.743  0.8011  0.4731  1.7342
  302MOL0     H39855   6.086   7.222   6.724 -0.3128  1.0421  1.1091
  302MOL0     H39856   5.919   7.078   6.864 -0.8752 -1.6673 -0.2033
  302MOL0     H39857   5.832   7.045   6.726 -0.2893  0.0959  1.1114
  302MOL0     H39858   6.133   6.982   6.758 -2.3438  2.0100  1.2193
  302MOL0     H39859   6.028   6.919   6.631 -0.4203  1.7702 -0.5624
  302MOL0     H39860   5.999   6.858   6.930 -1.0272  0.2962 -0.7937
  302MOL0     H39861   5.896   6.794   6.793 -0.3421  0.4046  0.0197
  302MOL0     H39862   6.244   6.556   6.818 -2.0489 -1.5293 -2.6644
  302MOL0     H39863   5.900   7.423   6.525 -0.9319 -0.9090  0.3169
  302MOL0     H39864   5.681   7.535   6.509 -0.1908 -0.5388  1.1357
  303MOL0     O39865   5.912   7.066   3.497  0.1293  0.7601  0.2315
  303MOL0     C39866   5.967   7.168   3.537 -0.0346 -1.1391  0.2022
  303MOL0     O39867   5.905   7.288   3.572 -0.2812  0.7444 -0.2331
  303MOL0     C39868   5.776   7.298   3.595  0.0512 -0.7516 -0.1892
  303MOL0     C39869   5.670   7.209   3.572 -0.3142  0.1633 -0.5439
  303MOL0     C39870   5.537   7.225   3.622 -0.2383  0.5223 -0.1628
  303MOL0     C39871   5.496   7.348   3.684 -0.8541  0.5550 -0.2585
  303MOL0     O39872   5.369   7.360   3.726 -0.1229  0.0320 -0.2195
  303MOL0     C39873   5.318   7.477   3.794  0.0570 -0.6881 -0.7634
  303MOL0     C39874   5.320   7.602   3.706 -0.1286  1.0411 -0.3289
  303MOL0     C39875   5.200   7.606   3.610  1.1502  0.8581  0.0749
  303MOL0     C39876   5.058   7.612   3.680  0.0736 -0.2643  0.2051
  303MOL0     C39877   4.957   7.574   3.573  2.0663 -0.1119 -0.0138
  303MOL0     C39878   4.818   7.565   3.648 -0.9350  1.2488  0.2577
  303MOL0     C39879   4.697   7.535   3.551  0.0360  0.7279 -1.1828
  303MOL0     C39880   4.570   7.540   3.631  0.0543  0.1889  0.7305
  303MOL0     N39881   4.461   7.514   3.531 -0.2852 -0.1442 -0.5959
  303MOL0     C39882   4.381   7.605   3.470 -0.4901 -0.0099  1.0200
  303MOL0     C39883   4.307   7.530   3.382  0.4686 -0.2652 -0.2633
  303MOL0     C39884   4.199   7.587   3.296 -0.7034 -0.5268  0.4218
  303MOL0     C39885   4.068   7.526   3.345  0.5207  0.0878  0.0546
  303MOL0     C39886   3.956   7.579   3.252 -0.4130  0.2780  0.5505
  303MOL0     C39887   3.817   7.556   3.316 -0.6847  0.2583 -0.6538
  303MOL0     O39888   3.778   7.419   3.302  0.3170  0.4074  0.0360
  303MOL0     C39889   3.642   7.385   3.295 -1.0934 -0.6789  0.2142
  303MOL0     C39890   3.551   7.453   3.374  0.3473 -0.1880 -0.7729
  303MOL0     C39891   3.417   7.421   3.384 -0.3928 -0.2014 -0.3990
  303MOL0     C39892   3.366   7.314   3.305 -0.8008 -0.1406 -0.5395
  303MOL0     C39893   3.223   7.267   3.308 -0.0442  0.3964  0.0204
  303MOL0     O39894   3.198   7.167   3.224 -0.8532  0.0529  0.5365
  303MOL0     C39895   3.089   7.091   3.235 -0.5470  0.5023  0.1118
  303MOL0     C39896   3.070   7.011   3.129  0.4273 -0.0663  0.1413
  303MOL0     C39897   2.957   6.919   3.124  0.3657 -0.2745 -0.7960
  303MOL0     C39898   2.864   6.904   3.241  0.6261  0.4153  0.5157
  303MOL0     O39899   2.772   6.808   3.238 -0.9475 -0.5305 -0.0940
  303MOL0     C39900   2.650   6.836   3.313  0.5465  0.5735  0.0182
  303MOL0     C39901   2.541   6.732   3.292  0.4426  0.0048 -0.6309
  303MOL0     C39902   2.587   6.584   3.293  0.2417 -0.6971 -0.3879
  303MOL0     C39903   2.466   6.500   3.290 -0.2205 -0.4212  0.0947
  303MOL0     C39904   2.513   6.370   3.239 -0.2255 -0.2044  0.3375
  303MOL0     C39905   2.389   6.279   3.234 -0.5654 -0.0396  0.3867
  303MOL0     C39906   2.418   6.158   3.163  0.0762 -0.0502  1.0502
  303MOL0     C39907   2.301   6.059   3.172 -0.1350 -0.7579 -0.0371
  303MOL0    Cl39908   2.171   6.114   3.063 -0.0228  0.2448 -0.2955
  303MOL0     C39909   2.890   6.991   3.344  0.7268  0.8582  0.0822
  303MOL0     C39910   2.998   7.080   3.337  0.1981 -0.3596 -0.8627
  303MOL0     O39911   3.151   7.313   3.398 -0.3325 -0.2108  0.5549
  303MOL0     C39912   3.465   7.233   3.231 -0.1074  0.4500 -0.5358
  303MOL0     C39913   3.606   7.263   3.232 -0.1420 -0.8739 -0.0161
  303MOL0     N39914   4.347   7.394   3.397 -0.2134  0.2391 -0.0474
  303MOL0     N39915   4.443   7.393   3.483 -0.4035  0.4895 -0.3321
  303MOL0     C39916   5.607   7.443   3.702  0.0522  0.1734  0.2873
  303MOL0     C39917   5.738   7.416   3.663  0.0279 -0.4058 -1.1931
  303MOL0     C39918   6.113   7.180   3.567 -0.3289  0.0519  0.8557
  303MOL0     C39919   6.167   7.300   3.628  0.7961  0.5732  0.5736
  303MOL0     C39920   6.303   7.313   3.662 -0.2834 -0.6791 -0.8290
  303MOL0     C39921   6.391   7.204   3.624 -0.0049 -0.5778  0.4584
  303MOL0     O39922   6.521   7.224   3.644 -0.7935  0.3242  0.1694
  303MOL0     C39923   6.598   7.221   3.526 -0.5969 -1.1283 -0.2204
  303MOL0     C39924   6.744   7.272   3.557 -0.3275  0.1598 -0.1602
  303MOL0     C39925   6.842   7.158   3.517  0.3013 -0.3242  0.0399
  303MOL0     C39926   6.987   7.204   3.497 -0.0502 -0.1235 -0.3185
  303MOL0     C39927   7.057   7.246   3.616  1.6811 -0.3152 -0.2524
  303MOL0     C39928   7.105   7.297   3.713 -1.0860 -0.3310 -0.5676
  303MOL0     C39929   6.337   7.094   3.559 -0.3120 -0.2043 -0.0604
  303MOL0     C39930   6.203   7.084   3.525  0.7448  0.2382 -0.2625
  303MOL0     H39931   5.678   7.119   3.512 -1.3874  0.7580 -1.6242
  303MOL0     H39932   5.462   7.146   3.617  0.5016 -0.2886  1.0484
  303MOL0     H39933   5.370   7.494   3.888 -1.2081 -1.2954  0.0803
  303MOL0     H39934   5.218   7.463   3.836  0.5914  0.2182  0.8886
  303MOL0     H39935   5.412   7.622   3.649  0.4079  2.1276  0.8565
  303MOL0     H39936   5.306   7.696   3.761  0.2813  1.1039 -0.3254
  303MOL0     H39937   5.205   7.513   3.551  2.0554 -1.0775  2.9626
  303MOL0     H39938   5.208   7.689   3.540 -1.6189  3.3203  2.3961
  303MOL0     H39939   5.045   7.543   3.764  0.2493  1.6105  1.8494
  303MOL0     H39940   5.050   7.717   3.710 -0.1623 -0.2564  0.1135
  303MOL0     H39941   4.981   7.471   3.545 -0.0861 -0.4250 -0.8987
  303MOL0     H39942   4.957   7.650   3.495  0.0148  1.0253  1.0065
  303MOL0     H39943   4.802   7.658   3.703  2.7902  2.6120 -0.6561
  303MOL0     H39944   4.822   7.491   3.728  0.0181  2.5764  1.4778
  303MOL0     H39945   4.684   7.617   3.481 -1.2248  0.4665 -1.2661
  303MOL0     H39946   4.715   7.448   3.489 -0.6873  0.8161 -1.5223
  303MOL0     H39947   4.559   7.636   3.682 -0.9302  1.5300 -1.7971
  303MOL0     H39948   4.574   7.468   3.713 -1.1623 -0.2866  0.3865
  303MOL0     H39949   4.392   7.712   3.456  2.9107 -0.4665 -0.9968
  303MOL0     H39950   4.228   7.569   3.192 -2.0417  0.6059 -0.1712
  303MOL0     H39951   4.203   7.696   3.308  1.7445 -0.7398  2.4047
  303MOL0     H39952   4.045   7.551   3.450  0.9477 -1.8827  0.6494
  303MOL0     H39953   4.073   7.417   3.340 -1.0276  0.0466 -1.6839
  303MOL0     H39954   3.975   7.682   3.220 -0.4068 -0.7736 -3.2569
  303MOL0     H39955   3.958   7.519   3.160  1.8349 -1.4447  1.6237
  303MOL0     H39956   3.742   7.626   3.277 -1.0313 -0.4976 -1.3802
  303MOL0     H39957   3.825   7.563   3.425  0.9400 -0.6966 -0.6749
  303MOL0     H39958   3.578   7.540   3.433 -0.8571  1.3904 -2.4044
  303MOL0     H39959   3.352   7.481   3.447 -0.8444  0.4199 -1.4310
  303MOL0     H39960   3.145   7.012   3.051  1.7893 -1.8921  1.3241
  303MOL0     H39961   2.960   6.871   3.027 -1.1632 -1.1281 -0.4565
  303MOL0     H39962   2.612   6.924   3.260  0.0655 -1.1444 -2.6403
  303MOL0     H39963   2.658   6.841   3.422 -1.1534  2.0139  0.1199
  303MOL0     H39964   2.488   6.749   3.198 -2.7932 -1.4956  0.7748
  303MOL0     H39965   2.464   6.736   3.370 -0.3267  1.4039 -1.4197
  303MOL0     H39966   2.634   6.569   3.390  0.0172  0.7193 -0.0431
  303MOL0     H39967   2.653   6.563   3.207  1.7436 -2.2178  1.0550
  303MOL0     H39968   2.432   6.480   3.392  3.7946 -3.9625  1.0449
  303MOL0     H39969   2.394   6.537   3.216  2.0102  2.3665 -0.8924
  303MOL0     H39970   2.590   6.321   3.300  0.4577 -0.1030 -0.4250
  303MOL0     H39971   2.556   6.390   3.141  1.3073 -1.8819  0.6111
  303MOL0     H39972   2.306   6.331   3.185  0.0469  0.2736 -0.3397
  303MOL0     H39973   2.369   6.251   3.338  3.0007 -2.0426  0.6969
  303MOL0     H39974   2.441   6.178   3.058 -0.2290  1.7819  1.2846
  303MOL0     H39975   2.505   6.113   3.211  1.9785  1.2388 -0.9937
  303MOL0     H39976   2.267   6.051   3.276 -0.2535  2.2186  0.2322
  303MOL0     H39977   2.342   5.962   3.144  2.1542 -0.6990  2.6900
  303MOL0     H39978   2.819   6.980   3.425 -1.4975  1.7589 -1.6431
  303MOL0     H39979   3.023   7.144   3.421 -1.5534  0.9657 -1.2968
  303MOL0     H39980   3.436   7.155   3.161  1.3454 -0.9214  0.3457
  303MOL0     H39981   3.678   7.199   3.181  0.9852  0.6752 -0.4506
  303MOL0     H39982   5.580   7.545   3.726 -1.6385 -0.2806  0.4007
  303MOL0     H39983   5.816   7.489   3.684  1.3728 -0.7812 -4.3732
  303MOL0     H39984   6.097   7.378   3.656  0.1539  0.8879 -1.7463
  303MOL0     H39985   6.349   7.394   3.717  1.9010 -1.9674 -0.6397
  303MOL0     H39986   6.561   7.286   3.446  2.0325  1.8315  0.7716
  303MOL0     H39987   6.597   7.118   3.490 -5.2214 -0.8977 -1.3723
  303MOL0     H39988   6.769   7.359   3.496 -2.9594 -0.6748 -2.6384
  303MOL0     H39989   6.761   7.304   3.660 -2.5155  2.4827 -0.4190
  303MOL0     H39990   6.805   7.100   3.432 -0.6993  0.3834 -0.0183
  303MOL0     H39991   6.845   7.078   3.592  3.3273 -1.4826 -1.1723
  303MOL0     H39992   7.050   7.122   3.461  4.0298  1.4158  2.5658
  303MOL0     H39993   6.992   7.281   3.419 -3.3438  0.1739 -0.3590
  303MOL0     H39994   7.149   7.345   3.798 -1.8677 -1.1509  0.3349
  303MOL0     H39995   6.391   7.012   3.513  1.5713  1.6198 -1.2411
  303MOL0     H39996   6.173   6.998   3.465  2.0928 -0.0230 -0.5968
  304MOL0     O39997   0.478   5.293   5.249 -0.1934  0.1024 -0.1796
  304MOL0     C39998   0.491   5.414   5.251 -0.1909 -0.0189 -0.2343
  304MOL0     O39999   0.557   5.488   5.347  1.0836 -0.3804 -0.2759
  304MOL0     C40000   0.608   5.424   5.449  1.1531  0.4085  0.3766
  304MOL0     C40001   0.524   5.380   5.550  0.3076 -0.1667 -0.1461
  304MOL0     C40002   0.571   5.307   5.659  0.2580 -0.3721 -0.8444
  304MOL0     C40003   0.708   5.292   5.668  0.0804 -0.2534 -0.1833
  304MOL0     O40004   0.751   5.226   5.773  0.6696  0.2147 -0.8090
  304MOL0     C40005   0.896   5.234   5.807  0.0285  0.2462  0.5360
  304MOL0     C40006   0.938   5.133   5.912 -0.7602  0.3476 -0.4763
  304MOL0     C40007   0.925   4.984   5.867  0.3547  0.5539  0.5131
  304MOL0     C40008   0.993   4.952   5.727 -0.2283  1.1871 -0.5158
  304MOL0     C40009   0.999   4.802   5.700 -1.5920  0.0083  0.1146
  304MOL0     C40010   1.067   4.759   5.569  0.6141 -0.3193  0.4359
  304MOL0     C40011   1.040   4.615   5.550 -0.3975 -0.5879  0.0459
  304MOL0     C40012   1.146   4.561   5.462  0.5371 -1.0992  1.4307
  304MOL0     N40013   1.123   4.580   5.318 -0.4365  0.4809  0.7534
  304MOL0     C40014   1.053   4.497   5.239 -0.1362  0.2766 -0.1572
  304MOL0     C40015   1.088   4.540   5.121  1.1406  0.8814 -0.2518
  304MOL0     C40016   1.013   4.489   5.001  0.7333  0.3166 -0.0468
  304MOL0     C40017   0.883   4.569   4.982 -0.6334 -0.2470  0.5916
  304MOL0     C40018   0.863   4.548   4.829 -0.2305 -0.2691 -0.4845
  304MOL0     C40019   0.725   4.588   4.785  0.0939  0.6020 -0.2301
  304MOL0     O40020   0.705   4.588   4.646 -0.3784  0.4666  0.0972
  304MOL0     C40021   0.585   4.630   4.602  0.4370 -0.2873  1.3534
  304MOL0     C40022   0.583   4.634   4.461  0.3413 -0.0164 -0.2542
  304MOL0     C40023   0.464   4.676   4.399 -0.3347  0.3787  0.0905
  304MOL0     C40024   0.346   4.701   4.470 -0.2967  0.0183  0.4116
  304MOL0     C40025   0.226   4.742   4.394 -0.5547  0.5055 -0.0808
  304MOL0     O40026   0.117   4.765   4.466 -0.2256  0.9960  0.3271
  304MOL0     C40027   0.012   4.817   4.411  0.1997 -0.2435  0.1477
  304MOL0     C40028  -0.110   4.755   4.394  0.3769 -0.0417 -0.3541
  304MOL0     C40029  -0.214   4.814   4.327  0.7697 -0.6535  0.0532
  304MOL0     C40030  -0.199   4.934   4.262 -0.2499 -0.0255  0.3732
  304MOL0     O40031  -0.283   4.987   4.165  0.1360 -0.0617 -0.4374
  304MOL0     C40032  -0.360   4.896   4.085  0.5742 -0.6879  0.7732
  304MOL0     C40033  -0.498   4.870   4.140  0.3583  0.6561  0.1687
  304MOL0     C40034  -0.556   4.737   4.098 -0.0113 -0.0372  0.7916
  304MOL0     C40035  -0.675   4.697   4.180  0.4592  0.2819 -0.1794
  304MOL0     C40036  -0.720   4.558   4.145 -1.2431  0.7112  0.5789
  304MOL0     C40037  -0.798   4.557   4.014  0.2571 -0.6336 -0.8561
  304MOL0     C40038  -0.806   4.422   3.947  1.0121 -0.5294 -0.3879
  304MOL0     C40039  -0.675   4.378   3.875 -0.0540  0.2703  0.0003
  304MOL0    Cl40040  -0.572   4.252   3.956  0.1713 -0.5199  0.3179
  304MOL0     C40041  -0.082   5.005   4.287  0.0200  0.0660 -0.3712
  304MOL0     C40042   0.023   4.952   4.372 -0.0097  0.6916 -0.1473
  304MOL0     O40043   0.234   4.744   4.270 -0.0335  0.4475  0.6173
  304MOL0     C40044   0.351   4.683   4.604 -0.0424  1.7027 -2.0520
  304MOL0     C40045   0.467   4.643   4.672 -0.4880  0.0228  0.8329
  304MOL0     N40046   1.169   4.651   5.126  0.0164 -0.2010  0.8285
  304MOL0     N40047   1.186   4.679   5.247  0.1525  0.0653 -0.8295
  304MOL0     C40048   0.795   5.350   5.572  0.5805  0.4144 -0.2919
  304MOL0     C40049   0.748   5.405   5.458  0.3257 -0.2706 -0.4136
  304MOL0     C40050   0.433   5.486   5.136 -0.0574 -0.1717  0.4582
  304MOL0     C40051   0.301   5.453   5.096 -0.0531  0.0274 -0.0299
  304MOL0     C40052   0.241   5.519   4.988 -0.1550 -0.0516  0.4058
  304MOL0     C40053   0.306   5.616   4.923  0.9229  0.5419 -0.7995
  304MOL0     O40054   0.261   5.676   4.804  0.0702 -0.6875  0.3430
  304MOL0     C40055   0.161   5.773   4.800 -0.0247  0.0199 -0.1068
  304MOL0     C40056   0.051   5.725   4.709 -0.3626 -0.0631 -0.2051
  304MOL0     C40057  -0.038   5.846   4.676  0.0987  0.2269  1.1511
  304MOL0     C40058  -0.090   5.918   4.794  0.4941 -0.2853 -0.3769
  304MOL0     C40059  -0.203   5.997   4.747  0.6015  0.0363 -1.2007
  304MOL0     C40060  -0.294   6.063   4.706 -0.1380  1.2946 -0.5352
  304MOL0     C40061   0.438   5.657   4.969  0.5564  0.4984 -0.4327
  304MOL0     C40062   0.499   5.590   5.073  1.0754  0.9181  0.5063
  304MOL0     H40063   0.416   5.393   5.539  0.3862  0.7097  0.0326
  304MOL0     H40064   0.516   5.273   5.746  0.3284 -0.6735 -0.9178
  304MOL0     H40065   0.907   5.339   5.836 -0.3415  1.4480 -3.1601
  304MOL0     H40066   0.959   5.209   5.721  1.9987 -0.6911  2.1473
  304MOL0     H40067   0.895   5.146   6.011  1.5281 -2.9366  1.1326
  304MOL0     H40068   1.042   5.164   5.925 -1.2384  2.1483 -0.6281
  304MOL0     H40069   0.820   4.952   5.863  1.0722 -2.5114  2.8983
  304MOL0     H40070   0.974   4.922   5.942 -0.7727  1.9037  2.4466
  304MOL0     H40071   0.956   5.005   5.639  0.4917  1.2408 -0.7935
  304MOL0     H40072   1.092   4.998   5.740 -0.0567  0.1427  2.9947
  304MOL0     H40073   0.898   4.760   5.699 -1.9178  0.7629  0.9480
  304MOL0     H40074   1.052   4.757   5.785 -0.1442 -1.9559 -1.7025
  304MOL0     H40075   1.170   4.793   5.561  0.8632 -1.1968 -0.3078
  304MOL0     H40076   1.012   4.814   5.492 -0.2552  2.9963  3.1669
  304MOL0     H40077   1.052   4.561   5.644  0.6180 -0.1317  0.1947
  304MOL0     H40078   0.938   4.594   5.517 -0.6625  0.0285  0.4332
  304MOL0     H40079   1.154   4.455   5.489 -2.0095 -1.1819  2.1475
  304MOL0     H40080   1.243   4.605   5.484  1.1015 -1.0129 -0.9996
  304MOL0     H40081   0.994   4.411   5.272 -0.5447  0.7127  0.2652
  304MOL0     H40082   0.987   4.383   5.005  0.2201  0.3996 -0.9112
  304MOL0     H40083   1.087   4.501   4.922 -0.6815  0.0952 -1.4516
  304MOL0     H40084   0.900   4.674   5.008  0.2743 -0.3747  0.5591
  304MOL0     H40085   0.805   4.519   5.039 -0.7272 -0.0534  0.6337
  304MOL0     H40086   0.937   4.599   4.768  0.9767 -3.1310 -1.5946
  304MOL0     H40087   0.868   4.440   4.812 -0.0213 -0.4566  0.6663
  304MOL0     H40088   0.697   4.683   4.830 -1.8144 -1.1985  2.7556
  304MOL0     H40089   0.655   4.511   4.821  2.7992 -3.9362 -3.6498
  304MOL0     H40090   0.663   4.596   4.399  0.3032 -2.0305  0.8587
  304MOL0     H40091   0.466   4.669   4.290  0.5869  2.3089 -0.0668
  304MOL0     H40092  -0.135   4.656   4.431 -1.0837  0.2300 -0.5431
  304MOL0     H40093  -0.307   4.759   4.314  0.4588 -0.7996  2.4517
  304MOL0     H40094  -0.301   4.806   4.065 -0.8700 -1.4816 -0.0256
  304MOL0     H40095  -0.374   4.950   3.991  0.8635  0.1703  1.2072
  304MOL0     H40096  -0.571   4.944   4.106 -0.3031 -0.1595 -0.2341
  304MOL0     H40097  -0.501   4.866   4.249 -0.1943  3.2182  0.3176
  304MOL0     H40098  -0.475   4.666   4.085  0.5552  1.0260 -2.3281
  304MOL0     H40099  -0.594   4.745   3.995  1.1761  3.6494  0.4990
  304MOL0     H40100  -0.655   4.702   4.287  2.1989 -1.3653 -0.3787
  304MOL0     H40101  -0.756   4.769   4.166 -0.1056 -0.6746 -2.2376
  304MOL0     H40102  -0.789   4.529   4.224  2.1712  1.2556  4.0590
  304MOL0     H40103  -0.640   4.483   4.140 -1.1120  0.9100 -1.5551
  304MOL0     H40104  -0.753   4.622   3.938 -1.0069  1.1205 -0.1753
  304MOL0     H40105  -0.898   4.593   4.039 -0.8603 -3.1058 -1.4433
  304MOL0     H40106  -0.852   4.339   4.002 -0.0128  1.3568  1.7592
  304MOL0     H40107  -0.880   4.436   3.868  1.9617 -0.9399 -1.3781
  304MOL0     H40108  -0.624   4.470   3.846 -1.9382  1.4366  0.1725
  304MOL0     H40109  -0.708   4.340   3.777  0.5588  1.1415 -0.5577
  304MOL0     H40110  -0.074   5.103   4.241 -0.5352 -0.0187 -0.6619
  304MOL0     H40111   0.111   5.011   4.397  1.2274 -0.7673 -0.8197
  304MOL0     H40112   0.265   4.695   4.670  0.8891  0.2659 -0.4992
  304MOL0     H40113   0.476   4.627   4.779  1.1027 -0.1824  0.6935
  304MOL0     H40114   0.902   5.337   5.586  0.4716  0.6350  0.9384
  304MOL0     H40115   0.811   5.431   5.373 -1.0889 -2.3304 -2.2089
  304MOL0     H40116   0.241   5.372   5.134  0.3525 -0.1562  0.2150
  304MOL0     H40117   0.148   5.489   4.941  0.1733  3.8807 -3.3405
  304MOL0     H40118   0.201   5.859   4.745 -1.3511  2.0554  1.9499
  304MOL0     H40119   0.131   5.808   4.899  1.1520 -0.7339  0.5439
  304MOL0     H40120   0.090   5.672   4.622 -2.3113  1.5902 -2.1983
  304MOL0     H40121  -0.007   5.648   4.761 -0.4257 -0.5340 -0.9647
  304MOL0     H40122  -0.129   5.797   4.639 -0.7390  3.1154 -0.9604
  304MOL0     H40123   0.013   5.909   4.603  2.0919 -1.9722  0.5166
  304MOL0     H40124  -0.126   5.858   4.878 -0.3362 -2.7593 -2.3568
  304MOL0     H40125  -0.018   5.972   4.857  0.7956 -0.4626 -0.5630
  304MOL0     H40126  -0.354   6.145   4.669 -0.7634  2.5318  2.8891
  304MOL0     H40127   0.477   5.747   4.921  3.7397 -0.1573  0.6855
  304MOL0     H40128   0.588   5.623   5.125  0.7735  2.9005 -0.1515
  305MOL0     O40129   6.167   8.837   7.558 -0.1970  0.3982 -0.2290
  305MOL0     C40130   6.143   8.789   7.665  0.0357 -0.4779 -0.1655
  305MOL0     O40131   6.224   8.806   7.778 -0.1637  0.3077  0.3196
  305MOL0     C40132   6.351   8.857   7.765 -0.3369 -0.0384  0.2161
  305MOL0     C40133   6.436   8.862   7.652  0.2904  0.6570  0.8381
  305MOL0     C40134   6.555   8.921   7.668  0.2588  0.3640 -0.5565
  305MOL0     C40135   6.603   8.978   7.787  1.0913 -0.4622 -0.3529
  305MOL0     O40136   6.724   9.042   7.824 -0.2026  0.1770 -0.1985
  305MOL0     C40137   6.848   8.984   7.786 -0.2628  0.1087 -0.3531
  305MOL0     C40138   6.926   9.058   7.679 -0.6032  0.5013  0.7562
  305MOL0     C40139   7.064   8.990   7.636  0.5388 -1.5455  0.3200
  305MOL0     C40140   7.155   9.076   7.540  0.4221  0.2559  0.3748
  305MOL0     C40141   7.282   9.009   7.511  0.1640  0.1361 -0.2449
  305MOL0     C40142   7.393   9.055   7.597  0.0297  0.0955 -0.0771
  305MOL0     C40143   7.526   8.987   7.534 -0.4779  0.5776 -1.2292
  305MOL0     C40144   7.648   9.017   7.634 -0.5355  0.1083  0.3100
  305MOL0     N40145   7.778   8.958   7.590 -0.5377  0.4214  0.2904
  305MOL0     C40146   7.847   8.996   7.483  0.3459 -0.2383 -0.2282
  305MOL0     C40147   7.975   8.964   7.511  0.4702  0.6220  0.3720
  305MOL0     C40148   8.081   8.997   7.405 -0.0805  1.3954 -0.4614
  305MOL0     C40149   8.141   8.864   7.359 -0.3693  1.2259 -0.4574
  305MOL0     C40150   8.234   8.783   7.460  1.1177  0.3201  0.4993
  305MOL0     C40151   8.333   8.860   7.533 -0.5896 -0.3694 -0.5652
  305MOL0     O40152   8.450   8.897   7.450  0.0542  0.2414 -0.0534
  305MOL0     C40153   8.579   8.852   7.483 -0.7118  0.3633 -0.7262
  305MOL0     C40154   8.683   8.883   7.397 -0.4639 -0.2918 -0.1318
  305MOL0     C40155   8.818   8.845   7.410 -0.1712 -0.0047  0.1788
  305MOL0     C40156   8.855   8.772   7.529 -0.2847 -1.1354  1.3249
  305MOL0     C40157   8.998   8.725   7.541  0.9806 -0.4229 -0.4372
  305MOL0     O40158   9.025   8.684   7.673 -0.3918 -0.5761 -0.2940
  305MOL0     C40159   9.152   8.638   7.699  0.2098 -0.6731 -0.7485
  305MOL0     C40160   9.168   8.525   7.767 -0.0710  0.3095  0.3676
  305MOL0     C40161   9.288   8.482   7.802 -0.4040  0.2148  0.0933
  305MOL0     C40162   9.409   8.556   7.776  0.3040 -0.1659  0.5228
  305MOL0     O40163   9.532   8.518   7.823  0.1710 -0.5534  0.4512
  305MOL0     C40164   9.547   8.434   7.933 -0.0317  0.0441  0.2864
  305MOL0     C40165   9.679   8.471   8.009 -0.4431  0.3807 -0.2008
  305MOL0     C40166   9.804   8.487   7.914 -0.0113  0.4929  0.2253
  305MOL0     C40167   9.934   8.489   7.995 -0.2500  0.3384 -0.2183
  305MOL0     C40168  10.063   8.532   7.918 -0.1163  0.3618  0.3562
  305MOL0     C40169  10.178   8.551   8.024  0.4125  0.1462 -0.1878
  305MOL0     C40170  10.303   8.593   7.947 -1.0377 -0.7998  0.8206
  305MOL0     C40171  10.412   8.640   8.040 -0.3065  0.0415  0.9083
  305MOL0    Cl40172  10.537   8.735   7.945 -0.0386  0.4508  0.6670
  305MOL0     C40173   9.400   8.680   7.710  0.3892  0.1248 -0.1796
  305MOL0     C40174   9.266   8.717   7.671  0.2651  0.0392 -0.1970
  305MOL0     O40175   9.078   8.742   7.450  1.0699  0.3940 -0.3480
  305MOL0     C40176   8.757   8.758   7.626  0.3641  0.4418 -0.7389
  305MOL0     C40177   8.624   8.787   7.605  0.3192 -1.2314 -0.1280
  305MOL0     N40178   7.973   8.887   7.623 -0.3710  0.9058 -0.1837
  305MOL0     N40179   7.848   8.874   7.667  0.1789  0.7888  0.3048
  305MOL0     C40180   6.517   8.975   7.901  0.0887  0.1546 -0.2508
  305MOL0     C40181   6.392   8.909   7.886 -0.2592  0.0362 -0.1597
  305MOL0     C40182   6.027   8.696   7.672  0.1397  0.6555  0.3479
  305MOL0     C40183   5.998   8.631   7.795 -0.2562  0.0458  0.3323
  305MOL0     C40184   5.904   8.524   7.802 -0.3912 -0.9567 -0.1901
  305MOL0     C40185   5.833   8.480   7.694  0.2211 -0.6097 -0.4404
  305MOL0     O40186   5.731   8.393   7.690  0.1903 -0.2436 -0.4576
  305MOL0     C40187   5.657   8.369   7.807 -0.3110  0.4066 -0.4971
  305MOL0     C40188   5.689   8.251   7.896  0.4632  0.7255 -0.1997
  305MOL0     C40189   5.568   8.215   7.993 -0.1304  0.2703  0.7791
  305MOL0     C40190   5.449   8.137   7.932  0.2613 -0.3395 -0.0743
  305MOL0     C40191   5.367   8.062   8.024 -1.0342  1.3082  0.6578
  305MOL0     C40192   5.307   8.001   8.114  0.8528 -0.5749  0.7016
  305MOL0     C40193   5.868   8.535   7.572 -0.4727  0.5830 -0.6031
  305MOL0     C40194   5.952   8.647   7.556  0.4476 -0.4787  0.2711
  305MOL0     H40195   6.404   8.825   7.554  0.7128  2.6824 -0.1094
  305MOL0     H40196   6.622   8.922   7.583  0.6568  0.6900 -0.2411
  305MOL0     H40197   6.828   8.880   7.758 -1.5385  0.2238  0.0986
  305MOL0     H40198   6.909   8.973   7.877  1.2509 -0.3456 -1.3847
  305MOL0     H40199   6.954   9.156   7.718 -1.1215  0.9286  0.0616
  305MOL0     H40200   6.862   9.068   7.591 -0.5347  2.2228  0.8666
  305MOL0     H40201   7.034   8.893   7.596  3.1699 -0.6574 -4.5958
  305MOL0     H40202   7.122   8.981   7.728 -0.9908  0.2542  1.5326
  305MOL0     H40203   7.099   9.088   7.448  0.8009  1.4364  0.2717
  305MOL0     H40204   7.173   9.177   7.579  1.6265 -0.2577  1.2260
  305MOL0     H40205   7.301   9.033   7.406  1.9156 -3.4062 -0.9053
  305MOL0     H40206   7.282   8.900   7.522  3.5614  0.2418  2.9505
  305MOL0     H40207   7.377   9.018   7.699 -1.3900  1.0523  0.0622
  305MOL0     H40208   7.397   9.164   7.598  2.0280  0.2312  4.7223
  305MOL0     H40209   7.510   8.879   7.540 -1.8204  0.8325  0.6826
  305MOL0     H40210   7.539   9.030   7.434  3.7326  1.7470 -0.3817
  305MOL0     H40211   7.628   8.971   7.732 -0.4878  0.4082  0.4621
  305MOL0     H40212   7.661   9.125   7.641  3.9031 -0.1699 -0.2794
  305MOL0     H40213   7.813   9.058   7.402  3.3149  2.9015  0.6738
  305MOL0     H40214   8.153   9.067   7.450 -1.1223  2.3901 -0.2897
  305MOL0     H40215   8.046   9.031   7.307  0.6923 -5.0052 -3.5025
  305MOL0     H40216   8.210   8.881   7.276 -0.4713  3.3798 -0.1607
  305MOL0     H40217   8.056   8.807   7.321  0.5913  1.7532 -3.6501
  305MOL0     H40218   8.165   8.723   7.520 -0.2159 -0.6701 -1.8655
  305MOL0     H40219   8.295   8.707   7.410 -1.5240  0.1677 -2.8806
  305MOL0     H40220   8.364   8.808   7.623  1.5773 -2.4518 -2.3782
  305MOL0     H40221   8.287   8.953   7.566  3.0040  0.8628  1.4882
  305MOL0     H40222   8.664   8.942   7.308 -0.3647 -1.8829 -1.2398
  305MOL0     H40223   8.892   8.873   7.335  0.6579 -1.1076  0.5592
  305MOL0     H40224   9.084   8.462   7.795 -0.5892  0.8794  0.1081
  305MOL0     H40225   9.284   8.385   7.849  0.3512  0.0326 -0.1950
  305MOL0     H40226   9.531   8.329   7.905 -1.0291  0.0519  0.7807
  305MOL0     H40227   9.465   8.464   7.999 -0.4138  1.6494 -0.8591
  305MOL0     H40228   9.708   8.384   8.069 -0.6267  0.8317  0.5525
  305MOL0     H40229   9.659   8.557   8.074 -2.4341  0.1524 -0.4492
  305MOL0     H40230   9.783   8.567   7.844  0.9122  0.8148  0.2933
  305MOL0     H40231   9.817   8.403   7.844  1.3428 -0.0072  1.0325
  305MOL0     H40232   9.920   8.555   8.082  0.0512 -0.2074  0.2537
  305MOL0     H40233   9.937   8.385   8.030  0.7577  0.9398  1.6313
  305MOL0     H40234  10.057   8.633   7.876 -4.3709  0.1509  0.1009
  305MOL0     H40235  10.080   8.469   7.830  2.6036  2.2182 -0.5855
  305MOL0     H40236  10.202   8.456   8.073 -0.0345  1.1867  2.1984
  305MOL0     H40237  10.139   8.632   8.086  0.8854  0.6671 -0.5650
  305MOL0     H40238  10.347   8.512   7.888 -0.8264  0.6985 -1.1668
  305MOL0     H40239  10.264   8.667   7.876  0.3413 -0.7448  0.0946
  305MOL0     H40240  10.470   8.557   8.082 -1.2232 -1.3064 -0.3730
  305MOL0     H40241  10.371   8.700   8.121 -1.5510 -0.4323  0.6433
  305MOL0     H40242   9.489   8.742   7.714 -1.3853  2.7933  3.0125
  305MOL0     H40243   9.257   8.809   7.615 -1.2875 -2.0879 -3.8167
  305MOL0     H40244   8.782   8.719   7.724 -3.0700  1.8732  0.8445
  305MOL0     H40245   8.561   8.774   7.692  0.2691  0.3218  0.1048
  305MOL0     H40246   6.526   9.029   7.995  2.1118 -1.3563  0.4973
  305MOL0     H40247   6.324   8.903   7.971 -0.8473 -0.7988 -0.6705
  305MOL0     H40248   6.043   8.656   7.890 -1.7966  1.1933  0.8003
  305MOL0     H40249   5.893   8.480   7.901 -1.7876 -0.2438 -0.0049
  305MOL0     H40250   5.555   8.352   7.771 -0.7018 -3.1967  1.8058
  305MOL0     H40251   5.630   8.455   7.868 -0.1415 -0.9323  1.5604
  305MOL0     H40252   5.699   8.153   7.849  0.2508  0.6361 -0.0593
  305MOL0     H40253   5.774   8.270   7.961 -1.8822 -1.3162  3.8535
  305MOL0     H40254   5.514   8.299   8.037 -2.0415 -0.4692 -0.0167
  305MOL0     H40255   5.610   8.155   8.074  0.2518  1.1777  1.2679
  305MOL0     H40256   5.386   8.196   7.864  0.0732 -2.0081 -1.4254
  305MOL0     H40257   5.488   8.056   7.869 -1.7778  0.6632 -2.8531
  305MOL0     H40258   5.256   7.951   8.193 -2.9232 -1.2496 -1.8862
  305MOL0     H40259   5.815   8.500   7.484 -0.6923 -0.6118 -0.0112
  305MOL0     H40260   5.976   8.698   7.463 -1.0041  2.6790  1.4857
  306MOL0     O40261   6.966   1.611   9.319 -0.5685  0.1008 -0.7722
  306MOL0     C40262   7.000   1.708   9.260 -0.0543 -1.0824  0.2845
  306MOL0     O40263   6.940   1.824   9.261  0.0844 -1.0404 -0.2280
  306MOL0     C40264   6.807   1.831   9.232  0.1472 -0.4300  0.0541
  306MOL0     C40265   6.700   1.809   9.320 -0.1261 -0.3776  0.5845
  306MOL0     C40266   6.573   1.843   9.277 -0.7523 -0.5213 -0.5332
  306MOL0     C40267   6.542   1.886   9.148  0.1756 -0.0220  0.4003
  306MOL0     O40268   6.415   1.899   9.105  0.0056 -1.3241 -0.0225
  306MOL0     C40269   6.324   1.966   9.191  0.3933 -0.4228  0.4587
  306MOL0     C40270   6.376   2.117   9.186 -0.1013  1.2067 -0.5834
  306MOL0     C40271   6.355   2.179   9.046 -0.8173  0.2309 -0.7748
  306MOL0     C40272   6.205   2.216   9.024 -0.5788 -0.3515  0.1499
  306MOL0     C40273   6.179   2.272   8.887 -0.5488  0.1349 -0.4707
  306MOL0     C40274   6.232   2.413   8.866 -0.0938 -0.9125  0.4101
  306MOL0     C40275   6.199   2.441   8.721 -0.6271 -0.2689  0.4579
  306MOL0     C40276   6.242   2.576   8.670  0.2593 -0.3427  0.3341
  306MOL0     N40277   6.385   2.600   8.697  0.1358 -0.2107  1.1936
  306MOL0     C40278   6.445   2.699   8.771 -0.0243  0.1665  0.3952
  306MOL0     C40279   6.581   2.660   8.768 -0.4292 -0.1357  0.3003
  306MOL0     C40280   6.696   2.719   8.840  0.3058  0.1557  0.1056
  306MOL0     C40281   6.747   2.854   8.796 -0.2753 -1.2734 -0.0483
  306MOL0     C40282   6.791   2.853   8.650 -0.2975 -0.2982 -0.7230
  306MOL0     C40283   6.874   2.976   8.625  0.0256  0.4824  0.2767
  306MOL0     O40284   7.010   2.929   8.642 -0.4993  0.2750 -0.7897
  306MOL0     C40285   7.100   2.915   8.542 -0.0733 -1.1245 -0.6718
  306MOL0     C40286   7.079   2.820   8.444  0.0044  0.1723  1.2867
  306MOL0     C40287   7.181   2.783   8.359  0.1272  0.4062 -0.2318
  306MOL0     C40288   7.299   2.848   8.366 -0.0170 -0.2072 -0.5994
  306MOL0     C40289   7.416   2.820   8.272  0.4601  0.2434  0.7786
  306MOL0     O40290   7.515   2.901   8.259 -0.4308  0.2853 -0.2762
  306MOL0     C40291   7.605   2.886   8.168 -0.8516  0.3476  0.5809
  306MOL0     C40292   7.739   2.867   8.204  0.0555  0.5980  0.3381
  306MOL0     C40293   7.842   2.855   8.108 -0.7390  0.1569 -0.5757
  306MOL0     C40294   7.813   2.861   7.971  0.6761 -0.6989  0.6203
  306MOL0     O40295   7.914   2.865   7.875  0.1319  0.1228 -0.5097
  306MOL0     C40296   7.910   2.765   7.779  1.1386 -0.1083  0.4545
  306MOL0     C40297   8.049   2.742   7.733 -0.2175 -0.2066 -0.1121
  306MOL0     C40298   8.056   2.619   7.648  0.1746  0.4310 -1.1335
  306MOL0     C40299   8.165   2.518   7.679  0.1328  0.3681  1.0855
  306MOL0     C40300   8.298   2.583   7.651 -0.4469 -0.1979 -0.2261
  306MOL0     C40301   8.411   2.482   7.682 -0.5732 -0.1831  1.2379
  306MOL0     C40302   8.545   2.548   7.665 -0.3827  0.8867  0.0700
  306MOL0     C40303   8.583   2.639   7.776 -0.7729 -0.0361  0.6119
  306MOL0    Cl40304   8.596   2.553   7.939  0.1596 -0.6324  0.1876
  306MOL0     C40305   7.676   2.875   7.932 -1.5109  0.4235 -0.4824
  306MOL0     C40306   7.574   2.891   8.030  0.6948  1.1796 -0.3092
  306MOL0     O40307   7.402   2.715   8.207  0.2731  0.4181  0.0389
  306MOL0     C40308   7.324   2.947   8.466  0.0067 -0.2375  0.0153
  306MOL0     C40309   7.224   2.978   8.559  0.0634 -0.2320  0.3537
  306MOL0     N40310   6.596   2.565   8.668 -0.3984  1.3810  0.5569
  306MOL0     N40311   6.474   2.519   8.641 -0.2399  0.0455 -0.6171
  306MOL0     C40312   6.646   1.899   9.055  1.3639  0.0220  1.0531
  306MOL0     C40313   6.775   1.878   9.101  0.0983 -0.4543 -1.1763
  306MOL0     C40314   7.130   1.714   9.198  0.9365  0.2412  0.9971
  306MOL0     C40315   7.213   1.597   9.189  0.4096 -0.1058 -0.3645
  306MOL0     C40316   7.347   1.595   9.145  1.3054 -0.5884  0.0631
  306MOL0     C40317   7.397   1.714   9.085  0.0956 -0.3688 -0.6793
  306MOL0     O40318   7.525   1.724   9.046 -0.1961 -0.2282  0.1355
  306MOL0     C40319   7.606   1.749   9.169 -0.0695 -0.0665  0.0631
  306MOL0     C40320   7.568   1.876   9.241 -0.0696  0.6878  0.3793
  306MOL0     C40321   7.603   2.004   9.176 -0.2102  0.4369  0.8003
  306MOL0     C40322   7.533   2.127   9.239  0.3448 -0.9193  0.0839
  306MOL0     C40323   7.592   2.257   9.195  0.2291 -0.3922 -0.6813
  306MOL0     C40324   7.657   2.352   9.161  0.4518 -0.1687 -0.2017
  306MOL0     C40325   7.309   1.831   9.082 -0.1426 -0.2402  0.5029
  306MOL0     C40326   7.187   1.834   9.148  1.1066  0.0922 -1.0000
  306MOL0     H40327   6.711   1.751   9.412 -0.0860 -1.4256 -0.0577
  306MOL0     H40328   6.509   1.827   9.363 -0.2233  1.0469  0.2030
  306MOL0     H40329   6.321   1.922   9.292  1.7410 -1.0454  0.2536
  306MOL0     H40330   6.227   1.953   9.144  1.2034 -3.0121 -0.6688
  306MOL0     H40331   6.481   2.122   9.214 -0.5328  1.2602  1.1552
  306MOL0     H40332   6.316   2.169   9.261 -0.3225 -0.2071  0.2594
  306MOL0     H40333   6.398   2.105   8.978 -0.6510 -2.4085  2.0113
  306MOL0     H40334   6.411   2.272   9.032  2.6238 -0.8932  3.5797
  306MOL0     H40335   6.142   2.128   9.036 -2.3491  0.8132 -0.3282
  306MOL0     H40336   6.171   2.289   9.098 -3.7786 -0.5444 -1.0063
  306MOL0     H40337   6.070   2.275   8.876 -0.4439  0.8226 -1.4149
  306MOL0     H40338   6.227   2.206   8.814 -1.0171 -1.8301  0.9133
  306MOL0     H40339   6.339   2.419   8.888 -0.0897  2.2612  0.0631
  306MOL0     H40340   6.173   2.474   8.935  0.1698 -2.6273  2.2505
  306MOL0     H40341   6.241   2.368   8.650  1.0837  1.8360 -0.8038
  306MOL0     H40342   6.090   2.450   8.727 -0.5586  0.7233  0.2166
  306MOL0     H40343   6.190   2.659   8.717 -0.1848 -0.0410 -0.6734
  306MOL0     H40344   6.212   2.578   8.565 -4.1312  0.3913  1.4290
  306MOL0     H40345   6.394   2.771   8.835  0.5445 -1.6177  3.0575
  306MOL0     H40346   6.783   2.653   8.843  0.4835  0.3975  0.3885
  306MOL0     H40347   6.651   2.730   8.939  0.4825  3.3580 -0.0561
  306MOL0     H40348   6.837   2.874   8.856  0.8372  0.2917 -2.0985
  306MOL0     H40349   6.676   2.932   8.824  0.6434 -1.3084  2.7385
  306MOL0     H40350   6.865   2.773   8.638  1.4381  1.3266 -1.2769
  306MOL0     H40351   6.709   2.840   8.580 -0.1866 -1.8318 -0.5975
  306MOL0     H40352   6.850   3.065   8.683  0.0400  0.9668 -0.4542
  306MOL0     H40353   6.858   3.000   8.520 -0.4150  0.0374  0.2387
  306MOL0     H40354   6.979   2.779   8.429  0.2555 -0.1063  0.3100
  306MOL0     H40355   7.167   2.705   8.286  0.3831  0.5685 -0.4556
  306MOL0     H40356   7.771   2.875   8.307 -0.6396 -1.8466  0.8175
  306MOL0     H40357   7.945   2.848   8.140 -1.2052 -0.2569  0.8814
  306MOL0     H40358   7.852   2.799   7.693  0.3200 -2.3596  0.0516
  306MOL0     H40359   7.868   2.676   7.827  1.8251 -1.3884 -1.2413
  306MOL0     H40360   8.108   2.726   7.823 -0.4739  0.4195  0.1787
  306MOL0     H40361   8.097   2.830   7.688  1.3393 -1.1811 -0.4196
  306MOL0     H40362   8.067   2.654   7.545  1.1552 -0.0975 -1.2277
  306MOL0     H40363   7.958   2.572   7.651  0.9842 -1.3790 -1.4338
  306MOL0     H40364   8.165   2.485   7.783  4.6458  1.7446  1.7146
  306MOL0     H40365   8.166   2.428   7.618  2.2639 -0.1538  1.8132
  306MOL0     H40366   8.310   2.677   7.707 -1.1766 -0.4459  0.3477
  306MOL0     H40367   8.306   2.601   7.543  2.0407 -0.6303 -0.1709
  306MOL0     H40368   8.406   2.414   7.597 -2.9383  1.2328  0.1280
  306MOL0     H40369   8.397   2.429   7.777  0.1264 -1.3318  0.7212
  306MOL0     H40370   8.617   2.470   7.640 -2.1029 -0.0823 -2.2967
  306MOL0     H40371   8.542   2.602   7.570 -1.6772 -1.4401 -1.3203
  306MOL0     H40372   8.509   2.720   7.783 -1.0463 -0.2338  0.0214
  306MOL0     H40373   8.672   2.697   7.751 -2.7173  3.5868  1.3033
  306MOL0     H40374   7.662   2.875   7.824  2.1539  0.1030 -1.0745
  306MOL0     H40375   7.472   2.899   7.994 -0.7670 -2.6600  2.2770
  306MOL0     H40376   7.421   2.993   8.484 -0.7617  0.4141  3.0368
  306MOL0     H40377   7.238   3.059   8.630  2.5130 -1.7536  1.7650
  306MOL0     H40378   6.615   1.950   8.964  1.8121  2.5582  2.2460
  306MOL0     H40379   6.862   1.888   9.036  1.6712  3.3401  1.1486
  306MOL0     H40380   7.173   1.508   9.237 -1.3252  1.4402  1.2023
  306MOL0     H40381   7.400   1.501   9.134 -1.0722 -1.8072 -1.9818
  306MOL0     H40382   7.708   1.758   9.130  0.2975  1.3205  1.2985
  306MOL0     H40383   7.596   1.663   9.236 -1.8461  1.5719  2.0029
  306MOL0     H40384   7.463   1.873   9.273  0.1282  0.1772  1.0202
  306MOL0     H40385   7.636   1.876   9.327  3.2054 -1.8656 -1.9516
  306MOL0     H40386   7.569   2.000   9.072  0.4994 -1.8552  0.5897
  306MOL0     H40387   7.711   2.015   9.167  0.1296 -1.8972  1.3362
  306MOL0     H40388   7.425   2.131   9.223 -0.0964  0.8379  2.7235
  306MOL0     H40389   7.538   2.118   9.348 -1.7716  0.6442  0.3708
  306MOL0     H40390   7.719   2.436   9.135  0.3510 -0.3305 -0.9869
  306MOL0     H40391   7.339   1.919   9.026  1.7842 -1.0740  0.1398
  306MOL0     H40392   7.137   1.931   9.150  2.8799  1.0798  1.8455
  307MOL0     O40393   0.908  10.778   2.780  0.5480 -0.2164 -0.3719
  307MOL0     C40394   0.962  10.699   2.855 -0.3435 -0.2897  0.1837
  307MOL0     O40395   1.066  10.737   2.937 -0.0553  0.1810  0.2232
  307MOL0     C40396   1.124  10.863   2.959 -0.4218 -1.0516 -0.5459
  307MOL0     C40397   1.095  10.981   2.881  0.3220  0.3478  0.0880
  307MOL0     C40398   1.173  11.094   2.886  0.4803  0.8600  0.5318
  307MOL0     C40399   1.266  11.097   2.992 -0.2579 -0.2608  0.7193
  307MOL0     O40400   1.330  11.213   3.027 -0.3286  0.1735  0.1519
  307MOL0     C40401   1.469  11.206   3.024 -0.6985 -0.8800 -0.4457
  307MOL0     C40402   1.521  11.344   3.077  0.2095  0.0773  0.8570
  307MOL0     C40403   1.663  11.327   3.123  0.4017 -0.7194 -0.1172
  307MOL0     C40404   1.768  11.279   3.024  0.3084  0.3469 -0.1366
  307MOL0     C40405   1.899  11.277   3.096 -0.5404  1.0170  0.0529
  307MOL0     C40406   2.005  11.258   2.986 -0.3511  0.7088 -0.5120
  307MOL0     C40407   2.118  11.177   3.052  0.4009  0.9087 -0.3288
  307MOL0     C40408   2.230  11.161   2.947 -0.0418  0.5238  0.7639
  307MOL0     N40409   2.335  11.075   2.980 -0.1018 -0.2746 -1.1260
  307MOL0     C40410   2.374  10.960   2.918 -0.0261 -0.2536  0.1011
  307MOL0     C40411   2.475  10.908   3.000 -0.3519  0.5952 -0.7090
  307MOL0     C40412   2.563  10.790   2.973 -0.6701 -1.4295 -0.5893
  307MOL0     C40413   2.652  10.818   2.850 -0.2047 -0.5981 -0.0366
  307MOL0     C40414   2.686  10.702   2.760  0.2763  0.9908 -0.5954
  307MOL0     C40415   2.769  10.586   2.828  0.0024 -0.3458 -0.4209
  307MOL0     O40416   2.782  10.462   2.766 -0.4466 -0.6512  0.7308
  307MOL0     C40417   2.674  10.391   2.806  0.5206 -0.5000  0.0977
  307MOL0     C40418   2.685  10.310   2.916  0.2485  0.6353  0.3549
  307MOL0     C40419   2.579  10.225   2.955  0.1266 -0.1848  0.7305
  307MOL0     C40420   2.458  10.216   2.872 -0.8487 -0.1699  0.0799
  307MOL0     C40421   2.348  10.135   2.916 -0.1449 -0.0508 -0.1363
  307MOL0     O40422   2.233  10.171   2.855  0.6948 -0.1482 -0.5590
  307MOL0     C40423   2.118  10.101   2.886  1.1628 -0.0443 -0.2019
  307MOL0     C40424   2.057  10.084   3.012  0.2507  0.0818 -0.8851
  307MOL0     C40425   1.925  10.022   3.025 -0.1555  0.7079  0.7176
  307MOL0     C40426   1.866   9.967   2.908  0.3038 -0.2959 -1.1361
  307MOL0     O40427   1.744   9.902   2.932  0.4354 -0.0057 -0.3666
  307MOL0     C40428   1.636   9.945   2.851  0.6179  0.1197  1.0943
  307MOL0     C40429   1.489   9.928   2.911 -0.2856 -0.2319 -0.3006
  307MOL0     C40430   1.477  10.019   3.045  0.3996 -0.7612  0.7677
  307MOL0     C40431   1.332  10.031   3.090  0.1953  0.2193 -0.6539
  307MOL0     C40432   1.288   9.904   3.175 -0.8706  0.0947 -0.1265
  307MOL0     C40433   1.148   9.930   3.228 -0.9570  0.2257  0.0488
  307MOL0     C40434   1.099   9.815   3.318  0.0728  0.3599  0.3727
  307MOL0     C40435   0.957   9.838   3.356 -0.5956 -0.0505  0.4110
  307MOL0    Cl40436   0.853   9.795   3.215 -0.3840 -0.1842 -0.3543
  307MOL0     C40437   1.931   9.975   2.784  0.4003  0.0494 -0.0119
  307MOL0     C40438   2.050  10.045   2.773  0.4889 -0.7014 -0.3064
  307MOL0     O40439   2.370  10.050   2.995 -0.1332 -0.1357 -0.4613
  307MOL0     C40440   2.457  10.298   2.755  0.2669  0.6533  0.4641
  307MOL0     C40441   2.561  10.384   2.728  0.0367 -0.1966 -0.0114
  307MOL0     N40442   2.489  10.996   3.103 -0.1305 -0.2980 -0.9825
  307MOL0     N40443   2.411  11.093   3.094 -0.2436  0.5790  0.2970
  307MOL0     C40444   1.291  10.989   3.074  0.0016 -0.5773  0.2897
  307MOL0     C40445   1.231  10.870   3.054 -0.3854 -0.2202  0.0938
  307MOL0     C40446   0.915  10.557   2.845 -0.8504  1.1587  0.9340
  307MOL0     C40447   0.980  10.452   2.919  0.0074 -0.3872  0.2354
  307MOL0     C40448   0.942  10.319   2.882 -0.7455 -0.6128 -0.5250
  307MOL0     C40449   0.846  10.284   2.784  1.2331  0.1025 -0.0737
  307MOL0     O40450   0.825  10.152   2.763 -0.1143  0.1994  0.3208
  307MOL0     C40451   0.707  10.102   2.694 -0.3913 -0.0420 -1.2937
  307MOL0     C40452   0.581  10.068   2.787  0.1242  0.3384  0.3322
  307MOL0     C40453   0.625   9.962   2.884 -0.3863  0.1064  0.6056
  307MOL0     C40454   0.509   9.878   2.954  1.0239  0.3514  0.1648
  307MOL0     C40455   0.416   9.959   3.048  0.1104  1.2408 -0.0919
  307MOL0     C40456   0.338  10.036   3.105 -0.6713 -0.1641 -0.5217
  307MOL0     C40457   0.787  10.389   2.717 -0.3210 -0.0378  0.0548
  307MOL0     C40458   0.829  10.525   2.737  0.3798  0.2916 -1.0564
  307MOL0     H40459   1.019  10.974   2.804 -1.1291  0.8875  1.4302
  307MOL0     H40460   1.139  11.183   2.834 -1.9224  1.3463  2.6868
  307MOL0     H40461   1.502  11.181   2.923  2.9123  1.6290 -0.0606
  307MOL0     H40462   1.505  11.129   3.094 -3.0187 -0.4845  1.3271
  307MOL0     H40463   1.456  11.385   3.154 -0.2523 -0.6777  0.8692
  307MOL0     H40464   1.517  11.414   2.993 -2.0993  3.5047  3.5677
  307MOL0     H40465   1.663  11.254   3.204  2.1324  1.1606  1.7200
  307MOL0     H40466   1.703  11.420   3.166 -2.1695  1.0565 -1.2992
  307MOL0     H40467   1.749  11.179   2.984 -2.7220  0.7450  0.0466
  307MOL0     H40468   1.773  11.345   2.937 -0.2839 -1.1108 -1.3240
  307MOL0     H40469   1.906  11.197   3.170 -0.9935 -1.0541 -2.0100
  307MOL0     H40470   1.915  11.370   3.151 -0.4724 -0.9198  3.6043
  307MOL0     H40471   2.034  11.354   2.942  0.4450  0.2198 -1.0784
  307MOL0     H40472   1.970  11.194   2.905 -1.8761 -1.1913  1.5421
  307MOL0     H40473   2.146  11.228   3.145 -1.1752  1.5902 -0.1954
  307MOL0     H40474   2.086  11.074   3.070 -2.4764  0.7675 -4.7766
  307MOL0     H40475   2.277  11.254   2.914  0.6542  0.4780  1.5885
  307MOL0     H40476   2.182  11.122   2.856  0.6261  1.8406 -0.1842
  307MOL0     H40477   2.335  10.906   2.832  3.6576  0.0011 -1.9081
  307MOL0     H40478   2.484  10.716   2.959 -1.9768 -0.6291  1.9401
  307MOL0     H40479   2.624  10.765   3.061 -1.0967 -0.2228  0.0684
  307MOL0     H40480   2.748  10.864   2.878  1.2401 -2.4234 -1.6996
  307MOL0     H40481   2.594  10.890   2.791  0.1414 -0.4992 -0.2596
  307MOL0     H40482   2.599  10.649   2.720  2.0229 -0.7834 -2.2386
  307MOL0     H40483   2.732  10.747   2.672 -2.1278 -1.5641 -3.4117
  307MOL0     H40484   2.730  10.573   2.929  2.6802 -1.3717  0.5821
  307MOL0     H40485   2.871  10.625   2.828  0.0595 -0.4334 -1.7867
  307MOL0     H40486   2.778  10.315   2.973  1.3510 -1.6039 -1.1045
  307MOL0     H40487   2.593  10.167   3.045 -0.6937 -0.7129  0.5290
  307MOL0     H40488   2.110  10.112   3.102 -2.1544 -3.6763  2.0590
  307MOL0     H40489   1.878  10.016   3.123 -0.7517  1.5894  0.5000
  307MOL0     H40490   1.625   9.895   2.755 -0.2425  3.3905 -0.6304
  307MOL0     H40491   1.644  10.047   2.812  0.3217  0.2699  1.4201
  307MOL0     H40492   1.455   9.828   2.936 -0.7064  0.7631  3.7345
  307MOL0     H40493   1.420   9.968   2.835  0.6091 -0.8625 -1.4792
  307MOL0     H40494   1.519  10.120   3.034 -1.7419  0.1621  0.6607
  307MOL0     H40495   1.540   9.964   3.115  0.6532 -1.9069 -0.3099
  307MOL0     H40496   1.310  10.119   3.151 -1.8088  0.5653 -1.7930
  307MOL0     H40497   1.274  10.044   2.999  0.7892  2.9022 -0.7540
  307MOL0     H40498   1.353   9.889   3.261 -4.6574 -0.3328  2.8966
  307MOL0     H40499   1.297   9.813   3.116  3.2222  0.5169 -0.4009
  307MOL0     H40500   1.077   9.940   3.146 -1.8421 -2.1943  0.4108
  307MOL0     H40501   1.165  10.019   3.289  0.7772 -0.4757  0.6581
  307MOL0     H40502   1.104   9.719   3.265  0.2266  0.2383  0.6017
  307MOL0     H40503   1.164   9.806   3.406  2.9736  0.3640 -1.6286
  307MOL0     H40504   0.951   9.939   3.397 -0.7268 -0.4928  1.5031
  307MOL0     H40505   0.941   9.765   3.436  2.5807  0.8536  2.0357
  307MOL0     H40506   1.874   9.944   2.697 -1.0126  3.1735 -0.3331
  307MOL0     H40507   2.069  10.073   2.669 -3.1483 -5.5994 -2.6973
  307MOL0     H40508   2.374  10.281   2.688 -0.3992  0.9233  1.1933
  307MOL0     H40509   2.552  10.445   2.638 -1.3658  0.2062  0.3884
  307MOL0     H40510   1.372  10.987   3.146  4.8374 -2.7159 -4.5560
  307MOL0     H40511   1.266  10.786   3.113 -0.9956 -0.4744  0.0989
  307MOL0     H40512   1.055  10.482   2.991  0.7353  4.7299 -2.1883
  307MOL0     H40513   0.991  10.228   2.917 -1.3928 -0.8577 -0.2408
  307MOL0     H40514   0.738  10.021   2.628 -1.3028  0.1887 -2.0349
  307MOL0     H40515   0.672  10.180   2.626  0.0744  1.4341  0.0821
  307MOL0     H40516   0.554  10.158   2.843 -0.3491 -1.2504  2.7809
  307MOL0     H40517   0.495  10.031   2.730  0.4285 -0.6494  0.5003
  307MOL0     H40518   0.688  10.005   2.962 -1.4154  0.6669  1.1478
  307MOL0     H40519   0.688   9.892   2.827  0.0022  1.2531 -0.4085
  307MOL0     H40520   0.448   9.823   2.881 -0.5536  2.1960 -0.0308
  307MOL0     H40521   0.552   9.804   3.020 -1.3499 -0.4714  0.8970
  307MOL0     H40522   0.281  10.110   3.158 -1.3514  0.8070 -2.5027
  307MOL0     H40523   0.713  10.361   2.643 -0.3315  2.4283 -0.9613
  307MOL0     H40524   0.793  10.599   2.666  1.0201  1.8702  0.1972
  308MOL0     O40525  10.209   3.864   8.081 -0.3569  0.1266 -0.1894
  308MOL0     C40526  10.258   3.778   8.009 -0.3996  0.0098 -0.6639
  308MOL0     O40527  10.199   3.703   7.912 -0.7138 -0.2201 -0.5029
  308MOL0     C40528  10.069   3.731   7.890  0.4513 -0.1993 -0.2351
  308MOL0     C40529   9.974   3.646   7.932  0.9710 -0.2904 -0.1694
  308MOL0     C40530   9.835   3.673   7.915 -0.0576  0.0056  0.7006
  308MOL0     C40531   9.792   3.795   7.854 -0.0016 -0.9648 -0.1377
  308MOL0     O40532   9.661   3.832   7.826  0.2426 -0.0060  0.0843
  308MOL0     C40533   9.560   3.758   7.900 -0.6916 -0.4867  0.6655
  308MOL0     C40534   9.570   3.783   8.051  0.6329  0.6490 -0.1436
  308MOL0     C40535   9.437   3.729   8.125  0.7780 -0.7422 -0.1869
  308MOL0     C40536   9.305   3.794   8.069 -0.9633 -0.4496 -1.6894
  308MOL0     C40537   9.187   3.763   8.158 -0.5979 -0.6456  0.5251
  308MOL0     C40538   9.055   3.811   8.091 -0.0540 -0.1240  0.3709
  308MOL0     C40539   8.920   3.746   8.138 -0.7057 -0.9239 -0.0147
  308MOL0     C40540   8.928   3.590   8.188 -0.3535 -0.5842 -0.3419
  308MOL0     N40541   8.938   3.488   8.079 -0.5137 -0.2341  0.2484
  308MOL0     C40542   8.831   3.437   8.000 -0.8286  0.5036  1.0196
  308MOL0     C40543   8.891   3.333   7.931 -0.3897 -0.1576 -0.7983
  308MOL0     C40544   8.829   3.245   7.833 -0.4597  0.4927  0.1510
  308MOL0     C40545   8.780   3.117   7.897 -0.1606  0.1713 -0.4249
  308MOL0     C40546   8.646   3.149   7.964  0.6526  0.4061  0.6333
  308MOL0     C40547   8.632   3.046   8.090  0.5155  0.3999 -0.1836
  308MOL0     O40548   8.499   2.992   8.088  0.3945  0.1747 -0.0419
  308MOL0     C40549   8.479   2.864   8.138  0.0865  0.2367  0.2279
  308MOL0     C40550   8.541   2.814   8.255  0.8557  0.0566 -0.4969
  308MOL0     C40551   8.516   2.685   8.302  0.4854  1.3031 -0.2024
  308MOL0     C40552   8.407   2.603   8.252 -0.1102  0.0204 -0.6459
  308MOL0     C40553   8.375   2.465   8.285 -0.2329 -1.1935  0.1366
  308MOL0     O40554   8.256   2.417   8.241 -0.0068 -0.2008  0.6775
  308MOL0     C40555   8.195   2.307   8.294 -0.0921 -0.4104  0.2023
  308MOL0     C40556   8.082   2.333   8.373 -0.0449 -0.8988 -0.3592
  308MOL0     C40557   8.001   2.236   8.432 -0.9961  0.3967 -0.5894
  308MOL0     C40558   8.020   2.102   8.403 -0.6208  0.7677  0.6816
  308MOL0     O40559   7.932   2.007   8.422 -0.4614  0.2145 -0.2452
  308MOL0     C40560   7.805   2.029   8.483  0.0915  0.1822  1.1501
  308MOL0     C40561   7.711   2.083   8.380 -0.0506 -0.0132  0.0108
  308MOL0     C40562   7.574   2.092   8.454  0.0639 -0.4903 -0.7771
  308MOL0     C40563   7.458   2.109   8.362 -0.0377  0.4642  0.0835
  308MOL0     C40564   7.435   1.988   8.271  0.8448  0.4777  0.3311
  308MOL0     C40565   7.288   1.960   8.248  0.5241 -0.7626 -0.1631
  308MOL0     C40566   7.231   1.878   8.359  0.4238 -0.7114  0.4788
  308MOL0     C40567   7.072   1.864   8.338 -0.5815 -0.0395 -0.1254
  308MOL0    Cl40568   7.005   2.029   8.349  0.1551  0.4544  0.2895
  308MOL0     C40569   8.144   2.073   8.339  1.1769 -0.7820  0.8386
  308MOL0     C40570   8.231   2.175   8.295  0.7746  1.1698 -0.3903
  308MOL0     O40571   8.450   2.408   8.364  0.2453 -0.4595  0.2499
  308MOL0     C40572   8.337   2.665   8.147  0.1056 -0.4623  0.6771
  308MOL0     C40573   8.382   2.790   8.088  0.6893  1.4682  0.1891
  308MOL0     N40574   9.030   3.334   7.963 -0.6616  0.2838 -1.0317
  308MOL0     N40575   9.054   3.423   8.054 -0.4640  0.6315  0.5889
  308MOL0     C40576   9.896   3.872   7.796  0.2306 -0.0796  0.1250
  308MOL0     C40577  10.035   3.843   7.812  0.2031  0.0700 -0.5710
  308MOL0     C40578  10.399   3.751   8.025 -0.4490  0.0144  0.8848
  308MOL0     C40579  10.476   3.818   8.118 -0.0106 -1.1590  0.0402
  308MOL0     C40580  10.618   3.801   8.108 -0.4674 -1.5119 -0.6496
  308MOL0     C40581  10.685   3.710   8.021 -0.0428  0.6237  0.2609
  308MOL0     O40582  10.825   3.689   8.016  0.7016  0.7301  0.0060
  308MOL0     C40583  10.895   3.771   8.102 -0.5199 -0.9828  0.2668
  308MOL0     C40584  10.914   3.911   8.045 -0.6423 -0.5965 -0.6799
  308MOL0     C40585  10.993   4.003   8.133 -0.8477 -0.4592  0.2166
  308MOL0     C40586  11.147   3.986   8.121  0.3492  0.3312  0.7138
  308MOL0     C40587  11.212   4.107   8.172 -1.0081  0.0939  1.1134
  308MOL0     C40588  11.257   4.203   8.237  0.0366 -0.2200  0.6655
  308MOL0     C40589  10.597   3.634   7.944 -0.4322 -0.0231 -0.0581
  308MOL0     C40590  10.459   3.659   7.936  0.2435 -0.4001 -0.0830
  308MOL0     H40591  10.002   3.549   7.971 -0.9100 -1.1879 -0.9034
  308MOL0     H40592   9.765   3.595   7.944  1.9374 -1.4830  1.7110
  308MOL0     H40593   9.562   3.652   7.875 -2.3926 -0.0088 -1.7842
  308MOL0     H40594   9.459   3.779   7.865 -0.0476 -1.7755 -2.2742
  308MOL0     H40595   9.567   3.890   8.071 -0.6002  0.2926  1.7723
  308MOL0     H40596   9.666   3.754   8.095 -1.0038  0.6911  3.8793
  308MOL0     H40597   9.452   3.757   8.230  0.4405 -0.7968 -0.1240
  308MOL0     H40598   9.442   3.621   8.111  4.3754 -0.6600 -0.5924
  308MOL0     H40599   9.329   3.900   8.058  3.1461 -0.4214  3.5857
  308MOL0     H40600   9.284   3.746   7.973 -2.6127 -0.5501 -1.3020
  308MOL0     H40601   9.205   3.818   8.251 -0.5814  1.0409 -0.4419
  308MOL0     H40602   9.189   3.654   8.171  0.8294 -0.5730  1.1240
  308MOL0     H40603   9.076   3.774   7.991 -0.1665  1.4648 -0.2596
  308MOL0     H40604   9.054   3.919   8.072 -3.7343  0.3740  2.4872
  308MOL0     H40605   8.893   3.820   8.213  0.2954 -0.4387 -0.1085
  308MOL0     H40606   8.854   3.750   8.051 -1.2270  0.4214  0.4249
  308MOL0     H40607   8.842   3.573   8.253  0.0817 -0.8384  0.1704
  308MOL0     H40608   9.010   3.581   8.259  0.8851 -0.5673 -1.7188
  308MOL0     H40609   8.726   3.462   7.998 -0.7269  0.8901  0.0901
  308MOL0     H40610   8.902   3.219   7.756 -1.2654 -4.2758  0.7026
  308MOL0     H40611   8.763   3.305   7.770  1.0080  0.3214 -1.6392
  308MOL0     H40612   8.846   3.077   7.975 -2.7395 -2.6118  0.5186
  308MOL0     H40613   8.780   3.042   7.818  5.8131  1.8168 -2.5127
  308MOL0     H40614   8.633   3.253   7.993 -0.7671  0.8005 -1.1971
  308MOL0     H40615   8.567   3.131   7.890 -1.5900 -1.4314  3.2864
  308MOL0     H40616   8.640   3.100   8.185  1.6660 -1.2676  0.7058
  308MOL0     H40617   8.701   2.962   8.101  1.1514  0.7604 -1.2928
  308MOL0     H40618   8.626   2.861   8.304 -0.9694  1.2741  1.7128
  308MOL0     H40619   8.580   2.641   8.377 -1.7260 -1.5268  0.1925
  308MOL0     H40620   8.052   2.437   8.385  1.1167 -0.6566  0.6436
  308MOL0     H40621   7.906   2.273   8.469 -0.9598 -0.0902  0.0064
  308MOL0     H40622   7.813   2.097   8.568 -2.6479  2.6910 -0.3787
  308MOL0     H40623   7.765   1.932   8.515 -0.0266  0.0989  0.7515
  308MOL0     H40624   7.698   2.011   8.299 -1.3567 -0.0994  0.2837
  308MOL0     H40625   7.751   2.178   8.344 -1.3846  1.0589  1.2341
  308MOL0     H40626   7.572   2.170   8.530 -2.5857  0.2253 -1.4731
  308MOL0     H40627   7.558   2.002   8.515 -0.9072  0.1122 -0.1073
  308MOL0     H40628   7.366   2.124   8.419  1.1810  1.2156  1.9351
  308MOL0     H40629   7.454   2.198   8.298  1.1234 -0.5197 -1.4257
  308MOL0     H40630   7.482   1.903   8.322 -1.2600 -0.6950  0.4361
  308MOL0     H40631   7.488   2.002   8.177  0.3804  0.5089  0.0676
  308MOL0     H40632   7.262   1.913   8.153 -3.3646 -4.1078  2.2206
  308MOL0     H40633   7.245   2.060   8.234  2.4715  0.1447  0.0941
  308MOL0     H40634   7.281   1.781   8.358  1.1049 -0.3734  1.0785
  308MOL0     H40635   7.241   1.917   8.461 -0.2995 -0.8643  0.6137
  308MOL0     H40636   7.020   1.793   8.403 -0.5312 -1.8157 -1.9211
  308MOL0     H40637   7.061   1.832   8.233  0.2978 -2.4766  0.4458
  308MOL0     H40638   8.159   1.974   8.297 -0.8406 -0.6069 -0.4184
  308MOL0     H40639   8.316   2.143   8.236  0.7721 -4.2039  1.9239
  308MOL0     H40640   8.263   2.613   8.087  0.0764  0.2303  0.0983
  308MOL0     H40641   8.329   2.823   7.999 -1.1231 -1.2571  0.1260
  308MOL0     H40642   9.859   3.950   7.730  0.8576 -2.0816 -2.7608
  308MOL0     H40643  10.104   3.906   7.757 -1.9592  0.1659 -3.4425
  308MOL0     H40644  10.427   3.886   8.188  3.3813  0.6408  0.8651
  308MOL0     H40645  10.658   3.862   8.188 -5.1922  0.3758  0.6534
  308MOL0     H40646  11.000   3.739   8.109  0.2273  0.7533 -1.7487
  308MOL0     H40647  10.854   3.778   8.203  0.8393 -0.9568  0.8422
  308MOL0     H40648  10.955   3.900   7.945  1.3241 -0.6663  0.0966
  308MOL0     H40649  10.813   3.952   8.032 -0.7892 -0.7328 -0.0321
  308MOL0     H40650  10.967   4.008   8.239  0.2106 -1.7694  0.5631
  308MOL0     H40651  10.965   4.101   8.093 -0.2893 -0.3069  0.1882
  308MOL0     H40652  11.193   3.902   8.175 -0.4191  0.6806  1.9520
  308MOL0     H40653  11.172   3.973   8.015  0.4732 -0.2741  0.8108
  308MOL0     H40654  11.286   4.282   8.304 -0.9013 -0.1814  1.0383
  308MOL0     H40655  10.649   3.558   7.887 -2.3383  1.7460 -4.5792
  308MOL0     H40656  10.401   3.605   7.861  2.5317 -2.6511 -0.3465
  309MOL0     O40657   2.988   1.103   2.775  0.3432  0.0684  0.2289
  309MOL0     C40658   3.065   1.047   2.700  0.5975  0.5778  0.2005
  309MOL0     O40659   3.194   1.022   2.719 -0.5893 -0.2956 -0.6886
  309MOL0     C40660   3.265   1.073   2.838  0.8376 -0.4020 -0.0876
  309MOL0     C40661   3.368   0.998   2.901  0.1189  0.2507  0.3994
  309MOL0     C40662   3.434   1.034   3.016  0.2612  0.6473  0.0383
  309MOL0     C40663   3.407   1.159   3.071  0.1144  0.4377 -0.3644
  309MOL0     O40664   3.454   1.189   3.198  0.7775 -0.5384  0.1906
  309MOL0     C40665   3.348   1.180   3.298 -0.0911 -0.3668 -0.3711
  309MOL0     C40666   3.403   1.167   3.448  0.2608 -0.1873 -0.3890
  309MOL0     C40667   3.491   1.045   3.490  0.1342  1.3145  0.0213
  309MOL0     C40668   3.442   0.900   3.454  0.2202 -0.0316 -1.0711
  309MOL0     C40669   3.309   0.848   3.520 -0.1101  0.7585  0.2501
  309MOL0     C40670   3.301   0.693   3.526  0.0562  0.3912  0.5185
  309MOL0     C40671   3.334   0.624   3.390  0.3540 -0.2432 -0.3010
  309MOL0     C40672   3.331   0.473   3.400 -0.7713 -0.5303  0.9620
  309MOL0     N40673   3.454   0.405   3.446 -0.8907 -0.4204  0.9729
  309MOL0     C40674   3.566   0.361   3.375 -0.0502  0.5815  0.2083
  309MOL0     C40675   3.663   0.335   3.454 -0.3767 -0.6933 -0.3759
  309MOL0     C40676   3.811   0.287   3.422 -0.2616 -0.0122 -0.7708
  309MOL0     C40677   3.917   0.385   3.454  0.0816 -0.8592 -0.6510
  309MOL0     C40678   3.947   0.480   3.334  0.3918 -0.0610 -0.2476
  309MOL0     C40679   3.995   0.615   3.370 -0.3593  0.0032 -0.5214
  309MOL0     O40680   4.105   0.604   3.469  0.1732 -0.3267 -0.5797
  309MOL0     C40681   4.219   0.678   3.453  0.0951 -0.1486  0.8867
  309MOL0     C40682   4.210   0.806   3.393  0.6989  0.5214  0.0742
  309MOL0     C40683   4.316   0.883   3.370  0.1740  0.2397 -0.1688
  309MOL0     C40684   4.445   0.831   3.400 -0.1935 -0.2310  0.5129
  309MOL0     C40685   4.567   0.918   3.390  0.2350  0.5003  0.4698
  309MOL0     O40686   4.677   0.848   3.339  0.4998 -1.0193 -0.0534
  309MOL0     C40687   4.801   0.919   3.337 -0.1359 -0.3070 -1.5199
  309MOL0     C40688   4.853   0.958   3.462 -1.0844 -0.4464  0.0239
  309MOL0     C40689   4.971   1.022   3.467 -0.5469  0.2226  0.4513
  309MOL0     C40690   5.038   1.063   3.351  0.1952  0.3766 -0.8737
  309MOL0     O40691   5.158   1.134   3.353 -0.1582 -0.4456 -0.9880
  309MOL0     C40692   5.241   1.104   3.456 -0.2620 -0.0115 -0.6238
  309MOL0     C40693   5.386   1.129   3.434 -0.8381 -0.2675  1.2754
  309MOL0     C40694   5.436   1.076   3.294 -0.0128  0.2125  1.1922
  309MOL0     C40695   5.577   1.107   3.256 -0.5931 -0.3893 -0.2453
  309MOL0     C40696   5.608   1.258   3.271 -0.2005 -0.0219 -0.6408
  309MOL0     C40697   5.743   1.291   3.209 -0.0461  0.3210  0.4789
  309MOL0     C40698   5.713   1.317   3.060 -0.2650  0.3691  0.0897
  309MOL0     C40699   5.769   1.454   3.024 -0.2249  0.0172 -0.1237
  309MOL0    Cl40700   5.741   1.487   2.851  0.2266 -0.3830 -0.1315
  309MOL0     C40701   4.986   1.025   3.227  0.1104  0.2366  0.5273
  309MOL0     C40702   4.866   0.955   3.219  0.1181  0.6478 -0.4581
  309MOL0     O40703   4.556   1.041   3.398  0.4939  0.6297  0.1764
  309MOL0     C40704   4.456   0.701   3.449  0.5001  0.0778  0.0473
  309MOL0     C40705   4.342   0.626   3.479 -1.0628  0.6804 -0.3896
  309MOL0     N40706   3.620   0.369   3.579 -0.2188 -0.6205 -0.1278
  309MOL0     N40707   3.507   0.416   3.572 -0.3821 -0.4512  0.7927
  309MOL0     C40708   3.331   1.249   3.003 -0.7800 -0.8877 -0.3449
  309MOL0     C40709   3.257   1.211   2.888 -0.0253 -0.0141  0.1272
  309MOL0     C40710   3.008   0.967   2.598 -0.5868  0.6486  0.2010
  309MOL0     C40711   3.091   0.889   2.505  0.8293 -0.3861  0.0821
  309MOL0     C40712   3.042   0.792   2.424 -0.0459 -0.0817  0.6963
  309MOL0     C40713   2.909   0.797   2.387 -0.1475 -0.4705 -0.1359
  309MOL0     O40714   2.853   0.700   2.302 -0.5854 -0.6283  0.2396
  309MOL0     C40715   2.760   0.749   2.204  1.1846 -0.0358 -0.1926
  309MOL0     C40716   2.710   0.634   2.123 -0.3675  0.5615  0.2101
  309MOL0     C40717   2.830   0.562   2.053 -0.3265 -0.3893  0.3434
  309MOL0     C40718   2.786   0.452   1.951 -0.3276  0.2491 -0.1427
  309MOL0     C40719   2.745   0.337   2.036  0.6442  0.0467  0.3139
  309MOL0     C40720   2.716   0.235   2.088  0.0214  0.7294 -0.5717
  309MOL0     C40721   2.826   0.888   2.459 -0.0595 -1.0725  0.4314
  309MOL0     C40722   2.866   0.954   2.573 -0.6972 -0.0111 -0.4484
  309MOL0     H40723   3.364   0.892   2.880 -0.4843  0.0606  1.4164
  309MOL0     H40724   3.496   0.964   3.070  2.5560  1.4781 -1.3566
  309MOL0     H40725   3.288   1.091   3.278  1.1060 -0.9084 -1.7674
  309MOL0     H40726   3.278   1.263   3.291  0.2311  0.0943  1.2473
  309MOL0     H40727   3.315   1.169   3.512  0.1964 -1.5911 -0.4010
  309MOL0     H40728   3.451   1.261   3.477  2.5288 -1.3888 -0.0104
  309MOL0     H40729   3.519   1.059   3.595 -1.2795  0.0747  0.6051
  309MOL0     H40730   3.589   1.051   3.441  1.6949 -2.7699  2.1722
  309MOL0     H40731   3.430   0.893   3.345 -2.8864 -0.7872 -0.7898
  309MOL0     H40732   3.518   0.830   3.490 -0.3867 -0.0742  0.1918
  309MOL0     H40733   3.232   0.884   3.451  0.0797 -0.0990 -0.4251
  309MOL0     H40734   3.284   0.886   3.619 -0.2472  0.4728  0.3234
  309MOL0     H40735   3.199   0.666   3.555 -1.4112  1.3833 -3.1392
  309MOL0     H40736   3.366   0.655   3.606  0.5057  1.1736  0.5374
  309MOL0     H40737   3.249   0.665   3.335 -0.1401  1.4907  1.5774
  309MOL0     H40738   3.428   0.659   3.346  1.6854 -1.4122  1.4434
  309MOL0     H40739   3.315   0.430   3.301  1.7635  1.4931 -0.4356
  309MOL0     H40740   3.248   0.447   3.467 -2.0523 -1.3816 -0.8548
  309MOL0     H40741   3.584   0.357   3.268 -2.7370 -1.7929 -0.2834
  309MOL0     H40742   3.833   0.256   3.320 -1.0617 -0.1818 -0.9004
  309MOL0     H40743   3.832   0.206   3.493 -0.2059 -0.8196 -1.6843
  309MOL0     H40744   4.015   0.339   3.473  1.0425 -0.2138 -3.5727
  309MOL0     H40745   3.885   0.439   3.544  0.4567  1.5407 -1.8781
  309MOL0     H40746   4.018   0.431   3.267 -1.1652 -4.3723  0.9299
  309MOL0     H40747   3.848   0.504   3.295 -0.5958  0.0584  2.1713
  309MOL0     H40748   3.911   0.659   3.426 -1.2114 -3.0321  0.7854
  309MOL0     H40749   4.016   0.674   3.280 -1.6910  1.6063  0.1618
  309MOL0     H40750   4.119   0.846   3.351 -1.3504  1.4918  4.7986
  309MOL0     H40751   4.299   0.985   3.335 -0.5109  0.3764  0.5527
  309MOL0     H40752   4.796   0.939   3.552 -2.8457 -0.2099 -0.9940
  309MOL0     H40753   5.021   1.035   3.563 -0.1091  0.7841  0.1513
  309MOL0     H40754   5.242   0.995   3.468 -2.5054  0.1245  1.5873
  309MOL0     H40755   5.205   1.158   3.544  0.4744  0.0529 -0.3505
  309MOL0     H40756   5.437   1.071   3.511  2.3417 -0.6938 -0.9703
  309MOL0     H40757   5.410   1.234   3.450  0.4524  0.0741 -2.1251
  309MOL0     H40758   5.375   1.127   3.218  2.7187 -0.0326 -1.3519
  309MOL0     H40759   5.426   0.967   3.290  2.7597 -0.1086  1.3843
  309MOL0     H40760   5.648   1.057   3.323  3.4871  2.1774 -2.2480
  309MOL0     H40761   5.599   1.065   3.158  0.8415 -0.2560  0.0046
  309MOL0     H40762   5.615   1.287   3.377 -1.0065 -1.2286 -0.2430
  309MOL0     H40763   5.531   1.321   3.224 -0.5139 -0.1782 -0.3415
  309MOL0     H40764   5.798   1.197   3.210 -0.1460  0.2572  0.1190
  309MOL0     H40765   5.793   1.373   3.262  1.8128 -0.9310  0.7350
  309MOL0     H40766   5.773   1.242   3.008  1.5812  1.3604  0.7265
  309MOL0     H40767   5.609   1.318   3.024 -0.6642  3.2012  1.1325
  309MOL0     H40768   5.876   1.454   3.045  0.0240  0.6920 -1.2948
  309MOL0     H40769   5.719   1.535   3.077  4.0058  2.9389 -0.0958
  309MOL0     H40770   5.035   1.058   3.135  2.5886 -1.4658  1.1440
  309MOL0     H40771   4.833   0.925   3.120 -0.4111  2.3136 -0.8278
  309MOL0     H40772   4.550   0.656   3.475 -0.1050 -0.2391  1.8129
  309MOL0     H40773   4.346   0.522   3.511 -0.4187  1.1225  1.0259
  309MOL0     H40774   3.309   1.352   3.029  1.4114  1.1008 -5.1729
  309MOL0     H40775   3.177   1.272   2.846 -0.0545 -0.7152 -0.8962
  309MOL0     H40776   3.199   0.897   2.498  0.7440  1.4025  0.2698
  309MOL0     H40777   3.110   0.728   2.369 -1.5676 -2.3424  1.2819
  309MOL0     H40778   2.809   0.821   2.137 -2.8486  1.6214 -1.6620
  309MOL0     H40779   2.665   0.790   2.237  0.6360  0.6796 -2.4688
  309MOL0     H40780   2.642   0.570   2.180 -2.0990  1.6163 -0.5908
  309MOL0     H40781   2.642   0.675   2.048 -1.2712  4.2448  2.7794
  309MOL0     H40782   2.899   0.524   2.128 -1.8675  0.7323  2.4329
  309MOL0     H40783   2.887   0.633   1.993 -1.0002 -1.6741 -1.9598
  309MOL0     H40784   2.702   0.483   1.889 -0.8242 -3.1725 -1.4078
  309MOL0     H40785   2.873   0.424   1.891 -0.5409 -0.0457 -0.3140
  309MOL0     H40786   2.686   0.136   2.118 -0.8388  0.6807 -1.5148
  309MOL0     H40787   2.723   0.889   2.423  1.0293 -0.1974 -3.0175
  309MOL0     H40788   2.800   1.009   2.639  1.4814  2.1836  0.0737
  310MOL0     O40789   3.388   8.971   9.620 -0.0726 -0.0290  0.5576
  310MOL0     C40790   3.432   8.984   9.729  0.9162  0.1095 -0.4182
  310MOL0     O40791   3.454   8.882   9.812 -0.4185  0.5211  0.2262
  310MOL0     C40792   3.424   8.756   9.771  0.5422  1.1779 -0.6057
  310MOL0     C40793   3.303   8.705   9.814  0.8310  0.4074  0.8723
  310MOL0     C40794   3.259   8.583   9.765 -0.2697  0.8345  0.2296
  310MOL0     C40795   3.354   8.508   9.690 -0.6128 -0.2746 -0.6079
  310MOL0     O40796   3.327   8.382   9.657 -0.2004 -0.0308  0.1002
  310MOL0     C40797   3.381   8.276   9.749 -0.0511 -1.5482  0.6780
  310MOL0     C40798   3.289   8.251   9.862 -0.1775 -0.2679  0.3265
  310MOL0     C40799   3.159   8.189   9.812  0.1824 -0.5239  0.2810
  310MOL0     C40800   3.046   8.169   9.913 -0.3212 -0.1353  0.6651
  310MOL0     C40801   2.943   8.080   9.853 -0.5614  0.1685 -0.6935
  310MOL0     C40802   2.805   8.078   9.924  0.2228 -0.0523  0.3286
  310MOL0     C40803   2.693   8.003   9.842  0.4615  0.7413  0.7370
  310MOL0     C40804   2.696   7.844   9.835  0.7083 -0.9488 -0.4763
  310MOL0     N40805   2.570   7.796   9.764 -0.4842 -0.8896  0.1512
  310MOL0     C40806   2.435   7.818   9.804  0.8415 -0.6222 -0.0477
  310MOL0     C40807   2.367   7.802   9.686 -0.2805  0.0239 -0.9945
  310MOL0     C40808   2.212   7.811   9.687 -0.6694 -0.2036  0.0238
  310MOL0     C40809   2.149   7.683   9.749 -0.1846  0.6129  0.4905
  310MOL0     C40810   2.010   7.717   9.804  0.3912 -0.4702  0.1157
  310MOL0     C40811   1.942   7.595   9.855  0.4719  0.0813  0.2673
  310MOL0     O40812   2.031   7.526   9.934  0.2230 -0.3398  0.0015
  310MOL0     C40813   1.982   7.438  10.023  0.5635 -0.2668 -0.2778
  310MOL0     C40814   2.076   7.390  10.108 -0.4837 -0.4003  0.2104
  310MOL0     C40815   2.042   7.306  10.221 -0.8326 -0.8782  0.2071
  310MOL0     C40816   1.912   7.269  10.250 -0.3585  0.0387 -0.8812
  310MOL0     C40817   1.880   7.187  10.374  1.0873 -0.3700  0.9296
  310MOL0     O40818   1.754   7.137  10.374  0.6028 -0.6520  0.2458
  310MOL0     C40819   1.715   7.064  10.481  0.1955 -0.7109 -0.3654
  310MOL0     C40820   1.598   7.084  10.554  0.5496 -0.3393  0.5077
  310MOL0     C40821   1.557   7.003  10.655  0.5579  0.1306  0.0279
  310MOL0     C40822   1.645   6.899  10.710  0.6739 -0.6103  0.2134
  310MOL0     O40823   1.606   6.827  10.816 -0.4051  0.1089 -0.7400
  310MOL0     C40824   1.600   6.681  10.821 -0.2663  0.5973 -0.4673
  310MOL0     C40825   1.488   6.635  10.729 -0.3352  0.6153  0.0957
  310MOL0     C40826   1.535   6.538  10.614  0.1246  0.4512 -0.9282
  310MOL0     C40827   1.420   6.472  10.544  0.1729  0.3884  0.3812
  310MOL0     C40828   1.446   6.460  10.388 -0.5888  0.2046 -0.1174
  310MOL0     C40829   1.378   6.329  10.338  0.0402 -0.6993 -0.3899
  310MOL0     C40830   1.397   6.306  10.189 -0.3541  0.6486  1.2647
  310MOL0     C40831   1.405   6.161  10.153 -0.5852 -0.6751  0.4457
  310MOL0    Cl40832   1.270   6.066  10.214  0.3458  0.1119 -0.2597
  310MOL0     C40833   1.758   6.874  10.634  0.4352  0.4873 -0.1107
  310MOL0     C40834   1.798   6.960  10.521  0.5229  0.4742  0.6092
  310MOL0     O40835   1.970   7.177  10.459 -0.3818 -0.1544  0.1693
  310MOL0     C40836   1.816   7.326  10.175 -0.0151 -0.2021  0.7394
  310MOL0     C40837   1.849   7.409  10.062  0.5324  0.5800  0.3217
  310MOL0     N40838   2.454   7.765   9.592 -0.1954  0.5230 -0.8948
  310MOL0     N40839   2.576   7.760   9.638  0.5118 -0.5742 -1.0977
  310MOL0     C40840   3.469   8.560   9.649 -0.2320 -0.0848  0.7760
  310MOL0     C40841   3.504   8.684   9.696  0.0012 -0.5093 -0.3148
  310MOL0     C40842   3.461   9.116   9.774 -0.5861 -0.6972 -0.7112
  310MOL0     C40843   3.387   9.228   9.723 -0.6784  0.6276 -1.0262
  310MOL0     C40844   3.402   9.354   9.777  0.0909  0.2254  0.6518
  310MOL0     C40845   3.499   9.376   9.880 -0.2593 -0.1824  0.1254
  310MOL0     O40846   3.542   9.496   9.930  0.2577 -0.4876  0.3139
  310MOL0     C40847   3.476   9.623   9.888  0.5619 -0.5956 -0.4399
  310MOL0     C40848   3.522   9.751   9.967 -1.3143 -0.1356  0.5385
  310MOL0     C40849   3.411   9.850   9.985  0.7214  0.2845 -0.2423
  310MOL0     C40850   3.356   9.917   9.854  0.4046  0.5906  0.0431
  310MOL0     C40851   3.222   9.962   9.870  0.1109 -0.1269  0.2166
  310MOL0     C40852   3.115  10.010   9.865  0.0441  0.4147 -1.3529
  310MOL0     C40853   3.568   9.268   9.928  0.5714  0.6603 -0.6976
  310MOL0     C40854   3.554   9.145   9.875 -0.5272 -0.3503 -0.7368
  310MOL0     H40855   3.240   8.771   9.873 -2.7684  0.7789 -2.9451
  310MOL0     H40856   3.165   8.537   9.795  0.4337  1.2806  3.4277
  310MOL0     H40857   3.484   8.294   9.780  0.6986 -1.5253 -1.6225
  310MOL0     H40858   3.385   8.185   9.689 -0.0650  0.1236 -2.0416
  310MOL0     H40859   3.261   8.345   9.911 -1.1727  0.6423 -1.8756
  310MOL0     H40860   3.331   8.180   9.934 -0.2642 -0.5292  0.1166
  310MOL0     H40861   3.170   8.096   9.757 -2.1677  0.3384 -1.8238
  310MOL0     H40862   3.117   8.264   9.744 -2.6469 -1.2453  1.1262
  310MOL0     H40863   3.085   8.123  10.005 -1.3400  1.8266  2.1480
  310MOL0     H40864   2.994   8.261   9.943 -3.5177 -1.4078 -0.5717
  310MOL0     H40865   2.978   7.976   9.848  3.8377  1.3608  0.6687
  310MOL0     H40866   2.931   8.109   9.748  4.9999  1.9401 -1.1498
  310MOL0     H40867   2.773   8.181   9.941 -1.5791 -0.4657 -0.3275
  310MOL0     H40868   2.825   8.031  10.021  1.7602 -0.2069 -0.0340
  310MOL0     H40869   2.600   8.035   9.890  1.3416 -0.2493  3.2695
  310MOL0     H40870   2.691   8.047   9.741  0.6762 -0.3743  0.2300
  310MOL0     H40871   2.699   7.810   9.940  0.7379 -1.4407 -0.6320
  310MOL0     H40872   2.784   7.819   9.775  2.6997  1.3446  1.3007
  310MOL0     H40873   2.391   7.840   9.901  0.2357  0.0826 -0.4715
  310MOL0     H40874   2.177   7.822   9.584 -0.0494 -2.0381 -0.4367
  310MOL0     H40875   2.188   7.897   9.751  0.2406  1.2881 -1.5704
  310MOL0     H40876   2.216   7.643   9.825 -1.2158  3.4506  3.1179
  310MOL0     H40877   2.132   7.613   9.667 -2.4937  2.6472 -0.9320
  310MOL0     H40878   2.008   7.795   9.882  2.7052 -1.2718  1.0639
  310MOL0     H40879   1.945   7.756   9.726 -0.5324 -2.2135 -0.0339
  310MOL0     H40880   1.910   7.519   9.783 -1.5188 -1.6520  2.7727
  310MOL0     H40881   1.852   7.639   9.901  0.5781  0.2174  0.3462
  310MOL0     H40882   2.179   7.415  10.088 -0.9525  0.9023 -0.6757
  310MOL0     H40883   2.126   7.270  10.280 -0.7323 -0.0252  0.5967
  310MOL0     H40884   1.531   7.161  10.518  2.1540  0.4402 -0.9720
  310MOL0     H40885   1.455   7.014  10.689  0.8841 -1.9788  1.9127
  310MOL0     H40886   1.568   6.652  10.921  0.4167 -0.0952 -0.4376
  310MOL0     H40887   1.697   6.637  10.794 -0.0902 -0.2762  1.4258
  310MOL0     H40888   1.438   6.724  10.689 -0.5602 -0.0441 -1.1366
  310MOL0     H40889   1.420   6.580  10.795  3.0274 -3.5575  0.5312
  310MOL0     H40890   1.604   6.461  10.651 -1.2173 -0.1162  0.4989
  310MOL0     H40891   1.580   6.609  10.544  0.2260  2.3520  0.9479
  310MOL0     H40892   1.405   6.373  10.586  2.0397 -0.2765 -0.3833
  310MOL0     H40893   1.324   6.521  10.562  1.3720  2.5694  1.3457
  310MOL0     H40894   1.553   6.437  10.385 -0.8459 -1.0174 -0.5974
  310MOL0     H40895   1.425   6.552  10.333  1.3632  0.2894 -0.7884
  310MOL0     H40896   1.280   6.325  10.386 -0.1110  3.8443  0.1812
  310MOL0     H40897   1.425   6.250  10.396  1.3521  1.2568  1.3749
  310MOL0     H40898   1.309   6.350  10.140  2.6354  2.8885 -2.7785
  310MOL0     H40899   1.485   6.358  10.149  0.1699 -1.0963  0.0152
  310MOL0     H40900   1.500   6.131  10.199 -1.0845 -1.2897  1.1158
  310MOL0     H40901   1.405   6.148  10.045  1.7114  2.8497 -0.1395
  310MOL0     H40902   1.812   6.787  10.670 -0.9740 -0.8001 -0.9822
  310MOL0     H40903   1.892   6.950  10.468  0.9890 -2.0048  1.7525
  310MOL0     H40904   1.715   7.324  10.214  0.3317 -0.9148  1.6268
  310MOL0     H40905   1.762   7.448  10.011 -0.0516  2.0169  2.2769
  310MOL0     H40906   3.543   8.500   9.596  4.5206  5.0314  0.6754
  310MOL0     H40907   3.600   8.720   9.661  0.9920 -1.0465  1.6867
  310MOL0     H40908   3.332   9.221   9.630 -0.0122  0.0004 -1.3848
  310MOL0     H40909   3.355   9.440   9.731 -1.0774  0.9177  2.9960
  310MOL0     H40910   3.367   9.618   9.890  0.5692 -0.7354 -0.2621
  310MOL0     H40911   3.515   9.639   9.787 -1.6181 -0.4776 -1.3101
  310MOL0     H40912   3.554   9.729  10.069 -1.7107  3.1484  1.4610
  310MOL0     H40913   3.609   9.801   9.924 -1.9434 -2.1083 -3.5144
  310MOL0     H40914   3.437   9.912  10.071 -0.1036 -2.4069  2.1147
  310MOL0     H40915   3.330   9.788  10.025 -0.1128  3.4892  3.6526
  310MOL0     H40916   3.409  10.007   9.822 -1.4094  1.8653  0.4183
  310MOL0     H40917   3.356   9.837   9.780  0.4039  1.1652 -0.5913
  310MOL0     H40918   3.020  10.057   9.881 -1.7084 -3.5211  1.2610
  310MOL0     H40919   3.645   9.294  10.001  2.5198 -2.4317 -1.4831
  310MOL0     H40920   3.614   9.062   9.911  0.1542 -0.6526 -2.4504
  311MOL0     O40921   9.772   6.508   0.659 -0.0771  0.3170  0.2137
  311MOL0     C40922   9.673   6.547   0.602 -0.3636 -0.5629  0.9857
  311MOL0     O40923   9.548   6.502   0.618  0.7149 -0.7061 -0.6321
  311MOL0     C40924   9.537   6.395   0.690 -1.0304  0.4479 -0.3615
  311MOL0     C40925   9.560   6.273   0.623 -1.1614 -0.0649  0.6591
  311MOL0     C40926   9.555   6.157   0.697 -0.5948 -0.0750 -0.6225
  311MOL0     C40927   9.528   6.159   0.833 -0.7177 -0.4800  0.6611
  311MOL0     O40928   9.516   6.051   0.912  0.1706 -0.1683  0.1985
  311MOL0     C40929   9.432   5.943   0.865 -0.1104  0.5532  0.2320
  311MOL0     C40930   9.524   5.824   0.881  0.2423  0.1824  0.2430
  311MOL0     C40931   9.458   5.705   0.806  0.6034  0.5793 -0.2998
  311MOL0     C40932   9.549   5.585   0.803  0.0012  0.6687  0.7990
  311MOL0     C40933   9.477   5.451   0.774 -0.5642  0.6079 -0.6611
  311MOL0     C40934   9.419   5.442   0.630  0.0694 -0.4687 -0.4644
  311MOL0     C40935   9.347   5.310   0.615  0.9941  1.2172 -0.2873
  311MOL0     C40936   9.209   5.315   0.693  0.2940 -0.0594 -0.7360
  311MOL0     N40937   9.165   5.178   0.720  0.6326  0.3757 -0.9344
  311MOL0     C40938   9.134   5.080   0.632  0.4410  0.0343 -0.2736
  311MOL0     C40939   9.068   4.986   0.706 -0.3486  0.6435 -1.6997
  311MOL0     C40940   9.012   4.858   0.667 -0.1080  0.3264  0.1196
  311MOL0     C40941   8.867   4.849   0.705 -0.6963  0.7083  0.1695
  311MOL0     C40942   8.803   4.711   0.695 -0.2982 -0.0715  0.9504
  311MOL0     C40943   8.807   4.650   0.557 -0.5084  0.0772  0.3060
  311MOL0     O40944   8.758   4.514   0.553  0.0702  0.1324 -0.4410
  311MOL0     C40945   8.753   4.454   0.428 -0.5230 -0.7007 -0.2408
  311MOL0     C40946   8.790   4.513   0.303  0.2798 -0.3188  1.6584
  311MOL0     C40947   8.759   4.438   0.186 -0.0512  0.6115  0.4308
  311MOL0     C40948   8.680   4.316   0.191  0.6346  0.4893  0.1600
  311MOL0     C40949   8.630   4.246   0.072  1.1178 -0.0601  0.7140
  311MOL0     O40950   8.564   4.121   0.100  0.4348 -0.0261  0.4512
  311MOL0     C40951   8.518   4.026   0.012  0.3047 -0.8022  0.8136
  311MOL0     C40952   8.420   3.935   0.057 -0.7013 -0.1574 -0.5546
  311MOL0     C40953   8.374   3.829  -0.026 -1.3864 -0.0674  1.1294
  311MOL0     C40954   8.438   3.820  -0.156  0.9096 -0.5902 -0.7030
  311MOL0     O40955   8.416   3.708  -0.226  0.3003 -0.5293 -0.6006
  311MOL0     C40956   8.295   3.720  -0.306  0.0391 -1.0926  0.6241
  311MOL0     C40957   8.196   3.603  -0.278  0.3149  0.0306  0.2469
  311MOL0     C40958   8.072   3.613  -0.378 -0.1229  0.3641  0.5191
  311MOL0     C40959   7.978   3.717  -0.325  0.0056 -0.2671  1.0688
  311MOL0     C40960   7.871   3.763  -0.431  0.0667 -0.8474  0.0002
  311MOL0     C40961   7.762   3.850  -0.362  0.8572 -0.2240  0.1256
  311MOL0     C40962   7.663   3.899  -0.473  0.3179  0.1152 -0.1399
  311MOL0     C40963   7.561   3.992  -0.400  0.1286  0.5163  0.1750
  311MOL0    Cl40964   7.457   4.066  -0.522  0.0527  0.0678  0.1548
  311MOL0     C40965   8.528   3.915  -0.204  0.4530  0.8323  0.7038
  311MOL0     C40966   8.570   4.015  -0.115  0.6079  0.3371  0.3932
  311MOL0     O40967   8.654   4.292  -0.040 -0.3503  0.2205 -0.1391
  311MOL0     C40968   8.652   4.264   0.315 -0.5441  0.2892  0.4398
  311MOL0     C40969   8.698   4.330   0.428  0.3217  0.8601 -0.2012
  311MOL0     N40970   9.053   5.034   0.838  1.8122  0.0737 -0.0772
  311MOL0     N40971   9.112   5.141   0.840  0.0519 -0.8136  0.1286
  311MOL0     C40972   9.498   6.287   0.891 -0.3228 -0.3910 -0.0791
  311MOL0     C40973   9.491   6.403   0.817  1.1303  0.2271  0.1113
  311MOL0     C40974   9.700   6.652   0.496  0.6660 -0.3532 -0.0211
  311MOL0     C40975   9.821   6.727   0.511 -0.4154 -0.7168  0.0191
  311MOL0     C40976   9.860   6.817   0.412 -0.1700  0.1815  0.4090
  311MOL0     C40977   9.782   6.836   0.305  0.1049 -0.2717 -0.0332
  311MOL0     O40978   9.837   6.925   0.214  0.6175 -0.6822  1.1692
  311MOL0     C40979   9.856   6.879   0.074 -0.4491 -0.1908  0.3108
  311MOL0     C40980   9.936   6.984  -0.005  0.3809 -0.8757  0.0273
  311MOL0     C40981  10.062   7.028   0.073 -0.7207  0.7833 -0.2047
  311MOL0     C40982  10.124   7.149   0.006 -0.3996 -0.5812  0.8458
  311MOL0     C40983  10.251   7.204   0.065 -0.7694  0.2013  0.8359
  311MOL0     C40984  10.354   7.246   0.113 -0.2081 -0.4359 -0.1141
  311MOL0     C40985   9.656   6.769   0.288  0.2118 -0.0841  0.0385
  311MOL0     C40986   9.608   6.685   0.393 -0.4955 -0.3756  1.2980
  311MOL0     H40987   9.603   6.278   0.524 -0.5114  0.3880  0.9564
  311MOL0     H40988   9.579   6.059   0.657 -2.5119 -2.0394  2.5412
  311MOL0     H40989   9.405   5.961   0.760  2.9560 -0.8392 -0.9312
  311MOL0     H40990   9.337   5.922   0.914 -1.2183 -2.1462 -2.7138
  311MOL0     H40991   9.543   5.812   0.988  0.0404 -1.5485  0.1078
  311MOL0     H40992   9.617   5.842   0.827  1.3663 -3.7403  0.5797
  311MOL0     H40993   9.448   5.740   0.702  0.7241  0.8400 -0.2248
  311MOL0     H40994   9.356   5.696   0.844 -0.8850  2.1349 -3.4489
  311MOL0     H40995   9.635   5.611   0.741  0.3128 -0.6745  0.6336
  311MOL0     H40996   9.583   5.576   0.907  3.3093  0.9111 -0.1461
  311MOL0     H40997   9.403   5.442   0.854 -0.1108  0.0439 -0.2910
  311MOL0     H40998   9.547   5.368   0.788 -1.7120 -0.1762  0.5606
  311MOL0     H40999   9.500   5.456   0.558  1.3876 -2.4900  0.5430
  311MOL0     H41000   9.348   5.524   0.618  0.3194  0.0583  1.3072
  311MOL0     H41001   9.334   5.277   0.512  2.6979  0.3282 -0.2472
  311MOL0     H41002   9.400   5.227   0.661  1.8767  0.5073 -2.5002
  311MOL0     H41003   9.131   5.362   0.633 -1.3505 -1.4156  0.2470
  311MOL0     H41004   9.206   5.362   0.792 -0.5021 -0.3493 -0.6128
  311MOL0     H41005   9.160   5.071   0.527 -0.7231 -1.8174 -0.4361
  311MOL0     H41006   9.073   4.780   0.714  2.1823  2.9384  1.8607
  311MOL0     H41007   9.014   4.862   0.558 -0.6334  0.3322  0.1063
  311MOL0     H41008   8.819   4.931   0.649  0.0518 -0.2484 -1.9852
  311MOL0     H41009   8.855   4.880   0.809 -2.4676  7.1058 -1.4953
  311MOL0     H41010   8.860   4.640   0.755  3.7997  1.0639 -1.2790
  311MOL0     H41011   8.704   4.719   0.742 -1.2489 -1.2804 -0.7452
  311MOL0     H41012   8.912   4.643   0.528 -0.0554  2.6946  1.0180
  311MOL0     H41013   8.751   4.708   0.483 -1.6663 -1.1133  0.2157
  311MOL0     H41014   8.841   4.608   0.293 -0.7613  0.2801  1.8908
  311MOL0     H41015   8.788   4.473   0.087 -1.2815 -2.0253 -0.9405
  311MOL0     H41016   8.392   3.965   0.157  3.4765  3.4386 -0.1067
  311MOL0     H41017   8.316   3.740  -0.008  0.7076 -2.2520 -1.9428
  311MOL0     H41018   8.322   3.724  -0.412  0.8315  1.5688  0.8388
  311MOL0     H41019   8.255   3.821  -0.290  4.9548  1.1527  0.6984
  311MOL0     H41020   8.171   3.597  -0.172  3.7135  0.9294  1.2331
  311MOL0     H41021   8.244   3.514  -0.318 -0.4453 -0.0809 -0.4323
  311MOL0     H41022   8.025   3.515  -0.391 -1.7583  1.0083  1.3238
  311MOL0     H41023   8.098   3.630  -0.483 -0.0198 -1.4058  0.2183
  311MOL0     H41024   7.915   3.689  -0.240 -0.6214  3.9419  2.2098
  311MOL0     H41025   8.035   3.807  -0.301  0.5287 -0.2906 -0.0069
  311MOL0     H41026   7.816   3.677  -0.472  2.3862 -0.6878 -3.8999
  311MOL0     H41027   7.915   3.819  -0.514  0.5720 -3.3270 -1.5098
  311MOL0     H41028   7.819   3.937  -0.328 -0.2494  1.9132 -3.0055
  311MOL0     H41029   7.705   3.810  -0.278 -2.1421  3.8991  0.3583
  311MOL0     H41030   7.719   3.957  -0.546  1.4616 -0.4833  0.2481
  311MOL0     H41031   7.615   3.812  -0.519 -0.1681  0.1348  0.3191
  311MOL0     H41032   7.614   4.067  -0.341  0.9814 -0.4732  0.6919
  311MOL0     H41033   7.498   3.936  -0.330 -2.5652 -1.6186 -3.5697
  311MOL0     H41034   8.570   3.908  -0.303  1.5767  0.4302  1.1930
  311MOL0     H41035   8.639   4.083  -0.163 -0.8995  1.5535 -0.1358
  311MOL0     H41036   8.598   4.170   0.321 -0.7254  0.0204 -3.0788
  311MOL0     H41037   8.656   4.286   0.517 -1.5946 -1.9512 -2.3050
  311MOL0     H41038   9.469   6.279   0.995  0.7798 -2.5946  0.1091
  311MOL0     H41039   9.480   6.498   0.868  0.9178 -0.0085  0.5097
  311MOL0     H41040   9.890   6.708   0.593 -0.0707 -1.6095 -0.4690
  311MOL0     H41041   9.963   6.851   0.417  1.5950 -4.2602 -0.9460
  311MOL0     H41042   9.763   6.866   0.018 -0.5680 -1.8662  0.8495
  311MOL0     H41043   9.913   6.786   0.084 -1.0485 -0.4739  1.1742
  311MOL0     H41044   9.963   6.934  -0.099  3.3430  0.3600  0.0935
  311MOL0     H41045   9.878   7.075  -0.021  0.9975 -0.2910  1.0704
  311MOL0     H41046  10.125   6.939   0.061 -1.2504 -0.0240  2.2774
  311MOL0     H41047  10.056   7.052   0.180  2.1929  2.2086 -0.2585
  311MOL0     H41048  10.116   7.129  -0.102 -2.4490  0.8386  0.6855
  311MOL0     H41049  10.054   7.232   0.017  2.7738  2.1679  1.9374
  311MOL0     H41050  10.450   7.278   0.150  0.0701 -3.2746  1.9683
  311MOL0     H41051   9.594   6.774   0.198 -0.5088  3.8181  0.5482
  311MOL0     H41052   9.515   6.628   0.390 -0.5173 -0.3214 -1.9452
  312MOL0     O41053   2.865   2.167   5.148 -0.0264 -0.1560  0.2553
  312MOL0     C41054   2.776   2.248   5.121 -0.7498  0.2008  0.5025
  312MOL0     O41055   2.744   2.290   4.999 -0.6463  0.2221  0.1446
  312MOL0     C41056   2.783   2.210   4.897  0.5054  0.6989  0.1198
  312MOL0     C41057   2.739   2.077   4.895  0.2497  0.5243  0.3150
  312MOL0     C41058   2.794   1.984   4.805 -0.2606  0.1647  0.9290
  312MOL0     C41059   2.878   2.025   4.700 -1.4138 -0.5599 -0.3000
  312MOL0     O41060   2.911   1.951   4.592  0.0168  0.4196  0.7844
  312MOL0     C41061   3.016   1.972   4.502 -0.3866 -0.1580 -0.7944
  312MOL0     C41062   3.041   1.865   4.391  0.1664  0.4396  0.3749
  312MOL0     C41063   2.939   1.855   4.285 -0.5665 -0.0889  0.0158
  312MOL0     C41064   2.972   1.748   4.178 -0.2427 -0.0560  0.5665
  312MOL0     C41065   2.853   1.740   4.086  0.1676  0.5045 -1.1465
  312MOL0     C41066   2.870   1.659   3.953  0.1666  0.3182  0.3717
  312MOL0     C41067   2.738   1.627   3.890 -0.2032  0.5339  0.0963
  312MOL0     C41068   2.736   1.595   3.740  0.1370  0.9947 -0.1158
  312MOL0     N41069   2.815   1.468   3.707 -0.1812 -0.1389 -1.1030
  312MOL0     C41070   2.774   1.343   3.711 -0.3482  0.2389  0.2066
  312MOL0     C41071   2.876   1.279   3.650  0.2549 -0.4693  0.1701
  312MOL0     C41072   2.879   1.122   3.629  0.6707 -0.3737  0.6618
  312MOL0     C41073   2.757   1.069   3.546 -0.8358 -0.8608  0.0403
  312MOL0     C41074   2.749   1.120   3.405 -0.5110 -1.0749  0.1655
  312MOL0     C41075   2.868   1.081   3.311 -0.7505  0.6254 -0.2653
  312MOL0     O41076   2.857   0.932   3.310 -0.1918  0.4773  0.2228
  312MOL0     C41077   2.945   0.867   3.233 -0.3323 -0.5801 -0.5605
  312MOL0     C41078   2.963   0.731   3.257 -0.2626  0.1469 -0.5334
  312MOL0     C41079   3.046   0.647   3.186  0.6287  0.2033  0.0783
  312MOL0     C41080   3.116   0.699   3.084  0.2939 -0.1120 -0.2266
  312MOL0     C41081   3.200   0.598   3.007 -0.0032 -0.3765  0.5652
  312MOL0     O41082   3.224   0.644   2.881 -0.4110 -0.1807  0.2806
  312MOL0     C41083   3.301   0.577   2.787 -0.8346  0.4998  0.4861
  312MOL0     C41084   3.371   0.460   2.792 -0.5164 -0.2857 -0.5076
  312MOL0     C41085   3.464   0.418   2.694  0.1503  1.2275 -0.6605
  312MOL0     C41086   3.482   0.490   2.577  0.3829  0.0949  0.2493
  312MOL0     O41087   3.565   0.444   2.479 -0.8038 -0.7054  0.1778
  312MOL0     C41088   3.617   0.535   2.388 -0.3905 -0.6339 -0.4359
  312MOL0     C41089   3.722   0.470   2.291  0.0143  0.4614 -0.0451
  312MOL0     C41090   3.779   0.585   2.206 -1.0010 -0.1819 -0.4277
  312MOL0     C41091   3.676   0.649   2.119 -0.1957  0.3232  1.0184
  312MOL0     C41092   3.728   0.735   2.008  0.2845  0.2780 -0.6386
  312MOL0     C41093   3.620   0.809   1.928 -1.2247 -0.3423 -0.0070
  312MOL0     C41094   3.568   0.939   1.996 -0.2882 -0.0151  1.2470
  312MOL0     C41095   3.547   1.038   1.881 -0.8072  0.3932 -1.1339
  312MOL0    Cl41096   3.694   1.125   1.832 -0.1636 -0.0569  0.0369
  312MOL0     C41097   3.392   0.605   2.558  0.5283  0.1203  0.3372
  312MOL0     C41098   3.307   0.642   2.664 -0.4137  0.1391 -0.7098
  312MOL0     O41099   3.249   0.499   3.065 -0.1125  0.0205  0.2344
  312MOL0     C41100   3.105   0.838   3.050  0.0007  0.2475 -0.3370
  312MOL0     C41101   3.016   0.917   3.125  0.5671 -1.0504  0.0750
  312MOL0     N41102   2.977   1.373   3.611 -0.4730  0.1472 -0.3182
  312MOL0     N41103   2.936   1.485   3.660  0.0053  0.3213  0.3766
  312MOL0     C41104   2.924   2.157   4.707  0.4355  0.4963 -0.7647
  312MOL0     C41105   2.869   2.247   4.795  0.3875 -0.5892 -0.6946
  312MOL0     C41106   2.729   2.337   5.228 -0.9810  0.2239 -0.2680
  312MOL0     C41107   2.670   2.456   5.200  0.5777  0.5209 -0.6224
  312MOL0     C41108   2.617   2.539   5.299  1.0580  0.2407  1.0192
  312MOL0     C41109   2.645   2.507   5.434  0.4656 -0.4411 -0.3513
  312MOL0     O41110   2.608   2.591   5.537  1.1625  1.0980  0.7459
  312MOL0     C41111   2.484   2.552   5.601  0.8654  0.4119 -0.1306
  312MOL0     C41112   2.410   2.676   5.627  0.6473  0.5422 -0.4330
  312MOL0     C41113   2.285   2.640   5.721 -0.2408  0.4357  0.5329
  312MOL0     C41114   2.238   2.754   5.814 -0.1276 -0.0864 -0.2979
  312MOL0     C41115   2.242   2.873   5.730  0.1306 -0.4013 -0.2596
  312MOL0     C41116   2.243   2.962   5.642 -0.1862  0.4260 -0.3021
  312MOL0     C41117   2.699   2.383   5.463 -0.2937 -0.7752  0.6554
  312MOL0     C41118   2.735   2.291   5.360 -0.5585 -0.2839 -0.3466
  312MOL0     H41119   2.659   2.052   4.963 -0.5701  1.8920 -0.1020
  312MOL0     H41120   2.749   1.885   4.800  1.2432 -0.7186  3.1880
  312MOL0     H41121   3.109   1.984   4.560 -1.6183  3.5032  0.7166
  312MOL0     H41122   3.007   2.062   4.442 -4.4132 -0.3824 -0.7777
  312MOL0     H41123   3.035   1.769   4.442 -3.1695  1.2539  1.7791
  312MOL0     H41124   3.134   1.897   4.342 -0.6063  4.1902  1.0654
  312MOL0     H41125   2.931   1.944   4.222  6.0764  0.5875 -0.6160
  312MOL0     H41126   2.848   1.821   4.334  0.4770 -2.3654  0.4942
  312MOL0     H41127   3.052   1.779   4.109 -0.7642  0.9582  0.3979
  312MOL0     H41128   2.997   1.651   4.223  0.9611  0.2312  0.5454
  312MOL0     H41129   2.843   1.846   4.060  4.8126  1.4109 -0.0515
  312MOL0     H41130   2.770   1.708   4.149  0.2638 -0.6018 -1.5522
  312MOL0     H41131   2.934   1.572   3.968 -0.3455 -0.5415 -1.9540
  312MOL0     H41132   2.933   1.719   3.886  1.2619  1.2035  2.1190
  312MOL0     H41133   2.691   1.544   3.944 -1.1002  0.7076 -0.3924
  312MOL0     H41134   2.669   1.712   3.903  0.8339  1.1168  2.1806
  312MOL0     H41135   2.771   1.672   3.671 -0.2039  0.0110 -1.4282
  312MOL0     H41136   2.636   1.563   3.708  0.5252  0.9761 -1.3828
  312MOL0     H41137   2.675   1.307   3.737 -1.2434  2.6839  0.4313
  312MOL0     H41138   2.874   1.073   3.727  1.5103  0.4568  1.1377
  312MOL0     H41139   2.974   1.083   3.593 -1.0532 -4.1932 -0.2226
  312MOL0     H41140   2.665   1.092   3.600 -0.4419 -2.4882  1.4892
  312MOL0     H41141   2.763   0.960   3.552  1.9813 -0.8993 -1.7769
  312MOL0     H41142   2.651   1.077   3.379 -1.1550 -0.1173  0.9384
  312MOL0     H41143   2.733   1.228   3.396 -4.1358 -1.5668 -0.8841
  312MOL0     H41144   2.964   1.127   3.335 -1.0091  0.4096  1.3058
  312MOL0     H41145   2.846   1.125   3.213  1.1021  3.0415  0.3083
  312MOL0     H41146   2.915   0.680   3.341  0.9175 -2.1721 -1.1897
  312MOL0     H41147   3.057   0.545   3.222  1.9560 -0.1120 -1.1320
  312MOL0     H41148   3.365   0.403   2.885 -3.0072  2.3294  1.1040
  312MOL0     H41149   3.531   0.335   2.715 -1.7125 -0.7303 -1.9286
  312MOL0     H41150   3.675   0.616   2.434 -2.3337  0.1947  0.6832
  312MOL0     H41151   3.543   0.594   2.332  2.0267  2.2373 -0.8558
  312MOL0     H41152   3.674   0.392   2.231 -1.5485  0.0010  1.6962
  312MOL0     H41153   3.805   0.434   2.352 -0.9450 -0.5556  0.7166
  312MOL0     H41154   3.857   0.543   2.141 -2.4221  1.2859 -3.2451
  312MOL0     H41155   3.819   0.663   2.271  0.7599 -0.7506 -0.7795
  312MOL0     H41156   3.605   0.576   2.080 -0.7730  1.6050 -0.4264
  312MOL0     H41157   3.622   0.718   2.185 -1.0543  0.0159  0.6436
  312MOL0     H41158   3.791   0.680   1.938  0.3536  1.9852 -1.9666
  312MOL0     H41159   3.795   0.813   2.044  4.4490 -2.9832 -0.5337
  312MOL0     H41160   3.542   0.739   1.898  0.5436 -1.9558 -1.0561
  312MOL0     H41161   3.676   0.822   1.835 -0.7393  3.1529  0.6273
  312MOL0     H41162   3.471   0.919   2.042 -0.7577 -1.1865 -0.1630
  312MOL0     H41163   3.632   0.978   2.076  0.9983  2.9717 -1.0146
  312MOL0     H41164   3.467   1.108   1.906 -2.5508 -1.7073 -0.4201
  312MOL0     H41165   3.522   0.986   1.788 -0.1246 -2.1019 -0.0200
  312MOL0     H41166   3.386   0.663   2.466 -0.4596 -1.5607 -0.7016
  312MOL0     H41167   3.234   0.722   2.652 -0.8996  0.2784  2.3928
  312MOL0     H41168   3.159   0.874   2.963 -0.3831  0.6190 -0.4220
  312MOL0     H41169   3.013   1.020   3.091 -1.3544 -0.9689  0.3800
  312MOL0     H41170   3.003   2.190   4.640  2.1188 -0.5020  0.6135
  312MOL0     H41171   2.913   2.345   4.782  0.8753 -0.8319 -0.9242
  312MOL0     H41172   2.633   2.486   5.103  3.0341 -2.1759 -2.5371
  312MOL0     H41173   2.561   2.629   5.276  1.6261  0.1954 -0.6589
  312MOL0     H41174   2.501   2.501   5.697 -3.8429  0.7796  1.1410
  312MOL0     H41175   2.423   2.484   5.540  0.2130 -1.8494  2.8136
  312MOL0     H41176   2.473   2.738   5.690 -1.2405  2.6793 -0.5176
  312MOL0     H41177   2.382   2.711   5.527 -1.8389  0.8973  0.3069
  312MOL0     H41178   2.310   2.555   5.785  0.1431 -0.4319 -0.7437
  312MOL0     H41179   2.197   2.604   5.667  0.9399 -2.0993  0.1889
  312MOL0     H41180   2.139   2.741   5.858  0.4217  2.1733  1.8046
  312MOL0     H41181   2.311   2.765   5.895 -0.0662 -1.9024 -0.0667
  312MOL0     H41182   2.228   3.036   5.566  0.3023  0.2988 -0.5248
  312MOL0     H41183   2.720   2.339   5.560  0.5164 -0.5570  0.5882
  312MOL0     H41184   2.798   2.210   5.394  2.6071  1.1257 -2.3606
  313MOL0     O41185   7.880   6.248   7.217 -0.3683  1.1461  0.6149
  313MOL0     C41186   7.888   6.308   7.322  0.3800 -0.5605 -0.4568
  313MOL0     O41187   7.845   6.430   7.336  0.6239  0.1246 -0.1267
  313MOL0     C41188   7.724   6.475   7.281  0.5604 -0.3897  0.8941
  313MOL0     C41189   7.703   6.607   7.253  0.7102 -0.6197  0.3990
  313MOL0     C41190   7.577   6.642   7.195 -0.4020 -0.1098  0.2265
  313MOL0     C41191   7.478   6.548   7.166  0.2134  0.6600  0.6062
  313MOL0     O41192   7.357   6.591   7.127  0.0325 -0.0886 -0.2341
  313MOL0     C41193   7.344   6.596   6.981 -0.3731 -0.3062  0.3193
  313MOL0     C41194   7.196   6.649   6.948  0.0787 -0.2986 -1.1500
  313MOL0     C41195   7.174   6.615   6.804 -0.2306 -0.8132  0.5697
  313MOL0     C41196   7.035   6.660   6.750 -0.1149 -0.0900 -0.4756
  313MOL0     C41197   7.003   6.599   6.616 -1.2605 -0.7949 -0.2693
  313MOL0     C41198   6.862   6.607   6.562  0.1255 -0.4245  0.4309
  313MOL0     C41199   6.852   6.559   6.414  0.1558  0.5791  0.0255
  313MOL0     C41200   6.718   6.585   6.343  0.7328 -0.2421 -0.5840
  313MOL0     N41201   6.586   6.532   6.399  0.0759  0.1525 -0.2729
  313MOL0     C41202   6.468   6.493   6.325 -0.2123 -0.6855  0.2017
  313MOL0     C41203   6.363   6.475   6.411  1.0562  0.3901  0.1256
  313MOL0     C41204   6.225   6.424   6.374 -0.7382 -0.1931 -0.0104
  313MOL0     C41205   6.119   6.494   6.441  0.0562  0.3619 -0.3644
  313MOL0     C41206   6.110   6.646   6.447 -0.5743 -0.6023 -0.3718
  313MOL0     C41207   6.146   6.719   6.313  0.1755 -0.8583  0.0765
  313MOL0     O41208   6.043   6.688   6.206 -0.1053 -0.1799 -0.6383
  313MOL0     C41209   5.910   6.737   6.206 -0.9896 -0.3968 -0.0329
  313MOL0     C41210   5.844   6.829   6.298  0.3543  0.0072  0.6606
  313MOL0     C41211   5.728   6.890   6.260 -0.4383 -0.3566  0.1267
  313MOL0     C41212   5.662   6.859   6.144 -0.2229  0.0474  0.0337
  313MOL0     C41213   5.535   6.926   6.110 -0.5778 -0.3980 -0.8866
  313MOL0     O41214   5.495   7.029   6.199 -0.0902  0.3905 -0.8417
  313MOL0     C41215   5.373   7.085   6.179 -0.5558 -1.0686 -0.0255
  313MOL0     C41216   5.375   7.223   6.157  0.3161  0.9332 -0.0745
  313MOL0     C41217   5.260   7.298   6.155 -0.4636  0.3613 -0.4340
  313MOL0     C41218   5.132   7.232   6.167 -0.5651  0.6342 -0.4654
  313MOL0     O41219   5.010   7.291   6.189  1.0254 -0.0133 -1.1662
  313MOL0     C41220   5.012   7.424   6.232  0.0693 -0.6088 -0.4531
  313MOL0     C41221   4.868   7.463   6.271 -0.6548  0.0192  1.0814
  313MOL0     C41222   4.859   7.463   6.422  1.0286  0.1139 -0.2118
  313MOL0     C41223   4.725   7.513   6.471 -0.8950 -0.5349 -0.0369
  313MOL0     C41224   4.616   7.408   6.495 -0.0027  1.3275 -0.3508
  313MOL0     C41225   4.634   7.337   6.623 -0.6754  0.4623 -0.5972
  313MOL0     C41226   4.519   7.243   6.665  0.0506  1.4890  0.4524
  313MOL0     C41227   4.386   7.316   6.680 -0.3361 -0.3723 -0.5724
  313MOL0    Cl41228   4.298   7.229   6.815 -0.3341  0.4376 -0.2787
  313MOL0     C41229   5.134   7.093   6.187  0.2201  0.2792  0.5135
  313MOL0     C41230   5.249   7.016   6.189  0.2085  0.1222 -0.2790
  313MOL0     O41231   5.468   6.880   6.023 -0.0586  0.1958  0.0730
  313MOL0     C41232   5.717   6.765   6.056  0.3934  0.1931  0.2548
  313MOL0     C41233   5.845   6.708   6.088  0.4120 -0.1258  0.2754
  313MOL0     N41234   6.415   6.507   6.540  0.8276 -0.1277 -0.5651
  313MOL0     N41235   6.537   6.554   6.527  0.0672  0.0425 -0.9979
  313MOL0     C41236   7.502   6.415   7.204 -0.4498  0.1936  0.3183
  313MOL0     C41237   7.622   6.375   7.263 -0.1681  0.8366  0.1928
  313MOL0     C41238   7.985   6.254   7.431 -0.7202  0.2555 -0.0580
  313MOL0     C41239   8.072   6.143   7.401 -0.6054  0.4341  0.2264
  313MOL0     C41240   8.158   6.095   7.503  0.6227 -0.5180 -0.3271
  313MOL0     C41241   8.162   6.153   7.630  0.7560 -0.0253  0.5706
  313MOL0     O41242   8.231   6.098   7.733  1.1624  0.1763  1.0465
  313MOL0     C41243   8.349   6.022   7.717 -0.8100  0.3804  0.3410
  313MOL0     C41244   8.328   5.868   7.729 -0.0393  0.1012  0.0321
  313MOL0     C41245   8.254   5.816   7.858  0.9461  0.0628 -0.2239
  313MOL0     C41246   8.350   5.775   7.972  0.0232 -0.1997  0.0957
  313MOL0     C41247   8.427   5.887   8.039  0.6736  0.2367  0.4947
  313MOL0     C41248   8.493   5.978   8.087  0.5112 -0.0749  0.3179
  313MOL0     C41249   8.082   6.261   7.651  0.9742  0.4429 -0.8562
  313MOL0     C41250   7.996   6.315   7.557 -1.1471 -0.0686  0.0808
  313MOL0     H41251   7.773   6.682   7.287 -1.1323  0.5773  1.7803
  313MOL0     H41252   7.551   6.745   7.174 -2.2420 -0.8936 -1.7438
  313MOL0     H41253   7.368   6.499   6.938 -1.6465  0.2505 -1.7831
  313MOL0     H41254   7.412   6.668   6.935 -0.6716 -1.0635 -1.3664
  313MOL0     H41255   7.191   6.756   6.968  3.3665 -0.4972  1.4742
  313MOL0     H41256   7.122   6.605   7.016 -0.7632  0.9412 -1.2338
  313MOL0     H41257   7.172   6.507   6.787 -0.6545 -0.8264  0.6956
  313MOL0     H41258   7.247   6.658   6.735  0.8955 -2.4746  0.6679
  313MOL0     H41259   6.960   6.635   6.826  0.9682  1.7158  1.3196
  313MOL0     H41260   7.018   6.768   6.738  0.2696 -0.1027 -1.1101
  313MOL0     H41261   7.040   6.496   6.618  1.8934  0.2178 -0.9497
  313MOL0     H41262   7.076   6.637   6.544 -2.4760 -1.3516 -1.8437
  313MOL0     H41263   6.835   6.713   6.566 -0.0230 -0.4592  0.3585
  313MOL0     H41264   6.792   6.550   6.624  0.8813  0.7966  2.5337
  313MOL0     H41265   6.929   6.603   6.350 -0.5087  0.7762 -0.6590
  313MOL0     H41266   6.875   6.452   6.416  1.4347  0.7884 -1.5585
  313MOL0     H41267   6.735   6.547   6.241 -1.5904  0.1262 -1.1580
  313MOL0     H41268   6.712   6.690   6.315 -2.2035 -0.4331 -0.9962
  313MOL0     H41269   6.463   6.484   6.217  0.3474  2.3189 -0.1555
  313MOL0     H41270   6.232   6.319   6.404 -0.8642  0.2520  1.7101
  313MOL0     H41271   6.202   6.435   6.268 -1.7472  3.7998  0.4687
  313MOL0     H41272   6.104   6.460   6.544 -0.3632  0.4064 -0.4057
  313MOL0     H41273   6.028   6.462   6.390  1.5143 -1.1054 -2.1770
  313MOL0     H41274   6.006   6.670   6.471 -1.3672 -1.2252 -2.8915
  313MOL0     H41275   6.178   6.682   6.525 -2.6623  3.3664 -0.1147
  313MOL0     H41276   6.244   6.688   6.275 -0.4650 -1.6217 -1.0222
  313MOL0     H41277   6.152   6.825   6.339  1.9767 -1.4824  2.5840
  313MOL0     H41278   5.889   6.862   6.391  1.1414 -1.9020  1.0136
  313MOL0     H41279   5.681   6.960   6.328  1.0460 -0.1058  0.9248
  313MOL0     H41280   5.475   7.263   6.146 -0.3353  3.2894  1.8923
  313MOL0     H41281   5.273   7.405   6.141  1.9604  0.2170  0.2002
  313MOL0     H41282   5.055   7.495   6.160  0.2171  2.7995  2.6566
  313MOL0     H41283   5.083   7.426   6.316  1.5306  1.8078 -1.6128
  313MOL0     H41284   4.804   7.389   6.221 -0.1750 -0.9713  1.8907
  313MOL0     H41285   4.856   7.564   6.231  2.7790  0.6647  1.3637
  313MOL0     H41286   4.938   7.534   6.451 -0.1208  1.9597 -1.4202
  313MOL0     H41287   4.880   7.364   6.463 -2.2996 -0.6975 -0.1784
  313MOL0     H41288   4.744   7.571   6.563  1.7586  1.4262 -1.6737
  313MOL0     H41289   4.684   7.585   6.400  0.1897  0.4373  0.2945
  313MOL0     H41290   4.627   7.339   6.411 -0.9137 -2.3383  2.2843
  313MOL0     H41291   4.519   7.457   6.499 -1.8899 -2.1925  1.3453
  313MOL0     H41292   4.653   7.397   6.713 -0.1559 -0.0447 -0.3578
  313MOL0     H41293   4.721   7.271   6.612 -0.2338  0.3463  2.5658
  313MOL0     H41294   4.511   7.158   6.596  1.4991 -0.4412  2.5483
  313MOL0     H41295   4.545   7.197   6.760  1.4057 -2.5416 -1.6277
  313MOL0     H41296   4.335   7.324   6.583  1.3595  4.4887 -1.3987
  313MOL0     H41297   4.412   7.415   6.720 -0.3199 -0.4294 -0.4431
  313MOL0     H41298   5.042   7.045   6.218  2.0031 -1.1004  4.2668
  313MOL0     H41299   5.235   6.908   6.198 -1.4118  0.4240  1.3765
  313MOL0     H41300   5.684   6.746   5.955  1.5076  0.3981 -0.1573
  313MOL0     H41301   5.892   6.637   6.021  0.8070  1.1723 -0.8730
  313MOL0     H41302   7.420   6.345   7.188 -0.8350  0.9848 -1.3881
  313MOL0     H41303   7.644   6.277   7.303  1.5531  2.2153  2.9927
  313MOL0     H41304   8.064   6.083   7.311  0.0110 -1.0458  1.1206
  313MOL0     H41305   8.219   6.012   7.469  2.1357  0.3138  0.2643
  313MOL0     H41306   8.427   6.051   7.788  0.1676  1.1937 -1.0222
  313MOL0     H41307   8.388   6.043   7.617 -0.0479 -0.0471  0.5380
  313MOL0     H41308   8.279   5.832   7.638  1.4289 -2.8635  0.2985
  313MOL0     H41309   8.420   5.808   7.729  0.7609  1.2142  2.1980
  313MOL0     H41310   8.186   5.736   7.825 -1.3219  2.1953 -0.9944
  313MOL0     H41311   8.203   5.903   7.900 -2.0272  1.1658 -5.2572
  313MOL0     H41312   8.291   5.723   8.049 -1.0404  0.4221 -0.2805
  313MOL0     H41313   8.424   5.705   7.932  0.4664  0.1617  0.2846
  313MOL0     H41314   8.543   6.066   8.121  2.9184 -1.5127  0.6852
  313MOL0     H41315   8.074   6.301   7.751 -0.9652 -0.1181 -0.7452
  313MOL0     H41316   7.945   6.408   7.580  3.4252  3.0729 -0.8608
  314MOL0     O41317   1.292   0.554  11.379 -0.5894  0.2027 -0.0528
  314MOL0     C41318   1.259   0.587  11.488  0.5224 -0.3705  0.3002
  314MOL0     O41319   1.121   0.597  11.535 -0.4740 -0.6061  0.3224
  314MOL0     C41320   1.029   0.531  11.455  0.2087 -0.5532 -1.0652
  314MOL0     C41321   1.043   0.398  11.409  0.2852 -0.2749  0.4163
  314MOL0     C41322   0.943   0.347  11.328 -0.4545  0.0858 -0.7215
  314MOL0     C41323   0.823   0.422  11.313 -0.5806 -0.2492 -0.1735
  314MOL0     O41324   0.716   0.372  11.248 -0.1215  0.6190  0.9760
  314MOL0     C41325   0.595   0.354  11.316 -0.3810 -0.4390 -0.9768
  314MOL0     C41326   0.479   0.444  11.253 -0.9629  0.6331  1.5290
  314MOL0     C41327   0.340   0.395  11.282  0.1387  0.3272 -0.8908
  314MOL0     C41328   0.231   0.498  11.268 -0.3408 -0.2901  0.4875
  314MOL0     C41329   0.093   0.436  11.291 -0.6436 -0.4622 -0.6329
  314MOL0     C41330   0.040   0.321  11.205  0.1597  0.6346  0.0884
  314MOL0     C41331  -0.102   0.300  11.255  0.3510  0.4289  0.2559
  314MOL0     C41332  -0.153   0.159  11.216 -0.6200 -0.1952 -0.5439
  314MOL0     N41333  -0.217   0.148  11.082 -0.5537 -0.0348 -0.0234
  314MOL0     C41334  -0.241   0.242  10.997  0.0929 -0.8414 -0.3536
  314MOL0     C41335  -0.272   0.188  10.884  0.0450 -0.1426  0.3773
  314MOL0     C41336  -0.333   0.243  10.759 -0.8187  0.0857  0.3851
  314MOL0     C41337  -0.245   0.358  10.704  0.5919 -0.9072  0.5169
  314MOL0     C41338  -0.303   0.428  10.572 -0.2756 -0.6963 -0.9043
  314MOL0     C41339  -0.377   0.328  10.484  0.1423  0.7947 -0.1645
  314MOL0     O41340  -0.402   0.389  10.357 -0.1820 -0.1825  0.1937
  314MOL0     C41341  -0.508   0.470  10.350  0.2578 -0.9334  0.2629
  314MOL0     C41342  -0.483   0.603  10.309  0.6487 -0.2630 -0.0709
  314MOL0     C41343  -0.592   0.689  10.285  0.2033 -1.1590 -0.8627
  314MOL0     C41344  -0.725   0.631  10.305 -0.3291 -0.7325 -0.0130
  314MOL0     C41345  -0.848   0.713  10.281  0.0307  0.4842 -0.0125
  314MOL0     O41346  -0.826   0.849  10.273 -0.4547  0.8332  0.4582
  314MOL0     C41347  -0.923   0.932  10.297  0.8346  0.1528 -0.7474
  314MOL0     C41348  -1.022   0.920  10.394  0.4494  0.5577 -0.8320
  314MOL0     C41349  -1.126   1.009  10.411 -0.1959 -1.0215 -0.1441
  314MOL0     C41350  -1.120   1.127  10.325  0.8555  0.1943  0.0657
  314MOL0     O41351  -1.226   1.210  10.347  0.2443 -0.2639 -0.4238
  314MOL0     C41352  -1.202   1.355  10.335  0.0544 -0.2084 -0.1875
  314MOL0     C41353  -1.325   1.422  10.382 -0.0755  0.9710  0.0327
  314MOL0     C41354  -1.446   1.394  10.290 -0.4775  1.1537 -0.0574
  314MOL0     C41355  -1.571   1.433  10.356 -0.0794 -0.4187  0.3915
  314MOL0     C41356  -1.584   1.591  10.376 -0.5994  0.2393  0.3974
  314MOL0     C41357  -1.566   1.672  10.242  0.2325  0.6251 -0.2082
  314MOL0     C41358  -1.668   1.642  10.127 -0.3744  0.4232  0.6589
  314MOL0     C41359  -1.799   1.721  10.153  0.4438 -0.9332  0.3311
  314MOL0    Cl41360  -1.941   1.666  10.069  0.5169  0.0092  0.6081
  314MOL0     C41361  -1.014   1.153  10.242  0.4524  0.6492  0.1349
  314MOL0     C41362  -0.923   1.055  10.227 -0.8771  0.5937 -0.0053
  314MOL0     O41363  -0.958   0.656  10.288 -1.0949 -0.7121 -0.4912
  314MOL0     C41364  -0.746   0.502  10.348 -0.4869  0.0224 -0.6755
  314MOL0     C41365  -0.636   0.425  10.367  0.7265  0.3869 -0.3513
  314MOL0     N41366  -0.279   0.058  10.910  0.0675  0.2490  0.8589
  314MOL0     N41367  -0.245   0.028  11.024 -1.1908  0.5760  0.3041
  314MOL0     C41368   0.808   0.544  11.368 -0.5325  0.3372  0.0981
  314MOL0     C41369   0.910   0.607  11.438  0.1889 -0.1402  1.0919
  314MOL0     C41370   1.358   0.599  11.589 -1.0571 -0.4868 -0.4900
  314MOL0     C41371   1.491   0.565  11.552 -0.8623 -0.3863  0.0158
  314MOL0     C41372   1.600   0.598  11.636 -0.4944  1.2405 -0.1405
  314MOL0     C41373   1.568   0.666  11.757 -0.4184 -0.2555 -0.4708
  314MOL0     O41374   1.677   0.679  11.847  0.5896 -0.3909 -1.0197
  314MOL0     C41375   1.675   0.773  11.957  0.0576  0.0169  0.0260
  314MOL0     C41376   1.800   0.763  12.046 -0.3492 -0.0631  0.1761
  314MOL0     C41377   1.810   0.867  12.148 -0.2258 -0.2281 -1.0744
  314MOL0     C41378   1.929   0.854  12.236 -0.5347 -0.1782  0.0344
  314MOL0     C41379   1.939   0.726  12.312 -0.5287  0.6218  0.0021
  314MOL0     C41380   1.937   0.625  12.372  0.1200  0.7625  0.1474
  314MOL0     C41381   1.437   0.707  11.793 -0.7075 -0.2778 -0.0057
  314MOL0     C41382   1.335   0.672  11.708  1.1729  0.5933 -0.4394
  314MOL0     H41383   1.132   0.343  11.434 -1.3791 -2.7731  1.1998
  314MOL0     H41384   0.945   0.245  11.291  1.4202 -0.2914  0.2982
  314MOL0     H41385   0.587   0.385  11.421  1.3720  0.9979 -1.2066
  314MOL0     H41386   0.561   0.251  11.304  0.5489 -0.9296  0.3470
  314MOL0     H41387   0.501   0.444  11.146 -1.9985 -3.3753  1.1808
  314MOL0     H41388   0.503   0.544  11.290  2.4288  1.2138 -1.6713
  314MOL0     H41389   0.345   0.364  11.387  1.9038 -0.8862 -1.2796
  314MOL0     H41390   0.326   0.300  11.230  1.0673 -1.2609  1.5604
  314MOL0     H41391   0.258   0.587  11.327 -0.7723 -0.9787  1.7610
  314MOL0     H41392   0.244   0.506  11.160  1.2605 -2.1617  0.4976
  314MOL0     H41393   0.029   0.519  11.258 -0.1011  1.2641  2.2781
  314MOL0     H41394   0.084   0.409  11.397  0.4695 -1.0230 -0.6686
  314MOL0     H41395   0.103   0.237  11.238  0.6190  1.5119  1.5399
  314MOL0     H41396   0.062   0.353  11.103 -2.3822  1.2281 -0.3166
  314MOL0     H41397  -0.090   0.296  11.363  5.0038 -3.3384 -0.0585
  314MOL0     H41398  -0.176   0.376  11.231 -1.5270 -0.6507  2.2465
  314MOL0     H41399  -0.228   0.134  11.292  1.5450 -0.7225  1.5559
  314MOL0     H41400  -0.077   0.081  11.220  1.7756  2.0157 -0.0662
  314MOL0     H41401  -0.226   0.345  11.028  0.2909 -1.6989  2.7874
  314MOL0     H41402  -0.435   0.283  10.764  0.0196  2.4793 -0.2313
  314MOL0     H41403  -0.333   0.156  10.692  0.2397 -0.1385  0.6618
  314MOL0     H41404  -0.140   0.335  10.684  1.0030  1.6312 -0.7638
  314MOL0     H41405  -0.250   0.438  10.779 -0.0945 -2.6483  2.4114
  314MOL0     H41406  -0.353   0.519  10.604  1.1966  1.1978 -3.5278
  314MOL0     H41407  -0.235   0.462  10.493  1.6774 -0.3490  0.8514
  314MOL0     H41408  -0.474   0.300  10.526  1.3180 -0.1127  2.0808
  314MOL0     H41409  -0.317   0.237  10.474 -1.9321 -0.8466  1.5059
  314MOL0     H41410  -0.386   0.650  10.293 -0.1133  1.6885  0.8054
  314MOL0     H41411  -0.582   0.796  10.272 -2.7480 -0.2907  2.3975
  314MOL0     H41412  -1.020   0.827  10.450  0.5965  2.9868  3.6661
  314MOL0     H41413  -1.212   1.007  10.477 -0.0879 -0.1944  0.0339
  314MOL0     H41414  -1.179   1.399  10.238  2.4590 -0.4676  0.1968
  314MOL0     H41415  -1.119   1.375  10.404  0.3294 -1.2097 -0.2196
  314MOL0     H41416  -1.305   1.528  10.396  0.1260  0.9102  0.2082
  314MOL0     H41417  -1.352   1.383  10.481 -0.2773  2.0793  0.4226
  314MOL0     H41418  -1.453   1.293  10.247  1.2347  2.0624 -2.7593
  314MOL0     H41419  -1.439   1.454  10.199  1.9620 -2.8992 -2.9081
  314MOL0     H41420  -1.647   1.394  10.287 -0.1479 -1.2711  0.9270
  314MOL0     H41421  -1.585   1.390  10.456 -2.6053 -0.5939  0.0465
  314MOL0     H41422  -1.507   1.624  10.447  0.6225 -0.1726 -0.6909
  314MOL0     H41423  -1.682   1.614  10.418 -0.7670  1.7039 -0.7093
  314MOL0     H41424  -1.462   1.663  10.211  0.6135 -0.8129  1.3033
  314MOL0     H41425  -1.580   1.776  10.272 -4.7162  1.0273 -3.0055
  314MOL0     H41426  -1.619   1.677  10.035  0.3606  0.2996  0.9961
  314MOL0     H41427  -1.692   1.535  10.123 -2.1245  0.8169 -1.8958
  314MOL0     H41428  -1.781   1.828  10.138 -0.8286 -0.2158  3.2551
  314MOL0     H41429  -1.826   1.714  10.259  0.8195  0.6085  0.5595
  314MOL0     H41430  -0.990   1.247  10.193  4.0435 -0.1717  0.0293
  314MOL0     H41431  -0.840   1.070  10.160 -0.0321 -0.2097  0.8168
  314MOL0     H41432  -0.842   0.452  10.357 -0.4986  0.1037 -0.3319
  314MOL0     H41433  -0.652   0.323  10.402  1.1364  0.6279  0.5676
  314MOL0     H41434   0.712   0.593  11.353 -0.8697 -1.1592 -3.7917
  314MOL0     H41435   0.885   0.710  11.461 -2.8998 -0.0486 -1.8799
  314MOL0     H41436   1.517   0.504  11.466  1.6749  1.9167 -1.0046
  314MOL0     H41437   1.698   0.555  11.615 -0.1193 -0.3296  4.0168
  314MOL0     H41438   1.585   0.762  12.019 -0.7383  0.8394 -0.9389
  314MOL0     H41439   1.664   0.871  11.908  0.4722  0.0830  0.0606
  314MOL0     H41440   1.781   0.669  12.098 -0.8998  0.3579  0.7468
  314MOL0     H41441   1.891   0.766  11.984  0.9533  0.5192  2.0261
  314MOL0     H41442   1.718   0.870  12.207  0.4122 -2.9600  0.2457
  314MOL0     H41443   1.813   0.966  12.103  0.7163 -0.9950 -2.8008
  314MOL0     H41444   2.018   0.871  12.175  1.3485 -1.2580  2.3012
  314MOL0     H41445   1.930   0.934  12.311  0.2593  0.2400 -0.4056
  314MOL0     H41446   1.918   0.537  12.429 -2.4937  1.5259  0.5752
  314MOL0     H41447   1.406   0.756  11.885 -2.3562 -0.2464 -0.5428
  314MOL0     H41448   1.239   0.721  11.718  0.3324 -0.7639 -1.4132
  315MOL0     O41449   0.690   7.129   3.541 -0.3489 -0.4763  0.4931
  315MOL0     C41450   0.815   7.111   3.553 -1.0607 -0.5901 -0.2592
  315MOL0     O41451   0.881   6.994   3.513  0.3297  0.1269  0.2094
  315MOL0     C41452   0.801   6.890   3.484  0.8741  0.0569 -0.1255
  315MOL0     C41453   0.753   6.787   3.568 -0.7832  0.4414  0.4386
  315MOL0     C41454   0.683   6.676   3.518 -0.5476  1.1222  0.0767
  315MOL0     C41455   0.646   6.669   3.379 -0.7458 -0.2561 -1.4051
  315MOL0     O41456   0.583   6.552   3.342 -0.6050  0.2607  0.3883
  315MOL0     C41457   0.516   6.559   3.218 -0.2736  0.0750  0.9345
  315MOL0     C41458   0.433   6.435   3.218  0.3493 -0.4531  0.0903
  315MOL0     C41459   0.293   6.453   3.264  0.1927 -0.9596 -1.0325
  315MOL0     C41460   0.203   6.323   3.272 -0.2125  0.1585  0.2615
  315MOL0     C41461   0.052   6.339   3.306  1.0734 -0.3746  0.3753
  315MOL0     C41462  -0.030   6.206   3.341  0.5158  0.1321 -0.2246
  315MOL0     C41463   0.028   6.133   3.453 -0.7792  0.3707  0.4012
  315MOL0     C41464  -0.052   5.995   3.475  0.0011 -0.9628  0.3348
  315MOL0     N41465  -0.189   5.979   3.422 -0.7010  0.1828 -0.0654
  315MOL0     C41466  -0.290   6.069   3.445  0.1053  0.2087  0.2593
  315MOL0     C41467  -0.396   6.000   3.392  0.5080  1.2715 -0.1603
  315MOL0     C41468  -0.548   6.052   3.390 -0.1779  0.3218  0.2977
  315MOL0     C41469  -0.543   6.208   3.383 -0.6840  0.5075  0.0260
  315MOL0     C41470  -0.682   6.260   3.361 -0.5923  0.7186 -0.6450
  315MOL0     C41471  -0.736   6.241   3.225 -0.1654 -0.7487  0.3839
  315MOL0     O41472  -0.844   6.333   3.222  0.4338  0.5630  0.2792
  315MOL0     C41473  -0.932   6.314   3.124  0.8907  0.6497 -0.1669
  315MOL0     C41474  -1.049   6.389   3.135 -0.4585 -0.3398 -0.6515
  315MOL0     C41475  -1.142   6.388   3.031  0.6532  0.5147  1.0846
  315MOL0     C41476  -1.112   6.316   2.908  0.9394 -1.2107  0.6445
  315MOL0     C41477  -1.211   6.322   2.794  0.4527 -0.1288  0.6875
  315MOL0     O41478  -1.308   6.417   2.794  0.4362 -0.1183  0.3228
  315MOL0     C41479  -1.385   6.457   2.687 -0.7815 -0.3618  0.4080
  315MOL0     C41480  -1.398   6.598   2.672  0.0296  0.5917 -0.2032
  315MOL0     C41481  -1.471   6.651   2.562 -0.7621  0.3979 -0.2492
  315MOL0     C41482  -1.526   6.564   2.467 -0.3680  0.3031 -0.3072
  315MOL0     O41483  -1.602   6.616   2.365  0.1709 -0.0676 -0.4060
  315MOL0     C41484  -1.719   6.693   2.396  0.0312 -0.1998 -0.3239
  315MOL0     C41485  -1.834   6.656   2.305  0.3275 -0.2200  1.0394
  315MOL0     C41486  -1.790   6.660   2.157  0.2617 -0.6002  0.1883
  315MOL0     C41487  -1.881   6.563   2.077 -0.0562 -0.3168 -0.4912
  315MOL0     C41488  -1.855   6.591   1.928 -0.8059 -0.9828 -0.4444
  315MOL0     C41489  -1.946   6.512   1.848 -0.3383 -0.2586  0.1051
  315MOL0     C41490  -2.070   6.597   1.821 -0.3593 -0.3218  1.0100
  315MOL0     C41491  -2.187   6.505   1.759 -0.1482 -0.6899 -0.7533
  315MOL0    Cl41492  -2.256   6.391   1.886 -0.5488  0.2157  0.0050
  315MOL0     C41493  -1.516   6.427   2.492  0.4152 -0.7867 -0.4083
  315MOL0     C41494  -1.443   6.369   2.591 -0.3219 -0.1749 -1.2021
  315MOL0     O41495  -1.209   6.229   2.708 -0.1521  0.3406  0.3251
  315MOL0     C41496  -0.992   6.245   2.900  0.3971 -0.1104  0.3845
  315MOL0     C41497  -0.906   6.247   3.006  0.3553  0.5371 -0.4009
  315MOL0     N41498  -0.354   5.878   3.338 -0.5444  0.5143  0.1353
  315MOL0     N41499  -0.224   5.866   3.362  0.6793 -0.0274  0.3105
  315MOL0     C41500   0.687   6.783   3.294  0.0930 -0.0443  0.1723
  315MOL0     C41501   0.767   6.888   3.343 -0.3989  0.3211  0.3321
  315MOL0     C41502   0.907   7.231   3.600 -0.0268  0.6957  0.2368
  315MOL0     C41503   0.858   7.352   3.645 -0.1094 -0.0040  0.3395
  315MOL0     C41504   0.940   7.457   3.678  0.7605 -0.2473  0.3041
  315MOL0     C41505   1.076   7.438   3.684 -0.0877 -0.4635 -0.3331
  315MOL0     O41506   1.162   7.543   3.728 -0.6658  0.0701  0.5932
  315MOL0     C41507   1.123   7.678   3.746  0.0471  1.1578 -0.0220
  315MOL0     C41508   1.074   7.714   3.883  0.6468 -0.2577 -1.0273
  315MOL0     C41509   1.151   7.636   3.992 -0.4385 -0.0707  1.7929
  315MOL0     C41510   1.077   7.639   4.128  0.3871  0.0875  0.1067
  315MOL0     C41511   1.048   7.773   4.184 -0.9033 -1.3373  0.6257
  315MOL0     C41512   1.033   7.884   4.231 -0.1969  0.5408  0.0434
  315MOL0     C41513   1.128   7.312   3.642 -0.8800 -0.5679 -0.7395
  315MOL0     C41514   1.047   7.211   3.593  0.7305  0.4335 -0.2296
  315MOL0     H41515   0.772   6.799   3.674 -0.3747  2.5212  0.1749
  315MOL0     H41516   0.642   6.598   3.581 -0.5761  0.3400 -0.9020
  315MOL0     H41517   0.590   6.566   3.137 -0.2683  3.0368  1.1124
  315MOL0     H41518   0.448   6.644   3.207 -0.3667 -0.2286 -1.4063
  315MOL0     H41519   0.491   6.358   3.271  0.1312  1.2810  3.0015
  315MOL0     H41520   0.416   6.401   3.115 -0.1703 -4.6930  1.3865
  315MOL0     H41521   0.236   6.529   3.210 -1.2756 -1.4244 -0.2240
  315MOL0     H41522   0.306   6.489   3.366 -0.9949 -1.8220 -0.5392
  315MOL0     H41523   0.221   6.265   3.181  1.9677  1.9893 -0.5854
  315MOL0     H41524   0.249   6.267   3.354 -1.8574 -2.1738 -0.3141
  315MOL0     H41525   0.011   6.379   3.213  1.3140 -2.1813 -0.5526
  315MOL0     H41526   0.050   6.421   3.379 -1.8618  1.8057 -1.9266
  315MOL0     H41527  -0.037   6.145   3.251 -2.6543  0.4402 -0.2986
  315MOL0     H41528  -0.130   6.235   3.373  0.0045 -2.6642  1.0236
  315MOL0     H41529   0.132   6.107   3.431 -1.1979  0.0071 -1.3236
  315MOL0     H41530   0.015   6.202   3.537  1.5479  0.5591  0.6874
  315MOL0     H41531  -0.055   5.984   3.584 -0.4097 -3.3106  0.1509
  315MOL0     H41532   0.011   5.919   3.428  0.1646  1.1084 -3.1433
  315MOL0     H41533  -0.288   6.168   3.490 -0.1367  0.3528 -0.0449
  315MOL0     H41534  -0.595   6.024   3.485  2.7608 -1.0453  1.4552
  315MOL0     H41535  -0.610   6.009   3.311 -1.8537  0.9077  1.2426
  315MOL0     H41536  -0.468   6.242   3.311 -0.4921  2.1351  0.9547
  315MOL0     H41537  -0.500   6.237   3.479  3.7839 -0.3234 -1.4499
  315MOL0     H41538  -0.752   6.216   3.432  2.8952 -0.1984  2.5603
  315MOL0     H41539  -0.668   6.366   3.387  2.3870  0.6643 -1.6284
  315MOL0     H41540  -0.757   6.136   3.204  2.0521 -1.3433  0.8912
  315MOL0     H41541  -0.671   6.284   3.148  0.6729 -0.7353  1.0889
  315MOL0     H41542  -1.070   6.442   3.228  1.0731  2.3270 -1.7084
  315MOL0     H41543  -1.240   6.433   3.044  1.1141  0.6594  5.7999
  315MOL0     H41544  -1.345   6.671   2.731 -1.1321  0.1982  1.3829
  315MOL0     H41545  -1.494   6.756   2.554  0.0032  0.6348  0.4711
  315MOL0     H41546  -1.703   6.800   2.379  1.7895 -0.2632  0.6956
  315MOL0     H41547  -1.732   6.701   2.504  2.9153  1.9059 -0.0131
  315MOL0     H41548  -1.922   6.719   2.320 -0.3093 -0.8596  0.1043
  315MOL0     H41549  -1.867   6.553   2.319  0.0947 -0.5043 -1.2292
  315MOL0     H41550  -1.692   6.619   2.131  0.8805  1.9069 -1.9419
  315MOL0     H41551  -1.791   6.766   2.129  3.5761  1.1812  5.3643
  315MOL0     H41552  -1.852   6.460   2.099  2.0301  0.7172  2.0156
  315MOL0     H41553  -1.987   6.581   2.099 -0.6517 -2.7449 -1.0755
  315MOL0     H41554  -1.753   6.556   1.909  0.0488  1.1476 -0.0632
  315MOL0     H41555  -1.853   6.700   1.917  3.0554 -0.2864  3.9067
  315MOL0     H41556  -1.984   6.425   1.902 -0.8414 -1.0007 -1.4104
  315MOL0     H41557  -1.899   6.479   1.756 -1.6154 -3.0791  0.3743
  315MOL0     H41558  -2.097   6.654   1.911  0.5904  1.4015  0.2435
  315MOL0     H41559  -2.049   6.672   1.745 -3.2112  2.6782  2.9096
  315MOL0     H41560  -2.160   6.443   1.673  0.2163  0.7051 -1.6800
  315MOL0     H41561  -2.266   6.571   1.722 -0.5493  0.2110  1.5431
  315MOL0     H41562  -1.567   6.357   2.427  1.2957 -2.7591  0.9279
  315MOL0     H41563  -1.439   6.263   2.611 -0.2829 -0.5044 -2.8091
  315MOL0     H41564  -0.954   6.200   2.809  2.0929  1.0992  0.4495
  315MOL0     H41565  -0.810   6.201   2.985  1.4364  1.6822  1.6901
  315MOL0     H41566   0.653   6.810   3.194  0.9087 -0.6972 -0.2963
  315MOL0     H41567   0.788   6.978   3.286  0.7685 -0.5985 -0.7356
  315MOL0     H41568   0.750   7.363   3.630  0.0980  1.3566 -0.3577
  315MOL0     H41569   0.889   7.545   3.717  3.8249  1.2434  1.2569
  315MOL0     H41570   1.039   7.698   3.679  2.0799  0.4022 -3.0125
  315MOL0     H41571   1.201   7.744   3.709 -1.3080  2.0087 -1.4511
  315MOL0     H41572   1.080   7.820   3.910 -1.2916 -0.8790  2.5142
  315MOL0     H41573   0.970   7.685   3.899 -0.4915  2.4331 -2.9414
  315MOL0     H41574   1.243   7.693   4.009 -2.9934  5.3941 -0.3469
  315MOL0     H41575   1.164   7.533   3.955 -0.6201  0.6281 -0.3643
  315MOL0     H41576   0.980   7.593   4.108 -0.1436  1.2465 -0.0969
  315MOL0     H41577   1.131   7.580   4.202 -0.2114 -2.9289 -1.7249
  315MOL0     H41578   1.036   7.982   4.275  0.8753  2.2159 -3.3430
  315MOL0     H41579   1.235   7.307   3.658 -0.9227  0.0605 -0.1927
  315MOL0     H41580   1.104   7.121   3.573  0.6031  0.0980  0.8634
  316MOL0     O41581   1.351   3.030   6.736  0.5830  0.0571  0.0381
  316MOL0     C41582   1.451   3.090   6.771 -0.2352 -1.0387 -0.9672
  316MOL0     O41583   1.541   3.049   6.859 -0.0407 -0.9214 -0.2844
  316MOL0     C41584   1.557   2.917   6.889  0.6696  0.1539  0.2406
  316MOL0     C41585   1.534   2.804   6.798  0.6634  0.0883 -0.6644
  316MOL0     C41586   1.554   2.674   6.846 -0.3278  0.0820  0.0755
  316MOL0     C41587   1.614   2.651   6.972  0.2440 -0.3131 -0.0171
  316MOL0     O41588   1.644   2.519   7.009  0.0829 -0.1301  0.6860
  316MOL0     C41589   1.534   2.453   7.068 -0.9283 -0.3542  0.2682
  316MOL0     C41590   1.561   2.305   7.053 -0.2980  0.0630 -0.6398
  316MOL0     C41591   1.549   2.262   6.911  0.4118  0.1356  0.3529
  316MOL0     C41592   1.552   2.108   6.896 -0.1192 -0.1794  0.3987
  316MOL0     C41593   1.558   2.070   6.746 -0.1420 -0.1419  0.6399
  316MOL0     C41594   1.597   1.925   6.735  0.0395 -0.8555 -0.7373
  316MOL0     C41595   1.630   1.884   6.591  0.9191  0.5587  0.2485
  316MOL0     C41596   1.661   1.746   6.561 -0.0136 -0.8856 -1.1023
  316MOL0     N41597   1.766   1.674   6.642 -0.2721 -0.4299  0.2822
  316MOL0     C41598   1.753   1.617   6.765 -0.1260 -0.3637 -0.4601
  316MOL0     C41599   1.887   1.611   6.820 -0.7515 -0.5593  0.6092
  316MOL0     C41600   1.923   1.542   6.950 -0.6143  0.2088  0.3521
  316MOL0     C41601   2.060   1.580   7.011 -0.0752  0.2116 -0.5164
  316MOL0     C41602   2.191   1.576   6.928  0.2747  0.1515 -0.5087
  316MOL0     C41603   2.205   1.451   6.833 -0.9013  0.3826 -0.1787
  316MOL0     O41604   2.152   1.331   6.907 -0.4456  0.6598  0.3855
  316MOL0     C41605   2.148   1.213   6.829  1.0398 -0.1999 -0.5786
  316MOL0     C41606   2.202   1.198   6.701  0.8928  0.5257  0.0694
  316MOL0     C41607   2.178   1.079   6.632 -0.9782  0.7613 -0.5898
  316MOL0     C41608   2.104   0.964   6.696  0.2444 -0.5636  0.6378
  316MOL0     C41609   2.070   0.840   6.614  0.1641 -0.0511  0.5427
  316MOL0     O41610   2.132   0.836   6.497 -0.3415 -0.7681  0.3846
  316MOL0     C41611   2.112   0.734   6.403 -0.2616  0.1818  0.2893
  316MOL0     C41612   2.020   0.628   6.402 -0.6757 -0.6901 -0.3329
  316MOL0     C41613   2.030   0.532   6.300  0.9978  0.1272 -0.2205
  316MOL0     C41614   2.118   0.538   6.197  0.2933 -0.5436  0.8220
  316MOL0     O41615   2.092   0.445   6.100 -0.4945 -0.4131 -0.3194
  316MOL0     C41616   2.181   0.457   5.982  0.6159  0.2650 -0.7431
  316MOL0     C41617   2.124   0.551   5.874  0.1876  0.3812  1.0330
  316MOL0     C41618   2.240   0.591   5.780 -0.7663 -0.9700  0.0285
  316MOL0     C41619   2.207   0.663   5.655  0.6292 -0.3861  0.8180
  316MOL0     C41620   2.284   0.600   5.536  0.4269  0.3347  0.4648
  316MOL0     C41621   2.251   0.452   5.502 -0.4434  1.6255 -0.1639
  316MOL0     C41622   2.345   0.407   5.389  0.4023 -0.3138 -0.4200
  316MOL0     C41623   2.293   0.441   5.252  0.3465  0.0669 -0.2600
  316MOL0    Cl41624   2.422   0.423   5.132  0.1025 -0.2770 -0.5064
  316MOL0     C41625   2.194   0.649   6.190  0.4879  0.0441 -0.2459
  316MOL0     C41626   2.202   0.744   6.292 -0.4934 -0.7241  0.3950
  316MOL0     O41627   2.008   0.756   6.675  0.6914 -0.2464 -0.6638
  316MOL0     C41628   2.060   0.985   6.822  0.0705 -0.1825 -0.3332
  316MOL0     C41629   2.092   1.102   6.893 -0.5941  0.0638  0.1774
  316MOL0     N41630   1.968   1.663   6.719  0.4705 -0.0749  0.1794
  316MOL0     N41631   1.901   1.690   6.614  0.7016  0.7582  0.7963
  316MOL0     C41632   1.630   2.760   7.051  0.0665 -0.4042  0.2045
  316MOL0     C41633   1.606   2.894   7.015 -0.4012  0.4395  0.6341
  316MOL0     C41634   1.477   3.220   6.703 -1.2709  0.9556 -0.0651
  316MOL0     C41635   1.378   3.315   6.682 -0.9209  0.6554  0.8010
  316MOL0     C41636   1.396   3.440   6.620 -0.7417 -0.0703 -0.0541
  316MOL0     C41637   1.529   3.465   6.575  0.1898 -0.3058 -0.2185
  316MOL0     O41638   1.571   3.582   6.515 -1.0584 -0.3901  0.2641
  316MOL0     C41639   1.472   3.683   6.487  0.1680 -0.5207 -1.1788
  316MOL0     C41640   1.542   3.812   6.446  0.0973  1.5656  0.1332
  316MOL0     C41641   1.630   3.874   6.558 -0.1826 -0.8588  0.2176
  316MOL0     C41642   1.721   3.989   6.506  0.0441  0.0167  0.5881
  316MOL0     C41643   1.845   4.032   6.573  0.3726  1.0417  0.4825
  316MOL0     C41644   1.934   4.077   6.648  0.2723  0.8783  0.8130
  316MOL0     C41645   1.641   3.385   6.598 -0.2274  0.7252  0.1366
  316MOL0     C41646   1.610   3.261   6.661  0.7635 -0.4717 -0.2668
  316MOL0     H41647   1.494   2.814   6.697  0.0079  0.1881 -0.3979
  316MOL0     H41648   1.522   2.590   6.785 -1.4593 -2.3944  3.7352
  316MOL0     H41649   1.437   2.490   7.034  0.3328  1.4882 -1.5335
  316MOL0     H41650   1.545   2.478   7.174  1.5675 -1.0862  0.2601
  316MOL0     H41651   1.487   2.260   7.121 -2.1788  0.0512 -2.5858
  316MOL0     H41652   1.660   2.273   7.086 -0.4059 -0.0152 -0.3833
  316MOL0     H41653   1.618   2.322   6.850  0.5636  0.3254  0.7113
  316MOL0     H41654   1.453   2.286   6.864  1.0580 -1.1918 -1.8068
  316MOL0     H41655   1.620   2.061   6.968 -1.4802 -1.1732  1.0654
  316MOL0     H41656   1.450   2.078   6.920  0.1044 -4.3984 -2.8328
  316MOL0     H41657   1.635   2.126   6.693  0.3366 -1.4409 -0.0606
  316MOL0     H41658   1.458   2.077   6.701  1.0955  0.7232 -2.1628
  316MOL0     H41659   1.518   1.857   6.770 -0.8682  0.7593  0.4726
  316MOL0     H41660   1.679   1.902   6.804  0.1976  1.5301 -0.0358
  316MOL0     H41661   1.549   1.914   6.523 -0.3108  0.6120  1.7008
  316MOL0     H41662   1.704   1.943   6.536  0.4295  0.1928 -0.8273
  316MOL0     H41663   1.694   1.735   6.457  1.5630 -0.7433 -0.6543
  316MOL0     H41664   1.569   1.688   6.570 -1.1635  0.6670 -2.3980
  316MOL0     H41665   1.654   1.598   6.804 -0.7030 -0.8927 -2.0834
  316MOL0     H41666   1.925   1.435   6.930 -2.2403  0.2609 -0.2851
  316MOL0     H41667   1.845   1.558   7.026  0.4702  1.2364  1.2939
  316MOL0     H41668   2.075   1.521   7.101 -1.0972  0.6129 -0.0549
  316MOL0     H41669   2.059   1.682   7.051 -0.4681  0.4426 -1.0951
  316MOL0     H41670   2.194   1.666   6.866 -2.2617  0.5675 -0.1208
  316MOL0     H41671   2.278   1.596   6.992  0.7652  0.4993 -1.2735
  316MOL0     H41672   2.310   1.445   6.803 -0.8936 -1.2892  0.0491
  316MOL0     H41673   2.153   1.474   6.740  0.4550  1.4462 -0.7076
  316MOL0     H41674   2.264   1.274   6.656  1.3551 -0.3967 -0.8914
  316MOL0     H41675   2.231   1.072   6.538  0.3219  0.4016  0.1466
  316MOL0     H41676   1.941   0.629   6.476 -0.2842  0.5764  0.0986
  316MOL0     H41677   1.956   0.454   6.287 -2.6649  3.6433 -2.7859
  316MOL0     H41678   2.194   0.355   5.945 -1.5138  0.7593 -3.1227
  316MOL0     H41679   2.281   0.491   6.012 -1.2842  2.2855  4.2872
  316MOL0     H41680   2.075   0.642   5.912 -1.0071  0.9169 -1.5953
  316MOL0     H41681   2.051   0.501   5.811 -0.3467 -0.5213  2.3190
  316MOL0     H41682   2.305   0.506   5.757  1.0233 -0.4285  2.6794
  316MOL0     H41683   2.303   0.657   5.840 -1.9824  1.2393 -0.9703
  316MOL0     H41684   2.104   0.629   5.640  1.3392 -2.6835  0.7856
  316MOL0     H41685   2.204   0.773   5.651 -2.2140 -0.3139  2.2404
  316MOL0     H41686   2.392   0.614   5.550  0.8067 -1.3649 -0.5154
  316MOL0     H41687   2.260   0.651   5.442  1.1047 -4.0477 -2.3671
  316MOL0     H41688   2.144   0.446   5.480  0.0752 -1.9509 -2.4422
  316MOL0     H41689   2.277   0.382   5.582 -1.2451  0.2716 -1.0581
  316MOL0     H41690   2.432   0.472   5.401 -1.3473  1.7072  2.9561
  316MOL0     H41691   2.366   0.300   5.394 -1.0894 -0.7670 -2.5315
  316MOL0     H41692   2.242   0.538   5.250  2.2787  1.4645  4.5520
  316MOL0     H41693   2.209   0.375   5.229  0.6045 -0.0756 -0.8434
  316MOL0     H41694   2.243   0.658   6.094 -0.8159 -3.0549 -1.3330
  316MOL0     H41695   2.268   0.829   6.281 -1.0801 -0.0758  1.6825
  316MOL0     H41696   1.998   0.905   6.862  1.0340 -1.6422 -1.6349
  316MOL0     H41697   2.048   1.116   6.991 -2.0817  1.5891 -0.6574
  316MOL0     H41698   1.671   2.744   7.151 -0.0234  0.1462  0.3285
  316MOL0     H41699   1.624   2.972   7.088  0.9321  0.2283  0.5629
  316MOL0     H41700   1.278   3.287   6.714 -0.9884 -2.3289 -1.5505
  316MOL0     H41701   1.310   3.503   6.600  0.7715  1.7193 -1.4006
  316MOL0     H41702   1.408   3.699   6.574 -2.7198 -0.6849 -3.1571
  316MOL0     H41703   1.396   3.652   6.414 -1.6337  0.7141  0.0946
  316MOL0     H41704   1.581   3.805   6.344 -1.4533  3.8188 -0.6858
  316MOL0     H41705   1.449   3.870   6.437 -0.4478  0.9037  1.3009
  316MOL0     H41706   1.695   3.793   6.592  0.0861 -1.0062 -0.6254
  316MOL0     H41707   1.573   3.916   6.642  2.0286  4.3892 -0.5011
  316MOL0     H41708   1.751   3.957   6.405 -1.5820 -2.3110  0.7640
  316MOL0     H41709   1.655   4.074   6.490 -0.2720 -0.3322 -0.0028
  316MOL0     H41710   2.014   4.117   6.708 -0.2860  1.1157  1.4090
  316MOL0     H41711   1.744   3.412   6.578 -0.2016  0.6394  0.1528
  316MOL0     H41712   1.689   3.188   6.677 -0.5347 -2.4191 -2.0898
  317MOL0     O41713   7.252   6.439   9.004 -0.2389 -0.2855  0.1734
  317MOL0     C41714   7.152   6.472   8.936 -0.1270 -0.2150 -1.1504
  317MOL0     O41715   7.050   6.542   8.980  1.0014 -0.0267  0.0666
  317MOL0     C41716   7.047   6.567   9.111 -0.5940 -0.4014  0.1277
  317MOL0     C41717   7.112   6.675   9.170  0.4939  0.0100  0.3280
  317MOL0     C41718   7.106   6.689   9.310  0.5676  1.1787  0.6924
  317MOL0     C41719   7.039   6.597   9.388  0.3684 -0.4192  0.1863
  317MOL0     O41720   7.040   6.603   9.527  0.9338 -0.3405  0.0866
  317MOL0     C41721   7.144   6.667   9.599 -0.5116 -0.0596 -0.5243
  317MOL0     C41722   7.275   6.590   9.604 -0.1508  0.4968  0.1554
  317MOL0     C41723   7.375   6.650   9.705 -1.0726 -0.7350 -0.6263
  317MOL0     C41724   7.331   6.632   9.847  0.6177 -1.2482  0.3519
  317MOL0     C41725   7.454   6.664   9.944  0.3312 -0.1995 -0.5074
  317MOL0     C41726   7.423   6.642  10.089  0.0870 -0.4978  0.6041
  317MOL0     C41727   7.420   6.491  10.124  0.3466  0.2751  0.2172
  317MOL0     C41728   7.337   6.470  10.245  0.4932  0.2185 -1.1397
  317MOL0     N41729   7.197   6.505  10.206  0.8596  0.5138  0.1128
  317MOL0     C41730   7.110   6.449  10.116 -0.0304  0.4585  0.3147
  317MOL0     C41731   6.993   6.518  10.124 -0.5682 -0.1121 -0.6762
  317MOL0     C41732   6.880   6.497  10.024  0.0506  0.7392 -0.2856
  317MOL0     C41733   6.756   6.422  10.093  0.7769  0.6297 -0.0640
  317MOL0     C41734   6.626   6.465  10.018 -1.1296  0.8528 -0.4497
  317MOL0     C41735   6.501   6.416  10.091 -0.0467  0.7251 -0.3612
  317MOL0     O41736   6.502   6.450  10.236  0.4207  0.1049 -0.4807
  317MOL0     C41737   6.402   6.527  10.281  0.9444  1.0442 -0.0456
  317MOL0     C41738   6.278   6.473  10.316  0.2855  0.1787  0.5465
  317MOL0     C41739   6.170   6.554  10.352 -0.3797  0.0996 -0.1390
  317MOL0     C41740   6.189   6.694  10.352 -0.2261  0.1518 -0.4169
  317MOL0     C41741   6.061   6.767  10.381  0.1174 -0.6248  0.3066
  317MOL0     O41742   5.971   6.716  10.480  0.2838 -0.4483  0.1142
  317MOL0     C41743   5.862   6.785  10.512  1.3960 -0.3980  0.5958
  317MOL0     C41744   5.863   6.925  10.524  0.2949  0.1845  0.4005
  317MOL0     C41745   5.742   6.992  10.558 -1.1476  0.4874 -1.1867
  317MOL0     C41746   5.632   6.917  10.604 -0.3326  0.1057  0.1360
  317MOL0     O41747   5.522   6.996  10.623  0.1172  0.2487  0.1093
  317MOL0     C41748   5.417   6.931  10.696  0.6601  0.6956  0.8370
  317MOL0     C41749   5.303   7.027  10.698 -0.6525  0.4999 -0.3782
  317MOL0     C41750   5.294   7.080  10.847 -0.0562  0.9686 -0.2355
  317MOL0     C41751   5.157   7.157  10.864 -0.0427  0.1661 -0.9135
  317MOL0     C41752   5.179   7.246  10.997 -0.3196  0.3919  0.1725
  317MOL0     C41753   5.050   7.265  11.070  0.9249 -0.2311  0.3270
  317MOL0     C41754   5.053   7.369  11.180 -0.3909 -0.4348  0.3568
  317MOL0     C41755   4.924   7.362  11.258 -0.8263  0.5366 -0.6674
  317MOL0    Cl41756   4.795   7.424  11.149  0.1384  0.2093  0.2181
  317MOL0     C41757   5.639   6.779  10.593 -0.6925  0.3923  0.1706
  317MOL0     C41758   5.747   6.718  10.553 -0.7323  0.7167  0.4483
  317MOL0     O41759   6.050   6.871  10.313  0.3584  0.4715 -0.2470
  317MOL0     C41760   6.315   6.751  10.331 -0.1602 -0.5359 -0.2124
  317MOL0     C41761   6.423   6.668  10.295  0.1442  0.0233 -0.1306
  317MOL0     N41762   7.012   6.612  10.218  0.3973 -0.3322  0.3425
  317MOL0     N41763   7.129   6.598  10.274 -0.2173 -0.3318 -0.3154
  317MOL0     C41764   6.967   6.495   9.327 -0.9733  0.3745  0.2054
  317MOL0     C41765   6.972   6.487   9.190 -0.1784  0.5388 -0.0907
  317MOL0     C41766   7.131   6.422   8.806  0.5029  0.1681 -0.6842
  317MOL0     C41767   7.209   6.316   8.749  0.0793 -0.5641  0.1015
  317MOL0     C41768   7.180   6.257   8.625  0.0675  0.1512 -1.0960
  317MOL0     C41769   7.058   6.288   8.572  0.4825  0.2033  0.5546
  317MOL0     O41770   7.018   6.236   8.448 -0.0720 -0.0289 -0.6063
  317MOL0     C41771   6.993   6.096   8.442  0.4521  0.4043  0.5745
  317MOL0     C41772   6.851   6.061   8.478  0.7440  0.7180  0.7740
  317MOL0     C41773   6.804   5.947   8.398  0.3304 -0.4627 -0.1401
  317MOL0     C41774   6.653   5.911   8.423  0.0622 -0.6738  0.4470
  317MOL0     C41775   6.621   5.896   8.559  0.6887 -0.4499 -0.3221
  317MOL0     C41776   6.573   5.887   8.671 -0.5661 -0.2282  0.1818
  317MOL0     C41777   6.974   6.382   8.627 -0.0865 -0.7628 -0.0197
  317MOL0     C41778   7.014   6.467   8.730  0.5733 -0.1698  0.1361
  317MOL0     H41779   7.171   6.730   9.097 -1.2457 -2.9013 -3.7064
  317MOL0     H41780   7.143   6.784   9.345  0.3847  1.2554  0.6766
  317MOL0     H41781   7.112   6.670   9.704  1.8828  0.0989  0.2681
  317MOL0     H41782   7.162   6.770   9.564 -2.0138 -0.5395 -2.9506
  317MOL0     H41783   7.327   6.602   9.508  1.0486  0.8705  0.8304
  317MOL0     H41784   7.262   6.483   9.620  3.6170 -0.6112 -2.7151
  317MOL0     H41785   7.383   6.758   9.687 -0.9330 -0.0221  2.8924
  317MOL0     H41786   7.477   6.611   9.697 -0.1060  1.0079  1.6953
  317MOL0     H41787   7.254   6.701   9.880 -0.1422 -1.3313 -1.1827
  317MOL0     H41788   7.283   6.537   9.874 -1.4405  0.0105  1.3501
  317MOL0     H41789   7.475   6.770   9.931  0.3679  0.2316  2.4364
  317MOL0     H41790   7.537   6.603   9.906 -1.0623 -2.1600 -0.5710
  317MOL0     H41791   7.323   6.684  10.099 -0.3821 -0.9081 -1.7095
  317MOL0     H41792   7.495   6.687  10.158 -1.3038  1.7589  0.6915
  317MOL0     H41793   7.375   6.430  10.046 -1.4355  1.9118 -0.1010
  317MOL0     H41794   7.522   6.454  10.140 -0.9931 -3.7841  0.3833
  317MOL0     H41795   7.371   6.530  10.330 -0.0815 -0.6347 -0.2899
  317MOL0     H41796   7.348   6.363  10.267 -0.1250  0.5035  0.6947
  317MOL0     H41797   7.139   6.366  10.051  3.8307  0.8937  1.2379
  317MOL0     H41798   6.918   6.441   9.938 -0.5513  0.3422 -0.3004
  317MOL0     H41799   6.847   6.596   9.993  0.0272  0.9797  0.4789
  317MOL0     H41800   6.747   6.453  10.198  0.6320  1.2455 -0.2537
  317MOL0     H41801   6.773   6.314  10.083  1.5710  0.3069  3.3901
  317MOL0     H41802   6.609   6.573  10.009 -1.5388  0.6308 -3.2867
  317MOL0     H41803   6.631   6.435   9.912 -0.6691  1.5640 -0.6358
  317MOL0     H41804   6.513   6.308  10.109 -1.0833  0.8822  1.3702
  317MOL0     H41805   6.408   6.430  10.036 -0.1943  0.1193 -0.2778
  317MOL0     H41806   6.265   6.366  10.321 -1.5498  0.3885  0.8910
  317MOL0     H41807   6.077   6.512  10.386 -4.5864  3.6455 -5.5440
  317MOL0     H41808   5.961   6.973  10.521  0.0374  0.7069  0.0538
  317MOL0     H41809   5.755   7.099  10.550  0.8703  0.8699  3.7444
  317MOL0     H41810   5.451   6.893  10.792  0.1993 -2.2758 -0.0766
  317MOL0     H41811   5.368   6.843  10.653 -0.4232  0.6458  2.1138
  317MOL0     H41812   5.206   6.978  10.682 -1.8792  2.9663 -0.9534
  317MOL0     H41813   5.307   7.105  10.621 -1.6484  1.2116  0.2657
  317MOL0     H41814   5.383   7.139  10.871  1.3591 -2.2305  3.4531
  317MOL0     H41815   5.293   6.993  10.914 -1.3993  2.1948  1.4390
  317MOL0     H41816   5.153   7.220  10.775  3.3096  3.2685  0.8886
  317MOL0     H41817   5.075   7.085  10.879 -1.2460  1.3019 -1.8307
  317MOL0     H41818   5.221   7.343  10.970  0.3048 -0.4637 -2.1358
  317MOL0     H41819   5.247   7.194  11.066  1.8654  1.9693 -0.6967
  317MOL0     H41820   5.028   7.171  11.122 -0.1489 -0.8599 -1.1666
  317MOL0     H41821   4.967   7.294  11.005 -0.3903  0.2307  2.1251
  317MOL0     H41822   5.135   7.364  11.252 -2.7637  2.3857  3.6336
  317MOL0     H41823   5.061   7.467  11.132 -1.4322  0.6983  2.3682
  317MOL0     H41824   4.923   7.422  11.349 -1.5256  0.0275 -0.3330
  317MOL0     H41825   4.901   7.262  11.295  0.6262  0.3493 -0.2010
  317MOL0     H41826   5.567   6.711  10.639  2.2448 -2.1234  1.4330
  317MOL0     H41827   5.747   6.610  10.553  1.3774  0.6528 -0.6985
  317MOL0     H41828   6.333   6.856  10.352  1.3966 -0.3094 -2.3151
  317MOL0     H41829   6.516   6.713  10.264  2.1345 -3.6949 -0.1436
  317MOL0     H41830   6.922   6.420   9.390 -0.1630 -2.2243 -2.1248
  317MOL0     H41831   6.931   6.393   9.154 -0.6349 -0.4423  2.7452
  317MOL0     H41832   7.295   6.289   8.809  0.4153  0.4613  0.0962
  317MOL0     H41833   7.248   6.179   8.592  0.2459 -0.3874  0.4360
  317MOL0     H41834   7.063   6.041   8.505 -2.1416 -2.4176  1.2376
  317MOL0     H41835   7.011   6.068   8.338 -0.4485 -0.6742  0.6891
  317MOL0     H41836   6.858   6.021   8.580  1.5481 -0.4997  0.2652
  317MOL0     H41837   6.785   6.148   8.471 -0.6748 -0.2611  1.4601
  317MOL0     H41838   6.858   5.857   8.431 -2.1200 -0.7439  3.8406
  317MOL0     H41839   6.811   5.967   8.291  0.2521  0.2426 -0.0179
  317MOL0     H41840   6.598   5.995   8.380  0.6544  0.3659  1.6113
  317MOL0     H41841   6.624   5.824   8.365  0.5730 -1.0746  0.7814
  317MOL0     H41842   6.518   5.879   8.762  0.2268 -2.6071  0.5119
  317MOL0     H41843   6.879   6.404   8.580 -2.0287 -3.4513  2.3573
  317MOL0     H41844   6.949   6.545   8.769 -0.4828 -0.4764 -0.9695
  318MOL0     O41845   7.082   4.048   5.437 -0.2870  0.0584 -0.3826
  318MOL0     C41846   7.168   4.103   5.367  0.2582  0.4292  0.2133
  318MOL0     O41847   7.151   4.148   5.235 -0.1678 -0.2801  0.3879
  318MOL0     C41848   7.032   4.123   5.169  0.3726  0.1587 -0.2883
  318MOL0     C41849   7.044   4.045   5.050  0.9052 -0.2260 -0.3745
  318MOL0     C41850   6.926   4.053   4.968 -0.2028  0.4574  1.3329
  318MOL0     C41851   6.809   4.121   5.001 -0.7686  0.7627  0.1034
  318MOL0     O41852   6.700   4.110   4.917 -0.4938  0.3002  0.0557
  318MOL0     C41853   6.600   4.212   4.922 -0.2378 -0.5222 -0.5294
  318MOL0     C41854   6.484   4.197   4.820  0.3266 -0.9783  0.9424
  318MOL0     C41855   6.361   4.273   4.870 -0.2424 -0.0183 -0.5207
  318MOL0     C41856   6.226   4.215   4.814 -1.3196 -1.0601 -0.6532
  318MOL0     C41857   6.183   4.074   4.859 -0.4216  0.9387  0.1493
  318MOL0     C41858   6.044   4.042   4.799 -0.8448  0.9122 -1.1552
  318MOL0     C41859   5.998   3.909   4.848  0.0652  0.9517  0.3067
  318MOL0     C41860   5.853   3.880   4.808  0.1621  0.5719 -1.2905
  318MOL0     N41861   5.854   3.823   4.672 -0.4403  0.2762  0.0824
  318MOL0     C41862   5.925   3.709   4.622 -0.0377  0.5810  0.2162
  318MOL0     C41863   5.886   3.694   4.489  0.0952 -0.6304 -0.1724
  318MOL0     C41864   5.914   3.580   4.399 -0.3679 -0.8929  1.1241
  318MOL0     C41865   5.918   3.604   4.247 -0.3307 -0.2756  0.5996
  318MOL0     C41866   6.008   3.724   4.197  0.3989  0.2753 -0.2549
  318MOL0     C41867   6.147   3.708   4.258 -0.8199 -0.8623  0.8526
  318MOL0     O41868   6.213   3.591   4.195 -0.0839  0.7630  0.3289
  318MOL0     C41869   6.344   3.556   4.206 -1.2569 -0.0798  0.4205
  318MOL0     C41870   6.431   3.648   4.272 -0.0068 -0.0288  0.4956
  318MOL0     C41871   6.560   3.614   4.294  0.2064  0.7599 -0.4583
  318MOL0     C41872   6.616   3.496   4.240  0.0311  0.5843  0.3638
  318MOL0     C41873   6.752   3.459   4.266  0.0082 -0.3105 -0.1330
  318MOL0     O41874   6.837   3.568   4.306  0.1571  0.0314  0.3076
  318MOL0     C41875   6.973   3.543   4.293  0.7086 -0.4931 -0.0949
  318MOL0     C41876   7.040   3.524   4.170  0.0093 -0.8071  0.6418
  318MOL0     C41877   7.183   3.496   4.163  0.1027 -0.7117 -0.3015
  318MOL0     C41878   7.246   3.517   4.289 -1.0645 -0.2573 -0.8370
  318MOL0     O41879   7.374   3.488   4.313  0.0860  0.1935 -0.0726
  318MOL0     C41880   7.455   3.434   4.203 -0.1349 -0.3309  0.3948
  318MOL0     C41881   7.495   3.535   4.088 -0.6926  0.2936 -0.1185
  318MOL0     C41882   7.600   3.646   4.134  0.8446  0.6040  0.4626
  318MOL0     C41883   7.726   3.638   4.046 -0.1837  0.2298  0.4343
  318MOL0     C41884   7.849   3.674   4.125  0.1563 -0.4400  0.1238
  318MOL0     C41885   7.959   3.705   4.011 -0.0780 -0.2767 -0.6760
  318MOL0     C41886   8.104   3.712   4.057  0.3042  0.3135  0.0059
  318MOL0     C41887   8.162   3.565   4.071 -0.2440 -0.0958  0.1656
  318MOL0    Cl41888   8.329   3.572   4.065  0.1783 -0.1921 -0.0227
  318MOL0     C41889   7.181   3.542   4.400 -0.0933  0.3971 -0.3551
  318MOL0     C41890   7.050   3.547   4.411  0.1100 -0.4277 -0.0246
  318MOL0     O41891   6.791   3.346   4.242 -0.6013  1.6472 -0.7212
  318MOL0     C41892   6.534   3.411   4.151 -1.3892 -0.1135 -0.5054
  318MOL0     C41893   6.399   3.448   4.138 -0.0935 -0.0260  0.0649
  318MOL0     N41894   5.796   3.793   4.461  0.2658  0.3321 -0.0227
  318MOL0     N41895   5.779   3.873   4.568 -0.6907  0.8100  0.2274
  318MOL0     C41896   6.807   4.177   5.132  0.4067  0.4670  0.9721
  318MOL0     C41897   6.921   4.186   5.207 -0.1434  0.1339  0.1271
  318MOL0     C41898   7.294   4.126   5.439 -0.0602 -0.5447 -0.2731
  318MOL0     C41899   7.319   4.138   5.577  0.7530  0.5085 -1.0591
  318MOL0     C41900   7.448   4.135   5.629  0.0698 -0.6250 -0.0912
  318MOL0     C41901   7.557   4.136   5.543 -0.9720  0.8272  0.2381
  318MOL0     O41902   7.688   4.130   5.597  0.1857  0.1153 -0.2918
  318MOL0     C41903   7.783   4.219   5.550 -0.1126  1.1275  0.6649
  318MOL0     C41904   7.921   4.184   5.601  0.1245 -0.0387  0.1817
  318MOL0     C41905   7.969   4.060   5.529  0.2643  0.0425 -0.2971
  318MOL0     C41906   8.101   4.016   5.585 -1.0434 -0.9497 -0.3021
  318MOL0     C41907   8.183   3.931   5.496  0.1332  1.0565 -0.7286
  318MOL0     C41908   8.247   3.875   5.409  0.7239 -0.5617  0.0098
  318MOL0     C41909   7.531   4.145   5.406 -0.0868 -0.4437 -0.4942
  318MOL0     C41910   7.406   4.140   5.361 -0.2215 -0.3607  0.8194
  318MOL0     H41911   7.135   3.992   5.026  0.7912 -0.3741 -0.4828
  318MOL0     H41912   6.931   3.984   4.885  3.7878 -0.7915  2.3812
  318MOL0     H41913   6.645   4.311   4.928  2.0786 -1.5718  0.8442
  318MOL0     H41914   6.558   4.187   5.020  1.7605  0.6535  0.7010
  318MOL0     H41915   6.458   4.092   4.805  0.0150 -0.9205  1.0567
  318MOL0     H41916   6.516   4.245   4.727  1.4291 -0.1418  1.7264
  318MOL0     H41917   6.375   4.377   4.840  0.8144 -0.7895 -2.9645
  318MOL0     H41918   6.352   4.279   4.978  0.7279  0.9982 -0.4822
  318MOL0     H41919   6.153   4.290   4.847  0.7391  0.7936 -0.0543
  318MOL0     H41920   6.238   4.214   4.705 -0.3626 -2.2580 -0.5511
  318MOL0     H41921   6.191   4.064   4.968  2.4849 -0.9905 -0.1390
  318MOL0     H41922   6.257   4.005   4.816 -0.5027  1.0693 -0.2002
  318MOL0     H41923   6.047   4.056   4.691 -0.7762 -0.1173 -1.2964
  318MOL0     H41924   5.977   4.120   4.837  0.2393  1.3497 -0.0922
  318MOL0     H41925   6.063   3.836   4.799  0.7974  1.3324  0.7060
  318MOL0     H41926   6.018   3.903   4.955  5.4795  0.5767 -0.4694
  318MOL0     H41927   5.791   3.970   4.805 -0.3717  0.2344 -0.6954
  318MOL0     H41928   5.823   3.806   4.883  0.0544 -0.8745 -2.7071
  318MOL0     H41929   5.995   3.655   4.685  3.3942  2.4653 -1.6798
  318MOL0     H41930   5.830   3.514   4.421 -2.9454  1.6490 -0.4217
  318MOL0     H41931   6.007   3.525   4.418  1.4005  0.5249 -2.4654
  318MOL0     H41932   5.813   3.629   4.233 -0.4193 -0.2139  1.3783
  318MOL0     H41933   5.950   3.515   4.190 -2.0302 -0.5744  0.0538
  318MOL0     H41934   6.003   3.734   4.089 -5.1292  0.0443 -0.3129
  318MOL0     H41935   5.966   3.816   4.240 -2.9465 -1.4621  0.5444
  318MOL0     H41936   6.141   3.718   4.367  0.5818  0.5195  0.8406
  318MOL0     H41937   6.199   3.796   4.217 -1.8728 -1.3607 -1.8022
  318MOL0     H41938   6.386   3.731   4.326 -0.1390 -0.0891  0.4795
  318MOL0     H41939   6.626   3.682   4.347  0.4475  0.1514  0.0363
  318MOL0     H41940   6.976   3.521   4.083  1.6157 -0.8685 -0.5845
  318MOL0     H41941   7.229   3.476   4.067 -0.0705 -0.8503 -0.3557
  318MOL0     H41942   7.401   3.349   4.162 -0.3357  0.9706 -2.2866
  318MOL0     H41943   7.545   3.395   4.252  0.2759  0.9789  0.7307
  318MOL0     H41944   7.412   3.584   4.037  0.3650 -0.2181 -2.4429
  318MOL0     H41945   7.535   3.472   4.009 -2.7336  0.4521 -1.3455
  318MOL0     H41946   7.610   3.628   4.242  0.0522 -0.3145  0.3887
  318MOL0     H41947   7.556   3.744   4.115 -0.1500 -0.3537 -2.8047
  318MOL0     H41948   7.743   3.538   4.006 -1.5121  0.2554 -0.2460
  318MOL0     H41949   7.714   3.714   3.968  2.4818 -0.2998 -0.5750
  318MOL0     H41950   7.877   3.595   4.195  0.8805  1.1537  1.7161
  318MOL0     H41951   7.844   3.761   4.191 -1.2747 -0.2282 -0.2385
  318MOL0     H41952   7.945   3.804   3.966 -0.2251 -0.0031 -0.0442
  318MOL0     H41953   7.962   3.624   3.938  6.5449 -2.2713  1.1743
  318MOL0     H41954   8.164   3.778   3.994 -0.1548  1.8428  1.1016
  318MOL0     H41955   8.113   3.764   4.153 -0.5128  0.3352  0.0852
  318MOL0     H41956   8.138   3.515   3.977  0.5623  0.9773 -0.6435
  318MOL0     H41957   8.114   3.513   4.154  0.1959 -1.3099 -0.3196
  318MOL0     H41958   7.237   3.540   4.493 -1.2177 -2.0081  0.3384
  318MOL0     H41959   7.005   3.592   4.500 -1.7588 -2.8612  0.3423
  318MOL0     H41960   6.584   3.319   4.122 -0.8802  0.0271 -0.0790
  318MOL0     H41961   6.324   3.387   4.089  0.6857 -1.4909  0.6429
  318MOL0     H41962   6.715   4.227   5.159 -0.7784 -1.2009  0.2009
  318MOL0     H41963   6.922   4.242   5.300 -3.3049 -2.4784  1.9561
  318MOL0     H41964   7.230   4.121   5.636 -0.9336 -0.5818 -3.7270
  318MOL0     H41965   7.485   4.108   5.727  1.5611 -4.2131 -1.4646
  318MOL0     H41966   7.754   4.315   5.594 -0.2772  2.1905 -1.6153
  318MOL0     H41967   7.776   4.232   5.441 -3.4641  2.1964  0.8997
  318MOL0     H41968   7.986   4.265   5.570 -1.9411  2.0512  1.0410
  318MOL0     H41969   7.928   4.167   5.709  1.1472  1.9996  0.4740
  318MOL0     H41970   7.962   4.092   5.425 -0.4584  2.1035  0.3438
  318MOL0     H41971   7.904   3.974   5.550  1.5798 -1.0540 -0.5908
  318MOL0     H41972   8.156   4.110   5.600 -1.3543 -1.1477  2.8880
  318MOL0     H41973   8.079   3.973   5.683 -1.2994 -2.4863 -1.0101
  318MOL0     H41974   8.287   3.812   5.333 -0.9126  0.2164 -1.5918
  318MOL0     H41975   7.605   4.151   5.326 -0.0929 -3.1677 -0.7709
  318MOL0     H41976   7.393   4.122   5.255  1.0706 -1.5213  0.8204
  319MOL0     O41977  10.627  10.564   6.949  0.0922  0.6654  0.3007
  319MOL0     C41978  10.569  10.512   7.048  0.6728  0.3087 -0.8914
  319MOL0     O41979  10.627  10.442   7.156  0.0598  0.8709 -0.2285
  319MOL0     C41980  10.765  10.432   7.166  0.4995 -0.2302  0.0916
  319MOL0     C41981  10.803  10.319   7.249  0.4696 -0.2350 -0.5000
  319MOL0     C41982  10.941  10.292   7.264 -0.3018  0.4695 -0.0577
  319MOL0     C41983  11.037  10.382   7.206  0.0708 -0.0108 -0.3277
  319MOL0     O41984  11.165  10.344   7.229 -0.1500  0.2562 -0.1838
  319MOL0     C41985  11.279  10.397   7.153  0.4987 -0.4217  0.3637
  319MOL0     C41986  11.417  10.354   7.211  0.0391  0.2222 -0.0195
  319MOL0     C41987  11.521  10.440   7.141  0.0415 -0.1158 -0.2837
  319MOL0     C41988  11.658  10.435   7.209  0.8404  0.0738  0.0834
  319MOL0     C41989  11.720  10.574   7.213  0.3749  0.1709  0.2866
  319MOL0     C41990  11.873  10.573   7.218  0.1809  0.9166 -0.3754
  319MOL0     C41991  11.937  10.512   7.339  0.0831 -0.3060 -0.3015
  319MOL0     C41992  12.083  10.483   7.305 -0.0359 -0.5106  0.5647
  319MOL0     N41993  12.151  10.602   7.251  0.7700  0.7388 -0.6192
  319MOL0     C41994  12.149  10.660   7.126  0.6765  0.7619  0.3661
  319MOL0     C41995  12.207  10.783   7.132  0.6445 -0.2322 -0.1253
  319MOL0     C41996  12.222  10.883   7.024  0.4889 -0.6850  0.9287
  319MOL0     C41997  12.126  10.991   7.037  0.2023 -0.2848  0.7694
  319MOL0     C41998  11.974  10.955   7.048 -0.2196  0.0747  0.2359
  319MOL0     C41999  11.924  10.884   6.920  0.2488 -0.0486  0.0136
  319MOL0     O42000  11.788  10.835   6.947 -0.8781  0.1023  0.2495
  319MOL0     C42001  11.686  10.900   6.879  0.1882  0.2275 -0.0863
  319MOL0     C42002  11.695  10.947   6.742 -0.2694 -0.0549 -0.5522
  319MOL0     C42003  11.585  11.014   6.680 -0.1181  0.1295  0.3636
  319MOL0     C42004  11.455  11.019   6.741 -0.5578 -0.3267  0.5539
  319MOL0     C42005  11.338  11.098   6.679  0.3946 -0.4567  0.2578
  319MOL0     O42006  11.220  11.096   6.742 -0.2999  0.0010 -0.1881
  319MOL0     C42007  11.115  11.171   6.702 -0.2127  0.0165  0.0120
  319MOL0     C42008  11.020  11.208   6.804 -0.3857  0.4637 -0.3080
  319MOL0     C42009  10.921  11.295   6.785 -0.0724  0.7056 -0.8425
  319MOL0     C42010  10.903  11.352   6.656  0.2762 -0.4171 -0.6000
  319MOL0     O42011  10.811  11.449   6.632 -0.3556 -0.1561  0.1220
  319MOL0     C42012  10.701  11.461   6.719  0.0962  0.2111  0.0152
  319MOL0     C42013  10.613  11.335   6.718 -1.1150  0.6511  0.5328
  319MOL0     C42014  10.467  11.357   6.740 -0.5036 -0.3490 -0.4309
  319MOL0     C42015  10.387  11.415   6.616 -1.1048 -0.6852  0.9681
  319MOL0     C42016  10.240  11.385   6.635 -0.1697 -0.1791 -0.3814
  319MOL0     C42017  10.158  11.454   6.524  0.4192  0.8425  0.7057
  319MOL0     C42018  10.002  11.429   6.543 -0.4150 -0.7814  0.4392
  319MOL0     C42019   9.946  11.291   6.491  0.2482  0.3066  0.3717
  319MOL0    Cl42020   9.975  11.173   6.613 -0.2084 -0.2094  0.0340
  319MOL0     C42021  10.977  11.308   6.543  0.2326  0.8354 -0.5831
  319MOL0     C42022  11.083  11.216   6.562 -0.4072  0.1410 -0.2520
  319MOL0     O42023  11.355  11.138   6.568 -0.1987  0.1309 -0.1137
  319MOL0     C42024  11.444  10.961   6.873  0.5487  0.4861  0.3444
  319MOL0     C42025  11.557  10.900   6.937  0.9556  0.0781  0.4762
  319MOL0     N42026  12.268  10.787   7.255 -0.5741  0.1096 -0.4813
  319MOL0     N42027  12.229  10.685   7.332  0.2363 -0.1559  0.1497
  319MOL0     C42028  10.994  10.493   7.131  0.4667 -0.7129  0.5398
  319MOL0     C42029  10.861  10.528   7.131 -0.8038 -0.4142  1.0083
  319MOL0     C42030  10.420  10.505   7.044  0.6800  0.6590 -0.2670
  319MOL0     C42031  10.347  10.584   6.958 -0.0183 -0.4011 -0.2341
  319MOL0     C42032  10.215  10.595   6.965  0.9078 -0.2251  0.8519
  319MOL0     C42033  10.141  10.537   7.062 -1.0074  0.3875 -0.1969
  319MOL0     O42034  10.011  10.550   7.062  0.1694 -0.2359  0.4805
  319MOL0     C42035   9.945  10.644   6.978  0.4121 -0.7318 -0.2582
  319MOL0     C42036   9.795  10.650   7.003  0.6292 -0.6317  0.0420
  319MOL0     C42037   9.719  10.537   6.930 -0.9324  0.3625  0.7979
  319MOL0     C42038   9.588  10.508   6.989  1.4386  0.1189  0.3993
  319MOL0     C42039   9.510  10.626   6.977  1.0796  0.0730 -0.0570
  319MOL0     C42040   9.436  10.725   6.981  0.2192 -0.4662 -0.8720
  319MOL0     C42041  10.205  10.461   7.160 -0.5515  0.0186 -0.0636
  319MOL0     C42042  10.347  10.448   7.154  0.3363 -1.4131 -0.0242
  319MOL0     H42043  10.734  10.263   7.312 -0.4876  1.7035  0.2740
  319MOL0     H42044  10.983  10.222   7.334  2.4324 -0.1057 -2.0887
  319MOL0     H42045  11.268  10.506   7.149 -4.9004 -0.7207 -0.8555
  319MOL0     H42046  11.281  10.364   7.049  1.6389 -6.3893  1.8862
  319MOL0     H42047  11.436  10.248   7.191 -1.8555 -0.0300 -0.6820
  319MOL0     H42048  11.413  10.376   7.318 -1.0068 -0.8935  0.1969
  319MOL0     H42049  11.483  10.543   7.142  0.0592 -0.1064 -0.5619
  319MOL0     H42050  11.535  10.416   7.036  1.2753  0.8738 -0.3760
  319MOL0     H42051  11.647  10.407   7.314 -2.3945  2.9023  0.6633
  319MOL0     H42052  11.717  10.355   7.162  0.0653 -2.2267  2.7243
  319MOL0     H42053  11.681  10.626   7.301  1.3241 -0.4112  1.0672
  319MOL0     H42054  11.685  10.636   7.130 -0.5734  2.3981  2.2442
  319MOL0     H42055  11.906  10.678   7.223 -0.2847  0.9914  2.1661
  319MOL0     H42056  11.917  10.524   7.131  1.0884  1.3352 -0.1723
  319MOL0     H42057  11.927  10.568   7.433  4.7205  1.0600 -0.3864
  319MOL0     H42058  11.891  10.414   7.359  2.0565 -1.4399 -1.0584
  319MOL0     H42059  12.091  10.397   7.238  0.9481  0.0912 -0.1190
  319MOL0     H42060  12.142  10.460   7.394  2.7908  0.4759 -0.9502
  319MOL0     H42061  12.098  10.626   7.036  0.6059  1.2635  0.2103
  319MOL0     H42062  12.203  10.824   6.934 -1.2263  0.2897  0.6090
  319MOL0     H42063  12.322  10.927   7.016 -0.9164  2.4099 -2.0801
  319MOL0     H42064  12.140  11.061   6.955  0.3056 -0.0301  1.0005
  319MOL0     H42065  12.158  11.043   7.128 -2.6155  0.8481  1.2200
  319MOL0     H42066  11.963  10.887   7.133 -1.2626 -1.2686 -0.9265
  319MOL0     H42067  11.917  11.045   7.073 -0.9679 -0.2585 -0.2233
  319MOL0     H42068  11.991  10.800   6.896 -1.4137 -2.0581  1.9406
  319MOL0     H42069  11.932  10.961   6.843 -2.2512  1.2367  0.9269
  319MOL0     H42070  11.787  10.939   6.685  0.9442  1.1519  1.1058
  319MOL0     H42071  11.608  11.070   6.590  1.3765 -1.3970 -0.2593
  319MOL0     H42072  11.042  11.171   6.904 -0.8921  0.6500 -0.1273
  319MOL0     H42073  10.865  11.340   6.866  0.2208 -0.4831  0.0428
  319MOL0     H42074  10.640  11.537   6.670  0.5087 -0.1198 -1.0405
  319MOL0     H42075  10.739  11.487   6.818  1.6458 -3.0053  0.4122
  319MOL0     H42076  10.643  11.265   6.796 -1.6531 -1.6100 -1.1738
  319MOL0     H42077  10.627  11.275   6.627  0.8848  0.5732  0.8385
  319MOL0     H42078  10.455  11.407   6.836  0.6825 -0.6683 -0.1031
  319MOL0     H42079  10.426  11.256   6.751 -0.7399 -0.1561  0.5198
  319MOL0     H42080  10.406  11.522   6.605 -2.1014 -0.5121  0.7761
  319MOL0     H42081  10.414  11.355   6.529  2.4731  1.2668  0.5525
  319MOL0     H42082  10.207  11.428   6.729 -0.4972 -5.3444  2.1892
  319MOL0     H42083  10.215  11.278   6.634 -0.7133 -0.1140  2.1878
  319MOL0     H42084  10.185  11.412   6.427 -1.1559 -1.1943  1.0684
  319MOL0     H42085  10.179  11.562   6.519 -2.1258  1.3868  0.4133
  319MOL0     H42086   9.990  11.430   6.652 -2.9277  0.9793  0.2071
  319MOL0     H42087   9.945  11.503   6.488 -1.1261 -1.9989 -0.5195
  319MOL0     H42088   9.998  11.261   6.400  5.5103 -0.3866  3.1832
  319MOL0     H42089   9.838  11.295   6.480  0.2419  0.1676  0.3774
  319MOL0     H42090  10.938  11.341   6.447 -0.7992 -0.7978 -0.7742
  319MOL0     H42091  11.147  11.174   6.486  0.4118 -0.5899  0.8196
  319MOL0     H42092  11.345  10.960   6.918  0.3492  0.4056 -0.0918
  319MOL0     H42093  11.554  10.849   7.033 -3.2192 -2.7695 -0.8746
  319MOL0     H42094  11.073  10.554   7.089  1.2481 -0.8445  1.7488
  319MOL0     H42095  10.827  10.619   7.082  1.6395  0.3900  0.7043
  319MOL0     H42096  10.398  10.648   6.886 -2.4512 -0.8787 -2.5282
  319MOL0     H42097  10.173  10.648   6.881  1.2835 -1.4971 -0.1687
  319MOL0     H42098   9.956  10.616   6.873 -0.7107 -2.3250  0.0235
  319MOL0     H42099   9.992  10.738   7.011 -3.1831 -0.4331  5.4798
  319MOL0     H42100   9.788  10.635   7.111  2.3617  1.4726  0.5108
  319MOL0     H42101   9.760  10.751   6.981  1.3593 -0.3164  0.3248
  319MOL0     H42102   9.779  10.445   6.929  1.4973  1.8138  1.8657
  319MOL0     H42103   9.703  10.574   6.828  0.3256  0.4865  0.6285
  319MOL0     H42104   9.533  10.431   6.934  0.5411  1.7285 -1.0355
  319MOL0     H42105   9.594  10.472   7.092  0.7644 -1.5234 -0.0983
  319MOL0     H42106   9.369  10.809   6.979 -0.2029 -0.8080 -1.4987
  319MOL0     H42107  10.156  10.403   7.238  0.4551 -1.3269 -0.3983
  319MOL0     H42108  10.410  10.408   7.233 -2.3330 -1.2435  2.3644
  320MOL0     O42109   4.242   1.689   5.021 -0.2142 -0.0678 -0.2109
  320MOL0     C42110   4.310   1.788   5.019  0.2360  0.4982 -0.6504
  320MOL0     O42111   4.251   1.908   5.017 -0.1953 -0.5469 -0.7650
  320MOL0     C42112   4.129   1.930   5.069 -0.0541  0.2004  0.1082
  320MOL0     C42113   4.023   1.974   4.985  0.2459  0.1201  0.0196
  320MOL0     C42114   3.901   2.011   5.050 -0.6392  0.3326  0.1253
  320MOL0     C42115   3.887   2.014   5.185  0.3378 -0.0359 -0.1825
  320MOL0     O42116   3.775   2.072   5.236  0.6596 -0.9743  0.2099
  320MOL0     C42117   3.717   2.025   5.352 -0.2921  0.2530 -0.2830
  320MOL0     C42118   3.557   2.065   5.346  0.0456 -0.3890 -0.6589
  320MOL0     C42119   3.488   1.996   5.235 -0.3763  0.2685  0.3852
  320MOL0     C42120   3.513   1.847   5.220 -0.4768  0.2565 -0.2185
  320MOL0     C42121   3.452   1.783   5.098  0.0875 -0.3924  0.2343
  320MOL0     C42122   3.307   1.803   5.073 -0.4087 -0.0075 -0.9775
  320MOL0     C42123   3.251   1.719   4.954 -0.1080  0.6422 -0.4038
  320MOL0     C42124   3.096   1.748   4.913  0.2445  0.4925 -0.8963
  320MOL0     N42125   3.009   1.721   5.033  0.0091 -0.6625  0.0267
  320MOL0     C42126   2.935   1.819   5.100 -0.1333 -0.2830 -0.1441
  320MOL0     C42127   2.830   1.750   5.154 -0.3391 -0.0640  0.4187
  320MOL0     C42128   2.705   1.805   5.215 -0.6799  0.7041  0.2508
  320MOL0     C42129   2.733   1.829   5.362 -0.3651  0.0954 -0.2812
  320MOL0     C42130   2.663   1.954   5.412 -0.2204 -0.0882  0.3790
  320MOL0     C42131   2.523   1.924   5.446  0.4792 -0.4907  0.1919
  320MOL0     O42132   2.446   2.044   5.446 -0.4143  0.2179  0.6330
  320MOL0     C42133   2.340   2.046   5.538  0.2442  0.4233  0.3623
  320MOL0     C42134   2.268   2.164   5.546 -0.1260  1.2506 -0.0565
  320MOL0     C42135   2.176   2.184   5.646  0.2866  0.1770 -0.0199
  320MOL0     C42136   2.150   2.081   5.742 -0.1568  0.4541  0.7509
  320MOL0     C42137   2.064   2.110   5.859  0.2152 -0.5215 -1.1370
  320MOL0     O42138   2.022   1.998   5.934 -0.7471  0.8577  0.5038
  320MOL0     C42139   1.979   2.030   6.062 -0.1803  1.1039 -0.9849
  320MOL0     C42140   1.864   2.109   6.061  0.5769 -0.0344 -0.8249
  320MOL0     C42141   1.818   2.151   6.184  0.0215 -0.1486 -0.5457
  320MOL0     C42142   1.864   2.100   6.309 -0.2214  0.0976  0.0465
  320MOL0     O42143   1.809   2.124   6.433 -0.2272  0.4604  0.3342
  320MOL0     C42144   1.896   2.132   6.551  0.8675  0.5309  1.2173
  320MOL0     C42145   2.004   2.236   6.544 -0.0357 -0.1174 -1.3293
  320MOL0     C42146   1.934   2.371   6.532 -0.4252  0.1560 -0.1602
  320MOL0     C42147   2.005   2.480   6.601 -0.0044  0.2481  0.0594
  320MOL0     C42148   1.971   2.618   6.553 -0.2133 -0.2738 -0.0363
  320MOL0     C42149   2.081   2.715   6.591 -0.4576 -0.9246 -0.1907
  320MOL0     C42150   2.059   2.848   6.516 -0.0638  0.2353  0.0346
  320MOL0     C42151   2.174   2.936   6.557 -0.4080  0.1147 -0.5651
  320MOL0    Cl42152   2.153   3.092   6.472 -0.3603 -0.2345 -0.1042
  320MOL0     C42153   1.965   2.009   6.302  0.4115  0.8868 -0.4669
  320MOL0     C42154   2.031   1.975   6.180  0.1955  0.2784 -0.0729
  320MOL0     O42155   2.045   2.225   5.888  0.5371  0.3062 -0.5166
  320MOL0     C42156   2.209   1.959   5.717  0.9574  0.3430 -1.4604
  320MOL0     C42157   2.296   1.938   5.610 -0.0977  0.3963 -0.0361
  320MOL0     N42158   2.849   1.608   5.135 -0.0650 -0.0345 -0.0439
  320MOL0     N42159   2.951   1.597   5.053  0.8070 -0.0560  1.0513
  320MOL0     C42160   3.991   1.972   5.265  1.0636  0.3598 -0.5378
  320MOL0     C42161   4.108   1.914   5.207 -0.5638  0.1307 -0.7189
  320MOL0     C42162   4.454   1.785   5.034 -0.5458 -0.2094 -0.3598
  320MOL0     C42163   4.518   1.890   5.103 -0.5367  1.0550  0.9633
  320MOL0     C42164   4.656   1.895   5.109 -0.5446  0.0317 -0.5750
  320MOL0     C42165   4.739   1.791   5.057  0.7612  0.9827 -0.1221
  320MOL0     O42166   4.871   1.806   5.074 -0.5626  0.4658 -0.2102
  320MOL0     C42167   4.955   1.705   5.013 -0.8838  1.0539 -0.2376
  320MOL0     C42168   5.106   1.751   5.021  0.1702  0.2164 -0.3990
  320MOL0     C42169   5.128   1.886   4.953  0.3692 -0.6784 -0.5422
  320MOL0     C42170   5.264   1.946   4.976 -0.2450 -0.2996  0.0940
  320MOL0     C42171   5.369   1.896   4.884  0.3366 -0.2251  0.4887
  320MOL0     C42172   5.468   1.845   4.831 -0.5098 -0.1424 -0.3619
  320MOL0     C42173   4.675   1.690   4.983  0.0479  0.5455 -0.6232
  320MOL0     C42174   4.536   1.684   4.972  0.0362 -0.4554 -0.0707
  320MOL0     H42175   4.040   1.997   4.881 -0.4161  2.2503  0.3353
  320MOL0     H42176   3.823   2.029   4.977  0.0725 -2.1151 -1.4020
  320MOL0     H42177   3.747   2.072   5.446 -3.5880 -1.0986  1.6495
  320MOL0     H42178   3.735   1.918   5.367 -0.7234  0.2834  0.4783
  320MOL0     H42179   3.556   2.174   5.336  3.7584 -0.1878 -0.3369
  320MOL0     H42180   3.506   2.028   5.435 -0.7893  2.3182  0.0758
  320MOL0     H42181   3.525   2.043   5.143  0.4971 -1.4005 -0.1498
  320MOL0     H42182   3.381   2.018   5.235 -0.2442  0.9739  1.0055
  320MOL0     H42183   3.622   1.834   5.214 -0.3139  0.8614  1.0848
  320MOL0     H42184   3.481   1.793   5.310  3.3243  2.4983  2.8165
  320MOL0     H42185   3.478   1.677   5.107 -2.7993 -1.4386 -2.0077
  320MOL0     H42186   3.505   1.808   5.006  1.7202 -0.3580  1.1432
  320MOL0     H42187   3.288   1.910   5.062  0.5970  0.9106  4.0930
  320MOL0     H42188   3.259   1.789   5.170  2.0565 -0.3826  0.2454
  320MOL0     H42189   3.312   1.754   4.871 -0.7062  4.2436  0.5133
  320MOL0     H42190   3.264   1.618   4.994 -0.9712  0.7063  0.0603
  320MOL0     H42191   3.070   1.685   4.827  2.3614  1.5298 -2.4169
  320MOL0     H42192   3.077   1.849   4.876 -0.9596  0.0175 -1.6512
  320MOL0     H42193   2.953   1.926   5.101  4.1809 -0.7599  2.8077
  320MOL0     H42194   2.622   1.733   5.214  1.8522 -2.3908 -0.3283
  320MOL0     H42195   2.670   1.895   5.164  3.2621  1.6929 -1.0131
  320MOL0     H42196   2.836   1.853   5.389 -0.7885  0.5655  1.0027
  320MOL0     H42197   2.701   1.744   5.423 -2.7586 -0.1733 -1.8092
  320MOL0     H42198   2.709   2.000   5.500  0.5015  0.5763 -0.3380
  320MOL0     H42199   2.664   2.025   5.329  2.1366 -0.8644 -0.3520
  320MOL0     H42200   2.528   1.873   5.543 -0.1771 -0.1462  0.4104
  320MOL0     H42201   2.489   1.849   5.374  1.5262  0.6259 -1.5362
  320MOL0     H42202   2.283   2.238   5.468 -3.8448 -0.6910 -2.9383
  320MOL0     H42203   2.113   2.270   5.628  0.0094 -0.6581 -3.7831
  320MOL0     H42204   1.808   2.144   5.975 -1.9727  1.7649  1.4368
  320MOL0     H42205   1.741   2.227   6.187  0.9435  0.7730  0.9966
  320MOL0     H42206   1.937   2.031   6.564  1.9545  0.2004 -3.0879
  320MOL0     H42207   1.830   2.141   6.637 -2.1733 -4.2464 -0.1764
  320MOL0     H42208   2.072   2.213   6.461  1.1597  1.3399 -0.8071
  320MOL0     H42209   2.048   2.232   6.644 -0.4371 -0.6469 -1.1732
  320MOL0     H42210   1.833   2.355   6.572 -0.5506 -0.6287 -0.7759
  320MOL0     H42211   1.914   2.396   6.428 -1.1072 -0.8067 -0.2794
  320MOL0     H42212   1.994   2.481   6.709  1.8306  0.8383  0.2779
  320MOL0     H42213   2.111   2.469   6.576 -0.3551  2.6559 -3.3105
  320MOL0     H42214   1.870   2.652   6.580  0.0328 -1.2032  2.3187
  320MOL0     H42215   1.976   2.619   6.444  0.4919  0.9774 -0.0128
  320MOL0     H42216   2.181   2.671   6.577  0.0757  0.0181  0.5266
  320MOL0     H42217   2.077   2.738   6.698 -2.1201  0.1199 -0.4482
  320MOL0     H42218   2.035   2.831   6.411 -0.2106 -0.8605  0.2318
  320MOL0     H42219   1.975   2.889   6.572 -0.5503 -0.1416 -0.4129
  320MOL0     H42220   2.265   2.888   6.520 -0.8082  0.5278 -2.1613
  320MOL0     H42221   2.171   2.968   6.662 -0.3337  2.6504 -1.2769
  320MOL0     H42222   2.001   1.953   6.388 -0.7616  1.7204  0.6187
  320MOL0     H42223   2.114   1.906   6.172 -0.6024 -1.0702  2.3700
  320MOL0     H42224   2.192   1.880   5.789 -0.7811  0.5818 -1.5809
  320MOL0     H42225   2.339   1.838   5.603 -1.2539 -0.0947 -0.3978
  320MOL0     H42226   3.977   1.980   5.372 -2.2802 -1.8361 -0.6545
  320MOL0     H42227   4.197   1.879   5.260 -1.6728 -0.3387  0.8995
  320MOL0     H42228   4.466   1.974   5.147 -0.6903  1.5235 -0.0888
  320MOL0     H42229   4.706   1.975   5.163  3.5086 -1.5050 -1.6588
  320MOL0     H42230   4.923   1.696   4.909  0.2251 -2.3620 -0.4045
  320MOL0     H42231   4.952   1.602   5.050 -0.4178  0.4853 -1.7100
  320MOL0     H42232   5.130   1.753   5.127 -0.8963  0.9352 -0.1604
  320MOL0     H42233   5.167   1.675   4.971 -1.4750  0.6013 -3.2013
  320MOL0     H42234   5.055   1.966   4.971  1.4213  0.0742  0.4790
  320MOL0     H42235   5.110   1.867   4.847  0.3869  1.2636 -0.9356
  320MOL0     H42236   5.263   2.055   4.973  0.3953 -0.2786  0.3423
  320MOL0     H42237   5.302   1.906   5.070 -0.4619 -3.4075 -1.0242
  320MOL0     H42238   5.549   1.786   4.792 -0.7925 -1.2820  0.7214
  320MOL0     H42239   4.728   1.615   4.925 -0.2548  0.4908 -0.8276
  320MOL0     H42240   4.482   1.610   4.914  3.1077 -1.2054 -2.2256
  321MOL0     O42241   7.807   7.983   1.395  0.0726 -0.1417  0.4841
  321MOL0     C42242   7.799   7.865   1.427 -0.1185 -0.2975 -0.2333
  321MOL0     O42243   7.880   7.808   1.524  0.2393 -0.4644  0.1491
  321MOL0     C42244   8.004   7.858   1.544 -0.6798 -0.9726  0.1313
  321MOL0     C42245   8.017   7.939   1.661 -0.2756 -0.4467 -0.0106
  321MOL0     C42246   8.137   7.987   1.703  0.3540  0.0810 -0.2211
  321MOL0     C42247   8.247   7.962   1.633 -0.8737  0.3022 -0.3933
  321MOL0     O42248   8.366   8.030   1.664 -0.6114  0.1988 -0.5338
  321MOL0     C42249   8.426   8.093   1.559 -0.2422  0.3166  0.3203
  321MOL0     C42250   8.481   8.232   1.594  0.3272 -0.3103 -0.8105
  321MOL0     C42251   8.536   8.313   1.471 -0.3198 -0.5351  0.3013
  321MOL0     C42252   8.691   8.308   1.469  0.4756  0.1582 -1.0967
  321MOL0     C42253   8.748   8.426   1.547  0.4189  0.0381 -0.6220
  321MOL0     C42254   8.912   8.430   1.555 -0.2246 -0.3340 -0.6419
  321MOL0     C42255   8.970   8.309   1.625  0.1465  0.7427 -0.8048
  321MOL0     C42256   8.911   8.242   1.749 -0.5776  0.1594  0.6401
  321MOL0     N42257   9.015   8.161   1.805 -0.2845 -0.1866 -0.5602
  321MOL0     C42258   9.027   8.029   1.791 -0.1674 -0.4629  0.0995
  321MOL0     C42259   9.150   7.982   1.834  0.5811 -0.3090 -0.6456
  321MOL0     C42260   9.194   7.839   1.854 -0.0447  0.1573 -0.8040
  321MOL0     C42261   9.102   7.756   1.950 -0.7643 -0.1902 -0.9074
  321MOL0     C42262   9.078   7.825   2.091  0.5007  0.5563  0.1560
  321MOL0     C42263   9.207   7.812   2.178  0.1150  0.6595  0.2813
  321MOL0     O42264   9.192   7.902   2.291  0.9877  0.9977 -0.1560
  321MOL0     C42265   9.078   7.867   2.364  0.0226  0.1917  1.3153
  321MOL0     C42266   9.073   7.772   2.469 -0.2558  0.5918 -0.1043
  321MOL0     C42267   8.958   7.756   2.542  0.3915 -0.4194  0.2323
  321MOL0     C42268   8.853   7.847   2.536  0.4426 -0.3260  0.5390
  321MOL0     C42269   8.724   7.828   2.605 -0.2032 -0.2097 -0.0576
  321MOL0     O42270   8.693   7.697   2.640  0.4977  0.2623 -0.2286
  321MOL0     C42271   8.582   7.657   2.726 -0.7896  0.1644  0.0930
  321MOL0     C42272   8.536   7.525   2.709 -0.6511 -0.4724 -0.9237
  321MOL0     C42273   8.438   7.472   2.792  1.0161 -0.3626  0.8709
  321MOL0     C42274   8.365   7.557   2.882 -0.8267 -0.3751 -0.4846
  321MOL0     O42275   8.241   7.519   2.935 -0.5261  0.2703  0.3866
  321MOL0     C42276   8.198   7.561   3.063 -1.0105  0.1266 -0.1513
  321MOL0     C42277   8.296   7.519   3.182  0.6966  0.2651  0.6050
  321MOL0     C42278   8.325   7.365   3.182 -0.1376 -0.1228  0.2027
  321MOL0     C42279   8.429   7.342   3.298  0.1684 -0.5522  0.3222
  321MOL0     C42280   8.497   7.209   3.287 -0.8476 -0.5364 -0.2083
  321MOL0     C42281   8.578   7.203   3.419  0.0591  0.0358  0.4580
  321MOL0     C42282   8.662   7.075   3.437  0.1209  0.2810  0.8761
  321MOL0     C42283   8.791   7.077   3.361  0.5912 -0.1988 -0.2065
  321MOL0    Cl42284   8.923   7.173   3.426 -0.3806  0.5225  0.6189
  321MOL0     C42285   8.411   7.686   2.903  0.1380 -0.2277  0.4031
  321MOL0     C42286   8.520   7.734   2.829  0.9578 -0.2965  0.7970
  321MOL0     O42287   8.657   7.929   2.627 -0.2067  0.3017 -0.1359
  321MOL0     C42288   8.856   7.947   2.441 -1.3703 -0.5888  0.3198
  321MOL0     C42289   8.964   7.955   2.353 -0.6619 -0.0386  0.5041
  321MOL0     N42290   9.215   8.091   1.883 -0.2876 -0.2421  0.4694
  321MOL0     N42291   9.141   8.193   1.851  0.2025  0.6608 -1.1866
  321MOL0     C42292   8.250   7.875   1.520  0.0569  1.2709  0.7510
  321MOL0     C42293   8.126   7.824   1.477 -0.1726  0.0389 -0.8595
  321MOL0     C42294   7.682   7.782   1.385 -0.4457 -1.3107  0.4440
  321MOL0     C42295   7.652   7.654   1.430 -0.1595  0.0360  0.4768
  321MOL0     C42296   7.542   7.580   1.372 -0.4663  0.0854  0.4949
  321MOL0     C42297   7.470   7.638   1.268 -0.4604 -0.0524 -0.1722
  321MOL0     O42298   7.385   7.561   1.207  0.2863 -0.4382 -0.4078
  321MOL0     C42299   7.302   7.601   1.100 -0.2190 -0.4926 -0.7277
  321MOL0     C42300   7.365   7.583   0.965  0.6788 -0.2852  0.3244
  321MOL0     C42301   7.261   7.619   0.860 -0.4705 -0.3876  0.0825
  321MOL0     C42302   7.329   7.585   0.726  1.7667  0.0383  0.2764
  321MOL0     C42303   7.247   7.616   0.608  0.3694 -0.3755 -0.1882
  321MOL0     C42304   7.169   7.647   0.518 -0.4540  0.2005  0.1620
  321MOL0     C42305   7.496   7.767   1.228 -0.7664  0.5298  0.5618
  321MOL0     C42306   7.600   7.836   1.282  0.8375 -0.1590 -0.7986
  321MOL0     H42307   7.926   7.956   1.717 -1.7800 -1.5659 -1.9958
  321MOL0     H42308   8.146   8.048   1.793  0.2909 -0.3836  0.1008
  321MOL0     H42309   8.350   8.105   1.482 -2.8777  2.2050  2.9604
  321MOL0     H42310   8.510   8.034   1.524 -0.2087  1.1999 -1.1647
  321MOL0     H42311   8.565   8.227   1.663  2.8396  1.2551 -3.5240
  321MOL0     H42312   8.403   8.283   1.650 -1.2565 -3.0844 -0.2671
  321MOL0     H42313   8.493   8.413   1.461 -0.5391 -0.6831 -0.3062
  321MOL0     H42314   8.505   8.257   1.382  0.2610  2.7604 -2.1740
  321MOL0     H42315   8.720   8.214   1.517 -2.5151 -0.4821 -0.3586
  321MOL0     H42316   8.719   8.305   1.363  1.5786  0.0435 -0.8101
  321MOL0     H42317   8.705   8.428   1.647 -0.5116  0.2909 -1.0194
  321MOL0     H42318   8.707   8.511   1.492 -0.6497 -0.3145 -0.3803
  321MOL0     H42319   8.934   8.530   1.593 -2.7885  0.7597 -1.7968
  321MOL0     H42320   8.966   8.421   1.461  1.2806 -2.9132  0.3358
  321MOL0     H42321   8.985   8.227   1.554  0.4796 -1.4753  1.7120
  321MOL0     H42322   9.074   8.339   1.643  0.3823 -0.4799 -0.0892
  321MOL0     H42323   8.832   8.173   1.718 -0.0413 -0.3718  0.4302
  321MOL0     H42324   8.869   8.314   1.819 -0.0298  0.7348  0.3949
  321MOL0     H42325   8.952   7.959   1.756 -1.2017  0.0514  1.2018
  321MOL0     H42326   9.294   7.841   1.896  0.1866  1.8902 -1.3575
  321MOL0     H42327   9.189   7.785   1.759 -0.2051  0.8188 -1.1785
  321MOL0     H42328   9.148   7.657   1.960  1.7044  1.1192  2.4545
  321MOL0     H42329   9.006   7.763   1.899  1.0923 -0.3572 -4.8103
  321MOL0     H42330   9.058   7.932   2.085  0.1270  0.4792 -0.0452
  321MOL0     H42331   8.984   7.790   2.134  0.6493  1.4760  1.3022
  321MOL0     H42332   9.297   7.844   2.124  0.0595  0.7377  0.2361
  321MOL0     H42333   9.225   7.709   2.209  0.2194  0.9410  1.1797
  321MOL0     H42334   9.147   7.695   2.490 -1.0007 -0.1659 -0.2005
  321MOL0     H42335   8.943   7.674   2.612  1.0226 -3.1187 -2.5660
  321MOL0     H42336   8.584   7.454   2.642 -2.6495 -1.5851 -1.2392
  321MOL0     H42337   8.401   7.373   2.771  0.9560  0.0833 -1.4738
  321MOL0     H42338   8.097   7.523   3.083 -0.4063 -1.9618 -0.7943
  321MOL0     H42339   8.177   7.668   3.057 -0.2080  0.2364 -1.8698
  321MOL0     H42340   8.252   7.539   3.281  1.4382 -1.2794  1.2845
  321MOL0     H42341   8.387   7.578   3.168 -0.1974  0.9744 -3.4390
  321MOL0     H42342   8.363   7.338   3.083 -2.5431  0.7852 -1.0648
  321MOL0     H42343   8.241   7.299   3.206  1.3324 -1.2883  2.5244
  321MOL0     H42344   8.505   7.421   3.292 -0.9224  0.4534 -0.7686
  321MOL0     H42345   8.376   7.351   3.393 -1.1256 -1.5760 -0.2741
  321MOL0     H42346   8.571   7.219   3.208  0.2529 -0.9150  0.7579
  321MOL0     H42347   8.422   7.130   3.276 -0.9947 -0.2562 -1.3522
  321MOL0     H42348   8.517   7.196   3.509 -1.2449 -2.2846 -0.4993
  321MOL0     H42349   8.642   7.291   3.428  0.8098 -0.5113  0.5751
  321MOL0     H42350   8.676   7.046   3.542  0.1625 -5.6566 -0.3913
  321MOL0     H42351   8.597   6.995   3.401  0.6636  0.3570 -0.3071
  321MOL0     H42352   8.769   7.130   3.268  0.5609  2.0096  1.0144
  321MOL0     H42353   8.830   6.975   3.349  3.1422  0.3681  2.3610
  321MOL0     H42354   8.345   7.742   2.969 -3.0633  1.3922 -3.7082
  321MOL0     H42355   8.556   7.832   2.859 -0.3759  0.1587  1.0001
  321MOL0     H42356   8.771   8.012   2.426 -2.0880 -2.1112 -3.4603
  321MOL0     H42357   8.964   8.039   2.284 -1.9740  2.0442  2.8851
  321MOL0     H42358   8.350   7.868   1.479  0.6849 -1.1445  2.5048
  321MOL0     H42359   8.122   7.755   1.393 -2.3418  1.6666 -2.1938
  321MOL0     H42360   7.717   7.604   1.501  1.6154 -0.9789 -1.7330
  321MOL0     H42361   7.512   7.481   1.405 -0.7089 -1.5569 -3.9650
  321MOL0     H42362   7.256   7.699   1.114 -0.3161 -0.4927 -1.0358
  321MOL0     H42363   7.214   7.536   1.107  0.7915 -1.7246  3.5377
  321MOL0     H42364   7.450   7.652   0.959 -0.1396  0.6673 -0.6619
  321MOL0     H42365   7.397   7.479   0.949  0.3412 -0.1497 -1.4535
  321MOL0     H42366   7.245   7.727   0.863  3.5388  0.3302  0.7216
  321MOL0     H42367   7.165   7.570   0.882  0.4532 -0.9710  3.4600
  321MOL0     H42368   7.421   7.644   0.723  1.9126 -0.2107 -2.1056
  321MOL0     H42369   7.354   7.478   0.724 -1.6592 -0.9035  0.0667
  321MOL0     H42370   7.088   7.669   0.451  0.4764  0.3392 -0.9521
  321MOL0     H42371   7.446   7.802   1.139 -0.5211 -1.6813 -0.5261
  321MOL0     H42372   7.620   7.930   1.231  4.0720 -0.4306 -0.2800
  322MOL0     O42373   9.867   7.053   2.296 -0.0779 -0.0598  0.3884
  322MOL0     C42374   9.824   7.028   2.180 -0.4857 -0.1373  0.1143
  322MOL0     O42375   9.896   6.968   2.077  0.9574  1.2978  0.0811
  322MOL0     C42376  10.032   6.979   2.072  0.1092 -0.1887 -0.2698
  322MOL0     C42377  10.092   7.034   1.961 -1.1770  0.4271  0.1545
  322MOL0     C42378  10.234   7.036   1.953  0.0235 -0.0941  0.2923
  322MOL0     C42379  10.316   6.994   2.060 -0.0666  0.5911  0.3544
  322MOL0     O42380  10.452   7.000   2.049 -0.0516  0.8665  0.9412
  322MOL0     C42381  10.508   7.047   1.929  0.3176 -0.2967 -0.7722
  322MOL0     C42382  10.660   7.052   1.952  0.9082 -0.5595  0.3577
  322MOL0     C42383  10.745   7.065   1.825  0.3646  0.1842  0.1237
  322MOL0     C42384  10.890   7.030   1.871  0.2487 -0.3880 -0.0929
  322MOL0     C42385  10.995   7.027   1.758 -0.6542 -0.0227  0.0603
  322MOL0     C42386  11.130   7.109   1.786  1.5881 -0.0242  0.9376
  322MOL0     C42387  11.208   7.068   1.914  0.4022  0.5924  0.4111
  322MOL0     C42388  11.357   7.113   1.919  0.1174  0.0359  0.3071
  322MOL0     N42389  11.364   7.263   1.929 -0.5095 -1.0558  0.5767
  322MOL0     C42390  11.435   7.332   1.825  0.3483  0.2206 -0.7932
  322MOL0     C42391  11.435   7.455   1.876 -0.1310  0.7292  0.9890
  322MOL0     C42392  11.517   7.575   1.836  0.3454 -0.0881 -0.3675
  322MOL0     C42393  11.511   7.586   1.680  0.3255 -0.1549  0.1682
  322MOL0     C42394  11.601   7.691   1.621  0.7348  0.3897 -0.5281
  322MOL0     C42395  11.557   7.836   1.639  0.3273  0.2755 -0.5727
  322MOL0     O42396  11.640   7.919   1.722 -0.5899  0.3428 -0.5880
  322MOL0     C42397  11.767   7.965   1.662 -0.1602  0.2515 -0.7539
  322MOL0     C42398  11.840   8.039   1.755 -0.7003 -0.4513  0.3061
  322MOL0     C42399  11.967   8.086   1.739 -0.9437  1.3025 -0.5809
  322MOL0     C42400  12.017   8.084   1.606 -0.6711 -0.6249 -0.7071
  322MOL0     C42401  12.149   8.148   1.572  0.4877  0.2306  0.2640
  322MOL0     O42402  12.233   8.166   1.674 -0.3143 -0.0710  1.4464
  322MOL0     C42403  12.338   8.259   1.663  0.8313  0.5344 -0.9805
  322MOL0     C42404  12.431   8.235   1.560  0.1625  0.1297  0.4179
  322MOL0     C42405  12.548   8.311   1.559  1.2068 -0.3643  0.1479
  322MOL0     C42406  12.556   8.423   1.643  0.7722  0.6158  0.4179
  322MOL0     O42407  12.661   8.508   1.632  0.0775  0.0485  0.1435
  322MOL0     C42408  12.630   8.649   1.619 -0.2933  0.0629  1.1886
  322MOL0     C42409  12.726   8.690   1.506 -1.3056  0.2354 -0.5420
  322MOL0     C42410  12.749   8.847   1.495 -0.0500 -0.2821 -0.3023
  322MOL0     C42411  12.724   8.911   1.636 -0.3822 -0.7623 -0.2595
  322MOL0     C42412  12.768   9.058   1.636  0.2820  0.2819  0.2023
  322MOL0     C42413  12.918   9.066   1.656  0.3488  0.3740  0.3988
  322MOL0     C42414  12.967   9.196   1.614 -0.2132  0.1219  0.9829
  322MOL0     C42415  12.885   9.323   1.661 -0.3103 -0.5342 -0.2912
  322MOL0    Cl42416  12.974   9.478   1.643  0.2165  0.0838  0.2771
  322MOL0     C42417  12.470   8.437   1.758  0.3000  0.2716  0.5703
  322MOL0     C42418  12.358   8.357   1.768  0.5841  0.7102  0.7615
  322MOL0     O42419  12.172   8.168   1.452  0.4375 -0.5530 -0.9652
  322MOL0     C42420  11.944   8.008   1.511 -0.3604  0.7193 -0.8738
  322MOL0     C42421  11.824   7.936   1.545  0.2759 -0.4661 -0.1110
  322MOL0     N42422  11.366   7.462   1.999 -0.1746  1.0648  0.2814
  322MOL0     N42423  11.322   7.347   2.023 -0.0576  0.6814  0.8015
  322MOL0     C42424  10.254   6.949   2.172  0.3202  0.6233 -0.7113
  322MOL0     C42425  10.114   6.941   2.180  0.6023  0.6809 -0.3567
  322MOL0     C42426   9.689   7.064   2.147  0.2791 -0.7839 -0.0961
  322MOL0     C42427   9.648   7.078   2.014  0.3703 -0.8303  0.3696
  322MOL0     C42428   9.518   7.110   1.983  0.6984  0.0630 -0.7713
  322MOL0     C42429   9.422   7.135   2.089  0.0243 -0.2412 -0.2366
  322MOL0     O42430   9.295   7.184   2.068  0.1327 -0.3135 -0.0009
  322MOL0     C42431   9.261   7.244   1.940 -0.7845  0.1123 -1.1335
  322MOL0     C42432   9.124   7.295   1.966  0.1162  0.3038 -0.5486
  322MOL0     C42433   9.073   7.385   1.844  0.1882 -0.9172 -1.4553
  322MOL0     C42434   8.951   7.469   1.910  0.7878  0.5913  0.1989
  322MOL0     C42435   8.830   7.376   1.911  0.4615 -1.0346 -0.1368
  322MOL0     C42436   8.724   7.324   1.904 -0.6179  1.4031  0.4984
  322MOL0     C42437   9.465   7.103   2.219  0.0598  0.2046  0.7329
  322MOL0     C42438   9.595   7.075   2.249 -0.7415  0.5856  0.7247
  322MOL0     H42439  10.017   7.039   1.882  0.1935  1.0225 -1.1413
  322MOL0     H42440  10.254   7.078   1.855 -2.1606 -0.7373 -0.4840
  322MOL0     H42441  10.470   7.147   1.908  0.8015 -0.6147 -3.5446
  322MOL0     H42442  10.488   6.983   1.843  0.8664 -3.0482  1.0180
  322MOL0     H42443  10.675   6.960   2.011 -0.4514 -0.0010  1.6434
  322MOL0     H42444  10.680   7.139   2.014 -0.3337 -0.5453  0.7589
  322MOL0     H42445  10.732   7.163   1.778 -2.7750 -0.6076 -0.9023
  322MOL0     H42446  10.711   6.985   1.760 -2.6304 -0.2502  2.0458
  322MOL0     H42447  10.913   7.092   1.958 -1.1230 -2.7170  2.0682
  322MOL0     H42448  10.884   6.925   1.901 -0.1601 -1.3168 -3.1028
  322MOL0     H42449  10.956   7.064   1.662  1.4037  1.4943 -0.2618
  322MOL0     H42450  11.041   6.931   1.733 -0.7518  0.5748 -2.6746
  322MOL0     H42451  11.096   7.213   1.794  0.1169 -0.4349  0.4100
  322MOL0     H42452  11.190   7.103   1.694 -0.5157  2.9455 -0.8421
  322MOL0     H42453  11.158   7.108   2.003 -1.5131 -0.2903 -0.1968
  322MOL0     H42454  11.213   6.959   1.922 -0.2199  0.5633  0.4459
  322MOL0     H42455  11.411   7.088   1.828 -2.3899  1.4330 -1.7016
  322MOL0     H42456  11.392   7.060   2.008 -1.1211 -0.0013  0.7915
  322MOL0     H42457  11.508   7.293   1.754 -0.6795 -0.1766 -1.6550
  322MOL0     H42458  11.621   7.574   1.871  0.2852  1.9991 -0.0180
  322MOL0     H42459  11.466   7.658   1.885  2.2148 -0.0289  1.6355
  322MOL0     H42460  11.412   7.605   1.637  0.5001 -2.8637 -1.5995
  322MOL0     H42461  11.543   7.489   1.641  0.4360  1.4638 -4.3536
  322MOL0     H42462  11.692   7.676   1.679 -0.7096 -0.3815  1.7029
  322MOL0     H42463  11.621   7.664   1.517  1.6072 -0.3652 -0.1712
  322MOL0     H42464  11.464   7.830   1.695  1.5657 -5.1929  1.5280
  322MOL0     H42465  11.544   7.885   1.542  0.4795  2.2259  0.3391
  322MOL0     H42466  11.802   8.045   1.857  1.1001 -3.9591  1.3491
  322MOL0     H42467  12.027   8.126   1.820 -0.4662 -2.8243  1.3492
  322MOL0     H42468  12.412   8.156   1.488 -0.7431  1.8462 -1.3010
  322MOL0     H42469  12.623   8.302   1.481  1.1825 -2.1103  0.2887
  322MOL0     H42470  12.665   8.691   1.714 -1.3556  0.6915  1.3126
  322MOL0     H42471  12.526   8.674   1.601  0.0644  1.1840  0.6145
  322MOL0     H42472  12.700   8.648   1.409 -0.6409 -1.2099 -0.1188
  322MOL0     H42473  12.826   8.658   1.536 -1.2425  1.7426  1.0402
  322MOL0     H42474  12.675   8.885   1.424 -2.9234  0.7007  2.9438
  322MOL0     H42475  12.843   8.873   1.446  1.4417 -1.7837  1.6321
  322MOL0     H42476  12.621   8.916   1.671 -1.7471 -0.3409 -3.9099
  322MOL0     H42477  12.777   8.858   1.716 -4.0661 -1.5564  1.8989
  322MOL0     H42478  12.705   9.108   1.710 -1.2873  0.2077 -1.0302
  322MOL0     H42479  12.745   9.097   1.537  3.3325 -0.1153 -0.7636
  322MOL0     H42480  12.970   8.994   1.592  0.5912  1.5378 -0.7543
  322MOL0     H42481  12.954   9.050   1.758  3.3749  0.7698 -0.5116
  322MOL0     H42482  13.070   9.213   1.644 -0.8587  1.1823  2.7370
  322MOL0     H42483  12.968   9.193   1.504  1.1420  1.1283  0.9352
  322MOL0     H42484  12.867   9.306   1.767 -0.8543  1.2286 -0.0589
  322MOL0     H42485  12.787   9.326   1.613 -1.7633  0.5023  2.5242
  322MOL0     H42486  12.489   8.518   1.828  3.1271  1.4043 -1.3059
  322MOL0     H42487  12.292   8.379   1.851 -0.5730  0.2678 -0.0076
  322MOL0     H42488  11.984   7.983   1.414  0.9555 -2.9377  0.4627
  322MOL0     H42489  11.762   7.872   1.484  1.3954  0.4498 -2.3235
  322MOL0     H42490  10.319   6.921   2.254  0.2520  3.1499  0.3068
  322MOL0     H42491  10.068   6.894   2.267  1.0750  1.2709  0.2233
  322MOL0     H42492   9.732   7.087   1.946  0.5380  0.2158  0.6887
  322MOL0     H42493   9.517   7.147   1.881 -1.3555  1.3844 -0.3369
  322MOL0     H42494   9.246   7.180   1.853 -0.0893 -0.9792 -0.4656
  322MOL0     H42495   9.332   7.323   1.913 -0.2593  0.0695  0.0788
  322MOL0     H42496   9.052   7.215   1.983 -1.5002  2.4517  4.0824
  322MOL0     H42497   9.128   7.348   2.061  0.8494  2.9729 -1.9632
  322MOL0     H42498   9.037   7.316   1.767 -3.4105  0.7060 -1.4825
  322MOL0     H42499   9.152   7.454   1.813 -0.5934  0.3595 -0.7409
  322MOL0     H42500   8.976   7.502   2.012  2.8745  1.7846 -0.6299
  322MOL0     H42501   8.931   7.564   1.859  2.6034  0.8864 -0.0565
  322MOL0     H42502   8.633   7.267   1.898  0.4036 -0.4657  1.7973
  322MOL0     H42503   9.382   7.112   2.288 -2.6885  1.7718 -2.4553
  322MOL0     H42504   9.627   7.049   2.350  0.7479 -2.2825 -0.3617
  323MOL0     O42505   4.795   6.145   7.278 -0.1148  0.0986 -0.2208
  323MOL0     C42506   4.868   6.100   7.183  0.6178 -0.3085 -0.1671
  323MOL0     O42507   4.828   6.066   7.056  0.0385 -0.2171  0.7038
  323MOL0     C42508   4.701   6.079   7.016  0.8756  0.1022  0.3347
  323MOL0     C42509   4.634   5.966   6.975 -0.1424 -0.4655  0.2120
  323MOL0     C42510   4.519   5.968   6.901 -0.1593 -0.1110 -1.4327
  323MOL0     C42511   4.459   6.084   6.868 -0.3141 -0.6993 -0.2090
  323MOL0     O42512   4.340   6.101   6.800 -0.1867  0.4453 -0.1804
  323MOL0     C42513   4.237   5.994   6.825 -0.3931 -0.4171 -0.6663
  323MOL0     C42514   4.109   6.061   6.813  0.2338 -1.3461 -0.4043
  323MOL0     C42515   4.070   6.077   6.664  0.4576  0.1873 -0.6325
  323MOL0     C42516   3.934   6.156   6.664 -0.0699 -0.3894 -0.5846
  323MOL0     C42517   3.895   6.213   6.527 -0.5608 -0.2903 -0.9371
  323MOL0     C42518   3.991   6.315   6.466  0.2030 -0.0732 -0.3939
  323MOL0     C42519   3.932   6.368   6.330  0.0854 -0.0190 -0.4171
  323MOL0     C42520   3.981   6.292   6.217  0.9646  0.6232  0.3829
  323MOL0     N42521   4.108   6.339   6.165  0.2289 -0.6822 -0.4010
  323MOL0     C42522   4.114   6.418   6.050  0.5552  0.0882 -0.5408
  323MOL0     C42523   4.247   6.450   6.040 -0.1443  0.1261 -0.9171
  323MOL0     C42524   4.306   6.532   5.930 -0.2137  0.4692 -0.4061
  323MOL0     C42525   4.436   6.454   5.908 -0.0751 -0.7770 -0.2049
  323MOL0     C42526   4.528   6.504   5.791  0.8754  0.5364  0.3001
  323MOL0     C42527   4.540   6.657   5.787  0.4171 -0.5819  0.5175
  323MOL0     O42528   4.680   6.706   5.780  0.3488  0.4344  0.4636
  323MOL0     C42529   4.710   6.836   5.791  0.1613  0.8651  0.1044
  323MOL0     C42530   4.847   6.874   5.795  0.2758  0.0728  0.5521
  323MOL0     C42531   4.885   7.006   5.817 -0.0674 -0.7465  0.3028
  323MOL0     C42532   4.791   7.103   5.816  0.2053 -0.4262  1.0587
  323MOL0     C42533   4.834   7.245   5.812  0.5130 -0.2439 -0.3712
  323MOL0     O42534   4.964   7.278   5.798 -0.5698  0.4144  0.3625
  323MOL0     C42535   5.022   7.403   5.796 -0.3805 -0.7300 -0.5079
  323MOL0     C42536   4.965   7.512   5.726  0.4073 -1.5503 -0.1376
  323MOL0     C42537   5.016   7.643   5.739  0.3868  0.3987  0.7255
  323MOL0     C42538   5.135   7.662   5.811  0.6796  0.8098 -0.2589
  323MOL0     O42539   5.191   7.783   5.834  0.1949  0.6053 -0.6761
  323MOL0     C42540   5.321   7.800   5.795  0.3645  1.3590 -0.6168
  323MOL0     C42541   5.358   7.756   5.650 -0.5410 -0.8406 -0.9387
  323MOL0     C42542   5.264   7.804   5.538 -0.1447  0.5346  0.1449
  323MOL0     C42543   5.342   7.810   5.409 -0.4382 -0.9422  0.6110
  323MOL0     C42544   5.277   7.867   5.288  0.1235 -0.6852  0.2761
  323MOL0     C42545   5.386   7.910   5.182  0.4266 -0.3402  0.3274
  323MOL0     C42546   5.330   7.882   5.046 -0.2455 -1.0259  0.4176
  323MOL0     C42547   5.440   7.934   4.942 -0.2123 -0.6343 -0.2420
  323MOL0    Cl42548   5.454   8.110   4.969 -0.1929 -0.2378 -0.0563
  323MOL0     C42549   5.204   7.554   5.861  0.6008  0.1440 -0.3655
  323MOL0     C42550   5.145   7.425   5.849 -0.3404 -0.4415  1.0095
  323MOL0     O42551   4.749   7.330   5.822 -0.4866  0.1123 -0.6744
  323MOL0     C42552   4.662   7.072   5.791 -0.3831  0.5979 -0.1495
  323MOL0     C42553   4.621   6.939   5.781 -0.1106  0.5913  0.5536
  323MOL0     N42554   4.304   6.394   6.158 -0.0793 -0.0648  0.1240
  323MOL0     N42555   4.225   6.326   6.228 -0.4979  0.1208 -0.1676
  323MOL0     C42556   4.528   6.202   6.909  0.4253 -0.5404 -1.0090
  323MOL0     C42557   4.651   6.200   6.981  0.4669 -0.3295  0.8927
  323MOL0     C42558   4.998   6.054   7.225  0.3379  0.1297  0.4679
  323MOL0     C42559   5.090   6.032   7.122 -0.5625  1.2495  0.0971
  323MOL0     C42560   5.220   5.982   7.151 -0.3816  0.4295 -0.0941
  323MOL0     C42561   5.254   5.961   7.287  0.4118  0.3492 -0.1629
  323MOL0     O42562   5.384   5.914   7.309 -0.2976 -0.3831  0.9179
  323MOL0     C42563   5.445   5.885   7.438  0.1439 -0.4042  0.3428
  323MOL0     C42564   5.551   5.996   7.464  0.7201 -0.0364  0.4969
  323MOL0     C42565   5.691   5.957   7.401 -0.1209  0.1092 -0.3222
  323MOL0     C42566   5.689   5.979   7.254 -0.4242 -0.1238  0.6272
  323MOL0     C42567   5.818   5.929   7.199 -0.0748 -1.0056  0.6022
  323MOL0     C42568   5.925   5.902   7.150 -0.0460  0.0659 -0.2090
  323MOL0     C42569   5.166   6.001   7.386  0.3213  0.7242 -0.2949
  323MOL0     C42570   5.035   6.042   7.359  0.1303  0.3484  0.0520
  323MOL0     H42571   4.666   5.866   6.999 -1.0723 -1.2738 -1.6456
  323MOL0     H42572   4.482   5.868   6.884 -2.0738  0.9066 -3.9712
  323MOL0     H42573   4.259   5.951   6.924 -0.5670  2.4438  0.7307
  323MOL0     H42574   4.245   5.909   6.756 -0.4354 -2.0582  1.2370
  323MOL0     H42575   4.117   6.168   6.835 -0.5379 -1.0527 -1.4453
  323MOL0     H42576   4.030   6.011   6.869  0.5622 -0.3044  1.0524
  323MOL0     H42577   4.059   5.983   6.610 -1.0230 -1.5408  2.3986
  323MOL0     H42578   4.150   6.137   6.619  0.5451  0.6218  0.0939
  323MOL0     H42579   3.866   6.085   6.710 -1.5083  1.8296  0.9080
  323MOL0     H42580   3.946   6.244   6.728  1.2175 -0.2790 -0.9414
  323MOL0     H42581   3.798   6.261   6.534 -1.5852 -2.1353 -1.5791
  323MOL0     H42582   3.865   6.131   6.460 -2.8482 -0.0703 -0.2370
  323MOL0     H42583   4.089   6.267   6.457 -0.0161 -0.2955 -1.8581
  323MOL0     H42584   4.015   6.407   6.519 -0.6003  0.0364 -0.2218
  323MOL0     H42585   3.824   6.359   6.340  0.0215 -0.2770 -1.2936
  323MOL0     H42586   3.951   6.473   6.309 -0.6075  0.6818  2.1438
  323MOL0     H42587   3.910   6.297   6.135  1.0585 -0.7215  0.1915
  323MOL0     H42588   3.989   6.187   6.248 -0.3240  0.5352  0.4586
  323MOL0     H42589   4.040   6.446   5.976  0.9408  0.1165 -0.9211
  323MOL0     H42590   4.318   6.635   5.962 -2.7916  0.5969  0.3540
  323MOL0     H42591   4.252   6.522   5.836 -0.7549 -0.8066  0.0114
  323MOL0     H42592   4.416   6.348   5.889 -0.4480 -0.9659  1.1380
  323MOL0     H42593   4.499   6.472   5.995 -0.7638  3.8196 -0.3988
  323MOL0     H42594   4.630   6.473   5.817  2.5109  6.3563  2.3320
  323MOL0     H42595   4.482   6.461   5.701 -4.3006 -1.6125  3.5243
  323MOL0     H42596   4.499   6.691   5.882 -5.0065 -0.4399 -1.4922
  323MOL0     H42597   4.480   6.705   5.709 -2.6285  3.4402  4.7995
  323MOL0     H42598   4.923   6.796   5.789  0.0344 -0.1501  0.2770
  323MOL0     H42599   4.986   7.044   5.825 -0.2069 -0.2239 -0.3444
  323MOL0     H42600   4.871   7.501   5.674 -1.5031  1.6800  2.2088
  323MOL0     H42601   4.960   7.728   5.701 -2.8070 -1.1624  1.6031
  323MOL0     H42602   5.394   7.765   5.869 -0.0248  3.5100  0.8545
  323MOL0     H42603   5.328   7.909   5.797 -1.0507  1.4707 -0.7312
  323MOL0     H42604   5.370   7.647   5.647  1.0722 -0.7149 -0.1976
  323MOL0     H42605   5.458   7.796   5.633 -0.6469 -0.1320 -0.0082
  323MOL0     H42606   5.221   7.897   5.577  1.1852  2.0246 -1.7592
  323MOL0     H42607   5.178   7.737   5.527  0.1353  0.2513 -0.3683
  323MOL0     H42608   5.435   7.864   5.430  1.3224 -2.6581 -2.1767
  323MOL0     H42609   5.368   7.709   5.377  0.0807 -0.6885  0.2069
  323MOL0     H42610   5.244   7.964   5.326 -0.3525 -0.7043 -0.0778
  323MOL0     H42611   5.206   7.802   5.237  0.4194 -0.7737 -0.0254
  323MOL0     H42612   5.474   7.846   5.199  1.8695  1.6457  0.6661
  323MOL0     H42613   5.415   8.012   5.207  0.9587 -0.7341  1.3972
  323MOL0     H42614   5.306   7.777   5.027  2.4473 -1.8177  0.9423
  323MOL0     H42615   5.237   7.932   5.016  1.2592  0.9907 -1.1810
  323MOL0     H42616   5.405   7.906   4.841  1.1549 -0.7334 -0.7002
  323MOL0     H42617   5.538   7.892   4.961 -0.1342 -0.2036  0.3260
  323MOL0     H42618   5.303   7.570   5.902  0.5471  0.0372 -0.1936
  323MOL0     H42619   5.198   7.331   5.863 -1.9261 -1.7308 -1.0877
  323MOL0     H42620   4.586   7.146   5.766 -1.8582 -1.5519 -2.6874
  323MOL0     H42621   4.517   6.913   5.770  0.1179 -0.6489  1.0819
  323MOL0     H42622   4.480   6.298   6.896  0.7974 -0.1634  0.2465
  323MOL0     H42623   4.704   6.294   6.994  0.1144 -0.1975  1.3803
  323MOL0     H42624   5.065   6.024   7.017 -0.0517 -3.1726  0.1108
  323MOL0     H42625   5.292   5.951   7.076 -1.1733 -1.0791 -0.2734
  323MOL0     H42626   5.482   5.783   7.454 -1.1901 -1.4059 -2.3756
  323MOL0     H42627   5.360   5.897   7.506 -0.5350 -0.4800 -0.4787
  323MOL0     H42628   5.521   6.096   7.430 -2.1501 -0.5055  1.4372
  323MOL0     H42629   5.567   6.004   7.572 -0.9223  2.2352  0.6447
  323MOL0     H42630   5.731   5.860   7.431 -0.7846  0.2305  1.0215
  323MOL0     H42631   5.761   6.030   7.442  0.6724  0.5300 -2.2936
  323MOL0     H42632   5.601   5.927   7.217 -0.1907 -0.5896  0.7206
  323MOL0     H42633   5.671   6.087   7.249 -1.0304 -0.2001  1.2094
  323MOL0     H42634   6.026   5.896   7.115  0.1973 -0.2977  0.5233
  323MOL0     H42635   5.202   6.007   7.489  0.8375  0.5653 -0.4630
  323MOL0     H42636   4.973   6.078   7.440  0.6006 -0.4664  0.7784
  324MOL0     O42637   2.005   3.911   3.587 -0.4626 -0.0377 -0.0092
  324MOL0     C42638   2.042   3.831   3.668  0.5240  0.1954 -0.9853
  324MOL0     O42639   1.976   3.815   3.782  0.1346 -0.2547  0.0348
  324MOL0     C42640   1.857   3.881   3.808  0.3433  0.1599  0.7749
  324MOL0     C42641   1.836   3.944   3.928  0.5296 -0.2044 -0.1561
  324MOL0     C42642   1.715   4.003   3.961 -1.2970 -0.3573  0.6529
  324MOL0     C42643   1.605   3.987   3.877 -0.1194 -0.1910 -0.4659
  324MOL0     O42644   1.492   4.058   3.911  0.0439  0.0254  0.0198
  324MOL0     C42645   1.399   4.097   3.809 -1.2970  0.0341 -0.8154
  324MOL0     C42646   1.276   4.170   3.879 -0.1303  1.3373  0.5370
  324MOL0     C42647   1.156   4.192   3.779  0.3436  0.6651  0.2490
  324MOL0     C42648   1.013   4.186   3.840 -1.0733  0.5204 -0.4416
  324MOL0     C42649   0.898   4.239   3.760 -0.2048 -0.4093 -0.3344
  324MOL0     C42650   0.885   4.389   3.780 -0.5902  0.6754 -0.4713
  324MOL0     C42651   0.750   4.439   3.715  0.2307 -0.1057  0.9307
  324MOL0     C42652   0.771   4.583   3.659 -0.2247  0.2776  0.0299
  324MOL0     N42653   0.638   4.619   3.608  0.5613  0.7210  0.7196
  324MOL0     C42654   0.621   4.711   3.505  0.1121  0.7870 -0.5602
  324MOL0     C42655   0.492   4.694   3.465  0.1912  0.1533 -0.6401
  324MOL0     C42656   0.423   4.782   3.357 -0.2726  0.1333 -0.6484
  324MOL0     C42657   0.507   4.836   3.243  0.0348  0.4758 -0.2729
  324MOL0     C42658   0.547   4.722   3.159 -0.2768 -0.2034  0.0775
  324MOL0     C42659   0.609   4.777   3.021  0.7645 -0.4843  0.2805
  324MOL0     O42660   0.663   4.907   3.039 -1.4345 -0.3700  0.0482
  324MOL0     C42661   0.778   4.926   3.115 -1.0110  1.1590 -0.3428
  324MOL0     C42662   0.804   5.053   3.161 -0.4306 -0.5163 -0.6070
  324MOL0     C42663   0.916   5.075   3.236 -0.0134  0.2728  0.4304
  324MOL0     C42664   0.998   4.968   3.297  0.7895  0.4099 -0.2737
  324MOL0     C42665   1.101   4.999   3.397 -0.1458 -0.1477 -1.1796
  324MOL0     O42666   1.137   5.129   3.411  0.9611 -0.2238  0.2931
  324MOL0     C42667   1.213   5.182   3.511 -0.4352 -0.2087  0.3389
  324MOL0     C42668   1.269   5.120   3.627 -0.0017  0.7567 -0.2983
  324MOL0     C42669   1.321   5.186   3.734 -0.0112 -0.0257 -0.0833
  324MOL0     C42670   1.333   5.327   3.727 -0.0458 -0.0544 -0.0608
  324MOL0     O42671   1.394   5.392   3.828 -0.7631  0.0682  1.0733
  324MOL0     C42672   1.523   5.433   3.787 -0.6070 -0.6958  0.4411
  324MOL0     C42673   1.579   5.484   3.914  0.1138 -0.1424  0.1005
  324MOL0     C42674   1.714   5.544   3.884  0.8526  0.6640  0.5163
  324MOL0     C42675   1.711   5.686   3.834  0.6643 -1.0470 -0.1609
  324MOL0     C42676   1.843   5.750   3.823 -0.1815  0.4792  0.1499
  324MOL0     C42677   1.926   5.746   3.953 -0.7082  0.3993  1.3122
  324MOL0     C42678   2.036   5.854   3.958  0.5118  0.1147  0.5120
  324MOL0     C42679   2.010   5.963   4.055  0.1588  0.1849 -0.6992
  324MOL0    Cl42680   2.150   6.070   4.076 -0.0816 -0.1874 -0.0433
  324MOL0     C42681   1.269   5.395   3.617 -0.6930  0.6076 -0.0835
  324MOL0     C42682   1.209   5.324   3.514  0.1386 -1.3415 -0.4049
  324MOL0     O42683   1.155   4.896   3.454 -0.2685 -0.3775 -0.1658
  324MOL0     C42684   0.964   4.832   3.255 -0.4229 -0.6350  0.0898
  324MOL0     C42685   0.858   4.814   3.168 -0.0059 -0.2778  0.5213
  324MOL0     N42686   0.426   4.612   3.553  0.5137  0.6966  0.4559
  324MOL0     N42687   0.513   4.567   3.633  0.6508 -0.0114  0.4232
  324MOL0     C42688   1.620   3.907   3.757 -0.1697 -0.3753 -0.4203
  324MOL0     C42689   1.751   3.869   3.718  0.6933  0.5301  0.3043
  324MOL0     C42690   2.172   3.756   3.635 -0.2860  0.8114 -0.2360
  324MOL0     C42691   2.211   3.709   3.517  0.6002  0.0526  1.4264
  324MOL0     C42692   2.337   3.648   3.493  0.1249  0.5305  0.0155
  324MOL0     C42693   2.419   3.626   3.597  0.2823 -0.0009 -0.2862
  324MOL0     O42694   2.544   3.567   3.591  0.4503 -0.1027 -0.1841
  324MOL0     C42695   2.556   3.479   3.487 -0.0071 -0.1537  0.5407
  324MOL0     C42696   2.649   3.366   3.523  0.1349  0.4299  0.4404
  324MOL0     C42697   2.595   3.275   3.628  0.3398 -0.0574  0.1356
  324MOL0     C42698   2.493   3.170   3.588 -0.3436  0.4961  0.8726
  324MOL0     C42699   2.461   3.084   3.704  0.7436 -0.4780  0.0344
  324MOL0     C42700   2.434   3.007   3.787 -0.2794 -1.0058 -1.0608
  324MOL0     C42701   2.391   3.671   3.725  1.3031  0.5021  0.2607
  324MOL0     C42702   2.267   3.737   3.737  0.5428  1.8658 -1.1354
  324MOL0     H42703   1.920   3.958   3.995  0.6225  1.0676 -0.5124
  324MOL0     H42704   1.720   4.079   4.038 -1.5046  4.0453 -3.2200
  324MOL0     H42705   1.355   4.019   3.745  1.0709 -1.7307 -0.4163
  324MOL0     H42706   1.453   4.157   3.736  1.5121 -0.5159  0.6728
  324MOL0     H42707   1.310   4.261   3.928  1.5307  0.3782  1.2407
  324MOL0     H42708   1.253   4.105   3.964 -0.0746 -1.7045 -1.6267
  324MOL0     H42709   1.167   4.118   3.699 -0.5312 -0.7735  1.3861
  324MOL0     H42710   1.167   4.293   3.741 -1.9687  1.0763  0.5089
  324MOL0     H42711   1.011   4.082   3.876  2.8872  0.9191  1.4167
  324MOL0     H42712   1.015   4.241   3.935 -0.2860  3.8996 -2.2617
  324MOL0     H42713   0.802   4.193   3.785  0.0311 -0.5495  0.3214
  324MOL0     H42714   0.915   4.215   3.654  0.0843 -0.2855 -0.3174
  324MOL0     H42715   0.974   4.435   3.736  0.8529  0.1244  1.6943
  324MOL0     H42716   0.887   4.418   3.886  0.1635 -1.8684  0.2659
  324MOL0     H42717   0.724   4.373   3.633 -0.4760 -1.0518  1.8936
  324MOL0     H42718   0.669   4.439   3.789 -1.2732 -1.9086 -0.6336
  324MOL0     H42719   0.842   4.575   3.576 -0.9743  0.2637 -0.6264
  324MOL0     H42720   0.801   4.654   3.737 -0.8959 -0.9125  1.4210
  324MOL0     H42721   0.696   4.782   3.474  1.4587  0.7923  2.3010
  324MOL0     H42722   0.369   4.862   3.407  1.1325 -0.3814  1.8295
  324MOL0     H42723   0.344   4.716   3.318  0.1059 -1.1851  0.7108
  324MOL0     H42724   0.591   4.890   3.289  0.3728  0.2606 -0.6399
  324MOL0     H42725   0.446   4.908   3.187  0.5484  0.1486 -1.2736
  324MOL0     H42726   0.630   4.667   3.206  0.9099 -0.0461 -1.7203
  324MOL0     H42727   0.467   4.649   3.142  1.1729 -1.8479  0.0228
  324MOL0     H42728   0.525   4.778   2.951  1.6843  1.8861 -0.8980
  324MOL0     H42729   0.682   4.704   2.986  0.8780  1.2889 -3.6216
  324MOL0     H42730   0.737   5.131   3.126 -0.9200 -0.4906  0.3384
  324MOL0     H42731   0.918   5.181   3.260  2.2593  0.2984  0.3664
  324MOL0     H42732   1.274   5.012   3.622 -0.3646  0.7624 -0.9001
  324MOL0     H42733   1.368   5.123   3.810  0.2388 -1.3254 -1.2648
  324MOL0     H42734   1.517   5.526   3.730  2.0206  2.3037  4.5324
  324MOL0     H42735   1.572   5.347   3.740  1.5081 -0.6748  2.4685
  324MOL0     H42736   1.594   5.407   3.990  1.9717  0.2345  0.1487
  324MOL0     H42737   1.516   5.568   3.945  0.9839 -0.7445  3.9883
  324MOL0     H42738   1.778   5.485   3.818  1.7801  1.1927  0.9193
  324MOL0     H42739   1.766   5.540   3.980  2.7746  2.8547 -0.3343
  324MOL0     H42740   1.660   5.689   3.737 -0.2601  0.6366  0.3373
  324MOL0     H42741   1.655   5.740   3.911  2.7028 -0.3368  0.8975
  324MOL0     H42742   1.833   5.856   3.798  1.2144  0.3390 -1.1204
  324MOL0     H42743   1.896   5.697   3.744 -0.2170 -0.1868  0.5598
  324MOL0     H42744   1.981   5.655   3.978  0.9348  0.5446 -1.3198
  324MOL0     H42745   1.847   5.768   4.025 -0.5489  0.7492  1.3809
  324MOL0     H42746   2.123   5.800   3.994  1.4870  0.7212 -0.8437
  324MOL0     H42747   2.051   5.905   3.862  1.7587 -0.7555  0.2194
  324MOL0     H42748   1.993   5.927   4.157  1.8443  0.0854 -0.4198
  324MOL0     H42749   1.923   6.020   4.022 -1.4907 -0.5881  1.9897
  324MOL0     H42750   1.270   5.502   3.633  3.0544  0.6747  0.1195
  324MOL0     H42751   1.140   5.370   3.443 -1.6785 -3.6293 -0.2457
  324MOL0     H42752   1.013   4.743   3.292 -0.1934 -1.5815 -2.2850
  324MOL0     H42753   0.840   4.709   3.144 -0.3707 -0.0131 -0.3842
  324MOL0     H42754   1.539   3.900   3.686 -2.9687  2.3382  2.2520
  324MOL0     H42755   1.752   3.825   3.619 -3.0306 -0.3095  0.5012
  324MOL0     H42756   2.143   3.720   3.433  3.8860  0.1035 -1.4595
  324MOL0     H42757   2.347   3.623   3.388 -1.2906 -2.3065  0.4453
  324MOL0     H42758   2.600   3.526   3.398 -0.6886 -0.8632 -0.1959
  324MOL0     H42759   2.460   3.432   3.464 -1.7268  2.9821  0.7767
  324MOL0     H42760   2.685   3.305   3.441 -0.5308  0.9748 -0.2709
  324MOL0     H42761   2.736   3.419   3.563 -0.2415 -0.2545  2.3095
  324MOL0     H42762   2.547   3.336   3.705 -1.8929 -0.1917 -1.0541
  324MOL0     H42763   2.670   3.212   3.677 -3.4194 -2.6234  3.2568
  324MOL0     H42764   2.399   3.213   3.554 -0.9605 -1.2789  0.1693
  324MOL0     H42765   2.522   3.096   3.512 -0.2732 -0.5101  1.8485
  324MOL0     H42766   2.405   2.927   3.853  0.5001 -0.9251 -0.6108
  324MOL0     H42767   2.467   3.654   3.801  3.0574 -4.3144 -2.2033
  324MOL0     H42768   2.236   3.777   3.833  0.9495  0.9345 -0.5944
  325MOL0     O42769   8.529   4.895   2.853  0.8190 -0.3757 -0.1706
  325MOL0     C42770   8.638   4.919   2.797 -0.6264  0.5711  0.3253
  325MOL0     O42771   8.658   4.921   2.661 -0.9828  0.2360 -1.1888
  325MOL0     C42772   8.553   4.893   2.588 -0.2526 -0.4649  0.9133
  325MOL0     C42773   8.452   4.987   2.568  0.0642  0.1831 -0.0629
  325MOL0     C42774   8.353   4.955   2.481 -0.5889 -0.3410 -0.2699
  325MOL0     C42775   8.348   4.836   2.408  0.5039 -0.1292 -0.5486
  325MOL0     O42776   8.250   4.791   2.324 -0.2982 -0.3413 -0.4281
  325MOL0     C42777   8.128   4.873   2.287 -0.6099  0.7814  0.2529
  325MOL0     C42778   8.048   4.786   2.193  0.1177 -0.4775  0.4860
  325MOL0     C42779   7.949   4.859   2.103  0.0468 -0.3454  0.7993
  325MOL0     C42780   7.814   4.902   2.177 -0.6292 -0.4128  0.1959
  325MOL0     C42781   7.700   4.927   2.071  0.7582  0.7606 -0.6568
  325MOL0     C42782   7.654   4.791   2.008 -0.1382  0.9688  0.0171
  325MOL0     C42783   7.522   4.815   1.931  0.1292 -0.0853  0.9219
  325MOL0     C42784   7.552   4.879   1.794  0.4581  0.0377 -0.1381
  325MOL0     N42785   7.432   4.890   1.710  0.3446 -1.2643 -0.2128
  325MOL0     C42786   7.376   5.016   1.686  0.2106  0.0485 -0.5605
  325MOL0     C42787   7.291   4.989   1.580 -0.2799 -0.5438 -0.3999
  325MOL0     C42788   7.226   5.085   1.478 -0.1018  0.2947  0.5836
  325MOL0     C42789   7.331   5.179   1.413  0.9576  0.0802 -0.5684
  325MOL0     C42790   7.340   5.307   1.493  0.8680  0.2259 -0.2058
  325MOL0     C42791   7.454   5.396   1.437 -0.0071  0.3676 -1.2919
  325MOL0     O42792   7.570   5.316   1.440 -0.5686 -0.5124 -0.3744
  325MOL0     C42793   7.650   5.301   1.546 -0.0552  0.2653 -0.6556
  325MOL0     C42794   7.775   5.231   1.529  0.3288 -0.8496 -0.5550
  325MOL0     C42795   7.862   5.208   1.633  0.3263 -0.3846  0.1695
  325MOL0     C42796   7.836   5.259   1.762 -0.5101 -0.7185 -0.2876
  325MOL0     C42797   7.918   5.222   1.880  0.2615 -0.4684 -0.2307
  325MOL0     O42798   7.902   5.293   2.000  0.8099 -0.3114 -0.4621
  325MOL0     C42799   8.009   5.290   2.084 -0.1467  0.8147 -0.1114
  325MOL0     C42800   8.005   5.272   2.222  1.0545 -0.9399  0.5502
  325MOL0     C42801   8.123   5.275   2.300  0.7827 -0.0398  0.2855
  325MOL0     C42802   8.245   5.301   2.230 -0.3257 -0.4898 -1.3521
  325MOL0     O42803   8.363   5.277   2.298 -0.2787 -0.3766  0.0085
  325MOL0     C42804   8.479   5.360   2.276 -0.0865 -0.6007  0.4346
  325MOL0     C42805   8.517   5.434   2.406 -0.2085  0.3482  0.1986
  325MOL0     C42806   8.515   5.328   2.520  0.3886  0.8133 -0.2727
  325MOL0     C42807   8.576   5.390   2.650 -0.1912 -0.1423  1.1192
  325MOL0     C42808   8.596   5.282   2.760 -0.4758  0.2934 -0.2086
  325MOL0     C42809   8.662   5.349   2.889  0.0742  0.1142 -0.2504
  325MOL0     C42810   8.807   5.398   2.849  1.0018  0.1930  0.3921
  325MOL0     C42811   8.897   5.432   2.958  0.4038  0.2066 -0.4002
  325MOL0    Cl42812   9.076   5.420   2.897  0.0708 -0.0587  0.0541
  325MOL0     C42813   8.252   5.326   2.095 -0.2288 -0.6675  0.1677
  325MOL0     C42814   8.128   5.339   2.029 -0.6972 -0.8584  0.1350
  325MOL0     O42815   7.990   5.126   1.869 -0.0186 -0.5045 -0.7219
  325MOL0     C42816   7.716   5.338   1.783 -0.1138 -0.1036  0.8029
  325MOL0     C42817   7.626   5.353   1.674  0.4148 -0.5471  0.3767
  325MOL0     N42818   7.290   4.860   1.544 -0.7984  0.1509  0.0468
  325MOL0     N42819   7.371   4.802   1.634 -0.1224  0.4445  0.6211
  325MOL0     C42820   8.451   4.741   2.438  0.3646  0.5979  0.8582
  325MOL0     C42821   8.553   4.768   2.525  0.2904 -0.7534 -0.3148
  325MOL0     C42822   8.754   4.951   2.878 -0.3899 -0.4172 -0.3031
  325MOL0     C42823   8.849   5.033   2.833 -0.8250  0.0154  0.3191
  325MOL0     C42824   8.966   5.063   2.909  0.6040 -1.1038  0.4161
  325MOL0     C42825   8.954   5.035   3.052 -0.4988 -0.4227  0.9042
  325MOL0     O42826   9.056   5.097   3.122 -0.1078 -0.6016 -0.1036
  325MOL0     C42827   9.031   5.109   3.266  0.1206  0.4553  0.0981
  325MOL0     C42828   9.118   5.214   3.333 -0.4121 -0.5106  0.0304
  325MOL0     C42829   9.101   5.353   3.266  0.5433  0.5345  0.4305
  325MOL0     C42830   9.176   5.463   3.342 -0.5957  0.1611 -0.0657
  325MOL0     C42831   9.132   5.591   3.278  0.1282  0.3578 -0.3939
  325MOL0     C42832   9.102   5.699   3.230  0.3881 -0.0403 -0.4238
  325MOL0     C42833   8.854   4.952   3.104  0.1299 -0.4398  0.4798
  325MOL0     C42834   8.757   4.907   3.014  0.1498  0.6269  1.4352
  325MOL0     H42835   8.457   5.079   2.625  0.1364  0.8716 -1.1424
  325MOL0     H42836   8.286   5.032   2.444  3.8116  2.7914 -2.5737
  325MOL0     H42837   8.142   4.974   2.248 -0.5627  0.0490 -1.7520
  325MOL0     H42838   8.072   4.878   2.381  0.3411  0.2819  0.8597
  325MOL0     H42839   7.985   4.720   2.255 -0.6098 -1.9938 -1.7606
  325MOL0     H42840   8.118   4.740   2.123  0.4462  0.4257  0.2212
  325MOL0     H42841   7.919   4.787   2.026 -2.4811 -2.7518  3.7560
  325MOL0     H42842   7.997   4.949   2.063  0.3440 -0.6693  0.4231
  325MOL0     H42843   7.783   4.830   2.253 -2.0540 -2.0061 -1.8186
  325MOL0     H42844   7.822   4.987   2.245 -4.9106  0.0122  0.4178
  325MOL0     H42845   7.719   5.003   1.994 -3.0051  1.9944 -0.5455
  325MOL0     H42846   7.617   4.972   2.125 -0.3981 -2.2525  0.2708
  325MOL0     H42847   7.643   4.724   2.093  1.9929  2.5540  1.6599
  325MOL0     H42848   7.731   4.748   1.942 -0.0664  0.2925  0.5343
  325MOL0     H42849   7.471   4.721   1.909 -0.6467  0.8139 -1.4058
  325MOL0     H42850   7.453   4.882   1.986 -1.9519  0.7896 -2.4540
  325MOL0     H42851   7.634   4.821   1.750  0.8655  1.8201 -1.8642
  325MOL0     H42852   7.585   4.980   1.819  0.7282  0.4644 -2.0971
  325MOL0     H42853   7.416   5.116   1.700 -0.7295 -0.0139  4.1961
  325MOL0     H42854   7.152   5.152   1.523 -0.3892  1.4351 -1.4745
  325MOL0     H42855   7.174   5.022   1.405 -2.7680  2.7800  0.1749
  325MOL0     H42856   7.297   5.194   1.310  1.1880 -3.6453 -1.3454
  325MOL0     H42857   7.422   5.119   1.407  0.4372 -0.7827 -0.0897
  325MOL0     H42858   7.250   5.364   1.469  0.2393  0.5935  2.6136
  325MOL0     H42859   7.338   5.282   1.600 -2.8830 -0.0552 -0.2103
  325MOL0     H42860   7.450   5.488   1.496 -0.2951 -0.2171 -0.3929
  325MOL0     H42861   7.443   5.422   1.331 -0.3584 -0.0958 -1.3693
  325MOL0     H42862   7.807   5.196   1.431 -0.1613 -0.9756 -0.6735
  325MOL0     H42863   7.955   5.153   1.627  0.2647 -0.6337  1.3539
  325MOL0     H42864   7.910   5.256   2.273  0.6772  1.3474  0.6414
  325MOL0     H42865   8.133   5.258   2.407 -1.6351  0.9695  0.7419
  325MOL0     H42866   8.460   5.443   2.207  1.0358 -0.1670  0.6388
  325MOL0     H42867   8.563   5.299   2.242  0.3217 -0.2353  0.7904
  325MOL0     H42868   8.447   5.517   2.418 -3.0966 -1.6521 -1.4683
  325MOL0     H42869   8.617   5.478   2.395  1.5565 -2.5072  3.0170
  325MOL0     H42870   8.565   5.232   2.502  0.1050  0.4349  0.9012
  325MOL0     H42871   8.411   5.299   2.537  1.0763 -0.8347  1.4518
  325MOL0     H42872   8.666   5.438   2.612 -0.7827 -1.2543 -1.9988
  325MOL0     H42873   8.504   5.467   2.680  0.7264  0.5477  1.5992
  325MOL0     H42874   8.653   5.200   2.716 -0.6681 -0.2276  0.4860
  325MOL0     H42875   8.503   5.231   2.788 -1.0516  1.3041 -0.2259
  325MOL0     H42876   8.683   5.262   2.952  2.3260  2.3111  2.2879
  325MOL0     H42877   8.604   5.431   2.932 -2.1253 -0.8821 -1.1763
  325MOL0     H42878   8.845   5.329   2.773  0.5027  1.5583 -1.1525
  325MOL0     H42879   8.801   5.498   2.805  6.8915  0.9249  0.4116
  325MOL0     H42880   8.889   5.375   3.051  0.1444  1.4367  0.3551
  325MOL0     H42881   8.868   5.532   2.991 -1.4648 -0.5272  0.3742
  325MOL0     H42882   8.347   5.335   2.044  0.4608  0.4054  1.5550
  325MOL0     H42883   8.136   5.369   1.925 -0.2365 -1.0079  0.1237
  325MOL0     H42884   7.688   5.379   1.879 -0.6581  1.2666  0.0932
  325MOL0     H42885   7.548   5.425   1.697 -0.2307 -1.2767  0.5037
  325MOL0     H42886   8.461   4.646   2.387  4.3842  1.1126  0.3736
  325MOL0     H42887   8.639   4.702   2.529  1.6917  0.7922 -2.5089
  325MOL0     H42888   8.843   5.077   2.734 -3.0942  2.3615  1.3650
  325MOL0     H42889   9.047   5.128   2.877  0.3003 -0.3717  1.1151
  325MOL0     H42890   9.055   5.014   3.315 -0.7041  0.1220 -0.1207
  325MOL0     H42891   8.927   5.119   3.299  0.5312 -1.7295  2.3707
  325MOL0     H42892   9.073   5.228   3.432 -0.6176 -1.7630  0.1352
  325MOL0     H42893   9.223   5.187   3.343  0.0001  1.5708  2.0523
  325MOL0     H42894   8.995   5.381   3.269  0.0432 -1.0813 -0.7729
  325MOL0     H42895   9.135   5.348   3.162  0.1167  1.3976  0.2309
  325MOL0     H42896   9.159   5.451   3.450  1.4488 -0.0338  0.2756
  325MOL0     H42897   9.282   5.448   3.318 -0.8546 -0.3532 -0.9099
  325MOL0     H42898   9.084   5.793   3.182  1.8595  1.2778  1.4679
  325MOL0     H42899   8.840   4.926   3.209 -1.7955  0.8871  0.5977
  325MOL0     H42900   8.674   4.847   3.049  0.0362 -0.3250 -0.3673
  326MOL0     O42901   6.263   9.151   0.138 -0.0223  0.8978  0.3129
  326MOL0     C42902   6.249   9.045   0.078  0.3630  1.0269 -0.1752
  326MOL0     O42903   6.297   8.923   0.117  0.2201 -0.2931 -0.0316
  326MOL0     C42904   6.383   8.901   0.223  0.0207  0.3436 -0.4267
  326MOL0     C42905   6.411   8.992   0.332  0.5105 -0.3259  0.4110
  326MOL0     C42906   6.478   8.953   0.444 -0.2202  0.4669 -0.6277
  326MOL0     C42907   6.520   8.823   0.457  0.0198  0.6736 -0.3887
  326MOL0     O42908   6.588   8.769   0.567  0.0056  0.5118 -0.4346
  326MOL0     C42909   6.622   8.846   0.691  0.4032  0.5539  0.1195
  326MOL0     C42910   6.520   8.814   0.798 -0.7333  0.0290  0.2088
  326MOL0     C42911   6.558   8.860   0.939 -0.6870  0.0681 -0.5017
  326MOL0     C42912   6.599   9.000   0.955 -0.9429 -0.6323  0.0822
  326MOL0     C42913   6.668   9.024   1.087 -0.8414  0.2133  0.7944
  326MOL0     C42914   6.582   8.980   1.210  0.2602  0.2158  0.3679
  326MOL0     C42915   6.657   9.011   1.340  0.1612 -0.0297  0.0135
  326MOL0     C42916   6.637   9.153   1.385  0.3544 -0.7558 -0.1736
  326MOL0     N42917   6.727   9.179   1.496 -0.4285 -0.3861  0.0547
  326MOL0     C42918   6.696   9.224   1.620 -0.0626 -0.3102  0.0628
  326MOL0     C42919   6.800   9.212   1.699  0.4544 -0.8150 -1.0161
  326MOL0     C42920   6.809   9.260   1.835 -0.0705 -0.4648 -0.3366
  326MOL0     C42921   6.706   9.196   1.930  0.0625  0.1890  0.3138
  326MOL0     C42922   6.752   9.205   2.077 -0.4131 -0.2263 -0.0923
  326MOL0     C42923   6.646   9.172   2.173 -0.6241  1.1924 -0.3993
  326MOL0     O42924   6.646   9.030   2.189 -0.2512 -0.0276 -0.0456
  326MOL0     C42925   6.686   8.993   2.313  0.7839  0.0835  0.9620
  326MOL0     C42926   6.799   8.912   2.339  0.9459  0.2303 -0.1121
  326MOL0     C42927   6.836   8.887   2.467  0.1025 -0.0064  0.3422
  326MOL0     C42928   6.760   8.937   2.582  0.6079  0.5306 -0.1107
  326MOL0     C42929   6.805   8.902   2.719 -0.5543 -0.1502 -0.4273
  326MOL0     O42930   6.921   8.822   2.744 -0.6570 -0.0397  0.3189
  326MOL0     C42931   6.978   8.826   2.869  0.0043  0.1706 -0.7835
  326MOL0     C42932   7.017   8.695   2.912  0.0120 -0.3163 -0.6399
  326MOL0     C42933   7.070   8.684   3.037  0.0393  0.8087 -0.1596
  326MOL0     C42934   7.075   8.793   3.123  0.1773  0.6092 -0.4726
  326MOL0     O42935   7.138   8.779   3.243 -0.1645 -0.5160 -0.2056
  326MOL0     C42936   7.161   8.648   3.297 -0.4127 -0.8258 -0.9166
  326MOL0     C42937   7.300   8.589   3.281 -0.3487  0.0097  1.1649
  326MOL0     C42938   7.311   8.451   3.347 -0.5319 -0.7375  0.1979
  326MOL0     C42939   7.298   8.440   3.500 -0.2876 -0.6009  0.3668
  326MOL0     C42940   7.272   8.292   3.542  0.3674 -0.1408 -0.1633
  326MOL0     C42941   7.303   8.264   3.691  0.8444  0.2374  0.3785
  326MOL0     C42942   7.198   8.304   3.794  0.2530  0.1152 -0.1227
  326MOL0     C42943   7.073   8.222   3.823 -0.1472  0.1957  0.4379
  326MOL0    Cl42944   7.115   8.053   3.875 -0.2322  0.2849 -0.0462
  326MOL0     C42945   7.031   8.917   3.084 -0.1892 -0.5248  0.2135
  326MOL0     C42946   6.982   8.941   2.956 -0.9570 -0.5213 -0.0905
  326MOL0     O42947   6.739   8.948   2.808  0.6323 -0.9276  0.1230
  326MOL0     C42948   6.637   9.003   2.556 -0.7356 -0.8560 -0.7060
  326MOL0     C42949   6.612   9.034   2.421 -0.5332  0.1263 -0.1228
  326MOL0     N42950   6.905   9.187   1.615  0.3162 -0.2689 -0.5889
  326MOL0     N42951   6.859   9.175   1.492  0.1164 -0.0289  1.3279
  326MOL0     C42952   6.484   8.729   0.365  0.0015 -0.8835  0.0067
  326MOL0     C42953   6.431   8.768   0.241  0.5261  0.6025  0.4641
  326MOL0     C42954   6.172   9.038  -0.046  0.7923 -0.2314  1.3677
  326MOL0     C42955   6.197   8.957  -0.163 -1.0437 -0.9913 -0.1225
  326MOL0     C42956   6.148   8.996  -0.290  1.7128 -0.6085 -0.3910
  326MOL0     C42957   6.054   9.103  -0.302 -0.8530  0.3398  0.4997
  326MOL0     O42958   6.005   9.141  -0.417  0.1825 -0.4369 -0.7004
  326MOL0     C42959   5.907   9.053  -0.460  0.8283  0.1268  0.2278
  326MOL0     C42960   5.920   9.031  -0.604 -0.7630 -0.3233 -0.8310
  326MOL0     C42961   5.857   9.148  -0.675  0.2994  0.0981  0.1207
  326MOL0     C42962   5.840   9.102  -0.824  0.0117  0.2225  0.2521
  326MOL0     C42963   5.716   9.018  -0.853  0.3461  0.2581  0.0130
  326MOL0     C42964   5.615   8.962  -0.885 -0.1480 -1.0572  0.6355
  326MOL0     C42965   6.010   9.149  -0.182 -0.1149 -0.3899  0.2944
  326MOL0     C42966   6.070   9.130  -0.059  0.9414  0.3325 -0.9662
  326MOL0     H42967   6.367   9.091   0.327  0.1302 -0.5202 -0.1452
  326MOL0     H42968   6.497   9.029   0.519 -4.6821  3.5590 -2.2261
  326MOL0     H42969   6.613   8.955   0.684 -0.0161  0.5700  0.8669
  326MOL0     H42970   6.720   8.816   0.731 -0.3897 -1.1427  0.8697
  326MOL0     H42971   6.516   8.705   0.802  2.3951 -0.1499  2.7640
  326MOL0     H42972   6.423   8.853   0.767 -0.1037  0.2390 -1.6328
  326MOL0     H42973   6.641   8.795   0.965 -0.3703  0.5258 -0.3579
  326MOL0     H42974   6.476   8.839   1.009 -2.6485  2.3453 -1.9504
  326MOL0     H42975   6.671   9.032   0.879 -1.0449  1.5853  0.8533
  326MOL0     H42976   6.509   9.061   0.955 -1.7622 -1.8112  0.5989
  326MOL0     H42977   6.687   9.131   1.100 -1.1938  0.3333  0.3722
  326MOL0     H42978   6.756   8.960   1.092 -1.2866 -0.3571  1.7026
  326MOL0     H42979   6.562   8.873   1.210  3.9583 -0.6588 -2.5905
  326MOL0     H42980   6.485   9.029   1.227 -1.8423 -4.5506  5.8820
  326MOL0     H42981   6.611   8.955   1.422 -2.5061 -1.3282 -2.2010
  326MOL0     H42982   6.762   8.981   1.333  0.2897  0.1943  0.9056
  326MOL0     H42983   6.540   9.166   1.432  1.2892 -1.3473  2.0311
  326MOL0     H42984   6.661   9.228   1.309  2.4399  0.9483  2.0181
  326MOL0     H42985   6.597   9.239   1.660  0.7228  0.1152  1.9506
  326MOL0     H42986   6.818   9.369   1.831  0.5823 -0.3873  1.8117
  326MOL0     H42987   6.906   9.231   1.877  0.8928  2.4772 -0.2815
  326MOL0     H42988   6.683   9.092   1.907  0.5494 -0.3589  2.1604
  326MOL0     H42989   6.616   9.259   1.926  0.2250  0.5915  2.0825
  326MOL0     H42990   6.839   9.144   2.100 -1.3114 -0.8732  1.7880
  326MOL0     H42991   6.775   9.312   2.072 -2.6737  0.2648 -2.5097
  326MOL0     H42992   6.547   9.205   2.142 -1.4214  0.4530  1.2546
  326MOL0     H42993   6.663   9.233   2.262  2.2997 -0.0791  0.0210
  326MOL0     H42994   6.845   8.873   2.249  0.5647  2.2879 -1.2831
  326MOL0     H42995   6.922   8.822   2.481  0.2552 -1.1995 -4.3869
  326MOL0     H42996   7.025   8.600   2.860  3.5044  0.1851 -1.2707
  326MOL0     H42997   7.101   8.583   3.061 -1.1327  0.3328 -0.5667
  326MOL0     H42998   7.084   8.572   3.284 -1.9901 -0.6513  4.8116
  326MOL0     H42999   7.149   8.664   3.404  2.4890 -2.8432 -0.1701
  326MOL0     H43000   7.362   8.665   3.331 -2.2963  0.6235  2.7805
  326MOL0     H43001   7.336   8.589   3.178  3.0002  0.5191  2.1914
  326MOL0     H43002   7.404   8.407   3.310 -0.1682 -1.9615  2.4040
  326MOL0     H43003   7.237   8.384   3.302 -2.1555 -1.0397  3.0204
  326MOL0     H43004   7.397   8.466   3.538  1.3628 -2.0974 -2.5129
  326MOL0     H43005   7.218   8.504   3.538  0.4821  1.7420 -1.7242
  326MOL0     H43006   7.345   8.227   3.494 -0.6941  0.6964 -3.1791
  326MOL0     H43007   7.170   8.262   3.513  0.5026  0.8465 -1.7611
  326MOL0     H43008   7.397   8.311   3.720  2.0929 -1.9760  0.1845
  326MOL0     H43009   7.320   8.158   3.713  2.7753  1.0141  3.2537
  326MOL0     H43010   7.240   8.299   3.895 -1.5221  0.6637  0.6885
  326MOL0     H43011   7.168   8.409   3.785 -0.5684 -0.1477 -0.6093
  326MOL0     H43012   7.005   8.211   3.738 -1.0007  0.9373  1.0137
  326MOL0     H43013   7.027   8.276   3.906  1.1497  2.3999 -0.1907
  326MOL0     H43014   7.040   9.010   3.140 -1.0162  0.5244 -1.3026
  326MOL0     H43015   6.959   9.041   2.921 -0.6636 -0.2767  0.4086
  326MOL0     H43016   6.575   9.020   2.643  2.0755 -0.8326  1.4467
  326MOL0     H43017   6.515   9.081   2.404  0.1402  2.2888  1.6529
  326MOL0     H43018   6.500   8.623   0.379  0.8105 -0.8739 -0.7866
  326MOL0     H43019   6.421   8.693   0.164 -0.1288  1.6642 -0.5183
  326MOL0     H43020   6.278   8.885  -0.161 -0.3870 -0.2600  0.3146
  326MOL0     H43021   6.180   8.954  -0.385 -1.6201  1.3228 -2.5595
  326MOL0     H43022   5.817   9.113  -0.443  0.6432 -0.2887  0.7402
  326MOL0     H43023   5.900   8.958  -0.407  2.3397 -0.9493 -1.4155
  326MOL0     H43024   6.024   9.021  -0.635 -0.5800 -1.7514  0.1006
  326MOL0     H43025   5.867   8.939  -0.631 -1.1484  0.7110 -3.9551
  326MOL0     H43026   5.932   9.227  -0.678 -0.2966  0.8334  2.4217
  326MOL0     H43027   5.760   9.180  -0.635  0.8992 -0.3082  2.0189
  326MOL0     H43028   5.825   9.198  -0.876  0.2613  0.5260  0.7389
  326MOL0     H43029   5.927   9.057  -0.872  0.9525 -0.5688  2.5782
  326MOL0     H43030   5.525   8.906  -0.900  0.9684 -2.3397 -1.8438
  326MOL0     H43031   5.926   9.217  -0.193 -1.7891 -2.3926  0.1149
  326MOL0     H43032   6.034   9.187   0.027  2.7311  0.7612 -0.4443
  327MOL0     O43033   6.320  11.071  11.038  0.3673  0.5638 -0.0860
  327MOL0     C43034   6.296  11.185  11.080 -0.2615  0.8039  1.3144
  327MOL0     O43035   6.393  11.283  11.113  0.2663  0.2270  0.1128
  327MOL0     C43036   6.525  11.266  11.076 -0.3246  1.0736  0.1144
  327MOL0     C43037   6.625  11.329  11.151  0.8430  0.1251  0.1628
  327MOL0     C43038   6.758  11.327  11.126 -0.4484 -0.2087 -0.4270
  327MOL0     C43039   6.796  11.249  11.012 -0.3324 -0.6718  0.6288
  327MOL0     O43040   6.933  11.236  10.991  0.2471  0.0061  0.4588
  327MOL0     C43041   7.001  11.358  10.983  0.3978  0.0220 -0.0440
  327MOL0     C43042   7.133  11.344  10.911 -0.2735  0.2277  0.1833
  327MOL0     C43043   7.176  11.484  10.864 -0.0798 -0.5953 -0.0116
  327MOL0     C43044   7.327  11.482  10.820 -0.1425  0.5914 -0.2058
  327MOL0     C43045   7.339  11.437  10.683  0.2873 -0.3505 -0.4184
  327MOL0     C43046   7.485  11.439  10.637  0.3605  0.5487 -0.4137
  327MOL0     C43047   7.488  11.385  10.489 -0.9195 -0.4867 -0.3183
  327MOL0     C43048   7.632  11.359  10.435 -0.4614 -0.4255  0.4547
  327MOL0     N43049   7.701  11.255  10.505  0.0753  0.1492 -0.1054
  327MOL0     C43050   7.659  11.128  10.529  0.5114  0.2605  1.3513
  327MOL0     C43051   7.741  11.075  10.619  0.1652  0.3598 -0.8258
  327MOL0     C43052   7.726  10.932  10.685 -0.4563  0.0595  0.3370
  327MOL0     C43053   7.746  10.816  10.589 -0.2250 -0.5719 -0.6653
  327MOL0     C43054   7.726  10.689  10.676  0.5840 -0.1126 -0.0428
  327MOL0     C43055   7.797  10.570  10.626 -0.5648  0.2301  0.9596
  327MOL0     O43056   7.769  10.550  10.484 -0.1851 -0.3757  0.6820
  327MOL0     C43057   7.653  10.500  10.444  0.3506  1.4043  0.3181
  327MOL0     C43058   7.621  10.500  10.313 -0.2624 -0.0052  0.7207
  327MOL0     C43059   7.508  10.455  10.255  0.5016  0.0042 -0.3790
  327MOL0     C43060   7.409  10.389  10.336 -0.5131  0.4829  0.1091
  327MOL0     C43061   7.288  10.334  10.275  0.0055 -0.5135  1.5905
  327MOL0     O43062   7.203  10.279  10.364  0.9037  0.2180  0.5450
  327MOL0     C43063   7.094  10.209  10.317 -0.0605  0.4836 -0.6436
  327MOL0     C43064   7.102  10.075  10.298 -0.3570 -0.1067  0.0603
  327MOL0     C43065   6.996  10.015  10.245  0.5859  0.0101  0.2877
  327MOL0     C43066   6.874  10.074  10.220  0.2658  0.0370  0.3864
  327MOL0     O43067   6.761  10.005  10.181  0.1915 -0.2913 -0.2854
  327MOL0     C43068   6.758   9.863  10.220  0.4866  0.0776  1.3283
  327MOL0     C43069   6.617   9.830  10.259 -0.1094 -0.2462 -0.2414
  327MOL0     C43070   6.569   9.899  10.384  0.3498 -0.4852 -0.4789
  327MOL0     C43071   6.641   9.835  10.496 -0.7723  0.5597 -0.3942
  327MOL0     C43072   6.601   9.881  10.635 -0.6311 -0.0655  0.1426
  327MOL0     C43073   6.463   9.826  10.677  0.1748 -0.8193 -0.8985
  327MOL0     C43074   6.406   9.875  10.811 -0.8360  0.3728  0.7329
  327MOL0     C43075   6.474   9.818  10.940 -0.4322  0.4924 -0.4629
  327MOL0    Cl43076   6.450   9.637  10.934  0.5352 -0.2445 -0.7473
  327MOL0     C43077   6.861  10.208  10.259  0.2586 -0.8786 -0.2086
  327MOL0     C43078   6.976  10.277  10.301  0.3517 -0.3013 -0.7913
  327MOL0     O43079   7.286  10.308  10.146  0.1564  0.2023 -0.2184
  327MOL0     C43080   7.442  10.380  10.471 -0.0570 -0.3900  0.5908
  327MOL0     C43081   7.562  10.435  10.526 -0.5999  0.1066  0.4866
  327MOL0     N43082   7.832  11.168  10.651 -0.3443  0.0291  0.0683
  327MOL0     N43083   7.805  11.275  10.587 -0.3531  0.3310  0.0145
  327MOL0     C43084   6.708  11.182  10.937 -0.2612 -0.5968  0.0065
  327MOL0     C43085   6.577  11.187  10.970 -0.1398 -0.6859 -0.0271
  327MOL0     C43086   6.160  11.219  11.114  0.6213 -0.5105  0.4313
  327MOL0     C43087   6.133  11.309  11.218 -0.1521  0.3167 -0.8017
  327MOL0     C43088   6.004  11.331  11.251  0.2669  0.3492  0.5813
  327MOL0     C43089   5.898  11.277  11.178  0.2684 -0.0164  0.5886
  327MOL0     O43090   5.771  11.305  11.214  0.7594  0.3719  0.7247
  327MOL0     C43091   5.729  11.396  11.319 -0.1614 -0.9553  1.4750
  327MOL0     C43092   5.577  11.409  11.321  0.8268 -0.3315  1.2756
  327MOL0     C43093   5.524  11.407  11.464  0.6431  0.3105 -0.2284
  327MOL0     C43094   5.390  11.472  11.473  0.1393 -0.1128 -0.0349
  327MOL0     C43095   5.328  11.466  11.607 -0.0967 -0.1687  0.5732
  327MOL0     C43096   5.264  11.483  11.711 -0.1787 -1.2219 -0.3926
  327MOL0     C43097   5.921  11.190  11.068 -0.2670 -0.3759  0.4938
  327MOL0     C43098   6.054  11.156  11.040 -0.6755  0.3902  0.1650
  327MOL0     H43099   6.596  11.402  11.226  0.3703 -0.9418  1.0475
  327MOL0     H43100   6.815  11.376  11.204 -2.6960 -0.3278  1.4045
  327MOL0     H43101   7.017  11.410  11.078  2.8349 -0.1651 -0.2897
  327MOL0     H43102   6.947  11.424  10.914  0.1538 -0.1043  0.0250
  327MOL0     H43103   7.123  11.279  10.824  0.4144  2.8165 -2.0006
  327MOL0     H43104   7.211  11.306  10.978 -0.1194 -0.8828 -0.6119
  327MOL0     H43105   7.165  11.541  10.957  0.8349 -0.8671  0.2743
  327MOL0     H43106   7.103  11.521  10.792 -0.7212 -0.2052  0.8154
  327MOL0     H43107   7.371  11.582  10.819  2.6290 -0.5465 -0.8280
  327MOL0     H43108   7.383  11.431  10.900  0.3938  3.5863  1.4770
  327MOL0     H43109   7.267  11.494  10.624 -0.2536 -0.3207  0.2493
  327MOL0     H43110   7.305  11.333  10.675  1.3189 -0.6076 -1.7666
  327MOL0     H43111   7.539  11.374  10.707 -1.5274  0.0261  0.6397
  327MOL0     H43112   7.522  11.542  10.648 -1.0039  0.8705  1.8018
  327MOL0     H43113   7.431  11.291  10.486 -0.1421 -1.1850  3.0351
  327MOL0     H43114   7.436  11.456  10.424  0.2426  0.2054 -0.5018
  327MOL0     H43115   7.684  11.453  10.453 -2.2604  0.4926  1.0380
  327MOL0     H43116   7.642  11.342  10.327  2.4389  4.0335 -0.2391
  327MOL0     H43117   7.580  11.073  10.479  0.1495  1.6986  0.2828
  327MOL0     H43118   7.625  10.933  10.725 -1.5507 -0.1553 -2.1973
  327MOL0     H43119   7.802  10.926  10.763  0.2469 -1.2487 -0.4123
  327MOL0     H43120   7.848  10.847  10.565 -0.7748  4.2681  1.8975
  327MOL0     H43121   7.690  10.819  10.495  1.3010  0.4385 -1.5821
  327MOL0     H43122   7.760  10.707  10.779  3.0256  1.6845 -1.0360
  327MOL0     H43123   7.618  10.674  10.674  0.2407  2.0015 -0.9210
  327MOL0     H43124   7.782  10.484  10.692 -1.2474 -0.7749 -0.4726
  327MOL0     H43125   7.903  10.587  10.649 -0.2271  1.1687 -1.1236
  327MOL0     H43126   7.696  10.546  10.249 -0.9170 -1.0605 -0.8632
  327MOL0     H43127   7.503  10.459  10.146  1.7972 -1.2806 -0.5121
  327MOL0     H43128   7.194  10.020  10.313  1.1031  1.9284 -0.9305
  327MOL0     H43129   7.012   9.908  10.235  1.3483  0.1535 -0.1074
  327MOL0     H43130   6.839   9.837  10.289  1.6370 -0.1107 -0.0309
  327MOL0     H43131   6.774   9.803  10.130  1.4449  1.5030  0.4902
  327MOL0     H43132   6.609   9.722  10.275  1.3321 -0.3888 -0.3145
  327MOL0     H43133   6.548   9.868  10.183  0.4406  1.7579  0.1915
  327MOL0     H43134   6.463   9.884  10.404  0.9337 -1.3024  2.6578
  327MOL0     H43135   6.591  10.006  10.377 -0.4404 -0.4040 -2.1390
  327MOL0     H43136   6.628   9.726  10.489  2.5017  0.0766 -0.5480
  327MOL0     H43137   6.743   9.862  10.464 -0.6198  0.7741  0.2660
  327MOL0     H43138   6.613   9.990  10.638  4.1868 -0.3775 -0.8160
  327MOL0     H43139   6.677   9.842  10.704 -0.9097  3.6735  2.9129
  327MOL0     H43140   6.452   9.717  10.680 -2.1257 -0.6282  0.9664
  327MOL0     H43141   6.397   9.859  10.596 -1.5737 -3.4064 -0.6699
  327MOL0     H43142   6.399   9.984  10.820 -4.5302  0.1264  3.5410
  327MOL0     H43143   6.303   9.841  10.825 -0.7739  0.6123  1.9416
  327MOL0     H43144   6.426   9.864  11.027 -0.1498  1.6837 -0.9079
  327MOL0     H43145   6.574   9.861  10.946 -0.7572  1.0506  3.3655
  327MOL0     H43146   6.765  10.256  10.271  0.5688 -0.8611  3.4144
  327MOL0     H43147   6.964  10.384  10.316 -0.7369  0.4200 -5.2029
  327MOL0     H43148   7.368  10.331  10.534  0.6714 -1.0993  0.9149
  327MOL0     H43149   7.573  10.416  10.633  0.1006 -1.3646  0.1850
  327MOL0     H43150   6.757  11.109  10.873  2.1746  0.0489  1.0406
  327MOL0     H43151   6.505  11.135  10.907 -1.1317 -2.4049  2.3919
  327MOL0     H43152   6.212  11.363  11.270 -0.0719  0.7425 -1.3495
  327MOL0     H43153   5.975  11.382  11.342 -1.6381 -2.3035  1.5675
  327MOL0     H43154   5.784  11.485  11.287  1.6276 -2.4989 -0.0341
  327MOL0     H43155   5.774  11.363  11.413  4.0401  0.5570  0.1919
  327MOL0     H43156   5.552  11.505  11.274  2.0099 -0.0219  1.2421
  327MOL0     H43157   5.535  11.323  11.268  0.3438 -0.8046  2.3834
  327MOL0     H43158   5.595  11.450  11.536 -2.4476 -0.1728  3.4203
  327MOL0     H43159   5.505  11.304  11.495  0.2298  1.4919  4.0667
  327MOL0     H43160   5.392  11.574  11.432 -0.8250 -0.5966 -1.3323
  327MOL0     H43161   5.325  11.408  11.412  0.4238 -3.0502  2.5046
  327MOL0     H43162   5.202  11.499  11.796 -0.1873  2.9922 -0.9453
  327MOL0     H43163   5.839  11.157  11.005 -1.4202  1.7660  0.7501
  327MOL0     H43164   6.077  11.092  10.955  0.3270  0.6629  0.2097
  328MOL0     O43165   4.359   0.329   6.284  0.8469 -0.3903  0.9407
  328MOL0     C43166   4.435   0.247   6.334 -0.1325 -0.4951 -0.4408
  328MOL0     O43167   4.397   0.119   6.383 -0.1394 -0.1588  0.0245
  328MOL0     C43168   4.260   0.093   6.381 -0.7359 -0.4314 -0.4855
  328MOL0     C43169   4.198   0.068   6.261  0.3016 -0.0536 -0.0579
  328MOL0     C43170   4.056   0.052   6.264  0.8469 -0.0711  0.2511
  328MOL0     C43171   3.982   0.035   6.384 -0.6965 -0.2536 -0.0214
  328MOL0     O43172   3.848  -0.008   6.374  0.2171  0.0760  0.1230
  328MOL0     C43173   3.743   0.061   6.443  0.6237 -0.0289 -0.7001
  328MOL0     C43174   3.689   0.164   6.348  0.2024 -0.4395 -0.1064
  328MOL0     C43175   3.556   0.228   6.398  0.5012 -0.5580 -0.0666
  328MOL0     C43176   3.514   0.331   6.289  0.6723 -0.1899  0.2044
  328MOL0     C43177   3.406   0.266   6.188  0.5048 -0.0142 -0.7616
  328MOL0     C43178   3.385   0.340   6.052  0.3451  0.0596 -0.7342
  328MOL0     C43179   3.331   0.481   6.067  0.9312  0.4152  0.2685
  328MOL0     C43180   3.182   0.502   6.083  0.3135 -0.4418 -1.5143
  328MOL0     N43181   3.091   0.463   5.977  0.5263  0.0591 -0.0164
  328MOL0     C43182   3.127   0.462   5.844  0.4206  0.2477  0.2068
  328MOL0     C43183   3.015   0.414   5.775 -0.4779 -0.1047  0.4713
  328MOL0     C43184   2.998   0.390   5.629  0.0798 -0.2460 -0.1689
  328MOL0     C43185   2.892   0.479   5.563  0.1959  0.2598 -0.2039
  328MOL0     C43186   2.877   0.480   5.420  0.0816  0.2612  0.8088
  328MOL0     C43187   2.850   0.345   5.355 -0.3437 -0.2942  0.8451
  328MOL0     O43188   2.807   0.370   5.225  0.2287  0.0147 -0.1580
  328MOL0     C43189   2.792   0.269   5.124 -0.5161  0.4184  1.3173
  328MOL0     C43190   2.823   0.131   5.137 -0.5876 -1.4126  0.0024
  328MOL0     C43191   2.779   0.040   5.039 -0.1301 -0.3969  0.0289
  328MOL0     C43192   2.732   0.079   4.914 -0.8297 -0.3732 -0.2434
  328MOL0     C43193   2.716  -0.019   4.796  0.1445 -0.7327 -0.5865
  328MOL0     O43194   2.758  -0.150   4.815  0.0501 -0.1953 -0.4548
  328MOL0     C43195   2.747  -0.237   4.707 -0.6346  0.5736  0.2124
  328MOL0     C43196   2.743  -0.369   4.750  0.5742 -0.2742  0.7623
  328MOL0     C43197   2.758  -0.472   4.655 -0.2013  1.1085 -0.2762
  328MOL0     C43198   2.769  -0.452   4.518  0.7494  0.0096  0.1370
  328MOL0     O43199   2.769  -0.571   4.441 -0.3930 -0.0502  0.6445
  328MOL0     C43200   2.720  -0.559   4.307  1.4814  0.3899 -0.4723
  328MOL0     C43201   2.736  -0.703   4.249  0.3768  0.1055 -0.1589
  328MOL0     C43202   2.710  -0.705   4.102 -0.0869 -1.0567  0.5481
  328MOL0     C43203   2.728  -0.853   4.045 -0.0628  0.1104  0.0896
  328MOL0     C43204   2.707  -0.857   3.888 -0.0578  0.1836  0.7641
  328MOL0     C43205   2.838  -0.830   3.815 -0.2210  0.2083 -0.5265
  328MOL0     C43206   2.931  -0.956   3.781  0.0809 -0.2486 -0.4573
  328MOL0     C43207   3.061  -0.901   3.719  0.2689  0.6548 -0.5446
  328MOL0    Cl43208   3.174  -1.037   3.725 -0.2122 -0.7431  0.3004
  328MOL0     C43209   2.771  -0.320   4.476  0.2864 -0.3373  0.3757
  328MOL0     C43210   2.756  -0.211   4.566 -0.1374  0.8046 -0.4397
  328MOL0     O43211   2.664   0.030   4.695 -0.2566 -0.5522 -0.9319
  328MOL0     C43212   2.714   0.222   4.898  0.8796  0.4796  0.2974
  328MOL0     C43213   2.732   0.309   5.000 -0.4818  0.3611 -0.7517
  328MOL0     N43214   2.916   0.385   5.870 -0.4131  0.5438 -0.0776
  328MOL0     N43215   2.966   0.409   5.987 -0.8079 -0.0784  0.4860
  328MOL0     C43216   4.049   0.051   6.506 -0.4828  0.0675 -0.0566
  328MOL0     C43217   4.190   0.075   6.501  0.3190  0.5619  0.2875
  328MOL0     C43218   4.579   0.276   6.330 -0.5420  0.3335  0.2713
  328MOL0     C43219   4.640   0.403   6.295 -0.5638 -0.0310 -0.6641
  328MOL0     C43220   4.771   0.414   6.261  0.5218 -0.0628  0.4908
  328MOL0     C43221   4.861   0.308   6.286 -0.5482  0.7404 -0.1117
  328MOL0     O43222   4.995   0.313   6.275 -0.2218  0.1382  0.3843
  328MOL0     C43223   5.056   0.444   6.300 -0.2209  0.6822  0.5775
  328MOL0     C43224   5.174   0.469   6.200 -0.4826 -0.2547 -0.2119
  328MOL0     C43225   5.226   0.612   6.200  0.8054  0.5736  0.0987
  328MOL0     C43226   5.309   0.655   6.331  0.3946 -0.0999  0.2780
  328MOL0     C43227   5.327   0.798   6.338  0.2813  0.5014 -0.5326
  328MOL0     C43228   5.367   0.910   6.359 -0.4013 -0.6043  0.4488
  328MOL0     C43229   4.808   0.188   6.322  0.2628  0.1159 -0.5040
  328MOL0     C43230   4.669   0.167   6.344 -0.1723  0.8762  0.8633
  328MOL0     H43231   4.255   0.059   6.169 -0.1133 -1.4870 -0.2038
  328MOL0     H43232   3.999   0.052   6.171 -0.0634 -0.7403  0.7868
  328MOL0     H43233   3.774   0.127   6.524 -0.8284  0.0106 -0.1380
  328MOL0     H43234   3.668  -0.010   6.480 -0.8115  1.2502 -1.0720
  328MOL0     H43235   3.673   0.106   6.257  3.4483 -3.9392  1.2535
  328MOL0     H43236   3.770   0.230   6.318  2.0178 -1.4165  2.3297
  328MOL0     H43237   3.580   0.275   6.494  0.0328 -2.7350  1.1754
  328MOL0     H43238   3.488   0.143   6.406 -0.0814 -0.1016 -0.1160
  328MOL0     H43239   3.470   0.418   6.338  0.1430  0.1992 -0.9261
  328MOL0     H43240   3.605   0.355   6.233  0.8829 -2.7841 -0.6727
  328MOL0     H43241   3.311   0.266   6.242  1.6238 -0.0131  1.3139
  328MOL0     H43242   3.430   0.160   6.173  1.6460  0.0970  0.0506
  328MOL0     H43243   3.310   0.287   5.993 -0.9003  0.7663  0.1736
  328MOL0     H43244   3.471   0.335   5.984 -0.2650  2.6191 -1.8154
  328MOL0     H43245   3.375   0.523   6.159  3.2117 -1.7659  0.2726
  328MOL0     H43246   3.370   0.537   5.981  0.2416 -2.0532 -1.7615
  328MOL0     H43247   3.155   0.605   6.106 -0.8134 -1.2145  0.9838
  328MOL0     H43248   3.173   0.444   6.175 -0.6174  0.2564 -1.1548
  328MOL0     H43249   3.215   0.487   5.785  1.2022  1.2966  1.7349
  328MOL0     H43250   2.972   0.287   5.603 -2.0131  0.5888 -1.7191
  328MOL0     H43251   3.090   0.411   5.574 -0.9770 -0.4968 -2.1322
  328MOL0     H43252   2.903   0.584   5.593 -0.7179  0.5372 -0.7948
  328MOL0     H43253   2.799   0.435   5.601  0.0525 -0.7746 -1.7171
  328MOL0     H43254   2.794   0.542   5.388  1.4235  1.7943  0.1812
  328MOL0     H43255   2.968   0.519   5.374  1.5273 -0.3253  3.0012
  328MOL0     H43256   2.775   0.301   5.421 -2.2599  1.5807  0.0508
  328MOL0     H43257   2.938   0.282   5.346 -0.4268 -0.5294  1.5909
  328MOL0     H43258   2.870   0.102   5.231 -1.6888 -0.2502  0.9556
  328MOL0     H43259   2.807  -0.065   5.043 -1.2777 -0.9296 -3.3261
  328MOL0     H43260   2.755  -0.394   4.855  2.9794 -1.4753  0.2779
  328MOL0     H43261   2.739  -0.572   4.693 -1.4457  2.1507  2.0975
  328MOL0     H43262   2.790  -0.494   4.253  2.5031 -0.7851 -0.6215
  328MOL0     H43263   2.616  -0.527   4.302  0.7481 -1.0662  3.0720
  328MOL0     H43264   2.684  -0.781   4.306  1.5544  0.8414  2.0301
  328MOL0     H43265   2.840  -0.735   4.264  0.4707  0.7153  0.5457
  328MOL0     H43266   2.773  -0.634   4.048 -3.8969  0.5509 -2.2172
  328MOL0     H43267   2.609  -0.672   4.076  1.2064  0.5202 -3.0465
  328MOL0     H43268   2.830  -0.890   4.056 -0.2721 -0.6972 -0.6178
  328MOL0     H43269   2.656  -0.918   4.095 -0.8241 -0.7243 -2.0043
  328MOL0     H43270   2.635  -0.775   3.878  1.6914  1.7680  0.5403
  328MOL0     H43271   2.661  -0.950   3.853 -1.6151  0.5309  1.8288
  328MOL0     H43272   2.899  -0.750   3.858  1.4797 -2.0170  1.5117
  328MOL0     H43273   2.809  -0.785   3.720  3.9773  1.9984 -1.1514
  328MOL0     H43274   2.968  -1.008   3.870 -0.7153  1.6148  1.0467
  328MOL0     H43275   2.881  -1.033   3.722 -0.0103 -1.6966  1.4024
  328MOL0     H43276   3.109  -0.825   3.782  2.7412  0.6216 -2.2446
  328MOL0     H43277   3.053  -0.864   3.617  0.6739 -2.5994 -1.8700
  328MOL0     H43278   2.765  -0.296   4.370 -1.6797  0.0322  0.5322
  328MOL0     H43279   2.765  -0.111   4.525  2.4096  0.2131 -1.5113
  328MOL0     H43280   2.672   0.263   4.807  0.1965 -1.3487 -0.2534
  328MOL0     H43281   2.715   0.415   4.991  0.7089  0.9079  2.3125
  328MOL0     H43282   3.993   0.037   6.598  1.5390 -1.2890  1.0618
  328MOL0     H43283   4.235   0.073   6.600 -0.0769  0.9086  0.4802
  328MOL0     H43284   4.558   0.473   6.292 -0.4101  0.2803  1.1745
  328MOL0     H43285   4.808   0.506   6.217  0.1097  0.8932  2.1006
  328MOL0     H43286   5.094   0.448   6.402 -0.0115  2.2286  0.4595
  328MOL0     H43287   4.989   0.529   6.286 -0.0180  0.7694  0.1091
  328MOL0     H43288   5.263   0.411   6.223  2.0192  2.8218 -1.3682
  328MOL0     H43289   5.142   0.448   6.098  1.8148 -0.3802 -0.9547
  328MOL0     H43290   5.131   0.666   6.206  0.8946  0.6847  0.5404
  328MOL0     H43291   5.284   0.636   6.110  0.8464  1.2982  0.3128
  328MOL0     H43292   5.258   0.614   6.418 -0.8207  0.5289 -0.1220
  328MOL0     H43293   5.406   0.608   6.312 -1.0992 -2.1922 -3.1532
  328MOL0     H43294   5.402   1.009   6.383 -0.6329 -1.0380  2.7798
  328MOL0     H43295   4.874   0.103   6.330  0.4565  0.0373 -2.4773
  328MOL0     H43296   4.627   0.071   6.371 -1.3611  0.7054 -1.3679
  329MOL0     O43297   0.559   7.614   2.023  0.2161  0.5934  0.1402
  329MOL0     C43298   0.521   7.649   2.131  0.5543  0.0419  1.1082
  329MOL0     O43299   0.583   7.735   2.208  0.6404 -0.7624  0.3736
  329MOL0     C43300   0.683   7.810   2.159 -0.1180 -0.4060 -0.2418
  329MOL0     C43301   0.812   7.790   2.208 -0.0258  0.4985 -0.1895
  329MOL0     C43302   0.918   7.871   2.175 -0.3078 -0.4723  0.3245
  329MOL0     C43303   0.892   7.987   2.098 -0.4163 -0.1363  1.0043
  329MOL0     O43304   1.000   8.070   2.070 -1.0486  0.3370 -0.2150
  329MOL0     C43305   1.095   7.998   1.979  0.5634  0.6435 -0.1629
  329MOL0     C43306   1.241   8.029   2.006 -1.1550 -0.1206 -0.5077
  329MOL0     C43307   1.244   8.178   1.984  0.1764 -0.4172  0.5293
  329MOL0     C43308   1.392   8.220   2.029 -0.1863 -0.2084 -0.1452
  329MOL0     C43309   1.421   8.367   2.029  0.1265 -0.1458  0.3387
  329MOL0     C43310   1.567   8.393   2.065  0.4990 -0.0237 -0.3251
  329MOL0     C43311   1.605   8.541   2.065  0.3412 -0.7706  0.4001
  329MOL0     C43312   1.589   8.616   1.930  0.0979  0.6115 -0.3239
  329MOL0     N43313   1.665   8.737   1.914  0.1424  0.0711 -0.3353
  329MOL0     C43314   1.714   8.815   2.018 -0.3664 -0.4601  0.5165
  329MOL0     C43315   1.803   8.891   1.955  0.9776 -0.7846 -0.3732
  329MOL0     C43316   1.888   9.003   2.010 -0.0767  0.2385 -0.3169
  329MOL0     C43317   2.033   8.955   2.033  0.2323 -0.0464 -0.5353
  329MOL0     C43318   2.134   8.988   1.916 -0.5219  0.7489 -0.7306
  329MOL0     C43319   2.179   9.136   1.919  0.9434  0.0573  0.5117
  329MOL0     O43320   2.272   9.164   2.025  0.8639 -0.6457  0.3744
  329MOL0     C43321   2.400   9.160   1.991  0.1748 -0.1144 -0.6457
  329MOL0     C43322   2.473   9.258   1.938  0.9976 -0.2443  0.0458
  329MOL0     C43323   2.596   9.242   1.887 -0.6525  0.1958  0.1057
  329MOL0     C43324   2.657   9.114   1.905  0.0538 -0.1493  1.2687
  329MOL0     C43325   2.795   9.087   1.846  0.1655  0.2280 -0.1705
  329MOL0     O43326   2.852   9.200   1.793 -0.2065 -0.2823 -0.2525
  329MOL0     C43327   2.978   9.199   1.747 -0.2717 -0.6511 -0.1122
  329MOL0     C43328   3.014   9.121   1.639  0.0893  0.0887 -1.4078
  329MOL0     C43329   3.135   9.135   1.578 -0.2020  0.4829 -0.8874
  329MOL0     C43330   3.236   9.217   1.626  0.9103 -0.1361 -0.0579
  329MOL0     O43331   3.356   9.218   1.564  0.3744 -0.0154  0.4024
  329MOL0     C43332   3.437   9.336   1.584  0.8177  0.4252 -0.8024
  329MOL0     C43333   3.546   9.326   1.474  0.9154  0.1554  0.4723
  329MOL0     C43334   3.632   9.452   1.476  0.7178  0.8564  0.6932
  329MOL0     C43335   3.753   9.444   1.378 -0.2750 -0.5275 -0.9428
  329MOL0     C43336   3.783   9.584   1.333 -0.9687  0.0419  0.4374
  329MOL0     C43337   3.917   9.571   1.251  0.5640 -0.5467 -0.6512
  329MOL0     C43338   4.002   9.693   1.263 -0.3346 -0.1978  0.7163
  329MOL0     C43339   3.967   9.784   1.151  1.2716 -0.4902 -0.8497
  329MOL0    Cl43340   3.807   9.852   1.188  0.5962 -0.1622 -0.0400
  329MOL0     C43341   3.201   9.295   1.747  0.1718  0.3659  0.8484
  329MOL0     C43342   3.074   9.281   1.809  0.3390  0.6576  0.9087
  329MOL0     O43343   2.845   8.980   1.854 -0.5873  0.0313 -0.7942
  329MOL0     C43344   2.589   9.008   1.964 -0.0554  0.4683  0.8821
  329MOL0     C43345   2.459   9.037   2.013 -0.1526 -0.1942  0.4042
  329MOL0     N43346   1.815   8.855   1.819  0.6158 -0.0794  0.2041
  329MOL0     N43347   1.727   8.760   1.797 -0.6312  0.1603  0.0645
  329MOL0     C43348   0.761   8.019   2.062 -0.2513 -0.4402 -0.4686
  329MOL0     C43349   0.656   7.935   2.093  0.5518 -0.2935  0.8111
  329MOL0     C43350   0.406   7.580   2.191  0.3603  0.5144 -0.6863
  329MOL0     C43351   0.369   7.604   2.325 -0.4593 -0.1712 -0.4131
  329MOL0     C43352   0.266   7.535   2.385 -0.5233  0.3594  0.5610
  329MOL0     C43353   0.207   7.420   2.326  0.1530 -0.2921 -0.4220
  329MOL0     O43354   0.104   7.362   2.388 -0.1951 -0.5878 -0.0837
  329MOL0     C43355  -0.026   7.415   2.356  0.1003  0.0645  0.5518
  329MOL0     C43356  -0.081   7.521   2.450  0.4186 -0.7975  0.3250
  329MOL0     C43357  -0.126   7.465   2.583  0.0708  0.6068 -0.8234
  329MOL0     C43358  -0.134   7.574   2.691  0.4111 -0.9919 -0.2574
  329MOL0     C43359  -0.207   7.542   2.813 -0.3110  1.7222 -0.4567
  329MOL0     C43360  -0.288   7.509   2.901  0.9675  0.4720 -1.2589
  329MOL0     C43361   0.246   7.398   2.197 -0.1278 -0.2412 -0.8481
  329MOL0     C43362   0.343   7.471   2.127  0.6538  0.0682  1.2925
  329MOL0     H43363   0.809   7.709   2.282 -2.2198  3.4354  3.2931
  329MOL0     H43364   1.017   7.842   2.208  0.7001  1.0183 -1.2040
  329MOL0     H43365   1.062   8.026   1.879 -0.0757 -1.5362 -0.6230
  329MOL0     H43366   1.081   7.890   1.992  2.4415  0.3319 -0.4024
  329MOL0     H43367   1.316   7.978   1.944  1.6072  2.7701  0.1901
  329MOL0     H43368   1.273   7.992   2.105 -0.7278 -1.5172 -1.1352
  329MOL0     H43369   1.171   8.228   2.048 -0.9736 -1.3823  0.0023
  329MOL0     H43370   1.225   8.202   1.879 -1.8087  1.5664  1.2684
  329MOL0     H43371   1.417   8.178   2.127 -2.1795 -1.6592 -0.1831
  329MOL0     H43372   1.455   8.176   1.951  1.8098  0.1719  1.1723
  329MOL0     H43373   1.355   8.423   2.096 -1.9759 -1.4858 -0.5261
  329MOL0     H43374   1.397   8.410   1.932 -2.9511  1.3865  1.6537
  329MOL0     H43375   1.620   8.349   1.980  0.4213 -0.2981 -0.2317
  329MOL0     H43376   1.592   8.349   2.162  2.7592  0.0124 -0.8514
  329MOL0     H43377   1.542   8.591   2.138 -0.9136 -2.1755  0.3275
  329MOL0     H43378   1.710   8.544   2.095  0.2177  1.7080  0.7885
  329MOL0     H43379   1.481   8.633   1.922 -1.4154 -4.7662  3.4271
  329MOL0     H43380   1.630   8.545   1.857 -0.1226 -0.7518  0.8527
  329MOL0     H43381   1.690   8.824   2.123 -0.9956  3.7795  0.1975
  329MOL0     H43382   1.854   9.023   2.112 -0.7756 -2.9763  0.2127
  329MOL0     H43383   1.879   9.104   1.969 -1.5715  0.5080  0.6216
  329MOL0     H43384   2.041   8.846   2.042  0.9241 -0.0067 -0.6145
  329MOL0     H43385   2.078   8.993   2.125 -2.5997 -0.1581  1.0072
  329MOL0     H43386   2.225   8.934   1.944 -2.8512 -2.6573  1.0320
  329MOL0     H43387   2.101   8.944   1.822 -0.0785  0.7966 -0.9114
  329MOL0     H43388   2.089   9.197   1.928  0.0840 -1.2541  1.1201
  329MOL0     H43389   2.213   9.153   1.816 -2.6302  1.2633 -0.6059
  329MOL0     H43390   2.424   9.353   1.921  4.5835  1.7062 -0.4243
  329MOL0     H43391   2.647   9.324   1.837 -0.0246  0.7509  1.5997
  329MOL0     H43392   2.947   9.058   1.581 -1.0460  0.7981 -0.9032
  329MOL0     H43393   3.175   9.074   1.498 -1.2445 -1.1149 -0.2236
  329MOL0     H43394   3.475   9.360   1.684 -1.4527 -2.0325  0.7582
  329MOL0     H43395   3.371   9.414   1.544 -1.8900 -0.7670  1.0850
  329MOL0     H43396   3.502   9.324   1.374  1.6178 -1.2878  0.1710
  329MOL0     H43397   3.609   9.238   1.490 -0.1796 -0.5399  1.0956
  329MOL0     H43398   3.667   9.476   1.576 -1.2986  3.5051  0.8751
  329MOL0     H43399   3.570   9.540   1.455  2.4156  1.5841 -1.7546
  329MOL0     H43400   3.834   9.385   1.422 -0.8221 -1.2727 -0.9307
  329MOL0     H43401   3.710   9.380   1.301 -2.1069 -1.6711  0.9153
  329MOL0     H43402   3.780   9.643   1.424 -0.8590  3.3803 -1.5570
  329MOL0     H43403   3.703   9.630   1.275 -0.3964  1.8298  1.0073
  329MOL0     H43404   3.892   9.527   1.153  0.9776 -4.0217  0.6604
  329MOL0     H43405   3.980   9.497   1.299  1.7716  0.3654 -0.7823
  329MOL0     H43406   4.002   9.753   1.354  2.8309  0.7084  0.2110
  329MOL0     H43407   4.106   9.659   1.268 -0.2559 -0.3043 -1.0597
  329MOL0     H43408   3.963   9.736   1.053 -1.7964 -1.4100 -0.3749
  329MOL0     H43409   4.033   9.870   1.142 -0.0959  0.4219 -2.8108
  329MOL0     H43410   3.267   9.362   1.801 -1.0149 -1.2186  4.5883
  329MOL0     H43411   3.045   9.338   1.897 -0.9949 -0.8788  1.5204
  329MOL0     H43412   2.623   8.905   1.967  0.9115  0.7733  0.6508
  329MOL0     H43413   2.409   8.967   2.078 -1.4457  1.2839  1.0769
  329MOL0     H43414   0.742   8.113   2.012 -2.5712  0.0018  1.0770
  329MOL0     H43415   0.556   7.966   2.066  0.4914 -0.5703  0.7104
  329MOL0     H43416   0.422   7.683   2.377  0.4137 -0.4161 -0.9114
  329MOL0     H43417   0.247   7.569   2.486  0.6120  1.2103  0.5116
  329MOL0     H43418  -0.096   7.331   2.350 -1.9281  1.7787 -1.2257
  329MOL0     H43419  -0.021   7.453   2.254 -0.3232 -2.6999 -0.5899
  329MOL0     H43420  -0.006   7.596   2.475 -1.4904  0.7996  1.6009
  329MOL0     H43421  -0.160   7.581   2.404  1.5502 -1.1216 -2.2188
  329MOL0     H43422  -0.058   7.385   2.612 -1.9518 -1.9712 -2.7117
  329MOL0     H43423  -0.222   7.414   2.571  0.4244 -0.6076  1.0371
  329MOL0     H43424  -0.034   7.607   2.721  0.2705  0.2489 -1.1037
  329MOL0     H43425  -0.181   7.661   2.644  2.0419 -1.6310 -3.3946
  329MOL0     H43426  -0.349   7.464   2.977  2.3659  0.7266  0.0801
  329MOL0     H43427   0.203   7.313   2.144 -2.2954  1.3323 -1.7490
  329MOL0     H43428   0.360   7.433   2.026 -1.0273  0.4474  0.8261
  330MOL0     O43429   1.886   0.173   2.202 -0.3373  0.1649 -0.5667
  330MOL0     C43430   1.891   0.063   2.151  0.0871  0.4080 -0.6074
  330MOL0     O43431   1.798   0.013   2.065  0.4146 -0.3337  0.2297
  330MOL0     C43432   1.675   0.069   2.046 -0.0388 -0.7686 -0.6417
  330MOL0     C43433   1.581   0.084   2.150 -0.2616  0.2547  0.0535
  330MOL0     C43434   1.454   0.154   2.128  0.0620 -0.9740 -0.5052
  330MOL0     C43435   1.421   0.193   1.999  0.3946 -1.4630 -1.1174
  330MOL0     O43436   1.297   0.245   1.983 -0.1453  0.3653  0.2194
  330MOL0     C43437   1.224   0.238   1.859 -0.0679  0.2052  0.2322
  330MOL0     C43438   1.106   0.325   1.867  0.3149  0.4383  0.6232
  330MOL0     C43439   1.056   0.337   1.726 -0.7130 -0.2847  0.0746
  330MOL0     C43440   0.935   0.429   1.732 -0.2107 -0.3305  1.1005
  330MOL0     C43441   0.867   0.418   1.593 -0.0931 -0.0014  0.1131
  330MOL0     C43442   0.755   0.518   1.569 -0.3652 -0.2307 -0.1299
  330MOL0     C43443   0.730   0.532   1.420 -0.0115 -0.0629 -0.1662
  330MOL0     C43444   0.634   0.644   1.383  0.1628 -0.1795  0.4656
  330MOL0     N43445   0.511   0.652   1.465  0.1967 -0.3837  0.4630
  330MOL0     C43446   0.492   0.726   1.580  1.4007 -0.1552 -0.2975
  330MOL0     C43447   0.360   0.715   1.618  0.0742 -0.4558 -0.3715
  330MOL0     C43448   0.288   0.802   1.717 -1.0814  0.6700 -0.7267
  330MOL0     C43449   0.321   0.757   1.861  0.2800  0.3255 -0.0318
  330MOL0     C43450   0.273   0.621   1.899 -0.4664 -0.2637  0.0074
  330MOL0     C43451   0.124   0.601   1.888 -0.3025 -0.2540  1.0935
  330MOL0     O43452   0.063   0.665   2.000  0.0525 -0.4468  0.2638
  330MOL0     C43453  -0.079   0.661   2.010 -0.2642  0.9810  0.2153
  330MOL0     C43454  -0.150   0.728   2.108 -0.4826  0.4486  0.3501
  330MOL0     C43455  -0.283   0.704   2.137  0.2242  0.5090 -0.2455
  330MOL0     C43456  -0.358   0.627   2.049  0.2359 -0.8398  0.7906
  330MOL0     C43457  -0.493   0.607   2.060  1.1644 -0.0472  0.1630
  330MOL0     O43458  -0.567   0.607   1.943  0.4077  0.1685 -0.4389
  330MOL0     C43459  -0.657   0.513   1.925  1.0395  0.0768 -0.5974
  330MOL0     C43460  -0.768   0.545   1.833 -1.0936  0.3517 -0.2889
  330MOL0     C43461  -0.873   0.457   1.801  0.3722  0.4434 -0.1644
  330MOL0     C43462  -0.865   0.326   1.855  0.5493  0.2581 -0.3261
  330MOL0     O43463  -0.969   0.238   1.814 -0.3853 -0.5214 -0.0485
  330MOL0     C43464  -1.019   0.145   1.915 -0.5893 -0.9573  0.5226
  330MOL0     C43465  -1.153   0.094   1.866 -0.6066 -0.9963  0.5704
  330MOL0     C43466  -1.279   0.184   1.889  0.4333 -0.2860 -0.6973
  330MOL0     C43467  -1.402   0.105   1.846  0.8802  0.2831  0.4882
  330MOL0     C43468  -1.531   0.188   1.852 -0.0081 -0.1740  0.4417
  330MOL0     C43469  -1.649   0.126   1.773 -0.2089 -0.4532 -0.1337
  330MOL0     C43470  -1.782   0.207   1.791  0.8517  0.1052  0.7483
  330MOL0     C43471  -1.896   0.170   1.891  0.1716  0.3216 -0.3591
  330MOL0    Cl43472  -1.843   0.220   2.053  0.0592 -0.4200 -0.3245
  330MOL0     C43473  -0.769   0.298   1.951  0.0532 -1.0191  0.2044
  330MOL0     C43474  -0.668   0.387   1.987  0.6277 -0.0639 -1.0321
  330MOL0     O43475  -0.540   0.595   2.173 -0.0910  0.6908  0.5781
  330MOL0     C43476  -0.295   0.566   1.948 -0.3136  0.1489  0.7839
  330MOL0     C43477  -0.162   0.580   1.925 -0.0117  0.4414  0.0996
  330MOL0     N43478   0.302   0.632   1.528 -0.7270  0.0533  0.2915
  330MOL0     N43479   0.385   0.598   1.438  0.9272  0.4502  0.3835
  330MOL0     C43480   1.509   0.167   1.900 -1.0467 -0.0825  0.1983
  330MOL0     C43481   1.635   0.102   1.924  0.8332 -0.0443  0.6047
  330MOL0     C43482   2.017  -0.025   2.173 -0.4959 -1.0693  0.1384
  330MOL0     C43483   2.146   0.021   2.221  0.5643  0.0307  0.4747
  330MOL0     C43484   2.258  -0.069   2.228  0.1251  0.3078  0.7843
  330MOL0     C43485   2.242  -0.207   2.197 -0.0399  0.8641  0.6093
  330MOL0     O43486   2.338  -0.305   2.192 -0.5615 -0.3005 -0.3815
  330MOL0     C43487   2.465  -0.275   2.239  0.2347 -0.6459 -0.4804
  330MOL0     C43488   2.546  -0.405   2.247  0.1139 -0.5393  0.8972
  330MOL0     C43489   2.557  -0.477   2.110 -0.2862 -0.2846  0.8214
  330MOL0     C43490   2.610  -0.388   1.996  0.4953  0.6324  0.4020
  330MOL0     C43491   2.747  -0.339   2.024  0.0059  0.0506 -0.8155
  330MOL0     C43492   2.847  -0.279   2.037  0.8159  0.1298  0.1899
  330MOL0     C43493   2.115  -0.255   2.154 -0.1252  0.3287 -0.9815
  330MOL0     C43494   2.009  -0.160   2.142 -0.3916 -0.0038  0.1484
  330MOL0     H43495   1.606   0.041   2.247 -0.4263  0.2628  0.1003
  330MOL0     H43496   1.382   0.172   2.207 -0.6396  0.3688 -1.4012
  330MOL0     H43497   1.193   0.135   1.841 -1.2778 -0.0475  3.2442
  330MOL0     H43498   1.285   0.269   1.773 -0.0259  0.3820  0.3237
  330MOL0     H43499   1.143   0.421   1.904 -1.5072  0.7813  1.6683
  330MOL0     H43500   1.035   0.286   1.941 -0.2316  1.3328  0.5802
  330MOL0     H43501   1.052   0.244   1.667  0.1419  0.1719 -0.7238
  330MOL0     H43502   1.137   0.390   1.675  1.3814 -0.9991  2.4432
  330MOL0     H43503   0.874   0.389   1.813  1.1080 -0.4511  2.0567
  330MOL0     H43504   0.968   0.530   1.758  2.9020 -1.2047  0.8578
  330MOL0     H43505   0.835   0.315   1.581  3.5532 -1.2507 -0.2573
  330MOL0     H43506   0.940   0.431   1.512 -1.1879 -0.3985 -0.9637
  330MOL0     H43507   0.776   0.620   1.601 -2.4146 -0.0734  0.8898
  330MOL0     H43508   0.670   0.489   1.632  0.2339  0.7727  1.2019
  330MOL0     H43509   0.821   0.558   1.364 -0.2280  1.2875  0.0694
  330MOL0     H43510   0.693   0.439   1.376 -1.5614 -0.9755  2.8044
  330MOL0     H43511   0.603   0.624   1.280 -2.9452  1.2955  0.9671
  330MOL0     H43512   0.676   0.745   1.388 -2.1211  0.8025  1.1354
  330MOL0     H43513   0.566   0.793   1.622  0.6850  1.6258 -1.7382
  330MOL0     H43514   0.180   0.808   1.705 -1.3396  0.3544  1.0347
  330MOL0     H43515   0.336   0.900   1.708  0.0697  0.1664 -0.3538
  330MOL0     H43516   0.276   0.832   1.927 -0.4711 -0.2529  0.1225
  330MOL0     H43517   0.429   0.750   1.874  0.2915 -1.5529 -0.8733
  330MOL0     H43518   0.314   0.550   1.826 -1.7771 -0.5130 -0.5075
  330MOL0     H43519   0.305   0.602   2.002 -1.5120 -0.8496  0.2382
  330MOL0     H43520   0.103   0.494   1.896 -2.6653  0.1835  1.6144
  330MOL0     H43521   0.099   0.644   1.790 -0.2614 -0.7506  0.8607
  330MOL0     H43522  -0.097   0.789   2.181  2.6027 -1.0506 -0.4912
  330MOL0     H43523  -0.331   0.753   2.221 -0.0954  0.0443 -0.1546
  330MOL0     H43524  -0.765   0.639   1.779 -0.0258  1.6496  1.8614
  330MOL0     H43525  -0.950   0.486   1.730 -1.2401  0.0502  1.3525
  330MOL0     H43526  -1.022   0.182   2.018 -0.4396 -1.6575  0.7882
  330MOL0     H43527  -0.942   0.068   1.906 -0.2448 -0.3779 -5.1959
  330MOL0     H43528  -1.167  -0.004   1.913  0.7547 -3.6109 -3.8461
  330MOL0     H43529  -1.136   0.077   1.759 -0.3270 -1.3092  0.6624
  330MOL0     H43530  -1.260   0.283   1.848 -1.2399  1.5088  2.4682
  330MOL0     H43531  -1.298   0.203   1.995 -2.3511 -0.7036 -1.0627
  330MOL0     H43532  -1.376   0.076   1.744 -0.4172 -1.5692  0.6384
  330MOL0     H43533  -1.405   0.012   1.904  3.3445 -0.3888 -0.3474
  330MOL0     H43534  -1.513   0.292   1.822  0.4481  0.1035  1.6322
  330MOL0     H43535  -1.563   0.190   1.956  1.0253  0.2291  0.7532
  330MOL0     H43536  -1.661   0.025   1.813  1.4060 -0.6315 -0.0373
  330MOL0     H43537  -1.617   0.117   1.669 -0.5504  0.3894 -0.3210
  330MOL0     H43538  -1.761   0.314   1.792 -3.3484  1.1383  3.0864
  330MOL0     H43539  -1.829   0.192   1.693  2.0232 -1.2261  0.3581
  330MOL0     H43540  -1.920   0.064   1.891  1.4957 -0.0066 -1.3330
  330MOL0     H43541  -1.980   0.235   1.865 -1.6930 -1.7903  0.2162
  330MOL0     H43542  -0.775   0.213   2.018 -0.0718 -0.1945  1.2720
  330MOL0     H43543  -0.585   0.356   2.049  0.3855  1.0853 -0.0938
  330MOL0     H43544  -0.350   0.509   1.874  0.2422  3.1837 -2.2461
  330MOL0     H43545  -0.121   0.530   1.837  1.1461  0.0976  0.8146
  330MOL0     H43546   1.508   0.178   1.792  1.1459 -1.9739 -0.0795
  330MOL0     H43547   1.692   0.085   1.833 -0.3460 -0.8836 -0.0034
  330MOL0     H43548   2.158   0.121   2.260 -1.4679  1.6935 -2.7546
  330MOL0     H43549   2.359  -0.047   2.263  1.3388 -2.9080 -0.2851
  330MOL0     H43550   2.459  -0.239   2.342  4.3337 -0.7951 -0.0276
  330MOL0     H43551   2.522  -0.209   2.173  1.5156 -0.7284  0.5151
  330MOL0     H43552   2.645  -0.375   2.283 -0.1005 -0.3109  1.3052
  330MOL0     H43553   2.503  -0.477   2.318 -6.2518  2.6797  1.0257
  330MOL0     H43554   2.458  -0.516   2.086 -0.1542 -1.6761  2.3328
  330MOL0     H43555   2.614  -0.571   2.111 -0.1678 -0.3800 -2.6112
  330MOL0     H43556   2.618  -0.447   1.904  4.0423  1.1671  0.2377
  330MOL0     H43557   2.536  -0.309   1.987  1.6307  2.4445  4.6005
  330MOL0     H43558   2.932  -0.213   2.043  1.3214 -0.4448 -0.5083
  330MOL0     H43559   2.079  -0.358   2.149 -0.8182  0.5556 -0.8224
  330MOL0     H43560   1.914  -0.196   2.106  0.0420 -2.6595  1.3593
  331MOL0     O43561   9.759   9.249   2.145  0.2142  0.7342  0.1975
  331MOL0     C43562   9.822   9.214   2.044  0.8633 -0.0178  0.2831
  331MOL0     O43563   9.822   9.270   1.922 -0.2214 -0.3217 -0.4732
  331MOL0     C43564   9.771   9.401   1.894  0.0596  0.1917 -1.1257
  331MOL0     C43565   9.643   9.448   1.924 -0.4234  0.9016 -0.0578
  331MOL0     C43566   9.611   9.585   1.893  0.3575 -0.0593  0.3974
  331MOL0     C43567   9.710   9.669   1.839 -0.7618 -0.1104 -0.7912
  331MOL0     O43568   9.675   9.806   1.823  0.0598 -0.5464  0.3780
  331MOL0     C43569   9.544   9.832   1.784 -0.3887  0.8727 -0.4742
  331MOL0     C43570   9.546   9.933   1.672  0.3709  0.4095  0.6752
  331MOL0     C43571   9.405   9.911   1.603  0.0876 -0.8974 -0.1756
  331MOL0     C43572   9.379  10.029   1.517  0.4798  0.3387  0.5896
  331MOL0     C43573   9.476  10.029   1.396 -0.6196 -1.1998 -0.0352
  331MOL0     C43574   9.429  10.134   1.297 -0.6432 -0.2598  0.1212
  331MOL0     C43575   9.309  10.081   1.210  0.5369  0.1297 -0.2286
  331MOL0     C43576   9.290  10.172   1.097  0.4061 -0.4278  0.6701
  331MOL0     N43577   9.237  10.107   0.976 -0.9802 -0.7025  0.8403
  331MOL0     C43578   9.309  10.089   0.862  0.5548  0.2332  0.1119
  331MOL0     C43579   9.227  10.014   0.783  0.3798 -0.0453 -0.5820
  331MOL0     C43580   9.241  10.005   0.640  0.2059  0.5709 -0.0279
  331MOL0     C43581   9.135   9.904   0.578 -0.8693 -0.1028 -0.0627
  331MOL0     C43582   8.983   9.947   0.573 -0.9781 -1.0574  0.2204
  331MOL0     C43583   8.944  10.093   0.543 -0.3423 -0.1668  0.6787
  331MOL0     O43584   8.976  10.129   0.412  0.1579  0.3969 -0.1121
  331MOL0     C43585   8.985  10.259   0.378  0.3031 -0.0375 -0.1683
  331MOL0     C43586   8.919  10.369   0.428  1.2604  0.2494  0.3079
  331MOL0     C43587   8.933  10.495   0.366 -0.6635 -0.9152  0.2343
  331MOL0     C43588   9.031  10.517   0.272  0.2024 -0.4226  0.6419
  331MOL0     C43589   9.052  10.645   0.206  0.3861 -0.4832  0.1682
  331MOL0     O43590   9.161  10.648   0.119 -0.3214 -0.5337 -0.4977
  331MOL0     C43591   9.205  10.760   0.071 -0.1401  0.7423 -0.4376
  331MOL0     C43592   9.251  10.863   0.155  0.0810 -0.2509 -0.0947
  331MOL0     C43593   9.319  10.977   0.106 -0.0033  0.2281  1.1002
  331MOL0     C43594   9.329  10.989  -0.040  0.5827  0.0166 -0.1383
  331MOL0     O43595   9.359  11.113  -0.097 -0.1251 -0.1749  0.6228
  331MOL0     C43596   9.265  11.163  -0.195  0.2290 -0.6921  0.3431
  331MOL0     C43597   9.290  11.310  -0.246  0.5433  0.0902 -0.5192
  331MOL0     C43598   9.426  11.330  -0.321  0.5008  0.1213 -0.5096
  331MOL0     C43599   9.543  11.354  -0.225 -0.4563 -0.7303  0.6057
  331MOL0     C43600   9.676  11.378  -0.300 -0.0412 -0.4268 -0.0902
  331MOL0     C43601   9.789  11.390  -0.195 -0.3220  0.1369  0.0090
  331MOL0     C43602   9.924  11.388  -0.272 -0.0947  0.2484 -0.6572
  331MOL0     C43603  10.048  11.431  -0.191  0.7507  0.3450  0.7437
  331MOL0    Cl43604  10.063  11.334  -0.046 -0.2485  0.0285  0.1035
  331MOL0     C43605   9.297  10.881  -0.122 -0.8352 -0.1483  0.1250
  331MOL0     C43606   9.244  10.767  -0.060  0.2973  0.3040 -0.2757
  331MOL0     O43607   8.980  10.741   0.227 -0.4859  0.2520  0.7040
  331MOL0     C43608   9.115  10.410   0.225 -0.7681  0.1724 -1.1965
  331MOL0     C43609   9.088  10.278   0.282 -0.1323  0.2621  0.6654
  331MOL0     N43610   9.119   9.975   0.860 -0.6368  0.4945 -0.2794
  331MOL0     N43611   9.123  10.033   0.972 -0.3501 -0.2471  0.1495
  331MOL0     C43612   9.830   9.623   1.815  0.1386  0.0360 -0.8303
  331MOL0     C43613   9.861   9.489   1.841 -0.8467  0.5198 -0.2492
  331MOL0     C43614   9.913   9.095   2.058  0.1001 -0.2953  0.3995
  331MOL0     C43615  10.031   9.102   1.981 -0.2054 -0.1479 -0.1759
  331MOL0     C43616  10.128   9.006   2.006 -0.1498  0.5505  0.3840
  331MOL0     C43617  10.098   8.892   2.090  0.1410 -0.9957 -0.1078
  331MOL0     O43618  10.172   8.790   2.125 -0.3982 -0.0117  0.0520
  331MOL0     C43619  10.307   8.796   2.086 -0.6263 -0.3687  0.4363
  331MOL0     C43620  10.366   8.666   2.140 -0.0359  0.2523 -0.0914
  331MOL0     C43621  10.519   8.670   2.132 -0.7450 -0.4423  0.3040
  331MOL0     C43622  10.579   8.533   2.155 -0.1612  0.1136  0.0531
  331MOL0     C43623  10.564   8.454   2.036  0.0816  0.8659  0.0608
  331MOL0     C43624  10.572   8.393   1.933  0.3180 -0.0377 -0.7685
  331MOL0     C43625   9.975   8.887   2.155 -0.1150  0.0919 -0.4829
  331MOL0     C43626   9.883   8.989   2.145 -0.2494 -0.7783  0.4633
  331MOL0     H43627   9.565   9.398   1.979  0.9869  1.0064  2.1418
  331MOL0     H43628   9.513   9.620   1.924  1.9535  6.1975 -0.2924
  331MOL0     H43629   9.484   9.877   1.865  0.2039  0.9415 -0.0654
  331MOL0     H43630   9.496   9.744   1.740 -1.3068  0.3689  1.4087
  331MOL0     H43631   9.627   9.922   1.600  0.4680  1.3563  0.6267
  331MOL0     H43632   9.554  10.037   1.705 -2.7241  1.5969 -1.7556
  331MOL0     H43633   9.329   9.907   1.681  0.5895 -1.1743  0.3051
  331MOL0     H43634   9.403   9.814   1.553 -1.1872 -0.6886 -0.5597
  331MOL0     H43635   9.277  10.009   1.484  0.8364 -0.5849  0.0023
  331MOL0     H43636   9.382  10.121   1.577 -1.4037  1.9460 -1.6135
  331MOL0     H43637   9.498   9.931   1.352  1.4069  1.0795 -4.8875
  331MOL0     H43638   9.568  10.069   1.439 -3.0819  0.7361  4.1161
  331MOL0     H43639   9.500  10.170   1.221 -2.0689  0.9696 -0.6851
  331MOL0     H43640   9.395  10.214   1.363  0.0221  1.9293 -2.0101
  331MOL0     H43641   9.326   9.975   1.187  1.8532  0.6649 -1.8566
  331MOL0     H43642   9.225  10.093   1.280  0.9608 -0.0933  0.3260
  331MOL0     H43643   9.384  10.217   1.063  0.7126 -1.4880  0.0731
  331MOL0     H43644   9.224  10.255   1.123  1.4810  1.8956 -3.1543
  331MOL0     H43645   9.401  10.139   0.835 -0.8475  1.3112 -3.1146
  331MOL0     H43646   9.344   9.975   0.618  1.5412  0.9845  4.6297
  331MOL0     H43647   9.234  10.102   0.591 -0.1985  0.1639 -0.8051
  331MOL0     H43648   9.137   9.804   0.622 -3.7760 -2.0111 -3.6623
  331MOL0     H43649   9.165   9.886   0.474  2.5493 -1.3409  1.0161
  331MOL0     H43650   8.937   9.870   0.510 -0.0758 -0.4395 -1.2458
  331MOL0     H43651   8.937   9.929   0.671  1.5831  0.2746  1.7730
  331MOL0     H43652   8.993  10.163   0.611 -2.4323  3.3838 -1.1745
  331MOL0     H43653   8.838  10.112   0.559 -0.8794 -0.6141 -1.8771
  331MOL0     H43654   8.863  10.355   0.520  0.3018  1.6487 -0.0502
  331MOL0     H43655   8.865  10.578   0.382 -0.6563 -0.7249 -0.6771
  331MOL0     H43656   9.236  10.848   0.262  2.4222 -0.8869  0.2017
  331MOL0     H43657   9.369  11.056   0.161  1.9839  0.7876 -1.3539
  331MOL0     H43658   9.161  11.172  -0.163  0.6929  3.8873  1.2634
  331MOL0     H43659   9.286  11.099  -0.281 -1.0029 -1.9185  0.9080
  331MOL0     H43660   9.275  11.382  -0.165  0.1917  0.0142 -0.5147
  331MOL0     H43661   9.219  11.332  -0.326  0.1922  1.2893  0.0997
  331MOL0     H43662   9.404  11.421  -0.378  1.9274  1.5786  1.1610
  331MOL0     H43663   9.447  11.249  -0.392 -1.5618 -0.6394 -0.3269
  331MOL0     H43664   9.522  11.445  -0.169 -0.6844 -1.8130  2.3538
  331MOL0     H43665   9.546  11.269  -0.156 -3.7817 -2.1755 -0.8268
  331MOL0     H43666   9.671  11.461  -0.371 -0.8322  1.5142  2.1061
  331MOL0     H43667   9.696  11.292  -0.365  1.2512 -0.3053  0.1327
  331MOL0     H43668   9.793  11.309  -0.121 -0.8970  1.0452  1.0672
  331MOL0     H43669   9.790  11.486  -0.143  0.1279 -0.0750  0.4006
  331MOL0     H43670   9.942  11.285  -0.303  0.2682  0.0979  0.0256
  331MOL0     H43671   9.910  11.448  -0.362 -1.5846 -0.6007 -1.0245
  331MOL0     H43672  10.044  11.540  -0.183  2.0832  0.5122 -0.5061
  331MOL0     H43673  10.143  11.411  -0.241  1.9886 -0.6538  3.3091
  331MOL0     H43674   9.313  10.888  -0.229 -1.4571 -1.7960 -0.1095
  331MOL0     H43675   9.220  10.677  -0.117  1.0993  1.0653 -1.8814
  331MOL0     H43676   9.202  10.415   0.160  0.2791 -1.4313 -0.0017
  331MOL0     H43677   9.141  10.193   0.242 -0.3928  1.3347 -2.2052
  331MOL0     H43678   9.912   9.691   1.794 -0.4284  1.8978  2.2447
  331MOL0     H43679   9.966   9.464   1.843 -0.1553  3.1274 -0.1222
  331MOL0     H43680  10.058   9.180   1.910  2.3672 -2.3826 -1.8685
  331MOL0     H43681  10.218   9.005   1.946  1.2253  2.2997  2.2826
  331MOL0     H43682  10.357   8.885   2.125 -1.4938 -0.1240  1.0214
  331MOL0     H43683  10.311   8.796   1.976  1.5006 -1.3704  0.4749
  331MOL0     H43684  10.332   8.655   2.243  0.2328  2.4042  0.2654
  331MOL0     H43685  10.326   8.583   2.080 -2.0559 -0.3659  1.9785
  331MOL0     H43686  10.557   8.740   2.207 -3.2617  0.1128  1.1604
  331MOL0     H43687  10.542   8.713   2.034 -2.2897  0.0010  0.1043
  331MOL0     H43688  10.684   8.549   2.179 -0.6826  0.7733  2.0654
  331MOL0     H43689  10.533   8.485   2.242 -1.7962 -1.0120 -1.3470
  331MOL0     H43690  10.585   8.344   1.838 -0.5448 -0.8889 -0.4679
  331MOL0     H43691   9.943   8.806   2.221 -0.9332  0.8919  0.1315
  331MOL0     H43692   9.784   8.986   2.191 -1.3054  1.4637 -1.4361
  332MOL0     O43693   2.143   5.271   6.234  0.7661  0.1160 -0.4223
  332MOL0     C43694   2.195   5.344   6.157 -0.0004 -0.5053 -0.4119
  332MOL0     O43695   2.159   5.375   6.030  0.0225 -0.1372  0.0354
  332MOL0     C43696   2.038   5.326   5.987 -0.1363  0.4622 -0.4575
  332MOL0     C43697   1.922   5.404   5.954 -1.8906 -0.4482 -0.3694
  332MOL0     C43698   1.814   5.347   5.901  0.5825  0.4003  0.2821
  332MOL0     C43699   1.807   5.207   5.873  0.1296  0.0239 -0.0692
  332MOL0     O43700   1.706   5.139   5.805 -0.8261  0.3403  0.1907
  332MOL0     C43701   1.584   5.201   5.781 -0.0916 -0.8592 -0.2615
  332MOL0     C43702   1.503   5.125   5.679  1.1194 -0.3979  0.3308
  332MOL0     C43703   1.408   5.021   5.737 -0.0077 -0.6236  0.5660
  332MOL0     C43704   1.499   4.911   5.785  1.0461  0.7726 -0.1216
  332MOL0     C43705   1.407   4.803   5.850 -0.2073 -0.1830 -0.0878
  332MOL0     C43706   1.493   4.668   5.869 -0.3337 -0.4031  0.0914
  332MOL0     C43707   1.415   4.557   5.945  1.1936  0.0975 -0.2430
  332MOL0     C43708   1.375   4.441   5.852  0.5228 -0.0710  0.0104
  332MOL0     N43709   1.295   4.341   5.925 -0.2085 -0.0195 -0.8498
  332MOL0     C43710   1.347   4.235   5.979 -0.2910  0.2140 -1.0480
  332MOL0     C43711   1.236   4.173   6.035 -0.7344  0.0382 -0.3786
  332MOL0     C43712   1.238   4.055   6.122 -0.9794  1.2001  0.3806
  332MOL0     C43713   1.318   4.067   6.251 -0.8883  0.1322  0.6729
  332MOL0     C43714   1.267   4.152   6.361 -0.3607 -0.2209 -0.2084
  332MOL0     C43715   1.116   4.139   6.385  0.2216  0.9183 -0.2416
  332MOL0     O43716   1.088   3.999   6.398 -0.2999  0.1544 -0.2923
  332MOL0     C43717   0.964   3.947   6.366 -0.4540 -0.1627  1.0259
  332MOL0     C43718   0.853   4.026   6.354 -0.3266  0.0023 -0.0129
  332MOL0     C43719   0.722   3.974   6.345 -0.2228 -0.1815 -0.4126
  332MOL0     C43720   0.705   3.838   6.310 -0.1342 -0.6782  1.4638
  332MOL0     C43721   0.573   3.778   6.276  1.0332 -0.8079 -1.1811
  332MOL0     O43722   0.477   3.855   6.310  0.2877  0.2011 -0.2590
  332MOL0     C43723   0.352   3.799   6.324 -1.3712 -0.0960  0.5401
  332MOL0     C43724   0.274   3.768   6.212 -0.1503 -0.4577  0.0513
  332MOL0     C43725   0.155   3.708   6.232 -0.9361  0.4518  0.1007
  332MOL0     C43726   0.101   3.691   6.365 -0.6103 -1.4514  0.2654
  332MOL0     O43727  -0.021   3.640   6.392 -0.3798  0.2018  0.5124
  332MOL0     C43728  -0.088   3.584   6.275  0.4371 -0.0366 -1.0943
  332MOL0     C43729  -0.022   3.444   6.251  0.4995 -0.2590  1.0066
  332MOL0     C43730  -0.103   3.353   6.159  0.2713 -0.1703 -0.0551
  332MOL0     C43731  -0.031   3.222   6.143 -0.5108 -0.1724 -0.7189
  332MOL0     C43732  -0.091   3.137   6.031  0.3403 -0.3632 -0.0644
  332MOL0     C43733  -0.049   3.193   5.891  0.6641 -0.3639 -0.2717
  332MOL0     C43734  -0.108   3.105   5.778  0.2369 -0.0721  1.1533
  332MOL0     C43735  -0.033   2.970   5.736 -0.4080  0.1424 -0.7138
  332MOL0    Cl43736  -0.077   2.836   5.847 -0.3342  0.2085 -0.2050
  332MOL0     C43737   0.175   3.729   6.469 -0.1204 -0.1292 -0.6460
  332MOL0     C43738   0.304   3.778   6.455  0.5809  0.4773  0.5253
  332MOL0     O43739   0.558   3.675   6.218 -0.6722  0.1507  0.6710
  332MOL0     C43740   0.817   3.763   6.304  0.7825 -0.0961  0.2944
  332MOL0     C43741   0.949   3.816   6.338 -0.2171 -0.8136  0.9796
  332MOL0     N43742   1.126   4.245   6.013  0.9730 -0.1961 -0.2784
  332MOL0     N43743   1.161   4.357   5.949  0.3547  0.4617  0.2838
  332MOL0     C43744   1.918   5.129   5.908 -0.2599 -1.0552 -0.3266
  332MOL0     C43745   2.032   5.188   5.965  0.1967 -0.5616  0.2933
  332MOL0     C43746   2.329   5.403   6.198 -0.2834  0.2092  1.0128
  332MOL0     C43747   2.394   5.357   6.307 -0.0028 -0.5682 -0.1522
  332MOL0     C43748   2.522   5.403   6.341  0.7099 -0.6374  0.1701
  332MOL0     C43749   2.572   5.516   6.277  0.5409 -0.5030  0.2173
  332MOL0     O43750   2.686   5.576   6.321 -0.1640  0.1000 -0.7893
  332MOL0     C43751   2.684   5.579   6.464 -0.1013  1.4586  0.1637
  332MOL0     C43752   2.758   5.697   6.533 -1.3693  0.0424 -0.2532
  332MOL0     C43753   2.906   5.698   6.503 -0.4562 -0.7267 -1.7165
  332MOL0     C43754   2.945   5.764   6.368 -0.7829  0.3280 -0.0674
  332MOL0     C43755   2.938   5.910   6.379 -0.3721 -0.6428  0.1510
  332MOL0     C43756   2.928   6.030   6.385  0.3930  0.1088 -0.1854
  332MOL0     C43757   2.517   5.551   6.158  0.6452 -0.5501  0.3005
  332MOL0     C43758   2.398   5.494   6.111 -0.0393  0.7195 -0.4942
  332MOL0     H43759   1.936   5.512   5.961  2.8947 -0.6678 -2.5920
  332MOL0     H43760   1.732   5.408   5.863  0.5246 -1.9235 -3.9623
  332MOL0     H43761   1.605   5.297   5.732 -2.6242  1.0145  2.0061
  332MOL0     H43762   1.530   5.235   5.869  0.8119  0.2853 -0.1334
  332MOL0     H43763   1.572   5.085   5.603 -0.5044  1.7264 -2.4642
  332MOL0     H43764   1.437   5.199   5.634  0.2339  1.9982  4.9972
  332MOL0     H43765   1.338   4.986   5.661 -1.6922  1.0731  1.2561
  332MOL0     H43766   1.347   5.068   5.815  2.1301  5.3472 -0.7974
  332MOL0     H43767   1.546   4.867   5.697 -3.5238 -0.2024 -2.3770
  332MOL0     H43768   1.569   4.957   5.855 -0.6386  3.2703  0.0626
  332MOL0     H43769   1.317   4.777   5.793 -0.9423 -0.8856  1.3523
  332MOL0     H43770   1.367   4.845   5.942 -0.1032  0.3609 -0.2851
  332MOL0     H43771   1.577   4.694   5.934  0.5266 -1.5703 -0.5460
  332MOL0     H43772   1.535   4.632   5.775 -0.6141 -0.3780 -0.0451
  332MOL0     H43773   1.471   4.518   6.031  2.3925 -0.1177 -1.0961
  332MOL0     H43774   1.325   4.605   5.985  0.8492  0.1785 -1.0872
  332MOL0     H43775   1.468   4.397   5.814  1.3660  1.2381  0.4772
  332MOL0     H43776   1.323   4.475   5.761  1.9493 -1.8136 -1.5423
  332MOL0     H43777   1.448   4.196   5.980 -0.3163 -0.3727  4.0379
  332MOL0     H43778   1.288   3.983   6.056 -0.6534  0.9934  0.8519
  332MOL0     H43779   1.139   4.012   6.138 -1.5619  2.0747 -0.6900
  332MOL0     H43780   1.418   4.104   6.228 -0.8329 -0.1603  0.4261
  332MOL0     H43781   1.327   3.965   6.290 -3.1302  0.1637  1.4359
  332MOL0     H43782   1.326   4.138   6.452  1.5788  1.5651 -1.1125
  332MOL0     H43783   1.275   4.252   6.319 -1.3107 -0.7195 -1.6396
  332MOL0     H43784   1.054   4.178   6.303 -0.5869  1.2786  0.5309
  332MOL0     H43785   1.085   4.185   6.479  2.8806 -2.0008  2.2829
  332MOL0     H43786   0.859   4.133   6.375 -1.6640  0.1414 -0.2739
  332MOL0     H43787   0.643   4.047   6.361 -0.6504 -0.8412  0.5754
  332MOL0     H43788   0.319   3.778   6.114 -2.8379 -0.6375 -1.2887
  332MOL0     H43789   0.099   3.678   6.144 -2.1320 -1.6505  1.4720
  332MOL0     H43790  -0.102   3.650   6.189 -0.3517  3.3058  1.3853
  332MOL0     H43791  -0.191   3.570   6.308  0.7995 -0.8906 -0.3001
  332MOL0     H43792   0.006   3.396   6.345 -1.4781 -0.3878  1.5620
  332MOL0     H43793   0.074   3.459   6.199 -0.9869 -0.2716 -1.9486
  332MOL0     H43794  -0.097   3.398   6.059  2.0960 -0.8727 -0.2893
  332MOL0     H43795  -0.209   3.350   6.188 -0.7398  6.2505 -1.4249
  332MOL0     H43796   0.075   3.239   6.125 -0.8821 -0.8057 -4.3128
  332MOL0     H43797  -0.035   3.159   6.232  0.3629  1.0189  0.1968
  332MOL0     H43798  -0.198   3.118   6.043 -0.2365  0.1293 -3.5667
  332MOL0     H43799  -0.036   3.043   6.043  0.9176  0.0907  1.0561
  332MOL0     H43800   0.059   3.179   5.880  0.9314  1.4092 -0.1951
  332MOL0     H43801  -0.071   3.299   5.880 -0.7459  0.0092  4.1353
  332MOL0     H43802  -0.209   3.069   5.801  1.3530 -3.8486  0.7289
  332MOL0     H43803  -0.104   3.165   5.686  0.4717  0.1906  1.3326
  332MOL0     H43804   0.073   2.999   5.739  0.1865 -1.9657  1.2635
  332MOL0     H43805  -0.064   2.944   5.635 -2.3859  0.4677 -0.2215
  332MOL0     H43806   0.148   3.731   6.574  1.5916  0.8394 -0.1750
  332MOL0     H43807   0.373   3.812   6.532  0.5181  3.8841 -0.7296
  332MOL0     H43808   0.795   3.661   6.276  0.1712  0.1796 -0.2577
  332MOL0     H43809   1.033   3.749   6.352 -0.6350 -1.0664  2.4234
  332MOL0     H43810   1.907   5.026   5.875 -2.2109 -0.0936 -2.9817
  332MOL0     H43811   2.125   5.136   5.982  1.0292 -0.1687 -2.5088
  332MOL0     H43812   2.345   5.280   6.365 -2.9175  0.1500 -1.4425
  332MOL0     H43813   2.574   5.347   6.418  3.9280 -0.4565 -1.7019
  332MOL0     H43814   2.733   5.488   6.501  0.6770  1.5492 -0.6411
  332MOL0     H43815   2.581   5.589   6.502 -0.2422 -1.4076  0.7667
  332MOL0     H43816   2.716   5.795   6.509 -0.8788  0.7089  1.4158
  332MOL0     H43817   2.767   5.697   6.642  4.6903 -0.7985 -0.4295
  332MOL0     H43818   2.935   5.594   6.487 -1.2668 -0.9657 -1.6990
  332MOL0     H43819   2.968   5.731   6.586 -2.3020 -1.9675  0.2586
  332MOL0     H43820   3.052   5.741   6.367 -0.9370 -0.7074  1.7153
  332MOL0     H43821   2.888   5.704   6.297 -1.2627 -1.2145  1.5391
  332MOL0     H43822   2.921   6.135   6.403 -2.5010 -0.0821  0.3383
  332MOL0     H43823   2.566   5.632   6.104  1.8328 -0.0948  1.9922
  332MOL0     H43824   2.344   5.522   6.021 -2.9398  1.5184  1.3901
  333MOL0     O43825   6.674   4.570   6.907  0.4166 -1.1789  0.7944
  333MOL0     C43826   6.701   4.472   6.979  0.4072  0.3537 -0.5136
  333MOL0     O43827   6.625   4.428   7.082  0.1137 -0.9151  0.5366
  333MOL0     C43828   6.488   4.446   7.095 -0.8330 -0.2655 -0.3381
  333MOL0     C43829   6.409   4.335   7.091 -0.0368 -0.1262 -0.9630
  333MOL0     C43830   6.271   4.340   7.119 -0.3466 -1.0019  0.9566
  333MOL0     C43831   6.213   4.465   7.142  0.0099  0.0164  0.8106
  333MOL0     O43832   6.077   4.486   7.155 -0.6413  0.2616 -0.6546
  333MOL0     C43833   6.018   4.609   7.192  0.7253 -0.1812  0.7667
  333MOL0     C43834   5.868   4.604   7.182  0.9927  1.0532 -0.8602
  333MOL0     C43835   5.843   4.576   7.035  0.4228 -0.0515  0.5231
  333MOL0     C43836   5.691   4.582   6.994 -0.2548 -0.6787  0.7338
  333MOL0     C43837   5.644   4.509   6.878  0.4207 -0.7848  0.1634
  333MOL0     C43838   5.709   4.564   6.748  0.7218 -0.2784  0.0355
  333MOL0     C43839   5.628   4.512   6.626 -0.1603 -0.0719 -0.2866
  333MOL0     C43840   5.681   4.556   6.486  0.8176  0.3081  1.0702
  333MOL0     N43841   5.627   4.470   6.375  0.9467  0.5161 -0.0463
  333MOL0     C43842   5.493   4.478   6.328 -1.1097 -0.5506  0.4224
  333MOL0     C43843   5.455   4.360   6.281 -0.1233 -0.3413  0.1193
  333MOL0     C43844   5.320   4.330   6.222 -0.3919  0.6402 -0.1909
  333MOL0     C43845   5.306   4.370   6.070 -0.2973  0.0199  0.5839
  333MOL0     C43846   5.255   4.513   6.053  0.3938  1.0144  0.0512
  333MOL0     C43847   5.107   4.537   6.087 -0.1945 -0.6391 -0.5049
  333MOL0     O43848   5.060   4.649   6.016  0.2896 -1.1481  0.3899
  333MOL0     C43849   4.955   4.722   6.069  0.5292  0.5355 -0.5439
  333MOL0     C43850   4.916   4.834   5.994 -0.6608  0.1288  0.2121
  333MOL0     C43851   4.801   4.907   6.035  0.4531 -0.0214 -0.3273
  333MOL0     C43852   4.721   4.851   6.147  0.0798  0.1799  0.8206
  333MOL0     C43853   4.602   4.923   6.199  0.5486 -0.3063  0.2606
  333MOL0     O43854   4.553   4.881   6.315  0.4495  0.1818 -0.2629
  333MOL0     C43855   4.467   4.960   6.388 -0.0134  0.5028 -0.7436
  333MOL0     C43856   4.462   5.099   6.384  0.2694 -0.1869 -0.6697
  333MOL0     C43857   4.378   5.168   6.473  0.5563 -0.0429  0.1056
  333MOL0     C43858   4.301   5.100   6.563 -0.2909  0.9366 -0.5059
  333MOL0     O43859   4.222   5.167   6.647  0.5755  0.4907 -0.0352
  333MOL0     C43860   4.088   5.126   6.665  0.4023 -0.0100 -0.1677
  333MOL0     C43861   4.005   5.245   6.701  0.6311 -0.1103  0.4447
  333MOL0     C43862   3.857   5.231   6.677  1.0120  0.8353  0.7068
  333MOL0     C43863   3.781   5.359   6.708  0.4004 -0.5864  0.0595
  333MOL0     C43864   3.637   5.353   6.653 -0.2372 -0.0713  0.9223
  333MOL0     C43865   3.562   5.481   6.716 -1.2050 -0.4151  0.1045
  333MOL0     C43866   3.450   5.535   6.629 -0.1046  0.6053 -0.0762
  333MOL0     C43867   3.376   5.640   6.717  0.0939  0.7958  0.1439
  333MOL0    Cl43868   3.254   5.723   6.624 -0.0457  0.2147 -0.5511
  333MOL0     C43869   4.300   4.957   6.569 -0.1006  0.2093 -0.7219
  333MOL0     C43870   4.389   4.883   6.478  0.1951 -0.0980 -0.2977
  333MOL0     O43871   4.572   5.025   6.139 -0.6923  0.1214 -0.3558
  333MOL0     C43872   4.753   4.732   6.215 -0.7778  0.0400  0.7305
  333MOL0     C43873   4.877   4.668   6.179  0.7925 -0.9717  0.3982
  333MOL0     N43874   5.566   4.281   6.289  0.8560 -0.6627  0.3736
  333MOL0     N43875   5.667   4.343   6.342  0.3042  0.1959  0.1767
  333MOL0     C43876   6.294   4.578   7.132 -0.7779 -0.6345  0.0724
  333MOL0     C43877   6.434   4.569   7.111  1.0476  0.6754 -0.3173
  333MOL0     C43878   6.825   4.401   6.969  0.2363 -0.0724 -0.3238
  333MOL0     C43879   6.842   4.269   7.008 -0.6294 -0.1219  1.1691
  333MOL0     C43880   6.964   4.199   6.987 -0.3676 -0.8221 -0.1993
  333MOL0     C43881   7.080   4.270   6.955  0.4858  0.8503  0.0401
  333MOL0     O43882   7.211   4.220   6.950 -0.0163  0.7373 -0.1470
  333MOL0     C43883   7.243   4.095   7.008 -0.5094  0.2888  0.2964
  333MOL0     C43884   7.258   3.987   6.910  0.9345  0.4746  0.3783
  333MOL0     C43885   7.299   3.848   6.977 -0.0705 -0.4172  0.6837
  333MOL0     C43886   7.299   3.720   6.894  0.7331  0.6483 -0.0874
  333MOL0     C43887   7.368   3.720   6.771  0.6727 -0.1868  0.6016
  333MOL0     C43888   7.434   3.700   6.670 -0.8037  0.2236  0.1390
  333MOL0     C43889   7.063   4.402   6.911  0.2940 -0.1928 -0.6672
  333MOL0     C43890   6.942   4.472   6.925  0.1589 -0.1084  0.4393
  333MOL0     H43891   6.458   4.238   7.084 -0.2159 -0.6145  2.6062
  333MOL0     H43892   6.201   4.257   7.122  0.5614 -1.7874  1.0180
  333MOL0     H43893   6.048   4.686   7.120 -1.1973  0.0747  0.1907
  333MOL0     H43894   6.050   4.638   7.293  0.5261  0.9786  0.5135
  333MOL0     H43895   5.829   4.701   7.213 -3.1413 -0.7964  0.4686
  333MOL0     H43896   5.820   4.529   7.247 -0.1001  0.4937 -2.2388
  333MOL0     H43897   5.886   4.480   7.005 -0.4062 -0.4130  0.4593
  333MOL0     H43898   5.897   4.644   6.969  2.9293 -1.9249  0.5041
  333MOL0     H43899   5.623   4.546   7.072 -1.7208 -1.4938 -0.8591
  333MOL0     H43900   5.679   4.686   6.964 -0.1825 -0.6711  0.7320
  333MOL0     H43901   5.536   4.520   6.872  0.3935 -1.7590 -1.4472
  333MOL0     H43902   5.665   4.402   6.886 -4.2869 -1.7977  5.0712
  333MOL0     H43903   5.813   4.532   6.751  0.3053 -1.6391  2.1863
  333MOL0     H43904   5.707   4.673   6.747 -4.0692 -0.1575 -0.5818
  333MOL0     H43905   5.620   4.402   6.626 -0.6306 -0.1290 -3.6472
  333MOL0     H43906   5.522   4.541   6.626 -1.0730 -2.5988 -4.4444
  333MOL0     H43907   5.789   4.550   6.475  0.5771 -1.1588 -0.9088
  333MOL0     H43908   5.658   4.662   6.470  0.5716 -0.0800 -1.5713
  333MOL0     H43909   5.420   4.558   6.328 -2.6409 -1.8827  1.8377
  333MOL0     H43910   5.240   4.374   6.282  1.2122  0.0036  2.5789
  333MOL0     H43911   5.298   4.223   6.233  1.8278  0.2838  1.6336
  333MOL0     H43912   5.236   4.306   6.014  0.1090  0.7621 -0.8016
  333MOL0     H43913   5.409   4.365   6.033 -0.4489  0.7752  0.0494
  333MOL0     H43914   5.310   4.580   6.120  1.6726  1.8579 -1.7824
  333MOL0     H43915   5.266   4.550   5.951  0.8409 -1.3936 -0.8383
  333MOL0     H43916   5.113   4.548   6.195 -3.6259 -2.6822  0.0484
  333MOL0     H43917   5.036   4.455   6.068 -0.7229  0.1437 -2.1004
  333MOL0     H43918   4.986   4.862   5.917 -1.6286  1.6134 -0.1719
  333MOL0     H43919   4.772   5.005   5.998  0.1240 -0.1623 -0.4486
  333MOL0     H43920   4.526   5.166   6.326 -2.4560  2.7490 -0.5339
  333MOL0     H43921   4.360   5.275   6.471 -1.4088 -0.2909 -2.7483
  333MOL0     H43922   4.069   5.038   6.728  0.9622 -0.7327 -0.9969
  333MOL0     H43923   4.056   5.105   6.563 -0.8534  0.9854 -0.0025
  333MOL0     H43924   4.034   5.325   6.633  0.8545 -0.7617 -0.2543
  333MOL0     H43925   4.012   5.275   6.806  0.2876  1.5173  0.0254
  333MOL0     H43926   3.813   5.147   6.731 -1.4376  0.8360 -1.0880
  333MOL0     H43927   3.832   5.215   6.571  0.5119  3.3135  0.3842
  333MOL0     H43928   3.780   5.374   6.816 -0.1342 -0.5374  0.0507
  333MOL0     H43929   3.833   5.447   6.669  0.0828  0.2507  1.4624
  333MOL0     H43930   3.587   5.262   6.686 -1.7416 -0.3635 -1.8854
  333MOL0     H43931   3.639   5.361   6.544  2.6871  0.6181  0.9454
  333MOL0     H43932   3.643   5.555   6.710  0.3264 -2.0083  0.2729
  333MOL0     H43933   3.534   5.475   6.821  1.2159 -0.9351  0.7954
  333MOL0     H43934   3.481   5.584   6.536  0.3424  0.2026 -0.1403
  333MOL0     H43935   3.393   5.452   6.586 -0.2474  0.4757  0.3629
  333MOL0     H43936   3.452   5.706   6.762  2.9550 -1.4125 -1.1457
  333MOL0     H43937   3.330   5.596   6.806  1.4009 -2.3878 -0.6366
  333MOL0     H43938   4.245   4.904   6.646  1.9556 -2.9013 -1.2281
  333MOL0     H43939   4.400   4.775   6.484 -1.6588 -0.3383 -0.7806
  333MOL0     H43940   4.693   4.704   6.301 -1.7459 -0.0329  0.0469
  333MOL0     H43941   4.925   4.594   6.243 -2.0875 -1.5027  2.1418
  333MOL0     H43942   6.257   4.679   7.133  1.0146  0.1477 -2.1718
  333MOL0     H43943   6.503   4.652   7.095  2.8800 -1.0122 -1.6740
  333MOL0     H43944   6.755   4.217   7.047 -1.0800  0.1924  0.5984
  333MOL0     H43945   6.957   4.098   7.026  0.2959 -2.1680 -3.3034
  333MOL0     H43946   7.161   4.074   7.077 -2.5922  0.4224 -1.9755
  333MOL0     H43947   7.338   4.104   7.060 -0.1960 -0.6982 -0.0684
  333MOL0     H43948   7.168   3.958   6.854  0.4535  0.7348  1.0059
  333MOL0     H43949   7.332   4.021   6.838 -1.2373  3.2100 -0.7418
  333MOL0     H43950   7.243   3.824   7.068 -1.7838 -2.5693 -0.8251
  333MOL0     H43951   7.404   3.860   7.005  0.1802 -0.4327 -0.2245
  333MOL0     H43952   7.332   3.634   6.953 -1.3195 -0.3803 -0.3445
  333MOL0     H43953   7.193   3.704   6.871  0.8598 -0.5255  0.0850
  333MOL0     H43954   7.488   3.688   6.578 -1.4662  2.7511 -0.6820
  333MOL0     H43955   7.140   4.469   6.875 -0.6978  1.9290  0.9381
  333MOL0     H43956   6.925   4.572   6.887  1.6834  0.6773  1.7340
  334MOL0     O43957   4.255  11.235   8.701 -0.3934  0.3119  0.4841
  334MOL0     C43958   4.261  11.116   8.718  0.6392  0.1670  0.9824
  334MOL0     O43959   4.358  11.055   8.794 -0.0921  1.0775 -0.4537
  334MOL0     C43960   4.441  11.131   8.863 -0.5333  0.4283 -0.3863
  334MOL0     C43961   4.450  11.118   9.001 -0.3606 -0.2686  0.0405
  334MOL0     C43962   4.553  11.183   9.076  0.1718 -0.5887  0.6300
  334MOL0     C43963   4.630  11.272   9.009 -0.3874  0.3959 -0.0869
  334MOL0     O43964   4.721  11.346   9.081 -0.0025  0.3345 -0.5488
  334MOL0     C43965   4.832  11.269   9.122  0.4718 -0.4763  0.1351
  334MOL0     C43966   4.948  11.367   9.149  0.2990 -0.3493  0.4445
  334MOL0     C43967   5.065  11.292   9.214  0.5296 -0.0292  0.2834
  334MOL0     C43968   5.029  11.262   9.355 -0.3540  0.9677 -0.6482
  334MOL0     C43969   5.142  11.260   9.459 -0.3395 -0.2311 -0.7089
  334MOL0     C43970   5.227  11.140   9.422  0.0782 -0.5367  0.6470
  334MOL0     C43971   5.343  11.115   9.521 -0.6672 -0.3177 -0.0984
  334MOL0     C43972   5.390  11.233   9.611  1.3416  0.2239 -0.1502
  334MOL0     N43973   5.473  11.325   9.541  0.3625 -0.9562 -0.6113
  334MOL0     C43974   5.447  11.391   9.423  0.1895 -0.5461 -0.4467
  334MOL0     C43975   5.554  11.474   9.408  0.1741 -0.3801  0.2644
  334MOL0     C43976   5.573  11.575   9.300 -0.8109  0.4808  0.3701
  334MOL0     C43977   5.714  11.564   9.233  0.0260 -1.2476  0.1251
  334MOL0     C43978   5.716  11.458   9.130 -2.1600  0.9590  0.0633
  334MOL0     C43979   5.851  11.457   9.054 -0.1671  0.1628 -0.0763
  334MOL0     O43980   5.883  11.320   9.020  0.0307 -0.2029  0.5454
  334MOL0     C43981   6.011  11.281   9.018  0.1491  0.5528  0.7658
  334MOL0     C43982   6.028  11.142   8.999 -0.1892 -1.2676 -0.2210
  334MOL0     C43983   6.152  11.092   8.982  0.4817 -0.7546  0.0215
  334MOL0     C43984   6.276  11.162   8.988 -0.0740 -0.9364 -0.9058
  334MOL0     C43985   6.404  11.100   8.984  0.2369 -0.6786 -0.6758
  334MOL0     O43986   6.396  10.972   9.037  0.0913 -0.4898 -0.3695
  334MOL0     C43987   6.511  10.906   9.017 -0.5001  0.6690  1.1948
  334MOL0     C43988   6.582  10.865   9.130 -0.3908 -0.1647  0.8664
  334MOL0     C43989   6.697  10.778   9.116  1.7524 -0.5843  0.2813
  334MOL0     C43990   6.740  10.741   8.991 -0.8736  0.0311 -0.3084
  334MOL0     O43991   6.852  10.668   8.990  0.1486  0.1541  0.0577
  334MOL0     C43992   6.882  10.578   8.885 -0.4787  0.9253  0.5155
  334MOL0     C43993   6.938  10.447   8.937  0.3581  0.5564  0.5635
  334MOL0     C43994   6.972  10.354   8.814  0.1295  1.1020  0.9516
  334MOL0     C43995   6.991  10.214   8.875 -0.0517  0.2550 -1.1440
  334MOL0     C43996   7.010  10.117   8.761  0.2429 -0.0812  0.4170
  334MOL0     C43997   6.975   9.976   8.805 -1.1560  0.4168 -0.2896
  334MOL0     C43998   7.079   9.916   8.899 -0.2883  0.0928 -0.6588
  334MOL0     C43999   7.225   9.914   8.853 -0.0293 -0.0240 -0.0291
  334MOL0    Cl44000   7.253   9.789   8.732 -0.3618  0.2283  0.2005
  334MOL0     C44001   6.674  10.785   8.878  0.3907  0.8232  0.2977
  334MOL0     C44002   6.555  10.861   8.884  0.2771 -0.0725 -1.4442
  334MOL0     O44003   6.506  11.164   8.954  0.8763 -0.7715 -0.4662
  334MOL0     C44004   6.253  11.299   8.997 -0.3516  0.4725 -0.1456
  334MOL0     C44005   6.127  11.357   9.009  0.0889 -0.6698  0.5589
  334MOL0     N44006   5.642  11.454   9.512  0.4496  0.4977 -0.6000
  334MOL0     N44007   5.590  11.367   9.591  0.2342 -0.8767  1.1247
  334MOL0     C44008   4.618  11.296   8.877  0.0539 -0.4524  0.3369
  334MOL0     C44009   4.512  11.237   8.803  0.6813  1.0412  0.0309
  334MOL0     C44010   4.156  11.037   8.649  1.2545  0.0811 -0.6500
  334MOL0     C44011   4.056  11.093   8.566 -0.0375 -0.4068 -0.6007
  334MOL0     C44012   3.968  11.008   8.504  0.4763 -0.6443 -0.1044
  334MOL0     C44013   3.975  10.872   8.511 -0.4173  0.4878 -0.5204
  334MOL0     O44014   3.907  10.795   8.422  0.3077 -0.0828  0.4118
  334MOL0     C44015   3.770  10.838   8.396  0.4377 -0.5453  0.8117
  334MOL0     C44016   3.688  10.718   8.369 -0.1273  0.1444 -0.2108
  334MOL0     C44017   3.543  10.719   8.415  0.9621  0.5634  0.6316
  334MOL0     C44018   3.469  10.595   8.364  0.4261 -0.9768 -0.2539
  334MOL0     C44019   3.417  10.619   8.225 -0.0225  0.0722 -0.1801
  334MOL0     C44020   3.368  10.645   8.113 -0.4655 -0.7481 -0.5067
  334MOL0     C44021   4.075  10.825   8.579  0.8931  0.3801 -0.1284
  334MOL0     C44022   4.170  10.898   8.646  0.1265  0.4378 -0.5849
  334MOL0     H44023   4.391  11.052   9.064  0.5809 -3.8326 -2.5023
  334MOL0     H44024   4.570  11.169   9.183  1.0386  2.4435  0.9964
  334MOL0     H44025   4.872  11.193   9.055  3.5827  0.0004  1.2483
  334MOL0     H44026   4.805  11.227   9.220  1.2868  1.1611  1.1045
  334MOL0     H44027   4.913  11.450   9.209 -0.3530 -1.1096  1.1408
  334MOL0     H44028   4.980  11.405   9.051  3.8106 -1.8190  0.8551
  334MOL0     H44029   5.151  11.360   9.218  0.2560  0.2532  1.6705
  334MOL0     H44030   5.107  11.210   9.155  1.5770  0.6053  0.1329
  334MOL0     H44031   4.961  11.338   9.395  1.5634  1.5224  1.8188
  334MOL0     H44032   4.975  11.167   9.354 -0.9374  1.2970 -1.0359
  334MOL0     H44033   5.113  11.243   9.563  1.5353 -1.9341 -0.3929
  334MOL0     H44034   5.188  11.359   9.456 -2.8316  0.9992 -0.6081
  334MOL0     H44035   5.274  11.159   9.325  3.1569 -0.6277  2.0031
  334MOL0     H44036   5.167  11.050   9.406 -1.8692  0.6438  1.0046
  334MOL0     H44037   5.318  11.031   9.587  1.8237 -2.5500 -1.7770
  334MOL0     H44038   5.438  11.083   9.477  0.2980  1.4967  0.5319
  334MOL0     H44039   5.461  11.178   9.674 -0.5524 -0.1631  1.7667
  334MOL0     H44040   5.317  11.284   9.674  1.5869 -0.7960  0.9837
  334MOL0     H44041   5.362  11.395   9.356 -0.5607 -2.4058  0.3292
  334MOL0     H44042   5.549  11.674   9.341  0.4641  0.7646  0.4747
  334MOL0     H44043   5.495  11.550   9.228 -2.0122 -0.4584  1.9345
  334MOL0     H44044   5.793  11.542   9.307  0.5672  2.0587  0.6792
  334MOL0     H44045   5.736  11.662   9.191 -2.3576 -0.4071  0.6905
  334MOL0     H44046   5.694  11.360   9.173  1.9139  0.4282  1.3342
  334MOL0     H44047   5.636  11.485   9.061  0.4074  3.8979 -2.0621
  334MOL0     H44048   5.930  11.503   9.114  0.5116  1.2112 -1.6843
  334MOL0     H44049   5.839  11.522   8.966  1.3457  0.5968  0.0072
  334MOL0     H44050   5.940  11.079   9.007 -0.6892 -0.5889 -0.2433
  334MOL0     H44051   6.155  10.989   8.947  1.4817 -1.2866  1.5499
  334MOL0     H44052   6.532  10.894   9.222 -2.9734  0.5185 -0.6691
  334MOL0     H44053   6.753  10.754   9.205 -0.3568  2.0425  2.5041
  334MOL0     H44054   6.964  10.623   8.829 -1.5465  2.0406 -0.1889
  334MOL0     H44055   6.793  10.560   8.824 -0.7155 -1.9837  1.5391
  334MOL0     H44056   6.860  10.401   8.997 -1.9026  0.6614 -2.0926
  334MOL0     H44057   7.023  10.458   9.005  0.9651 -1.6317  0.2250
  334MOL0     H44058   7.060  10.391   8.761  0.0186  1.7029  1.1849
  334MOL0     H44059   6.887  10.348   8.746  0.1138  0.7618  1.0008
  334MOL0     H44060   7.075  10.223   8.945  1.6587 -1.2725 -2.8941
  334MOL0     H44061   6.909  10.182   8.941 -0.0062 -1.6712 -1.9491
  334MOL0     H44062   7.112  10.116   8.721 -0.2486  0.1218 -0.9037
  334MOL0     H44063   6.947  10.151   8.678  1.7451 -1.8480 -1.5417
  334MOL0     H44064   6.967   9.902   8.725 -1.9633 -2.8004  2.5011
  334MOL0     H44065   6.882   9.980   8.863  0.8278  0.3653  3.1989
  334MOL0     H44066   7.076   9.979   8.988  2.2491 -0.2645 -0.2483
  334MOL0     H44067   7.046   9.818   8.934  1.9996 -0.9765 -1.2653
  334MOL0     H44068   7.293   9.900   8.938  1.6883  0.9568 -1.1832
  334MOL0     H44069   7.266  10.011   8.824  3.6073 -1.5006 -0.4385
  334MOL0     H44070   6.712  10.749   8.784 -0.7407  0.9727 -0.2366
  334MOL0     H44071   6.495  10.874   8.794 -0.3566 -1.7913 -1.3064
  334MOL0     H44072   6.343  11.360   8.996 -1.3897  2.0610 -0.0009
  334MOL0     H44073   6.116  11.462   9.035  1.3173 -0.9967  2.5394
  334MOL0     H44074   4.682  11.369   8.828  0.3667 -0.6221  0.4935
  334MOL0     H44075   4.484  11.267   8.703  0.5106 -0.9220 -0.5427
  334MOL0     H44076   4.053  11.201   8.556  0.8488 -0.5005 -2.1704
  334MOL0     H44077   3.895  11.046   8.434  0.6585 -1.8317 -0.9677
  334MOL0     H44078   3.775  10.910   8.313  1.2296 -2.3123 -0.7521
  334MOL0     H44079   3.747  10.897   8.485  0.6085  1.5442 -0.4573
  334MOL0     H44080   3.698  10.688   8.264  2.6821 -1.6841  0.4792
  334MOL0     H44081   3.750  10.644   8.420 -0.9149 -1.2693 -1.2350
  334MOL0     H44082   3.498  10.809   8.372  2.6327  0.2007 -2.1600
  334MOL0     H44083   3.548  10.719   8.524 -1.5967  1.2170  0.8132
  334MOL0     H44084   3.536  10.509   8.370  1.6010 -0.1801 -1.5034
  334MOL0     H44085   3.383  10.562   8.424  0.2502  1.9391  1.2694
  334MOL0     H44086   3.342  10.662   8.011 -0.5547  2.6122 -0.0310
  334MOL0     H44087   4.109  10.721   8.583  1.1123  0.4432 -0.3197
  334MOL0     H44088   4.244  10.851   8.710 -0.0181  0.5889 -0.3046
  335MOL0     O44089   7.313   9.380   0.462  1.4404  0.5880 -0.0324
  335MOL0     C44090   7.249   9.402   0.565 -0.0854  0.2286  0.6146
  335MOL0     O44091   7.152   9.499   0.570  0.1522 -0.4798  0.3304
  335MOL0     C44092   7.104   9.563   0.458 -0.4235 -0.0869  0.3626
  335MOL0     C44093   7.021   9.511   0.361 -0.0519  0.7273 -0.5242
  335MOL0     C44094   6.977   9.573   0.253 -0.6105 -0.4521  0.7624
  335MOL0     C44095   7.003   9.712   0.233  0.2580 -0.2186 -0.2560
  335MOL0     O44096   6.946   9.778   0.118 -0.3359  0.8953 -0.3016
  335MOL0     C44097   7.033   9.882   0.062 -0.0265 -0.0416  0.3683
  335MOL0     C44098   6.986   9.941  -0.079 -0.2039  0.2196  0.1109
  335MOL0     C44099   6.979   9.826  -0.183  0.5276  0.2711 -0.4179
  335MOL0     C44100   6.895   9.860  -0.305  0.2614 -0.0887  0.0219
  335MOL0     C44101   6.957   9.943  -0.415 -0.2718  0.2830 -0.9035
  335MOL0     C44102   6.858   9.977  -0.516  0.6171  0.3057 -0.5249
  335MOL0     C44103   6.898  10.073  -0.624 -0.4027  0.5684  0.6412
  335MOL0     C44104   6.913  10.218  -0.570 -0.4734 -0.1638  0.8209
  335MOL0     N44105   6.937  10.327  -0.670  0.1237  0.5027 -0.4049
  335MOL0     C44106   6.843  10.432  -0.693 -0.3022  0.4079 -0.0641
  335MOL0     C44107   6.905  10.525  -0.765 -0.0926  0.1410 -0.1627
  335MOL0     C44108   6.837  10.648  -0.819 -0.2900 -0.9895  0.8373
  335MOL0     C44109   6.873  10.766  -0.724  0.5206  0.1500 -0.3922
  335MOL0     C44110   6.854  10.897  -0.796  0.7611 -0.0680  0.7246
  335MOL0     C44111   6.714  10.929  -0.858 -0.6452  1.4110 -0.1224
  335MOL0     O44112   6.633  10.946  -0.740  0.1881  0.0325 -0.2937
  335MOL0     C44113   6.508  10.903  -0.722  0.5221  0.1422 -0.3708
  335MOL0     C44114   6.454  10.879  -0.598 -0.4438  0.0035  0.3468
  335MOL0     C44115   6.319  10.860  -0.583  0.7911 -0.5930  0.1403
  335MOL0     C44116   6.227  10.830  -0.684 -0.2980 -0.1793  0.4546
  335MOL0     C44117   6.083  10.795  -0.669  0.3917  1.0265 -0.0990
  335MOL0     O44118   6.037  10.795  -0.544 -1.1523  0.3791  0.2861
  335MOL0     C44119   5.913  10.749  -0.511  0.1417  0.2057 -1.2770
  335MOL0     C44120   5.903  10.658  -0.405  0.2960 -0.0522  1.3167
  335MOL0     C44121   5.778  10.614  -0.361 -0.2767 -0.1976 -0.4822
  335MOL0     C44122   5.660  10.645  -0.432 -0.4343  0.3728 -0.5918
  335MOL0     O44123   5.536  10.590  -0.408  0.2857  0.5380  0.3017
  335MOL0     C44124   5.498  10.558  -0.275  0.5966 -0.5026 -0.1414
  335MOL0     C44125   5.348  10.542  -0.258  0.4921 -0.5950 -0.1532
  335MOL0     C44126   5.280  10.421  -0.331  0.1030  0.1091  0.5364
  335MOL0     C44127   5.129  10.424  -0.318  0.6394  0.1563 -0.4775
  335MOL0     C44128   5.072  10.297  -0.376 -0.1294  0.6518 -1.0708
  335MOL0     C44129   4.922  10.286  -0.338  0.4703  0.5612 -0.3922
  335MOL0     C44130   4.869  10.152  -0.394  0.0832  0.2163 -0.3255
  335MOL0     C44131   4.730  10.132  -0.317  0.8329 -0.2166  0.8987
  335MOL0    Cl44132   4.612  10.259  -0.370  0.0216 -0.5227 -0.4372
  335MOL0     C44133   5.665  10.737  -0.540  0.1532 -0.7160 -0.6048
  335MOL0     C44134   5.793  10.790  -0.572 -0.1327  1.0963  0.6301
  335MOL0     O44135   6.018  10.760  -0.776 -0.6791  0.0646 -0.0240
  335MOL0     C44136   6.283  10.844  -0.810 -0.1600  0.3846 -0.4083
  335MOL0     C44137   6.418  10.882  -0.832 -0.1442 -0.0069 -0.7163
  335MOL0     N44138   7.036  10.477  -0.789 -0.2017  0.2318 -0.8310
  335MOL0     N44139   7.055  10.362  -0.731  0.0805 -0.2261  0.4938
  335MOL0     C44140   7.097   9.771   0.323  0.1765 -0.9607  0.5951
  335MOL0     C44141   7.131   9.706   0.440  0.4785 -0.2344 -0.1721
  335MOL0     C44142   7.298   9.332   0.687 -0.3065 -0.5026  0.4483
  335MOL0     C44143   7.270   9.377   0.812 -0.1731  0.2213  0.8801
  335MOL0     C44144   7.313   9.308   0.929 -0.8083  0.5209 -0.6667
  335MOL0     C44145   7.391   9.199   0.920 -0.2916 -0.0966 -0.2694
  335MOL0     O44146   7.434   9.118   1.019 -0.3418  0.6973  0.7804
  335MOL0     C44147   7.411   9.169   1.154 -0.1156  0.5827 -0.6674
  335MOL0     C44148   7.479   9.080   1.260 -0.1150 -0.1179  0.2869
  335MOL0     C44149   7.509   9.161   1.391  0.2295  0.4374  0.5402
  335MOL0     C44150   7.625   9.100   1.473  0.3184  0.0188  0.6226
  335MOL0     C44151   7.651   9.176   1.606  1.3373  0.0336  0.3208
  335MOL0     C44152   7.668   9.246   1.699 -0.5962 -0.2553 -0.6045
  335MOL0     C44153   7.420   9.151   0.789 -0.0563 -0.6400 -1.2557
  335MOL0     C44154   7.371   9.211   0.674  1.4599  0.2274  0.2509
  335MOL0     H44155   6.992   9.407   0.366 -2.2262  1.3290  0.7455
  335MOL0     H44156   6.916   9.520   0.182  0.2630 -0.6288  0.1329
  335MOL0     H44157   7.133   9.841   0.044  1.0989  2.5171  0.3470
  335MOL0     H44158   7.049   9.965   0.131 -2.8574  1.1859 -0.2894
  335MOL0     H44159   7.058  10.015  -0.117  2.6139 -2.5598 -0.3765
  335MOL0     H44160   6.886   9.985  -0.074  0.4979  2.2818 -1.9591
  335MOL0     H44161   6.932   9.739  -0.135 -0.1272  1.0252  0.3453
  335MOL0     H44162   7.081   9.807  -0.215  1.6640  3.3401  0.9748
  335MOL0     H44163   6.866   9.763  -0.347  2.5397 -0.7663 -0.1459
  335MOL0     H44164   6.813   9.922  -0.267  0.1795 -0.6679  0.8006
  335MOL0     H44165   7.024   9.888  -0.482  2.1065  1.0811  0.6849
  335MOL0     H44166   7.006  10.033  -0.376 -0.3010 -0.5461  1.1569
  335MOL0     H44167   6.768  10.017  -0.469  0.1528  1.4424 -2.2783
  335MOL0     H44168   6.828   9.880  -0.557 -0.0532  0.5574 -0.6468
  335MOL0     H44169   6.994  10.042  -0.667  0.3942  0.2283  2.5558
  335MOL0     H44170   6.830  10.067  -0.709  0.6727  0.8022 -0.2649
  335MOL0     H44171   7.006  10.214  -0.513  0.2450  0.0794 -0.2891
  335MOL0     H44172   6.828  10.243  -0.506  0.7224  2.2924  1.5276
  335MOL0     H44173   6.747  10.435  -0.643 -0.5895  0.0930 -0.5931
  335MOL0     H44174   6.729  10.635  -0.821 -0.0403 -4.3735  2.1522
  335MOL0     H44175   6.889  10.661  -0.914 -2.9190  2.4279 -0.3244
  335MOL0     H44176   6.972  10.757  -0.678 -0.6746 -0.8724  2.2141
  335MOL0     H44177   6.801  10.765  -0.642  0.7938  4.0071  0.1008
  335MOL0     H44178   6.881  10.979  -0.728  0.1058 -0.4211  1.4151
  335MOL0     H44179   6.916  10.897  -0.886 -2.5790 -1.5808 -1.7713
  335MOL0     H44180   6.671  10.853  -0.924 -2.3747  1.3115  1.0567
  335MOL0     H44181   6.727  11.021  -0.915  2.2907 -0.1018 -2.1372
  335MOL0     H44182   6.516  10.888  -0.509 -5.8893  3.4680  4.4596
  335MOL0     H44183   6.287  10.857  -0.479 -0.2498  0.3140 -0.1365
  335MOL0     H44184   5.992  10.639  -0.346  0.5957 -2.3221  0.2431
  335MOL0     H44185   5.768  10.547  -0.276 -3.4974  1.6800  0.7925
  335MOL0     H44186   5.522  10.639  -0.206 -0.6144 -0.9301  0.8374
  335MOL0     H44187   5.542  10.460  -0.250 -2.2986 -2.2229 -1.2828
  335MOL0     H44188   5.300  10.626  -0.310 -1.2692 -0.3695  1.6941
  335MOL0     H44189   5.331  10.525  -0.152  0.9856  0.6421  0.1406
  335MOL0     H44190   5.334  10.340  -0.281  2.3418  0.3926 -1.2754
  335MOL0     H44191   5.291  10.400  -0.438 -4.2868  1.8671 -0.4668
  335MOL0     H44192   5.112  10.427  -0.210  1.8572  0.7999 -0.2771
  335MOL0     H44193   5.085  10.511  -0.368  1.3103 -0.8886 -3.0130
  335MOL0     H44194   5.126  10.209  -0.338  2.4979  0.9602 -3.7163
  335MOL0     H44195   5.089  10.281  -0.483 -0.2452 -0.5429 -0.9328
  335MOL0     H44196   4.860  10.362  -0.387  0.4957  0.6644 -0.2632
  335MOL0     H44197   4.912  10.295  -0.229  0.3253 -0.9892 -0.2589
  335MOL0     H44198   4.848  10.150  -0.501  0.6858  1.2346 -0.4787
  335MOL0     H44199   4.927  10.064  -0.366 -1.3706 -0.8634 -0.6349
  335MOL0     H44200   4.748  10.148  -0.210  0.4854  0.3948  0.8701
  335MOL0     H44201   4.692  10.029  -0.324  2.5553 -0.8590  0.4898
  335MOL0     H44202   5.578  10.773  -0.594 -1.5494 -2.5569  0.7779
  335MOL0     H44203   5.802  10.842  -0.667 -1.3151  1.5849  0.7677
  335MOL0     H44204   6.213  10.820  -0.890  0.0642 -1.0618 -0.1928
  335MOL0     H44205   6.461  10.876  -0.931 -1.6368  3.0605 -1.6720
  335MOL0     H44206   7.135   9.871   0.307  0.7554 -1.2720 -0.0480
  335MOL0     H44207   7.191   9.761   0.512  0.0013 -0.7096  0.5974
  335MOL0     H44208   7.210   9.468   0.819  0.0891  0.4697  0.0168
  335MOL0     H44209   7.275   9.350   1.022 -0.4734 -0.8497  0.1175
  335MOL0     H44210   7.302   9.175   1.166 -0.1203 -1.7409  1.2606
  335MOL0     H44211   7.465   9.263   1.166  1.1008 -0.4594  4.7607
  335MOL0     H44212   7.426   8.990   1.291 -1.4952  0.3859 -0.5257
  335MOL0     H44213   7.577   9.060   1.217  0.2036 -0.7055  1.2416
  335MOL0     H44214   7.432   9.155   1.469  0.4795 -0.9306  0.7065
  335MOL0     H44215   7.542   9.264   1.375  0.9599  0.5547  2.5647
  335MOL0     H44216   7.608   8.992   1.481  1.8346 -0.2056  1.1552
  335MOL0     H44217   7.719   9.118   1.421  0.8321  2.2452  2.1683
  335MOL0     H44218   7.691   9.313   1.779  0.9602 -1.9747  0.4688
  335MOL0     H44219   7.473   9.060   0.766 -1.3766 -1.2267 -2.0599
  335MOL0     H44220   7.398   9.169   0.577  0.6268 -0.8087  0.4482
  336MOL0     O44221   1.426   2.137   4.580 -0.5161 -0.2466  1.6285
  336MOL0     C44222   1.502   2.086   4.667  0.9385 -0.5819  0.4014
  336MOL0     O44223   1.490   2.111   4.804  0.3585  0.3238 -0.2157
  336MOL0     C44224   1.391   2.189   4.864 -0.5995  0.9334  0.2300
  336MOL0     C44225   1.313   2.125   4.958  0.2690 -0.4153 -0.2724
  336MOL0     C44226   1.226   2.202   5.036 -0.5608  0.0083 -0.5463
  336MOL0     C44227   1.214   2.336   5.011 -0.1929 -0.2149 -0.0772
  336MOL0     O44228   1.138   2.420   5.084  0.2746  0.3804 -0.3561
  336MOL0     C44229   1.102   2.383   5.228 -0.2671  0.3712  0.2272
  336MOL0     C44230   1.220   2.376   5.324  0.0429 -0.6527 -0.3984
  336MOL0     C44231   1.179   2.305   5.455  0.5408  0.9521  0.0047
  336MOL0     C44232   1.177   2.148   5.433  0.5295 -0.2428  0.6377
  336MOL0     C44233   1.142   2.081   5.567 -0.4540  0.0480 -0.3125
  336MOL0     C44234   1.140   1.922   5.556  0.0066 -0.2696  0.7133
  336MOL0     C44235   1.149   1.849   5.688 -0.5450  0.6796 -1.3252
  336MOL0     C44236   1.119   1.695   5.678  0.4533 -0.3407 -0.4271
  336MOL0     N44237   1.214   1.616   5.596  0.7492  0.0401  0.0756
  336MOL0     C44238   1.345   1.623   5.617 -0.2765  0.0191  0.2007
  336MOL0     C44239   1.395   1.497   5.572  0.7445 -0.0784  0.0312
  336MOL0     C44240   1.530   1.438   5.559  0.2117 -0.0479 -0.1080
  336MOL0     C44241   1.637   1.535   5.609  0.5833 -0.0487 -0.7293
  336MOL0     C44242   1.773   1.475   5.640 -0.5188 -0.1026 -0.1222
  336MOL0     C44243   1.862   1.444   5.503 -0.3854  0.6569  0.1490
  336MOL0     O44244   1.827   1.317   5.443 -0.0157 -0.7886 -0.2438
  336MOL0     C44245   1.853   1.299   5.311 -0.3717 -0.2441 -0.5517
  336MOL0     C44246   1.803   1.179   5.265 -0.7180 -0.7768 -1.5600
  336MOL0     C44247   1.844   1.128   5.142  0.0220 -0.7124  0.2726
  336MOL0     C44248   1.929   1.206   5.051 -0.0258  0.6121 -0.0395
  336MOL0     C44249   1.950   1.173   4.912 -0.5011  0.7319  0.1533
  336MOL0     O44250   2.050   1.231   4.848 -0.5399 -0.1438  0.0445
  336MOL0     C44251   2.079   1.228   4.712  0.7401  1.1226  0.2351
  336MOL0     C44252   2.031   1.115   4.626  0.5268  0.6773 -0.0348
  336MOL0     C44253   2.062   1.116   4.495  0.6160 -0.4434  0.3567
  336MOL0     C44254   2.118   1.225   4.435 -0.9287  0.8602 -0.7515
  336MOL0     O44255   2.126   1.218   4.299 -0.5697  0.0272 -0.2000
  336MOL0     C44256   2.244   1.141   4.252  0.6869 -1.0819  0.7483
  336MOL0     C44257   2.218   1.135   4.096 -0.5442 -0.7520 -0.5319
  336MOL0     C44258   2.337   1.090   4.010 -0.3554 -0.1204 -0.6052
  336MOL0     C44259   2.313   1.055   3.864 -0.4708 -0.7593 -0.6595
  336MOL0     C44260   2.451   1.003   3.813  0.7532  0.3128  0.5294
  336MOL0     C44261   2.427   0.908   3.699  0.9819  0.4520 -0.9249
  336MOL0     C44262   2.360   0.957   3.578 -0.9570 -0.1225  0.3834
  336MOL0     C44263   2.347   0.857   3.463 -0.2127 -0.4903 -0.0481
  336MOL0    Cl44264   2.279   0.920   3.318 -0.0412 -0.5423 -0.0799
  336MOL0     C44265   2.158   1.333   4.500  0.4552  0.8778 -0.8262
  336MOL0     C44266   2.125   1.332   4.643 -0.9558  0.5076  0.2809
  336MOL0     O44267   1.887   1.082   4.870 -0.5122  0.2085  0.6746
  336MOL0     C44268   1.976   1.323   5.105 -0.4967  0.5206  0.2254
  336MOL0     C44269   1.936   1.376   5.235  0.2064 -0.4982 -0.7614
  336MOL0     N44270   1.290   1.433   5.523  0.6644 -0.0075 -0.6163
  336MOL0     N44271   1.185   1.506   5.525  0.1173  0.5111  0.9107
  336MOL0     C44272   1.289   2.397   4.914 -0.4366 -0.6707 -0.7445
  336MOL0     C44273   1.393   2.330   4.843 -0.3987  0.5041 -1.0745
  336MOL0     C44274   1.622   2.010   4.638 -0.3555 -0.0413  0.5852
  336MOL0     C44275   1.699   1.956   4.743 -0.1182 -0.2259  0.0152
  336MOL0     C44276   1.816   1.878   4.717  0.2100 -0.7539 -0.1457
  336MOL0     C44277   1.844   1.843   4.588  0.3586  0.0659 -0.0936
  336MOL0     O44278   1.942   1.760   4.547  0.5838  0.2565  0.5628
  336MOL0     C44279   2.052   1.826   4.473 -0.0825  1.2090 -0.5741
  336MOL0     C44280   2.090   1.746   4.353 -0.6026 -0.8420 -0.6522
  336MOL0     C44281   2.002   1.760   4.236 -0.1482 -0.6177 -0.3619
  336MOL0     C44282   2.032   1.682   4.105 -0.4972  0.0463 -0.1129
  336MOL0     C44283   2.142   1.741   4.024 -0.3515  0.0470 -0.8670
  336MOL0     C44284   2.230   1.794   3.959  0.9303 -0.5525  0.5577
  336MOL0     C44285   1.771   1.900   4.487  0.6405  0.1296  0.8668
  336MOL0     C44286   1.666   1.984   4.508 -0.8920 -0.1892 -0.6472
  336MOL0     H44287   1.320   2.018   4.977  1.0658 -1.1866 -4.1907
  336MOL0     H44288   1.163   2.156   5.112  2.6018 -1.4277  1.3881
  336MOL0     H44289   1.045   2.290   5.230 -3.0488  1.9010 -1.8252
  336MOL0     H44290   1.025   2.456   5.254  0.4900  0.8713  1.1932
  336MOL0     H44291   1.251   2.480   5.338  1.3574 -0.7980 -1.9514
  336MOL0     H44292   1.312   2.329   5.285 -0.1381 -2.5980  1.3093
  336MOL0     H44293   1.077   2.334   5.479 -0.4507 -3.5745  2.3188
  336MOL0     H44294   1.238   2.321   5.545 -0.2790 -1.6517  1.1111
  336MOL0     H44295   1.104   2.125   5.355  2.0950 -1.3728 -0.5832
  336MOL0     H44296   1.272   2.119   5.386  0.6125 -1.4485  1.5036
  336MOL0     H44297   1.039   2.107   5.593 -1.6853  0.2238 -4.6329
  336MOL0     H44298   1.218   2.116   5.638  1.6635 -1.3758 -1.7465
  336MOL0     H44299   1.220   1.885   5.490 -3.2187 -2.6223 -2.2248
  336MOL0     H44300   1.050   1.896   5.500  0.7739  0.4623 -0.9377
  336MOL0     H44301   1.247   1.862   5.734 -1.4826  1.6002  0.5240
  336MOL0     H44302   1.083   1.891   5.764  0.5701  0.6688 -0.3269
  336MOL0     H44303   1.014   1.689   5.648  0.3184 -0.2010  0.0072
  336MOL0     H44304   1.126   1.656   5.780 -0.5364  1.9455  0.5874
  336MOL0     H44305   1.411   1.692   5.669  4.0320 -0.7938 -3.5366
  336MOL0     H44306   1.550   1.408   5.456  1.4227  3.5929 -1.0512
  336MOL0     H44307   1.542   1.350   5.624  3.1651  0.8354  0.6805
  336MOL0     H44308   1.606   1.571   5.708 -2.3587 -0.4980 -1.4165
  336MOL0     H44309   1.651   1.607   5.528 -2.8624 -0.5742 -1.9428
  336MOL0     H44310   1.824   1.534   5.716 -1.8465 -0.3387  0.9998
  336MOL0     H44311   1.758   1.376   5.685  0.3971 -0.6658 -0.9979
  336MOL0     H44312   1.969   1.437   5.525 -0.8268 -1.0432  2.0356
  336MOL0     H44313   1.841   1.523   5.430 -2.0533 -0.4204 -0.6001
  336MOL0     H44314   1.741   1.117   5.329 -0.0680 -1.6967 -1.7940
  336MOL0     H44315   1.809   1.030   5.111 -0.0506 -0.4313 -0.5668
  336MOL0     H44316   1.973   1.033   4.667 -0.8777  1.4356 -0.4099
  336MOL0     H44317   2.030   1.036   4.429 -1.4248 -0.4742  1.2945
  336MOL0     H44318   2.250   1.047   4.307 -1.3952 -0.6122  1.8634
  336MOL0     H44319   2.336   1.196   4.275  0.2354  0.8136 -1.5390
  336MOL0     H44320   2.201   1.236   4.058 -1.3761 -0.8434 -0.4157
  336MOL0     H44321   2.129   1.077   4.070 -1.2759  0.1330 -0.0775
  336MOL0     H44322   2.375   0.998   4.056 -0.4563 -0.9489 -2.1118
  336MOL0     H44323   2.408   1.172   4.019 -0.8643  0.2400  0.2347
  336MOL0     H44324   2.238   0.976   3.857  1.4797 -2.5379 -3.3464
  336MOL0     H44325   2.268   1.136   3.806  0.1957 -0.8576 -1.3258
  336MOL0     H44326   2.496   0.947   3.896 -1.2219  1.1753  2.2961
  336MOL0     H44327   2.511   1.090   3.785 -2.6070  3.8424  3.1682
  336MOL0     H44328   2.373   0.824   3.744  1.4480  1.4348  1.5991
  336MOL0     H44329   2.526   0.868   3.676  0.1928 -2.6234  0.4978
  336MOL0     H44330   2.261   0.996   3.605 -1.4237  0.8885 -2.4214
  336MOL0     H44331   2.418   1.041   3.537  0.6637 -2.7424 -3.3045
  336MOL0     H44332   2.273   0.783   3.494 -0.0552 -0.9413 -0.7137
  336MOL0     H44333   2.444   0.812   3.439  1.0305  3.2357 -3.2621
  336MOL0     H44334   2.190   1.421   4.445 -0.5762  1.2184 -0.9011
  336MOL0     H44335   2.142   1.419   4.707  0.4417  1.1053 -0.8566
  336MOL0     H44336   2.039   1.381   5.039 -0.8316  1.1255  0.4304
  336MOL0     H44337   1.970   1.471   5.277 -2.3522 -0.9269  2.7591
  336MOL0     H44338   1.285   2.503   4.891  0.8479 -0.8389 -1.8920
  336MOL0     H44339   1.461   2.387   4.781 -2.5717  5.6425  0.7432
  336MOL0     H44340   1.675   1.977   4.847 -1.9225 -1.9537  0.0191
  336MOL0     H44341   1.885   1.837   4.789  1.4433  0.1747 -0.7660
  336MOL0     H44342   2.139   1.834   4.540 -0.2575  2.5554 -0.4667
  336MOL0     H44343   2.021   1.928   4.448 -1.9697  0.3455 -1.9504
  336MOL0     H44344   2.184   1.781   4.311 -0.8820  0.5439 -0.1607
  336MOL0     H44345   2.097   1.641   4.385 -1.1635 -0.3696  1.1446
  336MOL0     H44346   1.986   1.868   4.224  2.5680 -0.1282 -0.3847
  336MOL0     H44347   1.910   1.709   4.264  0.2752 -2.1859 -1.6839
  336MOL0     H44348   2.063   1.578   4.117  0.2195  0.3325  0.6528
  336MOL0     H44349   1.942   1.691   4.044 -1.8210  2.3176  1.9848
  336MOL0     H44350   2.299   1.833   3.887  0.0914 -2.5850 -1.4699
  336MOL0     H44351   1.792   1.888   4.381 -3.1169  3.0357 -0.4083
  336MOL0     H44352   1.617   2.039   4.428  2.6554 -0.3466 -3.1874
  337MOL0     O44353   5.068   3.895   0.227  0.6692  0.8196  0.8457
  337MOL0     C44354   4.973   3.878   0.145  0.6519 -0.0478 -0.1880
  337MOL0     O44355   4.964   3.770   0.072  0.5727 -0.2839 -0.8635
  337MOL0     C44356   5.058   3.678   0.070  0.8658 -0.5526  0.5047
  337MOL0     C44357   5.122   3.621   0.181 -0.1288  0.3148 -0.5998
  337MOL0     C44358   5.244   3.553   0.168 -0.3009  0.3808 -0.6830
  337MOL0     C44359   5.314   3.549   0.047  0.1987 -0.1531  1.4559
  337MOL0     O44360   5.443   3.501   0.039  0.4267 -0.1972 -0.5887
  337MOL0     C44361   5.529   3.545  -0.068 -0.0834  0.5833 -0.1687
  337MOL0     C44362   5.674   3.511  -0.041 -0.6638 -0.1484  0.5752
  337MOL0     C44363   5.764   3.536  -0.160 -0.6038  0.5937  0.4080
  337MOL0     C44364   5.909   3.488  -0.133  0.2334 -0.0121  0.6105
  337MOL0     C44365   6.007   3.536  -0.235 -0.2081  0.6656 -1.1595
  337MOL0     C44366   6.132   3.446  -0.210  0.4518  0.7943  0.7653
  337MOL0     C44367   6.255   3.523  -0.256  0.4262  0.6284  0.5485
  337MOL0     C44368   6.380   3.486  -0.183 -0.2593  0.0795 -1.1556
  337MOL0     N44369   6.387   3.522  -0.038 -0.8177 -0.0641 -0.3736
  337MOL0     C44370   6.408   3.645   0.004  0.3094  0.1948 -0.8041
  337MOL0     C44371   6.433   3.640   0.136  0.3154 -0.6038 -0.0017
  337MOL0     C44372   6.474   3.748   0.235  0.4381 -1.7269  0.6056
  337MOL0     C44373   6.578   3.734   0.343  0.2575 -0.5446  0.0183
  337MOL0     C44374   6.531   3.640   0.445  1.1295 -0.6924 -0.1322
  337MOL0     C44375   6.659   3.602   0.515  0.0951  0.0246 -0.0202
  337MOL0     O44376   6.629   3.515   0.629  0.3474 -0.2219 -0.0189
  337MOL0     C44377   6.630   3.376   0.624 -0.3883 -0.9232  0.1933
  337MOL0     C44378   6.649   3.299   0.514  0.8184  0.2575 -0.1583
  337MOL0     C44379   6.647   3.160   0.516 -0.1220 -0.4722 -0.7736
  337MOL0     C44380   6.626   3.095   0.633  0.1692  1.4576 -0.6365
  337MOL0     C44381   6.609   2.948   0.639  0.2502  0.3398  0.5437
  337MOL0     O44382   6.564   2.883   0.750  0.1814 -0.4056 -0.8038
  337MOL0     C44383   6.530   2.757   0.735 -0.1176  0.2172 -0.9152
  337MOL0     C44384   6.614   2.653   0.770  0.6360 -0.9245  0.3943
  337MOL0     C44385   6.570   2.519   0.755  0.3338  0.2945 -0.0255
  337MOL0     C44386   6.436   2.497   0.731  0.9679  0.6561 -0.0402
  337MOL0     O44387   6.376   2.367   0.726 -0.0524 -0.0965  0.2696
  337MOL0     C44388   6.454   2.274   0.791 -0.3629  0.1238 -0.1574
  337MOL0     C44389   6.391   2.140   0.770  0.2258  0.4316 -0.1444
  337MOL0     C44390   6.460   2.049   0.663 -0.6613  0.1674  0.0983
  337MOL0     C44391   6.413   2.105   0.519 -0.5248 -0.3490 -0.3165
  337MOL0     C44392   6.474   2.014   0.416 -0.7564 -0.4110 -0.3822
  337MOL0     C44393   6.445   2.077   0.273  0.3335 -1.0769  0.6289
  337MOL0     C44394   6.505   1.992   0.158 -0.2058 -0.1797 -0.2074
  337MOL0     C44395   6.644   2.044   0.125 -0.3881  0.3662 -0.4024
  337MOL0    Cl44396   6.741   1.939   0.028  0.1860 -0.0661  0.0121
  337MOL0     C44397   6.351   2.602   0.699  0.0542  0.3736 -1.2565
  337MOL0     C44398   6.400   2.732   0.687  0.9493 -0.0753 -0.8579
  337MOL0     O44399   6.622   2.886   0.527 -0.0039 -0.1008 -0.3483
  337MOL0     C44400   6.623   3.170   0.750 -0.0623 -0.7000 -0.1291
  337MOL0     C44401   6.622   3.311   0.749 -1.4499  1.3501 -0.2864
  337MOL0     N44402   6.417   3.502   0.167  0.6646 -0.5012 -0.3504
  337MOL0     N44403   6.392   3.439   0.062 -0.0118 -0.5668 -0.2773
  337MOL0     C44404   5.242   3.594  -0.065  0.2284 -0.4573  0.1856
  337MOL0     C44405   5.119   3.658  -0.049  0.7896  0.2712 -0.0514
  337MOL0     C44406   4.880   3.999   0.136  0.3628  0.0117  0.1495
  337MOL0     C44407   4.892   4.120   0.214 -0.4459 -0.1760  0.1725
  337MOL0     C44408   4.803   4.223   0.189  0.4331  0.5457 -0.7229
  337MOL0     C44409   4.693   4.208   0.092  0.5858  1.4676 -0.5536
  337MOL0     O44410   4.606   4.306   0.079  0.7094 -0.5586  0.5868
  337MOL0     C44411   4.564   4.407   0.178  0.0068  0.3403 -0.0580
  337MOL0     C44412   4.502   4.349   0.302 -0.1186 -0.0590 -0.4019
  337MOL0     C44413   4.375   4.264   0.284 -1.0162  0.3866  0.5876
  337MOL0     C44414   4.268   4.316   0.200 -0.6698 -0.1855  0.1580
  337MOL0     C44415   4.226   4.445   0.250 -0.0619 -0.1293  0.0631
  337MOL0     C44416   4.229   4.562   0.275  0.8836 -0.0134  0.5809
  337MOL0     C44417   4.670   4.093   0.029  0.1518  0.4298 -0.7488
  337MOL0     C44418   4.762   3.996   0.046 -0.0113  0.6724 -1.0842
  337MOL0     H44419   5.073   3.641   0.276  1.5522  0.8272  0.1996
  337MOL0     H44420   5.295   3.511   0.254  2.0776 -0.7770 -2.5368
  337MOL0     H44421   5.526   3.653  -0.079  0.2522  0.8495  2.0472
  337MOL0     H44422   5.496   3.498  -0.162 -0.3999 -0.9619  0.6746
  337MOL0     H44423   5.680   3.407  -0.008  3.9128  0.6103  3.0212
  337MOL0     H44424   5.713   3.574   0.039  0.8223 -0.3814  0.0625
  337MOL0     H44425   5.759   3.638  -0.200 -0.0818  1.3028  2.0378
  337MOL0     H44426   5.736   3.464  -0.237  0.9054 -2.6563  2.6405
  337MOL0     H44427   5.942   3.522  -0.035  0.5820 -1.1985  0.9247
  337MOL0     H44428   5.899   3.379  -0.127  1.3403 -0.3088 -1.5803
  337MOL0     H44429   6.016   3.642  -0.210 -1.4208  0.9946 -2.0278
  337MOL0     H44430   5.965   3.524  -0.335 -2.7364  1.8793 -0.3278
  337MOL0     H44431   6.122   3.355  -0.270  0.7438  2.3583 -1.8279
  337MOL0     H44432   6.152   3.419  -0.106  1.3668 -1.1511  0.1302
  337MOL0     H44433   6.258   3.506  -0.364  3.6424  1.6021  0.3541
  337MOL0     H44434   6.241   3.631  -0.245 -0.9634  0.6405 -0.9555
  337MOL0     H44435   6.466   3.546  -0.216  1.4948 -0.7746  1.5112
  337MOL0     H44436   6.407   3.380  -0.188 -2.3227 -0.6746  1.5712
  337MOL0     H44437   6.407   3.731  -0.062 -0.4290 -2.6582 -4.9002
  337MOL0     H44438   6.378   3.773   0.279  0.3620 -0.0945 -0.4042
  337MOL0     H44439   6.492   3.841   0.181 -2.2800  0.9950  3.9790
  337MOL0     H44440   6.599   3.832   0.386 -0.2598 -0.6880  0.6078
  337MOL0     H44441   6.668   3.699   0.292  0.3008  1.3467 -1.2907
  337MOL0     H44442   6.472   3.693   0.521  2.3889  0.6467 -0.0391
  337MOL0     H44443   6.487   3.546   0.412  0.2233 -0.0023 -0.9529
  337MOL0     H44444   6.700   3.692   0.562  0.7398 -1.2269  1.9084
  337MOL0     H44445   6.735   3.556   0.451  2.8380  3.9899  0.0437
  337MOL0     H44446   6.646   3.357   0.422 -2.2277 -0.6406 -0.7345
  337MOL0     H44447   6.653   3.101   0.425  0.1368  1.1900 -1.8745
  337MOL0     H44448   6.718   2.673   0.791  1.1406 -2.5435 -0.3842
  337MOL0     H44449   6.642   2.438   0.757  0.8234  0.5948 -2.6994
  337MOL0     H44450   6.444   2.297   0.897  0.7975 -0.0158 -0.0040
  337MOL0     H44451   6.562   2.267   0.779  0.0814  0.6548  2.7761
  337MOL0     H44452   6.285   2.146   0.744  0.9697  2.9176 -3.2142
  337MOL0     H44453   6.401   2.096   0.870  1.1211  0.2101 -0.3213
  337MOL0     H44454   6.427   1.945   0.672  0.3216 -0.8774 -5.1708
  337MOL0     H44455   6.569   2.051   0.672 -0.7625  1.7782  1.4695
  337MOL0     H44456   6.304   2.105   0.509 -0.8375  1.6723  2.0720
  337MOL0     H44457   6.434   2.212   0.513 -0.7945 -0.2039  1.0431
  337MOL0     H44458   6.434   1.912   0.414 -0.0261 -0.7220 -2.5355
  337MOL0     H44459   6.579   1.999   0.443  0.2451  0.0032 -3.6243
  337MOL0     H44460   6.488   2.178   0.262 -1.0355 -0.6064 -0.7659
  337MOL0     H44461   6.338   2.091   0.261 -0.0091 -2.1060  2.2364
  337MOL0     H44462   6.511   1.888   0.191 -1.1746 -0.5736 -1.2388
  337MOL0     H44463   6.447   1.985   0.065  0.6432 -1.8972 -0.6603
  337MOL0     H44464   6.701   2.066   0.216 -1.4843 -1.3775  0.7714
  337MOL0     H44465   6.630   2.142   0.078  1.0881  0.1896 -1.2783
  337MOL0     H44466   6.250   2.569   0.675 -0.5514  1.7059 -0.6632
  337MOL0     H44467   6.339   2.809   0.641 -0.8074  0.8417  2.6252
  337MOL0     H44468   6.618   3.123   0.848  2.0260  2.4871  1.7093
  337MOL0     H44469   6.612   3.354   0.849 -1.9492 -0.4150  0.4509
  337MOL0     H44470   5.285   3.584  -0.164  3.3631 -1.0073  1.4756
  337MOL0     H44471   5.064   3.697  -0.134  0.1526 -0.1231  0.1626
  337MOL0     H44472   4.966   4.127   0.293 -0.6155 -0.1034  0.3251
  337MOL0     H44473   4.809   4.318   0.241 -1.8679 -0.0176  0.7201
  337MOL0     H44474   4.502   4.479   0.123  1.2179 -0.1477 -2.1988
  337MOL0     H44475   4.648   4.467   0.216  1.7256 -1.9513 -0.0083
  337MOL0     H44476   4.581   4.291   0.351  2.2928  1.7960 -1.8560
  337MOL0     H44477   4.476   4.439   0.359 -2.1782 -0.2055 -1.0218
  337MOL0     H44478   4.349   4.216   0.379 -0.9762 -2.9653 -0.9325
  337MOL0     H44479   4.424   4.186   0.224 -0.8978 -0.4990  1.7965
  337MOL0     H44480   4.306   4.316   0.098  1.6291 -1.9300  0.9272
  337MOL0     H44481   4.189   4.242   0.211  1.2533 -2.4371 -0.3590
  337MOL0     H44482   4.217   4.660   0.315  1.1135 -0.2145  1.1592
  337MOL0     H44483   4.577   4.073  -0.022 -1.4994 -3.1188  3.1571
  337MOL0     H44484   4.737   3.897   0.008  1.4239 -1.0415  2.0907
  338MOL0     O44485   1.918   3.065   1.984 -0.1486 -0.2751 -0.1413
  338MOL0     C44486   2.008   3.108   2.058  0.0072  0.7745 -0.7119
  338MOL0     O44487   1.985   3.194   2.157  0.5342 -0.9543  0.4579
  338MOL0     C44488   1.864   3.251   2.184  0.4438 -0.6682 -0.0959
  338MOL0     C44489   1.825   3.256   2.313  0.5198  0.4040 -0.1969
  338MOL0     C44490   1.714   3.335   2.345  0.1276  0.1518 -0.9835
  338MOL0     C44491   1.634   3.395   2.244  0.4343 -0.4163 -0.0531
  338MOL0     O44492   1.523   3.470   2.281  0.3325 -0.1623 -0.5713
  338MOL0     C44493   1.552   3.608   2.303  0.2978 -0.1735  0.2785
  338MOL0     C44494   1.423   3.694   2.335  0.1136  0.1818 -0.0468
  338MOL0     C44495   1.311   3.656   2.241  0.0399 -1.3520  0.1321
  338MOL0     C44496   1.195   3.765   2.244 -0.7589 -0.4106 -0.1838
  338MOL0     C44497   1.094   3.750   2.120  0.1425 -0.6635  0.0463
  338MOL0     C44498   1.045   3.884   2.062  0.9420  0.1132  0.1871
  338MOL0     C44499   0.969   3.973   2.168  0.3947  0.6802  0.7863
  338MOL0     C44500   0.915   4.099   2.090 -0.3611 -0.0896  1.4809
  338MOL0     N44501   0.778   4.114   2.141  0.7966  1.0739  0.3518
  338MOL0     C44502   0.740   4.170   2.263  0.6521  0.2823  0.8249
  338MOL0     C44503   0.612   4.180   2.248  0.6338 -0.1501  0.4749
  338MOL0     C44504   0.529   4.256   2.358 -0.3254 -0.5166  0.2296
  338MOL0     C44505   0.399   4.176   2.387 -0.0565 -0.3458  0.6385
  338MOL0     C44506   0.312   4.253   2.490 -1.0077  0.1558 -0.2034
  338MOL0     C44507   0.185   4.172   2.507 -0.1990 -0.1285  0.8095
  338MOL0     O44508   0.110   4.267   2.581 -0.2762 -0.3480 -0.7375
  338MOL0     C44509  -0.025   4.256   2.595  0.3855 -0.6303  0.4992
  338MOL0     C44510  -0.097   4.378   2.618  0.6402 -0.6478 -0.1996
  338MOL0     C44511  -0.241   4.373   2.618 -0.1031  0.9036  0.8363
  338MOL0     C44512  -0.312   4.260   2.591 -0.1083  0.5249 -0.0627
  338MOL0     C44513  -0.458   4.263   2.583 -0.1715 -0.3302 -0.3299
  338MOL0     O44514  -0.528   4.377   2.625 -0.4259  0.3797  0.0580
  338MOL0     C44515  -0.663   4.391   2.609  0.1419  0.4337  0.5504
  338MOL0     C44516  -0.759   4.321   2.528 -0.8967  0.2783  0.9653
  338MOL0     C44517  -0.895   4.357   2.518 -0.0598  0.0005 -0.4392
  338MOL0     C44518  -0.945   4.455   2.596  0.5086 -0.4070  0.0496
  338MOL0     O44519  -1.077   4.486   2.577  0.4981  0.1408  0.7337
  338MOL0     C44520  -1.171   4.562   2.669 -0.8124 -0.3086  0.0880
  338MOL0     C44521  -1.294   4.591   2.582 -0.6379  0.3071  0.9648
  338MOL0     C44522  -1.353   4.464   2.516  0.9244  0.9154  0.2527
  338MOL0     C44523  -1.495   4.493   2.453 -0.5162  0.3110  0.1026
  338MOL0     C44524  -1.571   4.365   2.397 -0.5781 -0.0645  0.5642
  338MOL0     C44525  -1.639   4.297   2.520  0.3602 -0.2715  0.6462
  338MOL0     C44526  -1.708   4.168   2.487 -0.1488  0.1207 -0.1764
  338MOL0     C44527  -1.777   4.119   2.608  0.0019  0.0674 -1.0357
  338MOL0    Cl44528  -1.667   4.042   2.731 -0.0461 -0.2988  0.2662
  338MOL0     C44529  -0.856   4.531   2.674 -0.4285  0.4130 -0.0449
  338MOL0     C44530  -0.719   4.500   2.678 -0.4473 -0.5173  1.2669
  338MOL0     O44531  -0.513   4.164   2.536  1.0042  0.7107  0.3024
  338MOL0     C44532  -0.236   4.140   2.565  0.3697 -0.2605  0.8563
  338MOL0     C44533  -0.100   4.136   2.572 -0.2833  0.0744  0.0607
  338MOL0     N44534   0.571   4.150   2.124  0.7454 -1.0029 -0.2685
  338MOL0     N44535   0.669   4.117   2.061  0.3186  0.2698  0.2160
  338MOL0     C44536   1.658   3.371   2.108 -0.4542  0.3910 -0.0936
  338MOL0     C44537   1.784   3.308   2.077 -0.0085 -0.0811 -0.3708
  338MOL0     C44538   2.139   3.052   2.044 -0.9574  0.3986 -0.1021
  338MOL0     C44539   2.167   2.967   1.936 -1.2306 -0.6751 -0.1012
  338MOL0     C44540   2.298   2.937   1.911 -0.9076 -0.2445 -0.3789
  338MOL0     C44541   2.399   2.981   1.992 -0.1184 -0.7435 -0.4457
  338MOL0     O44542   2.524   2.955   1.945 -0.2271 -0.0384  1.2920
  338MOL0     C44543   2.631   2.957   2.036  0.9720  0.0468 -0.4900
  338MOL0     C44544   2.708   3.084   2.048  0.2830 -0.0764  0.3796
  338MOL0     C44545   2.786   3.116   1.914  0.0446  0.4139 -0.4646
  338MOL0     C44546   2.912   3.200   1.928  0.3084  0.7220 -0.1989
  338MOL0     C44547   3.013   3.131   2.010 -0.0511 -0.6092  0.9559
  338MOL0     C44548   3.112   3.073   2.046  0.1386 -0.3358  0.8909
  338MOL0     C44549   2.370   3.044   2.114  0.0829  0.9857 -0.2901
  338MOL0     C44550   2.238   3.088   2.139  0.3541  0.5658  0.5882
  338MOL0     H44551   1.870   3.204   2.397  2.1700  2.6862  0.4100
  338MOL0     H44552   1.677   3.339   2.447 -1.9593 -1.5448 -1.6121
  338MOL0     H44553   1.595   3.638   2.207  1.1086  0.8329  0.9287
  338MOL0     H44554   1.627   3.625   2.382  0.1414  0.5699  0.2717
  338MOL0     H44555   1.461   3.796   2.325 -1.5490  0.8356 -0.0113
  338MOL0     H44556   1.388   3.676   2.437  2.4135 -3.6750  0.2697
  338MOL0     H44557   1.271   3.557   2.267 -0.1602 -1.2126  0.3653
  338MOL0     H44558   1.358   3.654   2.142 -1.2828 -0.1649 -0.5584
  338MOL0     H44559   1.140   3.754   2.338  0.6766  0.0247  0.7434
  338MOL0     H44560   1.242   3.862   2.226  2.8266 -2.1532 -1.2474
  338MOL0     H44561   1.003   3.692   2.138 -0.8032  0.0053 -2.1931
  338MOL0     H44562   1.149   3.701   2.039  3.0863 -2.5124  2.9155
  338MOL0     H44563   0.968   3.871   1.985  0.5819  1.2432  0.3419
  338MOL0     H44564   1.132   3.939   2.023  0.3458  2.0252  1.4546
  338MOL0     H44565   0.889   3.918   2.217 -2.1134  3.7789  0.4932
  338MOL0     H44566   1.033   4.001   2.252  0.9288  3.2081 -0.3598
  338MOL0     H44567   0.922   4.082   1.983 -1.0639  0.0414  1.4053
  338MOL0     H44568   0.966   4.193   2.112  2.0333  0.2032 -3.9072
  338MOL0     H44569   0.805   4.195   2.346  1.0244 -1.1779  1.0019
  338MOL0     H44570   0.501   4.359   2.336 -0.9072 -0.6353  0.3849
  338MOL0     H44571   0.595   4.267   2.444  1.3862 -1.8346 -0.8288
  338MOL0     H44572   0.429   4.084   2.437 -1.3314 -1.0009  0.2655
  338MOL0     H44573   0.356   4.156   2.288  0.9262  1.6975 -0.2590
  338MOL0     H44574   0.367   4.280   2.580 -0.2724 -2.4663  0.2317
  338MOL0     H44575   0.282   4.346   2.441 -1.7241  0.2892  0.4627
  338MOL0     H44576   0.211   4.074   2.549  0.4577 -0.3234 -0.0231
  338MOL0     H44577   0.131   4.160   2.413  0.1887  2.4208  0.1925
  338MOL0     H44578  -0.044   4.472   2.624  0.5090 -0.6467  1.4006
  338MOL0     H44579  -0.291   4.465   2.649 -2.3974  0.4438 -1.1952
  338MOL0     H44580  -0.716   4.251   2.457  3.1458  1.7162  1.6968
  338MOL0     H44581  -0.963   4.310   2.447 -1.0524  2.0804 -0.9273
  338MOL0     H44582  -1.130   4.660   2.697  2.5739 -1.9227  1.4760
  338MOL0     H44583  -1.198   4.504   2.758 -0.3222 -1.5488 -0.5426
  338MOL0     H44584  -1.283   4.665   2.502  0.8268 -0.0977  0.7703
  338MOL0     H44585  -1.365   4.639   2.650 -1.8218  1.5270 -1.0073
  338MOL0     H44586  -1.371   4.384   2.588 -1.7397 -0.0223 -1.2843
  338MOL0     H44587  -1.288   4.434   2.433  3.0157  0.2284  2.0752
  338MOL0     H44588  -1.559   4.530   2.535  2.3602  2.6514  1.4788
  338MOL0     H44589  -1.479   4.566   2.373 -1.1927  0.5408  0.1658
  338MOL0     H44590  -1.486   4.322   2.343  0.0169  1.9253 -0.1757
  338MOL0     H44591  -1.652   4.400   2.333 -0.1597  3.3947  1.7423
  338MOL0     H44592  -1.705   4.370   2.566  1.8432  0.5020  1.6247
  338MOL0     H44593  -1.556   4.269   2.586  0.0426 -3.5303 -0.1491
  338MOL0     H44594  -1.790   4.193   2.419  0.5181 -0.8122 -1.3443
  338MOL0     H44595  -1.647   4.094   2.435 -1.7697 -0.0973 -1.8996
  338MOL0     H44596  -1.842   4.036   2.579  0.8057 -2.2474  3.0018
  338MOL0     H44597  -1.847   4.187   2.656 -1.0550  0.3774 -2.9075
  338MOL0     H44598  -0.889   4.619   2.728  3.0163  2.0348 -0.3765
  338MOL0     H44599  -0.650   4.565   2.732 -0.4321  0.2569  0.3333
  338MOL0     H44600  -0.295   4.053   2.539  0.0326 -0.9637  3.6671
  338MOL0     H44601  -0.051   4.042   2.552 -1.3460 -0.0274 -2.4412
  338MOL0     H44602   1.593   3.414   2.033 -0.4353  1.0424  0.2559
  338MOL0     H44603   1.812   3.294   1.973  0.7748 -1.4418  0.0019
  338MOL0     H44604   2.093   2.939   1.862 -2.6614  0.3142  0.8943
  338MOL0     H44605   2.323   2.886   1.818  0.5059 -0.7793  0.2696
  338MOL0     H44606   2.704   2.879   2.010  4.3573  3.1169 -1.0951
  338MOL0     H44607   2.589   2.928   2.133 -0.1425 -0.7348 -1.1817
  338MOL0     H44608   2.642   3.168   2.070 -0.4864 -0.7267  0.5620
  338MOL0     H44609   2.773   3.070   2.136  0.3419 -1.7278  0.1074
  338MOL0     H44610   2.709   3.174   1.862 -0.7112 -1.4905 -1.5399
  338MOL0     H44611   2.801   3.028   1.851  1.3347 -1.2524  2.0263
  338MOL0     H44612   2.962   3.197   1.830  0.7404 -5.6388 -0.2360
  338MOL0     H44613   2.881   3.298   1.966 -2.2628 -0.4224  0.9460
  338MOL0     H44614   3.197   3.015   2.076 -0.9525 -1.1757  2.5079
  338MOL0     H44615   2.432   3.082   2.194 -1.0504 -0.4564  1.3525
  338MOL0     H44616   2.234   3.154   2.225  0.6351 -0.1494  1.1662
  339MOL0     O44617   8.679   5.957   1.173  0.7719  0.5224 -0.4808
  339MOL0     C44618   8.661   6.078   1.175 -0.8565  0.4468 -0.0616
  339MOL0     O44619   8.619   6.160   1.075 -0.0721  0.6145 -0.0707
  339MOL0     C44620   8.577   6.108   0.967 -0.5494  0.8180  0.8647
  339MOL0     C44621   8.443   6.085   0.937 -1.1605 -0.0842  0.0763
  339MOL0     C44622   8.410   6.055   0.811  1.1206  0.6337  1.2039
  339MOL0     C44623   8.503   6.034   0.707 -0.4808  0.2381  0.4527
  339MOL0     O44624   8.454   6.016   0.579  0.6649  0.3097 -0.4278
  339MOL0     C44625   8.544   5.978   0.479 -0.3412  0.3517  0.1308
  339MOL0     C44626   8.464   5.988   0.348 -0.2563 -0.1541  0.8339
  339MOL0     C44627   8.534   5.904   0.234 -0.4789 -0.1808 -0.0178
  339MOL0     C44628   8.437   5.874   0.124  0.0835 -0.1462  0.3655
  339MOL0     C44629   8.328   5.770   0.151  0.2572 -0.0099  0.5348
  339MOL0     C44630   8.274   5.741   0.013 -0.6012  0.6834 -1.0593
  339MOL0     C44631   8.126   5.685   0.003 -0.6688 -0.2700 -0.0542
  339MOL0     C44632   8.129   5.540   0.041  0.2721  0.6628  0.5798
  339MOL0     N44633   8.012   5.458  -0.008  0.1317 -0.8504 -0.4262
  339MOL0     C44634   7.891   5.468   0.050  0.0363  0.9636  0.0418
  339MOL0     C44635   7.811   5.373  -0.016 -0.1138 -0.1436 -0.6593
  339MOL0     C44636   7.661   5.341  -0.017  0.0886 -0.4555 -1.2611
  339MOL0     C44637   7.596   5.406   0.111  0.9271  0.6818  0.6198
  339MOL0     C44638   7.440   5.407   0.086  1.0504 -0.2992 -0.2841
  339MOL0     C44639   7.361   5.498   0.179 -0.3324 -0.1698  0.8682
  339MOL0     O44640   7.411   5.481   0.317  0.5845  0.1589  0.2942
  339MOL0     C44641   7.320   5.536   0.406 -0.0062 -0.1530 -0.3152
  339MOL0     C44642   7.191   5.592   0.376 -0.4039 -0.1126 -0.6170
  339MOL0     C44643   7.115   5.641   0.478  0.1111  0.1658 -0.0567
  339MOL0     C44644   7.150   5.638   0.611  0.1004  0.1831 -0.1499
  339MOL0     C44645   7.066   5.697   0.704  0.7109 -0.6786  0.3536
  339MOL0     O44646   7.143   5.757   0.803 -0.4051 -0.7750  0.0800
  339MOL0     C44647   7.089   5.824   0.910  0.7000 -1.0115  0.0323
  339MOL0     C44648   6.976   5.788   0.985 -0.2110 -0.0028 -0.2465
  339MOL0     C44649   6.926   5.882   1.078 -0.4351 -0.6152  0.0128
  339MOL0     C44650   6.988   5.995   1.111 -0.4033 -0.2127 -0.4393
  339MOL0     O44651   6.936   6.073   1.210  0.2392  0.1097  0.0903
  339MOL0     C44652   7.001   6.202   1.244  0.7896  1.0627  0.0986
  339MOL0     C44653   6.903   6.267   1.333 -0.4223 -0.9556  1.7410
  339MOL0     C44654   6.773   6.313   1.267 -1.1942 -1.2179 -0.2000
  339MOL0     C44655   6.800   6.446   1.196 -0.4389  0.3507 -0.0149
  339MOL0     C44656   6.799   6.572   1.276 -0.1817 -0.5067 -0.0443
  339MOL0     C44657   6.937   6.645   1.292 -0.4118 -0.3163  0.1927
  339MOL0     C44658   6.937   6.754   1.393  0.1471  0.4132  0.2093
  339MOL0     C44659   7.050   6.857   1.363 -0.1708  0.3343 -0.5034
  339MOL0    Cl44660   7.028   6.989   1.473 -0.5186  0.1123  0.0530
  339MOL0     C44661   7.107   6.022   1.051  0.2392 -0.2795  0.6605
  339MOL0     C44662   7.155   5.944   0.946 -0.5167  0.6771 -0.3798
  339MOL0     O44663   6.942   5.705   0.700  0.2193 -0.0124  0.0893
  339MOL0     C44664   7.276   5.591   0.637 -2.1307 -0.1658  0.0458
  339MOL0     C44665   7.360   5.540   0.540  0.0758  1.2315 -0.2514
  339MOL0     N44666   7.891   5.312  -0.107 -1.0537  0.1132 -0.4807
  339MOL0     N44667   8.012   5.357  -0.098  0.3280  1.0501 -0.2546
  339MOL0     C44668   8.635   6.049   0.742  0.1175 -0.9841  0.5047
  339MOL0     C44669   8.675   6.084   0.870 -0.1211  0.2803  0.0800
  339MOL0     C44670   8.664   6.141   1.307  1.2793 -0.2618  0.5041
  339MOL0     C44671   8.607   6.267   1.315  0.2015 -0.1475 -0.3828
  339MOL0     C44672   8.602   6.339   1.434 -0.2139 -0.0110  0.7574
  339MOL0     C44673   8.655   6.277   1.552  0.2214  0.7958  0.8170
  339MOL0     O44674   8.661   6.361   1.659  0.5963  0.7473 -0.7813
  339MOL0     C44675   8.759   6.323   1.750  0.2460  0.6202 -0.4094
  339MOL0     C44676   8.784   6.434   1.860 -0.5301 -0.1039 -0.9081
  339MOL0     C44677   8.667   6.451   1.953 -0.3536 -0.0480  0.6763
  339MOL0     C44678   8.701   6.571   2.039  0.2854 -0.2740 -0.4710
  339MOL0     C44679   8.611   6.583   2.158 -0.3371 -1.4093  0.0627
  339MOL0     C44680   8.532   6.550   2.245  0.5295 -0.1213 -0.4560
  339MOL0     C44681   8.702   6.144   1.549  0.4953  1.0210 -0.0413
  339MOL0     C44682   8.708   6.079   1.426  0.0971  0.1235 -0.9062
  339MOL0     H44683   8.372   6.109   1.016 -2.5905 -2.4317 -0.4066
  339MOL0     H44684   8.305   6.058   0.783  1.9898  1.9570 -2.4181
  339MOL0     H44685   8.581   5.877   0.493 -1.7178 -0.3327 -0.8965
  339MOL0     H44686   8.630   6.044   0.468  1.7042 -2.5841 -4.4266
  339MOL0     H44687   8.448   6.088   0.307  0.3706 -0.9228 -1.4338
  339MOL0     H44688   8.362   5.953   0.368 -0.2567 -0.1915  0.7671
  339MOL0     H44689   8.569   5.809   0.276 -2.6048 -1.1210 -0.2627
  339MOL0     H44690   8.621   5.958   0.195 -0.6794 -0.1339 -0.4061
  339MOL0     H44691   8.399   5.970   0.089  0.5178 -0.6186 -1.5335
  339MOL0     H44692   8.504   5.838   0.045 -1.6395  2.1064 -2.3198
  339MOL0     H44693   8.250   5.810   0.218  0.6497  3.2926 -0.8430
  339MOL0     H44694   8.365   5.679   0.200  1.7538  1.2296  1.7723
  339MOL0     H44695   8.346   5.681  -0.043 -1.4314 -1.6336  0.2299
  339MOL0     H44696   8.259   5.839  -0.033 -3.9493  1.0202  0.4742
  339MOL0     H44697   8.073   5.748   0.075  2.4031  2.0288  0.4052
  339MOL0     H44698   8.092   5.711  -0.097  3.8111  2.5898 -1.0866
  339MOL0     H44699   8.150   5.528   0.148  1.5854 -0.0014  0.2617
  339MOL0     H44700   8.216   5.502  -0.013  1.7915  1.8042  2.1231
  339MOL0     H44701   7.859   5.553   0.109 -0.1376  4.4638 -4.5473
  339MOL0     H44702   7.639   5.234  -0.022  1.4417 -0.9298  1.1955
  339MOL0     H44703   7.620   5.393  -0.104 -3.0674  1.2427  1.0067
  339MOL0     H44704   7.630   5.509   0.129 -0.0469  1.1054  0.1279
  339MOL0     H44705   7.625   5.349   0.199  2.5470  0.5564  0.0266
  339MOL0     H44706   7.419   5.447  -0.014  1.7866 -0.0867 -0.3557
  339MOL0     H44707   7.412   5.302   0.093  5.2563 -1.4739  1.7160
  339MOL0     H44708   7.256   5.474   0.163 -1.1266  3.4398 -0.2096
  339MOL0     H44709   7.374   5.604   0.154  4.2996 -0.3290  1.6602
  339MOL0     H44710   7.144   5.588   0.278 -0.0699  2.2217 -0.9421
  339MOL0     H44711   7.014   5.671   0.452 -0.5795 -3.4754 -2.2828
  339MOL0     H44712   6.914   5.703   0.959 -0.1502  0.8783 -3.7770
  339MOL0     H44713   6.831   5.873   1.131 -0.7385 -2.9275 -0.7925
  339MOL0     H44714   7.013   6.268   1.158  1.6220  1.0933  0.2310
  339MOL0     H44715   7.098   6.185   1.293  1.3091  0.4980 -1.0996
  339MOL0     H44716   6.965   6.345   1.379  3.5573 -2.3507 -0.7358
  339MOL0     H44717   6.871   6.207   1.419  1.6100 -0.0511  3.2382
  339MOL0     H44718   6.696   6.318   1.345  0.2268 -0.2085  1.1898
  339MOL0     H44719   6.737   6.240   1.193 -0.3869 -1.4329 -0.3949
  339MOL0     H44720   6.896   6.431   1.146  0.2037  1.0792  0.9493
  339MOL0     H44721   6.727   6.461   1.117 -1.2567 -0.6415  0.5292
  339MOL0     H44722   6.769   6.554   1.380 -2.5012  0.7941 -0.4099
  339MOL0     H44723   6.727   6.647   1.243 -2.2052 -2.5723 -0.6214
  339MOL0     H44724   6.975   6.681   1.196 -1.7558 -2.1126 -1.0718
  339MOL0     H44725   7.014   6.583   1.338 -0.9113 -2.5967 -1.8768
  339MOL0     H44726   6.843   6.811   1.392 -0.1155 -0.0012  0.9401
  339MOL0     H44727   6.949   6.709   1.492  1.7769  0.0567 -0.1232
  339MOL0     H44728   7.057   6.884   1.257 -1.4950 -0.4780 -0.8274
  339MOL0     H44729   7.142   6.813   1.402  1.0333  3.2579  0.2378
  339MOL0     H44730   7.163   6.109   1.084  0.8550 -0.1381 -0.6834
  339MOL0     H44731   7.248   5.972   0.899 -1.0093  3.3623  0.0672
  339MOL0     H44732   7.316   5.592   0.737  1.2002 -0.5109 -1.1476
  339MOL0     H44733   7.462   5.504   0.553 -0.6175 -1.3637 -1.2575
  339MOL0     H44734   8.716   6.042   0.669 -0.0416 -0.5013  0.2765
  339MOL0     H44735   8.780   6.103   0.891  0.4302 -0.7671 -1.4913
  339MOL0     H44736   8.564   6.313   1.226  1.3919 -3.1834 -2.7550
  339MOL0     H44737   8.589   6.446   1.442 -0.7100 -0.0753  0.8695
  339MOL0     H44738   8.849   6.307   1.690  0.7996  1.6875  0.1083
  339MOL0     H44739   8.739   6.229   1.802 -1.2616  1.2721  0.2619
  339MOL0     H44740   8.860   6.395   1.928 -1.4903 -0.4605 -0.0177
  339MOL0     H44741   8.813   6.526   1.808  1.8061  0.2880  0.9072
  339MOL0     H44742   8.653   6.364   2.018  2.7367 -1.1052  0.1042
  339MOL0     H44743   8.573   6.465   1.899  0.5081  0.2282 -0.7745
  339MOL0     H44744   8.807   6.579   2.061  0.1995  2.3879 -0.6839
  339MOL0     H44745   8.679   6.648   1.964  1.5932  1.8688  1.2366
  339MOL0     H44746   8.454   6.523   2.313  0.6431  0.1332 -0.2214
  339MOL0     H44747   8.732   6.071   1.623 -1.3177  0.3243  0.0693
  339MOL0     H44748   8.744   5.977   1.430 -0.8485 -0.1887  2.6089
  340MOL0     O44749   0.023  10.714   0.884  0.5403 -0.2367 -0.6080
  340MOL0     C44750   0.147  10.712   0.884 -1.1731  0.3581 -0.5832
  340MOL0     O44751   0.226  10.643   0.978 -0.3478 -0.3550  0.2764
  340MOL0     C44752   0.181  10.525   1.047  0.1921  0.8491 -0.3788
  340MOL0     C44753   0.126  10.409   0.986  0.8363 -0.5960 -0.0710
  340MOL0     C44754   0.093  10.291   1.057 -0.1711 -1.0310  0.2387
  340MOL0     C44755   0.119  10.291   1.201  0.2383 -1.0369 -0.2264
  340MOL0     O44756   0.057  10.200   1.289  0.4353 -0.2335 -0.1580
  340MOL0     C44757  -0.005  10.080   1.234  0.6089  0.1344  0.7306
  340MOL0     C44758  -0.038   9.967   1.327 -0.7843 -0.3624  0.1945
  340MOL0     C44759  -0.145  10.009   1.420  0.8226  1.4098  0.1472
  340MOL0     C44760  -0.199   9.899   1.521  0.6266  1.0740 -0.1137
  340MOL0     C44761  -0.327   9.939   1.591  1.0590 -0.3498  0.0703
  340MOL0     C44762  -0.397   9.840   1.686  0.5137  0.2855  1.1140
  340MOL0     C44763  -0.312   9.809   1.805 -0.6358 -0.2297 -1.5478
  340MOL0     C44764  -0.319   9.670   1.856  0.4559 -0.6949  0.4650
  340MOL0     N44765  -0.441   9.640   1.940  0.2366 -0.5700 -0.2711
  340MOL0     C44766  -0.448   9.637   2.076 -0.7000 -0.1687 -0.1364
  340MOL0     C44767  -0.572   9.584   2.095  0.0985  0.1664 -1.2436
  340MOL0     C44768  -0.637   9.559   2.231 -0.1828  0.0492  0.1214
  340MOL0     C44769  -0.672   9.407   2.256 -0.1912 -0.3872  0.6273
  340MOL0     C44770  -0.674   9.369   2.404 -0.2176 -0.1528  0.3697
  340MOL0     C44771  -0.762   9.459   2.492 -0.3906  0.2453 -0.2918
  340MOL0     O44772  -0.897   9.461   2.452 -0.2231 -0.0681  0.6637
  340MOL0     C44773  -0.976   9.570   2.482 -0.7158  0.8839  0.3893
  340MOL0     C44774  -0.945   9.708   2.473 -0.4934  0.3268  0.3513
  340MOL0     C44775  -1.047   9.795   2.508  0.5122  0.3340  0.0630
  340MOL0     C44776  -1.176   9.761   2.546  0.5511  0.0630  0.4398
  340MOL0     C44777  -1.273   9.873   2.572 -0.9486  0.0494 -0.0860
  340MOL0     O44778  -1.256   9.995   2.520 -0.3609  0.1870 -0.0614
  340MOL0     C44779  -1.330  10.098   2.575  0.5369 -0.0509  0.0575
  340MOL0     C44780  -1.326  10.126   2.719 -0.2314 -1.5643 -0.4906
  340MOL0     C44781  -1.369  10.257   2.756  0.2973  1.3544 -0.0540
  340MOL0     C44782  -1.417  10.348   2.660 -0.4656 -0.7465 -0.2439
  340MOL0     O44783  -1.475  10.469   2.713  0.6762  0.5727 -0.7222
  340MOL0     C44784  -1.508  10.575   2.621  0.8895 -0.1773  0.6572
  340MOL0     C44785  -1.394  10.654   2.553  0.1883  0.1832 -0.0886
  340MOL0     C44786  -1.287  10.729   2.639 -0.3785 -0.0059  0.3555
  340MOL0     C44787  -1.181  10.803   2.548  0.0463  0.2842  0.1298
  340MOL0     C44788  -1.091  10.902   2.620 -0.0290 -0.0056  0.4710
  340MOL0     C44789  -0.963  10.923   2.550 -0.0297  0.8157  0.0650
  340MOL0     C44790  -0.940  11.073   2.519 -0.5226 -1.0630  0.8140
  340MOL0     C44791  -0.891  11.159   2.639 -0.0560  0.0707 -0.7533
  340MOL0    Cl44792  -0.717  11.120   2.652  0.7719  0.2072  0.2044
  340MOL0     C44793  -1.436  10.312   2.535 -0.1845  0.4809 -0.5697
  340MOL0     C44794  -1.390  10.188   2.486 -0.0699 -0.9800 -0.0506
  340MOL0     O44795  -1.375   9.825   2.621 -0.3315  0.1182 -0.0490
  340MOL0     C44796  -1.209   9.624   2.545  0.6408 -0.3306  0.9371
  340MOL0     C44797  -1.108   9.531   2.504  1.0113 -0.2480  1.2010
  340MOL0     N44798  -0.635   9.549   1.978 -0.4348 -0.3017  0.2052
  340MOL0     N44799  -0.545   9.573   1.890  0.1170  0.4953  0.7793
  340MOL0     C44800   0.164  10.405   1.267 -0.2640  0.4258  0.2301
  340MOL0     C44801   0.191  10.514   1.187 -0.0978  0.0891  0.4260
  340MOL0     C44802   0.211  10.810   0.791  0.9443  0.1286 -0.6207
  340MOL0     C44803   0.350  10.809   0.787 -0.2408 -0.5628 -0.2495
  340MOL0     C44804   0.414  10.904   0.702  0.6205  0.4888 -0.4068
  340MOL0     C44805   0.339  11.005   0.634  0.3968 -0.1943  0.1764
  340MOL0     O44806   0.399  11.091   0.545  0.4512 -0.2953 -0.2113
  340MOL0     C44807   0.327  11.179   0.452  0.3973  0.3902  0.3615
  340MOL0     C44808   0.416  11.209   0.331 -0.4726 -0.6598  0.7071
  340MOL0     C44809   0.348  11.298   0.228  0.7127 -0.5026 -0.2473
  340MOL0     C44810   0.449  11.372   0.142  0.0718  0.2511  0.3821
  340MOL0     C44811   0.399  11.409   0.009  0.1300  0.1868 -0.1598
  340MOL0     C44812   0.345  11.439  -0.097 -0.1599 -0.1447 -0.2119
  340MOL0     C44813   0.206  11.014   0.656  0.5166 -0.4045 -0.2699
  340MOL0     C44814   0.145  10.914   0.730  0.7737  0.3643 -0.2056
  340MOL0     H44815   0.094  10.432   0.885  0.0607  3.7634  0.9684
  340MOL0     H44816   0.036  10.210   1.012  1.4514 -1.3548 -1.2979
  340MOL0     H44817   0.062  10.041   1.158  1.6407  1.4010  0.9626
  340MOL0     H44818  -0.096  10.108   1.180 -0.4186  1.2431  2.8826
  340MOL0     H44819   0.052   9.940   1.382  0.4911 -2.2313 -2.5989
  340MOL0     H44820  -0.064   9.875   1.275  1.4819 -1.0880  0.2739
  340MOL0     H44821  -0.231  10.044   1.363  0.7619 -0.5593 -1.0634
  340MOL0     H44822  -0.114  10.094   1.482 -3.6254  1.6679  2.3988
  340MOL0     H44823  -0.218   9.811   1.459  0.5402  0.4582  0.7708
  340MOL0     H44824  -0.117   9.876   1.590 -1.1456  1.1303  2.0964
  340MOL0     H44825  -0.395   9.957   1.508  1.5860 -0.7498 -0.4572
  340MOL0     H44826  -0.310  10.031   1.649 -2.4464 -0.2202  1.1082
  340MOL0     H44827  -0.412   9.743   1.638  2.5134 -0.1795  1.3306
  340MOL0     H44828  -0.494   9.878   1.720 -0.2161 -1.4308  1.0701
  340MOL0     H44829  -0.205   9.813   1.784 -0.3751 -2.1322 -0.8072
  340MOL0     H44830  -0.332   9.872   1.892  1.0890 -0.3504 -1.0352
  340MOL0     H44831  -0.240   9.647   1.928 -1.0058 -1.4112  1.9112
  340MOL0     H44832  -0.303   9.598   1.775  0.0194  0.2160 -0.4528
  340MOL0     H44833  -0.371   9.653   2.151  2.4833 -0.2664 -3.1141
  340MOL0     H44834  -0.732   9.612   2.234  0.7864  2.2312 -3.0683
  340MOL0     H44835  -0.575   9.602   2.310 -2.8396  1.7802  1.4139
  340MOL0     H44836  -0.594   9.355   2.199 -0.3412  0.9604 -0.8882
  340MOL0     H44837  -0.771   9.383   2.215 -1.0673  3.6932 -0.1635
  340MOL0     H44838  -0.709   9.265   2.402 -0.4625 -0.0674 -0.6071
  340MOL0     H44839  -0.570   9.378   2.433 -0.0370 -1.3248  0.1431
  340MOL0     H44840  -0.712   9.556   2.496  0.4247 -0.1913  0.5389
  340MOL0     H44841  -0.758   9.417   2.593 -1.0198  3.8051  1.3482
  340MOL0     H44842  -0.847   9.738   2.437 -2.7461  3.5968 -4.0489
  340MOL0     H44843  -1.022   9.901   2.513 -2.2974  1.0208  1.3292
  340MOL0     H44844  -1.274  10.066   2.793  1.8198 -0.8507 -1.2528
  340MOL0     H44845  -1.356  10.293   2.857 -2.3349  0.8239  0.5513
  340MOL0     H44846  -1.553  10.653   2.683 -0.5460 -2.5383  2.7874
  340MOL0     H44847  -1.582  10.550   2.544  0.3420  0.5810  0.9244
  340MOL0     H44848  -1.447  10.713   2.478 -3.8237 -1.9713  0.7506
  340MOL0     H44849  -1.351  10.575   2.491  0.3497  1.8225 -2.1596
  340MOL0     H44850  -1.239  10.654   2.703 -0.5675 -2.1431 -1.8899
  340MOL0     H44851  -1.333  10.795   2.713  1.4402  1.2502  0.4516
  340MOL0     H44852  -1.129  10.726   2.491 -3.1993 -1.5017 -0.6792
  340MOL0     H44853  -1.231  10.865   2.473 -1.0288 -0.6165  0.0795
  340MOL0     H44854  -1.079  10.868   2.723  0.2423 -0.0573  0.4220
  340MOL0     H44855  -1.154  10.991   2.630 -1.8940 -1.4275  2.4253
  340MOL0     H44856  -0.969  10.866   2.457  0.3676 -0.8925  1.0359
  340MOL0     H44857  -0.882  10.883   2.613 -0.2760  0.9264  0.4545
  340MOL0     H44858  -0.867  11.080   2.437  2.3649 -2.7275  3.0714
  340MOL0     H44859  -1.032  11.120   2.483  0.0550 -1.4742 -1.4003
  340MOL0     H44860  -0.937  11.121   2.731  3.4598 -5.2255 -0.7260
  340MOL0     H44861  -0.911  11.266   2.629 -0.8339  0.0632  0.4643
  340MOL0     H44862  -1.482  10.381   2.464 -1.9496 -0.1107 -0.0553
  340MOL0     H44863  -1.400  10.182   2.378 -3.1963  1.1451 -0.0264
  340MOL0     H44864  -1.309   9.587   2.565  0.2118  0.2545 -0.0149
  340MOL0     H44865  -1.132   9.426   2.492  2.2702 -0.6839  2.1946
  340MOL0     H44866   0.198  10.420   1.369  2.1457  2.0439 -0.7208
  340MOL0     H44867   0.232  10.604   1.234 -2.1937  0.9461  0.7182
  340MOL0     H44868   0.411  10.731   0.832 -1.1433 -1.6728 -0.8743
  340MOL0     H44869   0.521  10.894   0.687  0.6564  0.5406 -0.1799
  340MOL0     H44870   0.298  11.272   0.503  5.6125  2.6574 -0.1052
  340MOL0     H44871   0.242  11.118   0.423 -0.2721  1.4541  0.0381
  340MOL0     H44872   0.515  11.249   0.356 -0.3314 -1.2344  1.0694
  340MOL0     H44873   0.419  11.116   0.273 -0.3834 -2.2611  3.1793
  340MOL0     H44874   0.260  11.351   0.264 -1.2336 -1.9869 -2.5127
  340MOL0     H44875   0.295  11.222   0.170 -2.2206  1.1958  0.0160
  340MOL0     H44876   0.484  11.458   0.199  0.7041 -1.0534  2.0541
  340MOL0     H44877   0.539  11.309   0.136  0.4966  0.7323  1.4698
  340MOL0     H44878   0.293  11.458  -0.188 -0.0560 -3.4844 -1.1189
  340MOL0     H44879   0.141  11.095   0.623 -0.8147 -1.9231 -1.5348
  340MOL0     H44880   0.044  10.940   0.759  0.2850  1.7431 -2.7758
  341MOL0     O44881   4.451   0.062   5.816 -0.4786  0.3829  0.1130
  341MOL0     C44882   4.400  -0.004   5.721 -0.8936  0.4119  0.3303
  341MOL0     O44883   4.470  -0.067   5.624  0.5151  0.4043 -0.0583
  341MOL0     C44884   4.605  -0.062   5.623  0.3282  1.0312  0.7342
  341MOL0     C44885   4.671  -0.184   5.647 -0.2424 -0.2676 -0.2535
  341MOL0     C44886   4.811  -0.191   5.641  0.8216 -0.2132  0.8434
  341MOL0     C44887   4.886  -0.077   5.599 -0.1249 -0.3194  0.0642
  341MOL0     O44888   5.023  -0.061   5.583  0.8839  0.5810 -0.0860
  341MOL0     C44889   5.109  -0.172   5.610  0.8090 -1.5420 -0.4234
  341MOL0     C44890   5.261  -0.118   5.600  0.4364 -0.0022 -0.0784
  341MOL0     C44891   5.367  -0.219   5.643  0.1624 -0.5150 -0.8868
  341MOL0     C44892   5.360  -0.252   5.793  0.1673 -1.5197 -0.4908
  341MOL0     C44893   5.478  -0.339   5.842 -0.8857 -0.5118  0.5845
  341MOL0     C44894   5.484  -0.488   5.791 -0.4819  0.0470 -0.7230
  341MOL0     C44895   5.604  -0.557   5.856  0.4785 -0.0280  0.1068
  341MOL0     C44896   5.593  -0.607   6.006  0.3544  0.1211  0.0235
  341MOL0     N44897   5.494  -0.709   6.029  0.1462 -0.0841 -0.3447
  341MOL0     C44898   5.523  -0.842   6.055 -0.4403  0.0031 -0.2465
  341MOL0     C44899   5.399  -0.897   6.054 -0.4542 -0.1033  0.0820
  341MOL0     C44900   5.369  -1.034   6.091  1.0986  0.6629 -0.9239
  341MOL0     C44901   5.433  -1.153   6.030 -0.4321  1.0157 -0.6127
  341MOL0     C44902   5.450  -1.280   6.124  0.5986  0.7317 -0.3821
  341MOL0     C44903   5.589  -1.296   6.163  0.4669  0.4116 -0.1975
  341MOL0     O44904   5.617  -1.175   6.239  0.0227  0.2693  1.3270
  341MOL0     C44905   5.740  -1.157   6.295  0.3653  0.6640  0.2711
  341MOL0     C44906   5.770  -1.032   6.345 -0.0354  0.4455 -0.2087
  341MOL0     C44907   5.892  -1.005   6.402 -0.0569  0.1878  0.5113
  341MOL0     C44908   5.992  -1.106   6.410  0.4445  0.0210 -1.0265
  341MOL0     C44909   6.127  -1.081   6.479 -0.6806 -0.5146  0.4222
  341MOL0     O44910   6.200  -1.197   6.494  0.0325 -0.4863 -0.1191
  341MOL0     C44911   6.327  -1.200   6.539  0.4783 -0.2717 -0.2548
  341MOL0     C44912   6.376  -1.120   6.639 -0.4800  0.9941 -0.3502
  341MOL0     C44913   6.511  -1.133   6.679  0.1041 -0.9289  0.6219
  341MOL0     C44914   6.594  -1.232   6.624 -0.4385 -1.0575  0.5505
  341MOL0     O44915   6.726  -1.255   6.657  0.3120  0.1391 -0.1608
  341MOL0     C44916   6.788  -1.166   6.742 -0.1629 -0.1017 -0.2579
  341MOL0     C44917   6.928  -1.217   6.759  0.1047  0.6785 -0.7879
  341MOL0     C44918   7.012  -1.134   6.850  0.1511 -0.8665  0.5575
  341MOL0     C44919   6.965  -1.117   6.996 -0.6468  0.4695  0.0706
  341MOL0     C44920   7.054  -1.053   7.093  0.5173 -0.8828 -0.5041
  341MOL0     C44921   6.981  -1.009   7.225  0.8648 -0.4953  0.2409
  341MOL0     C44922   7.074  -0.959   7.328 -0.3472  1.2704 -0.7239
  341MOL0     C44923   7.044  -1.013   7.469 -0.0916 -0.8042  0.0427
  341MOL0    Cl44924   7.189  -0.978   7.576 -0.1773 -0.3751  0.0288
  341MOL0     C44925   6.544  -1.308   6.517  0.2492 -0.2277 -0.0958
  341MOL0     C44926   6.410  -1.292   6.472  0.1761  0.6195  0.1197
  341MOL0     O44927   6.150  -0.968   6.519  0.9854 -0.8157 -0.5843
  341MOL0     C44928   5.970  -1.231   6.336 -0.4539 -0.3776  0.9212
  341MOL0     C44929   5.840  -1.261   6.296  0.2067 -0.2169  0.0458
  341MOL0     N44930   5.301  -0.802   6.046 -0.4855 -0.0842  0.3637
  341MOL0     N44931   5.364  -0.688   6.028 -0.5413  0.2099 -0.5463
  341MOL0     C44932   4.810   0.048   5.585  0.2375  0.3298  0.3800
  341MOL0     C44933   4.672   0.056   5.591 -0.4045 -0.0070 -0.4172
  341MOL0     C44934   4.246  -0.026   5.725 -0.8587 -0.3807 -0.0203
  341MOL0     C44935   4.176  -0.101   5.628  0.1046 -0.7639  0.9840
  341MOL0     C44936   4.049  -0.128   5.649 -0.1794  0.0501  1.1756
  341MOL0     C44937   3.985  -0.083   5.760 -0.5076  0.0118 -0.2526
  341MOL0     O44938   3.858  -0.124   5.793 -0.3048  0.5601  0.5065
  341MOL0     C44939   3.765  -0.014   5.814 -0.2071 -0.0123  0.9813
  341MOL0     C44940   3.626  -0.042   5.754  0.4826  0.1579 -0.0674
  341MOL0     C44941   3.529   0.083   5.773  0.2483 -0.6645 -0.9050
  341MOL0     C44942   3.397   0.076   5.698  0.3586  0.2377 -1.4263
  341MOL0     C44943   3.434   0.118   5.566 -0.2314 -0.1150  0.8176
  341MOL0     C44944   3.464   0.170   5.457 -0.0205  0.1225 -1.0925
  341MOL0     C44945   4.048   0.000   5.853  0.5396  1.0103  0.5949
  341MOL0     C44946   4.176   0.028   5.836  0.3020 -0.3088  0.2727
  341MOL0     H44947   4.609  -0.266   5.683 -1.9216  0.9990 -0.0950
  341MOL0     H44948   4.858  -0.284   5.671  2.3279 -0.0457 -0.8006
  341MOL0     H44949   5.113  -0.236   5.521  2.1348 -0.0373 -1.5121
  341MOL0     H44950   5.092  -0.228   5.702 -1.3371 -2.4501 -1.3052
  341MOL0     H44951   5.261  -0.028   5.663 -6.4049  2.0000 -2.1000
  341MOL0     H44952   5.295  -0.071   5.507  3.3618  0.6489  1.1894
  341MOL0     H44953   5.462  -0.169   5.622 -0.0751  0.0929 -0.5340
  341MOL0     H44954   5.366  -0.308   5.579  0.2374 -0.1170 -1.4518
  341MOL0     H44955   5.368  -0.158   5.848  0.1049 -3.6497  3.5627
  341MOL0     H44956   5.273  -0.310   5.822 -0.9712  0.0317 -0.6711
  341MOL0     H44957   5.479  -0.349   5.951  3.0307  0.5035  0.7820
  341MOL0     H44958   5.564  -0.285   5.802 -3.1875  2.1072 -1.3023
  341MOL0     H44959   5.495  -0.505   5.684  0.9375  0.8375 -0.7377
  341MOL0     H44960   5.404  -0.559   5.812  1.4140 -1.8141  0.6850
  341MOL0     H44961   5.618  -0.651   5.801 -0.4923  0.1836 -0.5298
  341MOL0     H44962   5.692  -0.492   5.849 -0.4023  1.3103  1.0534
  341MOL0     H44963   5.585  -0.524   6.076  1.2880  0.4701 -0.2633
  341MOL0     H44964   5.689  -0.656   6.027 -0.7900 -2.3540 -0.1277
  341MOL0     H44965   5.615  -0.899   6.066 -0.7380 -0.5270 -0.4213
  341MOL0     H44966   5.262  -1.055   6.082  1.1592  0.8557 -2.1523
  341MOL0     H44967   5.394  -1.034   6.198 -0.1666 -0.4893 -0.5916
  341MOL0     H44968   5.526  -1.132   5.977 -0.6302  0.3916 -1.2245
  341MOL0     H44969   5.367  -1.189   5.950 -0.3266  2.0448 -1.1807
  341MOL0     H44970   5.399  -1.265   6.220  0.2407  0.5745 -0.5487
  341MOL0     H44971   5.408  -1.366   6.072  0.9822  2.7341 -4.4202
  341MOL0     H44972   5.645  -1.315   6.071 -0.2541 -1.5794 -0.2863
  341MOL0     H44973   5.596  -1.386   6.225  0.0286 -0.4046 -1.2954
  341MOL0     H44974   5.686  -0.964   6.353 -1.5266 -1.2029 -1.2122
  341MOL0     H44975   5.900  -0.904   6.441  1.0479  0.9608 -1.5955
  341MOL0     H44976   6.313  -1.040   6.678 -0.9662  0.8318 -0.7952
  341MOL0     H44977   6.539  -1.051   6.745  1.0940 -0.9443  0.2212
  341MOL0     H44978   6.754  -1.168   6.846 -1.3966 -0.5269 -0.6572
  341MOL0     H44979   6.800  -1.067   6.697 -0.3505 -0.0727 -0.2466
  341MOL0     H44980   6.975  -1.233   6.661 -0.6636 -1.5753 -0.8265
  341MOL0     H44981   6.935  -1.318   6.800 -1.5138 -0.0846 -2.2401
  341MOL0     H44982   7.012  -1.030   6.814 -1.6939 -1.4647 -1.3955
  341MOL0     H44983   7.107  -1.187   6.857  0.1369 -0.8374  1.0160
  341MOL0     H44984   6.874  -1.056   6.997  0.5042  2.3356  3.1249
  341MOL0     H44985   6.940  -1.210   7.049 -2.1902  0.3618 -0.7943
  341MOL0     H44986   7.095  -0.972   7.031  2.3120 -2.5350 -1.5774
  341MOL0     H44987   7.138  -1.115   7.124  0.6265 -0.4818 -0.0033
  341MOL0     H44988   6.937  -1.103   7.259  3.6108 -2.4657 -1.3024
  341MOL0     H44989   6.902  -0.935   7.208 -0.9625 -2.2922  0.4920
  341MOL0     H44990   7.177  -0.988   7.306 -0.6711 -0.1497 -0.4837
  341MOL0     H44991   7.083  -0.851   7.324  2.6716  1.0745 -3.0653
  341MOL0     H44992   7.007  -1.116   7.470  0.0254 -0.8467  0.2062
  341MOL0     H44993   6.958  -0.957   7.505 -1.4249 -2.3664 -0.5934
  341MOL0     H44994   6.612  -1.370   6.459  0.4662  1.0479 -1.2228
  341MOL0     H44995   6.366  -1.341   6.386  1.7728  1.0189 -0.9596
  341MOL0     H44996   6.046  -1.308   6.334  1.4785  1.4359 -0.6541
  341MOL0     H44997   5.800  -1.362   6.288 -1.9923  0.2400  3.3474
  341MOL0     H44998   4.862   0.140   5.560  0.6117 -0.6164 -2.7425
  341MOL0     H44999   4.616   0.147   5.570  0.0559  1.0901  2.5627
  341MOL0     H45000   4.237  -0.135   5.544  0.9905  4.3524 -0.7679
  341MOL0     H45001   3.995  -0.196   5.583  0.6317 -1.4145  1.9636
  341MOL0     H45002   3.799   0.082   5.773 -0.0639 -0.2583  0.5128
  341MOL0     H45003   3.743  -0.002   5.920 -1.7869  0.3950  0.6345
  341MOL0     H45004   3.624  -0.080   5.651 -1.2908 -4.3992  1.3886
  341MOL0     H45005   3.586  -0.124   5.814 -0.6974 -1.3755 -2.7722
  341MOL0     H45006   3.592   0.164   5.735  2.3190 -2.1421 -0.8343
  341MOL0     H45007   3.507   0.087   5.880 -0.4854 -1.1605 -1.0320
  341MOL0     H45008   3.347  -0.020   5.692 -3.0007  1.2720  3.7283
  341MOL0     H45009   3.325   0.144   5.744  0.7054  1.0397 -2.0542
  341MOL0     H45010   3.481   0.208   5.358 -0.4585 -2.0981 -2.0897
  341MOL0     H45011   3.999   0.046   5.938  1.6107 -2.1146  3.0925
  341MOL0     H45012   4.215   0.088   5.918 -3.9842 -0.9379  3.1232
  342MOL0     O45013   0.161   2.351  11.300 -0.5119  0.3268  0.1768
  342MOL0     C45014   0.111   2.447  11.238  0.0045  0.4542 -0.1060
  342MOL0     O45015   0.010   2.528  11.289 -0.0412 -0.2338 -0.2679
  342MOL0     C45016  -0.061   2.502  11.402 -1.0040 -0.0499 -0.2643
  342MOL0     C45017  -0.155   2.603  11.436  0.4126  0.2406  0.5427
  342MOL0     C45018  -0.229   2.613  11.548  0.2322  0.3805 -0.4549
  342MOL0     C45019  -0.235   2.503  11.635 -0.2777 -0.0089  0.4825
  342MOL0     O45020  -0.314   2.513  11.753 -0.4424 -0.6584  0.3318
  342MOL0     C45021  -0.458   2.488  11.750  0.1672 -0.1210 -0.4434
  342MOL0     C45022  -0.535   2.542  11.883  0.4227 -0.4720 -0.1333
  342MOL0     C45023  -0.499   2.484  12.016  0.1427 -0.5969  0.1812
  342MOL0     C45024  -0.513   2.589  12.126 -0.3847  0.3318 -1.2761
  342MOL0     C45025  -0.473   2.519  12.261  0.0871 -0.3634 -0.9754
  342MOL0     C45026  -0.551   2.381  12.292  0.1347 -0.4321  0.2413
  342MOL0     C45027  -0.707   2.366  12.282 -0.8537  0.3225 -0.1763
  342MOL0     C45028  -0.773   2.493  12.343 -0.9142 -0.0255 -0.2692
  342MOL0     N45029  -0.918   2.481  12.352  0.3296 -0.5789  0.2502
  342MOL0     C45030  -0.994   2.497  12.459  0.1818  0.3507 -0.6556
  342MOL0     C45031  -1.120   2.473  12.419 -0.4998 -0.2190  0.3767
  342MOL0     C45032  -1.236   2.461  12.522  0.0159 -0.1065 -0.1999
  342MOL0     C45033  -1.326   2.589  12.545  0.2204 -0.5321 -0.2303
  342MOL0     C45034  -1.481   2.552  12.536  0.1717  0.4012  0.2532
  342MOL0     C45035  -1.561   2.666  12.597  0.2766  0.0219 -0.3704
  342MOL0     O45036  -1.599   2.759  12.497 -0.4313 -0.0688  0.3414
  342MOL0     C45037  -1.708   2.836  12.518  1.3687  0.4109  0.7711
  342MOL0     C45038  -1.692   2.972  12.511 -0.8249  0.7525 -0.7379
  342MOL0     C45039  -1.787   3.056  12.563  0.1491  0.2847  0.2902
  342MOL0     C45040  -1.911   3.008  12.610  0.5322  0.0795  1.3454
  342MOL0     C45041  -2.020   3.097  12.664  0.7012  0.2246 -0.2540
  342MOL0     O45042  -2.133   3.044  12.723 -0.3787  0.0073  0.5303
  342MOL0     C45043  -2.225   3.130  12.788 -0.3501  1.7702 -0.8956
  342MOL0     C45044  -2.361   3.118  12.749  0.9247  0.5410  1.3149
  342MOL0     C45045  -2.455   3.208  12.808  0.1935 -0.3654  0.7482
  342MOL0     C45046  -2.415   3.311  12.898 -0.6366  0.9095 -0.0098
  342MOL0     O45047  -2.503   3.390  12.954  0.5771 -0.6169  0.5914
  342MOL0     C45048  -2.641   3.402  12.917 -0.4250  0.2752  0.3979
  342MOL0     C45049  -2.664   3.548  12.893  0.5862 -0.4897  0.5137
  342MOL0     C45050  -2.610   3.601  12.758  0.3352 -0.3839  0.3633
  342MOL0     C45051  -2.630   3.746  12.718  0.4558  1.1485  0.3908
  342MOL0     C45052  -2.570   3.795  12.584  0.0978 -0.0711  0.2022
  342MOL0     C45053  -2.617   3.709  12.463 -0.4261 -0.0944 -0.0494
  342MOL0     C45054  -2.590   3.787  12.333  0.2832  0.6237  0.1147
  342MOL0     C45055  -2.611   3.689  12.217  0.3995 -0.4201  0.2057
  342MOL0    Cl45056  -2.789   3.646  12.194  0.2666 -0.2835 -0.0245
  342MOL0     C45057  -2.286   3.308  12.934  1.5535 -0.0780 -0.2559
  342MOL0     C45058  -2.186   3.228  12.879 -0.1342 -0.0629 -0.6034
  342MOL0     O45059  -2.017   3.215  12.626 -0.1268 -0.2295 -0.4292
  342MOL0     C45060  -1.937   2.868  12.596  0.0890 -0.5819 -1.0171
  342MOL0     C45061  -1.832   2.794  12.560  1.3192  0.3543  0.8436
  342MOL0     N45062  -1.130   2.468  12.281 -0.7078  0.9847 -0.3961
  342MOL0     N45063  -1.001   2.467  12.249 -0.1219  0.4315 -0.6166
  342MOL0     C45064  -0.146   2.396  11.612  0.5604 -0.5976 -0.2018
  342MOL0     C45065  -0.058   2.397  11.501  0.1313  0.3058  0.4928
  342MOL0     C45066   0.156   2.463  11.102  0.2091  0.8621  0.0629
  342MOL0     C45067   0.068   2.521  11.012  0.0701  0.7536  0.2319
  342MOL0     C45068   0.109   2.559  10.885  0.2352 -0.6647  0.3904
  342MOL0     C45069   0.240   2.530  10.845 -0.3412  0.2067  0.1640
  342MOL0     O45070   0.268   2.555  10.709 -0.6423  0.2203  0.0609
  342MOL0     C45071   0.346   2.455  10.639  0.2062 -0.0256  0.1653
  342MOL0     C45072   0.291   2.476  10.485  0.1576  0.0542  0.2668
  342MOL0     C45073   0.191   2.359  10.440 -0.2661 -0.1635 -0.0394
  342MOL0     C45074   0.098   2.414  10.333 -0.0151 -0.0441 -0.0829
  342MOL0     C45075   0.000   2.309  10.297 -0.7376 -1.1070  0.4072
  342MOL0     C45076  -0.078   2.223  10.262  0.3251 -0.9580 -0.4676
  342MOL0     C45077   0.331   2.462  10.933 -0.7518 -0.1724 -0.8832
  342MOL0     C45078   0.286   2.433  11.061  0.7395  1.4022  0.3874
  342MOL0     H45079  -0.141   2.688  11.371  3.1182  0.0790  0.7784
  342MOL0     H45080  -0.283   2.701  11.581  2.4646  1.3397  0.8656
  342MOL0     H45081  -0.482   2.381  11.745 -0.0219 -0.0703 -0.5979
  342MOL0     H45082  -0.500   2.534  11.661  1.1474  0.0486 -0.8307
  342MOL0     H45083  -0.640   2.515  11.877 -0.1123  1.1652  1.2499
  342MOL0     H45084  -0.522   2.650  11.898 -2.5381 -0.4042  3.1446
  342MOL0     H45085  -0.399   2.441  12.011 -1.5361 -5.1840  0.8781
  342MOL0     H45086  -0.567   2.400  12.035 -0.5286  0.5174  3.5377
  342MOL0     H45087  -0.447   2.674  12.108 -0.3726  0.2460 -1.6409
  342MOL0     H45088  -0.615   2.628  12.131  0.3729  2.3038 -0.3505
  342MOL0     H45089  -0.496   2.590  12.342  0.1159 -0.1822 -1.1239
  342MOL0     H45090  -0.371   2.482  12.265  1.0215  2.0154 -0.9068
  342MOL0     H45091  -0.530   2.356  12.396  1.1592 -2.6102 -0.4180
  342MOL0     H45092  -0.513   2.296  12.234 -3.2007 -2.1451  0.2799
  342MOL0     H45093  -0.742   2.354  12.179 -2.8849 -2.3853  0.7190
  342MOL0     H45094  -0.734   2.276  12.338  0.1552 -0.5362 -1.0439
  342MOL0     H45095  -0.755   2.580  12.280  1.6167  0.5951  1.1504
  342MOL0     H45096  -0.732   2.524  12.440  2.4682  2.5167 -2.2994
  342MOL0     H45097  -0.966   2.519  12.562 -2.0329  1.8657 -0.2982
  342MOL0     H45098  -1.195   2.441  12.621  1.9701  0.0129 -0.9509
  342MOL0     H45099  -1.309   2.389  12.483 -0.3237  0.8391 -1.3663
  342MOL0     H45100  -1.304   2.664  12.468  2.6019  0.1177  0.9683
  342MOL0     H45101  -1.303   2.647  12.636 -0.0810  3.4038 -2.4348
  342MOL0     H45102  -1.511   2.534  12.433  0.7989  2.0610 -0.2590
  342MOL0     H45103  -1.507   2.462  12.592  0.9315  1.8947  3.2033
  342MOL0     H45104  -1.498   2.709  12.675  3.9802 -2.7220 -1.5594
  342MOL0     H45105  -1.654   2.626  12.640  0.5381  0.9127  1.0799
  342MOL0     H45106  -1.596   3.015  12.485  0.7930 -1.2220  1.5616
  342MOL0     H45107  -1.765   3.162  12.561  2.6104 -0.1374  1.3539
  342MOL0     H45108  -2.377   3.050  12.666  1.1496 -0.2282  1.8938
  342MOL0     H45109  -2.558   3.199  12.773 -0.4112  0.1393  2.3436
  342MOL0     H45110  -2.689   3.357  13.005  0.9579 -3.5771 -0.6110
  342MOL0     H45111  -2.675   3.342  12.832  2.2692 -0.5207 -0.2162
  342MOL0     H45112  -2.616   3.607  12.972  0.4722 -2.5015  2.1622
  342MOL0     H45113  -2.772   3.561  12.880  0.4407 -2.1804 -0.1834
  342MOL0     H45114  -2.653   3.546  12.674 -0.6031  2.0473 -0.8578
  342MOL0     H45115  -2.504   3.576  12.752  0.4410 -0.2268  1.3310
  342MOL0     H45116  -2.737   3.767  12.719 -0.0953 -1.3631  0.1630
  342MOL0     H45117  -2.600   3.811  12.802 -0.1384  0.3514  1.2369
  342MOL0     H45118  -2.462   3.809  12.591  0.2715 -1.2346 -0.1146
  342MOL0     H45119  -2.607   3.898  12.577 -3.1886 -1.0191  1.7106
  342MOL0     H45120  -2.723   3.685  12.473 -0.2032 -0.9402  0.3187
  342MOL0     H45121  -2.556   3.619  12.456 -1.9252 -0.9875 -2.9284
  342MOL0     H45122  -2.660   3.870  12.321 -1.3082 -0.1454  3.0670
  342MOL0     H45123  -2.488   3.825  12.329  1.5063 -2.0294  2.4511
  342MOL0     H45124  -2.547   3.601  12.234 -0.6253 -1.5879 -1.6454
  342MOL0     H45125  -2.567   3.747  12.136  0.4720  2.7807  2.3465
  342MOL0     H45126  -2.265   3.379  13.014 -0.4772 -0.5137  0.7159
  342MOL0     H45127  -2.085   3.236  12.918  0.0261  0.5125 -1.1281
  342MOL0     H45128  -2.029   2.818  12.627  0.2214  1.0653  2.6594
  342MOL0     H45129  -1.850   2.688  12.544 -3.4363  1.3819 -2.7344
  342MOL0     H45130  -0.149   2.321  11.691  0.1643  0.3156  0.6708
  342MOL0     H45131   0.010   2.314  11.484 -1.1299 -0.9503  1.3342
  342MOL0     H45132  -0.033   2.526  11.051 -0.1346 -0.7694 -0.0276
  342MOL0     H45133   0.043   2.612  10.818  0.4041 -0.6065  0.2707
  342MOL0     H45134   0.336   2.363  10.697 -2.1392  0.4335  0.6006
  342MOL0     H45135   0.452   2.481  10.633 -0.5274  3.8825  1.4039
  342MOL0     H45136   0.237   2.570  10.476 -1.3204 -0.7221  0.6643
  342MOL0     H45137   0.375   2.467  10.415  2.8726 -1.0154  3.3536
  342MOL0     H45138   0.123   2.337  10.523  0.1893 -0.5363  0.2385
  342MOL0     H45139   0.243   2.267  10.413  0.4643  0.0811  0.5177
  342MOL0     H45140   0.034   2.500  10.357 -0.1048 -0.3211  0.7185
  342MOL0     H45141   0.155   2.437  10.243  0.4753  0.7384  0.4188
  342MOL0     H45142  -0.154   2.164  10.216  1.6793 -2.1439 -1.2649
  342MOL0     H45143   0.432   2.436  10.903 -1.3119 -2.5512 -0.8376
  342MOL0     H45144   0.360   2.390  11.128  0.2932  1.6546  1.0485
  343MOL0     O45145   3.340   3.893   8.786 -0.1432 -0.4591 -0.3771
  343MOL0     C45146   3.287   3.865   8.890 -0.0494 -0.0944 -0.5834
  343MOL0     O45147   3.151   3.853   8.906 -0.3933  0.2980  0.2273
  343MOL0     C45148   3.072   3.882   8.795 -0.0367 -0.2642 -0.8770
  343MOL0     C45149   3.071   4.000   8.720 -1.0453  0.0385 -0.9676
  343MOL0     C45150   3.005   4.013   8.603 -0.2154  0.4918  0.0266
  343MOL0     C45151   2.930   3.915   8.550 -0.3654 -0.3379  0.1482
  343MOL0     O45152   2.856   3.926   8.434 -0.3319 -0.0810  0.0244
  343MOL0     C45153   2.820   4.056   8.398  0.2431  0.2375  0.2814
  343MOL0     C45154   2.699   4.051   8.313 -0.8184  0.4357 -0.0170
  343MOL0     C45155   2.664   4.184   8.248 -0.2447 -0.8417 -0.1880
  343MOL0     C45156   2.581   4.153   8.126 -0.4320 -0.4234 -0.0258
  343MOL0     C45157   2.445   4.089   8.161  0.4560  0.6502  0.1885
  343MOL0     C45158   2.359   4.082   8.042  0.2243  0.0999 -0.1176
  343MOL0     C45159   2.230   4.011   8.077 -0.1989 -0.6530  0.9170
  343MOL0     C45160   2.166   3.966   7.947 -0.3318  0.2779 -0.6845
  343MOL0     N45161   2.088   4.061   7.872 -0.0603 -0.0827  0.3620
  343MOL0     C45162   1.991   4.141   7.926 -0.1053  1.6044 -0.1569
  343MOL0     C45163   1.916   4.186   7.822 -0.3364 -0.3926 -0.4560
  343MOL0     C45164   1.819   4.300   7.816  0.4458 -0.8146  0.1165
  343MOL0     C45165   1.889   4.426   7.753  0.3988  0.0623  0.2296
  343MOL0     C45166   1.950   4.505   7.871 -0.2827 -0.1760  0.3521
  343MOL0     C45167   2.046   4.616   7.823  0.0012  0.6071 -0.5636
  343MOL0     O45168   1.978   4.727   7.766  0.5799  0.1135  0.0223
  343MOL0     C45169   2.054   4.831   7.709  0.7398  0.4039  0.2353
  343MOL0     C45170   2.175   4.884   7.759  0.1391  0.6450 -0.3162
  343MOL0     C45171   2.240   4.993   7.705  1.2353 -0.2052 -0.0799
  343MOL0     C45172   2.186   5.051   7.588 -0.0374 -0.3562  0.1966
  343MOL0     C45173   2.245   5.176   7.523 -0.9359  0.5510 -0.1016
  343MOL0     O45174   2.358   5.223   7.575  0.1020  0.2359  0.6099
  343MOL0     C45175   2.414   5.335   7.519  0.8880  0.5564  0.8470
  343MOL0     C45176   2.485   5.336   7.392  0.4671 -0.3041 -0.2407
  343MOL0     C45177   2.546   5.449   7.343 -1.5679  0.1315 -0.3521
  343MOL0     C45178   2.530   5.568   7.415 -0.4740 -0.1885 -1.1546
  343MOL0     O45179   2.564   5.683   7.355 -0.7577  0.1095  0.1216
  343MOL0     C45180   2.668   5.749   7.430  0.4445 -0.3820  0.3375
  343MOL0     C45181   2.692   5.857   7.319 -0.7750 -0.0999  0.0224
  343MOL0     C45182   2.752   5.808   7.185 -0.9564 -0.0545 -0.3160
  343MOL0     C45183   2.824   5.923   7.113 -0.1961  0.5007 -0.2583
  343MOL0     C45184   2.863   5.896   6.972  0.0986 -0.3901  0.3709
  343MOL0     C45185   2.949   6.005   6.918 -0.4309  0.1619 -0.1761
  343MOL0     C45186   2.994   5.976   6.776 -0.3235 -0.1765 -0.4596
  343MOL0     C45187   3.062   6.094   6.702 -0.0813  0.4309  0.4338
  343MOL0    Cl45188   2.935   6.220   6.677 -0.6386 -0.0335  0.6408
  343MOL0     C45189   2.451   5.573   7.533 -0.6415  0.0698  0.0903
  343MOL0     C45190   2.405   5.456   7.583 -0.4262  1.1217  0.0827
  343MOL0     O45191   2.193   5.217   7.417 -0.1645 -0.8757 -0.0820
  343MOL0     C45192   2.075   4.992   7.525 -0.0077  0.3779 -0.4247
  343MOL0     C45193   2.003   4.888   7.593 -1.0945 -0.8653  1.3515
  343MOL0     N45194   1.965   4.133   7.708 -0.3979  0.2253 -0.0381
  343MOL0     N45195   2.064   4.051   7.740 -1.0369 -0.3393 -0.4295
  343MOL0     C45196   2.916   3.797   8.634  0.5293  0.2035 -2.2620
  343MOL0     C45197   2.989   3.786   8.756 -0.6017  0.7551  0.7518
  343MOL0     C45198   3.370   3.867   9.020  0.0379 -0.6550  0.2397
  343MOL0     C45199   3.299   3.900   9.133 -0.2241 -0.5016 -0.1727
  343MOL0     C45200   3.363   3.916   9.261 -0.4631 -0.2612  0.7051
  343MOL0     C45201   3.504   3.908   9.269 -1.1300  0.6039  0.9454
  343MOL0     O45202   3.579   3.944   9.378  0.0689  0.3901  0.2302
  343MOL0     C45203   3.512   4.045   9.461 -1.0185  0.4080 -0.4089
  343MOL0     C45204   3.621   4.113   9.541  0.6034 -0.1493  0.1597
  343MOL0     C45205   3.568   4.236   9.619 -0.5716  0.8105  0.7265
  343MOL0     C45206   3.662   4.259   9.744  0.7202  0.5318  1.1754
  343MOL0     C45207   3.800   4.255   9.707 -1.2144 -0.8224  0.3595
  343MOL0     C45208   3.921   4.251   9.685  0.7538  0.6900  0.0655
  343MOL0     C45209   3.566   3.849   9.158  0.2994  0.0731 -1.3063
  343MOL0     C45210   3.501   3.829   9.029 -0.0958  0.2968  0.0185
  343MOL0     H45211   3.142   4.072   8.758 -0.6385  0.5805 -2.6693
  343MOL0     H45212   3.016   4.105   8.548  0.0698 -0.5015 -1.6343
  343MOL0     H45213   2.897   4.118   8.352  1.1590 -1.6583 -0.8946
  343MOL0     H45214   2.776   4.097   8.489 -0.7852  0.6944 -0.3984
  343MOL0     H45215   2.610   4.022   8.371  0.2723  0.7564  1.9101
  343MOL0     H45216   2.725   3.978   8.237 -4.1782  0.9176 -1.8552
  343MOL0     H45217   2.758   4.235   8.222  0.3012 -0.9031  1.5303
  343MOL0     H45218   2.629   4.262   8.318  2.3147  0.4376 -0.2121
  343MOL0     H45219   2.570   4.250   8.075  2.7205  0.2479  0.3532
  343MOL0     H45220   2.633   4.093   8.051 -2.3936  0.8825 -2.5910
  343MOL0     H45221   2.395   4.128   8.249 -1.3563 -1.3967  0.1485
  343MOL0     H45222   2.465   3.988   8.198 -0.6815  0.9342  1.6667
  343MOL0     H45223   2.422   4.028   7.971 -0.5652  1.0485 -1.5653
  343MOL0     H45224   2.351   4.184   8.004  3.9267  0.0074 -1.5535
  343MOL0     H45225   2.259   3.927   8.140  1.5277 -0.1003  0.9028
  343MOL0     H45226   2.161   4.068   8.140 -2.4871 -2.3768  0.1063
  343MOL0     H45227   2.099   3.885   7.978 -0.3427 -0.3124 -2.1977
  343MOL0     H45228   2.235   3.918   7.878 -2.6201 -0.7094 -2.4283
  343MOL0     H45229   1.974   4.164   8.031 -2.0612 -0.5943  0.0931
  343MOL0     H45230   1.761   4.327   7.905 -0.8366  0.4826 -1.0756
  343MOL0     H45231   1.744   4.265   7.745  0.7357 -0.4638 -0.3703
  343MOL0     H45232   1.812   4.484   7.701  0.2841  0.8194  1.2002
  343MOL0     H45233   1.968   4.396   7.683  1.0793 -1.1168  1.4624
  343MOL0     H45234   1.866   4.548   7.926 -0.0382 -0.1771  0.7337
  343MOL0     H45235   2.006   4.441   7.940 -2.0570  1.1666  3.2443
  343MOL0     H45236   2.123   4.569   7.760  0.1930 -2.4261  1.6959
  343MOL0     H45237   2.086   4.648   7.919 -3.3656 -2.4681  2.1445
  343MOL0     H45238   2.219   4.821   7.836  0.1292  1.2158  0.1633
  343MOL0     H45239   2.331   5.033   7.749  1.3040  1.0135 -1.2439
  343MOL0     H45240   2.485   5.247   7.331 -0.4933 -0.5824  0.1511
  343MOL0     H45241   2.602   5.455   7.250  0.9464 -0.5289  1.0325
  343MOL0     H45242   2.753   5.680   7.438  0.5734 -0.4583 -1.3334
  343MOL0     H45243   2.638   5.791   7.526  1.6230  0.2676  0.4414
  343MOL0     H45244   2.772   5.916   7.364 -2.1327  0.3549  1.9377
  343MOL0     H45245   2.605   5.918   7.292  0.0718  0.9866 -0.3260
  343MOL0     H45246   2.673   5.774   7.118 -0.6529 -0.3872 -0.5079
  343MOL0     H45247   2.825   5.732   7.213 -1.2327  0.2528  1.3354
  343MOL0     H45248   2.771   6.018   7.121  1.1535  1.1809  1.3486
  343MOL0     H45249   2.919   5.933   7.168  1.0023 -1.5594 -1.8024
  343MOL0     H45250   2.775   5.876   6.910  0.8399 -1.5790 -0.3431
  343MOL0     H45251   2.931   5.810   6.965 -1.2005 -1.3344 -3.0338
  343MOL0     H45252   3.036   6.030   6.979 -1.5869  0.0815  1.5872
  343MOL0     H45253   2.887   6.093   6.901 -1.3742 -0.7166 -1.4439
  343MOL0     H45254   3.065   5.893   6.789  1.6296  1.0687 -2.3303
  343MOL0     H45255   2.915   5.934   6.714 -0.5919 -0.3752  0.0194
  343MOL0     H45256   3.098   6.052   6.608  0.5499  1.4787  0.1926
  343MOL0     H45257   3.147   6.136   6.758  0.0987 -0.2187  0.6640
  343MOL0     H45258   2.432   5.664   7.589  0.9324 -0.9286  2.4565
  343MOL0     H45259   2.362   5.451   7.683  1.8986 -0.9214  1.0914
  343MOL0     H45260   2.041   5.031   7.430 -0.2143  2.7354  0.5726
  343MOL0     H45261   1.910   4.847   7.556 -1.5427  3.6389 -3.8116
  343MOL0     H45262   2.830   3.742   8.598  0.2481  0.3466 -1.8199
  343MOL0     H45263   2.988   3.694   8.813 -0.6141  0.0324 -0.3878
  343MOL0     H45264   3.192   3.918   9.131  0.4284  5.5530  0.8147
  343MOL0     H45265   3.304   3.940   9.349  0.3278 -0.9913  1.4538
  343MOL0     H45266   3.444   3.991   9.528  0.3793 -0.5146  0.3126
  343MOL0     H45267   3.450   4.114   9.403  0.1602  1.3338 -0.6038
  343MOL0     H45268   3.655   4.044   9.618  0.3898  2.3136  2.6309
  343MOL0     H45269   3.706   4.155   9.487  0.9020  1.1475  1.5565
  343MOL0     H45270   3.465   4.215   9.650 -1.3215  1.6082 -1.0640
  343MOL0     H45271   3.555   4.320   9.550 -0.0634 -0.6717 -1.2773
  343MOL0     H45272   3.645   4.356   9.792 -0.2313  0.5198  0.8892
  343MOL0     H45273   3.648   4.175   9.813 -3.2235 -0.2330 -0.2804
  343MOL0     H45274   4.026   4.252   9.664  0.8990  1.7749  0.7563
  343MOL0     H45275   3.670   3.821   9.173  0.5513 -0.4495 -3.6833
  343MOL0     H45276   3.551   3.799   8.938 -3.9758 -3.9873 -1.0904
  344MOL0     O45277   4.061   1.271   5.914  0.2601  0.1207 -0.9176
  344MOL0     C45278   4.056   1.240   5.800 -1.2797  0.0831  0.4256
  344MOL0     O45279   3.958   1.274   5.714  0.3227 -0.7370  0.3771
  344MOL0     C45280   3.838   1.312   5.769 -0.6162 -0.5050 -0.2321
  344MOL0     C45281   3.764   1.231   5.840  0.6202  0.4752  0.2571
  344MOL0     C45282   3.647   1.276   5.906  0.5058 -0.6113  0.1670
  344MOL0     C45283   3.605   1.408   5.898  0.0200  0.1529  0.7587
  344MOL0     O45284   3.487   1.450   5.965  0.0182  0.3975 -0.3332
  344MOL0     C45285   3.413   1.363   6.055  0.3190  0.0865  0.3674
  344MOL0     C45286   3.293   1.435   6.112  0.5817  0.4269  0.4671
  344MOL0     C45287   3.202   1.506   6.003 -0.3357  0.3033  0.6091
  344MOL0     C45288   3.078   1.587   6.062 -1.2089  0.2511  0.4361
  344MOL0     C45289   3.099   1.737   6.102  0.4282 -0.2092 -0.6213
  344MOL0     C45290   2.965   1.799   6.144 -0.4455 -0.9576 -0.4849
  344MOL0     C45291   2.985   1.949   6.166  0.4094  0.4587 -0.9738
  344MOL0     C45292   2.857   1.984   6.250  0.4366 -0.3858  2.0244
  344MOL0     N45293   2.862   2.121   6.293 -0.7187 -0.7366 -0.5380
  344MOL0     C45294   2.912   2.161   6.413  0.0714  0.1894  0.2451
  344MOL0     C45295   2.913   2.294   6.421  0.4458 -0.4969 -0.0189
  344MOL0     C45296   2.946   2.384   6.548  1.1987 -0.2430 -0.3807
  344MOL0     C45297   2.864   2.517   6.563  0.2693  0.3465  0.3040
  344MOL0     C45298   2.901   2.624   6.457  0.7739  0.1037  0.2857
  344MOL0     C45299   3.050   2.656   6.473  0.0811 -0.0805  0.5787
  344MOL0     O45300   3.104   2.668   6.604  0.2641  0.2950 -0.1990
  344MOL0     C45301   3.079   2.783   6.667  0.0690 -0.4280 -0.4631
  344MOL0     C45302   3.098   2.767   6.813 -0.8413  0.0258 -0.2449
  344MOL0     C45303   3.062   2.879   6.896 -0.7555 -0.1121  0.2292
  344MOL0     C45304   3.006   2.997   6.848  0.4995 -0.6000  1.7963
  344MOL0     C45305   2.951   3.103   6.940 -0.7656 -0.3564  0.1166
  344MOL0     O45306   2.905   3.073   7.062  0.9223  0.4910 -0.9445
  344MOL0     C45307   2.846   3.163   7.143 -0.6955  0.7113 -0.0721
  344MOL0     C45308   2.894   3.172   7.272 -0.2996 -0.5227 -1.1048
  344MOL0     C45309   2.828   3.266   7.354  0.3853  0.2383 -0.8389
  344MOL0     C45310   2.726   3.351   7.312  0.8397  0.1256  0.3944
  344MOL0     O45311   2.646   3.428   7.402  0.7941 -0.4911 -0.1442
  344MOL0     C45312   2.708   3.488   7.514 -0.7145  0.8302  0.0364
  344MOL0     C45313   2.616   3.451   7.633 -0.6046  1.0930  1.5543
  344MOL0     C45314   2.602   3.295   7.662 -0.2570 -0.2688  0.2843
  344MOL0     C45315   2.519   3.260   7.784 -0.1286 -0.5661 -0.0032
  344MOL0     C45316   2.490   3.111   7.796 -0.2003  0.7063 -0.7700
  344MOL0     C45317   2.384   3.103   7.912 -0.8086  0.7379 -0.6298
  344MOL0     C45318   2.251   3.087   7.833  0.1425  0.2420 -0.4341
  344MOL0     C45319   2.129   3.052   7.934  0.4101  0.2285 -0.9460
  344MOL0    Cl45320   2.175   2.888   8.010  0.0016  0.0968 -0.3360
  344MOL0     C45321   2.664   3.316   7.194 -0.3973 -0.5112  0.2958
  344MOL0     C45322   2.729   3.237   7.105  0.9041 -0.0562  0.4402
  344MOL0     O45323   2.954   3.212   6.888  0.0747  0.2914  0.1674
  344MOL0     C45324   2.998   3.011   6.710 -0.2497 -0.2375  0.8494
  344MOL0     C45325   3.021   2.907   6.625 -0.6767 -0.4120 -0.1165
  344MOL0     N45326   2.873   2.332   6.298  1.2833 -0.6362  0.3113
  344MOL0     N45327   2.830   2.232   6.227  0.0999 -1.5609  0.1191
  344MOL0     C45328   3.691   1.498   5.831  0.4342  0.9434 -0.0904
  344MOL0     C45329   3.807   1.449   5.764  0.0541  0.7797 -0.2511
  344MOL0     C45330   4.177   1.170   5.746 -0.8153  0.6819 -0.1070
  344MOL0     C45331   4.253   1.081   5.829  0.3833  0.4641 -0.8256
  344MOL0     C45332   4.374   1.037   5.783 -0.0540  0.7725  0.1412
  344MOL0     C45333   4.426   1.070   5.665  0.1562  0.1995  0.3349
  344MOL0     O45334   4.542   1.010   5.618  0.1576 -0.1261 -0.2708
  344MOL0     C45335   4.655   1.090   5.660  0.0256  0.5889 -0.0052
  344MOL0     C45336   4.738   1.107   5.537 -0.2286  0.0432  0.6708
  344MOL0     C45337   4.768   0.972   5.477 -0.3802  0.5712  0.7265
  344MOL0     C45338   4.892   0.969   5.386  0.2743  0.1346  0.1113
  344MOL0     C45339   5.011   1.007   5.460  0.2168 -0.5564 -0.9160
  344MOL0     C45340   5.113   1.034   5.505 -0.3234  0.2776  0.7465
  344MOL0     C45341   4.357   1.159   5.579  1.2169  0.0550 -0.2286
  344MOL0     C45342   4.225   1.204   5.620 -0.6339 -0.2618 -0.2917
  344MOL0     H45343   3.793   1.127   5.852  0.3596 -0.0860 -3.1135
  344MOL0     H45344   3.584   1.199   5.947 -1.0829  1.4589  1.8419
  344MOL0     H45345   3.482   1.323   6.130  1.0467  0.8369  0.1082
  344MOL0     H45346   3.378   1.277   5.996  3.2186 -1.7192  1.0815
  344MOL0     H45347   3.326   1.511   6.183  0.7135  1.6224 -0.8232
  344MOL0     H45348   3.234   1.374   6.181 -2.7512  2.1694 -0.6642
  344MOL0     H45349   3.154   1.431   5.939  0.5490  2.9051 -3.4872
  344MOL0     H45350   3.248   1.567   5.925 -1.0716 -1.6929 -1.5420
  344MOL0     H45351   3.005   1.570   5.982 -1.6681 -1.5023  1.1636
  344MOL0     H45352   3.038   1.535   6.150 -2.3173  0.1130 -0.1227
  344MOL0     H45353   3.137   1.793   6.016  2.6050 -1.6405 -0.6715
  344MOL0     H45354   3.183   1.729   6.171  0.0812 -1.9352 -0.3356
  344MOL0     H45355   2.940   1.764   6.245 -1.3774 -0.2023 -0.4333
  344MOL0     H45356   2.882   1.787   6.074  0.0283 -1.9806 -0.8870
  344MOL0     H45357   3.075   1.964   6.226  2.5207 -5.8884 -1.8337
  344MOL0     H45358   2.986   2.009   6.074  2.2452 -0.1723 -1.4129
  344MOL0     H45359   2.828   1.910   6.324 -1.5133 -2.2617 -0.4128
  344MOL0     H45360   2.780   1.989   6.172  1.6360 -1.1062  0.7486
  344MOL0     H45361   2.941   2.101   6.498 -2.6573 -1.0499  0.3915
  344MOL0     H45362   3.054   2.397   6.560  0.9630  1.8134 -0.1717
  344MOL0     H45363   2.901   2.324   6.628 -0.5839 -0.1263 -1.2501
  344MOL0     H45364   2.880   2.561   6.662 -1.0095 -0.9477  1.1144
  344MOL0     H45365   2.759   2.488   6.559  0.7855 -1.5629 -3.5067
  344MOL0     H45366   2.877   2.591   6.356  0.0696  1.5819 -0.0597
  344MOL0     H45367   2.836   2.711   6.473  1.5122  0.8825 -0.8671
  344MOL0     H45368   3.075   2.742   6.411 -0.5135 -0.6770 -0.5027
  344MOL0     H45369   3.117   2.580   6.432  0.7037 -0.3212  1.9804
  344MOL0     H45370   3.129   2.673   6.859 -0.2021  0.9767  1.3393
  344MOL0     H45371   3.061   2.876   7.004 -1.5736  2.7568  0.3917
  344MOL0     H45372   2.966   3.111   7.324 -2.8714 -1.3006  1.9174
  344MOL0     H45373   2.865   3.277   7.455  2.1576  1.0618 -1.5327
  344MOL0     H45374   2.718   3.593   7.484 -2.0440  0.3287 -2.4326
  344MOL0     H45375   2.805   3.443   7.538 -0.5171 -0.6822 -3.1048
  344MOL0     H45376   2.514   3.481   7.608  0.1370  0.8790 -2.2779
  344MOL0     H45377   2.655   3.510   7.716  2.2846 -1.2690  2.0443
  344MOL0     H45378   2.702   3.258   7.686 -0.3816 -0.4379  0.5406
  344MOL0     H45379   2.571   3.232   7.578  0.7284 -1.5946  0.8934
  344MOL0     H45380   2.565   3.293   7.878 -4.1380 -2.1766  2.7577
  344MOL0     H45381   2.427   3.317   7.768  0.8309  0.8874 -0.6368
  344MOL0     H45382   2.588   3.066   7.815  0.4434  1.0128 -3.0092
  344MOL0     H45383   2.450   3.062   7.706  0.6447 -0.7379 -0.3960
  344MOL0     H45384   2.373   3.188   7.980  0.6748 -1.5326  2.7734
  344MOL0     H45385   2.413   3.025   7.983  0.5135  0.1080 -1.8154
  344MOL0     H45386   2.228   3.171   7.767  2.8570  1.9399  0.6475
  344MOL0     H45387   2.266   2.994   7.777 -1.0419 -0.0085 -0.3843
  344MOL0     H45388   2.032   3.048   7.883  0.7455  2.8428 -1.9609
  344MOL0     H45389   2.121   3.130   8.010  1.2209 -0.2889 -0.3150
  344MOL0     H45390   2.579   3.371   7.155  0.4988 -0.4174 -1.6332
  344MOL0     H45391   2.679   3.240   7.009  1.9745 -0.4375 -0.1483
  344MOL0     H45392   2.954   3.104   6.675 -0.3306 -0.3500  0.6455
  344MOL0     H45393   3.014   2.936   6.521  0.9525  0.5761  0.0040
  344MOL0     H45394   3.659   1.602   5.838 -0.4419  0.8233 -1.7692
  344MOL0     H45395   3.876   1.526   5.730  0.2361  0.7857  0.1278
  344MOL0     H45396   4.215   1.063   5.929  0.4421 -1.5506 -1.1305
  344MOL0     H45397   4.432   0.969   5.845 -0.7161 -0.3715 -0.4656
  344MOL0     H45398   4.713   1.039   5.737 -0.6574 -1.0878 -0.5549
  344MOL0     H45399   4.630   1.195   5.678  0.8877  1.3052 -2.5123
  344MOL0     H45400   4.676   1.160   5.464  1.4855  0.1914 -0.7630
  344MOL0     H45401   4.830   1.164   5.552  0.9717 -1.9775  1.4233
  344MOL0     H45402   4.687   0.937   5.412  2.0920 -1.0508 -1.7353
  344MOL0     H45403   4.784   0.906   5.563 -1.2824  0.4246  0.7861
  344MOL0     H45404   4.911   0.865   5.358  1.8095  0.3193  0.3877
  344MOL0     H45405   4.877   1.026   5.294  0.4348  1.9952  1.1921
  344MOL0     H45406   5.198   1.072   5.558 -0.7880  1.9193  0.3592
  344MOL0     H45407   4.390   1.186   5.479  2.3324  0.3941  0.2117
  344MOL0     H45408   4.160   1.259   5.552 -1.6502 -1.4495 -0.3065
  345MOL0     O45409   4.659  11.396   2.836 -0.7896 -0.3155 -0.2461
  345MOL0     C45410   4.659  11.324   2.738 -0.2915 -0.6542  0.1274
  345MOL0     O45411   4.575  11.213   2.722 -0.3085  0.8654 -0.5859
  345MOL0     C45412   4.461  11.219   2.798 -0.2700  0.3371 -0.1157
  345MOL0     C45413   4.468  11.201   2.943 -0.3234 -0.0226  0.2261
  345MOL0     C45414   4.352  11.166   3.008 -0.3016 -0.1720 -0.3079
  345MOL0     C45415   4.228  11.156   2.938 -0.3371 -1.0148 -0.2193
  345MOL0     O45416   4.109  11.110   2.977 -0.5520 -0.0026 -0.2591
  345MOL0     C45417   4.077  11.120   3.113 -0.9870 -0.9987 -0.2716
  345MOL0     C45418   3.946  11.058   3.143  0.3196  0.0805 -0.7442
  345MOL0     C45419   3.828  11.099   3.048  0.5069 -0.5062 -1.1169
  345MOL0     C45420   3.697  11.043   3.103 -0.5519 -0.5090 -0.6703
  345MOL0     C45421   3.585  11.099   3.018  0.4639  0.3740 -0.3176
  345MOL0     C45422   3.454  11.021   3.064 -0.2214  0.5199  0.1579
  345MOL0     C45423   3.414  10.917   2.959  0.2156 -0.4302 -0.3009
  345MOL0     C45424   3.285  10.855   3.008 -0.3277  0.5808  0.0505
  345MOL0     N45425   3.179  10.948   3.026 -0.1622 -0.0120  0.5779
  345MOL0     C45426   3.144  11.000   3.151  0.9220 -0.6150 -0.3799
  345MOL0     C45427   3.053  11.087   3.117  0.2134 -1.0489 -0.1007
  345MOL0     C45428   2.981  11.183   3.212  0.4369 -0.4224 -1.2658
  345MOL0     C45429   2.866  11.117   3.273  0.7886  0.4842 -0.1281
  345MOL0     C45430   2.779  11.210   3.374  0.0044  0.6195  0.8092
  345MOL0     C45431   2.727  11.342   3.306  0.2037  0.2418 -0.2923
  345MOL0     O45432   2.630  11.402   3.389 -0.1027 -0.0890 -0.1819
  345MOL0     C45433   2.495  11.371   3.401 -0.3643  0.1176 -1.0742
  345MOL0     C45434   2.403  11.457   3.466 -0.4537  0.3444  0.2571
  345MOL0     C45435   2.266  11.437   3.477 -0.8261  0.0670  0.1321
  345MOL0     C45436   2.210  11.318   3.421 -0.6186 -0.1594  0.1101
  345MOL0     C45437   2.071  11.289   3.432  0.2797  0.2452 -1.2209
  345MOL0     O45438   2.006  11.386   3.496  0.2515  0.6997 -0.3428
  345MOL0     C45439   1.873  11.365   3.520 -0.3265 -0.2072  0.8013
  345MOL0     C45440   1.776  11.441   3.453 -0.8311 -0.3817 -0.8571
  345MOL0     C45441   1.641  11.429   3.482  0.6695 -0.2724 -0.0320
  345MOL0     C45442   1.596  11.312   3.561  0.1928  0.4214  1.2894
  345MOL0     O45443   1.469  11.263   3.566 -0.1591 -0.1393  0.4120
  345MOL0     C45444   1.371  11.343   3.502 -0.0363  0.2376  0.0075
  345MOL0     C45445   1.234  11.284   3.532 -0.1888  0.1281 -0.4588
  345MOL0     C45446   1.213  11.233   3.677 -0.4980 -0.6370 -0.0053
  345MOL0     C45447   1.067  11.200   3.716 -0.0758 -0.0553  0.2859
  345MOL0     C45448   0.995  11.098   3.625  0.0136 -0.3544  0.6805
  345MOL0     C45449   1.053  10.962   3.624 -0.4127 -0.3211 -0.5805
  345MOL0     C45450   0.965  10.853   3.555  0.1920  0.3006 -0.2623
  345MOL0     C45451   1.017  10.716   3.574  0.5332  1.0438  0.4482
  345MOL0    Cl45452   1.180  10.715   3.492  0.0577 -0.0995 -0.0986
  345MOL0     C45453   1.690  11.242   3.630  0.0492 -0.2055  0.0048
  345MOL0     C45454   1.836  11.264   3.618  0.7659 -0.0275 -0.0441
  345MOL0     O45455   2.023  11.188   3.380  0.5501 -0.4060 -0.1852
  345MOL0     C45456   2.300  11.236   3.350 -0.0994  0.4827 -0.3325
  345MOL0     C45457   2.439  11.257   3.353  0.2188 -1.3060  0.6397
  345MOL0     N45458   3.035  11.090   2.985  0.2687  0.4373 -0.7175
  345MOL0     N45459   3.110  11.005   2.922  0.2794  0.0916  0.1681
  345MOL0     C45460   4.221  11.179   2.800 -0.1807  0.0086 -0.1944
  345MOL0     C45461   4.340  11.210   2.732  0.5554  0.8661  0.3287
  345MOL0     C45462   4.771  11.361   2.644 -0.0413  0.8156 -0.7301
  345MOL0     C45463   4.902  11.373   2.691 -0.5722  0.6776  0.2571
  345MOL0     C45464   5.005  11.408   2.599 -0.0418  0.0483  0.0396
  345MOL0     C45465   4.978  11.419   2.458  0.7805 -0.2349  0.8425
  345MOL0     O45466   5.056  11.451   2.349  0.2452 -0.0350  0.5303
  345MOL0     C45467   5.202  11.478   2.367  0.4112 -0.4302 -0.4977
  345MOL0     C45468   5.281  11.347   2.368 -0.2647  0.4715  0.0686
  345MOL0     C45469   5.237  11.268   2.245  0.5348 -0.2029 -0.0127
  345MOL0     C45470   5.322  11.137   2.212 -0.5053 -0.6028  0.4841
  345MOL0     C45471   5.463  11.157   2.194 -0.4697  0.3500 -1.4598
  345MOL0     C45472   5.579  11.185   2.206  0.4971 -0.8449  0.9688
  345MOL0     C45473   4.847  11.405   2.418  0.2226  0.4278  0.0844
  345MOL0     C45474   4.741  11.376   2.509 -0.0168  0.6796  0.1835
  345MOL0     H45475   4.570  11.202   2.979  0.5147 -0.3532 -1.9417
  345MOL0     H45476   4.366  11.147   3.114 -1.1294 -0.0628 -0.1758
  345MOL0     H45477   4.052  11.225   3.129 -2.2951 -1.2856 -0.2869
  345MOL0     H45478   4.160  11.087   3.176  0.4185  2.2591 -0.2382
  345MOL0     H45479   3.927  11.068   3.251  2.1957  1.3773 -0.4669
  345MOL0     H45480   3.948  10.950   3.127 -0.1183  0.1245 -1.1011
  345MOL0     H45481   3.848  11.059   2.947 -2.5929 -3.8238 -0.6174
  345MOL0     H45482   3.816  11.207   3.042  1.8698 -0.3432 -1.1869
  345MOL0     H45483   3.689  10.935   3.092 -1.5504 -0.4060 -1.0218
  345MOL0     H45484   3.685  11.075   3.207 -1.0572  0.7939 -1.1107
  345MOL0     H45485   3.589  11.079   2.911 -3.7711  1.7576 -0.8794
  345MOL0     H45486   3.560  11.204   3.036 -4.8652 -0.8456  0.8512
  345MOL0     H45487   3.374  11.095   3.068  0.4447  1.4719 -2.4846
  345MOL0     H45488   3.472  10.972   3.160 -0.9244 -0.0264  0.0192
  345MOL0     H45489   3.396  10.959   2.860 -1.8339 -0.1537  0.1447
  345MOL0     H45490   3.492  10.841   2.954  0.5150 -0.0540 -2.0459
  345MOL0     H45491   3.308  10.806   3.103  1.2298 -0.3603 -0.7543
  345MOL0     H45492   3.239  10.791   2.932 -2.3416  1.6092  0.3410
  345MOL0     H45493   3.202  11.003   3.243  1.8389 -1.3696 -0.9183
  345MOL0     H45494   2.942  11.274   3.167  0.7566  1.3082  1.6562
  345MOL0     H45495   3.048  11.230   3.285  0.0270 -0.8305 -0.6067
  345MOL0     H45496   2.905  11.033   3.331 -0.8442 -0.3804 -0.2297
  345MOL0     H45497   2.792  11.076   3.204 -0.2244  2.1576 -0.0873
  345MOL0     H45498   2.702  11.140   3.410  0.8146  0.0622  1.4870
  345MOL0     H45499   2.844  11.242   3.455 -0.6496  1.4520  1.0213
  345MOL0     H45500   2.675  11.319   3.213 -1.3335 -1.0352  0.8208
  345MOL0     H45501   2.809  11.413   3.289 -0.1248  0.2683 -1.8980
  345MOL0     H45502   2.443  11.541   3.522  1.3229  0.1557 -0.6442
  345MOL0     H45503   2.203  11.505   3.534 -2.2396  0.8844 -2.2915
  345MOL0     H45504   1.809  11.532   3.405 -1.6388  0.2474 -0.2537
  345MOL0     H45505   1.576  11.500   3.432  1.3686  0.3594 -0.0793
  345MOL0     H45506   1.386  11.323   3.395  1.2880 -0.6599  0.3313
  345MOL0     H45507   1.379  11.448   3.531 -1.3929 -0.6314  4.0750
  345MOL0     H45508   1.214  11.204   3.461  0.2346  1.1925 -1.8203
  345MOL0     H45509   1.170  11.372   3.523  0.5013  1.2673  3.6082
  345MOL0     H45510   1.242  11.307   3.752 -1.4533 -2.4087  2.2290
  345MOL0     H45511   1.286  11.152   3.691 -1.2652 -1.0486  1.9787
  345MOL0     H45512   1.069  11.156   3.816  0.1236 -3.5296 -1.1169
  345MOL0     H45513   1.013  11.295   3.716  3.3827  2.2221 -3.7971
  345MOL0     H45514   0.998  11.129   3.520 -0.5012 -3.9263 -0.5122
  345MOL0     H45515   0.888  11.087   3.649 -1.2602  0.4232 -3.6758
  345MOL0     H45516   1.059  10.938   3.731 -3.0787  4.0206  0.7967
  345MOL0     H45517   1.158  10.966   3.594 -0.1138  2.0191  0.5501
  345MOL0     H45518   0.867  10.848   3.605  1.1086 -1.2892  1.5193
  345MOL0     H45519   0.960  10.874   3.448  1.8705 -1.5150 -0.7521
  345MOL0     H45520   0.958  10.644   3.516 -0.3597  3.1091 -1.3445
  345MOL0     H45521   1.012  10.687   3.679 -0.2900  0.8641  0.3609
  345MOL0     H45522   1.657  11.158   3.691 -1.0275 -0.0579 -0.3529
  345MOL0     H45523   1.894  11.202   3.685 -1.5094 -4.0552 -1.5143
  345MOL0     H45524   2.254  11.155   3.293 -2.2978  0.9592  0.6659
  345MOL0     H45525   2.503  11.184   3.305 -0.1921 -1.0675 -0.2821
  345MOL0     H45526   4.130  11.181   2.741 -1.6183  1.9680  1.9133
  345MOL0     H45527   4.329  11.230   2.626  0.0409  2.5312  0.6766
  345MOL0     H45528   4.927  11.354   2.795  0.5859 -3.4539 -0.5977
  345MOL0     H45529   5.106  11.414   2.640  1.5734  2.6009 -3.6772
  345MOL0     H45530   5.218  11.531   2.461  1.0260 -0.8713 -0.3465
  345MOL0     H45531   5.235  11.537   2.281  1.2812  1.7603  1.2479
  345MOL0     H45532   5.389  11.363   2.368 -0.4447  2.2234 -2.2546
  345MOL0     H45533   5.252  11.291   2.458 -2.9066  1.1894 -0.2330
  345MOL0     H45534   5.239  11.332   2.157 -2.5948 -0.0988 -0.1117
  345MOL0     H45535   5.130  11.248   2.253  0.4481  0.6277  1.1777
  345MOL0     H45536   5.296  11.062   2.287 -1.5579 -0.0017  0.7285
  345MOL0     H45537   5.293  11.099   2.113 -0.2507 -0.3103  0.2924
  345MOL0     H45538   5.681  11.216   2.206 -0.0345  1.1049 -0.3641
  345MOL0     H45539   4.824  11.406   2.312 -5.3019  2.2960  0.9684
  345MOL0     H45540   4.641  11.351   2.476  0.7424 -0.0441 -1.7242
  346MOL0     O45541   0.831   7.270   2.116 -0.6253  0.3083 -0.4349
  346MOL0     C45542   0.865   7.317   2.223 -0.1635  0.4046 -0.1688
  346MOL0     O45543   0.808   7.284   2.345 -0.1119 -0.1259  0.2171
  346MOL0     C45544   0.706   7.197   2.343  0.1619  0.2328  0.2738
  346MOL0     C45545   0.577   7.246   2.318  0.9690 -1.2359  0.3784
  346MOL0     C45546   0.459   7.161   2.322  0.6804 -0.5848  0.1763
  346MOL0     C45547   0.478   7.034   2.367 -0.8967  0.7257 -0.3369
  346MOL0     O45548   0.377   6.946   2.393 -0.4954  0.8663 -0.1753
  346MOL0     C45549   0.264   6.987   2.475 -0.7853  0.4485 -0.1947
  346MOL0     C45550   0.144   6.939   2.399 -0.4912 -0.3386 -0.4140
  346MOL0     C45551   0.021   6.971   2.479 -0.0329 -0.1601  0.3625
  346MOL0     C45552  -0.005   6.889   2.598 -1.1982  0.0752 -0.4896
  346MOL0     C45553  -0.117   6.963   2.685 -0.0744  0.7056  0.5363
  346MOL0     C45554  -0.255   6.980   2.611  0.1396 -0.7926  0.1470
  346MOL0     C45555  -0.367   7.045   2.700  0.3458 -0.0309 -1.4882
  346MOL0     C45556  -0.322   7.167   2.786  0.3323 -0.4793 -0.4172
  346MOL0     N45557  -0.429   7.207   2.879 -0.9289 -0.0673 -0.0223
  346MOL0     C45558  -0.477   7.116   2.974  0.5873  0.2018 -1.0164
  346MOL0     C45559  -0.583   7.176   3.028 -0.7257 -0.0186 -0.2869
  346MOL0     C45560  -0.662   7.113   3.138 -0.0787  0.5148 -0.0207
  346MOL0     C45561  -0.761   7.220   3.193 -0.4992  0.3531  0.4536
  346MOL0     C45562  -0.834   7.168   3.315  0.0295  0.3079 -0.0821
  346MOL0     C45563  -0.835   7.273   3.425 -1.1099  0.3919 -0.2352
  346MOL0     O45564  -0.921   7.223   3.531  0.2087  0.0321  0.8583
  346MOL0     C45565  -1.007   7.310   3.595  0.6741 -0.4737 -0.1268
  346MOL0     C45566  -1.007   7.329   3.737  0.3402 -0.1515 -0.4451
  346MOL0     C45567  -1.095   7.416   3.793 -0.5710  0.0523 -0.8143
  346MOL0     C45568  -1.194   7.487   3.714  0.0272  0.5340  0.0365
  346MOL0     C45569  -1.287   7.573   3.776  0.0318  0.4908  0.3429
  346MOL0     O45570  -1.281   7.587   3.912  0.5181 -0.2799  0.2521
  346MOL0     C45571  -1.392   7.636   3.987 -0.4520  0.1707  0.7056
  346MOL0     C45572  -1.388   7.741   4.074  0.7843  0.3128  0.4047
  346MOL0     C45573  -1.499   7.797   4.133  0.1044  0.2783  0.4587
  346MOL0     C45574  -1.628   7.770   4.093  0.0479  0.9476 -0.4015
  346MOL0     O45575  -1.735   7.838   4.133  0.2875 -0.4738  0.1296
  346MOL0     C45576  -1.710   7.969   4.197  0.4108 -0.7425  0.4194
  346MOL0     C45577  -1.845   8.043   4.215  0.0267 -0.1613  0.1503
  346MOL0     C45578  -1.910   8.014   4.355 -0.0377  0.5808  0.4608
  346MOL0     C45579  -2.054   8.078   4.356 -0.1433 -0.0704  0.5725
  346MOL0     C45580  -2.131   8.055   4.483  0.4799 -0.0530  0.0873
  346MOL0     C45581  -2.087   8.159   4.592  0.0223  0.0401  0.4378
  346MOL0     C45582  -2.078   8.304   4.552  0.1963 -0.2367 -0.5509
  346MOL0     C45583  -2.074   8.392   4.676  1.0276  0.4631 -0.7227
  346MOL0    Cl45584  -2.229   8.377   4.776 -0.2305  0.2522 -0.3086
  346MOL0     C45585  -1.644   7.661   4.010 -0.5075  0.4571 -0.0972
  346MOL0     C45586  -1.526   7.595   3.964 -1.1126 -0.5342 -0.2836
  346MOL0     O45587  -1.372   7.621   3.699  0.3437 -0.5420 -0.1699
  346MOL0     C45588  -1.192   7.465   3.585  0.0692 -0.2842  0.3921
  346MOL0     C45589  -1.111   7.374   3.522 -1.0368 -0.4377  0.1385
  346MOL0     N45590  -0.603   7.297   2.966 -0.0992  0.6244  0.6072
  346MOL0     N45591  -0.510   7.309   2.873  0.4923 -0.3416 -0.0053
  346MOL0     C45592   0.607   6.986   2.403  0.6138  0.7462 -0.2653
  346MOL0     C45593   0.722   7.066   2.397  0.1105 -0.0485 -0.2988
  346MOL0     C45594   0.978   7.408   2.215 -0.8868  0.3740  0.1423
  346MOL0     C45595   0.977   7.499   2.110  0.3196  0.2699  0.0923
  346MOL0     C45596   1.081   7.580   2.082  0.4365  0.8936  0.5824
  346MOL0     C45597   1.196   7.588   2.160 -0.1366  0.5142  0.7005
  346MOL0     O45598   1.300   7.675   2.121 -0.0358 -0.3068  0.3129
  346MOL0     C45599   1.410   7.697   2.209  0.0405  0.6063  0.3751
  346MOL0     C45600   1.504   7.789   2.150 -0.6158  0.6702  0.3451
  346MOL0     C45601   1.564   7.877   2.259 -0.5920 -0.4962  0.6175
  346MOL0     C45602   1.662   7.977   2.198  0.1957  1.2240 -0.7605
  346MOL0     C45603   1.775   7.896   2.146 -0.1751 -0.1233  0.0193
  346MOL0     C45604   1.862   7.830   2.096  0.0948  0.4443 -0.7130
  346MOL0     C45605   1.192   7.500   2.274  0.2547  0.2516  0.3013
  346MOL0     C45606   1.084   7.414   2.300  0.1011  0.4368 -0.3222
  346MOL0     H45607   0.565   7.351   2.293  0.9355 -1.6943 -1.6924
  346MOL0     H45608   0.369   7.204   2.279  0.4024 -0.6677  0.6696
  346MOL0     H45609   0.266   7.095   2.489 -0.4368  0.1295  2.9102
  346MOL0     H45610   0.279   6.928   2.566  0.9295  0.8302 -0.1799
  346MOL0     H45611   0.157   6.831   2.388  1.5977 -0.0335 -1.3794
  346MOL0     H45612   0.153   6.979   2.297  0.1600 -0.6816 -0.4947
  346MOL0     H45613  -0.068   6.967   2.416 -1.6562  1.1696  2.4471
  346MOL0     H45614   0.027   7.076   2.510  0.2395 -0.1115  0.1552
  346MOL0     H45615  -0.041   6.790   2.567 -1.7736  0.3883 -0.8357
  346MOL0     H45616   0.081   6.869   2.662 -0.3255  1.1908 -1.2772
  346MOL0     H45617  -0.091   7.066   2.712 -1.6127  1.3245 -0.2254
  346MOL0     H45618  -0.147   6.908   2.774 -1.5728  0.6750  0.0422
  346MOL0     H45619  -0.298   6.882   2.589 -1.5709 -1.4730  5.2688
  346MOL0     H45620  -0.240   7.051   2.529  1.5669 -0.4872  0.6497
  346MOL0     H45621  -0.455   7.073   2.642 -1.1935 -1.6196 -0.0557
  346MOL0     H45622  -0.407   6.972   2.771  1.9700  0.3033 -0.1625
  346MOL0     H45623  -0.290   7.241   2.713 -1.4301 -0.1419 -0.8854
  346MOL0     H45624  -0.239   7.133   2.849  1.5412  3.6508  0.5084
  346MOL0     H45625  -0.443   7.014   2.981 -0.5448 -0.0911  2.0504
  346MOL0     H45626  -0.592   7.089   3.219  0.1635  2.5208  0.4162
  346MOL0     H45627  -0.722   7.029   3.102  0.3557  0.0419  0.3296
  346MOL0     H45628  -0.837   7.235   3.115 -0.5894  0.4094  0.5519
  346MOL0     H45629  -0.719   7.318   3.214  0.7361 -0.6314  2.9061
  346MOL0     H45630  -0.934   7.134   3.284  0.4325 -1.0153 -0.0097
  346MOL0     H45631  -0.792   7.079   3.363 -0.0560  0.6297  0.6037
  346MOL0     H45632  -0.875   7.368   3.389 -3.9881 -1.0922 -1.2650
  346MOL0     H45633  -0.735   7.308   3.454 -0.7568  1.8396 -2.8379
  346MOL0     H45634  -0.937   7.277   3.803 -2.3751 -0.7716  2.1615
  346MOL0     H45635  -1.093   7.427   3.901  3.0677 -1.7850 -0.5729
  346MOL0     H45636  -1.293   7.794   4.079  2.7644 -3.0332  3.3028
  346MOL0     H45637  -1.473   7.874   4.205 -0.1684 -1.9739  3.1134
  346MOL0     H45638  -1.653   8.035   4.130 -2.7349  2.6366  0.7367
  346MOL0     H45639  -1.641   7.967   4.282 -0.2106 -4.4973  1.0225
  346MOL0     H45640  -1.906   8.014   4.129  0.4237 -0.0272 -0.1830
  346MOL0     H45641  -1.820   8.147   4.193 -1.3153 -0.4292 -3.3488
  346MOL0     H45642  -1.850   8.056   4.436 -1.1877  0.1755  1.5624
  346MOL0     H45643  -1.899   7.906   4.370 -1.2258  0.4505  0.4568
  346MOL0     H45644  -2.046   8.183   4.326  1.5418  0.1527  1.6671
  346MOL0     H45645  -2.114   8.041   4.272 -0.5916 -1.0787  1.3055
  346MOL0     H45646  -2.118   7.953   4.517  1.0049 -1.7385 -4.4408
  346MOL0     H45647  -2.236   8.081   4.462  1.1835  2.3798 -0.8868
  346MOL0     H45648  -1.985   8.137   4.623  0.6050 -0.5754 -1.7226
  346MOL0     H45649  -2.147   8.150   4.682 -2.5239 -1.2354 -1.2492
  346MOL0     H45650  -1.997   8.328   4.483  0.2994  2.1618  0.3086
  346MOL0     H45651  -2.168   8.334   4.498 -0.6391 -1.1715  0.2597
  346MOL0     H45652  -2.062   8.500   4.660 -0.2406  1.3889  3.4414
  346MOL0     H45653  -1.988   8.354   4.732  2.4526  1.2582 -2.2541
  346MOL0     H45654  -1.742   7.626   3.979 -0.0862 -0.9574  0.0973
  346MOL0     H45655  -1.539   7.512   3.895  1.5916 -1.5323  0.2763
  346MOL0     H45656  -1.265   7.520   3.527  1.5317  2.9954  1.4272
  346MOL0     H45657  -1.123   7.355   3.416 -2.4947  0.1444  0.1780
  346MOL0     H45658   0.626   6.884   2.434 -1.4642 -0.0965 -1.5246
  346MOL0     H45659   0.817   7.034   2.438 -1.7774 -1.9319  3.1598
  346MOL0     H45660   0.890   7.482   2.047 -0.5797 -3.1291  1.9975
  346MOL0     H45661   1.081   7.649   1.999  0.4636 -0.8165 -0.9200
  346MOL0     H45662   1.465   7.606   2.234  2.3699  1.0161 -2.6482
  346MOL0     H45663   1.368   7.732   2.304 -0.9738  1.1799 -0.2669
  346MOL0     H45664   1.575   7.738   2.084 -0.4780  2.8974 -1.3406
  346MOL0     H45665   1.450   7.848   2.075 -2.7528 -1.3839  0.1299
  346MOL0     H45666   1.619   7.819   2.334 -1.5223 -1.2568  0.7291
  346MOL0     H45667   1.494   7.946   2.306 -0.1832  1.4447 -1.4506
  346MOL0     H45668   1.608   8.025   2.115 -2.4648 -3.8469 -2.4172
  346MOL0     H45669   1.689   8.047   2.277  1.8980 -0.0536 -0.1677
  346MOL0     H45670   1.947   7.776   2.061  0.3534 -1.1101  2.0564
  346MOL0     H45671   1.263   7.526   2.353 -0.5492  3.0344  0.2383
  346MOL0     H45672   1.084   7.348   2.386 -0.7001  0.8456 -0.0020
  347MOL0     O45673   8.005   6.852   1.155  0.2017 -1.1752 -0.7320
  347MOL0     C45674   8.039   6.839   1.039 -0.1650  0.8766  0.2763
  347MOL0     O45675   8.155   6.876   0.984 -0.0962 -0.1400  0.2079
  347MOL0     C45676   8.251   6.949   1.050  0.6685 -0.4557 -0.1085
  347MOL0     C45677   8.221   7.084   1.101 -0.6155  0.2999 -0.2996
  347MOL0     C45678   8.310   7.150   1.182 -0.7808  1.0258  0.0730
  347MOL0     C45679   8.443   7.104   1.187  0.1621  0.8836  1.1138
  347MOL0     O45680   8.533   7.198   1.240 -0.0271  0.6172  0.4561
  347MOL0     C45681   8.673   7.147   1.251  0.1414  0.6810 -0.5448
  347MOL0     C45682   8.757   7.261   1.304 -0.2388 -0.1833 -0.8267
  347MOL0     C45683   8.797   7.382   1.210 -0.1942 -0.0724  0.9443
  347MOL0     C45684   8.942   7.381   1.147 -0.1002  0.7795  0.5321
  347MOL0     C45685   8.989   7.524   1.114 -0.2849  0.5603  1.4529
  347MOL0     C45686   9.114   7.512   1.026  0.1219 -0.4265 -0.2526
  347MOL0     C45687   9.228   7.496   1.129 -0.3774 -0.4167 -0.6360
  347MOL0     C45688   9.359   7.449   1.060  0.7820 -0.1924  0.2298
  347MOL0     N45689   9.475   7.460   1.149 -0.6601  0.3172  0.2589
  347MOL0     C45690   9.592   7.411   1.099  0.3615  1.1154  0.2939
  347MOL0     C45691   9.682   7.439   1.203  0.4892  1.0902  0.2815
  347MOL0     C45692   9.814   7.374   1.190 -0.6331 -0.1683 -0.6079
  347MOL0     C45693   9.920   7.468   1.248  0.0414  0.0092 -0.3709
  347MOL0     C45694  10.048   7.384   1.273  0.3005 -0.2028 -0.4535
  347MOL0     C45695  10.086   7.310   1.143 -0.3283 -0.3390 -0.4725
  347MOL0     O45696  10.208   7.252   1.203 -0.5242  0.0769  0.9408
  347MOL0     C45697  10.292   7.187   1.123 -0.5235  0.3931 -0.2371
  347MOL0     C45698  10.251   7.103   1.018 -0.9494 -0.1499 -0.1686
  347MOL0     C45699  10.352   7.044   0.941  0.4563 -0.3265  0.3811
  347MOL0     C45700  10.488   7.058   0.959  0.0312 -1.3307 -0.9841
  347MOL0     C45701  10.585   6.975   0.880  0.3149  0.4497 -0.0397
  347MOL0     O45702  10.669   6.904   0.962  0.0835 -0.5926 -0.1992
  347MOL0     C45703  10.787   6.842   0.908 -0.2748 -0.4739  0.3762
  347MOL0     C45704  10.840   6.864   0.773 -0.8473  0.3217 -0.2337
  347MOL0     C45705  10.960   6.802   0.729 -0.4398  0.3060 -0.0155
  347MOL0     C45706  11.036   6.717   0.811  0.1257 -0.4583 -0.2422
  347MOL0     O45707  11.119   6.635   0.752 -0.4497 -0.0992  0.1334
  347MOL0     C45708  11.240   6.607   0.817 -0.3852 -0.3057 -0.7562
  347MOL0     C45709  11.342   6.531   0.724 -0.7745 -0.6974 -0.0306
  347MOL0     C45710  11.401   6.631   0.620 -0.4301  0.3638 -1.0378
  347MOL0     C45711  11.532   6.570   0.560  0.7324  0.0293 -1.1499
  347MOL0     C45712  11.598   6.679   0.468 -0.2417  0.2762 -0.5220
  347MOL0     C45713  11.731   6.634   0.391  0.1213  0.5027  0.2336
  347MOL0     C45714  11.719   6.483   0.338  0.0270 -0.1924  0.6581
  347MOL0     C45715  11.817   6.457   0.226  0.6809  0.9394  0.4937
  347MOL0    Cl45716  11.983   6.455   0.283 -0.1403  0.0362 -0.3233
  347MOL0     C45717  10.987   6.701   0.942  0.8811  0.0740 -0.1221
  347MOL0     C45718  10.870   6.761   0.992  0.5505  0.6085 -0.1003
  347MOL0     O45719  10.564   6.955   0.761 -0.2667  0.1880 -0.5316
  347MOL0     C45720  10.524   7.132   1.070  0.9008 -0.5742  0.3965
  347MOL0     C45721  10.429   7.207   1.142 -0.5141  0.3351 -0.1231
  347MOL0     N45722   9.613   7.501   1.304  0.0685  0.0683 -0.2884
  347MOL0     N45723   9.491   7.523   1.270 -0.7594 -0.3918  0.0308
  347MOL0     C45724   8.481   6.987   1.130  0.1333  0.6195 -0.2976
  347MOL0     C45725   8.386   6.915   1.064  0.4830  0.2338 -0.2474
  347MOL0     C45726   7.940   6.780   0.946 -0.3136  0.4010 -0.5208
  347MOL0     C45727   7.849   6.699   1.012  0.0282 -0.3327  0.6324
  347MOL0     C45728   7.755   6.636   0.933  0.1064 -0.2947 -1.1000
  347MOL0     C45729   7.754   6.632   0.794  0.6500 -0.0100 -0.5308
  347MOL0     O45730   7.677   6.541   0.727 -0.2783  0.0716 -0.4642
  347MOL0     C45731   7.737   6.482   0.611 -0.2792  0.2219 -0.0886
  347MOL0     C45732   7.861   6.397   0.637  0.5860  0.6516 -0.1998
  347MOL0     C45733   7.895   6.331   0.507  0.3579  1.0936 -0.9583
  347MOL0     C45734   8.018   6.403   0.448  0.2323  0.1825  0.1365
  347MOL0     C45735   8.147   6.345   0.486 -0.2767 -0.1015  0.5902
  347MOL0     C45736   8.257   6.301   0.512 -0.3982 -0.0070 -0.6618
  347MOL0     C45737   7.854   6.707   0.731 -0.2856  0.3814  0.5797
  347MOL0     C45738   7.939   6.790   0.806 -0.6832  0.6634 -0.7787
  347MOL0     H45739   8.128   7.136   1.080 -2.1220 -1.2876  1.9072
  347MOL0     H45740   8.285   7.250   1.217  0.4551  0.2452  3.6670
  347MOL0     H45741   8.705   7.116   1.152  3.5752 -1.0517  0.9218
  347MOL0     H45742   8.671   7.064   1.322  2.4920  2.5178  1.9159
  347MOL0     H45743   8.849   7.218   1.344  0.3262  2.0001  0.3457
  347MOL0     H45744   8.706   7.300   1.393 -0.0076 -3.3047  0.8091
  347MOL0     H45745   8.789   7.477   1.264 -1.5435  0.7760 -0.6400
  347MOL0     H45746   8.732   7.379   1.122  2.5667  0.4252 -1.2473
  347MOL0     H45747   9.007   7.323   1.213 -1.2353 -1.7507 -0.4684
  347MOL0     H45748   8.929   7.328   1.052 -1.8834  4.4999 -1.5437
  347MOL0     H45749   9.021   7.580   1.202 -0.5138  2.2623  0.4983
  347MOL0     H45750   8.910   7.579   1.060  0.3779  0.4869  0.3870
  347MOL0     H45751   9.135   7.594   0.958 -2.1752 -0.7880 -1.4761
  347MOL0     H45752   9.103   7.425   0.961  2.2862 -0.0184 -1.2442
  347MOL0     H45753   9.244   7.590   1.182 -2.0083 -0.5888  0.2221
  347MOL0     H45754   9.215   7.419   1.205  1.9823  0.3532  0.6586
  347MOL0     H45755   9.373   7.515   0.974  1.9234 -2.1783 -1.2062
  347MOL0     H45756   9.344   7.348   1.021 -0.8772  0.5375 -1.1580
  347MOL0     H45757   9.606   7.361   1.004  2.1079 -2.4324  2.2360
  347MOL0     H45758   9.829   7.347   1.085  2.6493 -2.2691  0.2798
  347MOL0     H45759   9.808   7.281   1.246  1.6606 -1.2914 -2.0908
  347MOL0     H45760   9.889   7.520   1.339  0.8379  3.7050 -2.0305
  347MOL0     H45761   9.931   7.550   1.176  0.3623 -3.8164 -5.1718
  347MOL0     H45762  10.129   7.451   1.304  0.9876 -1.4059  0.4295
  347MOL0     H45763  10.037   7.310   1.352  0.1335 -0.7845 -1.0189
  347MOL0     H45764  10.110   7.371   1.055  1.4932  0.8303  0.7550
  347MOL0     H45765  10.010   7.233   1.128 -0.5213 -0.8681  2.6327
  347MOL0     H45766  10.149   7.081   0.988 -0.7966  0.8562 -1.5223
  347MOL0     H45767  10.321   6.971   0.867  3.1055 -2.9255  1.6312
  347MOL0     H45768  10.815   6.951   0.713  2.5937  0.8963 -1.0343
  347MOL0     H45769  10.999   6.824   0.631 -0.1356  0.0919  0.0555
  347MOL0     H45770  11.216   6.544   0.903  2.0253  0.7087  0.7466
  347MOL0     H45771  11.286   6.692   0.869 -1.0974 -0.9594  1.0274
  347MOL0     H45772  11.292   6.449   0.672 -1.4765 -0.3607  0.1012
  347MOL0     H45773  11.419   6.492   0.791  1.1075  2.3389 -0.2155
  347MOL0     H45774  11.428   6.726   0.668 -0.7299 -0.8239  1.7019
  347MOL0     H45775  11.336   6.660   0.538  3.7323  2.0898 -4.0672
  347MOL0     H45776  11.603   6.546   0.639 -0.4012 -0.0076 -0.1089
  347MOL0     H45777  11.508   6.482   0.501 -2.6992  0.2090 -0.2414
  347MOL0     H45778  11.627   6.765   0.529 -2.3301 -0.8606  2.2911
  347MOL0     H45779  11.517   6.712   0.402 -1.4940 -0.8498  0.3878
  347MOL0     H45780  11.817   6.651   0.457  0.3208 -0.8073  0.3428
  347MOL0     H45781  11.747   6.694   0.301  2.5980 -2.3466 -1.3869
  347MOL0     H45782  11.752   6.414   0.416  1.1256 -2.1609 -1.4131
  347MOL0     H45783  11.615   6.475   0.305 -0.7319  0.8481  2.6301
  347MOL0     H45784  11.795   6.527   0.146  1.4693 -0.0857 -0.6730
  347MOL0     H45785  11.795   6.362   0.177  0.4453  2.3291 -2.2726
  347MOL0     H45786  11.014   6.621   1.010 -1.0590 -0.6421 -0.1285
  347MOL0     H45787  10.836   6.731   1.091 -1.5920  0.4697 -0.8192
  347MOL0     H45788  10.633   7.138   1.078  1.0673  0.5711 -1.8298
  347MOL0     H45789  10.450   7.268   1.229 -1.0353  0.0714  0.1882
  347MOL0     H45790   8.573   6.938   1.103 -0.7815  0.3510 -3.2715
  347MOL0     H45791   8.419   6.820   1.025 -2.0938 -0.0776 -1.9454
  347MOL0     H45792   7.836   6.694   1.120 -0.5803  0.4082  0.6030
  347MOL0     H45793   7.680   6.576   0.984  0.8397  0.1322  0.5465
  347MOL0     H45794   7.758   6.550   0.528  2.2891  2.0818  1.9163
  347MOL0     H45795   7.664   6.412   0.570 -0.6632  1.3690 -1.4365
  347MOL0     H45796   7.951   6.443   0.678  0.9551  0.1455 -0.4342
  347MOL0     H45797   7.834   6.333   0.722  0.3275  1.5578  0.4267
  347MOL0     H45798   7.809   6.344   0.441 -1.3094 -2.5157  0.2346
  347MOL0     H45799   7.906   6.222   0.507 -0.9433  0.9377  0.2104
  347MOL0     H45800   8.005   6.416   0.340 -3.5619  4.0718  0.7865
  347MOL0     H45801   8.006   6.509   0.472 -1.2443 -0.4056  2.3605
  347MOL0     H45802   8.356   6.267   0.531  0.0087  1.7018  0.4706
  347MOL0     H45803   7.868   6.717   0.624  2.1654  2.7902  1.0136
  347MOL0     H45804   8.010   6.848   0.747 -1.9926  0.3090 -2.8019
  348MOL0     O45805   3.839   8.290   1.549  0.3810  0.4946  0.0637
  348MOL0     C45806   3.891   8.366   1.634 -0.3598 -0.5399 -0.3974
  348MOL0     O45807   3.821   8.458   1.710  0.1742  0.4919 -0.3958
  348MOL0     C45808   3.690   8.424   1.736 -0.1530 -0.6595 -0.1119
  348MOL0     C45809   3.591   8.520   1.715  0.4585  0.4291  0.0528
  348MOL0     C45810   3.457   8.483   1.729  0.1179 -0.9877 -0.1295
  348MOL0     C45811   3.423   8.360   1.782 -0.3475  0.1105 -0.4124
  348MOL0     O45812   3.296   8.321   1.792  0.2420 -0.3236  0.3736
  348MOL0     C45813   3.207   8.386   1.884 -0.1097 -0.9951 -0.5362
  348MOL0     C45814   3.087   8.438   1.811  0.7804 -0.0001  0.3638
  348MOL0     C45815   3.008   8.314   1.762 -0.4301 -0.1450 -1.0486
  348MOL0     C45816   2.874   8.351   1.703 -1.1086  0.2056  0.1779
  348MOL0     C45817   2.783   8.231   1.659  0.3170 -0.1912 -0.3319
  348MOL0     C45818   2.647   8.268   1.612 -0.1689 -1.1947  0.2840
  348MOL0     C45819   2.561   8.156   1.559  0.6300  0.8034 -0.2400
  348MOL0     C45820   2.619   8.085   1.437  0.1220  0.2375 -0.3499
  348MOL0     N45821   2.517   7.993   1.376 -0.2087 -0.6532  0.4708
  348MOL0     C45822   2.438   8.034   1.278  0.4285  0.0075  1.2110
  348MOL0     C45823   2.387   7.926   1.211 -0.2059  0.2517  0.6231
  348MOL0     C45824   2.302   7.919   1.088 -0.4147  0.0497  0.6076
  348MOL0     C45825   2.164   7.953   1.142  0.0072 -0.6286 -0.7091
  348MOL0     C45826   2.088   7.853   1.228  0.1832 -0.0058  0.6770
  348MOL0     C45827   2.042   7.735   1.138 -0.5032 -0.3678 -0.3098
  348MOL0     O45828   1.914   7.762   1.074 -0.6416  0.4501  0.7224
  348MOL0     C45829   1.832   7.653   1.040 -0.9983  0.1458  0.3269
  348MOL0     C45830   1.729   7.671   0.947 -1.3674 -1.3598  0.0481
  348MOL0     C45831   1.641   7.577   0.905 -0.0503 -0.2175 -0.2760
  348MOL0     C45832   1.640   7.449   0.965  0.8202 -0.4200  0.2946
  348MOL0     C45833   1.549   7.347   0.912  0.6796 -0.0201 -0.2436
  348MOL0     O45834   1.553   7.234   0.984  0.2686 -0.4012  1.0444
  348MOL0     C45835   1.441   7.164   0.973  0.9833  0.9523 -0.3176
  348MOL0     C45836   1.415   7.052   0.881  0.3631  1.1773 -0.5484
  348MOL0     C45837   1.287   6.999   0.873  0.4586  0.8228 -0.8085
  348MOL0     C45838   1.199   7.024   0.976  0.1354  0.5213 -0.5317
  348MOL0     O45839   1.072   6.974   0.991 -0.3175 -0.3649  0.4798
  348MOL0     C45840   1.018   6.873   0.903  0.3254 -0.9292 -0.7395
  348MOL0     C45841   1.096   6.745   0.938  0.5339 -0.9545  0.7412
  348MOL0     C45842   1.007   6.629   0.919 -0.1101 -0.2876 -0.2514
  348MOL0     C45843   1.070   6.487   0.929 -1.0885 -0.0526  0.0383
  348MOL0     C45844   0.957   6.381   0.893  0.1940  0.1549 -0.7643
  348MOL0     C45845   0.875   6.398   0.763  0.3634 -0.4482  1.0748
  348MOL0     C45846   0.963   6.375   0.635 -1.5735  0.2125 -0.2721
  348MOL0     C45847   0.901   6.430   0.513  0.5605  0.5801  0.2046
  348MOL0    Cl45848   0.967   6.339   0.376 -0.2590 -0.1718  0.2953
  348MOL0     C45849   1.229   7.112   1.080  0.3472 -0.1024 -0.2707
  348MOL0     C45850   1.339   7.193   1.069 -0.2760 -0.0091 -0.0969
  348MOL0     O45851   1.473   7.366   0.814 -1.7264 -0.2009  0.4999
  348MOL0     C45852   1.743   7.426   1.055 -0.1082  0.4637 -0.1707
  348MOL0     C45853   1.835   7.525   1.096 -0.1775  0.6490  0.0942
  348MOL0     N45854   2.435   7.817   1.293 -0.7495 -0.2658 -0.3554
  348MOL0     N45855   2.509   7.864   1.387  0.0209  0.9823 -0.1813
  348MOL0     C45856   3.526   8.272   1.825  0.2225 -0.3632 -0.8421
  348MOL0     C45857   3.656   8.303   1.794 -0.6724  0.7315 -0.1519
  348MOL0     C45858   4.041   8.370   1.648 -0.4003  0.7406  0.4919
  348MOL0     C45859   4.115   8.279   1.572 -0.8952  1.0934  0.0911
  348MOL0     C45860   4.254   8.295   1.559  0.3298 -0.0575  0.3454
  348MOL0     C45861   4.313   8.397   1.626 -1.4740 -0.0348  0.1751
  348MOL0     O45862   4.450   8.414   1.632 -0.0837  0.0384 -0.0398
  348MOL0     C45863   4.529   8.379   1.513  0.0165  0.6303 -0.6041
  348MOL0     C45864   4.672   8.435   1.533  0.9326  0.7789 -0.5747
  348MOL0     C45865   4.786   8.330   1.521  0.5054  0.0523 -0.6459
  348MOL0     C45866   4.859   8.318   1.392  0.0881 -0.0629  0.2075
  348MOL0     C45867   4.775   8.319   1.271 -0.1163  0.1721  0.6482
  348MOL0     C45868   4.709   8.333   1.171 -0.3916  0.4248  0.2988
  348MOL0     C45869   4.244   8.486   1.700 -0.1301  0.1890  0.5963
  348MOL0     C45870   4.107   8.466   1.720  0.2927  0.7809  0.5924
  348MOL0     H45871   3.616   8.615   1.669 -1.8280 -0.6709 -3.9579
  348MOL0     H45872   3.385   8.561   1.704  0.3358 -1.5787 -3.0117
  348MOL0     H45873   3.260   8.472   1.927  0.0397  0.0040 -2.5954
  348MOL0     H45874   3.176   8.322   1.967  1.3727 -1.4259 -0.2773
  348MOL0     H45875   3.107   8.501   1.724 -0.7218 -0.8199 -0.6202
  348MOL0     H45876   3.021   8.502   1.870  0.7415  0.9163 -0.6355
  348MOL0     H45877   2.989   8.250   1.849  0.4982  1.4499  0.3818
  348MOL0     H45878   3.070   8.260   1.689  1.0225 -1.0554  0.7693
  348MOL0     H45879   2.833   8.422   1.774 -0.0849  1.4195 -0.4087
  348MOL0     H45880   2.893   8.412   1.614 -1.3847  2.2563  1.4745
  348MOL0     H45881   2.763   8.159   1.739  1.1005  1.5440  1.5277
  348MOL0     H45882   2.840   8.196   1.573  1.8261  0.5731  0.3177
  348MOL0     H45883   2.668   8.331   1.525 -2.0958  0.3061  0.8418
  348MOL0     H45884   2.591   8.311   1.695  0.8965 -0.4809  0.6452
  348MOL0     H45885   2.552   8.077   1.634  2.3405  0.6045 -0.1969
  348MOL0     H45886   2.462   8.197   1.539  0.2564  0.7218  1.3354
  348MOL0     H45887   2.708   8.029   1.466 -1.6871 -1.5701  2.1948
  348MOL0     H45888   2.639   8.158   1.357  0.8873  0.8577  0.3902
  348MOL0     H45889   2.432   8.135   1.239 -0.8116  1.4953  4.7632
  348MOL0     H45890   2.304   7.818   1.045 -2.0290 -0.7318  2.2683
  348MOL0     H45891   2.336   7.989   1.011  1.2101 -2.6720 -1.3363
  348MOL0     H45892   2.109   7.986   1.052  0.9941  0.8803 -0.7983
  348MOL0     H45893   2.176   8.045   1.201 -1.7878 -0.5753 -0.3623
  348MOL0     H45894   2.134   7.814   1.319  1.2198 -0.1318  0.1161
  348MOL0     H45895   1.999   7.903   1.267 -0.2345 -1.1196  1.2039
  348MOL0     H45896   2.043   7.647   1.203 -2.0264  2.0880  3.3691
  348MOL0     H45897   2.114   7.721   1.058  1.6097 -2.9172  1.8427
  348MOL0     H45898   1.726   7.769   0.898 -0.3346 -1.1053  0.4786
  348MOL0     H45899   1.564   7.611   0.836 -0.3177 -0.7398 -0.2393
  348MOL0     H45900   1.491   7.036   0.805  1.2093 -0.4402  0.5731
  348MOL0     H45901   1.270   6.932   0.789  0.4231 -0.4071  0.1531
  348MOL0     H45902   1.032   6.898   0.798 -2.4842 -0.3981 -1.0780
  348MOL0     H45903   0.913   6.856   0.928  1.6811 -4.1771  4.2068
  348MOL0     H45904   1.122   6.767   1.042 -0.7056  0.7573  0.7357
  348MOL0     H45905   1.187   6.746   0.877 -0.5947  2.4959 -1.2139
  348MOL0     H45906   0.963   6.631   0.819  0.8241 -1.0828 -0.6929
  348MOL0     H45907   0.926   6.640   0.991 -0.0682 -1.1100 -0.0657
  348MOL0     H45908   1.159   6.481   0.866  2.8507  0.6360  4.8657
  348MOL0     H45909   1.122   6.465   1.023 -0.4111 -0.3760 -0.3996
  348MOL0     H45910   0.890   6.378   0.979 -0.0521  0.6207 -0.9351
  348MOL0     H45911   1.014   6.288   0.890  2.6719  1.4852  1.3519
  348MOL0     H45912   0.819   6.492   0.751 -0.0320 -0.7984  0.0221
  348MOL0     H45913   0.792   6.327   0.774 -1.5594  1.2880 -0.9909
  348MOL0     H45914   1.056   6.429   0.656 -1.3477 -0.0639 -0.5486
  348MOL0     H45915   0.984   6.268   0.626  2.9760  0.8302  0.4454
  348MOL0     H45916   0.929   6.535   0.501  1.4277  0.2167 -1.2170
  348MOL0     H45917   0.792   6.418   0.517  0.9233 -4.0142  2.2847
  348MOL0     H45918   1.168   7.142   1.164  1.5819  0.2714  0.5332
  348MOL0     H45919   1.362   7.275   1.137 -3.0826  2.7174 -2.1282
  348MOL0     H45920   1.745   7.335   1.115  0.6277  2.2263  2.6517
  348MOL0     H45921   1.915   7.498   1.163  1.0621  2.3863 -0.6210
  348MOL0     H45922   3.490   8.181   1.871 -0.6488  0.8390  0.9962
  348MOL0     H45923   3.729   8.225   1.814 -2.0636 -0.6758 -0.3846
  348MOL0     H45924   4.069   8.198   1.516  1.9810 -0.1088 -0.7274
  348MOL0     H45925   4.304   8.223   1.494 -1.5508 -0.6547 -0.5150
  348MOL0     H45926   4.487   8.420   1.421 -1.2276  2.3198  0.6435
  348MOL0     H45927   4.533   8.270   1.505 -0.9256  0.6170 -1.0124
  348MOL0     H45928   4.666   8.507   1.451  1.5222  0.8978 -0.5209
  348MOL0     H45929   4.667   8.492   1.626 -1.6637 -0.9541  0.4625
  348MOL0     H45930   4.742   8.231   1.534  1.3330 -0.1695  0.5827
  348MOL0     H45931   4.852   8.352   1.605  1.6007 -1.4728 -1.0789
  348MOL0     H45932   4.925   8.406   1.388  1.4373 -0.9819  1.1234
  348MOL0     H45933   4.927   8.233   1.382 -0.0611 -0.4103  1.9017
  348MOL0     H45934   4.649   8.360   1.086  1.6423  2.0017 -0.7260
  348MOL0     H45935   4.293   8.555   1.768  0.7820 -0.8964  1.0604
  348MOL0     H45936   4.043   8.529   1.782 -0.7422  3.0631 -2.5194
  349MOL0     O45937   1.543   7.858   8.546 -0.3086  0.9164 -0.2908
  349MOL0     C45938   1.561   7.840   8.428  0.2560 -0.1197 -0.2157
  349MOL0     O45939   1.501   7.751   8.346 -0.3264 -0.0467 -0.1664
  349MOL0     C45940   1.400   7.670   8.396 -1.1990 -0.5678  0.2900
  349MOL0     C45941   1.272   7.718   8.401  0.0781  0.8823  0.0808
  349MOL0     C45942   1.177   7.631   8.455 -0.0897 -0.0703 -0.2621
  349MOL0     C45943   1.212   7.513   8.527  0.0034  0.3024 -0.3160
  349MOL0     O45944   1.136   7.425   8.596  0.3428 -0.4629  0.0847
  349MOL0     C45945   0.991   7.430   8.567 -0.9232  0.5795  0.0090
  349MOL0     C45946   0.922   7.312   8.633  0.5366  0.6680 -0.0232
  349MOL0     C45947   0.769   7.326   8.601  0.4006  0.6691 -0.3105
  349MOL0     C45948   0.685   7.224   8.684 -0.4206  0.0088 -0.3607
  349MOL0     C45949   0.539   7.234   8.636  0.5697  0.5324  0.5050
  349MOL0     C45950   0.430   7.157   8.722 -0.1115  0.8785  0.1480
  349MOL0     C45951   0.466   7.013   8.725  0.6082 -0.0513 -0.2724
  349MOL0     C45952   0.401   6.935   8.609  0.4208 -0.2179 -0.0967
  349MOL0     N45953   0.467   6.798   8.598  0.0129  0.2508 -1.1772
  349MOL0     C45954   0.432   6.688   8.676  0.5840 -0.6647  0.1966
  349MOL0     C45955   0.499   6.579   8.623  0.2144 -0.0866 -0.3363
  349MOL0     C45956   0.509   6.443   8.700  0.1875 -0.2421 -0.6959
  349MOL0     C45957   0.406   6.342   8.666 -0.1838  0.4654 -0.1661
  349MOL0     C45958   0.263   6.398   8.707  0.6060  0.3090  1.4688
  349MOL0     C45959   0.204   6.471   8.587  0.6717 -0.3549  0.8258
  349MOL0     O45960   0.066   6.462   8.618  0.3744 -0.5002  1.4196
  349MOL0     C45961  -0.015   6.514   8.516 -0.8644 -0.1383  0.5674
  349MOL0     C45962  -0.138   6.563   8.546  0.4250 -0.8575  0.4032
  349MOL0     C45963  -0.222   6.627   8.449 -0.8159 -0.0796 -1.3490
  349MOL0     C45964  -0.181   6.618   8.318  0.2322 -0.1389  0.3146
  349MOL0     C45965  -0.279   6.662   8.217  0.0137 -0.0874 -0.1318
  349MOL0     O45966  -0.290   6.602   8.097 -0.7613  0.0360 -0.4708
  349MOL0     C45967  -0.382   6.646   8.014  0.0012  0.1918 -0.0585
  349MOL0     C45968  -0.395   6.784   7.984  0.6383 -0.2571 -0.4289
  349MOL0     C45969  -0.493   6.823   7.898 -0.3908 -0.0175 -0.9750
  349MOL0     C45970  -0.599   6.736   7.864  0.2692 -0.5740  0.3862
  349MOL0     O45971  -0.721   6.767   7.800 -0.5731  0.2559 -0.7841
  349MOL0     C45972  -0.753   6.901   7.776  0.1485 -0.8837  0.4867
  349MOL0     C45973  -0.851   6.915   7.657 -0.6474  0.7628  0.1668
  349MOL0     C45974  -0.879   7.064   7.622 -0.0098  0.1252 -0.4444
  349MOL0     C45975  -0.753   7.132   7.547  0.2230  0.7933 -1.1284
  349MOL0     C45976  -0.727   7.271   7.620  0.4766  0.1411  0.0846
  349MOL0     C45977  -0.828   7.381   7.591  0.6046  0.5226  0.2944
  349MOL0     C45978  -0.785   7.509   7.663  1.4032  0.3765 -0.4154
  349MOL0     C45979  -0.874   7.623   7.604 -0.5100 -0.7548 -0.9479
  349MOL0    Cl45980  -0.868   7.616   7.429 -0.1426 -0.1075 -0.0746
  349MOL0     C45981  -0.578   6.602   7.890  0.1267 -0.3469 -0.4115
  349MOL0     C45982  -0.470   6.555   7.962 -0.5994 -0.4041 -0.6533
  349MOL0     O45983  -0.345   6.754   8.256 -0.1408 -0.0351  0.3274
  349MOL0     C45984  -0.069   6.545   8.281  0.5145 -0.5979 -0.8420
  349MOL0     C45985   0.013   6.503   8.381 -0.3620 -0.5637  0.7164
  349MOL0     N45986   0.586   6.624   8.515  0.8985 -0.1663  0.9759
  349MOL0     N45987   0.547   6.749   8.496  0.0298 -0.7284  0.0736
  349MOL0     C45988   1.345   7.476   8.522 -1.3769 -0.3033  0.6096
  349MOL0     C45989   1.439   7.544   8.449  0.1491 -0.3102  0.0427
  349MOL0     C45990   1.644   7.935   8.354  0.0702 -0.2206  0.3306
  349MOL0     C45991   1.731   8.031   8.408  0.2000  1.3726 -0.2726
  349MOL0     C45992   1.825   8.111   8.332  0.7397  0.3333 -0.1069
  349MOL0     C45993   1.825   8.106   8.190  0.5953 -0.5582  0.7481
  349MOL0     O45994   1.898   8.191   8.106  0.8867  0.1506 -0.3302
  349MOL0     C45995   1.946   8.317   8.141  0.2915  0.4022  0.5120
  349MOL0     C45996   2.045   8.362   8.035  0.4834 -0.1373  1.5367
  349MOL0     C45997   2.162   8.269   8.023  0.5289  0.5811 -0.0474
  349MOL0     C45998   2.250   8.265   8.150 -0.2795 -1.1345 -0.7237
  349MOL0     C45999   2.332   8.391   8.146  0.2189 -0.2296 -0.2866
  349MOL0     C46000   2.387   8.498   8.128  0.2617 -1.0717  0.1154
  349MOL0     C46001   1.723   8.024   8.134  0.1995 -0.2335  0.5136
  349MOL0     C46002   1.637   7.941   8.208 -0.7468  0.5561 -1.0460
  349MOL0     H46003   1.245   7.823   8.392 -1.1353  0.6963  1.2006
  349MOL0     H46004   1.079   7.676   8.463 -1.1100 -1.6129 -2.7998
  349MOL0     H46005   0.974   7.429   8.459 -4.0728 -3.8138  0.2880
  349MOL0     H46006   0.949   7.520   8.612  2.4563  1.5003  1.6544
  349MOL0     H46007   0.940   7.322   8.741 -2.5275 -2.0662  0.9247
  349MOL0     H46008   0.964   7.216   8.602 -1.0999 -0.1964  0.2998
  349MOL0     H46009   0.758   7.310   8.493  2.3468  3.0230 -0.9504
  349MOL0     H46010   0.727   7.426   8.618 -4.1275 -1.0534 -0.1212
  349MOL0     H46011   0.732   7.129   8.660 -0.4503 -0.6903  2.0932
  349MOL0     H46012   0.691   7.245   8.791  2.4170 -3.1026  0.2408
  349MOL0     H46013   0.535   7.201   8.531  0.3132  0.9289  0.3908
  349MOL0     H46014   0.521   7.342   8.642  2.4463  0.7735  4.7968
  349MOL0     H46015   0.331   7.188   8.687 -0.6806 -2.4822 -1.6853
  349MOL0     H46016   0.430   7.194   8.824  0.4789 -3.1991  1.8355
  349MOL0     H46017   0.568   6.999   8.687 -0.3664 -1.2565 -2.5961
  349MOL0     H46018   0.439   6.990   8.829 -2.7264  1.4023 -0.6919
  349MOL0     H46019   0.434   6.995   8.523  1.3713 -2.4676 -1.3790
  349MOL0     H46020   0.292   6.947   8.617  0.8308  2.7331  4.1013
  349MOL0     H46021   0.363   6.688   8.760 -0.7336 -0.4243 -0.8485
  349MOL0     H46022   0.499   6.469   8.806  0.2221 -1.7064 -0.3177
  349MOL0     H46023   0.612   6.412   8.677 -0.4993 -1.3968 -2.4234
  349MOL0     H46024   0.420   6.260   8.736 -0.7928 -0.2989 -0.9229
  349MOL0     H46025   0.409   6.294   8.567 -1.6424 -1.5585  0.7096
  349MOL0     H46026   0.208   6.308   8.736  1.9244 -1.8727 -2.1303
  349MOL0     H46027   0.267   6.467   8.792  0.9131  2.1471  0.0113
  349MOL0     H46028   0.238   6.414   8.500  3.3130 -0.4129  1.8031
  349MOL0     H46029   0.246   6.570   8.568 -0.5509 -0.2549 -1.7364
  349MOL0     H46030  -0.160   6.562   8.652  1.0555  0.7378  0.5806
  349MOL0     H46031  -0.313   6.666   8.493  0.2611  0.2526  0.7359
  349MOL0     H46032  -0.320   6.854   8.020 -0.6799 -0.3163  2.8104
  349MOL0     H46033  -0.492   6.927   7.866 -0.0987  1.0234  2.0890
  349MOL0     H46034  -0.661   6.958   7.755 -0.8640  0.8375  0.5174
  349MOL0     H46035  -0.793   6.951   7.865 -0.0877 -1.9181  0.9763
  349MOL0     H46036  -0.947   6.867   7.680  0.1589 -0.6107  0.7745
  349MOL0     H46037  -0.820   6.861   7.567  1.2378  2.1191 -0.0644
  349MOL0     H46038  -0.902   7.125   7.710 -2.2598  3.6858 -3.2233
  349MOL0     H46039  -0.971   7.075   7.564 -1.9487  0.5101  2.5305
  349MOL0     H46040  -0.674   7.057   7.541 -2.4749 -2.1812 -1.7512
  349MOL0     H46041  -0.776   7.155   7.442 -2.6267 -1.2199 -1.0493
  349MOL0     H46042  -0.629   7.306   7.585  1.0050 -1.2621  0.0577
  349MOL0     H46043  -0.735   7.243   7.725 -3.4131 -1.7920 -0.5325
  349MOL0     H46044  -0.931   7.359   7.620  0.2342 -0.4796 -1.6220
  349MOL0     H46045  -0.824   7.390   7.482 -1.2179  1.8681  0.2978
  349MOL0     H46046  -0.812   7.502   7.768 -0.3181  1.7499 -0.7321
  349MOL0     H46047  -0.679   7.536   7.650  0.9098  2.0782 -1.1579
  349MOL0     H46048  -0.842   7.725   7.628  0.5251 -0.4535 -3.3284
  349MOL0     H46049  -0.980   7.608   7.629 -0.0553 -1.9753  0.4121
  349MOL0     H46050  -0.644   6.527   7.849 -1.5586  0.4279  0.7729
  349MOL0     H46051  -0.440   6.451   7.964 -0.8692 -0.4879 -0.7878
  349MOL0     H46052  -0.039   6.540   8.176  0.4119 -0.5850 -0.8720
  349MOL0     H46053   0.108   6.460   8.352 -1.1152 -0.3770 -2.4484
  349MOL0     H46054   1.366   7.383   8.576 -2.2942 -1.7076 -1.3218
  349MOL0     H46055   1.542   7.509   8.445 -0.3251 -1.7425 -0.0707
  349MOL0     H46056   1.732   8.050   8.515  1.3352  2.3940 -0.4377
  349MOL0     H46057   1.885   8.179   8.392  0.5725 -1.2420  1.9944
  349MOL0     H46058   1.979   8.320   8.245 -3.7318  0.6201  1.9461
  349MOL0     H46059   1.860   8.386   8.143 -0.7149 -0.7717 -0.6158
  349MOL0     H46060   1.998   8.366   7.936 -0.1914  1.3612  1.8973
  349MOL0     H46061   2.069   8.467   8.057 -0.0537  0.0668  1.1656
  349MOL0     H46062   2.233   8.300   7.946  1.3907  0.1643  0.5676
  349MOL0     H46063   2.122   8.172   7.993 -0.6184  1.1340 -0.3718
  349MOL0     H46064   2.184   8.265   8.237 -0.0446  2.7970 -0.3894
  349MOL0     H46065   2.320   8.181   8.144 -0.7041 -1.4368 -1.7400
  349MOL0     H46066   2.436   8.594   8.131 -0.6888 -0.5838  1.8954
  349MOL0     H46067   1.723   8.022   8.026 -0.0079  1.4774  0.4600
  349MOL0     H46068   1.568   7.872   8.159 -0.6217 -1.0730  0.9243
  350MOL0     O46069   5.997   1.304   0.919 -0.2543  0.4233  0.2492
  350MOL0     C46070   6.086   1.260   0.844 -0.1466 -0.0355  0.1497
  350MOL0     O46071   6.094   1.276   0.710 -0.7198 -0.2944  0.0970
  350MOL0     C46072   5.990   1.358   0.658 -0.2368 -0.1838 -0.3366
  350MOL0     C46073   6.009   1.471   0.577 -0.9838  0.0470  0.0496
  350MOL0     C46074   5.906   1.535   0.512 -0.0485 -0.7073  1.0082
  350MOL0     C46075   5.770   1.494   0.548  0.2005 -0.6542  0.0412
  350MOL0     O46076   5.665   1.572   0.510  0.1439  0.1839  0.2342
  350MOL0     C46077   5.687   1.659   0.399 -0.3214 -0.9205 -0.0688
  350MOL0     C46078   5.553   1.736   0.351  0.2126 -0.1835  0.0451
  350MOL0     C46079   5.452   1.647   0.286 -0.4699  0.0980  0.0616
  350MOL0     C46080   5.324   1.720   0.239  0.3114  0.9192 -0.4236
  350MOL0     C46081   5.234   1.634   0.142  0.2158  0.9898  0.8623
  350MOL0     C46082   5.117   1.716   0.078 -0.4155  0.5719 -0.0022
  350MOL0     C46083   5.142   1.854   0.026 -0.2835 -0.5112  0.4126
  350MOL0     C46084   5.140   1.973   0.122 -0.3109 -0.4559 -0.3906
  350MOL0     N46085   5.026   1.981   0.215  0.0823  0.6957  0.1692
  350MOL0     C46086   4.896   2.019   0.189 -0.0606  1.3076  0.8032
  350MOL0     C46087   4.831   2.001   0.304  0.2795 -0.3224 -0.1377
  350MOL0     C46088   4.684   2.024   0.340  0.3641 -0.4525 -0.7247
  350MOL0     C46089   4.662   2.137   0.445  0.4754 -0.9043 -0.5687
  350MOL0     C46090   4.622   2.261   0.370 -0.1070 -0.7825  0.5185
  350MOL0     C46091   4.743   2.310   0.280  0.2029 -0.1045 -0.1679
  350MOL0     O46092   4.723   2.274   0.142 -0.1067  0.0191  0.1958
  350MOL0     C46093   4.658   2.367   0.064  0.4130  0.2533 -0.8538
  350MOL0     C46094   4.676   2.335  -0.074  0.3207  0.0988 -0.3641
  350MOL0     C46095   4.630   2.429  -0.173  0.4424  0.5123  0.3640
  350MOL0     C46096   4.573   2.551  -0.144  1.0164  1.4203  0.7110
  350MOL0     C46097   4.524   2.626  -0.250  0.0815 -0.7033 -0.2176
  350MOL0     O46098   4.441   2.727  -0.217  0.4517 -0.4756  0.6704
  350MOL0     C46099   4.353   2.775  -0.314 -0.7507 -0.5441 -0.4560
  350MOL0     C46100   4.395   2.882  -0.388  0.0625 -0.8173  0.3191
  350MOL0     C46101   4.314   2.938  -0.490  0.0318  0.3534  0.5125
  350MOL0     C46102   4.182   2.882  -0.509  0.6348 -0.2963  0.1011
  350MOL0     O46103   4.096   2.952  -0.591 -0.2379 -0.0878 -0.2698
  350MOL0     C46104   4.101   3.094  -0.617 -1.2547  0.1946  0.5593
  350MOL0     C46105   3.986   3.154  -0.693  0.2087 -0.0912 -0.1022
  350MOL0     C46106   3.859   3.133  -0.609 -0.5263  0.6030  0.9381
  350MOL0     C46107   3.739   3.222  -0.646 -0.6193  0.2415  0.4241
  350MOL0     C46108   3.770   3.370  -0.614 -0.3737 -0.7972 -0.7683
  350MOL0     C46109   3.632   3.435  -0.596  0.5612  0.1290  1.3974
  350MOL0     C46110   3.647   3.592  -0.601 -0.7661 -0.0661  0.4735
  350MOL0     C46111   3.515   3.672  -0.592  0.1461  0.5351  1.0075
  350MOL0    Cl46112   3.397   3.603  -0.715 -0.2773  0.0161  0.7951
  350MOL0     C46113   4.144   2.769  -0.436 -0.0699 -0.0335 -0.0015
  350MOL0     C46114   4.225   2.708  -0.340  0.4923 -0.9486  0.1941
  350MOL0     O46115   4.547   2.601  -0.369  0.0010  0.1082 -0.4887
  350MOL0     C46116   4.564   2.578  -0.006  1.5256 -0.0540  0.6205
  350MOL0     C46117   4.599   2.492   0.096  0.8121  0.7788 -0.4042
  350MOL0     N46118   4.926   1.960   0.396  0.4776 -0.2053  0.6894
  350MOL0     N46119   5.038   1.950   0.347  0.0327  1.1657 -0.6811
  350MOL0     C46120   5.748   1.380   0.623 -0.4420 -0.9216  0.5995
  350MOL0     C46121   5.860   1.304   0.663  0.2618 -0.6777 -0.1117
  350MOL0     C46122   6.202   1.177   0.914 -0.9220  0.2668 -0.3830
  350MOL0     C46123   6.290   1.110   0.833 -0.2778 -0.2013  0.5957
  350MOL0     C46124   6.396   1.037   0.894 -0.1886  0.9512  0.1657
  350MOL0     C46125   6.408   1.019   1.027  0.3600 -0.2176  0.4235
  350MOL0     O46126   6.494   0.942   1.101  0.6735 -0.0705  0.0843
  350MOL0     C46127   6.577   0.845   1.036  0.7603 -0.8957 -0.2426
  350MOL0     C46128   6.511   0.713   0.989  0.3812 -0.5628  0.2493
  350MOL0     C46129   6.409   0.649   1.084 -0.0576  0.3266  0.2590
  350MOL0     C46130   6.356   0.523   1.028  0.0141  0.2589 -0.4375
  350MOL0     C46131   6.435   0.408   1.073  0.1041 -0.1459  0.4426
  350MOL0     C46132   6.497   0.303   1.102  0.3523 -1.1157 -0.1292
  350MOL0     C46133   6.320   1.090   1.103  0.5910 -0.0197  0.8967
  350MOL0     C46134   6.212   1.168   1.055  0.0499  0.4239 -0.2215
  350MOL0     H46135   6.105   1.507   0.542 -1.0813 -0.2419 -0.5341
  350MOL0     H46136   5.930   1.631   0.466  2.7242 -0.6596  2.3418
  350MOL0     H46137   5.733   1.616   0.310 -0.3496  2.6724 -2.0149
  350MOL0     H46138   5.754   1.736   0.440 -3.2279  0.6758  2.0806
  350MOL0     H46139   5.588   1.810   0.279 -0.5633  0.9336  0.7737
  350MOL0     H46140   5.512   1.796   0.433  0.0828  1.6578 -1.2938
  350MOL0     H46141   5.425   1.560   0.346 -0.1434  0.5754  0.9317
  350MOL0     H46142   5.494   1.594   0.200  0.9353 -1.4459  1.6051
  350MOL0     H46143   5.268   1.761   0.323  0.4020 -1.4280  0.8522
  350MOL0     H46144   5.375   1.799   0.183 -0.2411  1.2947 -0.4120
  350MOL0     H46145   5.199   1.540   0.186 -1.0441  0.7647 -0.5188
  350MOL0     H46146   5.298   1.610   0.057 -2.5349 -0.7864 -0.8740
  350MOL0     H46147   5.045   1.715   0.161 -1.2113 -0.0576 -0.6803
  350MOL0     H46148   5.079   1.666  -0.011 -0.2402 -0.5491  0.5348
  350MOL0     H46149   5.235   1.847  -0.030 -0.8112 -0.9455 -0.4124
  350MOL0     H46150   5.065   1.879  -0.047 -0.2067 -2.1995 -0.2854
  350MOL0     H46151   5.155   2.071   0.077  2.6019 -1.4006 -1.7406
  350MOL0     H46152   5.227   1.959   0.188 -1.4963 -4.3740  0.6305
  350MOL0     H46153   4.856   2.041   0.090  1.3201 -0.4012 -0.2047
  350MOL0     H46154   4.641   1.933   0.381 -0.0061  1.3560  3.4277
  350MOL0     H46155   4.627   2.048   0.249 -2.2613  0.3711  1.0378
  350MOL0     H46156   4.757   2.154   0.495  0.8640 -2.2211 -0.8206
  350MOL0     H46157   4.580   2.108   0.512  1.5049 -4.3554 -0.6130
  350MOL0     H46158   4.529   2.248   0.313 -0.7369 -4.7566  2.0764
  350MOL0     H46159   4.591   2.335   0.444 -2.9178 -1.1796 -0.1490
  350MOL0     H46160   4.845   2.273   0.298  0.1261 -0.5581 -0.6622
  350MOL0     H46161   4.740   2.419   0.285 -0.5236  0.0327 -2.5836
  350MOL0     H46162   4.732   2.246  -0.103 -1.2695 -1.3344  0.7790
  350MOL0     H46163   4.635   2.396  -0.277  2.4027  3.0678 -0.4515
  350MOL0     H46164   4.491   2.929  -0.366 -0.4390 -1.2977  4.0446
  350MOL0     H46165   4.342   3.025  -0.550  3.0132 -1.2200 -0.5402
  350MOL0     H46166   4.195   3.123  -0.665  0.1898 -3.5148  0.8135
  350MOL0     H46167   4.103   3.153  -0.525  0.3919  1.8055 -0.4353
  350MOL0     H46168   3.978   3.109  -0.792  0.3784  1.6677 -0.9567
  350MOL0     H46169   3.993   3.263  -0.701 -0.0972  0.0159  0.9279
  350MOL0     H46170   3.895   3.144  -0.506 -0.8597  1.0823  1.0050
  350MOL0     H46171   3.834   3.029  -0.630  0.9221  0.6319 -1.2618
  350MOL0     H46172   3.721   3.209  -0.753  1.7794  0.9792 -0.1381
  350MOL0     H46173   3.663   3.180  -0.579 -0.4116  0.8977  1.0874
  350MOL0     H46174   3.825   3.421  -0.693  2.8352  1.0938  2.3618
  350MOL0     H46175   3.828   3.380  -0.521  0.4532  1.8774 -1.4877
  350MOL0     H46176   3.581   3.411  -0.502 -0.7093 -1.7269  0.3171
  350MOL0     H46177   3.564   3.413  -0.679 -0.5386 -0.0776  2.3220
  350MOL0     H46178   3.714   3.633  -0.524  0.3833  2.8529 -1.8943
  350MOL0     H46179   3.706   3.610  -0.691 -0.3838 -0.0041  0.7326
  350MOL0     H46180   3.531   3.775  -0.624 -0.3831  0.3416  0.0748
  350MOL0     H46181   3.476   3.671  -0.490 -1.8174  2.3335  0.3320
  350MOL0     H46182   4.046   2.728  -0.458 -0.7380  1.5475 -0.1160
  350MOL0     H46183   4.198   2.624  -0.277 -1.3855 -0.3288  0.2877
  350MOL0     H46184   4.523   2.674   0.025 -1.7956 -0.2122 -2.5683
  350MOL0     H46185   4.585   2.513   0.202 -3.2810 -4.1622  0.3915
  350MOL0     H46186   5.641   1.360   0.624 -0.5232 -1.0538 -2.1843
  350MOL0     H46187   5.854   1.206   0.710  0.5850 -0.5104  0.2837
  350MOL0     H46188   6.278   1.106   0.725 -0.4632  0.5482  0.5818
  350MOL0     H46189   6.443   0.971   0.822 -0.9299 -0.0377  0.5572
  350MOL0     H46190   6.651   0.811   1.110  1.0242  0.4893  0.1500
  350MOL0     H46191   6.631   0.900   0.959 -1.5773 -2.4262 -3.1706
  350MOL0     H46192   6.452   0.734   0.899 -1.5625 -1.6011  1.2173
  350MOL0     H46193   6.590   0.648   0.951 -1.6411 -2.8479 -0.2971
  350MOL0     H46194   6.322   0.715   1.095 -0.8278 -0.5880 -0.1911
  350MOL0     H46195   6.452   0.642   1.184 -2.0825  1.0331  1.2424
  350MOL0     H46196   6.252   0.510   1.058  0.9406 -2.9599  1.9453
  350MOL0     H46197   6.366   0.528   0.919 -1.1642  1.1294 -0.5270
  350MOL0     H46198   6.561   0.220   1.125  1.3397 -0.0716  0.9805
  350MOL0     H46199   6.336   1.083   1.210  2.3360 -2.0915  0.5463
  350MOL0     H46200   6.142   1.205   1.129 -0.2866 -0.5505 -0.0305
  351MOL0     O46201  10.439   0.547   8.529 -0.2786  0.3071 -0.4680
  351MOL0     C46202  10.544   0.585   8.486 -0.8313 -0.3287 -0.5417
  351MOL0     O46203  10.561   0.685   8.384  0.8719  0.0848 -0.6378
  351MOL0     C46204  10.452   0.723   8.308 -0.0348 -0.9407  0.3648
  351MOL0     C46205  10.455   0.712   8.169  0.3035 -0.0287 -0.0910
  351MOL0     C46206  10.347   0.737   8.087 -0.0877 -0.2635 -0.7295
  351MOL0     C46207  10.231   0.794   8.137 -0.4892 -0.2747  0.1929
  351MOL0     O46208  10.121   0.824   8.058  0.0483 -0.4337 -0.1475
  351MOL0     C46209  10.110   0.770   7.924  0.3303 -0.0388 -0.0156
  351MOL0     C46210  10.165   0.867   7.817  0.2908 -0.2247  0.0182
  351MOL0     C46211  10.163   0.801   7.679  0.0895  0.6409 -0.1815
  351MOL0     C46212  10.222   0.899   7.579 -0.1414  0.3245 -0.5087
  351MOL0     C46213  10.214   0.828   7.448  0.2539 -0.4042 -0.1608
  351MOL0     C46214  10.281   0.910   7.330  0.5945 -0.9980  0.2718
  351MOL0     C46215  10.310   0.819   7.211 -0.0329 -1.2971  0.3275
  351MOL0     C46216  10.283   0.891   7.083  0.0839  0.0630 -0.6858
  351MOL0     N46217  10.312   0.805   6.968  0.3705  0.4329 -0.1316
  351MOL0     C46218  10.256   0.684   6.945 -0.8421  0.0111  0.9994
  351MOL0     C46219  10.299   0.648   6.824  0.2973 -0.0383  0.1404
  351MOL0     C46220  10.238   0.532   6.746  0.0091  0.1201  0.3313
  351MOL0     C46221  10.234   0.407   6.814  0.0298  0.1524 -0.1779
  351MOL0     C46222  10.360   0.376   6.876 -0.4398 -0.5665  0.5009
  351MOL0     C46223  10.482   0.378   6.779 -0.0751  0.9960 -0.4211
  351MOL0     O46224  10.603   0.326   6.841 -0.7864 -0.3254  1.1427
  351MOL0     C46225  10.651   0.401   6.944  0.6210  0.6386  0.3402
  351MOL0     C46226  10.741   0.339   7.024 -0.2746  0.7386  0.4923
  351MOL0     C46227  10.790   0.414   7.139  0.2100  0.3285  0.8398
  351MOL0     C46228  10.771   0.550   7.156  0.2551 -0.1990  0.0748
  351MOL0     C46229  10.825   0.619   7.278  0.0481 -0.1896 -0.0314
  351MOL0     O46230  10.802   0.757   7.282 -0.1251  0.0560 -0.7438
  351MOL0     C46231  10.869   0.832   7.375 -0.2352  0.4296  0.4907
  351MOL0     C46232  10.794   0.924   7.455  0.1448  0.2029  0.0749
  351MOL0     C46233  10.864   1.005   7.544  0.0565 -0.2039  0.1933
  351MOL0     C46234  10.999   1.003   7.571 -0.1474  0.3838  1.4336
  351MOL0     O46235  11.061   1.088   7.655 -0.2151 -0.9159 -0.6203
  351MOL0     C46236  11.203   1.055   7.683 -0.9234  0.6600  0.4478
  351MOL0     C46237  11.239   1.118   7.821 -1.1621 -0.9760  0.6754
  351MOL0     C46238  11.213   1.027   7.940 -0.1934  0.1986  0.6945
  351MOL0     C46239  11.069   0.984   7.958 -0.1889  0.4531 -0.2702
  351MOL0     C46240  11.069   0.905   8.095  0.6950 -0.0869 -0.6740
  351MOL0     C46241  10.957   0.796   8.097 -0.3471 -0.6230  0.5071
  351MOL0     C46242  10.824   0.864   8.087  0.2263  0.2539 -0.2390
  351MOL0     C46243  10.774   0.838   7.944  0.3472 -1.0603  0.2000
  351MOL0    Cl46244  10.607   0.904   7.936 -0.2485  0.0568 -0.0714
  351MOL0     C46245  11.062   0.909   7.495  0.1933 -0.0435 -0.0796
  351MOL0     C46246  11.007   0.822   7.402  0.2622 -0.5947 -0.0425
  351MOL0     O46247  10.901   0.561   7.353 -0.7892  0.7788 -0.1985
  351MOL0     C46248  10.690   0.615   7.061 -0.9098  0.2388  0.5909
  351MOL0     C46249  10.630   0.544   6.955  0.1651  0.5659 -0.5943
  351MOL0     N46250  10.398   0.739   6.785 -0.5884 -0.4332 -0.6629
  351MOL0     N46251  10.399   0.833   6.871  1.2729  0.4912  0.1348
  351MOL0     C46252  10.221   0.816   8.276  0.1450 -0.5580 -0.0665
  351MOL0     C46253  10.329   0.780   8.355 -0.5049 -0.3190 -0.0877
  351MOL0     C46254  10.671   0.542   8.561  0.6112 -0.6759 -0.8975
  351MOL0     C46255  10.653   0.443   8.663 -0.1661  0.0984 -0.1702
  351MOL0     C46256  10.766   0.393   8.721 -0.5959  0.6532 -0.9021
  351MOL0     C46257  10.893   0.440   8.693  0.0831 -0.1718 -0.4780
  351MOL0     O46258  11.006   0.397   8.756  0.7152  0.3805  0.0965
  351MOL0     C46259  11.043   0.479   8.868 -0.0996 -0.7561  0.2520
  351MOL0     C46260  11.185   0.432   8.904  0.2426 -0.5417 -0.3066
  351MOL0     C46261  11.176   0.289   8.950 -1.4532 -0.3919 -0.0345
  351MOL0     C46262  11.304   0.268   9.034  0.3187 -0.3644 -0.2003
  351MOL0     C46263  11.426   0.271   8.960 -0.1583  0.1727 -0.0506
  351MOL0     C46264  11.521   0.278   8.884 -0.6729 -0.5381 -0.4262
  351MOL0     C46265  10.898   0.553   8.607 -0.4180 -0.2275  0.0472
  351MOL0     C46266  10.793   0.603   8.537 -0.9695  0.6974  0.0959
  351MOL0     H46267  10.543   0.675   8.116  0.7324 -0.5560  0.9467
  351MOL0     H46268  10.353   0.711   7.982 -0.4373  2.5748 -1.5482
  351MOL0     H46269  10.006   0.738   7.908 -0.9397  3.4143  0.4527
  351MOL0     H46270  10.159   0.672   7.920 -0.8105 -0.7102  1.4186
  351MOL0     H46271  10.263   0.906   7.846 -1.1544  4.6363 -0.6855
  351MOL0     H46272  10.099   0.954   7.807  0.2327 -0.1579  0.9285
  351MOL0     H46273  10.064   0.774   7.643  0.8807  1.6005 -3.4239
  351MOL0     H46274  10.213   0.704   7.684 -3.1061 -1.0580  1.9927
  351MOL0     H46275  10.147   0.978   7.569 -0.8777 -0.4397 -1.2071
  351MOL0     H46276  10.326   0.925   7.600  0.9582 -0.8012 -3.8669
  351MOL0     H46277  10.110   0.809   7.420  0.1390 -2.8626  1.6527
  351MOL0     H46278  10.266   0.733   7.465  0.1747 -0.5554 -0.7386
  351MOL0     H46279  10.365   0.968   7.367 -2.7422  3.1290  2.1131
  351MOL0     H46280  10.202   0.979   7.298 -0.2831 -1.4962  1.3129
  351MOL0     H46281  10.416   0.793   7.203 -0.4368 -2.4543 -2.4349
  351MOL0     H46282  10.248   0.729   7.219 -1.0797 -0.7720 -1.3623
  351MOL0     H46283  10.335   0.987   7.074  0.6478  0.1249  2.1366
  351MOL0     H46284  10.175   0.908   7.083 -0.0524 -0.7740 -0.2907
  351MOL0     H46285  10.194   0.629   7.016  0.8411 -0.5355  2.1022
  351MOL0     H46286  10.306   0.528   6.661  2.9112  1.8527  2.3671
  351MOL0     H46287  10.141   0.557   6.701  0.3359  3.0811  1.0636
  351MOL0     H46288  10.201   0.327   6.747 -0.1647 -0.3679  0.5348
  351MOL0     H46289  10.156   0.412   6.890  0.4528 -1.3508  0.3789
  351MOL0     H46290  10.382   0.442   6.961 -0.5051 -1.4188  1.1908
  351MOL0     H46291  10.357   0.277   6.921  1.1080 -2.5671 -3.3106
  351MOL0     H46292  10.506   0.473   6.731  1.2095  0.4712 -0.8388
  351MOL0     H46293  10.459   0.299   6.707 -0.0056 -1.7136  2.3382
  351MOL0     H46294  10.747   0.231   7.015  0.7553  0.9436 -2.6045
  351MOL0     H46295  10.860   0.364   7.206 -1.0533  0.8009  2.5581
  351MOL0     H46296  10.690   0.949   7.440 -0.4991 -1.8935  0.7822
  351MOL0     H46297  10.812   1.092   7.581  0.1860  0.0798 -0.2823
  351MOL0     H46298  11.272   1.077   7.600  0.0748 -0.0831  1.0528
  351MOL0     H46299  11.215   0.947   7.692 -1.0320  0.3801 -1.9982
  351MOL0     H46300  11.185   1.212   7.837  3.6607  2.5157 -1.0608
  351MOL0     H46301  11.346   1.136   7.822 -0.9065 -2.3806  0.6934
  351MOL0     H46302  11.244   1.065   8.038 -1.4090  1.5736  0.5791
  351MOL0     H46303  11.277   0.940   7.928 -0.8494 -0.1511 -0.3751
  351MOL0     H46304  10.997   1.066   7.968 -0.9832 -0.1106 -1.1960
  351MOL0     H46305  11.040   0.939   7.863  2.1218  2.4145 -2.0671
  351MOL0     H46306  11.050   0.983   8.169 -1.5763  0.4138 -1.6947
  351MOL0     H46307  11.165   0.860   8.121  1.7339 -0.4449 -4.5183
  351MOL0     H46308  10.967   0.754   8.197  1.6336 -1.6430 -0.0463
  351MOL0     H46309  10.978   0.713   8.028  1.8335  0.3856 -0.1546
  351MOL0     H46310  10.759   0.804   8.152  2.2692 -1.6039  0.2258
  351MOL0     H46311  10.835   0.966   8.124 -0.0282  1.0808 -2.3263
  351MOL0     H46312  10.760   0.732   7.916 -1.8858 -0.1199 -2.9071
  351MOL0     H46313  10.828   0.881   7.859 -1.7554  1.9163  0.2170
  351MOL0     H46314  11.167   0.881   7.496  0.1555 -0.1908 -0.1401
  351MOL0     H46315  11.061   0.750   7.341 -4.5154 -2.9303 -2.1044
  351MOL0     H46316  10.666   0.720   7.059  0.2036  0.5201 -1.6304
  351MOL0     H46317  10.576   0.601   6.880 -2.7169 -2.6105 -1.1719
  351MOL0     H46318  10.137   0.862   8.327  0.0896  1.5845 -1.9041
  351MOL0     H46319  10.322   0.793   8.463  0.3162 -0.1607 -0.0508
  351MOL0     H46320  10.555   0.408   8.695 -2.0212  3.0312 -2.1463
  351MOL0     H46321  10.771   0.318   8.799  0.0989 -0.9280 -2.4077
  351MOL0     H46322  10.984   0.468   8.959  0.4433  0.8959  0.8383
  351MOL0     H46323  11.053   0.586   8.850  0.2152 -0.8369 -0.0734
  351MOL0     H46324  11.252   0.441   8.818  0.2959 -1.5355 -0.3735
  351MOL0     H46325  11.224   0.506   8.974  1.2515  2.6909 -3.8839
  351MOL0     H46326  11.179   0.218   8.867  1.0912 -1.3030  0.7343
  351MOL0     H46327  11.084   0.271   9.005 -1.7972  3.7942  1.0983
  351MOL0     H46328  11.320   0.346   9.110 -1.0638  0.0513 -0.3109
  351MOL0     H46329  11.289   0.174   9.087 -0.6674  1.1518  2.4164
  351MOL0     H46330  11.613   0.285   8.830 -1.1947 -4.0710 -2.0899
  351MOL0     H46331  10.991   0.609   8.596 -0.4816  0.1637  1.4090
  351MOL0     H46332  10.819   0.679   8.464  1.1955 -1.4132 -1.4965
  352MOL0     O46333   7.137   8.660   6.746  0.2429 -0.0901  0.1511
  352MOL0     C46334   7.077   8.715   6.654 -0.2314 -1.0288 -0.1083
  352MOL0     O46335   7.114   8.731   6.527 -0.1834 -0.5045  0.8165
  352MOL0     C46336   7.244   8.690   6.490 -0.5836 -0.0533  1.1375
  352MOL0     C46337   7.280   8.561   6.505  0.1171  1.1578  0.0002
  352MOL0     C46338   7.416   8.518   6.496  0.3040  0.3357 -0.6157
  352MOL0     C46339   7.515   8.602   6.452 -0.2987  0.4634 -0.7527
  352MOL0     O46340   7.648   8.553   6.435 -0.0650  0.0681  0.7261
  352MOL0     C46341   7.659   8.438   6.345 -0.4975 -0.2832 -0.4586
  352MOL0     C46342   7.764   8.341   6.406  0.3452 -0.7701 -0.7174
  352MOL0     C46343   7.722   8.300   6.546  0.5557 -0.1800  0.7902
  352MOL0     C46344   7.789   8.178   6.602 -0.7684 -0.8266 -0.1082
  352MOL0     C46345   7.727   8.145   6.746  0.3005 -0.3693 -0.1338
  352MOL0     C46346   7.808   8.220   6.854  0.0646  1.1920  0.0923
  352MOL0     C46347   7.769   8.174   6.994  0.2218  0.1266  0.4698
  352MOL0     C46348   7.783   8.023   7.036 -0.0016 -0.2729 -0.7143
  352MOL0     N46349   7.924   7.976   7.062 -1.0171 -0.7127 -0.6593
  352MOL0     C46350   8.015   8.039   7.154  0.2699  0.2429 -0.5267
  352MOL0     C46351   8.127   7.968   7.135 -0.2152  0.1349 -0.0879
  352MOL0     C46352   8.255   7.975   7.219 -0.4132  0.4868 -0.5316
  352MOL0     C46353   8.371   8.008   7.115  0.7123 -0.8546  0.3039
  352MOL0     C46354   8.516   8.033   7.160 -0.5129 -0.1788  0.2471
  352MOL0     C46355   8.580   7.915   7.234 -0.7171  1.0225 -0.5908
  352MOL0     O46356   8.732   7.918   7.224 -0.3067 -0.5703  0.6300
  352MOL0     C46357   8.816   7.856   7.318 -0.0213 -0.3655 -0.3152
  352MOL0     C46358   8.758   7.753   7.394  0.0207 -0.5006  0.1842
  352MOL0     C46359   8.845   7.670   7.473 -0.3180  0.0692 -0.0370
  352MOL0     C46360   8.993   7.689   7.493  0.5717  1.0044  0.8443
  352MOL0     C46361   9.067   7.605   7.596  0.2220  0.3557  0.3842
  352MOL0     O46362   9.196   7.621   7.615 -0.0040 -0.1009  0.1518
  352MOL0     C46363   9.272   7.566   7.708 -0.4660  0.2479 -0.9776
  352MOL0     C46364   9.245   7.463   7.796  0.4582 -0.1488  0.2842
  352MOL0     C46365   9.334   7.412   7.893  0.3905 -0.5850 -0.2946
  352MOL0     C46366   9.457   7.479   7.905  0.9398 -0.2714  0.7340
  352MOL0     O46367   9.570   7.434   7.973  0.7456  0.0281 -0.0028
  352MOL0     C46368   9.550   7.326   8.067 -0.2414  0.1195  0.2420
  352MOL0     C46369   9.683   7.276   8.133  0.3625 -0.3973 -0.0529
  352MOL0     C46370   9.661   7.153   8.219 -0.6958  0.2952  0.5420
  352MOL0     C46371   9.783   7.063   8.223 -0.3206  0.5501  0.0379
  352MOL0     C46372   9.902   7.135   8.283 -0.0138 -0.0508  0.6371
  352MOL0     C46373  10.001   7.034   8.347  0.3560  0.2236 -0.3097
  352MOL0     C46374   9.975   7.022   8.506 -0.8420 -0.5965  0.3517
  352MOL0     C46375  10.024   6.889   8.561 -0.9138 -0.3637 -0.1401
  352MOL0    Cl46376  10.202   6.873   8.556 -0.2177 -0.0213 -0.3891
  352MOL0     C46377   9.491   7.596   7.822 -0.1942  0.4155  0.2438
  352MOL0     C46378   9.403   7.627   7.717 -0.0813  0.6945 -0.3113
  352MOL0     O46379   8.999   7.528   7.665  0.6959  0.1515  0.0824
  352MOL0     C46380   9.039   7.797   7.412 -0.3834 -0.0458  0.1279
  352MOL0     C46381   8.956   7.870   7.327 -0.7529  0.2116  0.4219
  352MOL0     N46382   8.114   7.879   7.033  0.3281  0.3569 -0.5628
  352MOL0     N46383   7.988   7.888   6.984 -0.1159 -0.2026 -0.4742
  352MOL0     C46384   7.474   8.727   6.409  0.2480 -0.2271  0.6788
  352MOL0     C46385   7.341   8.775   6.432  0.5424 -0.1080 -0.1048
  352MOL0     C46386   6.935   8.750   6.693  0.1038  0.3825 -0.0053
  352MOL0     C46387   6.883   8.721   6.822  0.3180  0.5295  0.0662
  352MOL0     C46388   6.746   8.755   6.859 -0.0387 -0.5710 -0.7301
  352MOL0     C46389   6.658   8.806   6.765  0.5546  0.8355 -0.9671
  352MOL0     O46390   6.520   8.820   6.783 -0.4468 -0.2976  0.4665
  352MOL0     C46391   6.457   8.735   6.880  0.6948 -0.4519  0.1806
  352MOL0     C46392   6.315   8.694   6.832  0.9072  0.9692  0.0149
  352MOL0     C46393   6.207   8.797   6.870  0.1964 -0.7912  0.4815
  352MOL0     C46394   6.081   8.735   6.806  0.0155  0.3627  0.3312
  352MOL0     C46395   5.988   8.846   6.831 -0.0493 -0.6300 -0.0986
  352MOL0     C46396   5.922   8.950   6.846 -1.0611  0.0565  1.3408
  352MOL0     C46397   6.710   8.830   6.636  0.4492  0.3464  0.4667
  352MOL0     C46398   6.844   8.802   6.604 -0.1701 -0.2168  0.6527
  352MOL0     H46399   7.217   8.487   6.554  2.6870  0.0371  1.9113
  352MOL0     H46400   7.435   8.413   6.516 -1.1294 -0.2906 -2.3127
  352MOL0     H46401   7.693   8.472   6.246  1.5167 -1.2927 -0.1623
  352MOL0     H46402   7.569   8.377   6.353 -1.1148  0.8404  2.2151
  352MOL0     H46403   7.864   8.386   6.409 -0.2336  0.4981  1.8568
  352MOL0     H46404   7.755   8.257   6.336 -1.6943 -1.8406  0.7494
  352MOL0     H46405   7.615   8.279   6.547  0.8050 -1.5562  0.6086
  352MOL0     H46406   7.749   8.390   6.602  1.5090 -1.2609  2.1378
  352MOL0     H46407   7.784   8.091   6.536  2.3462 -1.2713  0.0796
  352MOL0     H46408   7.897   8.189   6.613 -0.8496 -1.6624  1.9113
  352MOL0     H46409   7.733   8.038   6.769  1.6569 -0.0689  1.0358
  352MOL0     H46410   7.621   8.172   6.758  0.2018 -1.7374  2.9707
  352MOL0     H46411   7.786   8.327   6.847  1.4712  1.4940  0.1969
  352MOL0     H46412   7.915   8.206   6.841  0.0476  1.0481  0.1066
  352MOL0     H46413   7.833   8.216   7.072  0.8716 -0.5389  0.3052
  352MOL0     H46414   7.667   8.208   7.013  0.4642  1.7415 -0.9274
  352MOL0     H46415   7.727   7.965   6.962 -0.3635 -1.6613  0.6117
  352MOL0     H46416   7.725   8.010   7.128 -2.6304 -0.3999 -2.2669
  352MOL0     H46417   7.989   8.115   7.227 -0.4011 -1.3192  0.9193
  352MOL0     H46418   8.272   7.881   7.271  0.2463 -1.8255 -4.4981
  352MOL0     H46419   8.251   8.050   7.298  1.7283  0.2200 -0.1165
  352MOL0     H46420   8.334   8.098   7.064 -3.2983 -0.7609  2.9788
  352MOL0     H46421   8.376   7.916   7.057  3.3001 -0.6641  0.0747
  352MOL0     H46422   8.563   8.041   7.062 -0.4361 -0.5662  0.2489
  352MOL0     H46423   8.520   8.128   7.215  0.3626 -0.2783  0.3715
  352MOL0     H46424   8.559   7.816   7.192 -2.2959 -0.2785  2.9154
  352MOL0     H46425   8.556   7.927   7.340 -3.6065 -2.9121 -0.5446
  352MOL0     H46426   8.655   7.727   7.372  0.8007 -2.4232 -1.6266
  352MOL0     H46427   8.806   7.581   7.522  1.6462 -0.4179  0.7235
  352MOL0     H46428   9.154   7.406   7.776 -1.3297  1.8170  2.3129
  352MOL0     H46429   9.305   7.329   7.958  5.0410 -0.0072  3.0633
  352MOL0     H46430   9.495   7.240   8.027 -1.5643 -0.0505  2.2641
  352MOL0     H46431   9.493   7.368   8.151 -1.3198  0.7446 -0.7708
  352MOL0     H46432   9.729   7.361   8.184 -0.8646  0.1357  0.1999
  352MOL0     H46433   9.748   7.256   8.048  0.5231  1.0611 -0.2974
  352MOL0     H46434   9.579   7.090   8.184 -1.7622  1.2581  1.2503
  352MOL0     H46435   9.625   7.187   8.316 -1.2772 -2.5178  1.3794
  352MOL0     H46436   9.758   6.971   8.276  0.6114 -0.4222 -1.1459
  352MOL0     H46437   9.802   7.028   8.121 -2.9316  0.2308 -0.4332
  352MOL0     H46438   9.865   7.212   8.351 -1.8905  0.0610 -0.4618
  352MOL0     H46439   9.963   7.190   8.211  2.4116  0.4494  2.9158
  352MOL0     H46440  10.097   7.080   8.323 -1.1044  2.1895 -3.0152
  352MOL0     H46441   9.987   6.932   8.313 -0.7944  0.6990 -1.3399
  352MOL0     H46442  10.033   7.104   8.551  2.0635 -1.3135 -1.8148
  352MOL0     H46443   9.866   7.026   8.519 -1.1630 -1.6734 -1.5723
  352MOL0     H46444   9.984   6.806   8.503  0.1677 -1.0735  0.0956
  352MOL0     H46445   9.984   6.865   8.660 -2.0190 -0.2539 -0.5502
  352MOL0     H46446   9.588   7.642   7.837 -0.7715  1.5252  0.6848
  352MOL0     H46447   9.434   7.700   7.643  2.9584  2.7531  2.7012
  352MOL0     H46448   9.141   7.834   7.418 -1.1970  2.1751  1.0169
  352MOL0     H46449   9.006   7.949   7.271 -2.2642 -0.3694 -1.8615
  352MOL0     H46450   7.547   8.790   6.359  0.4743 -1.4673 -0.6249
  352MOL0     H46451   7.290   8.867   6.406 -0.5117 -0.4758  0.6163
  352MOL0     H46452   6.944   8.665   6.893  1.4633  2.1427  0.4038
  352MOL0     H46453   6.714   8.709   6.952  1.0993 -1.0356 -0.5485
  352MOL0     H46454   6.449   8.768   6.984 -0.9941 -3.8364  1.2653
  352MOL0     H46455   6.512   8.641   6.889 -0.1782 -0.7652  5.2139
  352MOL0     H46456   6.317   8.667   6.726 -4.8598  2.3842 -0.7406
  352MOL0     H46457   6.293   8.601   6.886  3.8498 -1.3636 -2.4048
  352MOL0     H46458   6.231   8.897   6.833 -2.2063 -0.7771 -1.2329
  352MOL0     H46459   6.203   8.800   6.979  1.1384  2.3009  0.5228
  352MOL0     H46460   6.089   8.739   6.697  0.6404 -0.6264  0.3230
  352MOL0     H46461   6.056   8.633   6.839 -1.6403 -0.2137 -2.3853
  352MOL0     H46462   5.853   9.032   6.849  0.9760  1.8243  1.6447
  352MOL0     H46463   6.640   8.868   6.563 -4.0553 -1.2367  3.4842
  352MOL0     H46464   6.888   8.803   6.505 -0.9487 -1.6592  0.2594
  353MOL0     O46465   7.198   5.528   6.327 -0.0553  0.7813  0.3993
  353MOL0     C46466   7.265   5.606   6.391  0.8120  0.6770  0.2225
  353MOL0     O46467   7.400   5.626   6.373 -0.0396  0.5318  0.0557
  353MOL0     C46468   7.465   5.530   6.301  1.0358 -0.2510  0.1407
  353MOL0     C46469   7.474   5.397   6.357 -0.1773 -0.9133 -0.1665
  353MOL0     C46470   7.551   5.306   6.294 -1.0625  0.1024  0.3475
  353MOL0     C46471   7.626   5.338   6.185  0.0726  0.2388  0.6974
  353MOL0     O46472   7.705   5.242   6.133  0.1268  0.6777  0.1374
  353MOL0     C46473   7.748   5.235   5.994  0.7572 -0.9368 -0.6436
  353MOL0     C46474   7.750   5.093   5.952  0.1081 -0.1791 -0.3976
  353MOL0     C46475   7.618   5.017   5.960  0.3991  0.1280 -0.8558
  353MOL0     C46476   7.509   5.088   5.866 -0.5531 -0.1281 -0.2109
  353MOL0     C46477   7.410   5.171   5.948  0.0623  0.3255 -0.2671
  353MOL0     C46478   7.349   5.292   5.871  0.4527 -0.6892  0.8796
  353MOL0     C46479   7.257   5.394   5.947 -0.2354 -1.3119  0.4104
  353MOL0     C46480   7.200   5.489   5.836  0.2628  0.4992 -0.6451
  353MOL0     N46481   7.142   5.615   5.901 -0.5023  0.3028  0.5687
  353MOL0     C46482   7.213   5.717   5.958 -0.4301 -0.4329 -0.1444
  353MOL0     C46483   7.127   5.811   5.990  0.1638 -0.3891 -0.4337
  353MOL0     C46484   7.176   5.937   6.061  0.8944 -0.5774  0.0613
  353MOL0     C46485   7.129   5.950   6.205 -0.0553 -0.6631 -0.6570
  353MOL0     C46486   7.089   6.085   6.254  0.1435 -1.2055  0.1695
  353MOL0     C46487   7.190   6.196   6.232 -0.0553 -0.0735  0.9993
  353MOL0     O46488   7.311   6.156   6.299  0.6412 -0.6870  0.0702
  353MOL0     C46489   7.324   6.167   6.429  0.1477 -0.4036 -0.5926
  353MOL0     C46490   7.229   6.243   6.510  0.1800  0.1914 -1.1803
  353MOL0     C46491   7.247   6.237   6.644 -0.0774  0.5039 -0.3920
  353MOL0     C46492   7.337   6.142   6.714 -0.5439 -0.3116 -0.1930
  353MOL0     C46493   7.350   6.135   6.856  0.0273 -0.8862  0.5757
  353MOL0     O46494   7.416   6.037   6.913 -0.3838  0.3372  0.1427
  353MOL0     C46495   7.433   6.026   7.046 -0.6002  0.2870 -0.2822
  353MOL0     C46496   7.557   5.992   7.105 -0.8578  1.2378 -0.6718
  353MOL0     C46497   7.559   5.965   7.240 -0.7706  1.7095 -0.0324
  353MOL0     C46498   7.456   6.004   7.324  0.5594 -0.3301 -0.1858
  353MOL0     O46499   7.479   5.991   7.461  0.1748  0.8372  0.3225
  353MOL0     C46500   7.397   6.062   7.550  0.5832 -0.1242  0.0028
  353MOL0     C46501   7.463   6.089   7.687  0.9131  0.1817 -0.8234
  353MOL0     C46502   7.600   6.154   7.680 -0.2376 -0.1481 -0.0438
  353MOL0     C46503   7.641   6.180   7.823  0.3887  1.1067  0.3634
  353MOL0     C46504   7.780   6.243   7.820 -0.1027  0.5710 -0.3065
  353MOL0     C46505   7.864   6.218   7.951  0.0584 -0.4621 -0.1862
  353MOL0     C46506   7.910   6.074   7.967 -0.0549 -0.7321  0.6558
  353MOL0     C46507   7.975   6.057   8.107  0.7223  0.3532  0.7365
  353MOL0    Cl46508   7.878   6.098   8.257 -0.3939  0.6482 -0.0536
  353MOL0     C46509   7.340   6.048   7.269 -0.7120 -0.0095  0.7895
  353MOL0     C46510   7.324   6.046   7.127  0.0394  0.7315 -0.0155
  353MOL0     O46511   7.304   6.233   6.918 -0.1072  0.0912 -0.2742
  353MOL0     C46512   7.422   6.073   6.627 -0.6741 -0.4062 -0.3425
  353MOL0     C46513   7.421   6.080   6.487  0.3138 -0.7318 -0.3132
  353MOL0     N46514   7.000   5.778   5.943 -0.6830  0.0478  0.2316
  353MOL0     N46515   7.007   5.660   5.898 -0.2171 -0.1208  0.1468
  353MOL0     C46516   7.613   5.467   6.125  0.7293  0.4125 -1.0182
  353MOL0     C46517   7.530   5.555   6.183  1.0256  0.0878 -0.2589
  353MOL0     C46518   7.203   5.676   6.499 -0.3754  0.3246 -0.3933
  353MOL0     C46519   7.291   5.721   6.609  1.5619 -0.4379  0.5937
  353MOL0     C46520   7.243   5.811   6.702  0.0864  0.6158  1.0774
  353MOL0     C46521   7.108   5.838   6.693 -0.3988  0.0987 -0.6799
  353MOL0     O46522   7.062   5.926   6.786  0.0679 -0.2103 -0.6785
  353MOL0     C46523   6.951   5.878   6.877 -0.8391 -0.6935  0.5845
  353MOL0     C46524   6.980   5.745   6.942 -0.2674  0.4238  0.5308
  353MOL0     C46525   7.078   5.765   7.055  0.4780 -0.2622 -0.7856
  353MOL0     C46526   7.151   5.637   7.099 -0.3456  0.4083  0.1529
  353MOL0     C46527   7.223   5.664   7.224  0.0818 -0.3038  0.1655
  353MOL0     C46528   7.288   5.678   7.328 -0.0840 -0.1828 -0.2368
  353MOL0     C46529   7.024   5.800   6.590 -0.4933  0.6430  0.2773
  353MOL0     C46530   7.070   5.714   6.488  0.7988 -1.2098  0.5403
  353MOL0     H46531   7.417   5.360   6.443 -2.7659 -0.2458 -1.4768
  353MOL0     H46532   7.566   5.205   6.330  0.3057  0.3199  0.4502
  353MOL0     H46533   7.853   5.266   5.984  1.0899 -2.1040 -0.9903
  353MOL0     H46534   7.678   5.284   5.927 -0.0726 -1.4842 -0.1968
  353MOL0     H46535   7.838   5.046   5.995 -0.3440  0.4581  1.2962
  353MOL0     H46536   7.768   5.094   5.844  0.6878 -0.6395 -0.3085
  353MOL0     H46537   7.571   5.008   6.058 -2.3843  1.6182 -1.9531
  353MOL0     H46538   7.624   4.912   5.928 -2.8410 -0.6178  0.6007
  353MOL0     H46539   7.559   5.153   5.794  1.1085 -2.0598 -0.8960
  353MOL0     H46540   7.447   5.017   5.811 -0.1256  0.1857 -1.1047
  353MOL0     H46541   7.467   5.214   6.031  0.3158  0.1193 -0.3312
  353MOL0     H46542   7.330   5.114   5.997 -2.5891  2.8021 -1.4278
  353MOL0     H46543   7.276   5.254   5.799 -0.1148 -2.9909  2.5442
  353MOL0     H46544   7.425   5.353   5.822 -2.4616  1.0484 -1.8593
  353MOL0     H46545   7.183   5.331   5.997 -0.7113 -2.4531 -1.6112
  353MOL0     H46546   7.318   5.454   6.015  1.1143 -1.0402 -0.9663
  353MOL0     H46547   7.115   5.448   5.782 -2.4948  2.2695  2.0498
  353MOL0     H46548   7.279   5.517   5.766  4.7201 -1.5351  3.0186
  353MOL0     H46549   7.320   5.729   5.973 -0.8296  2.0610  1.1811
  353MOL0     H46550   7.138   6.011   5.990 -2.1094 -0.7636  1.3120
  353MOL0     H46551   7.284   5.956   6.062  0.8471 -0.2559  1.6040
  353MOL0     H46552   7.209   5.914   6.269  0.1973  0.4588 -0.3089
  353MOL0     H46553   7.043   5.887   6.229 -2.0206  1.6668 -1.0782
  353MOL0     H46554   7.003   6.118   6.194  0.9332 -0.4443 -0.5934
  353MOL0     H46555   7.064   6.070   6.359  0.1441 -0.8129  0.2262
  353MOL0     H46556   7.179   6.301   6.262  4.1129  0.4295  1.4725
  353MOL0     H46557   7.217   6.201   6.126  3.4407  0.7206  1.7782
  353MOL0     H46558   7.147   6.306   6.475  0.4534 -0.8899 -3.9932
  353MOL0     H46559   7.180   6.304   6.696 -2.1246 -1.8793  0.2884
  353MOL0     H46560   7.647   5.973   7.047 -0.8174  1.9587 -0.8502
  353MOL0     H46561   7.649   5.927   7.288 -0.8625  0.4432 -0.8190
  353MOL0     H46562   7.306   6.007   7.575 -0.5117  1.0836 -1.1266
  353MOL0     H46563   7.366   6.155   7.500  0.3804  0.7486  1.6927
  353MOL0     H46564   7.480   5.991   7.732 -0.6350  0.9519  1.5999
  353MOL0     H46565   7.399   6.150   7.751 -0.0947  0.0885 -1.7070
  353MOL0     H46566   7.598   6.255   7.638 -0.5461  0.6565  1.8333
  353MOL0     H46567   7.675   6.089   7.634  0.2441 -0.8041  1.6016
  353MOL0     H46568   7.577   6.243   7.885  0.4217  3.3113 -1.7038
  353MOL0     H46569   7.639   6.080   7.868 -4.4868  1.7023  2.1081
  353MOL0     H46570   7.770   6.347   7.788  0.6544  1.4246  2.0229
  353MOL0     H46571   7.835   6.192   7.741  0.0199  2.5196 -1.5452
  353MOL0     H46572   7.809   6.247   8.041  2.7207  3.2490  0.4467
  353MOL0     H46573   7.948   6.287   7.965 -1.9983  1.4518  6.5356
  353MOL0     H46574   7.819   6.015   7.957 -0.8758  0.8726 -2.5346
  353MOL0     H46575   7.975   6.040   7.885  1.3023  1.9129  0.5056
  353MOL0     H46576   8.071   6.106   8.088  1.0048 -0.2250  0.6494
  353MOL0     H46577   7.997   5.951   8.124  0.0063 -0.9327 -4.5238
  353MOL0     H46578   7.265   6.083   7.339  0.0825  5.5087 -0.6412
  353MOL0     H46579   7.224   6.074   7.096 -0.0685  0.0987 -0.2349
  353MOL0     H46580   7.504   6.022   6.675  0.4867  2.2910  0.7856
  353MOL0     H46581   7.497   6.024   6.433  2.1062  0.7718  0.5207
  353MOL0     H46582   7.669   5.503   6.039 -0.6494  0.7825 -1.8000
  353MOL0     H46583   7.521   5.652   6.135  0.3287 -0.4811 -1.3077
  353MOL0     H46584   7.391   5.678   6.613  1.2952 -1.3918 -1.4507
  353MOL0     H46585   7.306   5.840   6.786  0.3180 -1.1567  1.5751
  353MOL0     H46586   6.859   5.883   6.818 -0.7872 -0.7720  0.4968
  353MOL0     H46587   6.946   5.949   6.960  0.5131 -0.1666  0.2384
  353MOL0     H46588   6.890   5.697   6.983 -0.8353 -1.3780 -2.5058
  353MOL0     H46589   7.027   5.669   6.878  1.3147  0.7872  1.2105
  353MOL0     H46590   7.018   5.801   7.140  0.2327  0.8424 -1.4099
  353MOL0     H46591   7.134   5.855   7.030 -0.9327  0.7459 -0.4181
  353MOL0     H46592   7.090   5.547   7.089  1.8598 -1.3194  1.1188
  353MOL0     H46593   7.232   5.622   7.027 -2.0675  1.6450 -2.1687
  353MOL0     H46594   7.345   5.696   7.416 -1.9504  4.4412  0.3141
  353MOL0     H46595   6.923   5.836   6.580 -0.0842  1.5690 -0.7865
  353MOL0     H46596   7.001   5.680   6.411 -1.6209  4.2767 -0.1987
  354MOL0     O46597   9.176   6.686   8.993  0.1251  0.0613  0.2577
  354MOL0     C46598   9.142   6.804   9.007  0.0135 -0.3047 -0.1339
  354MOL0     O46599   9.221   6.915   9.012  0.0141  0.5461  0.1439
  354MOL0     C46600   9.358   6.892   9.009 -0.7686 -0.2376 -0.6357
  354MOL0     C46601   9.436   6.941   9.113 -0.3233 -0.1748  0.1607
  354MOL0     C46602   9.577   6.947   9.114  0.2329 -0.3524  0.2251
  354MOL0     C46603   9.643   6.870   9.004  0.2996 -0.1617  0.4182
  354MOL0     O46604   9.785   6.862   9.008  0.1610 -0.2725  0.4141
  354MOL0     C46605   9.858   6.838   9.127 -0.3863 -0.2207  0.1360
  354MOL0     C46606   9.995   6.771   9.112 -0.1902 -0.2312  0.4887
  354MOL0     C46607  10.106   6.861   9.048  0.5065  0.3302  0.3922
  354MOL0     C46608  10.236   6.805   9.067 -0.6389 -0.3762 -0.5676
  354MOL0     C46609  10.345   6.895   9.013 -0.6429 -0.0223  0.8534
  354MOL0     C46610  10.485   6.849   9.065  0.4276 -0.4613  0.6897
  354MOL0     C46611  10.607   6.924   9.000  0.5265  0.7162  0.3980
  354MOL0     C46612  10.608   7.074   9.003 -0.2316 -0.0223  0.2643
  354MOL0     N46613  10.589   7.136   9.136 -0.3669  0.0127  0.7813
  354MOL0     C46614  10.470   7.180   9.183  0.4052  0.2977  0.4879
  354MOL0     C46615  10.502   7.240   9.303 -0.3560  0.3685 -0.2946
  354MOL0     C46616  10.405   7.313   9.388  0.4618 -0.9171  0.2754
  354MOL0     C46617  10.356   7.225   9.506  1.1285 -0.7206 -0.2755
  354MOL0     C46618  10.232   7.286   9.584 -0.4739 -0.2902  0.5650
  354MOL0     C46619  10.103   7.225   9.523 -0.0975  0.3792  0.3734
  354MOL0     O46620  10.061   7.281   9.392  0.6119 -0.8057 -1.1098
  354MOL0     C46621   9.921   7.264   9.374 -0.4815  0.2065 -0.2098
  354MOL0     C46622   9.852   7.146   9.408  0.3432  0.2493  0.3091
  354MOL0     C46623   9.711   7.136   9.394 -1.2626 -0.4673 -0.0163
  354MOL0     C46624   9.643   7.248   9.340 -0.1484 -0.4729  0.2212
  354MOL0     C46625   9.502   7.247   9.312  0.0127 -0.3461  0.9987
  354MOL0     O46626   9.461   7.337   9.216 -0.6447  0.0232 -0.2290
  354MOL0     C46627   9.334   7.337   9.182 -0.0791 -0.2609 -0.5698
  354MOL0     C46628   9.226   7.369   9.263  1.2950 -0.0903  0.6478
  354MOL0     C46629   9.095   7.365   9.217  0.5182 -0.3255 -0.5611
  354MOL0     C46630   9.066   7.312   9.092  0.1236  0.3943  0.0993
  354MOL0     O46631   8.931   7.318   9.070 -0.8943 -0.2748  0.9665
  354MOL0     C46632   8.888   7.297   8.929  0.1169 -0.1219  0.2038
  354MOL0     C46633   8.909   7.422   8.843 -0.1664 -0.3484 -0.6908
  354MOL0     C46634   8.799   7.537   8.834 -0.5650  0.1132  0.0460
  354MOL0     C46635   8.667   7.483   8.766 -0.2157 -0.1781 -0.1402
  354MOL0     C46636   8.583   7.602   8.713  0.2667 -0.0406 -0.5126
  354MOL0     C46637   8.645   7.680   8.592  0.1590  0.0273  0.6024
  354MOL0     C46638   8.693   7.603   8.470 -0.6500 -0.0051  0.2871
  354MOL0     C46639   8.602   7.510   8.401  0.6606  0.1433  1.1200
  354MOL0    Cl46640   8.435   7.574   8.364  0.2632  0.0177  0.1066
  354MOL0     C46641   9.177   7.263   9.009 -0.0631  0.5153  0.2977
  354MOL0     C46642   9.310   7.283   9.048 -0.3331  0.1850 -0.3118
  354MOL0     O46643   9.432   7.163   9.365  0.6944  0.3401 -0.0288
  354MOL0     C46644   9.721   7.357   9.294  0.4845  0.3033  0.0111
  354MOL0     C46645   9.858   7.371   9.318 -0.3395  0.1472  0.1187
  354MOL0     N46646  10.644   7.250   9.310 -0.8406  0.5425  0.3055
  354MOL0     N46647  10.692   7.192   9.203 -0.8605  0.3742 -0.3569
  354MOL0     C46648   9.568   6.818   8.902  0.8979  0.1957 -0.0359
  354MOL0     C46649   9.428   6.831   8.901  0.0479  0.7672 -0.4046
  354MOL0     C46650   9.003   6.835   9.038  0.1028 -0.8632 -0.1164
  354MOL0     C46651   8.895   6.747   9.011  0.4034  0.5959  0.3963
  354MOL0     C46652   8.760   6.777   9.047  0.4680 -0.4564  0.2038
  354MOL0     C46653   8.723   6.901   9.097 -0.7865  0.0729 -0.6894
  354MOL0     O46654   8.605   6.936   9.155  0.7333 -0.0929 -0.2487
  354MOL0     C46655   8.522   6.834   9.215  0.2933  1.2795 -0.2570
  354MOL0     C46656   8.418   6.891   9.316  0.0756 -0.2779 -0.0803
  354MOL0     C46657   8.493   6.934   9.443  0.1726 -0.6734 -0.0667
  354MOL0     C46658   8.406   6.959   9.567 -0.5163  0.2728  0.1290
  354MOL0     C46659   8.364   6.829   9.627 -0.0612 -1.2224  1.7331
  354MOL0     C46660   8.333   6.722   9.669  0.5087  0.5314  0.1057
  354MOL0     C46661   8.824   6.999   9.109  0.3204 -0.4724 -0.7446
  354MOL0     C46662   8.958   6.966   9.085  0.9600 -0.4843 -0.9141
  354MOL0     H46663   9.381   6.997   9.188 -3.6908 -3.2963  0.2395
  354MOL0     H46664   9.633   6.969   9.204  0.7102 -1.7579  0.3060
  354MOL0     H46665   9.786   6.797   9.198 -0.8202 -1.8129 -1.1650
  354MOL0     H46666   9.892   6.936   9.160  0.2230 -0.1091 -0.7582
  354MOL0     H46667   9.975   6.678   9.059 -2.2668 -1.0856  2.5829
  354MOL0     H46668  10.019   6.734   9.211 -1.8494 -1.5414  0.4378
  354MOL0     H46669  10.097   6.958   9.097 -1.7529  0.7001 -0.5826
  354MOL0     H46670  10.081   6.862   8.941 -1.5199 -2.6763  0.7008
  354MOL0     H46671  10.242   6.802   9.176  0.6719  3.3675 -0.3787
  354MOL0     H46672  10.249   6.700   9.041 -1.6558 -0.5835 -0.2957
  354MOL0     H46673  10.331   6.994   9.058  1.8085  1.7560 -1.9206
  354MOL0     H46674  10.343   6.902   8.903  0.1882 -0.7309  0.7905
  354MOL0     H46675  10.498   6.745   9.033  0.5305  0.2957 -2.0555
  354MOL0     H46676  10.478   6.859   9.173 -1.2724 -2.0434  0.7913
  354MOL0     H46677  10.693   6.891   9.059  0.8340  0.7424 -0.0340
  354MOL0     H46678  10.619   6.902   8.894  0.9080 -0.0657  0.5971
  354MOL0     H46679  10.538   7.098   8.924 -0.5128 -1.6331 -0.0175
  354MOL0     H46680  10.714   7.094   8.983 -0.0423 -0.0777  1.1447
  354MOL0     H46681  10.379   7.180   9.124  1.6663  2.5396 -1.6358
  354MOL0     H46682  10.314   7.333   9.330  0.0944  2.0153  1.6836
  354MOL0     H46683  10.453   7.403   9.428  0.6582 -0.9318  0.0744
  354MOL0     H46684  10.440   7.226   9.576  1.8109 -1.3188 -1.0767
  354MOL0     H46685  10.326   7.124   9.478  2.2073 -0.6677 -1.6808
  354MOL0     H46686  10.243   7.274   9.692  0.8947  3.6267  1.0319
  354MOL0     H46687  10.246   7.393   9.565  2.4405 -0.4459  1.3036
  354MOL0     H46688  10.033   7.235   9.606  0.5546 -0.4097  1.0411
  354MOL0     H46689  10.125   7.119   9.505 -0.6838  0.6304 -2.3868
  354MOL0     H46690   9.915   7.068   9.449  0.2630  0.4553  0.8424
  354MOL0     H46691   9.658   7.046   9.426 -2.1755 -0.2836 -0.9820
  354MOL0     H46692   9.243   7.404   9.364  0.6225  0.0334  0.7286
  354MOL0     H46693   9.019   7.409   9.280 -0.6310 -0.3595 -1.8799
  354MOL0     H46694   8.784   7.262   8.928  0.1379 -0.7929 -4.4713
  354MOL0     H46695   8.943   7.211   8.888 -0.3302 -1.5600  2.4665
  354MOL0     H46696   8.951   7.386   8.749  3.7071 -0.3028  0.8583
  354MOL0     H46697   8.993   7.479   8.883  1.5630 -2.4589 -1.1117
  354MOL0     H46698   8.848   7.628   8.798  0.6657  0.0931  1.5637
  354MOL0     H46699   8.765   7.564   8.934  1.2984 -1.2472  1.1107
  354MOL0     H46700   8.700   7.426   8.680  0.6318  0.8919 -0.5499
  354MOL0     H46701   8.606   7.417   8.827  2.8790 -1.1255  2.2125
  354MOL0     H46702   8.551   7.667   8.794 -2.1135  0.8816 -2.0887
  354MOL0     H46703   8.484   7.565   8.684 -0.4253  1.4743 -0.1473
  354MOL0     H46704   8.732   7.737   8.624 -1.9769  3.2877  1.0364
  354MOL0     H46705   8.575   7.756   8.556  0.4283 -0.0038 -0.0056
  354MOL0     H46706   8.716   7.670   8.386 -4.2625  0.4808 -0.4672
  354MOL0     H46707   8.779   7.542   8.498 -3.4558 -4.2204  0.5449
  354MOL0     H46708   8.590   7.421   8.464  3.4771 -0.9261  0.2837
  354MOL0     H46709   8.653   7.487   8.308  0.0939  1.6544  0.3918
  354MOL0     H46710   9.155   7.236   8.907  2.6202  0.0304 -0.2268
  354MOL0     H46711   9.398   7.262   8.989  0.0214  0.6028  0.0624
  354MOL0     H46712   9.681   7.448   9.250  0.8441 -0.7640 -2.6793
  354MOL0     H46713   9.922   7.458   9.310 -0.7441  0.2713 -3.3384
  354MOL0     H46714   9.626   6.759   8.831  1.1244 -1.1069  1.1748
  354MOL0     H46715   9.379   6.775   8.822 -1.3790  0.9187  0.3458
  354MOL0     H46716   8.919   6.642   8.991  2.3260  1.2872 -1.3575
  354MOL0     H46717   8.685   6.698   9.043 -0.9728  0.8765 -0.6419
  354MOL0     H46718   8.589   6.771   9.273 -0.6293  2.5658  2.3937
  354MOL0     H46719   8.464   6.769   9.150  0.7063 -1.6373  2.0943
  354MOL0     H46720   8.374   6.976   9.263  0.4663  0.3947  0.6404
  354MOL0     H46721   8.344   6.811   9.324 -1.1382  0.6896 -1.3161
  354MOL0     H46722   8.540   7.030   9.418 -2.7745  0.3699 -2.2892
  354MOL0     H46723   8.572   6.865   9.474  3.3053  1.6587 -2.1479
  354MOL0     H46724   8.460   7.012   9.646  1.8457 -2.1778  0.2729
  354MOL0     H46725   8.315   7.016   9.544 -1.4681 -1.5639 -0.9087
  354MOL0     H46726   8.304   6.629   9.714 -0.8899  1.6884  1.7501
  354MOL0     H46727   8.805   7.096   9.155  0.0801  0.6330 -2.9966
  354MOL0     H46728   9.026   7.049   9.103 -0.1596 -0.0090  1.6752
  355MOL0     O46729   7.192   4.859   5.405 -0.0632  0.3022 -0.9772
  355MOL0     C46730   7.171   4.951   5.323 -1.1200  0.2944 -0.6359
  355MOL0     O46731   7.266   4.998   5.235 -0.2360 -0.1899  0.0769
  355MOL0     C46732   7.393   4.947   5.233 -0.5803  0.2813 -0.3795
  355MOL0     C46733   7.474   4.995   5.331 -0.1845  0.5633  0.3014
  355MOL0     C46734   7.610   4.952   5.339  0.4373  0.0668  0.4394
  355MOL0     C46735   7.657   4.857   5.240  0.1426 -0.1722 -0.1981
  355MOL0     O46736   7.787   4.817   5.229 -0.3285  0.0861  0.8190
  355MOL0     C46737   7.827   4.696   5.290  0.0064  0.3081  0.1968
  355MOL0     C46738   7.954   4.727   5.375 -0.1218  0.1592  0.4335
  355MOL0     C46739   7.940   4.842   5.473  0.8637  0.1080  0.8226
  355MOL0     C46740   8.057   4.875   5.560  0.1614 -0.4408  0.9846
  355MOL0     C46741   8.041   4.993   5.649  0.1416  0.2274 -1.6466
  355MOL0     C46742   8.180   5.033   5.710 -0.2123  0.1895 -0.6207
  355MOL0     C46743   8.180   5.168   5.787 -0.3226  0.4980 -0.4242
  355MOL0     C46744   8.192   5.290   5.691  1.1549  0.4438  0.2139
  355MOL0     N46745   8.318   5.282   5.618  0.4573 -0.5872  0.9531
  355MOL0     C46746   8.445   5.289   5.664  1.4610  0.1859  0.2989
  355MOL0     C46747   8.531   5.273   5.561 -0.0084  0.2577 -0.8601
  355MOL0     C46748   8.686   5.256   5.575  0.8167 -0.3629  0.5838
  355MOL0     C46749   8.727   5.111   5.563  1.1778 -0.0764 -0.0639
  355MOL0     C46750   8.880   5.095   5.558 -0.0054 -0.4498 -0.0953
  355MOL0     C46751   8.925   4.957   5.552 -0.8259  0.1798 -0.0396
  355MOL0     O46752   8.919   4.888   5.682  0.2647 -0.4300  0.2184
  355MOL0     C46753   8.948   4.750   5.677  0.5800  0.0217 -0.1831
  355MOL0     C46754   8.971   4.688   5.803  0.0406  0.6005 -0.8581
  355MOL0     C46755   8.981   4.553   5.809  0.0360 -0.2949  0.1367
  355MOL0     C46756   8.985   4.472   5.693 -1.0350  0.9761  0.5094
  355MOL0     C46757   9.022   4.327   5.707  0.1023  0.5967  0.4366
  355MOL0     O46758   9.021   4.278   5.833 -0.4024 -0.2454  0.2278
  355MOL0     C46759   8.984   4.148   5.854 -0.1265 -0.1738  0.5353
  355MOL0     C46760   9.075   4.057   5.903  0.4959  0.6807  0.6075
  355MOL0     C46761   9.054   3.920   5.906  0.4051  0.2396 -0.5803
  355MOL0     C46762   8.924   3.872   5.872  0.2843 -0.0267 -0.2601
  355MOL0     O46763   8.898   3.745   5.919  0.1853  1.0286 -0.3242
  355MOL0     C46764   8.765   3.721   5.962 -0.2130 -0.8799 -0.9162
  355MOL0     C46765   8.777   3.598   6.040 -0.2190 -0.0922  0.2838
  355MOL0     C46766   8.639   3.571   6.101 -0.5043  0.0753 -0.8254
  355MOL0     C46767   8.612   3.432   6.155 -0.0597 -1.1655  0.4262
  355MOL0     C46768   8.466   3.423   6.213  0.5864 -0.1395 -0.1095
  355MOL0     C46769   8.437   3.507   6.344  0.1822 -1.5425 -0.1293
  355MOL0     C46770   8.523   3.448   6.457  0.4744 -0.0342 -0.3713
  355MOL0     C46771   8.512   3.533   6.595  0.8500  0.0485 -0.1776
  355MOL0    Cl46772   8.593   3.690   6.576 -0.5148  0.1770  0.1407
  355MOL0     C46773   8.830   3.961   5.816 -0.9909 -0.2133  0.8149
  355MOL0     C46774   8.866   4.094   5.813  0.1906 -0.1227  0.0215
  355MOL0     O46775   9.029   4.256   5.608  0.1208  0.1200  0.5346
  355MOL0     C46776   8.971   4.524   5.566 -0.3816 -0.7938 -0.2293
  355MOL0     C46777   8.949   4.664   5.570 -0.1443  0.4643 -0.4075
  355MOL0     N46778   8.454   5.280   5.444 -0.3132  0.0456  0.0497
  355MOL0     N46779   8.323   5.290   5.483 -0.5318  0.1638  0.7908
  355MOL0     C46780   7.573   4.827   5.131  0.2367 -0.0823  0.2331
  355MOL0     C46781   7.440   4.873   5.125 -0.1152  0.3520 -0.9130
  355MOL0     C46782   7.038   5.014   5.328 -0.4272  0.0935  0.0676
  355MOL0     C46783   7.019   5.131   5.257  0.9204 -1.3634  0.1307
  355MOL0     C46784   6.887   5.186   5.267 -0.5126  0.1952  0.7327
  355MOL0     C46785   6.779   5.121   5.325  0.1010 -0.3242 -0.8087
  355MOL0     O46786   6.659   5.185   5.318 -0.2571 -0.2521 -0.4201
  355MOL0     C46787   6.546   5.144   5.394  0.2122 -0.1545  0.3818
  355MOL0     C46788   6.437   5.244   5.370  0.5141  0.1920  0.4235
  355MOL0     C46789   6.315   5.219   5.445 -0.0148  0.5823 -0.6451
  355MOL0     C46790   6.204   5.322   5.424 -0.1097  0.3763 -0.3577
  355MOL0     C46791   6.068   5.267   5.455 -0.2731  0.1450 -0.2537
  355MOL0     C46792   5.957   5.228   5.480 -0.7621 -0.6030  0.1065
  355MOL0     C46793   6.805   4.997   5.395 -0.0764  0.9553 -0.2059
  355MOL0     C46794   6.934   4.943   5.394  0.0478  0.1918 -0.1765
  355MOL0     H46795   7.437   5.055   5.414 -0.8877 -2.0114  1.9507
  355MOL0     H46796   7.664   5.006   5.417 -0.4323  1.0810  0.3496
  355MOL0     H46797   7.834   4.612   5.220  0.2171  0.5406 -0.0613
  355MOL0     H46798   7.743   4.676   5.358 -1.3451  0.9714 -1.2265
  355MOL0     H46799   8.033   4.757   5.305  0.4460 -1.3930  0.3705
  355MOL0     H46800   7.988   4.637   5.428  0.3448 -1.5019 -2.5069
  355MOL0     H46801   7.858   4.808   5.537 -0.7278 -1.5577 -1.9040
  355MOL0     H46802   7.915   4.935   5.422 -1.5532  0.7568  2.9859
  355MOL0     H46803   8.069   4.785   5.621 -4.4722 -1.1181  1.2779
  355MOL0     H46804   8.143   4.885   5.493 -1.0889 -2.6109 -1.1245
  355MOL0     H46805   7.981   4.959   5.733  1.7125 -2.2541 -1.4343
  355MOL0     H46806   7.988   5.079   5.605 -1.8340 -1.8170 -3.5135
  355MOL0     H46807   8.246   5.034   5.623 -0.0275 -0.2169 -0.4878
  355MOL0     H46808   8.221   4.950   5.769 -1.2303 -0.4663 -0.8138
  355MOL0     H46809   8.083   5.167   5.837 -0.9662 -0.0812 -1.6299
  355MOL0     H46810   8.264   5.153   5.856  0.3513  0.9160 -1.1382
  355MOL0     H46811   8.194   5.387   5.742  1.2831  0.3882  0.3142
  355MOL0     H46812   8.107   5.296   5.622 -1.7202  1.5767  3.5920
  355MOL0     H46813   8.472   5.286   5.769  0.8826  0.9503  0.4814
  355MOL0     H46814   8.698   5.293   5.677 -1.5368  1.1394  0.3941
  355MOL0     H46815   8.747   5.323   5.514 -2.7906 -0.3611 -3.4559
  355MOL0     H46816   8.694   5.072   5.466  2.2722 -1.7120  0.1711
  355MOL0     H46817   8.679   5.055   5.643 -1.5407  1.0283 -0.8154
  355MOL0     H46818   8.922   5.156   5.477  1.0554  0.6119  1.2053
  355MOL0     H46819   8.925   5.143   5.646 -1.0827  0.1793  0.1298
  355MOL0     H46820   9.032   4.949   5.529 -0.6486  2.2865 -0.1734
  355MOL0     H46821   8.859   4.906   5.482 -5.9042  2.1998  2.7725
  355MOL0     H46822   8.963   4.757   5.887 -0.8426 -1.2491  0.6598
  355MOL0     H46823   8.994   4.517   5.911 -0.5383  0.4271  0.4673
  355MOL0     H46824   9.172   4.101   5.926  0.6810  0.8614 -0.4357
  355MOL0     H46825   9.128   3.852   5.947 -0.0221  0.0134 -0.1705
  355MOL0     H46826   8.702   3.719   5.872 -1.9422 -1.2276  0.2559
  355MOL0     H46827   8.746   3.798   6.037 -0.1406 -1.9289  0.2000
  355MOL0     H46828   8.856   3.605   6.115  0.7585 -1.6478 -0.5680
  355MOL0     H46829   8.803   3.522   5.966  2.1292 -0.5410  1.4912
  355MOL0     H46830   8.563   3.587   6.024  0.4266  2.4251 -1.3454
  355MOL0     H46831   8.622   3.638   6.186  1.0664 -0.5269  0.0001
  355MOL0     H46832   8.627   3.365   6.070  0.8436  2.2304 -2.2957
  355MOL0     H46833   8.688   3.406   6.230 -0.6163  0.8173  1.7488
  355MOL0     H46834   8.445   3.320   6.241  0.5867 -0.4279 -1.1339
  355MOL0     H46835   8.395   3.458   6.138  1.8460  0.2983 -1.1226
  355MOL0     H46836   8.333   3.499   6.376 -0.7434  4.2220 -0.5853
  355MOL0     H46837   8.458   3.614   6.334  1.5188 -1.7678  0.1136
  355MOL0     H46838   8.484   3.347   6.472  1.5197 -0.3442  0.3787
  355MOL0     H46839   8.627   3.438   6.426  0.0302 -1.9447 -1.4104
  355MOL0     H46840   8.554   3.479   6.681 -3.9051 -0.3251  2.2958
  355MOL0     H46841   8.409   3.550   6.628  0.5834 -0.9527 -0.4488
  355MOL0     H46842   8.725   3.937   5.799 -0.4162 -1.3787 -1.4371
  355MOL0     H46843   8.795   4.169   5.780  3.0401  1.6891 -2.5218
  355MOL0     H46844   8.995   4.473   5.473  3.8229  2.0898 -1.0040
  355MOL0     H46845   8.937   4.704   5.470  1.9850 -0.5817 -1.1679
  355MOL0     H46846   7.607   4.764   5.050 -0.2817 -0.1793  0.0827
  355MOL0     H46847   7.362   4.854   5.052 -3.1935 -1.9702  2.5764
  355MOL0     H46848   7.105   5.175   5.207  0.1821  2.2889  1.7036
  355MOL0     H46849   6.860   5.281   5.222 -1.1176  0.5559  1.8135
  355MOL0     H46850   6.565   5.147   5.501 -1.0287  1.7230  0.5827
  355MOL0     H46851   6.513   5.042   5.371 -1.1716  0.4060 -0.2543
  355MOL0     H46852   6.462   5.349   5.389 -1.7942  1.4793 -2.6253
  355MOL0     H46853   6.412   5.232   5.264 -1.6295 -3.4503  1.1715
  355MOL0     H46854   6.326   5.205   5.553 -3.3792 -1.7009 -0.4240
  355MOL0     H46855   6.276   5.122   5.412 -2.6453  1.7537 -1.2713
  355MOL0     H46856   6.229   5.408   5.486 -2.9340 -0.3796  2.0052
  355MOL0     H46857   6.201   5.358   5.320  0.0708 -1.3736 -1.0124
  355MOL0     H46858   5.855   5.201   5.503 -0.9768 -1.0833 -1.3319
  355MOL0     H46859   6.731   4.949   5.459  2.1677 -2.5106  0.0668
  355MOL0     H46860   6.970   4.857   5.449  2.2148  1.6155  0.7875
  356MOL0     O46861   1.427   9.473   0.813  0.0848 -0.0903 -0.3827
  356MOL0     C46862   1.535   9.466   0.876  0.8112  0.4923 -0.0605
  356MOL0     O46863   1.549   9.397   0.996 -0.3033  0.1153  0.2028
  356MOL0     C46864   1.450   9.324   1.050  0.8536  0.0789 -0.7307
  356MOL0     C46865   1.486   9.227   1.141  0.7103  0.6080 -0.4449
  356MOL0     C46866   1.392   9.134   1.186  0.2437 -0.1945 -0.3810
  356MOL0     C46867   1.255   9.161   1.187  0.2894 -0.5341 -0.0400
  356MOL0     O46868   1.178   9.089   1.262 -0.5699 -0.0125 -0.2633
  356MOL0     C46869   1.039   9.062   1.235  0.1878  0.5193  0.2388
  356MOL0     C46870   0.965   8.977   1.339  0.8683  0.4363  1.4812
  356MOL0     C46871   0.936   9.051   1.472 -0.4313  0.7636 -0.7881
  356MOL0     C46872   0.833   8.974   1.554  0.8390  0.2662 -0.8393
  356MOL0     C46873   0.900   8.865   1.621 -1.5982  0.0710  0.1816
  356MOL0     C46874   0.813   8.735   1.656 -0.2721 -0.5018 -0.3483
  356MOL0     C46875   0.688   8.788   1.745 -0.0440  0.3138 -0.9700
  356MOL0     C46876   0.572   8.686   1.755 -0.3989 -0.5647  0.1426
  356MOL0     N46877   0.588   8.572   1.845 -0.1979  0.2228 -1.0200
  356MOL0     C46878   0.575   8.580   1.979 -0.0360  0.6050 -0.4115
  356MOL0     C46879   0.605   8.456   2.027 -0.3374  0.2694  0.3963
  356MOL0     C46880   0.631   8.401   2.170 -0.1222 -0.7896 -0.0430
  356MOL0     C46881   0.745   8.478   2.242  0.4802  0.5310 -0.5760
  356MOL0     C46882   0.882   8.424   2.192 -0.9092 -0.8790  0.1887
  356MOL0     C46883   0.996   8.530   2.207  0.4056 -0.5033 -0.5991
  356MOL0     O46884   0.975   8.632   2.108 -0.4480 -0.4040  0.2729
  356MOL0     C46885   1.077   8.733   2.102  0.3292 -0.8447 -0.3773
  356MOL0     C46886   1.190   8.747   2.192 -0.4234 -0.0971  0.1926
  356MOL0     C46887   1.276   8.856   2.184 -1.3222  0.8132  0.7209
  356MOL0     C46888   1.264   8.946   2.078 -0.0906 -0.1309  0.1405
  356MOL0     C46889   1.360   9.045   2.052 -0.6135  0.4137 -0.8751
  356MOL0     O46890   1.485   9.024   2.105  0.3227  0.0228 -0.3890
  356MOL0     C46891   1.574   9.128   2.120  0.2163  0.1928  0.0135
  356MOL0     C46892   1.635   9.157   2.238 -0.5742  0.5201 -0.5043
  356MOL0     C46893   1.732   9.264   2.250 -0.5541 -0.6582  1.2641
  356MOL0     C46894   1.755   9.343   2.134 -0.2162  0.9563  0.0056
  356MOL0     O46895   1.844   9.448   2.128 -0.1968 -0.1139  0.0180
  356MOL0     C46896   1.934   9.480   2.238 -0.8341  0.3219  1.1034
  356MOL0     C46897   1.955   9.635   2.211 -0.2218  1.0623  0.3924
  356MOL0     C46898   2.090   9.671   2.158  0.1313  0.6445  0.2395
  356MOL0     C46899   2.147   9.586   2.047 -0.0679  0.1780 -0.8595
  356MOL0     C46900   2.054   9.611   1.923 -0.4579  0.2778  0.0460
  356MOL0     C46901   2.112   9.528   1.806  0.1715  0.1597  0.6352
  356MOL0     C46902   2.063   9.574   1.675  0.0651  0.2561 -0.2924
  356MOL0     C46903   2.091   9.718   1.640 -0.5282  0.0480  0.1556
  356MOL0    Cl46904   2.256   9.758   1.694  0.0254  0.2567  0.0461
  356MOL0     C46905   1.709   9.302   2.010  0.3145  0.0782  0.4521
  356MOL0     C46906   1.608   9.204   2.018  0.1082  0.0992  0.1742
  356MOL0     O46907   1.317   9.142   1.991 -1.1991 -0.0473  0.3959
  356MOL0     C46908   1.148   8.930   1.993 -0.0270  0.0838  0.2484
  356MOL0     C46909   1.059   8.824   2.005 -0.2803 -0.8344  1.4093
  356MOL0     N46910   0.620   8.377   1.917 -0.2076  0.8567  0.0807
  356MOL0     N46911   0.608   8.445   1.806  0.0239  0.5392 -1.3400
  356MOL0     C46912   1.213   9.272   1.112 -0.2604 -0.5660  0.5091
  356MOL0     C46913   1.308   9.352   1.042  0.4606 -0.4742 -0.0297
  356MOL0     C46914   1.645   9.547   0.827  0.8595  0.9601 -0.7217
  356MOL0     C46915   1.625   9.642   0.722  0.4856  0.3480  0.6751
  356MOL0     C46916   1.727   9.717   0.668  0.8347 -0.1212 -0.0730
  356MOL0     C46917   1.858   9.686   0.701  0.2432 -0.0369  0.6512
  356MOL0     O46918   1.955   9.746   0.625  0.6243 -0.0083 -0.4014
  356MOL0     C46919   2.076   9.673   0.622 -1.0581  0.1025 -0.1658
  356MOL0     C46920   2.179   9.738   0.528  0.3630 -0.4895  1.3181
  356MOL0     C46921   2.291   9.641   0.496 -0.1699  0.2032 -0.0978
  356MOL0     C46922   2.397   9.692   0.391  0.1072 -0.6839  0.0268
  356MOL0     C46923   2.479   9.799   0.456 -0.4030  0.3019 -1.1251
  356MOL0     C46924   2.538   9.898   0.502  0.4568 -0.7422 -0.7610
  356MOL0     C46925   1.880   9.590   0.799  1.1780  0.7459  0.7745
  356MOL0     C46926   1.774   9.524   0.867 -0.1467 -0.3810 -0.0588
  356MOL0     H46927   1.587   9.212   1.178 -0.3497 -0.4637  2.3457
  356MOL0     H46928   1.420   9.055   1.254  3.5215 -0.8734 -2.2992
  356MOL0     H46929   1.051   9.000   1.146 -0.6147 -1.6307  1.5265
  356MOL0     H46930   0.988   9.157   1.223  0.0634  0.7010  1.9048
  356MOL0     H46931   1.035   8.896   1.361  2.4967  0.6952 -2.1908
  356MOL0     H46932   0.865   8.944   1.308  1.4886  1.2638 -1.6422
  356MOL0     H46933   0.883   9.143   1.444 -1.4507  1.6687  3.5183
  356MOL0     H46934   1.023   9.070   1.535  0.4011 -1.9059 -1.0091
  356MOL0     H46935   0.774   9.030   1.626 -1.3534 -2.5342 -0.2724
  356MOL0     H46936   0.750   8.938   1.492 -1.9325  0.8121  2.3123
  356MOL0     H46937   0.951   8.904   1.709  0.9025 -3.1727  0.3914
  356MOL0     H46938   0.980   8.825   1.557  0.5869 -0.7198  3.2076
  356MOL0     H46939   0.882   8.668   1.707 -1.8716 -0.9250  1.3939
  356MOL0     H46940   0.778   8.681   1.568 -0.0763 -2.9336  0.9885
  356MOL0     H46941   0.724   8.814   1.846  1.8248 -3.5973 -0.4283
  356MOL0     H46942   0.649   8.878   1.698  0.3447  0.4800 -0.9836
  356MOL0     H46943   0.545   8.644   1.657 -0.8347 -1.6882  0.7243
  356MOL0     H46944   0.486   8.749   1.778  0.6166  0.2793  1.7735
  356MOL0     H46945   0.568   8.669   2.041  2.3678  1.9337 -1.9162
  356MOL0     H46946   0.654   8.295   2.157 -5.5789 -2.1898 -0.3826
  356MOL0     H46947   0.540   8.411   2.229 -1.3425 -0.8488 -1.8371
  356MOL0     H46948   0.731   8.468   2.350  0.0216 -0.9688 -0.7573
  356MOL0     H46949   0.738   8.585   2.218 -0.2902  0.8465  0.9703
  356MOL0     H46950   0.913   8.344   2.260  0.0351 -1.6603 -1.1175
  356MOL0     H46951   0.874   8.393   2.088  0.5659 -1.6282  0.2638
  356MOL0     H46952   1.092   8.476   2.201  0.5628 -0.4497  1.0389
  356MOL0     H46953   0.982   8.572   2.307  0.4214 -1.3810 -0.2133
  356MOL0     H46954   1.205   8.669   2.265 -0.9824 -0.0222  0.3938
  356MOL0     H46955   1.359   8.853   2.254  0.9107 -0.8983 -1.7962
  356MOL0     H46956   1.622   9.102   2.331  4.3924  0.0319  0.1456
  356MOL0     H46957   1.782   9.292   2.342 -1.6661 -0.9064  1.9673
  356MOL0     H46958   2.032   9.432   2.235 -0.7557  0.5116 -1.0812
  356MOL0     H46959   1.896   9.467   2.340 -1.0452 -2.0326  0.7764
  356MOL0     H46960   1.931   9.685   2.305 -2.4764 -1.1986  1.1142
  356MOL0     H46961   1.886   9.678   2.138 -0.0047  2.9250  1.2354
  356MOL0     H46962   2.152   9.661   2.247  1.1405 -1.0798 -0.6002
  356MOL0     H46963   2.081   9.770   2.114 -4.5194 -0.1457 -1.1346
  356MOL0     H46964   2.244   9.627   2.017  0.0424 -0.5542 -1.5222
  356MOL0     H46965   2.168   9.482   2.076  0.4995  0.2154 -1.1217
  356MOL0     H46966   2.046   9.719   1.904  1.9590  0.5817  0.4545
  356MOL0     H46967   1.961   9.556   1.942  0.3316 -1.1958 -0.2665
  356MOL0     H46968   2.080   9.423   1.810  0.6222  0.0474  2.2522
  356MOL0     H46969   2.221   9.524   1.806  0.1681  0.0662  0.8522
  356MOL0     H46970   2.121   9.515   1.604  0.7507 -0.2933  0.7004
  356MOL0     H46971   1.957   9.552   1.658  0.3427  0.6545 -2.8888
  356MOL0     H46972   2.023   9.777   1.702 -0.2363 -0.2399  0.7506
  356MOL0     H46973   2.078   9.726   1.531  1.4700 -0.1743 -0.1266
  356MOL0     H46974   1.734   9.358   1.920 -4.1875  2.1172  0.2063
  356MOL0     H46975   1.582   9.177   1.916 -0.1406  1.1936 -0.0750
  356MOL0     H46976   1.127   8.997   1.910 -0.7772  0.1240  0.4602
  356MOL0     H46977   0.969   8.812   1.944 -2.0026  0.5595  3.5068
  356MOL0     H46978   1.107   9.294   1.107 -1.3629 -4.8510  0.7562
  356MOL0     H46979   1.264   9.438   0.991 -0.2096 -0.2994  0.8172
  356MOL0     H46980   1.530   9.642   0.670  0.5042  1.4519  0.6260
  356MOL0     H46981   1.692   9.781   0.588  5.6595 -0.2983 -2.7044
  356MOL0     H46982   2.059   9.567   0.599 -1.1832  0.3160 -1.0520
  356MOL0     H46983   2.115   9.662   0.724 -0.8953  1.6315 -0.0356
  356MOL0     H46984   2.138   9.755   0.428  0.1384 -2.1614  1.0977
  356MOL0     H46985   2.220   9.831   0.570  2.1317  0.7374 -2.6880
  356MOL0     H46986   2.242   9.547   0.472 -0.9921  0.2676  1.2423
  356MOL0     H46987   2.348   9.630   0.589 -2.0596  3.5162  1.6538
  356MOL0     H46988   2.461   9.607   0.366  0.4560 -1.0424  2.0013
  356MOL0     H46989   2.344   9.721   0.300  2.3835 -1.8640 -1.7874
  356MOL0     H46990   2.588   9.986   0.537 -1.8137 -0.4020  2.0516
  356MOL0     H46991   1.978   9.560   0.835  0.9345 -1.2556 -0.1503
  356MOL0     H46992   1.802   9.460   0.951  2.2239 -0.5653 -0.9118
  357MOL0     O46993   8.542   5.730   6.594  0.2033 -0.2996 -0.2258
  357MOL0     C46994   8.564   5.781   6.706 -0.4383  0.2833  0.6700
  357MOL0     O46995   8.516   5.903   6.742 -1.2242  0.9066 -0.1575
  357MOL0     C46996   8.421   5.960   6.664  0.2831  0.1175 -0.1118
  357MOL0     C46997   8.456   6.057   6.556  0.2372 -0.2089 -0.6463
  357MOL0     C46998   8.337   6.118   6.492 -0.9916 -0.2143 -1.0194
  357MOL0     C46999   8.202   6.092   6.526 -0.2743  0.1870 -0.6459
  357MOL0     O47000   8.104   6.151   6.460 -0.4167  0.2507  0.7187
  357MOL0     C47001   8.005   6.237   6.527 -0.6931 -0.7482  0.2305
  357MOL0     C47002   7.919   6.314   6.430  0.2352 -0.2139  0.5814
  357MOL0     C47003   7.821   6.208   6.378 -0.4076  0.0043  0.5026
  357MOL0     C47004   7.707   6.275   6.306  0.5982 -0.2814  0.6311
  357MOL0     C47005   7.663   6.189   6.186  0.1513  0.3796  0.5787
  357MOL0     C47006   7.752   6.203   6.067  1.0339 -0.0561  0.2079
  357MOL0     C47007   7.689   6.131   5.942  0.2101 -0.6923 -1.0902
  357MOL0     C47008   7.644   5.987   5.970 -0.7109 -0.6531 -0.0699
  357MOL0     N47009   7.580   5.917   5.861  0.2585  0.2339 -0.5204
  357MOL0     C47010   7.557   5.952   5.732 -0.3879 -0.2445 -0.0680
  357MOL0     C47011   7.521   5.834   5.673 -0.4248 -0.4939  0.5677
  357MOL0     C47012   7.455   5.809   5.536 -0.1696 -0.6622 -0.4452
  357MOL0     C47013   7.309   5.833   5.565 -0.2662 -0.1033  0.0358
  357MOL0     C47014   7.248   5.971   5.579  0.9325 -0.1590 -0.6488
  357MOL0     C47015   7.109   5.960   5.663  0.0112  0.9414 -0.1851
  357MOL0     O47016   7.063   6.097   5.658 -0.5425  0.7680 -0.2981
  357MOL0     C47017   6.948   6.118   5.739 -0.0755 -0.4425 -0.6569
  357MOL0     C47018   6.954   6.177   5.864  0.4767  0.3804  0.0580
  357MOL0     C47019   6.835   6.208   5.939  0.2677 -0.1307 -0.7577
  357MOL0     C47020   6.711   6.180   5.885 -0.1750 -0.0796  0.1763
  357MOL0     C47021   6.581   6.234   5.936  0.6257  0.0875 -0.4735
  357MOL0     O47022   6.470   6.186   5.876 -1.6068  0.0819  1.0461
  357MOL0     C47023   6.343   6.218   5.901 -0.6759  1.2748  0.1205
  357MOL0     C47024   6.296   6.338   5.867  1.3488 -0.3281 -0.3972
  357MOL0     C47025   6.156   6.359   5.870  0.2627 -0.7457 -0.0164
  357MOL0     C47026   6.070   6.253   5.907 -0.3128 -0.9859 -0.2062
  357MOL0     O47027   5.936   6.270   5.920 -0.4008  0.0464  0.4949
  357MOL0     C47028   5.877   6.371   5.996  0.6158 -0.2728 -0.0147
  357MOL0     C47029   5.814   6.301   6.116 -0.0124  0.5958  0.4540
  357MOL0     C47030   5.915   6.234   6.202 -0.7922  0.1496  0.0203
  357MOL0     C47031   5.867   6.222   6.344 -0.3784  0.3602 -0.4240
  357MOL0     C47032   5.960   6.132   6.432 -1.3399 -0.2559 -0.1989
  357MOL0     C47033   5.880   6.118   6.563  0.3732  0.9151 -0.2111
  357MOL0     C47034   5.969   6.057   6.673  0.0782 -0.4946 -0.2258
  357MOL0     C47035   5.879   5.989   6.788 -0.0256 -0.0996 -0.4421
  357MOL0    Cl47036   5.814   6.119   6.901 -0.0394  0.2159 -0.2489
  357MOL0     C47037   6.124   6.128   5.909  0.7442  0.4990 -0.3142
  357MOL0     C47038   6.262   6.103   5.914 -0.8385  0.1149  0.0146
  357MOL0     O47039   6.578   6.296   6.044  0.1350  0.0098  0.0621
  357MOL0     C47040   6.709   6.104   5.762  0.6593  0.5947 -0.0346
  357MOL0     C47041   6.823   6.072   5.691 -1.1452  0.6485  0.7939
  357MOL0     N47042   7.527   5.734   5.762 -0.5984  0.4917  0.3032
  357MOL0     N47043   7.574   5.782   5.873  0.1793  0.9553  0.2378
  357MOL0     C47044   8.180   6.008   6.635  0.4471  0.6967 -0.3817
  357MOL0     C47045   8.285   5.946   6.701 -0.2472 -0.9362  0.2821
  357MOL0     C47046   8.637   5.697   6.811 -0.2722  0.2470 -1.0097
  357MOL0     C47047   8.691   5.752   6.930  0.5756 -0.4118 -0.5430
  357MOL0     C47048   8.747   5.678   7.026 -0.1353 -0.6347  0.9469
  357MOL0     C47049   8.764   5.548   7.006  0.1663  0.4691  0.0026
  357MOL0     O47050   8.806   5.470   7.115 -0.6408  0.7079 -0.3140
  357MOL0     C47051   8.926   5.391   7.091  0.5203 -0.7166  0.5156
  357MOL0     C47052   9.037   5.447   7.181  0.3361 -0.1724 -0.5840
  357MOL0     C47053   9.009   5.462   7.333  0.9712  0.9174  0.3533
  357MOL0     C47054   9.140   5.476   7.407 -0.3412 -0.1073 -0.7436
  357MOL0     C47055   9.094   5.496   7.547 -1.1781  0.0925 -0.0227
  357MOL0     C47056   9.063   5.512   7.661 -0.0899 -0.5990 -1.0419
  357MOL0     C47057   8.736   5.490   6.874 -0.0748 -0.7623 -0.1582
  357MOL0     C47058   8.661   5.562   6.785  0.0030  0.2877  0.5262
  357MOL0     H47059   8.561   6.065   6.530  0.3638 -0.7299 -0.2924
  357MOL0     H47060   8.361   6.201   6.427 -0.1843  2.1934  2.0670
  357MOL0     H47061   8.069   6.312   6.574 -2.4287 -0.3363  2.0392
  357MOL0     H47062   7.939   6.183   6.595  0.5628 -1.2595  1.0881
  357MOL0     H47063   7.969   6.363   6.346  0.6184 -2.1311 -0.3524
  357MOL0     H47064   7.859   6.389   6.482 -1.2259 -1.2112  0.3793
  357MOL0     H47065   7.762   6.161   6.457 -0.3084 -1.0895 -0.0534
  357MOL0     H47066   7.881   6.133   6.325  2.5017  2.3939  0.1395
  357MOL0     H47067   7.629   6.303   6.377 -0.6967 -2.3083  0.0942
  357MOL0     H47068   7.750   6.368   6.266 -1.3387  1.9313  3.3479
  357MOL0     H47069   7.562   6.227   6.165 -1.4345 -3.5918  0.1259
  357MOL0     H47070   7.659   6.084   6.217  3.4546 -0.1631 -0.4934
  357MOL0     H47071   7.853   6.165   6.089  0.4413 -0.5497  2.2727
  357MOL0     H47072   7.783   6.304   6.039  1.6067 -0.4750 -0.7217
  357MOL0     H47073   7.594   6.179   5.916 -0.9764  0.4743  4.3296
  357MOL0     H47074   7.770   6.130   5.869  2.0140 -1.3793  0.8309
  357MOL0     H47075   7.579   5.979   6.058  0.5955  0.0293  1.0013
  357MOL0     H47076   7.729   5.924   5.998  2.3582  2.6273 -1.2508
  357MOL0     H47077   7.547   6.053   5.693  0.8598  0.4873  1.4008
  357MOL0     H47078   7.467   5.706   5.503 -0.8146 -1.7846  2.5462
  357MOL0     H47079   7.505   5.872   5.461 -0.2023 -1.1844 -0.9073
  357MOL0     H47080   7.274   5.774   5.649  2.9514 -0.9330  0.9464
  357MOL0     H47081   7.249   5.795   5.482 -2.2431  2.9255 -0.0757
  357MOL0     H47082   7.312   6.035   5.641 -0.1197  0.7668 -0.4960
  357MOL0     H47083   7.240   6.026   5.485 -1.3922 -1.3109 -1.1958
  357MOL0     H47084   7.114   5.925   5.767  0.5062 -3.3129 -1.4918
  357MOL0     H47085   7.035   5.898   5.612 -1.8138  1.1696  2.0063
  357MOL0     H47086   7.050   6.214   5.898  0.9389 -0.2956 -0.4978
  357MOL0     H47087   6.837   6.282   6.018 -0.4900  1.2200 -1.9421
  357MOL0     H47088   6.366   6.418   5.844  0.1503  0.3672 -1.7610
  357MOL0     H47089   6.103   6.453   5.858 -0.8356 -1.6248 -3.0522
  357MOL0     H47090   5.800   6.422   5.938 -0.6897 -0.0398  1.8104
  357MOL0     H47091   5.958   6.436   6.031  2.1065 -2.1123  0.1321
  357MOL0     H47092   5.736   6.228   6.093 -0.5779  0.7812  1.7272
  357MOL0     H47093   5.765   6.380   6.174 -1.0946  0.2654  0.0204
  357MOL0     H47094   5.997   6.305   6.216 -0.8629 -0.0103  1.3271
  357MOL0     H47095   5.959   6.143   6.161  0.4666 -0.6000  2.8184
  357MOL0     H47096   5.848   6.320   6.389  0.9562  0.5021 -0.1528
  357MOL0     H47097   5.767   6.176   6.336 -0.2271  0.0777 -0.7383
  357MOL0     H47098   6.057   6.178   6.450 -1.0503 -1.4981  1.7420
  357MOL0     H47099   5.981   6.035   6.386  1.0379  0.4482 -0.7079
  357MOL0     H47100   5.803   6.043   6.544  0.0166  1.0485  0.6609
  357MOL0     H47101   5.830   6.205   6.605 -2.5196 -0.8632  0.3148
  357MOL0     H47102   6.035   5.990   6.618 -1.0610 -0.3716 -1.8194
  357MOL0     H47103   6.029   6.134   6.723 -0.7008 -0.6848  1.0623
  357MOL0     H47104   5.946   5.921   6.840  0.1924  0.8446  0.5369
  357MOL0     H47105   5.793   5.940   6.740  1.5286 -4.2849  0.6229
  357MOL0     H47106   6.061   6.039   5.897  2.7494 -0.8350 -1.5294
  357MOL0     H47107   6.325   6.015   5.911  0.3144  0.9288 -2.2754
  357MOL0     H47108   6.618   6.066   5.716  1.2860  0.4668 -1.1943
  357MOL0     H47109   6.819   6.031   5.591  2.7507 -0.8892  1.0829
  357MOL0     H47110   8.074   5.989   6.650  0.1591  1.6586 -1.1326
  357MOL0     H47111   8.265   5.880   6.785  0.1842 -2.1266 -0.5220
  357MOL0     H47112   8.674   5.854   6.960 -1.7202 -1.0168  0.3986
  357MOL0     H47113   8.762   5.720   7.125  0.3929  1.2683  0.1081
  357MOL0     H47114   8.961   5.392   6.987  1.9350  0.6304  0.9643
  357MOL0     H47115   8.901   5.288   7.118 -4.9866  0.3721  0.6990
  357MOL0     H47116   9.117   5.373   7.184  0.4808 -0.0058  1.7230
  357MOL0     H47117   9.068   5.541   7.134 -0.2900 -0.6936 -2.0945
  357MOL0     H47118   8.950   5.380   7.374  3.0902 -0.3471  1.0508
  357MOL0     H47119   8.960   5.559   7.349  2.3839  1.4963  1.3714
  357MOL0     H47120   9.213   5.395   7.403  1.6542  1.6222 -1.8567
  357MOL0     H47121   9.193   5.569   7.385  1.3267  0.7611  5.1016
  357MOL0     H47122   9.037   5.549   7.758  1.3960  0.6774 -1.0902
  357MOL0     H47123   8.767   5.390   6.847  1.5929 -0.0607 -1.0080
  357MOL0     H47124   8.625   5.517   6.693  0.8643 -1.1964  0.8850
  358MOL0     O47125   0.733   7.344   7.361  0.3534  0.0658  0.0372
  358MOL0     C47126   0.732   7.235   7.404 -0.1433 -0.1911 -0.2957
  358MOL0     O47127   0.840   7.149   7.409  0.1419 -0.1476 -0.6394
  358MOL0     C47128   0.968   7.188   7.406  0.2879  0.5995 -0.4069
  358MOL0     C47129   1.047   7.110   7.325 -0.7032  0.0600 -0.1925
  358MOL0     C47130   1.180   7.142   7.311 -0.5167  0.3967 -0.0926
  358MOL0     C47131   1.243   7.250   7.370  0.1805  0.3352 -0.1884
  358MOL0     O47132   1.374   7.257   7.350 -0.1154 -0.1419  0.4187
  358MOL0     C47133   1.450   7.360   7.426 -0.1186  0.0071 -1.0372
  358MOL0     C47134   1.601   7.333   7.402  0.6212 -0.8683  0.2284
  358MOL0     C47135   1.676   7.464   7.447 -0.1624  0.0277  0.8586
  358MOL0     C47136   1.824   7.448   7.440  0.0290 -0.6775 -0.3330
  358MOL0     C47137   1.896   7.571   7.507 -0.5742 -0.1803  0.1876
  358MOL0     C47138   2.036   7.525   7.527  0.2849  0.2027  0.3835
  358MOL0     C47139   2.055   7.467   7.667 -0.1162 -0.0619 -0.5957
  358MOL0     C47140   2.193   7.423   7.690  0.0482  0.5614  0.2659
  358MOL0     N47141   2.216   7.392   7.831 -0.2731  0.6354 -0.2995
  358MOL0     C47142   2.124   7.370   7.934  0.0654 -0.0592 -0.2074
  358MOL0     C47143   2.191   7.326   8.043  0.3368 -0.1485 -0.0586
  358MOL0     C47144   2.145   7.296   8.172 -0.2842 -0.2016  0.4295
  358MOL0     C47145   2.011   7.224   8.175 -0.3660  0.0662 -0.4771
  358MOL0     C47146   1.964   7.181   8.312  0.7875 -0.4583 -0.8807
  358MOL0     C47147   1.859   7.064   8.318  0.0182  0.1103  0.3946
  358MOL0     O47148   1.768   7.089   8.201 -0.4580 -0.6916  0.5984
  358MOL0     C47149   1.637   7.078   8.240  0.3082  0.4870 -0.9305
  358MOL0     C47150   1.549   7.178   8.269  0.7533  0.5682  0.3726
  358MOL0     C47151   1.412   7.157   8.299  0.6625 -0.9062 -0.2945
  358MOL0     C47152   1.364   7.028   8.318 -0.0709 -0.5563  0.2024
  358MOL0     C47153   1.230   7.005   8.363  0.5874 -0.2821  0.9436
  358MOL0     O47154   1.145   7.115   8.345 -0.0744 -0.1416 -0.5355
  358MOL0     C47155   1.018   7.083   8.317  0.9292  0.2086 -0.5856
  358MOL0     C47156   0.958   7.141   8.201  0.6806 -0.3846  0.4489
  358MOL0     C47157   0.808   7.133   8.194 -0.6844 -0.3557 -0.0185
  358MOL0     C47158   0.724   7.069   8.283  0.2429  0.6197 -0.4702
  358MOL0     O47159   0.585   7.066   8.289  0.5530  0.1459 -0.0662
  358MOL0     C47160   0.528   7.080   8.156  0.1454  0.0568  0.4429
  358MOL0     C47161   0.401   6.999   8.153  0.2094  0.0764  0.0644
  358MOL0     C47162   0.285   7.070   8.224  0.8358 -0.3703  0.0194
  358MOL0     C47163   0.134   7.024   8.184 -0.6359 -1.0614  0.3056
  358MOL0     C47164   0.091   6.889   8.231 -0.2768 -0.8245  0.7476
  358MOL0     C47165   0.080   6.861   8.383  1.0252 -0.2261  0.0574
  358MOL0     C47166   0.001   6.961   8.463 -0.2699  1.2792  0.4086
  358MOL0     C47167  -0.014   6.911   8.600 -0.0143  0.1965 -0.1804
  358MOL0    Cl47168  -0.019   7.059   8.701  0.6331  0.4012 -0.1340
  358MOL0     C47169   0.795   7.004   8.386  0.2693  0.0356  0.6696
  358MOL0     C47170   0.926   7.019   8.411 -0.8086  0.5399 -0.2693
  358MOL0     O47171   1.202   6.884   8.384 -0.4595  0.6991 -0.7403
  358MOL0     C47172   1.453   6.925   8.303  0.6774  0.4960  0.0168
  358MOL0     C47173   1.582   6.952   8.267 -0.2276  0.7044 -0.2392
  358MOL0     N47174   2.318   7.321   8.007 -0.0755 -0.1169 -1.2373
  358MOL0     N47175   2.337   7.371   7.891  0.1336  0.4483 -0.1332
  358MOL0     C47176   1.159   7.322   7.459 -0.3088  0.3034  0.0696
  358MOL0     C47177   1.021   7.300   7.465  0.0276  0.3105 -0.6863
  358MOL0     C47178   0.605   7.178   7.431  0.5147 -0.0950 -0.1229
  358MOL0     C47179   0.490   7.260   7.392  0.1018  0.3863 -0.8316
  358MOL0     C47180   0.360   7.209   7.402  0.0373  0.9513 -0.1269
  358MOL0     C47181   0.340   7.082   7.478 -0.1229 -0.4183 -0.6781
  358MOL0     O47182   0.227   7.015   7.505 -0.1814  0.2102  0.1084
  358MOL0     C47183   0.106   7.087   7.507 -0.2085 -0.4712 -0.4240
  358MOL0     C47184  -0.001   7.001   7.563 -0.3557 -0.6377 -0.2686
  358MOL0     C47185   0.014   6.990   7.717 -0.0801  0.1361  0.7321
  358MOL0     C47186  -0.103   6.919   7.799 -1.4743 -0.3738 -0.2842
  358MOL0     C47187  -0.164   6.803   7.746 -0.1834 -0.4232 -0.3995
  358MOL0     C47188  -0.223   6.715   7.697  0.3883  0.0055  0.0160
  358MOL0     C47189   0.461   7.021   7.533  1.0352  0.7627  0.3002
  358MOL0     C47190   0.590   7.058   7.504  0.7388 -0.0921 -0.2517
  358MOL0     H47191   1.010   7.029   7.262  0.8938 -0.0096 -1.0832
  358MOL0     H47192   1.240   7.086   7.240 -0.0847  0.3063  0.3337
  358MOL0     H47193   1.421   7.343   7.530 -3.4001  0.1020 -1.8298
  358MOL0     H47194   1.414   7.457   7.391 -3.2401 -0.2792  0.9796
  358MOL0     H47195   1.622   7.296   7.302 -2.8630 -0.0498 -0.9392
  358MOL0     H47196   1.637   7.252   7.466  1.5182 -0.7672 -0.1344
  358MOL0     H47197   1.640   7.477   7.549 -1.1728 -1.6346  0.7664
  358MOL0     H47198   1.642   7.552   7.391 -1.6674  0.3230  2.1624
  358MOL0     H47199   1.855   7.355   7.487  0.1608 -0.7667 -0.5915
  358MOL0     H47200   1.861   7.432   7.338 -1.3551 -0.3350 -0.9231
  358MOL0     H47201   1.857   7.593   7.607  3.1328  0.5848  1.5964
  358MOL0     H47202   1.882   7.661   7.448 -0.9430  1.4894  2.6623
  358MOL0     H47203   2.092   7.617   7.510 -2.2956  1.2152 -4.3973
  358MOL0     H47204   2.067   7.453   7.451  4.1729  0.3526  1.6195
  358MOL0     H47205   2.035   7.552   7.732  4.6049  0.4682  0.5801
  358MOL0     H47206   1.982   7.389   7.688 -1.4732  0.1514 -3.9143
  358MOL0     H47207   2.265   7.501   7.667  2.9942 -1.5817  1.5937
  358MOL0     H47208   2.225   7.333   7.636 -3.1953 -1.4114  1.2814
  358MOL0     H47209   2.018   7.392   7.936  0.7401  3.9794 -0.8227
  358MOL0     H47210   2.160   7.386   8.234 -0.3549  0.6511 -0.7650
  358MOL0     H47211   2.222   7.228   8.211  0.5031  0.0444 -0.6737
  358MOL0     H47212   2.020   7.128   8.123 -2.1153 -0.2337 -0.2974
  358MOL0     H47213   1.937   7.286   8.125 -0.3943 -0.7933 -1.5309
  358MOL0     H47214   2.053   7.160   8.372  0.8074  2.6259  0.3898
  358MOL0     H47215   1.915   7.265   8.362 -1.2231 -1.2260 -1.4871
  358MOL0     H47216   1.807   7.062   8.414  0.0617 -1.1197  0.4095
  358MOL0     H47217   1.916   6.971   8.308 -0.1235  0.1268 -0.6996
  358MOL0     H47218   1.593   7.277   8.261  0.7100  0.9623  3.5373
  358MOL0     H47219   1.341   7.239   8.297  1.5224 -0.1554 -0.6567
  358MOL0     H47220   1.016   7.184   8.120 -1.1361  0.9592 -0.2207
  358MOL0     H47221   0.766   7.171   8.101 -0.4174  0.4444  0.1795
  358MOL0     H47222   0.592   7.051   8.072  0.7155  0.7787  0.6244
  358MOL0     H47223   0.494   7.182   8.137  1.7334  0.1986 -2.0315
  358MOL0     H47224   0.425   6.909   8.211  1.6102  1.4690  1.7814
  358MOL0     H47225   0.362   6.969   8.056  0.7593 -0.5508  0.0246
  358MOL0     H47226   0.288   7.176   8.200 -4.4295 -0.3583 -1.7641
  358MOL0     H47227   0.301   7.072   8.333 -0.5088 -1.0660  0.2565
  358MOL0     H47228   0.055   7.087   8.226  0.7755  0.0860  1.3409
  358MOL0     H47229   0.124   7.037   8.076  2.0689 -1.9874 -0.1383
  358MOL0     H47230   0.150   6.820   8.170  1.9800 -0.1844  2.0965
  358MOL0     H47231  -0.010   6.866   8.195  0.2253 -2.6412  0.3935
  358MOL0     H47232   0.183   6.857   8.419  1.3438  0.7935 -0.7023
  358MOL0     H47233   0.017   6.772   8.394 -1.0547  0.8633 -2.3097
  358MOL0     H47234   0.035   7.065   8.455  0.5709  0.9969  0.1956
  358MOL0     H47235  -0.099   6.970   8.418 -0.3264  0.2780  0.3131
  358MOL0     H47236   0.074   6.859   8.639 -1.2241  0.2369  2.8038
  358MOL0     H47237  -0.097   6.845   8.625 -0.4382  1.7216  2.8761
  358MOL0     H47238   0.722   6.966   8.457  1.3509 -4.7930 -0.4060
  358MOL0     H47239   0.950   7.006   8.516  0.9501 -1.0186 -0.8083
  358MOL0     H47240   1.423   6.821   8.317  0.9040  0.4904  0.4783
  358MOL0     H47241   1.633   6.857   8.254 -0.4190  0.9009 -2.9485
  358MOL0     H47242   1.197   7.418   7.493 -1.0507  0.8135 -0.4873
  358MOL0     H47243   0.969   7.365   7.534  2.8180  1.0820  0.8567
  358MOL0     H47244   0.490   7.354   7.337 -1.4181  0.5667 -0.5589
  358MOL0     H47245   0.278   7.247   7.342  2.3602  1.3418 -3.3069
  358MOL0     H47246   0.078   7.138   7.414  0.5899 -0.2495 -0.5493
  358MOL0     H47247   0.118   7.175   7.570  2.4550  0.0096 -1.4792
  358MOL0     H47248  -0.099   7.035   7.529 -0.7346  0.6301  1.8773
  358MOL0     H47249   0.003   6.895   7.533 -1.7539 -1.4179  2.0444
  358MOL0     H47250   0.012   7.093   7.755 -3.9319  0.8620 -0.9970
  358MOL0     H47251   0.102   6.928   7.733 -0.2595 -1.4172 -3.1414
  358MOL0     H47252  -0.068   6.887   7.898  0.5752  3.4631  0.4301
  358MOL0     H47253  -0.179   6.996   7.813 -0.2714  0.9511 -0.8307
  358MOL0     H47254  -0.267   6.627   7.654  0.9558  0.3377 -1.2901
  358MOL0     H47255   0.461   6.935   7.598 -0.4686  0.1393 -0.4851
  358MOL0     H47256   0.678   7.009   7.546 -1.6247 -0.0649  5.6148
  359MOL0     O47257   0.954   3.970   8.761  1.0140  0.0059 -0.2404
  359MOL0     C47258   0.890   4.005   8.860 -0.4227  0.0412 -0.0583
  359MOL0     O47259   0.933   4.098   8.951  0.4197 -0.0747  0.6420
  359MOL0     C47260   0.825   4.177   8.997 -0.7956 -0.7542  0.7344
  359MOL0     C47261   0.816   4.171   9.133  0.3961  0.3055 -0.5929
  359MOL0     C47262   0.707   4.231   9.202 -0.2304 -0.5106 -0.1897
  359MOL0     C47263   0.611   4.303   9.124  0.8249  0.6009 -0.0153
  359MOL0     O47264   0.506   4.363   9.182  0.1024 -0.0918 -0.0100
  359MOL0     C47265   0.451   4.310   9.313 -0.5371  0.2737  0.4240
  359MOL0     C47266   0.363   4.189   9.270 -0.3857 -0.0969 -0.3619
  359MOL0     C47267   0.326   4.107   9.396 -0.0499  0.4537  0.3113
  359MOL0     C47268   0.265   3.956   9.371  0.0902  0.5393 -0.7063
  359MOL0     C47269   0.211   3.899   9.507  0.8086  0.1839 -0.2670
  359MOL0     C47270   0.150   3.764   9.481  0.4363 -0.4276 -0.6902
  359MOL0     C47271   0.247   3.658   9.432  0.0962  0.3466 -0.1617
  359MOL0     C47272   0.182   3.512   9.448  0.5331  0.8751 -0.7009
  359MOL0     N47273   0.081   3.490   9.340  0.6198  1.2408  0.4703
  359MOL0     C47274  -0.020   3.394   9.349 -0.7395  0.2996 -0.2226
  359MOL0     C47275  -0.068   3.392   9.217  0.1774  0.1811 -0.4877
  359MOL0     C47276  -0.165   3.299   9.174 -0.0712  0.0970 -0.2515
  359MOL0     C47277  -0.239   3.352   9.047  0.5492 -0.6947  0.1434
  359MOL0     C47278  -0.366   3.436   9.067 -0.2265  0.7136  0.6206
  359MOL0     C47279  -0.423   3.505   8.946  0.1613 -0.9827 -0.4028
  359MOL0     O47280  -0.571   3.506   8.959 -0.2834 -0.2627 -0.2779
  359MOL0     C47281  -0.653   3.419   8.891  1.2073  0.7036  1.3397
  359MOL0     C47282  -0.620   3.329   8.793  0.0665  0.0177 -0.9866
  359MOL0     C47283  -0.713   3.254   8.733  0.6074 -0.6237 -0.9433
  359MOL0     C47284  -0.848   3.276   8.763  0.2436  0.3669  0.5461
  359MOL0     C47285  -0.951   3.213   8.678  0.1481 -0.9647 -0.8022
  359MOL0     O47286  -1.072   3.276   8.680  0.7251 -0.3356 -0.0440
  359MOL0     C47287  -1.190   3.223   8.640  0.2581  1.0142 -0.1506
  359MOL0     C47288  -1.219   3.085   8.618 -0.6628 -0.2375  0.6679
  359MOL0     C47289  -1.345   3.044   8.583  0.5954  0.0500 -0.0789
  359MOL0     C47290  -1.456   3.130   8.578 -0.4749  0.1115 -0.1869
  359MOL0     O47291  -1.584   3.082   8.553  0.0019  0.1006  0.1166
  359MOL0     C47292  -1.606   2.958   8.478  0.1248 -0.5674  0.3858
  359MOL0     C47293  -1.529   2.942   8.349  0.6308 -0.6686  0.4916
  359MOL0     C47294  -1.570   2.808   8.281  0.3895  0.1946 -0.3185
  359MOL0     C47295  -1.542   2.821   8.132  0.1270 -0.3836  0.1909
  359MOL0     C47296  -1.531   2.693   8.052 -0.4875 -0.0469  0.1339
  359MOL0     C47297  -1.659   2.621   8.051 -0.5351 -0.3690 -0.5631
  359MOL0     C47298  -1.642   2.476   7.990 -0.6918 -0.3623 -0.7014
  359MOL0     C47299  -1.559   2.379   8.068  0.2300  0.0909  0.6382
  359MOL0    Cl47300  -1.618   2.209   8.056  0.3089 -0.1990  0.5178
  359MOL0     C47301  -1.422   3.275   8.595  0.8128  0.6916 -0.3294
  359MOL0     C47302  -1.294   3.308   8.624 -0.1333  0.2664 -0.5110
  359MOL0     O47303  -0.926   3.100   8.634 -0.6837 -0.4671  0.1790
  359MOL0     C47304  -0.884   3.364   8.860  0.0612  0.4466 -0.9795
  359MOL0     C47305  -0.791   3.434   8.933 -0.5692 -0.2238  0.8332
  359MOL0     N47306  -0.024   3.511   9.159  0.6175  0.0589  0.2275
  359MOL0     N47307   0.077   3.563   9.222 -0.0823 -0.1099  0.3411
  359MOL0     C47308   0.620   4.306   8.985 -0.1583  0.4942 -0.6902
  359MOL0     C47309   0.734   4.249   8.927  0.1663  0.4101  0.2780
  359MOL0     C47310   0.754   3.942   8.868 -0.4402 -0.4779 -1.3574
  359MOL0     C47311   0.728   3.887   8.992 -0.3357  0.5185 -0.3233
  359MOL0     C47312   0.595   3.834   9.018 -0.2849  0.1350  0.5839
  359MOL0     C47313   0.493   3.846   8.923 -0.0071  0.1045 -0.4090
  359MOL0     O47314   0.367   3.797   8.963 -0.3211 -0.7211  0.2541
  359MOL0     C47315   0.256   3.869   8.905 -0.7090  0.1298  0.7763
  359MOL0     C47316   0.129   3.796   8.957 -0.3265  0.2350  0.1202
  359MOL0     C47317  -0.006   3.848   8.899 -0.6813  0.0762 -0.1202
  359MOL0     C47318  -0.119   3.815   8.987 -0.4965  0.7591  0.4964
  359MOL0     C47319  -0.222   3.907   8.935  0.2972  0.0953  0.9983
  359MOL0     C47320  -0.319   3.969   8.897 -0.0711 -0.0718 -0.2046
  359MOL0     C47321   0.530   3.899   8.800 -0.3272 -0.2678  0.1688
  359MOL0     C47322   0.659   3.943   8.771 -0.2586  0.7010 -0.6387
  359MOL0     H47323   0.888   4.120   9.196 -0.1851  0.8095  0.5250
  359MOL0     H47324   0.709   4.227   9.310 -2.3432 -0.3213 -0.1204
  359MOL0     H47325   0.405   4.390   9.372 -1.6903  0.2773 -0.4407
  359MOL0     H47326   0.532   4.285   9.383 -1.4732 -0.7517  1.1902
  359MOL0     H47327   0.420   4.114   9.214  1.0701  0.1699  0.7066
  359MOL0     H47328   0.280   4.221   9.206 -1.4804 -3.5319 -0.8433
  359MOL0     H47329   0.250   4.161   9.455 -2.3402 -0.5597 -1.5557
  359MOL0     H47330   0.411   4.094   9.463 -0.0432  1.0569  0.4324
  359MOL0     H47331   0.182   3.944   9.301 -1.1670 -0.9043  0.9139
  359MOL0     H47332   0.341   3.890   9.328 -1.5687 -2.0122  0.0727
  359MOL0     H47333   0.136   3.965   9.553  1.0720 -0.4717  1.1599
  359MOL0     H47334   0.294   3.888   9.577 -0.2575 -0.3801  0.9487
  359MOL0     H47335   0.071   3.777   9.407  0.4334 -1.3622 -0.8570
  359MOL0     H47336   0.100   3.722   9.569  0.8997  1.3440  0.4831
  359MOL0     H47337   0.273   3.671   9.327 -3.4594 -3.0198 -1.6889
  359MOL0     H47338   0.333   3.658   9.500 -0.0306  3.1307  0.1380
  359MOL0     H47339   0.132   3.511   9.545  2.4544 -3.7250  0.5174
  359MOL0     H47340   0.261   3.437   9.447 -1.8913 -1.8746 -2.9759
  359MOL0     H47341  -0.044   3.323   9.427 -1.5561 -0.7185 -1.3441
  359MOL0     H47342  -0.245   3.274   9.243  2.5111 -3.5000  1.7891
  359MOL0     H47343  -0.101   3.213   9.152  2.0940  1.2352  1.1709
  359MOL0     H47344  -0.277   3.266   8.991  1.2475 -0.7020 -0.3370
  359MOL0     H47345  -0.173   3.389   8.968  1.9096 -2.1343  0.5515
  359MOL0     H47346  -0.437   3.368   9.114  0.7954 -0.7546  0.0919
  359MOL0     H47347  -0.352   3.511   9.145 -0.7536 -1.9356  3.4471
  359MOL0     H47348  -0.398   3.453   8.852 -0.0172 -1.2595 -0.2993
  359MOL0     H47349  -0.396   3.610   8.952 -1.8839 -0.4778  0.8364
  359MOL0     H47350  -0.517   3.317   8.760 -0.5329 -0.7666 -2.7179
  359MOL0     H47351  -0.695   3.181   8.655  0.6566 -0.8710 -0.7024
  359MOL0     H47352  -1.140   3.011   8.626  0.2007  0.5805 -0.1102
  359MOL0     H47353  -1.351   2.935   8.576  1.1146  0.0204 -0.0843
  359MOL0     H47354  -1.715   2.952   8.463  0.0976  0.6216  0.0344
  359MOL0     H47355  -1.592   2.876   8.549 -1.1128 -0.1446  1.1617
  359MOL0     H47356  -1.420   2.949   8.355  0.6098  1.3443 -0.5375
  359MOL0     H47357  -1.549   3.024   8.279  1.4580  0.9960  2.1238
  359MOL0     H47358  -1.675   2.784   8.298 -0.0114  1.3478 -1.0785
  359MOL0     H47359  -1.513   2.721   8.316 -0.8979 -1.4104 -2.0201
  359MOL0     H47360  -1.616   2.888   8.087 -0.4441 -0.2394  1.3030
  359MOL0     H47361  -1.444   2.868   8.126  0.1935 -0.6670 -1.8742
  359MOL0     H47362  -1.456   2.632   8.104 -0.9373 -0.6294  0.1166
  359MOL0     H47363  -1.502   2.720   7.950  2.8175 -0.5355  0.8044
  359MOL0     H47364  -1.720   2.660   7.970  1.0449  1.0236 -1.1254
  359MOL0     H47365  -1.707   2.629   8.149 -2.7416  1.4847 -1.6997
  359MOL0     H47366  -1.738   2.424   7.985  0.8770 -3.5242  0.1465
  359MOL0     H47367  -1.601   2.486   7.889  1.3296  1.5858  0.2054
  359MOL0     H47368  -1.575   2.406   8.173  1.0382  1.8348  0.3467
  359MOL0     H47369  -1.454   2.384   8.037  0.6196  0.1380  1.9211
  359MOL0     H47370  -1.489   3.360   8.600 -1.7938 -1.2073 -0.8423
  359MOL0     H47371  -1.272   3.413   8.640 -2.6009  0.6285  0.9947
  359MOL0     H47372  -0.990   3.386   8.869 -0.7612 -2.0673 -3.3746
  359MOL0     H47373  -0.821   3.499   9.015 -2.0962 -1.2528  1.1507
  359MOL0     H47374   0.539   4.357   8.933 -2.4327  0.8558  2.8656
  359MOL0     H47375   0.738   4.259   8.819 -3.4732  1.1672  0.0872
  359MOL0     H47376   0.794   3.885   9.078 -1.0505  2.5759  0.3355
  359MOL0     H47377   0.574   3.805   9.120  0.4889  0.7692  0.9328
  359MOL0     H47378   0.253   3.860   8.796  0.4464 -3.9807  0.9023
  359MOL0     H47379   0.265   3.969   8.946 -3.6210  0.1446  1.6260
  359MOL0     H47380   0.147   3.688   8.962  1.3263  0.5322  1.9012
  359MOL0     H47381   0.129   3.818   9.064 -1.4529  1.1176 -0.0422
  359MOL0     H47382  -0.019   3.806   8.799  4.5400 -1.0093 -0.6258
  359MOL0     H47383   0.009   3.952   8.869 -4.3271 -0.0798 -3.1997
  359MOL0     H47384  -0.151   3.711   8.983  0.8730  0.3492 -0.9031
  359MOL0     H47385  -0.104   3.849   9.090  0.9240 -1.0916  0.9577
  359MOL0     H47386  -0.404   4.028   8.870  1.2274  1.9273 -0.1502
  359MOL0     H47387   0.459   3.910   8.718 -3.5282  1.5276  2.9270
  359MOL0     H47388   0.660   4.000   8.679 -1.0256  2.5742  0.4395
  360MOL0     O47389   6.442  10.900   4.289 -0.6968 -0.3225  0.1459
  360MOL0     C47390   6.461  11.021   4.256 -0.2990 -0.6483 -0.0965
  360MOL0     O47391   6.371  11.103   4.192 -0.2316 -0.6216  0.8886
  360MOL0     C47392   6.243  11.059   4.164  0.4526 -0.6139 -0.0215
  360MOL0     C47393   6.149  11.156   4.150  0.2480  0.0656  0.0842
  360MOL0     C47394   6.016  11.130   4.123 -0.2309 -0.2077 -0.7363
  360MOL0     C47395   5.976  10.997   4.113 -0.5174  0.5499 -0.0561
  360MOL0     O47396   5.848  10.974   4.077  0.2129 -0.8659  0.1752
  360MOL0     C47397   5.805  10.856   4.015 -1.1637  0.9545  0.0409
  360MOL0     C47398   5.664  10.861   3.959  0.1764 -0.0091 -0.5555
  360MOL0     C47399   5.610  10.718   3.928  0.5479 -0.3382  0.0324
  360MOL0     C47400   5.460  10.716   3.917  0.1180  0.3206 -0.5787
  360MOL0     C47401   5.408  10.569   3.886  0.6217 -0.1361 -0.3442
  360MOL0     C47402   5.259  10.559   3.845 -0.1649  0.7111  1.3512
  360MOL0     C47403   5.174  10.571   3.964  0.0478 -0.3731  0.1129
  360MOL0     C47404   5.147  10.435   4.023  0.2779 -0.2899 -0.5950
  360MOL0     N47405   5.049  10.360   3.944 -0.5493  0.7312  0.2165
  360MOL0     C47406   5.075  10.239   3.868  0.4819 -0.7091  0.1891
  360MOL0     C47407   4.980  10.225   3.781  0.1312  0.3727 -0.1036
  360MOL0     C47408   4.958  10.114   3.682  0.1339  0.8068 -0.0999
  360MOL0     C47409   5.086  10.086   3.591  0.5749  0.3901  0.2109
  360MOL0     C47410   5.140   9.933   3.586  0.0475 -0.8838 -1.2581
  360MOL0     C47411   5.265   9.946   3.504  0.7345  0.0944  0.0547
  360MOL0     O47412   5.334   9.820   3.517  0.3193 -0.3152 -0.9592
  360MOL0     C47413   5.459   9.836   3.574 -0.3005 -0.6478  0.1603
  360MOL0     C47414   5.457   9.809   3.716 -0.0453  0.3118  0.4463
  360MOL0     C47415   5.575   9.826   3.790  0.3488 -0.2505 -0.0646
  360MOL0     C47416   5.692   9.874   3.727  0.1087  0.3912 -0.2895
  360MOL0     C47417   5.813   9.909   3.807 -0.0735  0.0601 -0.1402
  360MOL0     O47418   5.924   9.943   3.736 -0.0123  0.1873 -0.3392
  360MOL0     C47419   6.035   9.985   3.802 -0.3555 -0.0014 -0.1385
  360MOL0     C47420   6.101   9.904   3.890 -0.2128 -0.3295 -1.0876
  360MOL0     C47421   6.213   9.951   3.959  0.5191  0.6020 -0.1561
  360MOL0     C47422   6.252  10.082   3.943 -0.5620  0.6127 -0.8825
  360MOL0     O47423   6.366  10.108   4.024 -0.0049  0.3438 -0.1055
  360MOL0     C47424   6.390  10.247   4.056 -0.2567 -0.7707 -0.8115
  360MOL0     C47425   6.532  10.280   4.091 -0.3379  0.3130  0.5210
  360MOL0     C47426   6.617  10.313   3.972  0.8924  0.0932 -0.1467
  360MOL0     C47427   6.674  10.456   3.976 -0.7275 -0.2685 -0.5563
  360MOL0     C47428   6.567  10.555   3.957 -0.3453 -0.0055 -0.5016
  360MOL0     C47429   6.629  10.698   3.965 -0.5024 -0.3344 -0.1802
  360MOL0     C47430   6.529  10.807   3.919  0.0334 -1.1674  0.5916
  360MOL0     C47431   6.577  10.951   3.950  0.5029 -0.5796 -0.1265
  360MOL0    Cl47432   6.708  11.002   3.841  0.1287  0.0945 -0.2458
  360MOL0     C47433   6.182  10.168   3.854 -0.2641 -0.0864  0.8851
  360MOL0     C47434   6.070  10.116   3.785 -0.7437 -0.1406  0.4571
  360MOL0     O47435   5.812   9.886   3.931  0.0992  0.0393  0.6419
  360MOL0     C47436   5.692   9.892   3.591  0.7921 -0.0325 -0.3281
  360MOL0     C47437   5.579   9.868   3.511 -0.6402  0.2210 -0.0059
  360MOL0     N47438   4.888  10.327   3.801 -0.5369 -0.1624  0.4169
  360MOL0     N47439   4.939  10.412   3.889  0.5569 -0.1439 -0.1152
  360MOL0     C47440   6.070  10.891   4.120  0.9750 -0.3341  0.0526
  360MOL0     C47441   6.201  10.928   4.131 -0.8024 -0.5344 -0.7131
  360MOL0     C47442   6.596  11.078   4.286  0.9971 -0.1578 -0.5253
  360MOL0     C47443   6.640  11.190   4.205  0.6487  0.3634 -1.2544
  360MOL0     C47444   6.760  11.246   4.240  0.2911 -0.5936  0.7828
  360MOL0     C47445   6.846  11.196   4.337 -0.4646  0.0105 -0.2061
  360MOL0     O47446   6.973  11.242   4.350 -0.3617  0.2654  0.1017
  360MOL0     C47447   6.975  11.384   4.348 -0.0160  0.5355 -0.2553
  360MOL0     C47448   7.117  11.411   4.405  1.3784  1.5583 -0.1366
  360MOL0     C47449   7.138  11.543   4.474 -0.6137  0.2258 -0.5199
  360MOL0     C47450   7.281  11.554   4.520  0.0719  0.8091 -0.3058
  360MOL0     C47451   7.305  11.465   4.632  0.0632  1.2834  0.4285
  360MOL0     C47452   7.312  11.389   4.729  0.4918  0.0508 -1.0018
  360MOL0     C47453   6.802  11.095   4.422 -0.2854  1.2754  0.7911
  360MOL0     C47454   6.673  11.049   4.404  0.9006 -0.1868 -0.1935
  360MOL0     H47455   6.185  11.258   4.160  0.7276 -0.1906  1.1573
  360MOL0     H47456   5.936  11.203   4.119  0.9768  1.1066 -1.7550
  360MOL0     H47457   5.804  10.784   4.097  0.0160  0.0363 -0.7156
  360MOL0     H47458   5.867  10.817   3.934 -3.3420  0.3982 -1.4413
  360MOL0     H47459   5.659  10.941   3.885 -1.7361  1.8297  1.3974
  360MOL0     H47460   5.610  10.903   4.045  2.5679  1.5432  0.2957
  360MOL0     H47461   5.640  10.649   4.007 -4.1838 -2.6438  0.1621
  360MOL0     H47462   5.652  10.667   3.840 -0.7926 -2.0980  0.3624
  360MOL0     H47463   5.424  10.748   4.016 -2.7366  0.0347 -1.4248
  360MOL0     H47464   5.422  10.789   3.845 -2.7723  0.8146  1.2359
  360MOL0     H47465   5.432  10.499   3.967 -0.1436 -1.9231 -1.6134
  360MOL0     H47466   5.467  10.533   3.801  1.7846  1.3982 -0.2368
  360MOL0     H47467   5.251  10.465   3.790 -0.4243  1.6991 -0.3590
  360MOL0     H47468   5.250  10.637   3.769 -3.4611  0.9331  1.8359
  360MOL0     H47469   5.212  10.636   4.044 -1.1182  0.3997  0.0634
  360MOL0     H47470   5.074  10.613   3.948  0.3282  1.5279  2.6834
  360MOL0     H47471   5.098  10.457   4.118 -0.6328 -1.3337 -0.7914
  360MOL0     H47472   5.235  10.371   4.034 -1.1776 -2.3772 -0.4570
  360MOL0     H47473   5.159  10.171   3.875  1.1933 -0.1259 -2.0444
  360MOL0     H47474   4.867  10.134   3.626 -1.5998 -2.6992  1.1347
  360MOL0     H47475   4.927  10.026   3.740 -2.4016 -1.8414 -4.8097
  360MOL0     H47476   5.171  10.139   3.633 -1.6033  3.3071  1.2640
  360MOL0     H47477   5.078  10.129   3.491 -0.7553  0.9533  0.5275
  360MOL0     H47478   5.148   9.897   3.689  0.3711  0.5611 -0.7479
  360MOL0     H47479   5.071   9.870   3.529 -0.7915 -0.2646 -0.9530
  360MOL0     H47480   5.319  10.032   3.546 -0.2150  0.3748  0.7460
  360MOL0     H47481   5.241   9.966   3.400  1.4501 -0.2326 -0.1780
  360MOL0     H47482   5.360   9.782   3.757 -1.4653  2.2467 -1.3648
  360MOL0     H47483   5.573   9.800   3.896  0.3593 -2.4159 -0.5400
  360MOL0     H47484   6.072   9.802   3.913  2.8020 -1.5445 -2.2357
  360MOL0     H47485   6.261   9.878   4.022  1.2814  0.7054 -0.6041
  360MOL0     H47486   6.321  10.276   4.136 -1.7896  0.6312 -2.5500
  360MOL0     H47487   6.364  10.305   3.967  0.0646 -0.1227 -0.4942
  360MOL0     H47488   6.572  10.204   4.159  0.9082 -0.4462 -0.9904
  360MOL0     H47489   6.525  10.365   4.161  0.3877  0.4153  0.4856
  360MOL0     H47490   6.579  10.292   3.871  0.1462 -4.0837  0.8024
  360MOL0     H47491   6.710  10.255   3.982  0.7169 -0.2399 -0.4069
  360MOL0     H47492   6.721  10.470   4.074 -1.3142  1.4685 -0.5011
  360MOL0     H47493   6.763  10.466   3.913  1.2185 -2.1528  1.6701
  360MOL0     H47494   6.492  10.551   4.037 -2.9935  2.9006 -2.5704
  360MOL0     H47495   6.512  10.550   3.862 -2.7117  0.6187  0.7422
  360MOL0     H47496   6.715  10.685   3.898  1.0092 -1.1018  1.8218
  360MOL0     H47497   6.662  10.724   4.066  0.1266 -2.3234  0.1647
  360MOL0     H47498   6.522  10.811   3.810 -0.1450  1.6257  0.6432
  360MOL0     H47499   6.427  10.786   3.952 -1.6120  2.6471 -1.4076
  360MOL0     H47500   6.593  10.970   4.056 -0.2421  0.5849 -0.2091
  360MOL0     H47501   6.498  11.021   3.921  0.0104 -0.4166  1.5219
  360MOL0     H47502   6.211  10.271   3.842 -1.1203  0.1882  1.1224
  360MOL0     H47503   6.024  10.193   3.724  1.9351  1.5502  0.3985
  360MOL0     H47504   5.781   9.933   3.544 -0.4292  1.6253 -1.3151
  360MOL0     H47505   5.585   9.882   3.403  0.8234  0.1450  0.0360
  360MOL0     H47506   6.038  10.787   4.117 -1.9206  0.3703  2.0673
  360MOL0     H47507   6.273  10.847   4.128 -0.8507 -0.5584 -1.2214
  360MOL0     H47508   6.590  11.236   4.120  1.1258  2.2227 -0.5700
  360MOL0     H47509   6.785  11.328   4.173 -2.6047 -0.8306 -0.7684
  360MOL0     H47510   6.897  11.423   4.415 -0.4940 -1.0891  0.1655
  360MOL0     H47511   6.949  11.426   4.250 -0.9363  0.3157 -0.1211
  360MOL0     H47512   7.137  11.332   4.479 -0.5707  1.9432  0.8841
  360MOL0     H47513   7.183  11.398   4.319 -2.2683 -1.8848 -2.8113
  360MOL0     H47514   7.068  11.532   4.558  2.6148  0.5116  2.4268
  360MOL0     H47515   7.116  11.627   4.409  1.1038 -0.2080 -1.7434
  360MOL0     H47516   7.347  11.535   4.435  0.2730  1.3989 -0.2850
  360MOL0     H47517   7.293  11.656   4.558  0.3223  1.4050 -1.9200
  360MOL0     H47518   7.328  11.322   4.810  1.1276  0.0970 -1.0879
  360MOL0     H47519   6.870  11.063   4.500 -0.4091  0.6877  0.6640
  360MOL0     H47520   6.632  10.970   4.466  1.8123 -0.8682 -0.4494
  361MOL0     O47521   6.144   8.685   4.162  0.0502  0.4448 -0.0478
  361MOL0     C47522   6.069   8.591   4.124 -1.2061 -0.9420  0.1705
  361MOL0     O47523   5.935   8.591   4.144  0.2210  0.5577  1.0014
  361MOL0     C47524   5.883   8.712   4.184  0.0942  0.4716 -0.1579
  361MOL0     C47525   5.845   8.808   4.091 -0.2217 -0.5532 -0.2051
  361MOL0     C47526   5.757   8.911   4.127  0.7303 -0.2280  0.2165
  361MOL0     C47527   5.739   8.942   4.267  0.3973 -0.0092  1.3026
  361MOL0     O47528   5.678   9.059   4.321  0.5306  0.4080  0.0723
  361MOL0     C47529   5.558   9.087   4.251 -0.7035  0.6348  0.6102
  361MOL0     C47530   5.487   9.207   4.317  0.2454  0.2727  0.3440
  361MOL0     C47531   5.576   9.328   4.345  0.3301 -0.2130 -0.5126
  361MOL0     C47532   5.515   9.458   4.399 -0.2404 -0.0524 -0.6893
  361MOL0     C47533   5.604   9.575   4.358 -0.6149  0.4494 -0.4090
  361MOL0     C47534   5.738   9.572   4.417  0.8781  0.2120 -0.3651
  361MOL0     C47535   5.810   9.696   4.389 -0.0418 -0.5257 -0.1448
  361MOL0     C47536   5.870   9.705   4.256 -0.4693  0.6021  0.3049
  361MOL0     N47537   5.975   9.604   4.225 -0.2037 -0.3088  0.6142
  361MOL0     C47538   5.956   9.481   4.173 -0.2356 -0.6189 -0.6074
  361MOL0     C47539   6.075   9.418   4.186  0.7853  0.5452  0.1764
  361MOL0     C47540   6.088   9.271   4.161  0.4885  0.7348  0.5043
  361MOL0     C47541   6.082   9.187   4.281  0.5244  0.0163 -0.0833
  361MOL0     C47542   6.113   9.040   4.266 -0.6725  0.1785  0.2709
  361MOL0     C47543   6.106   8.969   4.400 -0.8488  0.2760  0.0333
  361MOL0     O47544   6.198   9.028   4.505  0.0536 -0.0056  0.0664
  361MOL0     C47545   6.335   9.035   4.487  0.0211  0.2189 -0.3850
  361MOL0     C47546   6.402   8.937   4.414 -0.0237 -0.0600  0.0134
  361MOL0     C47547   6.534   8.967   4.384  0.2166 -0.0384  0.0430
  361MOL0     C47548   6.595   9.092   4.418 -0.0396  0.2000  0.6294
  361MOL0     C47549   6.737   9.119   4.379  0.3553 -0.5803 -0.6371
  361MOL0     O47550   6.808   9.055   4.273  1.0233  0.3390  1.4562
  361MOL0     C47551   6.929   9.093   4.245  0.1059 -0.1433  0.6692
  361MOL0     C47552   7.027   9.010   4.280 -0.2268  0.0537  0.0124
  361MOL0     C47553   7.153   9.040   4.231 -0.9204 -0.1220  0.6123
  361MOL0     C47554   7.192   9.165   4.173  1.2873 -0.2363 -0.1474
  361MOL0     O47555   7.319   9.191   4.137  0.7926 -0.1416  0.1259
  361MOL0     C47556   7.351   9.286   4.042  0.3028  0.5702 -1.2682
  361MOL0     C47557   7.486   9.233   3.988  0.5468  0.4368 -0.4750
  361MOL0     C47558   7.609   9.241   4.089 -0.8967  0.9907  0.4807
  361MOL0     C47559   7.746   9.202   4.033  0.1016 -0.0802 -0.2360
  361MOL0     C47560   7.860   9.292   4.091 -0.0096 -0.3067  0.5750
  361MOL0     C47561   7.998   9.255   4.028 -0.1221 -1.6591  0.7680
  361MOL0     C47562   8.113   9.330   4.099  0.5837 -0.7606  0.0412
  361MOL0     C47563   8.225   9.365   3.999  0.5554  0.1532  0.4968
  361MOL0    Cl47564   8.347   9.477   4.070  0.0293 -0.2760 -0.3253
  361MOL0     C47565   7.085   9.256   4.152 -0.8432  0.2619 -0.4029
  361MOL0     C47566   6.948   9.220   4.188 -0.6321 -0.0695 -0.3947
  361MOL0     O47567   6.794   9.184   4.470 -0.0654  0.2442 -0.4198
  361MOL0     C47568   6.522   9.191   4.485 -0.1730  0.6504  0.5111
  361MOL0     C47569   6.392   9.161   4.514  0.7462  0.2932 -0.7100
  361MOL0     N47570   6.164   9.508   4.236  0.0255  0.4595 -1.0809
  361MOL0     N47571   6.102   9.615   4.272  0.3584  0.1648  1.3162
  361MOL0     C47572   5.785   8.849   4.356  0.2954 -0.1497 -0.2803
  361MOL0     C47573   5.854   8.735   4.312  0.0204 -0.0225  0.0227
  361MOL0     C47574   6.128   8.498   4.029  0.5439 -0.4723  0.2722
  361MOL0     C47575   6.257   8.498   3.978 -0.1337  0.0991 -0.3958
  361MOL0     C47576   6.295   8.426   3.871 -0.1016  0.2385  0.1544
  361MOL0     C47577   6.219   8.313   3.830 -0.2689  0.2253  0.2673
  361MOL0     O47578   6.258   8.242   3.715  0.9419 -0.0568  0.8990
  361MOL0     C47579   6.152   8.177   3.632 -0.2989  0.2364 -0.4544
  361MOL0     C47580   6.075   8.291   3.557 -0.5223 -0.4393  0.6169
  361MOL0     C47581   6.164   8.393   3.470  0.1184  0.2671 -0.8193
  361MOL0     C47582   6.081   8.520   3.429 -0.1114 -0.2042 -0.1769
  361MOL0     C47583   6.161   8.591   3.324  0.4475  0.2515 -0.0593
  361MOL0     C47584   6.247   8.631   3.249 -0.6186  0.1163 -0.1882
  361MOL0     C47585   6.096   8.295   3.892  0.8198 -0.4850 -0.6909
  361MOL0     C47586   6.053   8.385   3.996  0.5885 -0.5081  0.4002
  361MOL0     H47587   5.868   8.801   3.985  0.2633  0.6747 -0.2024
  361MOL0     H47588   5.721   8.992   4.064  2.5153  1.0787  0.7850
  361MOL0     H47589   5.483   9.008   4.258 -1.2785  0.7189 -2.9298
  361MOL0     H47590   5.575   9.110   4.145  0.7377 -1.3572  0.3523
  361MOL0     H47591   5.445   9.171   4.411  2.5497 -2.3719  0.4862
  361MOL0     H47592   5.403   9.225   4.249 -0.5956 -4.6686 -0.3323
  361MOL0     H47593   5.643   9.344   4.260 -1.3147  0.8342 -1.6564
  361MOL0     H47594   5.652   9.295   4.417  1.1328 -0.0839 -1.2780
  361MOL0     H47595   5.423   9.487   4.347 -2.1655  0.9184  2.9185
  361MOL0     H47596   5.502   9.453   4.507  0.3391 -2.3201 -0.6828
  361MOL0     H47597   5.548   9.661   4.395 -0.9656 -0.2401  0.7290
  361MOL0     H47598   5.612   9.573   4.249 -2.3197  0.5590 -0.5639
  361MOL0     H47599   5.793   9.488   4.375  0.0510 -0.7073  0.3301
  361MOL0     H47600   5.729   9.554   4.524  1.2248 -1.2850 -0.5677
  361MOL0     H47601   5.740   9.779   4.397  0.0906 -0.4055 -0.2343
  361MOL0     H47602   5.887   9.719   4.464 -1.4784  1.6865  0.7449
  361MOL0     H47603   5.911   9.804   4.234  3.5081 -1.0904 -0.6819
  361MOL0     H47604   5.792   9.687   4.181 -1.9186  3.0483  1.0939
  361MOL0     H47605   5.862   9.435   4.147 -0.7048  0.4292 -0.8176
  361MOL0     H47606   6.172   9.238   4.098  0.8243  1.6563  0.4558
  361MOL0     H47607   6.000   9.244   4.101  0.6944  2.1803 -0.4876
  361MOL0     H47608   5.984   9.206   4.325  0.8733 -0.4348  0.9214
  361MOL0     H47609   6.147   9.232   4.356 -0.0908 -0.2844  0.6369
  361MOL0     H47610   6.048   9.003   4.186  1.4763 -1.3628 -0.8834
  361MOL0     H47611   6.213   9.049   4.221 -1.2952 -1.0789 -1.4970
  361MOL0     H47612   6.131   8.862   4.400  1.6304  0.7818  0.6301
  361MOL0     H47613   6.003   8.988   4.432 -0.3184  0.0119  2.0243
  361MOL0     H47614   6.369   8.839   4.384  2.3827 -1.8005  2.5491
  361MOL0     H47615   6.580   8.883   4.332  1.2099  0.0174  0.7895
  361MOL0     H47616   7.009   8.918   4.335 -1.1032  1.6168  2.4923
  361MOL0     H47617   7.238   8.973   4.240 -0.2279  0.5711 -0.5403
  361MOL0     H47618   7.360   9.383   4.092 -0.5991  0.3798 -0.7028
  361MOL0     H47619   7.278   9.280   3.960  0.3540  3.1502 -1.5942
  361MOL0     H47620   7.506   9.296   3.901 -1.2345  2.4373  0.4581
  361MOL0     H47621   7.466   9.134   3.947 -1.8252  1.2842 -1.6205
  361MOL0     H47622   7.595   9.192   4.185 -1.5185 -0.8972 -0.5285
  361MOL0     H47623   7.617   9.347   4.117 -0.2269  1.3092 -0.8001
  361MOL0     H47624   7.764   9.099   4.065 -4.2643 -1.6219 -1.9980
  361MOL0     H47625   7.755   9.205   3.924 -2.4209  0.1297 -0.4907
  361MOL0     H47626   7.860   9.291   4.201 -0.4393  0.9213  0.5962
  361MOL0     H47627   7.838   9.389   4.047 -0.3159 -1.9711 -3.3429
  361MOL0     H47628   7.999   9.290   3.925  0.3921 -0.3895  1.1905
  361MOL0     H47629   8.005   9.146   4.028  2.2978 -1.5474 -0.3913
  361MOL0     H47630   8.086   9.418   4.157 -1.7071 -1.2700 -0.1431
  361MOL0     H47631   8.163   9.268   4.174  2.3202 -0.4598 -0.8032
  361MOL0     H47632   8.194   9.403   3.902  1.0904 -0.6693 -0.0132
  361MOL0     H47633   8.274   9.271   3.973  1.2090  0.4538  0.6131
  361MOL0     H47634   7.107   9.349   4.100 -4.9645  1.8973  0.3926
  361MOL0     H47635   6.863   9.286   4.173 -1.3442 -0.8189  0.2265
  361MOL0     H47636   6.561   9.288   4.514 -0.9133  0.7470  1.2020
  361MOL0     H47637   6.330   9.241   4.554  1.3785  0.4862 -0.0860
  361MOL0     H47638   5.765   8.873   4.460 -0.7399 -2.2208  0.0473
  361MOL0     H47639   5.874   8.651   4.378 -3.3368 -1.2555 -0.3603
  361MOL0     H47640   6.319   8.585   3.996 -0.4138 -0.1283  1.8570
  361MOL0     H47641   6.390   8.446   3.823 -0.6559  1.3311 -0.5159
  361MOL0     H47642   6.080   8.116   3.686 -1.3457  0.5381 -1.4691
  361MOL0     H47643   6.207   8.121   3.556  5.2448  4.1116  0.1021
  361MOL0     H47644   6.012   8.246   3.479  0.6346 -0.5860 -0.2630
  361MOL0     H47645   6.008   8.344   3.625 -0.7148  0.7392 -0.4484
  361MOL0     H47646   6.198   8.341   3.380  2.1028  0.4496 -0.2273
  361MOL0     H47647   6.250   8.431   3.526 -0.2345  1.7063 -1.2144
  361MOL0     H47648   5.985   8.485   3.389  0.0146  1.1502 -1.7833
  361MOL0     H47649   6.067   8.579   3.521  3.4419 -1.5477  1.3873
  361MOL0     H47650   6.322   8.668   3.183  0.2571 -0.8780  0.2280
  361MOL0     H47651   6.042   8.203   3.868 -1.1501 -0.0104  1.5850
  361MOL0     H47652   5.953   8.386   4.036  1.7836  1.6738  3.7128
  362MOL0     O47653   1.615   5.445   4.587  0.6424  0.2029 -0.8208
  362MOL0     C47654   1.648   5.413   4.473  0.2898  0.0307 -0.7065
  362MOL0     O47655   1.571   5.367   4.374  0.3412 -0.9022 -0.0492
  362MOL0     C47656   1.438   5.361   4.403  0.2242 -0.1500 -1.1640
  362MOL0     C47657   1.368   5.474   4.455 -0.8748  0.4278 -0.1297
  362MOL0     C47658   1.229   5.480   4.454 -0.8785 -0.9023 -0.3047
  362MOL0     C47659   1.157   5.370   4.412 -0.2963 -0.2358  0.3070
  362MOL0     O47660   1.022   5.372   4.411  0.2658 -0.2309  0.4997
  362MOL0     C47661   0.963   5.456   4.309 -1.0150 -0.8365 -0.2108
  362MOL0     C47662   0.820   5.416   4.279 -0.0564  1.0530 -0.2565
  362MOL0     C47663   0.769   5.472   4.145 -0.2548 -0.4027  0.2777
  362MOL0     C47664   0.644   5.396   4.108 -0.5331 -0.3962 -0.2220
  362MOL0     C47665   0.591   5.463   3.982  0.5988  0.1083 -0.4743
  362MOL0     C47666   0.511   5.599   4.014  0.7919  0.1883 -0.2594
  362MOL0     C47667   0.469   5.674   3.901 -0.2519  0.3709 -0.2016
  362MOL0     C47668   0.582   5.719   3.804 -0.4061  0.0412 -0.5908
  362MOL0     N47669   0.541   5.826   3.723 -0.2628  0.1491 -0.5091
  362MOL0     C47670   0.631   5.917   3.667 -1.0595 -0.0418 -1.3540
  362MOL0     C47671   0.556   5.992   3.588  0.1280 -0.4248 -0.1818
  362MOL0     C47672   0.582   6.129   3.539 -0.1570  0.0342 -0.8839
  362MOL0     C47673   0.696   6.127   3.437  0.8770  0.1445 -0.5202
  362MOL0     C47674   0.790   6.248   3.427 -0.5734  0.4287 -0.0481
  362MOL0     C47675   0.848   6.285   3.562 -0.8146  0.4394  0.3802
  362MOL0     O47676   0.918   6.168   3.620 -0.5293  0.0559 -0.2536
  362MOL0     C47677   1.052   6.189   3.649 -0.0091 -0.0266 -0.6266
  362MOL0     C47678   1.145   6.087   3.616  0.7389 -0.2294 -0.5745
  362MOL0     C47679   1.281   6.095   3.661  0.1708 -0.3450 -0.3786
  362MOL0     C47680   1.324   6.197   3.751  0.6916 -0.7659 -1.0506
  362MOL0     C47681   1.467   6.213   3.804 -0.0658 -0.2757  0.1702
  362MOL0     O47682   1.491   6.326   3.882 -0.3299 -0.1752  1.5609
  362MOL0     C47683   1.596   6.338   3.971  0.4188  0.0931  0.2154
  362MOL0     C47684   1.566   6.383   4.099  0.5219 -0.3168  0.1966
  362MOL0     C47685   1.674   6.405   4.188 -0.3274 -0.0026  1.1069
  362MOL0     C47686   1.813   6.397   4.150  0.4372 -0.1944 -0.4438
  362MOL0     O47687   1.923   6.411   4.238 -0.4668  0.3778 -0.8460
  362MOL0     C47688   1.899   6.403   4.381  0.4911 -0.6694 -0.2630
  362MOL0     C47689   2.024   6.354   4.447 -0.2765  0.5960 -0.3090
  362MOL0     C47690   2.101   6.464   4.507 -0.8312  0.6135  0.2929
  362MOL0     C47691   2.239   6.408   4.550 -0.0552 -0.1494  0.3569
  362MOL0     C47692   2.346   6.516   4.611  0.0292  0.7103  0.2900
  362MOL0     C47693   2.478   6.461   4.661  1.9684 -0.0919  0.2484
  362MOL0     C47694   2.559   6.565   4.745  0.0828 -0.2654 -0.1101
  362MOL0     C47695   2.615   6.683   4.667 -0.3857 -0.3180 -0.3763
  362MOL0    Cl47696   2.667   6.798   4.776 -0.0473  0.2283  0.2219
  362MOL0     C47697   1.835   6.356   4.015  0.2595  0.2730  0.2189
  362MOL0     C47698   1.725   6.323   3.933 -0.8038 -0.1603  0.4320
  362MOL0     O47699   1.548   6.129   3.772  1.0326  0.0959 -0.0625
  362MOL0     C47700   1.230   6.294   3.788  0.1550  0.3414 -0.1398
  362MOL0     C47701   1.100   6.290   3.741  0.4121  0.7080  0.3263
  362MOL0     N47702   0.427   5.927   3.574 -0.1071  0.3191 -0.3973
  362MOL0     N47703   0.425   5.822   3.653  0.5429  0.0734  1.5531
  362MOL0     C47704   1.222   5.253   4.367  0.1126 -0.0842 -0.4110
  362MOL0     C47705   1.363   5.251   4.360 -0.7513  0.0186 -0.3662
  362MOL0     C47706   1.787   5.445   4.448  0.5446  0.8847  0.7540
  362MOL0     C47707   1.845   5.403   4.328  1.1775 -0.2519 -0.0727
  362MOL0     C47708   1.977   5.433   4.291  0.4009 -0.3060 -0.1903
  362MOL0     C47709   2.052   5.514   4.380 -0.0330 -0.3747  0.0163
  362MOL0     O47710   2.182   5.561   4.371 -0.6739 -0.0700 -0.1317
  362MOL0     C47711   2.234   5.577   4.240  0.4813  0.3756  0.7155
  362MOL0     C47712   2.367   5.665   4.252  0.6238  0.0493  0.0243
  362MOL0     C47713   2.447   5.652   4.117 -0.5082  1.0551 -0.6178
  362MOL0     C47714   2.553   5.760   4.095 -0.4110  0.0980 -0.4435
  362MOL0     C47715   2.614   5.732   3.964 -0.6911 -0.1405 -0.4947
  362MOL0     C47716   2.662   5.686   3.863 -0.1945  0.2961  0.5977
  362MOL0     C47717   1.999   5.552   4.503  0.1475 -0.5488  1.1707
  362MOL0     C47718   1.869   5.511   4.544  0.2391  0.5257 -0.2292
  362MOL0     H47719   1.426   5.552   4.503  0.5079 -1.3185  1.1897
  362MOL0     H47720   1.179   5.567   4.494  0.1062  1.1494 -3.1826
  362MOL0     H47721   1.021   5.450   4.216 -0.4883  2.6173 -0.2273
  362MOL0     H47722   0.955   5.564   4.327  3.1620 -0.3587 -0.3814
  362MOL0     H47723   0.763   5.454   4.364  0.7330  0.6858  0.4566
  362MOL0     H47724   0.809   5.307   4.276  0.7048  0.9118  1.2644
  362MOL0     H47725   0.848   5.463   4.069  0.5638 -1.8877  1.2609
  362MOL0     H47726   0.763   5.581   4.152  2.8230 -0.2422  2.7402
  362MOL0     H47727   0.667   5.294   4.078  1.1397  0.5236 -2.3287
  362MOL0     H47728   0.561   5.400   4.179 -0.5424 -0.9387 -0.2032
  362MOL0     H47729   0.512   5.396   3.946  0.7083 -0.2912  0.0141
  362MOL0     H47730   0.668   5.469   3.905  1.1123  0.9515  0.0923
  362MOL0     H47731   0.569   5.660   4.084  0.4032 -1.5656  1.7083
  362MOL0     H47732   0.415   5.576   4.060  1.0924 -0.7377 -0.0656
  362MOL0     H47733   0.394   5.616   3.846 -0.8448  0.4286  0.5280
  362MOL0     H47734   0.430   5.773   3.928 -1.7488  0.4013 -2.2481
  362MOL0     H47735   0.616   5.636   3.742 -1.3574 -0.3696 -0.5840
  362MOL0     H47736   0.664   5.767   3.859 -1.5626  0.0335  1.2342
  362MOL0     H47737   0.735   5.932   3.693 -0.6436 -1.9775 -1.7214
  362MOL0     H47738   0.599   6.186   3.631 -3.0030  0.9916 -0.8513
  362MOL0     H47739   0.492   6.171   3.494 -2.0034 -0.6437  1.9245
  362MOL0     H47740   0.644   6.125   3.341  1.5208  2.0898 -0.9509
  362MOL0     H47741   0.756   6.036   3.442 -2.5640 -2.4787  5.7293
  362MOL0     H47742   0.870   6.229   3.354  0.1895  0.7364  0.6887
  362MOL0     H47743   0.741   6.338   3.387 -0.0195  1.0896  0.7144
  362MOL0     H47744   0.780   6.326   3.637  0.0464  0.3506  1.2255
  362MOL0     H47745   0.918   6.368   3.553 -1.8083  1.6924  3.0688
  362MOL0     H47746   1.113   5.987   3.590 -3.6721  0.4454  1.4736
  362MOL0     H47747   1.360   6.021   3.649 -0.1731 -0.8430  0.4157
  362MOL0     H47748   1.461   6.407   4.112  1.0884  2.7943 -0.1817
  362MOL0     H47749   1.650   6.431   4.290  0.8952  3.0748  0.7081
  362MOL0     H47750   1.820   6.328   4.389 -3.0072  2.3122 -3.2965
  362MOL0     H47751   1.857   6.494   4.425  0.4245 -1.5646  1.6374
  362MOL0     H47752   2.090   6.294   4.383  1.9072  0.2601  2.1073
  362MOL0     H47753   1.985   6.291   4.527 -1.8299  0.9478 -0.7523
  362MOL0     H47754   2.048   6.511   4.590 -2.2763  0.2266 -0.3917
  362MOL0     H47755   2.124   6.529   4.422 -1.3437 -0.7031 -0.9063
  362MOL0     H47756   2.227   6.334   4.629  2.4187  0.8551  1.7703
  362MOL0     H47757   2.282   6.369   4.457 -1.6205  1.1736 -0.9969
  362MOL0     H47758   2.292   6.565   4.692 -2.5159 -1.6330  0.1729
  362MOL0     H47759   2.371   6.583   4.528  2.9253  1.0534  1.3385
  362MOL0     H47760   2.527   6.440   4.566  1.9187  2.5701 -0.4360
  362MOL0     H47761   2.456   6.369   4.716  2.9449 -2.1492 -2.5353
  362MOL0     H47762   2.495   6.613   4.819  0.5689  0.6680 -0.2766
  362MOL0     H47763   2.639   6.507   4.792  0.8671  1.8930  1.3531
  362MOL0     H47764   2.551   6.731   4.592 -1.9260 -2.6510 -0.6549
  362MOL0     H47765   2.699   6.645   4.608 -1.3353 -1.6290 -0.9314
  362MOL0     H47766   1.936   6.343   3.979 -0.7296 -3.5252 -1.6338
  362MOL0     H47767   1.744   6.276   3.837 -1.2424  2.3521 -0.9642
  362MOL0     H47768   1.263   6.385   3.837  1.3060 -1.7451  3.3128
  362MOL0     H47769   1.032   6.371   3.766 -0.6811  1.1092 -3.3396
  362MOL0     H47770   1.156   5.173   4.334  0.2693  0.9756 -3.6810
  362MOL0     H47771   1.414   5.175   4.302 -1.5110  0.3881 -1.5494
  362MOL0     H47772   1.792   5.336   4.261  2.4383 -0.3672 -0.9817
  362MOL0     H47773   2.009   5.421   4.188  0.2723  1.7339 -0.5063
  362MOL0     H47774   2.160   5.620   4.171  2.1146 -1.2441 -2.2194
  362MOL0     H47775   2.271   5.488   4.188  0.4323  2.0116 -2.4172
  362MOL0     H47776   2.339   5.766   4.282  2.5744  0.3391  1.0357
  362MOL0     H47777   2.423   5.635   4.341 -1.8872  0.7118  1.9561
  362MOL0     H47778   2.376   5.651   4.033 -1.8261  2.3414  0.4391
  362MOL0     H47779   2.498   5.555   4.115 -1.0001  0.7594  0.7452
  362MOL0     H47780   2.504   5.855   4.073 -1.0544 -0.1582 -0.1515
  362MOL0     H47781   2.623   5.765   4.179 -1.2721  2.5972  0.2114
  362MOL0     H47782   2.707   5.650   3.772  1.6198  4.1146 -0.2228
  362MOL0     H47783   2.062   5.610   4.570  1.9548 -1.8945  0.7274
  362MOL0     H47784   1.833   5.558   4.635  0.0330 -0.5049  0.2458
  363MOL0     O47785   2.989   7.034   9.602 -0.4469  0.0752  0.3863
  363MOL0     C47786   2.997   6.943   9.521  0.6916 -0.4471  0.6934
  363MOL0     O47787   3.083   6.846   9.527 -0.0778 -0.8213 -0.2632
  363MOL0     C47788   3.193   6.856   9.603 -1.5675  0.7767 -0.6323
  363MOL0     C47789   3.273   6.968   9.593  0.7396 -0.1232  0.2119
  363MOL0     C47790   3.396   6.976   9.652 -0.0564  0.2417  0.5156
  363MOL0     C47791   3.439   6.875   9.739 -0.5083  0.3399  0.3772
  363MOL0     O47792   3.569   6.891   9.784  0.7958  0.4640  0.9859
  363MOL0     C47793   3.585   6.867   9.926 -0.0879  0.6534  0.6531
  363MOL0     C47794   3.578   7.005   9.989  0.5458 -0.2726  0.3496
  363MOL0     C47795   3.553   6.990  10.138  0.3095 -0.4034 -0.3329
  363MOL0     C47796   3.665   6.925  10.206 -0.0704  0.0463  0.1138
  363MOL0     C47797   3.689   6.988  10.342 -0.3802 -0.6622 -0.1337
  363MOL0     C47798   3.770   7.124  10.338 -0.3861 -0.7857 -0.5794
  363MOL0     C47799   3.903   7.120  10.260  0.5793 -0.3640  0.8647
  363MOL0     C47800   4.016   7.226  10.296 -0.0733 -0.3122 -1.1563
  363MOL0     N47801   3.978   7.364  10.263 -0.2727  0.0104  0.4710
  363MOL0     C47802   3.923   7.405  10.139 -0.1462  0.3091 -0.3058
  363MOL0     C47803   3.885   7.536  10.169  0.9425  0.7567  0.6439
  363MOL0     C47804   3.857   7.634  10.063 -0.4966 -0.9154  0.6689
  363MOL0     C47805   3.901   7.585   9.924 -0.0959  0.0187 -0.4746
  363MOL0     C47806   3.905   7.686   9.809  0.1317 -0.2083  0.4173
  363MOL0     C47807   3.971   7.619   9.689  1.0603 -0.4809  0.0725
  363MOL0     O47808   4.113   7.592   9.712  0.2647 -0.2527  0.3896
  363MOL0     C47809   4.188   7.537   9.612  0.7430  0.6433 -0.6601
  363MOL0     C47810   4.142   7.485   9.485 -1.1998 -0.8384 -0.8847
  363MOL0     C47811   4.242   7.418   9.409 -0.2555 -0.1829 -0.8030
  363MOL0     C47812   4.377   7.413   9.443 -0.2382  0.1223  0.8111
  363MOL0     C47813   4.475   7.344   9.354 -0.0355 -1.0666  0.6715
  363MOL0     O47814   4.606   7.343   9.400  0.0031 -0.6166  0.1823
  363MOL0     C47815   4.706   7.278   9.333  1.0855 -0.0120  0.3042
  363MOL0     C47816   4.779   7.173   9.390 -0.6984 -0.7677 -0.1453
  363MOL0     C47817   4.877   7.103   9.322  0.6769 -0.6672  0.6982
  363MOL0     C47818   4.910   7.132   9.190 -0.4531 -0.1113 -0.1557
  363MOL0     O47819   5.015   7.059   9.132  0.2258  0.1602 -0.0006
  363MOL0     C47820   5.069   7.119   9.011  0.2715 -1.0603  0.2802
  363MOL0     C47821   5.163   7.231   9.065 -0.6965  0.2559  0.4884
  363MOL0     C47822   5.296   7.180   9.121 -0.6033 -0.0302  1.2137
  363MOL0     C47823   5.397   7.288   9.165 -0.7797 -0.3159 -0.1786
  363MOL0     C47824   5.531   7.223   9.213 -0.2508 -0.9450 -0.0253
  363MOL0     C47825   5.588   7.125   9.115  0.4087 -0.2909 -0.2141
  363MOL0     C47826   5.599   7.188   8.968 -0.2562  0.3580 -0.2054
  363MOL0     C47827   5.624   7.079   8.861  0.0201  0.3132 -0.1142
  363MOL0    Cl47828   5.748   6.955   8.892  0.4999 -0.3779  0.0307
  363MOL0     C47829   4.832   7.230   9.127  0.1568  0.3407  1.5275
  363MOL0     C47830   4.731   7.302   9.197  0.8048  0.5129  0.1197
  363MOL0     O47831   4.435   7.273   9.260 -0.2766  0.6300  0.5449
  363MOL0     C47832   4.414   7.481   9.552 -0.8058 -0.1882 -0.6821
  363MOL0     C47833   4.320   7.527   9.640 -0.2157  0.1679 -0.1451
  363MOL0     N47834   3.899   7.558  10.300  0.4105 -0.2889 -0.6836
  363MOL0     N47835   3.953   7.459  10.356  0.3379  0.5481  0.4682
  363MOL0     C47836   3.361   6.762   9.749 -0.4034  0.9085  0.7680
  363MOL0     C47837   3.247   6.747   9.671  0.0985  0.0117  0.1224
  363MOL0     C47838   2.881   6.937   9.419  0.5828 -1.0721 -0.2397
  363MOL0     C47839   2.887   6.851   9.314 -1.1978 -0.6710  1.0227
  363MOL0     C47840   2.782   6.850   9.224 -1.1404  0.4222 -0.1659
  363MOL0     C47841   2.672   6.934   9.239  0.5614  0.1406  0.3408
  363MOL0     O47842   2.558   6.918   9.162 -0.1211 -0.4599 -0.2203
  363MOL0     C47843   2.574   6.984   9.037  0.5926 -0.5637  0.2000
  363MOL0     C47844   2.445   6.979   8.946 -0.1190  0.0052 -0.6052
  363MOL0     C47845   2.436   6.855   8.855  0.9422  0.4523  0.2994
  363MOL0     C47846   2.527   6.852   8.736 -0.0313 -0.0103 -0.2639
  363MOL0     C47847   2.657   6.789   8.765 -0.1373 -1.0229 -0.9395
  363MOL0     C47848   2.755   6.729   8.789  0.3418 -1.7570  0.2996
  363MOL0     C47849   2.659   7.012   9.359  0.3685  0.8193 -0.0229
  363MOL0     C47850   2.765   7.014   9.447 -0.5542  1.4248  0.1504
  363MOL0     H47851   3.240   7.048   9.527  0.8422  0.5355  0.9381
  363MOL0     H47852   3.451   7.070   9.653 -0.4587  0.4956  2.0239
  363MOL0     H47853   3.686   6.827   9.939 -0.9159 -1.4667  1.0182
  363MOL0     H47854   3.517   6.792   9.968 -1.8091  1.8488  0.1065
  363MOL0     H47855   3.484   7.045   9.952 -0.7384 -2.5590  0.9169
  363MOL0     H47856   3.675   7.055   9.981 -0.7352  2.0979 -1.7963
  363MOL0     H47857   3.455   6.943  10.156 -2.0211  4.3923  1.2089
  363MOL0     H47858   3.536   7.088  10.182 -1.3244 -1.2630  1.0792
  363MOL0     H47859   3.657   6.818  10.228  0.8741 -0.1396 -0.4106
  363MOL0     H47860   3.756   6.932  10.146  1.0410  0.5445  1.7651
  363MOL0     H47861   3.758   6.923  10.395  3.3484  2.0072 -1.2653
  363MOL0     H47862   3.592   6.991  10.393  0.9804  0.6454  2.6100
  363MOL0     H47863   3.788   7.159  10.440  0.7160  0.5863 -1.2153
  363MOL0     H47864   3.709   7.199  10.288  1.1046 -0.0253 -1.3261
  363MOL0     H47865   3.942   7.022  10.289 -1.1839 -1.1505  0.7055
  363MOL0     H47866   3.873   7.130  10.156 -0.9710 -1.2861  1.2010
  363MOL0     H47867   4.105   7.194  10.241  1.3312  0.8851  0.3046
  363MOL0     H47868   4.020   7.227  10.406 -3.0874  0.8686 -0.9651
  363MOL0     H47869   3.928   7.353  10.044  1.4404 -3.7031  1.7427
  363MOL0     H47870   3.929   7.713  10.087  0.2491 -0.4190 -2.6480
  363MOL0     H47871   3.756   7.676  10.066 -0.3436 -0.3799 -0.6718
  363MOL0     H47872   3.832   7.511   9.881 -2.1353  0.7195  1.3793
  363MOL0     H47873   4.003   7.549   9.932 -0.1869 -0.3144 -0.7720
  363MOL0     H47874   3.804   7.717   9.780  0.0287  0.7322  1.6983
  363MOL0     H47875   3.962   7.777   9.829 -1.0527  1.4309 -2.8007
  363MOL0     H47876   3.974   7.685   9.601  2.8000 -2.1737 -1.2297
  363MOL0     H47877   3.911   7.530   9.666  0.0668  0.1294  0.2309
  363MOL0     H47878   4.037   7.492   9.457 -0.8615 -2.2079 -2.6660
  363MOL0     H47879   4.219   7.369   9.315 -0.4185  3.0848 -2.6245
  363MOL0     H47880   4.766   7.140   9.492  3.7316 -2.4469  0.0887
  363MOL0     H47881   4.933   7.024   9.371  0.5916 -0.8879  0.4454
  363MOL0     H47882   5.000   7.141   8.930 -0.7086 -0.8431  1.1510
  363MOL0     H47883   5.125   7.033   8.973 -1.8565 -2.2527 -0.3007
  363MOL0     H47884   5.118   7.301   9.136  1.8514  2.0083  0.5108
  363MOL0     H47885   5.169   7.302   8.982 -3.6897 -0.4004 -0.4456
  363MOL0     H47886   5.335   7.124   9.036 -0.4077  0.7333  0.7919
  363MOL0     H47887   5.288   7.103   9.199 -0.1006 -0.6005  0.7187
  363MOL0     H47888   5.408   7.369   9.093 -3.0039 -0.1413 -0.4027
  363MOL0     H47889   5.343   7.338   9.246  0.0916 -0.3812  0.4561
  363MOL0     H47890   5.520   7.168   9.307  1.6568  2.9188  2.7520
  363MOL0     H47891   5.600   7.307   9.225 -0.5771 -0.4374 -1.5426
  363MOL0     H47892   5.528   7.033   9.125  0.8399 -0.3176  3.9082
  363MOL0     H47893   5.690   7.102   9.146 -0.4905  0.1694  3.7160
  363MOL0     H47894   5.509   7.241   8.933  0.1177  0.7541 -0.5789
  363MOL0     H47895   5.676   7.265   8.962  1.8418 -1.7372 -4.1509
  363MOL0     H47896   5.653   7.131   8.769 -1.8037 -1.1584 -1.6134
  363MOL0     H47897   5.525   7.033   8.849 -1.3088  2.4536  1.8538
  363MOL0     H47898   4.839   7.240   9.019 -3.2936  1.0729  1.2641
  363MOL0     H47899   4.670   7.370   9.138  0.6521  2.2143  2.1085
  363MOL0     H47900   4.515   7.481   9.590 -2.1373 -1.8695  3.3336
  363MOL0     H47901   4.362   7.559   9.735 -0.8533 -2.3777  1.0774
  363MOL0     H47902   3.390   6.676   9.809  1.4082  0.0823 -1.1433
  363MOL0     H47903   3.202   6.650   9.692  2.8848 -1.7201 -1.3369
  363MOL0     H47904   2.973   6.788   9.292 -1.2962 -0.9632  1.4607
  363MOL0     H47905   2.794   6.779   9.143 -3.2411 -0.4340  0.2098
  363MOL0     H47906   2.655   6.938   8.980  1.3865  1.8381 -0.7593
  363MOL0     H47907   2.591   7.089   9.064 -0.4623 -0.3535  0.1155
  363MOL0     H47908   2.365   6.966   9.019  1.5765 -0.6302  1.2476
  363MOL0     H47909   2.416   7.071   8.894  1.0470  0.8938  0.2616
  363MOL0     H47910   2.333   6.850   8.820  0.6503  1.2853  1.0286
  363MOL0     H47911   2.448   6.759   8.907 -1.3559 -0.4387 -0.7073
  363MOL0     H47912   2.471   6.803   8.657 -3.1149  1.8852  0.5901
  363MOL0     H47913   2.549   6.953   8.700 -2.0518 -0.4144 -2.8883
  363MOL0     H47914   2.834   6.661   8.817 -0.2055 -2.2335  0.7082
  363MOL0     H47915   2.561   7.053   9.382 -0.2675 -1.2243  1.1341
  363MOL0     H47916   2.752   7.079   9.533  1.4372  2.5047 -0.2979
  364MOL0     O47917   1.401   3.762   6.862 -0.2215  0.0204  0.3100
  364MOL0     C47918   1.392   3.647   6.894  0.5090 -0.5520 -0.3380
  364MOL0     O47919   1.271   3.590   6.927  0.3032  0.1284  0.0548
  364MOL0     C47920   1.157   3.669   6.913  0.8539 -0.5445  0.2304
  364MOL0     C47921   1.114   3.708   6.792  0.5116 -0.6821 -0.3408
  364MOL0     C47922   0.997   3.781   6.783  0.1636 -1.0491 -0.1517
  364MOL0     C47923   0.935   3.836   6.891  0.9202  0.2245  0.3687
  364MOL0     O47924   0.829   3.923   6.889  0.4895  0.3958 -0.2448
  364MOL0     C47925   0.818   4.018   6.783  0.2276 -0.8058 -0.3644
  364MOL0     C47926   0.716   3.985   6.680 -0.4349  0.4627  0.5789
  364MOL0     C47927   0.577   3.980   6.744  0.6886  0.3920 -0.0557
  364MOL0     C47928   0.472   4.086   6.695  0.4809 -0.1786 -0.0025
  364MOL0     C47929   0.330   4.055   6.734  0.4240 -0.0944  0.1684
  364MOL0     C47930   0.318   4.006   6.883 -0.6230 -0.2306  0.1899
  364MOL0     C47931   0.172   4.004   6.932 -0.4825  0.3319 -0.3144
  364MOL0     C47932   0.170   3.903   7.048 -0.0472  0.2848 -0.2256
  364MOL0     N47933   0.033   3.898   7.100  0.6042  0.2050 -0.0249
  364MOL0     C47934  -0.074   3.853   7.023  0.3602  0.1549 -0.3176
  364MOL0     C47935  -0.176   3.863   7.109  0.5390 -0.3669  0.4879
  364MOL0     C47936  -0.318   3.819   7.079  0.0951  0.1103  0.1032
  364MOL0     C47937  -0.419   3.876   7.174  0.6709 -0.2295 -0.3423
  364MOL0     C47938  -0.545   3.801   7.179  1.1387 -0.0284  0.2542
  364MOL0     C47939  -0.646   3.857   7.073  0.0218  0.3884 -0.4801
  364MOL0     O47940  -0.780   3.805   7.092 -0.2302  0.7743  0.6322
  364MOL0     C47941  -0.784   3.672   7.048  0.2012 -0.2284  0.9969
  364MOL0     C47942  -0.777   3.567   7.137 -0.9590  0.6923  1.2460
  364MOL0     C47943  -0.782   3.437   7.090 -0.2877 -0.4083  0.4358
  364MOL0     C47944  -0.789   3.408   6.948 -0.9726  0.7258 -0.1154
  364MOL0     C47945  -0.796   3.267   6.908 -0.5156  0.0786  0.3881
  364MOL0     O47946  -0.817   3.236   6.770  0.3826  0.9702  0.0185
  364MOL0     C47947  -0.791   3.099   6.733 -0.7848 -0.6681  0.1004
  364MOL0     C47948  -0.878   3.032   6.655  0.8749 -0.1572  0.1209
  364MOL0     C47949  -0.855   2.897   6.616 -0.0404  0.1637 -0.0622
  364MOL0     C47950  -0.741   2.824   6.645  0.6334 -0.0029 -0.3006
  364MOL0     O47951  -0.736   2.687   6.639 -0.1265  0.0470  0.2452
  364MOL0     C47952  -0.741   2.638   6.506  0.1795  0.3519  0.2411
  364MOL0     C47953  -0.688   2.499   6.495 -0.0255 -0.1097  0.0650
  364MOL0     C47954  -0.669   2.452   6.357 -0.1911  0.5120  0.3863
  364MOL0     C47955  -0.574   2.326   6.340  0.4321 -0.6117  0.5682
  364MOL0     C47956  -0.526   2.309   6.188 -0.3559 -0.7138  0.3038
  364MOL0     C47957  -0.440   2.425   6.140  0.0846  0.9023  0.2439
  364MOL0     C47958  -0.367   2.380   6.015 -0.2615 -0.1377  0.5008
  364MOL0     C47959  -0.366   2.485   5.904  0.1767 -0.1746  0.0042
  364MOL0    Cl47960  -0.537   2.523   5.853 -0.3861 -0.1538 -0.7024
  364MOL0     C47961  -0.644   2.897   6.720  0.5366 -0.3985  0.4688
  364MOL0     C47962  -0.669   3.033   6.765 -0.3824  0.8238  0.0759
  364MOL0     O47963  -0.773   3.184   6.989 -0.5245 -0.0820  0.4055
  364MOL0     C47964  -0.794   3.514   6.860 -0.2136  0.2762  0.0555
  364MOL0     C47965  -0.791   3.648   6.910  0.3931 -0.7490  0.6237
  364MOL0     N47966  -0.133   3.934   7.223  0.0398 -0.2385 -0.4396
  364MOL0     N47967  -0.009   3.950   7.220 -0.1965  0.2696  0.5045
  364MOL0     C47968   0.964   3.784   7.015  0.9924 -0.8847 -0.5097
  364MOL0     C47969   1.076   3.712   7.028  0.4230  0.2456 -0.4702
  364MOL0     C47970   1.509   3.563   6.923 -0.4570 -0.4361 -0.0634
  364MOL0     C47971   1.491   3.436   6.976 -0.4055 -0.3943 -0.0218
  364MOL0     C47972   1.599   3.359   7.000  1.1476 -0.4100  0.0433
  364MOL0     C47973   1.729   3.401   6.969  0.3332  0.4753  0.1897
  364MOL0     O47974   1.842   3.327   6.997  0.3432  0.6175 -0.5940
  364MOL0     C47975   1.832   3.194   7.056  0.3519 -0.1773  0.0812
  364MOL0     C47976   1.963   3.128   7.072 -1.0355 -0.1945  0.0733
  364MOL0     C47977   1.955   2.969   7.100  0.3643 -0.6113 -0.1255
  364MOL0     C47978   2.001   2.902   6.965 -0.6510 -0.1225 -0.6669
  364MOL0     C47979   2.145   2.877   6.947  0.1266 -0.8937  1.0194
  364MOL0     C47980   2.257   2.850   6.916  0.4583 -0.4217  0.0553
  364MOL0     C47981   1.752   3.528   6.912 -0.1727 -0.3013  1.0556
  364MOL0     C47982   1.634   3.605   6.878  0.0709  0.1253  0.2365
  364MOL0     H47983   1.156   3.658   6.705 -0.2146  0.2901 -1.2778
  364MOL0     H47984   0.966   3.802   6.681  0.7262 -0.2043 -0.1567
  364MOL0     H47985   0.914   4.025   6.733  2.0099 -2.1421  2.5897
  364MOL0     H47986   0.807   4.120   6.822 -0.1726 -0.7819 -0.5402
  364MOL0     H47987   0.743   3.887   6.638  2.7081  1.1401  0.7693
  364MOL0     H47988   0.717   4.064   6.605  0.1710 -1.6092 -1.7232
  364MOL0     H47989   0.574   3.982   6.853  1.2885 -0.3427 -0.0212
  364MOL0     H47990   0.523   3.891   6.711 -1.0660  1.5685 -0.5278
  364MOL0     H47991   0.504   4.184   6.730 -2.4374  0.7284  0.3582
  364MOL0     H47992   0.467   4.096   6.586 -1.3174  0.1712  0.0914
  364MOL0     H47993   0.297   3.965   6.683  0.9008 -0.6497  0.8109
  364MOL0     H47994   0.259   4.135   6.710  0.5895  0.2621  0.8189
  364MOL0     H47995   0.375   4.074   6.946  1.4634 -2.2564  0.6580
  364MOL0     H47996   0.363   3.907   6.893 -0.5201 -0.0784  1.2851
  364MOL0     H47997   0.141   4.103   6.965 -1.0524 -0.9369  3.3295
  364MOL0     H47998   0.103   3.966   6.855 -0.7413  0.3999 -0.1190
  364MOL0     H47999   0.237   3.940   7.126  0.0327 -0.0199 -0.1474
  364MOL0     H48000   0.215   3.809   7.015  3.8949  1.0934  2.1555
  364MOL0     H48001  -0.080   3.808   6.925  0.0175  0.7580 -0.5805
  364MOL0     H48002  -0.329   3.711   7.065 -3.2058  0.5483 -1.4380
  364MOL0     H48003  -0.331   3.857   6.978  0.8979  3.5979  1.1718
  364MOL0     H48004  -0.441   3.981   7.148 -0.1287 -0.1767  0.4902
  364MOL0     H48005  -0.386   3.888   7.277  0.2533  1.1571 -0.3390
  364MOL0     H48006  -0.516   3.699   7.151 -0.9969  0.0233 -2.6175
  364MOL0     H48007  -0.600   3.814   7.272 -1.5013 -1.5527 -0.9641
  364MOL0     H48008  -0.606   3.830   6.975 -0.0684  1.2325 -0.7539
  364MOL0     H48009  -0.641   3.965   7.085  0.1379  0.2440  1.0002
  364MOL0     H48010  -0.777   3.586   7.244  1.8600  0.1114  1.4329
  364MOL0     H48011  -0.771   3.361   7.166 -1.9697  0.4374  1.5729
  364MOL0     H48012  -0.979   3.066   6.634  0.8304  0.7112  1.6163
  364MOL0     H48013  -0.925   2.845   6.552 -1.9820  1.4472  0.9195
  364MOL0     H48014  -0.685   2.698   6.434  0.4111 -2.3162 -2.0036
  364MOL0     H48015  -0.847   2.621   6.482  0.9219 -1.7791 -1.9712
  364MOL0     H48016  -0.765   2.443   6.548  0.2248 -0.4870  0.0263
  364MOL0     H48017  -0.595   2.492   6.553 -0.3559  1.4762  0.8418
  364MOL0     H48018  -0.606   2.526   6.308 -1.6398 -0.4598 -3.2243
  364MOL0     H48019  -0.761   2.440   6.300 -0.0579  0.3181  0.2115
  364MOL0     H48020  -0.482   2.343   6.397  0.4483  0.9934  0.1095
  364MOL0     H48021  -0.631   2.239   6.373  0.3524 -0.9387 -0.3945
  364MOL0     H48022  -0.607   2.299   6.115  2.2305  3.3770 -3.6895
  364MOL0     H48023  -0.454   2.226   6.181 -1.0169 -1.1759 -1.8192
  364MOL0     H48024  -0.369   2.451   6.219  0.8055 -0.8716  0.2221
  364MOL0     H48025  -0.504   2.511   6.116 -4.0498 -3.0250 -5.7918
  364MOL0     H48026  -0.264   2.362   6.049  0.0605 -0.8898 -0.7877
  364MOL0     H48027  -0.405   2.283   5.982 -0.5425  0.3004 -0.4988
  364MOL0     H48028  -0.314   2.449   5.815 -0.1345  0.7707 -0.5632
  364MOL0     H48029  -0.320   2.580   5.931 -2.6245  1.9586 -2.2397
  364MOL0     H48030  -0.546   2.861   6.751  0.4021 -0.6837  0.5708
  364MOL0     H48031  -0.601   3.078   6.837  0.6077  0.8558 -0.8627
  364MOL0     H48032  -0.799   3.498   6.753 -0.0549 -1.7287  0.3125
  364MOL0     H48033  -0.781   3.732   6.843  0.0795 -0.1788  1.2775
  364MOL0     H48034   0.911   3.814   7.105  1.0514 -1.4240 -0.2906
  364MOL0     H48035   1.122   3.670   7.116  0.0779 -0.0360 -0.4215
  364MOL0     H48036   1.397   3.389   7.004  1.0186 -4.1144 -0.7876
  364MOL0     H48037   1.578   3.263   7.045 -2.7803 -0.2497 -1.1406
  364MOL0     H48038   1.760   3.134   7.000 -1.3666  2.0101 -0.1996
  364MOL0     H48039   1.791   3.210   7.156 -0.3414  2.7454 -0.5570
  364MOL0     H48040   2.033   3.156   6.993  2.1880 -0.5570  2.5893
  364MOL0     H48041   2.015   3.160   7.163 -1.5517 -1.1138  0.7201
  364MOL0     H48042   1.850   2.948   7.122 -0.7039  1.6834 -2.5541
  364MOL0     H48043   2.010   2.937   7.189 -2.4317 -0.9385  1.6070
  364MOL0     H48044   1.946   2.809   6.949 -2.6670  1.1346 -1.3767
  364MOL0     H48045   1.963   2.964   6.884 -1.9623 -0.0985 -0.0554
  364MOL0     H48046   2.352   2.826   6.873 -0.8644 -1.1323 -2.6756
  364MOL0     H48047   1.855   3.555   6.888  0.2183 -3.0301 -0.7499
  364MOL0     H48048   1.641   3.706   6.841  2.5465 -0.1784 -0.2833
  365MOL0     O48049   8.036   2.429  10.037 -0.3714 -0.2304 -0.9423
  365MOL0     C48050   8.139   2.441  10.104 -0.3585 -0.5340 -0.5473
  365MOL0     O48051   8.141   2.451  10.236  0.4375 -0.2100  0.0885
  365MOL0     C48052   8.014   2.449  10.308 -0.5157 -0.6461  0.3246
  365MOL0     C48053   7.996   2.532  10.429 -0.7864  0.0364  0.5499
  365MOL0     C48054   7.886   2.525  10.514 -0.8980 -0.1019  0.1404
  365MOL0     C48055   7.797   2.424  10.488 -0.1685  0.6990 -0.3944
  365MOL0     O48056   7.686   2.405  10.568  0.2674 -0.2219 -0.2595
  365MOL0     C48057   7.680   2.469  10.693  0.1926 -0.9743  0.6707
  365MOL0     C48058   7.558   2.436  10.770  0.5687 -0.0596 -0.8034
  365MOL0     C48059   7.424   2.477  10.707 -0.4003 -0.6537 -0.1724
  365MOL0     C48060   7.312   2.475  10.810  0.3819  0.0814 -0.7355
  365MOL0     C48061   7.175   2.493  10.738 -0.5583 -0.3863 -0.2843
  365MOL0     C48062   7.071   2.555  10.833  0.2071 -1.3220  0.1349
  365MOL0     C48063   6.928   2.541  10.769 -0.9630 -0.2337 -0.1382
  365MOL0     C48064   6.826   2.609  10.847  0.2594 -1.0348  0.1074
  365MOL0     N48065   6.681   2.583  10.815  0.4761  0.8421  0.4015
  365MOL0     C48066   6.613   2.624  10.705  0.7857 -0.6830  0.9237
  365MOL0     C48067   6.495   2.565  10.717 -0.6912  0.4350 -0.2779
  365MOL0     C48068   6.372   2.590  10.637 -0.5095  1.0821 -0.1309
  365MOL0     C48069   6.283   2.695  10.715  0.0557  0.5163 -0.4374
  365MOL0     C48070   6.158   2.743  10.642 -0.2481 -0.2311  0.9537
  365MOL0     C48071   6.061   2.627  10.645  0.6955  0.2749 -0.7516
  365MOL0     O48072   5.964   2.626  10.532 -0.0246  0.4528  0.1894
  365MOL0     C48073   5.868   2.720  10.523 -1.1784  0.3924  0.4711
  365MOL0     C48074   5.784   2.711  10.407 -0.3657  0.1071  0.3010
  365MOL0     C48075   5.697   2.818  10.373 -0.5829  0.8647  0.0835
  365MOL0     C48076   5.665   2.913  10.461 -0.4799  0.9289  0.9933
  365MOL0     C48077   5.558   3.007  10.442  0.4869 -0.4225  0.8912
  365MOL0     O48078   5.571   3.128  10.507 -0.0926  0.0984  0.5709
  365MOL0     C48079   5.458   3.202  10.541  0.0714 -0.1975 -0.6682
  365MOL0     C48080   5.332   3.146  10.579  0.4280  0.6622  0.2383
  365MOL0     C48081   5.224   3.223  10.621 -0.1429  0.5501 -0.0742
  365MOL0     C48082   5.235   3.360  10.631  0.0429 -1.0595  0.0716
  365MOL0     O48083   5.115   3.426  10.661 -0.6182  0.5826  1.4225
  365MOL0     C48084   5.112   3.571  10.631 -0.0567  0.7468  0.0858
  365MOL0     C48085   4.993   3.621  10.709 -0.5123  0.4299 -0.2334
  365MOL0     C48086   4.859   3.563  10.654  0.0023  0.3601  0.6787
  365MOL0     C48087   4.751   3.613  10.758  0.6345 -0.4439  0.4309
  365MOL0     C48088   4.612   3.554  10.740 -0.2132 -0.2507 -0.3959
  365MOL0     C48089   4.506   3.668  10.773  0.4287 -0.4131 -0.3539
  365MOL0     C48090   4.360   3.611  10.799  0.9186  0.1786 -1.6301
  365MOL0     C48091   4.299   3.530  10.685  0.2888 -0.5696 -0.0231
  365MOL0    Cl48092   4.141   3.468  10.742 -0.1675  0.1379  0.0568
  365MOL0     C48093   5.365   3.413  10.605  0.3706 -1.1210 -0.2762
  365MOL0     C48094   5.473   3.336  10.559 -0.5685 -0.3030  0.1256
  365MOL0     O48095   5.461   2.971  10.367 -1.0395 -0.2471 -0.9566
  365MOL0     C48096   5.732   2.910  10.585 -0.9050  0.1494  0.0787
  365MOL0     C48097   5.837   2.823  10.612 -0.0889  0.0643  0.5790
  365MOL0     N48098   6.497   2.480  10.824 -0.6535 -0.6609 -0.4838
  365MOL0     N48099   6.612   2.494  10.882  0.1579 -0.7737 -0.6779
  365MOL0     C48100   7.810   2.342  10.375  0.1066  0.1260  0.1265
  365MOL0     C48101   7.914   2.348  10.288 -0.9024 -0.4158 -0.1860
  365MOL0     C48102   8.265   2.446  10.032 -0.1328  0.5082  0.5439
  365MOL0     C48103   8.366   2.533  10.080 -0.4933 -0.4395 -0.3252
  365MOL0     C48104   8.473   2.555   9.997 -0.6728  0.1924  0.5883
  365MOL0     C48105   8.485   2.499   9.863  0.0965  0.1603 -0.0772
  365MOL0     O48106   8.599   2.524   9.796 -0.5505 -0.1193  0.2455
  365MOL0     C48107   8.617   2.472   9.659  0.1881 -0.0846  0.0099
  365MOL0     C48108   8.747   2.541   9.610  0.4840 -0.5551 -0.0336
  365MOL0     C48109   8.875   2.481   9.654 -0.9087 -0.3688 -0.2133
  365MOL0     C48110   9.003   2.555   9.609 -0.4615  0.2801  0.0144
  365MOL0     C48111   9.065   2.471   9.500  0.2743  0.3278 -0.0647
  365MOL0     C48112   9.120   2.392   9.423 -0.5705  0.0655 -0.1990
  365MOL0     C48113   8.376   2.408   9.821 -1.0036  0.7246 -0.8947
  365MOL0     C48114   8.279   2.384   9.910 -0.0328  0.4070  0.2858
  365MOL0     H48115   8.076   2.601  10.456  0.2261  0.1493 -2.4203
  365MOL0     H48116   7.894   2.607  10.584  0.2279 -0.0837 -0.0018
  365MOL0     H48117   7.672   2.578  10.686  0.6716 -1.0096 -4.3500
  365MOL0     H48118   7.769   2.450  10.753  1.5466 -0.6078 -1.1171
  365MOL0     H48119   7.562   2.463  10.876 -4.1965 -1.6336  0.0474
  365MOL0     H48120   7.561   2.327  10.779  1.8561  0.0582  0.6871
  365MOL0     H48121   7.407   2.396  10.634 -0.1517  0.3080 -1.3291
  365MOL0     H48122   7.432   2.569  10.649 -0.7924  0.5123  1.5742
  365MOL0     H48123   7.315   2.379  10.862 -0.9943 -0.2017 -1.1351
  365MOL0     H48124   7.339   2.549  10.886  1.2060 -0.5329 -0.4086
  365MOL0     H48125   7.139   2.402  10.690 -1.9491  0.8300 -1.6864
  365MOL0     H48126   7.184   2.570  10.660  0.4603  2.3510  2.3287
  365MOL0     H48127   7.102   2.656  10.860 -0.1790 -1.2302  0.2421
  365MOL0     H48128   7.065   2.501  10.929 -1.4385  2.5919  2.4610
  365MOL0     H48129   6.937   2.585  10.669 -0.1941 -1.3356 -0.5813
  365MOL0     H48130   6.893   2.441  10.743 -2.4072  0.4328 -0.8996
  365MOL0     H48131   6.843   2.717  10.841 -0.1641 -1.0151 -0.9000
  365MOL0     H48132   6.840   2.582  10.952 -1.7892 -0.7437  0.5130
  365MOL0     H48133   6.657   2.696  10.637  1.0139 -4.0466 -2.9028
  365MOL0     H48134   6.313   2.499  10.619  1.3675 -0.1929 -0.0280
  365MOL0     H48135   6.395   2.628  10.537 -1.5934  4.8011  0.8428
  365MOL0     H48136   6.349   2.781  10.729 -0.5329  0.6094  2.2816
  365MOL0     H48137   6.257   2.655  10.814 -1.3718  2.9685  0.2409
  365MOL0     H48138   6.112   2.832  10.686  1.1816  0.6627  0.6989
  365MOL0     H48139   6.191   2.764  10.541  4.5554 -2.0812  1.8837
  365MOL0     H48140   6.013   2.619  10.743 -2.3130  0.8932 -2.0691
  365MOL0     H48141   6.111   2.530  10.639  0.2342 -0.0180 -0.0375
  365MOL0     H48142   5.804   2.634  10.334 -3.2734  0.0232 -0.5535
  365MOL0     H48143   5.658   2.804  10.273  1.3703  2.3454 -0.9452
  365MOL0     H48144   5.319   3.040  10.562 -0.0654  0.6098  0.9063
  365MOL0     H48145   5.129   3.171  10.628  1.2039 -2.5108 -2.2043
  365MOL0     H48146   5.100   3.601  10.526 -0.6836  3.9465  0.9601
  365MOL0     H48147   5.203   3.616  10.672 -0.8525 -0.7111  3.9158
  365MOL0     H48148   4.988   3.730  10.718 -1.0010  0.2352  3.1530
  365MOL0     H48149   5.004   3.588  10.813 -1.0977 -0.5277 -0.4594
  365MOL0     H48150   4.858   3.454  10.652 -0.3495  0.3536  1.1703
  365MOL0     H48151   4.837   3.595  10.552  0.1777 -2.2150 -0.2377
  365MOL0     H48152   4.793   3.596  10.858  1.7313 -0.1089  0.0374
  365MOL0     H48153   4.752   3.721  10.739  1.5395 -0.8602 -2.3729
  365MOL0     H48154   4.607   3.477  10.818 -1.6209  1.8059  1.6808
  365MOL0     H48155   4.601   3.513  10.640  0.3227  1.3620 -1.1548
  365MOL0     H48156   4.508   3.750  10.701  0.6805 -0.2611 -0.1763
  365MOL0     H48157   4.544   3.720  10.861  2.6240 -1.2696 -0.7253
  365MOL0     H48158   4.373   3.555  10.892 -2.1199 -1.2440 -1.9554
  365MOL0     H48159   4.291   3.690  10.829  1.3560  0.7548 -2.1159
  365MOL0     H48160   4.353   3.445  10.643 -0.2269  0.1660 -2.2894
  365MOL0     H48161   4.288   3.599  10.601  1.1287  0.6716  0.8352
  365MOL0     H48162   5.374   3.520  10.619 -0.3367 -1.1657  0.6159
  365MOL0     H48163   5.575   3.371  10.550 -2.2139  4.9472 -1.3328
  365MOL0     H48164   5.692   2.981  10.656 -1.8827 -0.1825 -0.1238
  365MOL0     H48165   5.879   2.824  10.712 -0.6103  1.5344  0.8079
  365MOL0     H48166   7.724   2.277  10.388 -0.7909  1.8011  3.8013
  365MOL0     H48167   7.926   2.286  10.200 -2.8081 -1.9827  0.5853
  365MOL0     H48168   8.350   2.580  10.176  1.8399 -0.2152  0.0061
  365MOL0     H48169   8.546   2.609  10.056 -2.6946 -0.6781  4.2251
  365MOL0     H48170   8.533   2.508   9.599 -0.0493 -1.6312 -0.6366
  365MOL0     H48171   8.620   2.364   9.646 -2.5904  0.0444 -2.8078
  365MOL0     H48172   8.741   2.544   9.501 -0.2642 -2.2014 -0.0681
  365MOL0     H48173   8.757   2.637   9.660  3.2261 -1.4943  1.4228
  365MOL0     H48174   8.876   2.382   9.607  0.9961 -0.4886  0.0062
  365MOL0     H48175   8.880   2.473   9.763  1.4304  0.6883 -0.1832
  365MOL0     H48176   8.975   2.656   9.579  1.1097 -0.1483 -3.2611
  365MOL0     H48177   9.080   2.557   9.687  0.6805  2.0168 -1.0819
  365MOL0     H48178   9.165   2.327   9.351  1.8204 -1.3805  2.3980
  365MOL0     H48179   8.381   2.353   9.727 -1.6157  1.4394 -1.3472
  365MOL0     H48180   8.208   2.313   9.870  0.6308  1.2343 -2.5772
  366MOL0     O48181   0.196   2.386   6.333  1.0259  0.4938 -0.0050
  366MOL0     C48182   0.100   2.353   6.399  0.8215  0.8939 -0.1456
  366MOL0     O48183   0.109   2.264   6.498 -0.2261  0.2324 -0.3318
  366MOL0     C48184   0.228   2.233   6.558 -0.1944 -0.4294 -0.7532
  366MOL0     C48185   0.224   2.103   6.610 -0.5970  0.1898 -0.1332
  366MOL0     C48186   0.324   2.051   6.695 -0.6931 -0.6558  0.5503
  366MOL0     C48187   0.433   2.127   6.718  0.1191 -0.3670  0.6944
  366MOL0     O48188   0.542   2.082   6.798 -0.5597 -0.5727  0.2521
  366MOL0     C48189   0.528   1.967   6.888 -0.3366 -0.0923 -0.6037
  366MOL0     C48190   0.562   1.831   6.827 -0.8801  1.0275 -0.1378
  366MOL0     C48191   0.531   1.724   6.929  0.4233 -0.6061  0.3937
  366MOL0     C48192   0.619   1.732   7.059  0.3430 -0.4777  0.4732
  366MOL0     C48193   0.602   1.609   7.140 -0.3424  0.6784  0.1640
  366MOL0     C48194   0.688   1.614   7.273  1.0284 -0.3078 -0.2602
  366MOL0     C48195   0.846   1.623   7.248  0.1547  0.1134  0.1683
  366MOL0     C48196   0.919   1.611   7.382  0.6108 -0.6584  0.1205
  366MOL0     N48197   0.905   1.741   7.444 -0.9284 -0.5099 -0.7009
  366MOL0     C48198   1.000   1.846   7.448 -0.5439 -0.2443 -0.5136
  366MOL0     C48199   0.968   1.925   7.558 -0.1063  0.1659  0.6675
  366MOL0     C48200   1.039   2.041   7.619  0.2689 -0.6488 -1.1741
  366MOL0     C48201   1.028   2.166   7.536  0.1098  0.2703  0.6155
  366MOL0     C48202   1.117   2.275   7.596  0.2691 -0.1493 -0.2048
  366MOL0     C48203   1.265   2.272   7.551  0.9708  0.3189  0.6925
  366MOL0     O48204   1.327   2.389   7.605 -0.2492  0.1596 -0.0783
  366MOL0     C48205   1.462   2.406   7.570  0.2355  0.1404  0.3830
  366MOL0     C48206   1.502   2.537   7.571  0.4519  1.4960 -0.5661
  366MOL0     C48207   1.631   2.577   7.531 -0.0159  0.5753  0.3043
  366MOL0     C48208   1.715   2.488   7.475  0.3121 -0.0744  0.9580
  366MOL0     C48209   1.844   2.517   7.427 -0.0160  0.8003 -0.0474
  366MOL0     O48210   1.906   2.427   7.354  1.0841  0.2117  0.9006
  366MOL0     C48211   2.029   2.451   7.305 -0.8426  0.0580  0.2310
  366MOL0     C48212   2.123   2.351   7.327  0.0815  0.0623 -0.5718
  366MOL0     C48213   2.250   2.358   7.269  0.9880  0.8822 -0.2741
  366MOL0     C48214   2.289   2.468   7.193 -0.4499 -0.5723 -0.5881
  366MOL0     O48215   2.426   2.467   7.149 -0.2373  0.1717 -0.1318
  366MOL0     C48216   2.464   2.570   7.062  0.2811  0.1887 -0.0323
  366MOL0     C48217   2.621   2.576   7.030  0.2673 -0.7127  0.7599
  366MOL0     C48218   2.655   2.466   6.945 -0.0527 -0.5132  0.2802
  366MOL0     C48219   2.784   2.400   6.992  0.2279  0.1696 -0.2216
  366MOL0     C48220   2.798   2.255   6.946  0.4563 -0.1442  0.6073
  366MOL0     C48221   2.936   2.201   6.974 -0.2286 -0.7957 -0.1437
  366MOL0     C48222   2.931   2.153   7.122 -0.3333  0.7289  0.9383
  366MOL0     C48223   3.051   2.067   7.151  0.1168 -0.3253 -0.1611
  366MOL0    Cl48224   3.212   2.159   7.131  0.0854  0.1846  0.1058
  366MOL0     C48225   2.195   2.565   7.170  0.7323 -0.5700 -0.9326
  366MOL0     C48226   2.063   2.560   7.219  0.3161 -0.2636 -0.3824
  366MOL0     O48227   1.892   2.629   7.454  0.4442  0.4050 -0.0487
  366MOL0     C48228   1.670   2.356   7.466 -0.2012  0.7100  0.4693
  366MOL0     C48229   1.552   2.314   7.517  1.0172 -0.5353  0.0006
  366MOL0     N48230   0.862   1.872   7.613 -0.0132  0.0143  0.3409
  366MOL0     N48231   0.817   1.773   7.542  0.1020 -0.0116  1.1191
  366MOL0     C48232   0.428   2.259   6.681 -0.6154 -0.2449 -0.1149
  366MOL0     C48233   0.336   2.312   6.591 -0.5901  0.1934  0.1147
  366MOL0     C48234  -0.023   2.435   6.386  0.3124  0.0408  0.2759
  366MOL0     C48235  -0.138   2.415   6.466  0.1703 -0.3746  1.0435
  366MOL0     C48236  -0.252   2.505   6.464 -1.0151 -0.4518  0.2009
  366MOL0     C48237  -0.255   2.609   6.375  0.1936  0.2888  0.7542
  366MOL0     O48238  -0.369   2.673   6.391 -0.2348 -0.1298  0.3989
  366MOL0     C48239  -0.400   2.782   6.298 -0.0934 -0.0043  0.2822
  366MOL0     C48240  -0.319   2.910   6.316  0.3306 -0.2963  0.1525
  366MOL0     C48241  -0.360   2.987   6.438  0.7146  0.0913 -0.8374
  366MOL0     C48242  -0.284   3.117   6.456  0.2257  0.0417  0.6873
  366MOL0     C48243  -0.336   3.185   6.572  0.4724 -0.3437 -0.0969
  366MOL0     C48244  -0.392   3.222   6.675  0.0829 -0.9959 -0.1632
  366MOL0     C48245  -0.140   2.633   6.292 -0.0969  0.5113 -0.3171
  366MOL0     C48246  -0.034   2.544   6.285  0.3597  0.6441 -0.6780
  366MOL0     H48247   0.137   2.043   6.585  1.3226 -2.4974 -0.8187
  366MOL0     H48248   0.308   1.957   6.749 -1.3786  1.5517  4.6157
  366MOL0     H48249   0.424   1.963   6.923 -0.9986 -0.6990 -2.5318
  366MOL0     H48250   0.583   1.994   6.979 -1.7380  3.2320 -0.5638
  366MOL0     H48251   0.666   1.827   6.794 -1.0629  1.9952 -0.8838
  366MOL0     H48252   0.495   1.838   6.741  0.0842 -0.5096 -1.0530
  366MOL0     H48253   0.537   1.625   6.883 -3.7924 -1.4934  1.3983
  366MOL0     H48254   0.429   1.739   6.963 -0.0395  1.0480 -1.5287
  366MOL0     H48255   0.725   1.742   7.031  0.3183 -2.9773 -0.7815
  366MOL0     H48256   0.590   1.819   7.118  4.2315  1.0735  0.4269
  366MOL0     H48257   0.625   1.522   7.078  1.4546  2.2388 -1.4904
  366MOL0     H48258   0.496   1.602   7.166 -0.8491  1.4768 -1.5001
  366MOL0     H48259   0.665   1.520   7.324  1.0186  0.5490  1.3940
  366MOL0     H48260   0.656   1.689   7.345  1.4464 -0.0460 -0.3454
  366MOL0     H48261   0.869   1.546   7.174  0.3874  1.5457 -1.3193
  366MOL0     H48262   0.865   1.720   7.200  1.4213 -0.4860 -0.5929
  366MOL0     H48263   1.026   1.595   7.362  0.3498 -0.2759 -1.8852
  366MOL0     H48264   0.886   1.523   7.437  0.8452  0.6441  2.4576
  366MOL0     H48265   1.081   1.866   7.379  1.1459  0.5638  1.6014
  366MOL0     H48266   1.144   2.016   7.633  0.0978 -0.5487  0.4385
  366MOL0     H48267   1.005   2.068   7.719  3.5972  1.4014 -0.4465
  366MOL0     H48268   0.925   2.205   7.537  0.1627  0.4155  0.4606
  366MOL0     H48269   1.045   2.144   7.431 -6.0553 -0.3986 -0.6058
  366MOL0     H48270   1.074   2.374   7.578  1.4020  0.5843  0.9057
  366MOL0     H48271   1.110   2.262   7.705 -1.2680 -0.4610 -0.3106
  366MOL0     H48272   1.269   2.260   7.443  0.1144 -0.2466  0.7143
  366MOL0     H48273   1.310   2.189   7.607  1.1552  1.4126  2.2374
  366MOL0     H48274   1.422   2.602   7.606 -0.3472  0.2070  0.0862
  366MOL0     H48275   1.653   2.684   7.535 -1.6801  0.9910 -0.5531
  366MOL0     H48276   2.092   2.266   7.388  2.1957  0.8963  1.7976
  366MOL0     H48277   2.311   2.269   7.279 -1.0203 -0.4918  0.3551
  366MOL0     H48278   2.431   2.671   7.089 -0.1393  0.0707 -0.0986
  366MOL0     H48279   2.418   2.569   6.962  1.6743 -1.5732 -0.7109
  366MOL0     H48280   2.664   2.579   7.131  1.4838  0.2140  0.2476
  366MOL0     H48281   2.641   2.676   6.989  0.6091 -0.8347  0.6284
  366MOL0     H48282   2.669   2.491   6.840 -1.2463 -1.3049 -0.0912
  366MOL0     H48283   2.582   2.385   6.956 -1.5203  0.9193  1.4496
  366MOL0     H48284   2.868   2.450   6.943 -0.1795  0.3281 -0.7645
  366MOL0     H48285   2.797   2.406   7.101 -0.8007  0.7213 -0.1137
  366MOL0     H48286   2.777   2.263   6.839 -2.5046  2.3303  1.2456
  366MOL0     H48287   2.720   2.206   7.004  0.5377  1.3573  2.0566
  366MOL0     H48288   3.015   2.277   6.974 -1.0100  0.0995  2.1195
  366MOL0     H48289   2.956   2.121   6.901 -0.9278  0.2452 -1.5195
  366MOL0     H48290   2.912   2.235   7.192 -1.5670 -0.1717  1.7122
  366MOL0     H48291   2.842   2.090   7.139 -1.2977  2.1854  1.4652
  366MOL0     H48292   3.054   1.969   7.103 -1.9034 -0.4976 -0.0301
  366MOL0     H48293   3.058   2.058   7.260  0.6080 -1.0719 -0.2474
  366MOL0     H48294   2.214   2.648   7.103 -0.0395 -0.8372 -1.4882
  366MOL0     H48295   1.978   2.625   7.202  0.9830  0.5470 -0.7012
  366MOL0     H48296   1.729   2.280   7.417 -1.6965 -0.7366  0.8494
  366MOL0     H48297   1.524   2.209   7.511 -1.8052  0.2231 -1.6146
  366MOL0     H48298   0.505   2.326   6.718  0.5490 -0.6056 -1.7562
  366MOL0     H48299   0.344   2.420   6.577 -0.2815  0.3163  1.1293
  366MOL0     H48300  -0.143   2.330   6.534  3.5006 -1.3018  0.3410
  366MOL0     H48301  -0.329   2.488   6.539  0.3245 -0.4028  1.6466
  366MOL0     H48302  -0.506   2.808   6.307 -0.0360  2.7189 -4.0226
  366MOL0     H48303  -0.397   2.748   6.195 -2.8840  0.2994  0.0257
  366MOL0     H48304  -0.211   2.895   6.324  0.6173  1.8407  1.0210
  366MOL0     H48305  -0.339   2.969   6.227 -2.1489 -0.0251  0.8246
  366MOL0     H48306  -0.339   2.919   6.522  1.7719  0.7727 -0.5363
  366MOL0     H48307  -0.467   3.008   6.449  0.6841  0.5887 -2.0133
  366MOL0     H48308  -0.183   3.079   6.476  0.0165 -0.6437  0.4541
  366MOL0     H48309  -0.280   3.170   6.360 -1.5233 -0.8163  0.1098
  366MOL0     H48310  -0.437   3.262   6.764 -1.7150 -1.5122 -0.7949
  366MOL0     H48311  -0.134   2.715   6.221  0.2441  3.4069  2.7810
  366MOL0     H48312   0.033   2.548   6.200 -1.3088  0.5772 -2.0411
  367MOL0     O48313   4.780   3.557   3.615 -0.5147 -0.0804 -0.4440
  367MOL0     C48314   4.740   3.453   3.657  0.9833  0.2231  0.3590
  367MOL0     O48315   4.794   3.326   3.617  0.3867  0.4743  0.0306
  367MOL0     C48316   4.920   3.303   3.653  0.2324  0.0184  0.4009
  367MOL0     C48317   5.003   3.239   3.561 -0.5346  0.7404 -0.6830
  367MOL0     C48318   5.144   3.209   3.584  0.2594 -0.3396 -0.8162
  367MOL0     C48319   5.185   3.241   3.719 -0.2440 -1.1749 -0.3416
  367MOL0     O48320   5.320   3.230   3.746 -0.4936 -0.6997 -0.2362
  367MOL0     C48321   5.368   3.103   3.779  0.1963 -0.1371  1.1967
  367MOL0     C48322   5.506   3.112   3.832 -0.4052 -0.3591  0.4108
  367MOL0     C48323   5.620   3.176   3.741 -0.5060  0.3706 -0.3231
  367MOL0     C48324   5.752   3.197   3.808  0.4167 -0.0210  0.2192
  367MOL0     C48325   5.742   3.314   3.913  0.0884 -0.5056 -0.3045
  367MOL0     C48326   5.871   3.373   3.957  0.0660  0.7528  0.2424
  367MOL0     C48327   5.936   3.430   3.840  0.5417 -0.6608 -0.0357
  367MOL0     C48328   6.052   3.534   3.858 -0.1118  0.7066  0.3443
  367MOL0     N48329   6.145   3.529   3.747  0.4878 -0.4506  0.4100
  367MOL0     C48330   6.232   3.432   3.708 -0.8318 -0.1214 -0.0376
  367MOL0     C48331   6.295   3.476   3.594  0.4576  0.4591 -0.4622
  367MOL0     C48332   6.409   3.415   3.524 -0.2228  0.0027  0.2361
  367MOL0     C48333   6.534   3.371   3.607  0.4177  0.6510 -0.3333
  367MOL0     C48334   6.598   3.484   3.695 -0.1558  0.0896 -1.1147
  367MOL0     C48335   6.698   3.425   3.806 -0.0620  0.4218  0.3798
  367MOL0     O48336   6.795   3.346   3.736 -0.1992 -0.0612  0.0201
  367MOL0     C48337   6.890   3.294   3.822  0.3684 -0.7704 -0.4650
  367MOL0     C48338   6.879   3.261   3.959 -0.0998  0.6047  0.4300
  367MOL0     C48339   6.991   3.209   4.016  0.2891 -1.2240  0.6692
  367MOL0     C48340   7.120   3.204   3.960  0.3635  0.0260  0.0529
  367MOL0     C48341   7.234   3.145   4.037 -0.4548 -0.4007 -0.3763
  367MOL0     O48342   7.226   3.101   4.166  0.3534 -0.9708 -0.5661
  367MOL0     C48343   7.343   3.079   4.239  1.1858 -0.2627  0.3879
  367MOL0     C48344   7.365   3.146   4.352 -0.2744  0.5569  0.2019
  367MOL0     C48345   7.480   3.115   4.425  0.0689 -1.0496 -0.0609
  367MOL0     C48346   7.562   3.015   4.393  0.1574 -0.3702 -0.1285
  367MOL0     O48347   7.669   2.992   4.477 -0.8133  0.3026 -0.5531
  367MOL0     C48348   7.723   2.862   4.480 -0.3508  0.1572 -0.0424
  367MOL0     C48349   7.772   2.804   4.609  0.1456  0.2962 -0.3291
  367MOL0     C48350   7.651   2.793   4.710  0.8536  0.1137  0.3036
  367MOL0     C48351   7.699   2.709   4.826  0.1830  0.0378 -0.2683
  367MOL0     C48352   7.649   2.744   4.962 -0.3431 -0.4844  0.3410
  367MOL0     C48353   7.496   2.720   4.975  0.0439 -0.2826 -0.3175
  367MOL0     C48354   7.454   2.743   5.126 -0.3663 -0.2156  0.3107
  367MOL0     C48355   7.324   2.667   5.146  0.3637 -0.6103  0.7824
  367MOL0    Cl48356   7.323   2.494   5.118  0.3562  0.5092 -0.4681
  367MOL0     C48357   7.535   2.945   4.279 -0.3940  0.4695  0.8498
  367MOL0     C48358   7.430   2.974   4.203 -0.1002  0.1146  0.2493
  367MOL0     O48359   7.343   3.150   3.975  0.3898 -0.0569 -0.0592
  367MOL0     C48360   7.137   3.260   3.833 -0.6111  0.0061  0.1776
  367MOL0     C48361   7.019   3.305   3.770  1.0111 -0.7255  0.1812
  367MOL0     N48362   6.254   3.605   3.572 -0.7771 -0.4482  0.6836
  367MOL0     N48363   6.161   3.628   3.655  0.4130  0.2394  0.5602
  367MOL0     C48364   5.111   3.302   3.822 -0.1736 -0.3479 -0.7107
  367MOL0     C48365   4.979   3.332   3.781  0.3739  0.2182 -0.3162
  367MOL0     C48366   4.603   3.445   3.727 -0.4052  0.3132 -0.3092
  367MOL0     C48367   4.504   3.550   3.718  0.2963 -0.6077  0.0319
  367MOL0     C48368   4.370   3.512   3.744 -0.5123 -0.6964  0.1017
  367MOL0     C48369   4.333   3.387   3.787  0.3693 -0.0929 -0.6054
  367MOL0     O48370   4.196   3.359   3.819 -0.0107  0.2144  0.4611
  367MOL0     C48371   4.096   3.459   3.831 -0.5114  0.6760  1.1049
  367MOL0     C48372   4.033   3.488   3.690 -0.6502  0.6473 -0.0252
  367MOL0     C48373   3.916   3.579   3.704  0.5019 -0.7557 -0.3695
  367MOL0     C48374   3.865   3.615   3.564  0.2696  0.4673  0.0161
  367MOL0     C48375   3.733   3.674   3.569  1.0201  0.1388 -0.7560
  367MOL0     C48376   3.617   3.710   3.547  0.1478  0.4088 -0.2206
  367MOL0     C48377   4.426   3.286   3.811  0.3128  0.0371 -0.7337
  367MOL0     C48378   4.563   3.321   3.786 -0.7190  0.7931 -0.6964
  367MOL0     H48379   4.960   3.223   3.463 -2.3767 -0.7470  0.3058
  367MOL0     H48380   5.206   3.182   3.499  1.6986  0.3378 -0.0051
  367MOL0     H48381   5.361   3.044   3.687  1.4785  3.4391 -1.4275
  367MOL0     H48382   5.315   3.042   3.852  0.3302 -1.3846  0.2807
  367MOL0     H48383   5.538   3.012   3.862  0.9245 -0.7612 -2.1034
  367MOL0     H48384   5.504   3.174   3.922 -0.3283  0.4849 -0.1522
  367MOL0     H48385   5.586   3.266   3.690 -3.2586  0.3998  1.3542
  367MOL0     H48386   5.633   3.096   3.667  1.0972  1.5855 -1.4221
  367MOL0     H48387   5.766   3.101   3.859 -5.1944 -1.5836 -0.4580
  367MOL0     H48388   5.822   3.223   3.729  2.0387 -1.6110  1.0695
  367MOL0     H48389   5.699   3.275   4.005  0.8314  0.2672  0.3898
  367MOL0     H48390   5.666   3.384   3.875 -1.2380 -0.9037  1.4850
  367MOL0     H48391   5.924   3.290   4.005 -1.2304 -0.4533 -0.3476
  367MOL0     H48392   5.849   3.443   4.037 -1.1741  0.1257  0.4753
  367MOL0     H48393   5.992   3.353   3.785  0.3145 -0.8259 -0.0342
  367MOL0     H48394   5.863   3.464   3.765 -0.8238 -1.4432  0.9069
  367MOL0     H48395   6.097   3.519   3.956 -1.0156 -0.7326  0.5608
  367MOL0     H48396   6.014   3.636   3.851  0.5621  1.1566  2.5691
  367MOL0     H48397   6.238   3.334   3.754 -1.2757 -0.8495 -1.4654
  367MOL0     H48398   6.437   3.478   3.439 -1.7098 -1.4710 -1.4192
  367MOL0     H48399   6.373   3.322   3.478  0.6363 -0.1136 -0.2410
  367MOL0     H48400   6.604   3.317   3.543 -1.4698 -1.7589 -0.5264
  367MOL0     H48401   6.493   3.293   3.672  2.5618  1.8795  2.8090
  367MOL0     H48402   6.660   3.537   3.621  2.8607 -2.7706 -0.9293
  367MOL0     H48403   6.518   3.542   3.739  0.5892  0.7332 -0.5818
  367MOL0     H48404   6.637   3.379   3.884 -1.7465 -2.0555 -2.1949
  367MOL0     H48405   6.755   3.501   3.860 -0.2525 -1.5297  3.5535
  367MOL0     H48406   6.778   3.243   3.997 -0.7758 -0.2027 -1.5922
  367MOL0     H48407   6.981   3.145   4.103  0.5055  0.4385  1.9659
  367MOL0     H48408   7.307   3.231   4.386  0.2773  0.9140  0.2662
  367MOL0     H48409   7.486   3.170   4.519 -1.2285 -0.6483 -0.1869
  367MOL0     H48410   7.816   2.859   4.421  1.8325 -3.2694  3.1377
  367MOL0     H48411   7.661   2.778   4.445  1.1918 -1.0221 -0.0578
  367MOL0     H48412   7.847   2.878   4.641  0.4065  0.3728 -1.0856
  367MOL0     H48413   7.815   2.704   4.601  4.3122  1.6636  1.6749
  367MOL0     H48414   7.562   2.750   4.664 -0.0687  3.4669 -1.3568
  367MOL0     H48415   7.611   2.891   4.738 -3.4819 -1.5802  0.8055
  367MOL0     H48416   7.675   2.604   4.806  0.8255 -0.2035  0.1976
  367MOL0     H48417   7.807   2.727   4.830  0.3511 -1.0405  0.2402
  367MOL0     H48418   7.674   2.846   4.992  1.2819 -0.0205 -2.2564
  367MOL0     H48419   7.704   2.679   5.030  2.0311 -1.0170 -1.9463
  367MOL0     H48420   7.476   2.620   4.936  2.5376 -1.6866  1.7011
  367MOL0     H48421   7.447   2.796   4.913 -1.4613 -2.2899 -1.7438
  367MOL0     H48422   7.512   2.677   5.192 -0.6538  0.0419  0.8228
  367MOL0     H48423   7.433   2.844   5.163  1.4425  1.0030 -1.7387
  367MOL0     H48424   7.253   2.707   5.073  0.0032 -1.4349  0.6679
  367MOL0     H48425   7.289   2.689   5.247  3.0736  0.3012  1.6135
  367MOL0     H48426   7.593   2.863   4.236  0.5962  0.6803  1.7453
  367MOL0     H48427   7.414   2.914   4.113 -1.9577 -1.5097  1.5615
  367MOL0     H48428   7.236   3.256   3.790  0.2530  3.6043  1.4314
  367MOL0     H48429   7.026   3.340   3.668 -1.0251  0.0598  0.2551
  367MOL0     H48430   5.152   3.330   3.918  1.3866  0.8575 -1.6630
  367MOL0     H48431   4.911   3.360   3.861  1.4030  2.0930 -0.0517
  367MOL0     H48432   4.518   3.655   3.696  1.2056 -0.9113 -0.9472
  367MOL0     H48433   4.301   3.589   3.709  2.6251  2.9227  1.2371
  367MOL0     H48434   4.127   3.556   3.871 -0.5617  0.4787  1.6301
  367MOL0     H48435   4.025   3.411   3.898 -1.0754  3.2007  2.4439
  367MOL0     H48436   4.098   3.537   3.617 -2.0973  2.0743 -0.4114
  367MOL0     H48437   3.995   3.394   3.649 -1.4952  1.6991 -1.8178
  367MOL0     H48438   3.935   3.678   3.748  2.4795 -1.0502 -0.4652
  367MOL0     H48439   3.832   3.537   3.759 -1.3550  4.6191  1.5405
  367MOL0     H48440   3.936   3.685   3.517 -0.5766  0.1628 -1.8224
  367MOL0     H48441   3.863   3.534   3.490 -2.3011  0.0255  0.4791
  367MOL0     H48442   3.511   3.724   3.536 -0.5164 -4.2150 -2.2436
  367MOL0     H48443   4.399   3.196   3.865  1.2157  0.2329  0.0594
  367MOL0     H48444   4.642   3.250   3.808 -4.0262 -3.3881 -1.0774
  368MOL0     O48445   0.599   7.805  10.300  0.0999  0.1428 -0.2714
  368MOL0     C48446   0.592   7.893  10.219  0.3079 -0.0649  0.0411
  368MOL0     O48447   0.472   7.958  10.190 -0.5538  0.0947 -0.4578
  368MOL0     C48448   0.351   7.927  10.245 -0.3556 -0.0043 -0.2879
  368MOL0     C48449   0.249   8.005  10.192  0.3383 -0.6382 -0.0382
  368MOL0     C48450   0.114   7.991  10.233 -0.0127 -0.6490  0.5289
  368MOL0     C48451   0.080   7.898  10.331 -0.3168  0.6573  0.9144
  368MOL0     O48452  -0.057   7.891  10.365 -0.0240  0.5765 -0.2794
  368MOL0     C48453  -0.100   7.789  10.461 -1.2244 -0.9859  0.0348
  368MOL0     C48454  -0.111   7.650  10.411  0.7263  0.3834  0.3412
  368MOL0     C48455  -0.097   7.535  10.517  0.2609  0.8013 -0.1216
  368MOL0     C48456  -0.226   7.528  10.606  0.2352  0.5048 -0.3283
  368MOL0     C48457  -0.187   7.421  10.712  0.4655 -0.1708  0.0653
  368MOL0     C48458  -0.281   7.427  10.834  0.1035  0.6388 -0.2527
  368MOL0     C48459  -0.223   7.339  10.943 -1.4013 -0.0453  0.9759
  368MOL0     C48460  -0.262   7.359  11.082 -0.5448 -0.2424  0.1178
  368MOL0     N48461  -0.406   7.345  11.104  0.0943  0.5142  0.5094
  368MOL0     C48462  -0.486   7.243  11.056  0.3482 -0.3861 -0.2826
  368MOL0     C48463  -0.610   7.270  11.102  0.5991 -0.8722  0.8687
  368MOL0     C48464  -0.727   7.180  11.077 -0.1513  0.7317 -0.9182
  368MOL0     C48465  -0.789   7.140  11.220  0.2601  0.0473 -0.1928
  368MOL0     C48466  -0.679   7.099  11.317 -0.5249 -0.3988 -0.5434
  368MOL0     C48467  -0.739   7.057  11.447 -0.4644 -0.5368 -0.6820
  368MOL0     O48468  -0.836   6.947  11.431  1.2060 -0.5461  0.1448
  368MOL0     C48469  -0.913   6.909  11.540 -0.5636 -0.5602  0.4339
  368MOL0     C48470  -0.893   6.951  11.668  0.2828 -0.0514  0.3081
  368MOL0     C48471  -0.970   6.910  11.780 -0.4483  0.6192 -0.4366
  368MOL0     C48472  -1.077   6.814  11.756  0.4963  0.8972 -0.3406
  368MOL0     C48473  -1.155   6.757  11.869  0.3895 -0.0602  0.1012
  368MOL0     O48474  -1.165   6.834  11.980  0.7541 -0.2965 -0.1516
  368MOL0     C48475  -1.257   6.796  12.077  0.4845  0.0560  0.0907
  368MOL0     C48476  -1.256   6.673  12.144 -0.7774  0.3389 -0.2564
  368MOL0     C48477  -1.333   6.651  12.261  0.0902  0.1616  0.5373
  368MOL0     C48478  -1.423   6.762  12.296 -0.2974 -0.1938  0.0251
  368MOL0     O48479  -1.510   6.744  12.400  0.3939 -0.6982 -0.6686
  368MOL0     C48480  -1.617   6.650  12.371  0.2022 -0.0400 -0.2859
  368MOL0     C48481  -1.661   6.573  12.500  0.6130  0.1505 -0.0636
  368MOL0     C48482  -1.534   6.500  12.558  0.6904 -0.2448  0.5612
  368MOL0     C48483  -1.512   6.366  12.483  0.0081  0.0419  0.0988
  368MOL0     C48484  -1.458   6.251  12.565  1.3660 -0.5125  0.2522
  368MOL0     C48485  -1.322   6.274  12.616  0.4686  0.3567  0.3125
  368MOL0     C48486  -1.292   6.167  12.723 -0.4912 -0.3984 -0.2707
  368MOL0     C48487  -1.154   6.179  12.788  0.2975  0.4528  0.1614
  368MOL0    Cl48488  -1.135   6.335  12.868 -0.4150  0.3810  0.0896
  368MOL0     C48489  -1.417   6.882  12.234 -0.7566  0.5857  0.0493
  368MOL0     C48490  -1.325   6.909  12.136 -0.3349  0.0087  1.1084
  368MOL0     O48491  -1.208   6.650  11.854  0.1568  0.0926  0.2149
  368MOL0     C48492  -1.107   6.782  11.625 -0.1485 -0.7525  0.3021
  368MOL0     C48493  -1.026   6.834  11.517 -0.4915  0.5874 -0.5320
  368MOL0     N48494  -0.607   7.385  11.179  0.2077  0.0266 -0.7426
  368MOL0     N48495  -0.484   7.423  11.184  0.0958 -0.0110 -0.8878
  368MOL0     C48496   0.185   7.813  10.385  0.7232 -1.1619 -0.4731
  368MOL0     C48497   0.317   7.830  10.349 -0.2011 -0.3192 -0.0331
  368MOL0     C48498   0.721   7.934  10.155 -0.4901 -0.0482 -0.5326
  368MOL0     C48499   0.832   7.846  10.158 -0.1271  1.0065  0.5362
  368MOL0     C48500   0.951   7.868  10.086 -0.6100  0.1665  1.1312
  368MOL0     C48501   0.953   7.982  10.005  0.2933 -1.4190  0.5503
  368MOL0     O48502   1.064   8.012   9.925  0.2811  0.0545 -0.2681
  368MOL0     C48503   1.161   7.914   9.907 -0.0055  0.1714 -0.3590
  368MOL0     C48504   1.252   7.933   9.794 -0.7521 -0.4832 -0.4124
  368MOL0     C48505   1.175   7.988   9.670  0.0507  1.0475 -0.2008
  368MOL0     C48506   1.053   7.906   9.629 -0.5385 -0.3380 -0.3840
  368MOL0     C48507   0.990   7.960   9.509  0.2351 -0.4433 -0.1996
  368MOL0     C48508   0.945   7.996   9.409 -0.1581 -0.8769  0.1996
  368MOL0     C48509   0.842   8.072  10.004 -0.0456 -0.8130  0.4070
  368MOL0     C48510   0.721   8.045  10.078  0.2716  0.0470 -0.6912
  368MOL0     H48511   0.279   8.088  10.129 -1.0297  0.2679  0.4424
  368MOL0     H48512   0.031   8.039  10.182 -0.3004 -2.0191 -0.3313
  368MOL0     H48513  -0.202   7.816  10.490 -0.4413  0.7615  1.3761
  368MOL0     H48514  -0.041   7.801  10.553  0.8138  1.4064 -1.4448
  368MOL0     H48515  -0.027   7.634  10.342  0.9827 -0.6253  0.8755
  368MOL0     H48516  -0.207   7.646  10.357  0.9141  2.7390 -0.2683
  368MOL0     H48517  -0.015   7.552  10.586 -1.7653 -3.2555  3.7949
  368MOL0     H48518  -0.059   7.445  10.467  0.1688 -0.3751  1.8251
  368MOL0     H48519  -0.259   7.623  10.650  1.1365 -0.0099  1.5679
  368MOL0     H48520  -0.318   7.493  10.557  1.6326  0.8323 -3.3667
  368MOL0     H48521  -0.083   7.434  10.743  1.0275 -1.2689 -1.2499
  368MOL0     H48522  -0.198   7.322  10.666  2.6871 -1.1158  1.4259
  368MOL0     H48523  -0.386   7.400  10.823  0.4531 -1.2186  0.6322
  368MOL0     H48524  -0.285   7.530  10.870  4.4720  1.2309 -0.8783
  368MOL0     H48525  -0.236   7.236  10.908  1.0463  0.9748 -3.8291
  368MOL0     H48526  -0.114   7.347  10.943 -1.0585 -2.0173 -2.8820
  368MOL0     H48527  -0.227   7.458  11.112  0.7750 -1.1843  1.9404
  368MOL0     H48528  -0.215   7.290  11.153  4.3814 -1.6784 -3.9376
  368MOL0     H48529  -0.443   7.158  11.003  1.1915  0.2391 -0.6196
  368MOL0     H48530  -0.679   7.100  11.019 -0.5445  1.5990 -2.4801
  368MOL0     H48531  -0.801   7.224  11.010 -0.8511 -0.9207 -1.2737
  368MOL0     H48532  -0.863   7.060  11.212 -0.6375  0.7020  1.1734
  368MOL0     H48533  -0.831   7.232  11.263  1.7066  0.6878 -0.0993
  368MOL0     H48534  -0.612   7.021  11.277  0.2625 -0.1107  0.1971
  368MOL0     H48535  -0.611   7.181  11.340 -0.4867 -0.4970 -0.3024
  368MOL0     H48536  -0.804   7.136  11.486  1.9567  0.5863  1.3228
  368MOL0     H48537  -0.660   7.029  11.517 -0.9224 -1.7300 -0.6207
  368MOL0     H48538  -0.805   7.014  11.680  1.2255 -0.8254 -1.8828
  368MOL0     H48539  -0.960   6.950  11.881 -2.2294 -2.7490  1.2488
  368MOL0     H48540  -1.184   6.598  12.111 -1.5187  0.3661 -2.0647
  368MOL0     H48541  -1.334   6.555  12.310  1.6720  0.5709  1.4605
  368MOL0     H48542  -1.583   6.580  12.294 -1.2632 -1.2923  0.1650
  368MOL0     H48543  -1.710   6.692  12.332 -0.0556  0.8853  1.2407
  368MOL0     H48544  -1.756   6.520  12.483  0.6601 -0.6575  1.9222
  368MOL0     H48545  -1.690   6.643  12.578 -3.5103  0.8032 -1.9023
  368MOL0     H48546  -1.552   6.468  12.661 -4.8699  0.3385  0.0958
  368MOL0     H48547  -1.448   6.568  12.557  0.7056 -0.2286 -1.0689
  368MOL0     H48548  -1.607   6.338  12.438  0.1846 -2.1723  0.9819
  368MOL0     H48549  -1.448   6.396  12.400 -0.7786  2.3564  0.2472
  368MOL0     H48550  -1.465   6.158  12.508  2.7684 -0.5977  0.1778
  368MOL0     H48551  -1.520   6.250  12.655  0.3377  0.7085 -0.4016
  368MOL0     H48552  -1.318   6.376  12.657 -0.1563 -0.3134  2.1699
  368MOL0     H48553  -1.253   6.255  12.534 -1.5100  0.1186 -1.3503
  368MOL0     H48554  -1.359   6.166  12.809  0.5136 -1.9284  0.5426
  368MOL0     H48555  -1.300   6.068  12.677  0.2374  1.2976 -4.5275
  368MOL0     H48556  -1.078   6.145  12.717  0.7518  4.6417 -1.6770
  368MOL0     H48557  -1.154   6.109  12.872 -0.4148 -1.0328 -1.0301
  368MOL0     H48558  -1.483   6.959  12.275 -1.9458  1.4272 -3.1474
  368MOL0     H48559  -1.327   7.011  12.099 -1.9969  0.5897  2.6418
  368MOL0     H48560  -1.193   6.718  11.607 -1.7499  0.8084  1.9887
  368MOL0     H48561  -1.060   6.815  11.415  2.1628  1.7322 -1.7307
  368MOL0     H48562   0.159   7.732  10.451 -1.5096 -1.2543 -1.3794
  368MOL0     H48563   0.394   7.766  10.392  3.5993  3.9953  0.4141
  368MOL0     H48564   0.822   7.753  10.212 -0.3461  0.5721 -0.2282
  368MOL0     H48565   1.037   7.801  10.087 -2.4352 -2.4263 -0.6639
  368MOL0     H48566   1.119   7.814   9.891  1.3456 -0.2347 -1.4444
  368MOL0     H48567   1.224   7.894   9.994  0.2910  2.0423 -0.1059
  368MOL0     H48568   1.318   8.015   9.824 -0.4534  0.7127 -3.8302
  368MOL0     H48569   1.317   7.847   9.773  0.4691  1.2077 -4.6061
  368MOL0     H48570   1.243   8.004   9.585  0.7486 -1.4517 -0.1914
  368MOL0     H48571   1.130   8.083   9.698 -1.9441  1.1964 -3.4286
  368MOL0     H48572   1.088   7.802   9.623  0.1036 -0.1258 -0.3701
  368MOL0     H48573   0.976   7.905   9.707 -1.3656  0.7754 -1.1594
  368MOL0     H48574   0.893   8.023   9.319  0.8586  1.0574  0.1411
  368MOL0     H48575   0.852   8.162   9.944  0.5174 -0.8535  0.4405
  368MOL0     H48576   0.637   8.113  10.071 -0.2135 -0.4435  0.1296
  369MOL0     O48577   2.334   4.884   6.962  0.0373 -0.0467  0.4729
  369MOL0     C48578   2.267   4.961   7.025  0.3017  0.7518 -0.2521
  369MOL0     O48579   2.315   5.037   7.127 -0.7101  0.1257 -0.6316
  369MOL0     C48580   2.456   5.039   7.146 -0.1539  0.0978 -0.6638
  369MOL0     C48581   2.515   4.981   7.259  1.2613  0.1653 -0.2752
  369MOL0     C48582   2.654   4.990   7.277 -0.9368  0.4227  0.4339
  369MOL0     C48583   2.738   5.047   7.178  0.0936 -0.6775 -0.3044
  369MOL0     O48584   2.870   5.069   7.190 -1.1053 -0.1969 -0.5209
  369MOL0     C48585   2.958   5.011   7.290 -0.0368 -0.0209 -0.0166
  369MOL0     C48586   3.108   5.065   7.267 -0.5778  0.1700  0.4020
  369MOL0     C48587   3.148   5.074   7.122  0.7945  0.3890 -0.2086
  369MOL0     C48588   3.121   5.217   7.064  0.5719  0.4694  0.2376
  369MOL0     C48589   3.157   5.233   6.914 -0.5813  0.0570  0.1886
  369MOL0     C48590   3.130   5.372   6.852  0.0818 -0.3622 -0.5533
  369MOL0     C48591   2.981   5.421   6.860 -0.1860 -0.1110  0.5041
  369MOL0     C48592   2.888   5.319   6.797 -0.8307  0.4773  0.6448
  369MOL0     N48593   2.745   5.354   6.806 -0.3223  0.3159 -0.6939
  369MOL0     C48594   2.680   5.392   6.927  0.1240 -0.3294  0.3530
  369MOL0     C48595   2.557   5.437   6.885  0.7116 -0.1793  0.3713
  369MOL0     C48596   2.447   5.494   6.980 -0.0872 -0.4118 -1.0225
  369MOL0     C48597   2.392   5.613   6.923 -1.2093 -0.0126  0.0824
  369MOL0     C48598   2.273   5.663   6.995  0.1415 -0.5592  0.1063
  369MOL0     C48599   2.286   5.717   7.138 -0.8443 -0.0772 -0.3052
  369MOL0     O48600   2.159   5.736   7.192  0.0339  0.0057  0.2792
  369MOL0     C48601   2.069   5.627   7.207 -0.2695 -0.1204  0.4072
  369MOL0     C48602   1.932   5.657   7.193 -0.2185 -0.0223 -0.2228
  369MOL0     C48603   1.829   5.573   7.216  0.3620  0.7004  0.0318
  369MOL0     C48604   1.874   5.438   7.247 -0.3513 -0.4041  0.1410
  369MOL0     C48605   1.762   5.340   7.238  0.7519  0.7407  1.0807
  369MOL0     O48606   1.658   5.373   7.151  0.4938 -0.7234  0.6240
  369MOL0     C48607   1.549   5.285   7.139 -0.1013  0.5837  0.2194
  369MOL0     C48608   1.448   5.291   7.236  0.1398  0.4156  0.1069
  369MOL0     C48609   1.338   5.204   7.217 -0.2096  0.2772 -0.3934
  369MOL0     C48610   1.325   5.122   7.103 -0.4708  0.0925 -0.0563
  369MOL0     O48611   1.218   5.048   7.057  0.5676 -0.5183 -0.6573
  369MOL0     C48612   1.094   5.103   7.111  0.1590  0.6311  0.1516
  369MOL0     C48613   0.986   5.025   7.043  1.0495 -0.4683  0.2953
  369MOL0     C48614   0.845   5.053   7.099  0.1391 -0.6471  0.3023
  369MOL0     C48615   0.732   4.985   7.017  0.3122 -0.5616  1.0573
  369MOL0     C48616   0.579   4.996   7.050  0.0659  0.2221 -0.0588
  369MOL0     C48617   0.484   4.935   6.946 -0.1320  0.2064 -0.7631
  369MOL0     C48618   0.336   4.959   6.968  0.6751 -0.7397  0.1608
  369MOL0     C48619   0.296   4.907   7.109  0.7023  0.4455 -0.1665
  369MOL0    Cl48620   0.116   4.927   7.115 -0.1130 -0.2311  0.0217
  369MOL0     C48621   1.429   5.120   7.009 -0.0386  0.2197  0.4115
  369MOL0     C48622   1.538   5.199   7.030  0.5316 -0.7661  1.4700
  369MOL0     O48623   1.768   5.234   7.294  0.3196  0.1385 -0.4188
  369MOL0     C48624   2.004   5.396   7.255 -0.6254 -1.1626  0.4050
  369MOL0     C48625   2.107   5.497   7.237  0.6103 -0.2109  0.8910
  369MOL0     N48626   2.549   5.413   6.749  0.3525  0.0034 -0.2099
  369MOL0     N48627   2.659   5.364   6.707 -0.3802 -0.4832 -0.2379
  369MOL0     C48628   2.678   5.098   7.064 -0.0514  0.3654 -0.2428
  369MOL0     C48629   2.541   5.096   7.046 -0.3834 -0.0078  0.0762
  369MOL0     C48630   2.116   4.953   7.012 -0.6968  0.1353  0.3463
  369MOL0     C48631   2.070   4.860   6.926  0.1382 -0.9785 -0.0027
  369MOL0     C48632   1.932   4.835   6.910 -0.2553 -0.3791 -1.3268
  369MOL0     C48633   1.842   4.917   6.978  0.3981 -0.3321 -0.5030
  369MOL0     O48634   1.704   4.924   6.950  0.5188  0.0360 -0.4491
  369MOL0     C48635   1.643   4.807   6.882  0.2946 -0.3697 -0.3346
  369MOL0     C48636   1.606   4.834   6.732  0.2643  0.0208 -0.3832
  369MOL0     C48637   1.718   4.881   6.648 -0.1706  0.9550 -0.3733
  369MOL0     C48638   1.653   4.961   6.530  0.7024  0.5369  0.3793
  369MOL0     C48639   1.747   4.974   6.419 -0.3411 -0.5791 -0.2388
  369MOL0     C48640   1.833   4.949   6.337  0.4472 -0.2702  0.5554
  369MOL0     C48641   1.896   5.013   7.063  0.0369  0.2735 -0.1263
  369MOL0     C48642   2.029   5.031   7.088 -0.6042 -0.0320 -0.4202
  369MOL0     H48643   2.460   4.929   7.336  4.0425 -0.3933  1.4637
  369MOL0     H48644   2.691   4.957   7.373 -5.3196 -0.3263  2.0900
  369MOL0     H48645   2.966   4.902   7.280  1.9653  0.0366  0.4812
  369MOL0     H48646   2.921   5.035   7.390  1.0810  0.7089  0.2347
  369MOL0     H48647   3.178   4.996   7.316  0.5968 -0.3123 -1.8194
  369MOL0     H48648   3.107   5.162   7.316 -0.9979 -0.2281  1.2083
  369MOL0     H48649   3.096   5.000   7.061  0.4293 -0.2876  0.8923
  369MOL0     H48650   3.255   5.058   7.106  0.5190 -0.2191 -1.6217
  369MOL0     H48651   3.014   5.233   7.080 -0.4033 -3.0316 -1.7560
  369MOL0     H48652   3.179   5.285   7.127  2.6529 -1.1269  0.1586
  369MOL0     H48653   3.113   5.148   6.861 -2.4611 -1.1179  3.3179
  369MOL0     H48654   3.266   5.222   6.911 -0.2324  2.9563 -0.3687
  369MOL0     H48655   3.156   5.373   6.746  0.2830  1.3595 -0.5225
  369MOL0     H48656   3.190   5.452   6.896  1.1674 -0.2747 -2.1067
  369MOL0     H48657   2.938   5.436   6.960  1.7037  1.1356  1.1775
  369MOL0     H48658   2.986   5.513   6.801  1.5991 -1.1361 -1.0525
  369MOL0     H48659   2.908   5.227   6.853 -0.5096 -1.7338 -2.7943
  369MOL0     H48660   2.914   5.300   6.692 -1.0060  0.5279  0.5914
  369MOL0     H48661   2.726   5.392   7.025  1.5969  1.2980 -0.2772
  369MOL0     H48662   2.501   5.516   7.072 -0.5360 -2.2180 -0.2805
  369MOL0     H48663   2.377   5.413   7.003  0.5103 -0.6159  0.1700
  369MOL0     H48664   2.371   5.601   6.816 -0.5141  0.9254 -0.1802
  369MOL0     H48665   2.468   5.692   6.930 -0.8110 -0.5402  2.0362
  369MOL0     H48666   2.233   5.743   6.932 -1.5707 -1.7260 -0.3615
  369MOL0     H48667   2.201   5.580   6.991 -0.6336  0.0635  0.6816
  369MOL0     H48668   2.341   5.811   7.133  0.1547 -0.5918  0.5087
  369MOL0     H48669   2.333   5.636   7.194  0.2407  0.0083 -1.0746
  369MOL0     H48670   1.905   5.755   7.154 -1.6419 -1.4828 -3.2391
  369MOL0     H48671   1.727   5.610   7.216  0.4619  0.9764 -0.3989
  369MOL0     H48672   1.461   5.352   7.324  0.8038 -1.3695  1.3073
  369MOL0     H48673   1.257   5.185   7.287 -0.3641  0.3316 -0.5562
  369MOL0     H48674   1.094   5.212   7.094  1.5167  0.1214 -4.2762
  369MOL0     H48675   1.088   5.082   7.218 -0.3535  2.4406  0.5102
  369MOL0     H48676   0.996   4.920   7.072  1.1044 -0.3044  0.8740
  369MOL0     H48677   0.981   5.047   6.935  0.0763 -2.4406 -0.0999
  369MOL0     H48678   0.818   5.159   7.099  0.1452 -0.6410 -0.3544
  369MOL0     H48679   0.839   5.024   7.204 -1.4283  2.1195  1.0794
  369MOL0     H48680   0.734   5.016   6.912  1.6038  1.0426  1.5144
  369MOL0     H48681   0.747   4.877   7.005 -1.6630 -0.6571 -1.0752
  369MOL0     H48682   0.539   5.095   7.076 -1.3357 -0.2007 -0.4706
  369MOL0     H48683   0.568   4.934   7.139 -0.1404 -1.0487 -0.9447
  369MOL0     H48684   0.481   4.827   6.931 -4.0292  0.0459  0.0180
  369MOL0     H48685   0.515   4.980   6.852  3.4288  0.7678  0.5473
  369MOL0     H48686   0.318   5.065   6.948 -1.4389 -1.2940 -1.0547
  369MOL0     H48687   0.276   4.907   6.893 -0.2146  1.0293 -0.4246
  369MOL0     H48688   0.346   4.958   7.192  1.3430  0.0087 -0.2734
  369MOL0     H48689   0.322   4.801   7.122 -2.6287 -0.7629 -2.0618
  369MOL0     H48690   1.437   5.046   6.930 -2.8596 -1.9367  1.9694
  369MOL0     H48691   1.615   5.202   6.954  0.3483  1.0311  1.3213
  369MOL0     H48692   2.020   5.288   7.259 -1.0094 -1.2814 -0.7363
  369MOL0     H48693   2.212   5.469   7.249  0.7657 -1.2031 -1.9954
  369MOL0     H48694   2.750   5.142   6.996  0.7563 -0.2215  0.2128
  369MOL0     H48695   2.491   5.130   6.955 -0.7008  1.9229  0.9240
  369MOL0     H48696   2.146   4.803   6.873 -0.2243 -0.6429 -0.9053
  369MOL0     H48697   1.912   4.760   6.835  2.1527 -2.3437 -0.1361
  369MOL0     H48698   1.555   4.778   6.939  0.3598 -0.4742 -0.2863
  369MOL0     H48699   1.693   4.712   6.902  2.0703  1.2004  3.5941
  369MOL0     H48700   1.556   4.744   6.694 -0.7030 -0.2338  1.3638
  369MOL0     H48701   1.526   4.909   6.728  0.2646 -0.0086 -1.0318
  369MOL0     H48702   1.779   4.798   6.611 -1.0209  0.9210 -1.7496
  369MOL0     H48703   1.788   4.943   6.705 -0.5640 -0.1545  1.3660
  369MOL0     H48704   1.561   4.921   6.488 -0.5883  2.1183  1.5233
  369MOL0     H48705   1.642   5.068   6.555  0.3982  1.2983 -2.6758
  369MOL0     H48706   1.907   4.938   6.261 -1.7181 -1.1657 -1.5645
  369MOL0     H48707   1.823   5.060   7.128  2.5196  1.2195  2.1989
  369MOL0     H48708   2.067   5.100   7.163  1.0057 -0.3854 -0.8824
  370MOL0     O48709   0.715   2.837   7.349  0.8824  0.5152 -0.3070
  370MOL0     C48710   0.794   2.918   7.326 -0.1021  0.2584 -0.0436
  370MOL0     O48711   0.797   2.996   7.217 -0.6394 -0.8190 -0.6954
  370MOL0     C48712   0.731   2.972   7.099 -0.5879 -0.1298 -0.0614
  370MOL0     C48713   0.690   2.846   7.058  0.0101  0.1927 -1.3542
  370MOL0     C48714   0.612   2.826   6.941 -1.5916  0.1711 -0.3531
  370MOL0     C48715   0.581   2.935   6.855  1.0630  0.7076 -0.1726
  370MOL0     O48716   0.494   2.911   6.755 -0.5019  0.5969 -0.7592
  370MOL0     C48717   0.554   2.911   6.623  0.0488 -0.8599 -0.0514
  370MOL0     C48718   0.478   3.007   6.532 -0.4380 -0.8824 -0.0506
  370MOL0     C48719   0.516   2.976   6.385  0.6720 -0.5627  1.2394
  370MOL0     C48720   0.668   3.000   6.347  0.1593  0.4910  0.8782
  370MOL0     C48721   0.688   3.043   6.199 -1.3497 -0.3675  0.3418
  370MOL0     C48722   0.619   2.955   6.095  0.3252  0.2634 -0.0089
  370MOL0     C48723   0.681   2.982   5.958  0.0056  0.8073  0.3096
  370MOL0     C48724   0.588   2.935   5.846  0.0118  0.2365  0.4546
  370MOL0     N48725   0.484   3.036   5.816  0.6209 -0.0697 -0.1891
  370MOL0     C48726   0.505   3.161   5.760  0.3556  0.0374  1.0233
  370MOL0     C48727   0.380   3.203   5.732 -0.9513 -0.8606 -0.7459
  370MOL0     C48728   0.346   3.335   5.662  0.1162 -0.5670 -0.6248
  370MOL0     C48729   0.336   3.316   5.514 -0.4185  0.0144  0.4218
  370MOL0     C48730   0.204   3.249   5.478  0.2587 -0.2049  0.2481
  370MOL0     C48731   0.169   3.247   5.332  1.0759  0.8027 -0.6409
  370MOL0     O48732   0.114   3.112   5.299 -0.1927  0.5240  0.5371
  370MOL0     C48733  -0.016   3.083   5.298 -0.6455 -0.2886  0.1764
  370MOL0     C48734  -0.117   3.179   5.331 -0.2933 -0.0045 -1.4471
  370MOL0     C48735  -0.249   3.140   5.316 -0.0350  0.7311  0.7791
  370MOL0     C48736  -0.292   3.007   5.288  0.9940 -0.7922 -0.2222
  370MOL0     C48737  -0.439   2.971   5.281  0.9602  0.7898 -0.0494
  370MOL0     O48738  -0.529   3.069   5.299  0.1460  0.8495  0.4556
  370MOL0     C48739  -0.660   3.049   5.278 -0.2966  0.5537 -0.7836
  370MOL0     C48740  -0.733   3.134   5.200  0.2542  0.4520 -0.4760
  370MOL0     C48741  -0.866   3.109   5.164 -1.0473  0.1655 -0.3204
  370MOL0     C48742  -0.939   3.007   5.224  0.5009  0.1537  0.3631
  370MOL0     O48743  -1.074   2.969   5.197 -0.9260 -0.1970 -0.0146
  370MOL0     C48744  -1.144   3.056   5.111 -0.3604  0.3556  0.0083
  370MOL0     C48745  -1.262   2.978   5.055 -0.4299  0.6193  0.2589
  370MOL0     C48746  -1.351   3.063   4.956  0.0714 -0.0221 -0.9467
  370MOL0     C48747  -1.471   2.989   4.914  0.0196  0.3519  0.1434
  370MOL0     C48748  -1.551   3.097   4.821  0.6499 -0.5027 -0.2218
  370MOL0     C48749  -1.671   3.025   4.747 -0.2432  0.0755 -0.3062
  370MOL0     C48750  -1.790   3.116   4.715 -0.1510 -0.4472 -0.0704
  370MOL0     C48751  -1.757   3.212   4.596  0.5892 -0.2291  0.0085
  370MOL0    Cl48752  -1.762   3.108   4.455  0.2365 -0.4301  0.2549
  370MOL0     C48753  -0.875   2.927   5.322 -0.2329 -0.5133 -0.0307
  370MOL0     C48754  -0.737   2.947   5.343 -1.4499 -0.0375 -0.6888
  370MOL0     O48755  -0.469   2.852   5.252  0.4870  0.0733  0.3292
  370MOL0     C48756  -0.198   2.912   5.258 -0.9066  0.8504 -0.4202
  370MOL0     C48757  -0.062   2.956   5.259 -0.1482 -0.0529  0.1439
  370MOL0     N48758   0.296   3.107   5.773  0.1616  0.2195 -0.3686
  370MOL0     N48759   0.355   3.010   5.835  0.7533 -0.7473 -0.1469
  370MOL0     C48760   0.616   3.060   6.901 -0.8280 -0.6696 -0.4033
  370MOL0     C48761   0.703   3.075   7.010  0.7972 -0.3245 -0.0127
  370MOL0     C48762   0.915   2.916   7.408  0.4430 -0.2982 -0.0558
  370MOL0     C48763   0.991   3.031   7.430  0.1008 -0.3708 -0.5774
  370MOL0     C48764   1.117   3.024   7.496  0.6662 -0.0409  0.1158
  370MOL0     C48765   1.171   2.900   7.537 -0.1825 -0.4961 -1.0239
  370MOL0     O48766   1.298   2.874   7.592  0.1019 -0.3221  0.3549
  370MOL0     C48767   1.384   2.978   7.641  0.6838  0.5570  0.0147
  370MOL0     C48768   1.528   2.938   7.653 -0.2812  0.3740  0.0166
  370MOL0     C48769   1.556   2.824   7.759  0.4133 -0.4688 -0.4659
  370MOL0     C48770   1.536   2.876   7.909 -1.1532 -0.5988 -0.4344
  370MOL0     C48771   1.395   2.882   7.945  0.0436  1.1150 -0.1976
  370MOL0     C48772   1.287   2.887   8.002  0.0150  0.1900  0.6765
  370MOL0     C48773   1.086   2.785   7.527 -0.0547 -0.9059 -0.9971
  370MOL0     C48774   0.964   2.795   7.455  0.3878  0.2807  0.3213
  370MOL0     H48775   0.714   2.754   7.111  2.6521  1.3786 -0.3267
  370MOL0     H48776   0.586   2.726   6.909  2.9495 -2.0143  1.8016
  370MOL0     H48777   0.539   2.810   6.583  1.1702 -0.0332 -2.8064
  370MOL0     H48778   0.657   2.949   6.625 -0.3266  0.1793  1.3627
  370MOL0     H48779   0.516   3.109   6.541  1.0715 -1.5561  1.8775
  370MOL0     H48780   0.371   3.000   6.548 -0.7784 -1.6719 -2.2606
  370MOL0     H48781   0.462   3.039   6.315  1.2656 -4.0269 -2.6933
  370MOL0     H48782   0.492   2.873   6.357  1.2646 -0.2836 -0.3266
  370MOL0     H48783   0.710   3.082   6.406 -0.0780  0.4170  1.1522
  370MOL0     H48784   0.732   2.914   6.370  0.0251  1.1274  4.1088
  370MOL0     H48785   0.796   3.049   6.179 -1.2416  0.5427  1.1398
  370MOL0     H48786   0.655   3.146   6.187  1.3033  0.3595 -1.7091
  370MOL0     H48787   0.515   2.990   6.093 -0.5765 -2.1199  0.8342
  370MOL0     H48788   0.624   2.849   6.121 -4.4934  0.3351  2.3421
  370MOL0     H48789   0.702   3.090   5.958 -3.0540  1.4803  0.7589
  370MOL0     H48790   0.775   2.928   5.946 -0.6663  0.1882 -3.1696
  370MOL0     H48791   0.542   2.843   5.883  0.5306  0.6752  2.2942
  370MOL0     H48792   0.648   2.914   5.757 -0.3159  0.1761  0.2455
  370MOL0     H48793   0.602   3.204   5.736  1.3841 -2.5442  0.2093
  370MOL0     H48794   0.422   3.414   5.667  0.6947 -1.1200 -0.6104
  370MOL0     H48795   0.264   3.380   5.719  1.6427  0.8097  0.6112
  370MOL0     H48796   0.425   3.260   5.486  1.8902  3.2101  0.7362
  370MOL0     H48797   0.358   3.411   5.464  3.2499 -1.0167 -0.2329
  370MOL0     H48798   0.219   3.142   5.497  0.2321 -0.8638 -2.8814
  370MOL0     H48799   0.118   3.293   5.528 -0.4898  0.6178 -1.6849
  370MOL0     H48800   0.258   3.262   5.271  0.9143 -0.4439 -1.2287
  370MOL0     H48801   0.094   3.323   5.307  1.0609  1.3515  0.9929
  370MOL0     H48802  -0.098   3.277   5.375  1.8008 -0.7991 -0.4388
  370MOL0     H48803  -0.325   3.216   5.331  1.1499  1.8155  1.5804
  370MOL0     H48804  -0.682   3.210   5.141  2.7217 -1.5812 -1.1832
  370MOL0     H48805  -0.905   3.178   5.089 -0.1375  2.0181  0.8278
  370MOL0     H48806  -1.082   3.084   5.026  0.3037  2.5059  1.1313
  370MOL0     H48807  -1.182   3.147   5.158 -0.3418  0.7576 -0.7354
  370MOL0     H48808  -1.326   2.939   5.134  0.5134  1.8915  1.7163
  370MOL0     H48809  -1.216   2.894   5.001  1.9520  1.2566  1.1822
  370MOL0     H48810  -1.283   3.102   4.879  2.3493  0.3513  1.1111
  370MOL0     H48811  -1.382   3.156   5.004  0.3213  0.1350 -1.0814
  370MOL0     H48812  -1.439   2.906   4.851 -1.4693 -1.6648  1.8749
  370MOL0     H48813  -1.536   2.949   4.993 -1.7670  1.0823 -0.8887
  370MOL0     H48814  -1.492   3.151   4.746 -0.6950 -1.7889 -2.3466
  370MOL0     H48815  -1.591   3.164   4.897  0.3270  0.5736 -1.3128
  370MOL0     H48816  -1.703   2.943   4.812  2.3042 -2.7412 -2.3337
  370MOL0     H48817  -1.640   2.975   4.655 -0.3953  2.7255 -1.8963
  370MOL0     H48818  -1.881   3.059   4.692  0.7527 -2.2542  0.5756
  370MOL0     H48819  -1.808   3.165   4.811  0.7333 -1.6768  0.7693
  370MOL0     H48820  -1.656   3.254   4.603  0.6236  0.3296 -2.8106
  370MOL0     H48821  -1.834   3.289   4.586  2.6983  2.1883  1.1813
  370MOL0     H48822  -0.939   2.855   5.373  1.4949 -2.6497 -0.7164
  370MOL0     H48823  -0.678   2.890   5.414 -2.3916 -1.6232 -1.1406
  370MOL0     H48824  -0.224   2.812   5.226  2.1498 -1.5731  3.6813
  370MOL0     H48825   0.022   2.887   5.252 -0.2253 -0.0688 -0.7807
  370MOL0     H48826   0.590   3.154   6.853  1.9341  1.2249  1.5080
  370MOL0     H48827   0.737   3.166   7.058  2.8114 -2.8055  3.7285
  370MOL0     H48828   0.949   3.123   7.390 -1.8336 -2.0754 -2.8006
  370MOL0     H48829   1.169   3.117   7.516  1.1622 -0.2039 -0.4032
  370MOL0     H48830   1.343   3.011   7.736 -1.6494 -3.5006  0.6812
  370MOL0     H48831   1.386   3.066   7.576  0.5604 -1.3353 -2.7337
  370MOL0     H48832   1.570   2.909   7.556  0.5174  3.8330 -0.8044
  370MOL0     H48833   1.589   3.027   7.672 -0.7091  0.5399  0.6247
  370MOL0     H48834   1.653   2.776   7.744  1.0452  1.1581 -1.9039
  370MOL0     H48835   1.491   2.737   7.743  1.2371 -1.0643 -0.6084
  370MOL0     H48836   1.576   2.800   7.977  0.6824  3.2375  3.2493
  370MOL0     H48837   1.603   2.962   7.915  2.2720 -2.9478 -1.9462
  370MOL0     H48838   1.203   2.902   8.066 -1.1419  0.8509 -0.9353
  370MOL0     H48839   1.124   2.692   7.569  1.7598  1.3110  2.8890
  370MOL0     H48840   0.915   2.701   7.436  1.0775 -0.0476  0.1411
  371MOL0     O48841   9.663   5.243  10.144  0.5137  0.4262 -0.6110
  371MOL0     C48842   9.786   5.258  10.124  0.0749  0.4958 -0.6957
  371MOL0     O48843   9.854   5.354  10.060 -0.6624 -0.0752  0.0347
  371MOL0     C48844   9.785   5.458  10.001 -0.3228  0.4085  0.9012
  371MOL0     C48845   9.658   5.513  10.033 -0.1719  0.7999  0.1401
  371MOL0     C48846   9.599   5.609   9.949 -0.0191 -0.9214 -0.1707
  371MOL0     C48847   9.688   5.673   9.857  0.2790 -0.2684 -0.5966
  371MOL0     O48848   9.634   5.780   9.803  1.1002 -1.0200  0.2500
  371MOL0     C48849   9.633   5.792   9.656  0.2486  0.2565 -0.0613
  371MOL0     C48850   9.507   5.725   9.602 -0.5673  0.0535  0.1686
  371MOL0     C48851   9.513   5.571   9.566  0.1607 -0.4285  1.1160
  371MOL0     C48852   9.379   5.522   9.512  0.0811 -0.7041  0.0770
  371MOL0     C48853   9.395   5.402   9.433  0.3462 -0.8239 -0.0259
  371MOL0     C48854   9.251   5.352   9.400 -0.5550  0.0783  0.4295
  371MOL0     C48855   9.201   5.258   9.515 -0.8421  0.0653  0.4559
  371MOL0     C48856   9.062   5.207   9.487 -0.8119 -0.9503 -0.8208
  371MOL0     N48857   8.963   5.308   9.544  0.5177  0.1948 -0.6307
  371MOL0     C48858   8.919   5.423   9.482  0.0362 -0.7372  0.6887
  371MOL0     C48859   8.803   5.467   9.553  0.1736  0.8862  0.1245
  371MOL0     C48860   8.707   5.587   9.546 -1.0756 -0.0595  0.8964
  371MOL0     C48861   8.579   5.560   9.468  1.2825 -0.0294 -0.1254
  371MOL0     C48862   8.485   5.677   9.487  0.2000  0.0392 -0.8808
  371MOL0     C48863   8.350   5.659   9.413  0.8940 -1.2833 -0.1685
  371MOL0     O48864   8.283   5.792   9.409 -1.2737 -0.0118  1.1024
  371MOL0     C48865   8.154   5.785   9.360  1.0145 -0.6268  0.2540
  371MOL0     C48866   8.101   5.684   9.272 -1.3659 -0.7191  0.2215
  371MOL0     C48867   7.968   5.696   9.234  0.8228  0.2980  0.9015
  371MOL0     C48868   7.880   5.796   9.280 -0.1936 -0.7953  0.2362
  371MOL0     C48869   7.736   5.807   9.238 -0.3915  0.6658 -0.3649
  371MOL0     O48870   7.671   5.910   9.304 -0.3520  0.1856 -0.3550
  371MOL0     C48871   7.536   5.943   9.275  0.3260 -0.8742 -0.2900
  371MOL0     C48872   7.428   5.867   9.307 -0.4891 -0.3763  0.6833
  371MOL0     C48873   7.301   5.879   9.248 -0.9240  0.0021  0.0544
  371MOL0     C48874   7.284   5.984   9.153 -0.9674 -1.2366 -0.4667
  371MOL0     O48875   7.157   6.006   9.105 -0.0097  0.9081 -0.3806
  371MOL0     C48876   7.144   6.057   8.973 -0.3449 -0.1250  0.6501
  371MOL0     C48877   7.017   6.032   8.904  0.2691  0.0880 -0.0905
  371MOL0     C48878   6.895   6.100   8.981 -0.0209 -0.8641 -0.0474
  371MOL0     C48879   6.760   6.070   8.916 -0.4104 -0.0817 -1.3362
  371MOL0     C48880   6.635   6.143   8.975 -0.2966 -0.0004 -0.0828
  371MOL0     C48881   6.621   6.293   8.933 -0.0562 -0.0624 -0.1729
  371MOL0     C48882   6.623   6.312   8.783 -1.3297 -0.1788 -0.1741
  371MOL0     C48883   6.558   6.435   8.728  0.3090  1.0248 -0.4383
  371MOL0    Cl48884   6.625   6.588   8.796  0.3811  0.0635 -0.0806
  371MOL0     C48885   7.397   6.057   9.111 -0.5954 -0.7051 -0.1038
  371MOL0     C48886   7.518   6.037   9.173  0.1629  0.2916  1.3790
  371MOL0     O48887   7.694   5.727   9.157  0.6644  0.4266 -0.1270
  371MOL0     C48888   7.935   5.893   9.356  0.4136 -0.6637  0.2790
  371MOL0     C48889   8.068   5.895   9.383 -0.2286  0.0458 -0.4165
  371MOL0     N48890   8.805   5.403   9.666 -0.5849  1.4222 -0.1336
  371MOL0     N48891   8.890   5.303   9.660 -0.6612 -1.0473 -0.4671
  371MOL0     C48892   9.812   5.634   9.836  0.2132  0.1727 -0.2524
  371MOL0     C48893   9.866   5.521   9.902  0.5667 -0.4886 -0.8532
  371MOL0     C48894   9.884   5.153  10.193  0.3156  0.3749 -0.5242
  371MOL0     C48895   9.842   5.069  10.302  1.0761 -0.0433  0.8095
  371MOL0     C48896   9.934   4.981  10.363  0.0449 -0.0706  0.0027
  371MOL0     C48897  10.066   4.979  10.316  0.3015  0.0821  0.5313
  371MOL0     O48898  10.158   4.901  10.372  0.3624  0.6853 -0.0344
  371MOL0     C48899  10.131   4.784  10.444  0.9108  0.3387  0.7706
  371MOL0     C48900  10.266   4.722  10.473  0.5308  0.2575  1.3374
  371MOL0     C48901  10.261   4.590  10.544  0.6251  0.5270 -0.4647
  371MOL0     C48902  10.333   4.578  10.681 -0.3209  0.3113  0.3275
  371MOL0     C48903  10.303   4.449  10.739  0.8916 -1.3225 -0.4064
  371MOL0     C48904  10.263   4.345  10.788 -0.3749  0.1487  0.2669
  371MOL0     C48905  10.108   5.057  10.208 -0.0935  0.0348  1.0704
  371MOL0     C48906  10.017   5.140  10.146 -0.0196 -0.4393  0.5028
  371MOL0     H48907   9.605   5.458  10.111  0.4026 -3.0016 -1.8806
  371MOL0     H48908   9.498   5.644   9.966 -0.2435 -1.8944  0.5585
  371MOL0     H48909   9.717   5.733   9.618 -0.2552  0.4671 -1.5702
  371MOL0     H48910   9.658   5.896   9.634 -0.0045 -0.0646 -1.9819
  371MOL0     H48911   9.474   5.778   9.512  2.3383  0.8724 -0.5102
  371MOL0     H48912   9.429   5.737   9.679 -1.9140 -2.1311 -0.7542
  371MOL0     H48913   9.536   5.519   9.660  1.3572 -0.1046  1.0230
  371MOL0     H48914   9.586   5.548   9.487 -1.0963  2.3977 -1.0569
  371MOL0     H48915   9.311   5.510   9.597 -1.5106  0.6993 -0.9268
  371MOL0     H48916   9.334   5.604   9.454 -0.3556 -0.9610  0.0541
  371MOL0     H48917   9.443   5.322   9.491  4.8347  0.2545 -1.8417
  371MOL0     H48918   9.441   5.414   9.335 -4.5472  0.7216 -2.4609
  371MOL0     H48919   9.257   5.300   9.304 -3.2177 -0.0672  0.2561
  371MOL0     H48920   9.175   5.432   9.399 -0.1136  0.5007  0.5352
  371MOL0     H48921   9.263   5.172   9.544  2.2907  2.4741  1.5460
  371MOL0     H48922   9.205   5.320   9.605  1.0855  4.8010 -2.5120
  371MOL0     H48923   9.047   5.116   9.545 -5.8077  0.3634  0.3801
  371MOL0     H48924   9.046   5.188   9.380 -1.3459 -2.2690 -0.5261
  371MOL0     H48925   8.951   5.464   9.386 -0.5605  0.7135  1.1010
  371MOL0     H48926   8.756   5.674   9.502  0.8322 -0.8470  1.3474
  371MOL0     H48927   8.685   5.619   9.648  1.0509 -0.0878  1.4119
  371MOL0     H48928   8.539   5.472   9.520  0.0610  0.9882  0.7322
  371MOL0     H48929   8.613   5.545   9.365  0.6087 -1.0818 -0.2146
  371MOL0     H48930   8.463   5.695   9.593  1.1334  1.7144 -0.9277
  371MOL0     H48931   8.539   5.767   9.456  1.1451 -0.7905 -1.7096
  371MOL0     H48932   8.292   5.584   9.467  2.1357 -1.4479  0.9882
  371MOL0     H48933   8.374   5.626   9.311  1.6052 -0.1957 -0.3805
  371MOL0     H48934   8.152   5.597   9.231 -1.1333 -1.5030  2.0895
  371MOL0     H48935   7.938   5.629   9.154  1.5663 -0.2110  1.0406
  371MOL0     H48936   7.429   5.784   9.378 -1.6672 -3.6087 -2.7182
  371MOL0     H48937   7.225   5.812   9.286  0.5481  0.0356  3.3757
  371MOL0     H48938   7.217   6.013   8.905  1.0377  4.1523 -0.9819
  371MOL0     H48939   7.165   6.165   8.976 -0.4730  0.0750 -2.5248
  371MOL0     H48940   7.007   5.924   8.903  0.2932  0.0578  1.3159
  371MOL0     H48941   7.021   6.076   8.804  0.6533 -0.6814 -0.4198
  371MOL0     H48942   6.917   6.207   8.984  3.0587 -1.3997 -0.4723
  371MOL0     H48943   6.901   6.062   9.083 -1.9287  2.0915  1.3061
  371MOL0     H48944   6.770   6.080   8.807  1.8096 -1.5054 -1.3282
  371MOL0     H48945   6.735   5.964   8.925 -1.4399  0.2217 -0.5300
  371MOL0     H48946   6.635   6.135   9.084  0.2252 -2.6301 -0.2145
  371MOL0     H48947   6.540   6.097   8.948  0.0748 -0.1992 -1.0786
  371MOL0     H48948   6.702   6.344   8.986 -2.3762  3.7593  0.0512
  371MOL0     H48949   6.528   6.335   8.973  0.1444  0.2293 -0.0101
  371MOL0     H48950   6.725   6.308   8.745 -1.5412  3.3211 -1.4666
  371MOL0     H48951   6.571   6.226   8.741 -0.5124 -0.7385 -0.0644
  371MOL0     H48952   6.451   6.428   8.751 -0.4621  1.8108 -3.4292
  371MOL0     H48953   6.564   6.433   8.619  0.6971 -2.3376 -0.4676
  371MOL0     H48954   7.397   6.131   9.031 -0.7043 -1.8591 -1.1900
  371MOL0     H48955   7.605   6.086   9.130 -0.9486 -2.2712 -4.8425
  371MOL0     H48956   7.884   5.978   9.400 -1.0506 -1.7060  0.6763
  371MOL0     H48957   8.115   5.981   9.429  0.7719 -0.8966  0.3661
  371MOL0     H48958   9.877   5.677   9.760  0.5024  0.8395  0.3512
  371MOL0     H48959   9.972   5.501   9.888  0.6429 -0.2675 -0.6045
  371MOL0     H48960   9.736   5.072  10.326  1.0967  0.6656  0.8521
  371MOL0     H48961   9.914   4.907  10.441  1.1662 -0.5695 -0.1692
  371MOL0     H48962  10.060   4.719  10.390  0.8605  0.8685  0.1825
  371MOL0     H48963  10.084   4.810  10.539  0.1404 -1.6099  0.9710
  371MOL0     H48964  10.312   4.706  10.375  2.4523 -0.3717  2.2953
  371MOL0     H48965  10.320   4.801  10.525 -1.0647 -0.1556  3.8118
  371MOL0     H48966  10.302   4.514  10.477  0.4296 -1.0498  1.1333
  371MOL0     H48967  10.155   4.567  10.562  0.2924  3.4910  2.1482
  371MOL0     H48968  10.441   4.582  10.666 -0.2814 -1.0222  0.1233
  371MOL0     H48969  10.299   4.658  10.748 -2.1599  0.2706 -0.4851
  371MOL0     H48970  10.240   4.247  10.822  1.8388 -0.1975  0.9594
  371MOL0     H48971  10.207   5.045  10.166 -0.6549 -0.4240 -0.1616
  371MOL0     H48972  10.055   5.196  10.061 -0.6911 -3.0584 -1.6969
  372MOL0     O48973   6.507   5.557   7.367 -1.0973 -0.4000 -0.1883
  372MOL0     C48974   6.619   5.601   7.350 -0.5034  0.0693  0.5066
  372MOL0     O48975   6.665   5.685   7.257  0.3963  0.3666 -0.2963
  372MOL0     C48976   6.566   5.749   7.186  0.3445  0.0545 -0.1256
  372MOL0     C48977   6.549   5.881   7.198  0.7048  0.3408  0.4480
  372MOL0     C48978   6.463   5.950   7.115  0.0111  0.0221 -0.0003
  372MOL0     C48979   6.396   5.895   7.008  1.0178 -0.1862 -0.1367
  372MOL0     O48980   6.335   5.962   6.905  0.1510 -0.5025  0.2380
  372MOL0     C48981   6.272   6.093   6.924 -0.2399 -0.0016  1.1411
  372MOL0     C48982   6.357   6.198   6.846 -0.5009 -1.7207 -0.7338
  372MOL0     C48983   6.501   6.214   6.918 -0.4627 -0.1405 -0.3467
  372MOL0     C48984   6.589   6.316   6.846 -0.3356 -0.0552  0.5138
  372MOL0     C48985   6.719   6.355   6.919  0.7201 -0.0280  0.1084
  372MOL0     C48986   6.809   6.231   6.946 -0.0283  0.0122  0.8038
  372MOL0     C48987   6.940   6.282   7.013  0.4254  0.1791  0.3617
  372MOL0     C48988   6.900   6.323   7.151 -0.0466 -0.7916  0.3198
  372MOL0     N48989   7.016   6.343   7.238  0.6096 -0.6120 -0.6115
  372MOL0     C48990   7.083   6.466   7.264 -0.2445 -0.0684 -0.5749
  372MOL0     C48991   7.153   6.445   7.373  0.6958 -0.2624 -0.3175
  372MOL0     C48992   7.230   6.550   7.444  0.7024 -0.4010 -0.3916
  372MOL0     C48993   7.353   6.501   7.515 -0.2075 -0.1581 -0.4757
  372MOL0     C48994   7.342   6.446   7.663  0.6902  0.9043 -0.2813
  372MOL0     C48995   7.281   6.546   7.763  0.0250  0.7920 -0.5039
  372MOL0     O48996   7.251   6.469   7.880  0.6988 -0.3152 -0.1107
  372MOL0     C48997   7.207   6.539   7.989  0.4774  0.9533 -0.0594
  372MOL0     C48998   7.167   6.459   8.101  0.4681 -0.3620  0.6190
  372MOL0     C48999   7.116   6.517   8.223 -0.6096  0.0396 -0.0334
  372MOL0     C49000   7.103   6.657   8.229 -0.4762  0.1204 -0.0698
  372MOL0     C49001   7.034   6.711   8.348 -0.0637 -0.6075  0.3423
  372MOL0     O49002   7.043   6.847   8.366 -0.0889  0.3349 -0.7691
  372MOL0     C49003   6.996   6.902   8.487  0.2547 -0.1660 -0.8495
  372MOL0     C49004   6.954   7.033   8.489  0.3356  0.1738  0.3802
  372MOL0     C49005   6.901   7.092   8.608 -0.7167  0.0846 -0.1019
  372MOL0     C49006   6.908   7.024   8.734  0.3183 -0.4811  0.6292
  372MOL0     O49007   6.854   7.096   8.836  0.9434  0.1803 -0.7590
  372MOL0     C49008   6.832   7.044   8.965 -1.1128  0.1246 -0.1961
  372MOL0     C49009   6.726   6.934   8.962  0.2887 -0.1835  1.1128
  372MOL0     C49010   6.676   6.899   9.093  0.5860 -0.0886 -0.1003
  372MOL0     C49011   6.788   6.881   9.200 -0.2034  0.5921 -0.8981
  372MOL0     C49012   6.735   6.834   9.345  0.0850 -0.0057 -0.0599
  372MOL0     C49013   6.821   6.872   9.466  1.0827  0.2805  0.0775
  372MOL0     C49014   6.775   6.792   9.590  0.6903  0.6215 -1.0705
  372MOL0     C49015   6.641   6.842   9.644  0.3698 -0.8133 -0.3116
  372MOL0    Cl49016   6.619   6.782   9.811  0.1975  0.3477  0.2651
  372MOL0     C49017   6.953   6.897   8.733 -0.1512 -1.2192 -0.0008
  372MOL0     C49018   7.001   6.837   8.615 -0.1995  0.2268 -0.3535
  372MOL0     O49019   6.980   6.631   8.424 -0.1765 -0.6055 -0.5998
  372MOL0     C49020   7.148   6.736   8.130 -0.2899  1.0267  0.4119
  372MOL0     C49021   7.197   6.678   8.011 -0.3781  0.1495  0.4470
  372MOL0     N49022   7.136   6.308   7.412 -0.3956  0.2581 -0.7465
  372MOL0     N49023   7.060   6.256   7.327  1.1073 -0.1165  0.0567
  372MOL0     C49024   6.413   5.756   6.990 -0.4519  1.0462  0.2456
  372MOL0     C49025   6.497   5.684   7.080 -0.8126 -0.2783 -0.0701
  372MOL0     C49026   6.724   5.544   7.445  1.3853 -0.4078 -0.0299
  372MOL0     C49027   6.686   5.452   7.551 -0.7303  0.1632  0.8248
  372MOL0     C49028   6.794   5.409   7.638 -0.0063  0.6158  0.3131
  372MOL0     C49029   6.927   5.447   7.629  0.4285  0.2864  0.4926
  372MOL0     O49030   7.029   5.389   7.705  0.1951 -0.5612  0.2293
  372MOL0     C49031   7.158   5.366   7.640  0.7176  0.1033 -0.1132
  372MOL0     C49032   7.204   5.227   7.687  0.2885  0.3875 -0.1596
  372MOL0     C49033   7.337   5.185   7.632 -0.9435 -1.1155 -0.5411
  372MOL0     C49034   7.448   5.281   7.673  0.3148  0.6142  0.8065
  372MOL0     C49035   7.581   5.208   7.688  0.7236  0.0965  1.0680
  372MOL0     C49036   7.694   5.170   7.680  0.9672 -0.0291 -0.5761
  372MOL0     C49037   6.955   5.547   7.528  1.1984  0.3966 -0.2307
  372MOL0     C49038   6.856   5.591   7.444  0.3906 -0.3207  0.6080
  372MOL0     H49039   6.602   5.935   7.276  1.5474 -0.3508  0.3715
  372MOL0     H49040   6.461   6.054   7.144 -1.4162 -0.2768  1.0271
  372MOL0     H49041   6.285   6.106   7.032  1.1164 -4.2131  1.6629
  372MOL0     H49042   6.167   6.097   6.894 -0.5495  3.6613  2.2287
  372MOL0     H49043   6.311   6.298   6.845  0.3258 -1.1456  3.4445
  372MOL0     H49044   6.372   6.169   6.741  0.8134 -1.0443 -0.7467
  372MOL0     H49045   6.551   6.117   6.926 -1.6983 -0.6348  2.2483
  372MOL0     H49046   6.477   6.233   7.023 -0.4316  1.1384 -0.5484
  372MOL0     H49047   6.604   6.275   6.746  2.4089  1.1803  0.3128
  372MOL0     H49048   6.535   6.410   6.827 -0.6244  0.3134  2.8699
  372MOL0     H49049   6.690   6.409   7.009  1.0635 -1.3949  1.0804
  372MOL0     H49050   6.781   6.429   6.867  0.6028 -1.1092 -1.6776
  372MOL0     H49051   6.820   6.163   6.861 -0.8406  0.4366  0.3412
  372MOL0     H49052   6.770   6.152   7.011 -1.0478 -3.9855 -4.0496
  372MOL0     H49053   7.017   6.205   7.006  0.6777  0.4755 -0.2237
  372MOL0     H49054   6.979   6.363   6.951 -1.8765  0.0218 -1.4456
  372MOL0     H49055   6.833   6.247   7.194  0.2456 -0.3309  1.6175
  372MOL0     H49056   6.850   6.420   7.142 -1.0132 -1.4055 -1.4565
  372MOL0     H49057   7.082   6.565   7.219 -2.1626  1.9848  3.4597
  372MOL0     H49058   7.167   6.599   7.518 -1.4795 -0.2741 -2.2437
  372MOL0     H49059   7.255   6.629   7.373 -4.0796  0.2552 -1.6809
  372MOL0     H49060   7.421   6.587   7.510 -0.5477  0.0419 -1.9069
  372MOL0     H49061   7.393   6.423   7.449 -0.0280 -0.2415 -0.2707
  372MOL0     H49062   7.271   6.364   7.658  1.5879  0.0479  0.6561
  372MOL0     H49063   7.441   6.412   7.696  0.0040 -0.4409  0.4248
  372MOL0     H49064   7.196   6.598   7.716  0.9947  3.8198  0.8325
  372MOL0     H49065   7.347   6.624   7.802 -2.6915  2.7451  0.5413
  372MOL0     H49066   7.166   6.353   8.074  0.3962 -0.0471 -0.7207
  372MOL0     H49067   7.094   6.451   8.306 -2.7180  2.2202  1.2533
  372MOL0     H49068   6.933   7.085   8.396 -1.4423 -1.3029 -0.1184
  372MOL0     H49069   6.848   7.186   8.597 -0.2048  0.3251 -0.5543
  372MOL0     H49070   6.785   7.120   9.027 -3.1368 -0.9481 -0.3214
  372MOL0     H49071   6.925   7.013   9.013 -1.7649  0.0891  1.0856
  372MOL0     H49072   6.754   6.850   8.898  0.5056  2.3612 -2.4208
  372MOL0     H49073   6.639   6.980   8.915  2.8017  2.5055 -1.2883
  372MOL0     H49074   6.624   6.805   9.072  2.8871 -0.5997 -5.0415
  372MOL0     H49075   6.598   6.961   9.138 -0.4773 -1.4480  0.0108
  372MOL0     H49076   6.855   6.796   9.184 -0.2412 -0.2581  2.6806
  372MOL0     H49077   6.850   6.972   9.202 -2.5388  2.2528  0.3613
  372MOL0     H49078   6.697   6.732   9.341  1.0622 -0.3972  0.3121
  372MOL0     H49079   6.650   6.903   9.351  1.1809  1.4879 -0.9588
  372MOL0     H49080   6.824   6.978   9.492 -3.1475  0.0134  2.7460
  372MOL0     H49081   6.916   6.836   9.427  0.3157 -1.1007 -0.6032
  372MOL0     H49082   6.772   6.684   9.577 -0.4209  0.4657  0.2587
  372MOL0     H49083   6.845   6.798   9.674  1.3463 -2.0287 -1.3605
  372MOL0     H49084   6.562   6.815   9.574  0.2486  1.8343 -1.3142
  372MOL0     H49085   6.654   6.951   9.642  1.6009 -0.9493 -1.6761
  372MOL0     H49086   6.961   6.856   8.833 -1.3403  0.5068  0.8513
  372MOL0     H49087   7.059   6.745   8.625  2.4190  1.6180 -1.6942
  372MOL0     H49088   7.145   6.844   8.127 -1.7692  1.0140  0.6321
  372MOL0     H49089   7.219   6.745   7.928  1.8693 -1.0442  0.0035
  372MOL0     H49090   6.368   5.696   6.912  0.5915  0.5201  0.0301
  372MOL0     H49091   6.514   5.577   7.087 -1.2492 -0.3816 -0.4997
  372MOL0     H49092   6.583   5.421   7.542 -0.1406 -1.3970 -2.2011
  372MOL0     H49093   6.757   5.347   7.719 -0.5788  1.4010  0.6769
  372MOL0     H49094   7.226   5.450   7.658  1.2169  0.3566 -2.6671
  372MOL0     H49095   7.150   5.364   7.530  0.5747  0.0654 -0.1031
  372MOL0     H49096   7.194   5.221   7.796  0.6551  0.8753 -0.0978
  372MOL0     H49097   7.124   5.161   7.652 -0.2927 -0.2739  2.2583
  372MOL0     H49098   7.314   5.181   7.525  0.1305  1.1300 -0.9135
  372MOL0     H49099   7.371   5.087   7.663  0.9577 -0.0350  0.9938
  372MOL0     H49100   7.459   5.363   7.602 -1.7190 -0.1314 -0.4669
  372MOL0     H49101   7.425   5.305   7.777  1.5372  0.1558  1.1990
  372MOL0     H49102   7.790   5.124   7.676  0.3505 -1.2679 -2.5061
  372MOL0     H49103   7.053   5.588   7.504  1.2100 -0.2009 -1.2551
  372MOL0     H49104   6.894   5.667   7.376  1.0250 -1.3466 -0.2259
  373MOL0     O49105  10.276   6.825   8.187 -0.4940  0.3242  0.1542
  373MOL0     C49106  10.390   6.831   8.142  0.0131 -0.4140  1.1805
  373MOL0     O49107  10.441   6.920   8.052  1.3123  0.2657  0.6460
  373MOL0     C49108  10.344   6.967   7.957 -0.0326  0.3848 -0.8757
  373MOL0     C49109  10.267   6.880   7.881 -0.4065  0.4546 -0.0544
  373MOL0     C49110  10.174   6.934   7.782 -0.3893 -0.1748 -0.3028
  373MOL0     C49111  10.161   7.071   7.767  0.8229 -0.3289  0.1483
  373MOL0     O49112  10.074   7.109   7.665  0.3418 -0.1695  0.2325
  373MOL0     C49113  10.026   7.241   7.647 -0.5858 -0.5554  0.6205
  373MOL0     C49114   9.928   7.256   7.533  0.3740 -0.1651 -0.2240
  373MOL0     C49115   9.969   7.184   7.406 -0.3744 -0.0842 -0.5437
  373MOL0     C49116   9.871   7.223   7.294 -0.4034  0.0813  0.5434
  373MOL0     C49117   9.901   7.166   7.163  0.1946  0.1496 -0.0778
  373MOL0     C49118   9.791   7.215   7.065 -1.3932 -0.7181 -0.2033
  373MOL0     C49119   9.815   7.149   6.933 -0.4184  0.4008 -0.3688
  373MOL0     C49120   9.906   7.230   6.838 -0.0824  0.0769 -0.3781
  373MOL0     N49121   9.870   7.208   6.699 -0.1369  0.0051  0.7470
  373MOL0     C49122   9.773   7.283   6.628  1.0931  0.1009 -0.8594
  373MOL0     C49123   9.761   7.229   6.507 -0.4494 -0.0623 -0.2318
  373MOL0     C49124   9.669   7.284   6.393 -0.8515  0.9121  0.4020
  373MOL0     C49125   9.527   7.291   6.451 -0.5538  0.1402 -0.0443
  373MOL0     C49126   9.414   7.334   6.358 -0.6597  0.4988  0.1283
  373MOL0     C49127   9.398   7.232   6.246  0.0929  1.8915 -0.7245
  373MOL0     O49128   9.260   7.249   6.186 -0.0783 -0.8339  0.1285
  373MOL0     C49129   9.241   7.322   6.071  0.5640  0.2168 -0.0007
  373MOL0     C49130   9.320   7.432   6.024  0.4260 -0.0410 -0.2496
  373MOL0     C49131   9.284   7.502   5.906  0.0983 -0.9574 -0.2405
  373MOL0     C49132   9.163   7.470   5.844  0.4128 -0.1816 -0.3551
  373MOL0     C49133   9.118   7.558   5.740 -0.9041 -0.4370 -0.3886
  373MOL0     O49134   9.223   7.614   5.659  0.2031 -1.3214  0.2304
  373MOL0     C49135   9.172   7.721   5.582 -0.5295 -0.4733  0.3742
  373MOL0     C49136   9.103   7.695   5.463 -0.4388  0.6291  0.4334
  373MOL0     C49137   9.042   7.801   5.398 -0.2908  0.3339 -0.0904
  373MOL0     C49138   9.063   7.930   5.445  0.2943 -0.6124 -0.0559
  373MOL0     O49139   8.997   8.036   5.395  0.3096 -0.9855 -0.1367
  373MOL0     C49140   8.851   8.033   5.405 -0.2391  0.3958  0.2228
  373MOL0     C49141   8.790   8.174   5.422  0.4117 -0.2438 -0.9217
  373MOL0     C49142   8.850   8.279   5.326  0.4786 -0.1487 -0.5715
  373MOL0     C49143   8.774   8.415   5.333 -0.4335 -0.7588 -0.7067
  373MOL0     C49144   8.825   8.507   5.220  0.1900 -0.6186 -0.1550
  373MOL0     C49145   8.786   8.459   5.082  0.9374  0.0709 -0.3501
  373MOL0     C49146   8.640   8.408   5.072  0.4260 -0.4592  0.8198
  373MOL0     C49147   8.522   8.508   5.111  0.3692 -0.9559 -0.1974
  373MOL0    Cl49148   8.549   8.669   5.034  0.2321  0.3020  0.1983
  373MOL0     C49149   9.142   7.960   5.560  0.5196 -0.5822 -0.4402
  373MOL0     C49150   9.192   7.852   5.630  0.2147  0.0597  0.2874
  373MOL0     O49151   9.001   7.575   5.719  0.5831 -0.7127  0.4278
  373MOL0     C49152   9.090   7.354   5.884  1.2129 -0.9281  0.0735
  373MOL0     C49153   9.132   7.287   5.996  0.1845 -0.4426 -0.6132
  373MOL0     N49154   9.849   7.124   6.503 -0.1908  0.3544 -0.6436
  373MOL0     N49155   9.912   7.109   6.619  0.3739 -0.2964  0.1530
  373MOL0     C49156  10.252   7.158   7.842  0.7365  0.8275 -0.7648
  373MOL0     C49157  10.333   7.104   7.943  0.1516 -0.0686  0.5140
  373MOL0     C49158  10.487   6.755   8.218 -0.2958  1.3736 -0.2691
  373MOL0     C49159  10.459   6.715   8.356 -0.6307  0.3002  0.0713
  373MOL0     C49160  10.546   6.627   8.425 -0.5169 -0.1870  0.0448
  373MOL0     C49161  10.672   6.582   8.365  0.7651 -0.2491  1.2010
  373MOL0     O49162  10.746   6.485   8.427 -0.4611  0.2279 -0.1318
  373MOL0     C49163  10.857   6.423   8.358  0.7635 -0.1124  1.1707
  373MOL0     C49164  10.905   6.297   8.426  0.0279 -0.7000  0.9595
  373MOL0     C49165  10.949   6.304   8.577  1.1584  0.5824 -0.1276
  373MOL0     C49166  11.020   6.171   8.624 -0.4897 -0.3848 -0.3658
  373MOL0     C49167  11.062   6.182   8.758 -0.8656 -0.1390  0.0495
  373MOL0     C49168  11.112   6.188   8.867  0.0834 -0.0619  0.0340
  373MOL0     C49169  10.707   6.639   8.240 -0.3666  0.4529  0.0868
  373MOL0     C49170  10.615   6.716   8.164  0.1068  0.0195  0.1794
  373MOL0     H49171  10.265   6.773   7.900  2.3134 -0.0537 -2.1443
  373MOL0     H49172  10.122   6.876   7.706 -2.5163  0.1252  0.8437
  373MOL0     H49173  10.107   7.305   7.610  0.2061 -1.4215  0.8459
  373MOL0     H49174   9.980   7.278   7.739  0.9117 -2.4586  2.2231
  373MOL0     H49175   9.898   7.357   7.505  0.0827  1.3251  4.5227
  373MOL0     H49176   9.836   7.210   7.570 -0.6751  1.3551 -0.8391
  373MOL0     H49177   9.967   7.079   7.434 -0.6649  0.3341  1.1229
  373MOL0     H49178  10.070   7.216   7.379 -1.0651  0.2570 -2.9616
  373MOL0     H49179   9.770   7.189   7.321 -1.4106  0.9158 -1.9142
  373MOL0     H49180   9.867   7.332   7.287 -3.5189 -0.0387 -1.5263
  373MOL0     H49181   9.902   7.057   7.170  0.0429  0.1947  0.6914
  373MOL0     H49182   9.998   7.202   7.127  1.3881 -1.3133  1.4837
  373MOL0     H49183   9.799   7.322   7.045  4.4360 -1.1727 -2.1358
  373MOL0     H49184   9.694   7.178   7.101 -1.6478  1.3050  1.3588
  373MOL0     H49185   9.856   7.048   6.939  3.7782  1.9391 -0.2752
  373MOL0     H49186   9.720   7.142   6.877 -1.6521 -3.4144  1.8125
  373MOL0     H49187  10.008   7.199   6.863 -0.4926 -0.7179  0.3386
  373MOL0     H49188   9.892   7.336   6.861 -1.2398 -0.0977 -0.1927
  373MOL0     H49189   9.716   7.368   6.664  0.7577  0.1333 -1.4524
  373MOL0     H49190   9.673   7.227   6.300  0.5870  2.8415 -0.7743
  373MOL0     H49191   9.717   7.377   6.362 -0.6146  0.3397 -1.0128
  373MOL0     H49192   9.524   7.363   6.533  1.4716  2.1967 -1.6384
  373MOL0     H49193   9.515   7.191   6.493  1.3680 -0.4127 -0.7017
  373MOL0     H49194   9.323   7.332   6.419 -1.4260 -0.1636 -1.0119
  373MOL0     H49195   9.410   7.432   6.309 -2.2686  1.7469  2.5609
  373MOL0     H49196   9.400   7.127   6.277 -3.4512  0.5315 -4.2822
  373MOL0     H49197   9.480   7.238   6.173  2.0060 -1.6073  0.8629
  373MOL0     H49198   9.410   7.471   6.069  0.4719 -0.7274  0.2737
  373MOL0     H49199   9.344   7.586   5.873 -0.9862  2.2381  4.7806
  373MOL0     H49200   9.090   7.595   5.424 -1.1465  0.8115  0.1910
  373MOL0     H49201   8.980   7.790   5.310  0.0072 -1.8961 -0.0633
  373MOL0     H49202   8.818   7.954   5.474 -0.2738  0.4724  0.2962
  373MOL0     H49203   8.817   8.005   5.305  1.9898 -2.6575  0.1813
  373MOL0     H49204   8.809   8.214   5.522 -0.3791  0.5233 -1.0667
  373MOL0     H49205   8.683   8.182   5.402  0.4267  1.8936 -0.4785
  373MOL0     H49206   8.845   8.237   5.225  1.1639  1.3433 -1.2575
  373MOL0     H49207   8.954   8.297   5.355  0.3063 -2.4315  1.8933
  373MOL0     H49208   8.666   8.409   5.346 -0.4122  0.0698 -0.0235
  373MOL0     H49209   8.812   8.453   5.428 -2.0690  1.0994 -0.7443
  373MOL0     H49210   8.934   8.501   5.222  0.2302 -0.8061 -1.4613
  373MOL0     H49211   8.795   8.611   5.233  0.1350 -0.4883 -1.1783
  373MOL0     H49212   8.854   8.380   5.049  1.0106  0.0688 -0.1905
  373MOL0     H49213   8.805   8.543   5.014  4.6129  0.0679  0.4775
  373MOL0     H49214   8.624   8.376   4.969  1.7397  1.8448 -0.1707
  373MOL0     H49215   8.634   8.319   5.136 -0.2012 -3.3161 -2.8768
  373MOL0     H49216   8.534   8.541   5.215  1.6721  2.5550 -1.3273
  373MOL0     H49217   8.420   8.483   5.082  0.2219  0.1000 -0.6410
  373MOL0     H49218   9.144   8.062   5.597 -0.3459 -0.7427  0.0637
  373MOL0     H49219   9.260   7.859   5.715 -0.9119  3.0200  1.0491
  373MOL0     H49220   8.998   7.332   5.830  2.7620  0.4418 -3.4567
  373MOL0     H49221   9.063   7.209   6.025 -2.6522  1.0669 -2.8071
  373MOL0     H49222  10.247   7.264   7.819  1.1076  1.0212  0.0254
  373MOL0     H49223  10.381   7.175   8.010 -2.1813  1.1325  1.0224
  373MOL0     H49224  10.364   6.736   8.405 -0.0002  0.1434  1.4032
  373MOL0     H49225  10.516   6.571   8.512 -0.3378 -1.0552 -0.4394
  373MOL0     H49226  10.936   6.499   8.351 -0.5006  1.0517 -2.1127
  373MOL0     H49227  10.823   6.400   8.257  0.2412 -2.0661  1.7401
  373MOL0     H49228  10.828   6.219   8.425  3.4624 -4.4029  1.8391
  373MOL0     H49229  10.999   6.266   8.380  2.5283  1.6681  4.0332
  373MOL0     H49230  10.864   6.328   8.641  1.2121  1.1834 -0.2773
  373MOL0     H49231  11.016   6.390   8.583  1.0784  0.5840  0.8593
  373MOL0     H49232  10.949   6.087   8.618 -0.4313 -0.5722  1.2717
  373MOL0     H49233  11.109   6.158   8.562 -1.0502  0.9159 -1.4946
  373MOL0     H49234  11.165   6.181   8.960 -0.9126  0.1488  0.6354
  373MOL0     H49235  10.806   6.617   8.202 -0.0913 -0.4529  1.2881
  373MOL0     H49236  10.657   6.754   8.071  1.8287  2.2737  1.7383
  374MOL0     O49237   3.772   4.526   6.696  0.1043  0.1713 -1.1576
  374MOL0     C49238   3.836   4.591   6.781  0.2047  0.5815  0.5570
  374MOL0     O49239   3.938   4.671   6.754  0.3761  0.1212 -0.4449
  374MOL0     C49240   3.970   4.699   6.633  0.4546  0.9998  0.5019
  374MOL0     C49241   3.953   4.827   6.580  0.2801 -0.8277  0.9691
  374MOL0     C49242   3.988   4.854   6.442  0.9032 -0.0135 -0.7122
  374MOL0     C49243   4.062   4.760   6.368 -0.3400 -1.3181  0.2698
  374MOL0     O49244   4.102   4.785   6.238 -0.1681 -0.3781  0.3826
  374MOL0     C49245   4.145   4.921   6.223  0.6143  0.7798 -0.8027
  374MOL0     C49246   4.216   4.915   6.085  0.2315  0.4793  0.0851
  374MOL0     C49247   4.192   5.053   6.011  0.4752  0.1956 -0.8716
  374MOL0     C49248   4.299   5.089   5.908  0.8718  0.4934  0.1226
  374MOL0     C49249   4.261   5.225   5.844  0.1896  0.4495 -0.0139
  374MOL0     C49250   4.213   5.331   5.941 -0.8238 -0.1787  0.4805
  374MOL0     C49251   4.214   5.474   5.871  0.5168  0.5097  0.6523
  374MOL0     C49252   4.144   5.577   5.949 -0.1204 -1.1097  0.5829
  374MOL0     N49253   3.995   5.573   5.918  0.6481  0.2295  0.0768
  374MOL0     C49254   3.940   5.629   5.806  0.1328 -0.7927 -1.9524
  374MOL0     C49255   3.809   5.637   5.835 -0.0770 -1.0540  0.1212
  374MOL0     C49256   3.705   5.706   5.751 -0.0459  0.2545 -0.0124
  374MOL0     C49257   3.709   5.688   5.601 -0.5156  0.4267  1.1100
  374MOL0     C49258   3.663   5.825   5.538 -1.4686 -0.1264 -0.5001
  374MOL0     C49259   3.634   5.810   5.387 -0.2785 -0.7955 -0.5381
  374MOL0     O49260   3.510   5.745   5.377 -0.0431  1.2180  0.2116
  374MOL0     C49261   3.450   5.723   5.259  0.6301 -0.1636  0.3180
  374MOL0     C49262   3.408   5.600   5.238 -0.3643  0.3710  0.0507
  374MOL0     C49263   3.342   5.561   5.121 -0.2361 -0.1875 -0.5279
  374MOL0     C49264   3.311   5.658   5.028  0.5872 -0.1753  0.6168
  374MOL0     C49265   3.243   5.624   4.899  0.2723  0.0330 -0.1275
  374MOL0     O49266   3.180   5.723   4.837 -0.3330 -0.4285 -1.2008
  374MOL0     C49267   3.109   5.699   4.720 -0.1730 -1.1540  0.5632
  374MOL0     C49268   3.170   5.735   4.598 -0.3367  0.8861 -0.0486
  374MOL0     C49269   3.111   5.707   4.472  0.3920  0.4485 -0.8484
  374MOL0     C49270   2.993   5.633   4.470 -0.5601  0.6028 -0.2060
  374MOL0     O49271   2.925   5.597   4.355 -0.1359 -1.0730 -0.6493
  374MOL0     C49272   2.808   5.521   4.355  0.1834 -0.1371 -0.4994
  374MOL0     C49273   2.784   5.463   4.222  0.3940  0.1453  0.5914
  374MOL0     C49274   2.883   5.358   4.174 -0.2059 -0.4542 -0.6504
  374MOL0     C49275   2.864   5.324   4.022  0.0556  0.1969  0.2373
  374MOL0     C49276   2.943   5.208   3.959  0.3607 -0.4459  0.3004
  374MOL0     C49277   2.937   5.198   3.804 -0.5332  0.5610 -0.6104
  374MOL0     C49278   2.805   5.146   3.737 -0.2952 -0.7250  0.1313
  374MOL0     C49279   2.767   5.007   3.770 -0.1405  0.6795  0.0271
  374MOL0    Cl49280   2.593   5.011   3.735  0.0891  0.4102 -0.2009
  374MOL0     C49281   2.926   5.611   4.592  0.4339 -0.4116 -0.3185
  374MOL0     C49282   2.985   5.638   4.712  0.9318  0.8907  0.4976
  374MOL0     O49283   3.282   5.514   4.852  0.3524  0.0370  0.6039
  374MOL0     C49284   3.340   5.795   5.054  0.5874  0.1559  0.0820
  374MOL0     C49285   3.415   5.827   5.162 -0.5202 -0.6884  0.3438
  374MOL0     N49286   3.777   5.565   5.944 -1.1599  0.4743 -0.3542
  374MOL0     N49287   3.895   5.524   6.000  0.0932 -0.3948  0.0525
  374MOL0     C49288   4.086   4.630   6.426  0.9311 -0.5893  0.2713
  374MOL0     C49289   4.026   4.598   6.552  0.0070  0.5152 -1.3139
  374MOL0     C49290   3.797   4.572   6.919  0.4388 -0.6004 -0.5972
  374MOL0     C49291   3.699   4.488   6.969 -0.0397 -0.7927  0.3298
  374MOL0     C49292   3.675   4.472   7.109 -0.2750  0.0352 -0.0826
  374MOL0     C49293   3.728   4.561   7.198 -0.2064 -1.6720  0.0193
  374MOL0     O49294   3.702   4.557   7.336 -0.1109  0.5023  0.2140
  374MOL0     C49295   3.602   4.474   7.392 -0.3199 -0.4518  1.1338
  374MOL0     C49296   3.633   4.461   7.547  0.2814  0.4517 -0.2298
  374MOL0     C49297   3.514   4.411   7.627 -0.0623 -0.6143  0.2688
  374MOL0     C49298   3.507   4.451   7.778  0.1287  1.0795  0.4435
  374MOL0     C49299   3.499   4.586   7.809 -0.3966 -0.0561 -0.6546
  374MOL0     C49300   3.494   4.704   7.849  0.2090  0.8097  0.1644
  374MOL0     C49301   3.823   4.651   7.156 -0.3248 -0.8549 -0.7133
  374MOL0     C49302   3.858   4.655   7.023  0.5373 -0.0694  0.1488
  374MOL0     H49303   3.907   4.907   6.639  0.4890  0.2709 -0.3141
  374MOL0     H49304   3.970   4.948   6.392  1.4409  0.7800  0.5474
  374MOL0     H49305   4.210   4.957   6.304 -4.7274  3.2177  3.0280
  374MOL0     H49306   4.055   4.983   6.218 -1.3455 -1.9415 -1.5405
  374MOL0     H49307   4.194   4.821   6.035  0.8553  1.9016 -3.0724
  374MOL0     H49308   4.325   4.915   6.098  0.1736  0.5238  0.6192
  374MOL0     H49309   4.198   5.126   6.092 -0.4676  0.3489 -0.9241
  374MOL0     H49310   4.089   5.059   5.975 -0.5777 -2.2743  1.3842
  374MOL0     H49311   4.400   5.105   5.945  0.4999 -0.4522  1.6293
  374MOL0     H49312   4.300   5.018   5.824  2.3875 -0.4597  0.9171
  374MOL0     H49313   4.179   5.213   5.773 -2.2166 -0.5693  2.7032
  374MOL0     H49314   4.341   5.256   5.777 -0.3320  0.6810 -0.5372
  374MOL0     H49315   4.284   5.329   6.024  2.0646 -0.8794 -1.8417
  374MOL0     H49316   4.106   5.316   5.960 -1.0086 -2.0498 -1.6278
  374MOL0     H49317   4.316   5.506   5.849 -0.2650  0.7360 -3.2818
  374MOL0     H49318   4.187   5.463   5.766  5.4857 -1.7721 -0.6926
  374MOL0     H49319   4.195   5.671   5.929  1.2178 -2.1766 -1.2810
  374MOL0     H49320   4.155   5.543   6.053 -1.0825 -0.1736  1.0196
  374MOL0     H49321   3.993   5.669   5.721  0.4759 -1.7940 -2.2210
  374MOL0     H49322   3.706   5.815   5.762  0.1739  0.3788 -1.1186
  374MOL0     H49323   3.601   5.688   5.782 -0.5826 -0.4798 -2.0574
  374MOL0     H49324   3.622   5.629   5.572 -0.6191  1.2111 -0.2562
  374MOL0     H49325   3.809   5.650   5.576 -0.2886  0.0397  2.5140
  374MOL0     H49326   3.581   5.871   5.594  2.1964  3.9413  2.1441
  374MOL0     H49327   3.742   5.898   5.552 -1.6216  0.3517 -1.9106
  374MOL0     H49328   3.715   5.757   5.336  0.4780 -0.3585  0.1905
  374MOL0     H49329   3.633   5.910   5.343  1.3751  0.3845  1.9175
  374MOL0     H49330   3.438   5.522   5.308  0.4646 -1.4710 -2.2254
  374MOL0     H49331   3.334   5.454   5.106  0.3729 -0.1698 -1.0280
  374MOL0     H49332   3.264   5.789   4.600  1.6067 -2.1850 -1.7403
  374MOL0     H49333   3.153   5.738   4.377  1.5492 -2.7145 -1.4933
  374MOL0     H49334   2.719   5.583   4.366 -0.1668 -0.6992 -0.0517
  374MOL0     H49335   2.802   5.451   4.439 -0.8286  1.7040  1.0271
  374MOL0     H49336   2.801   5.551   4.159  4.9493 -0.4578  0.6714
  374MOL0     H49337   2.681   5.427   4.213  1.0266 -1.2376 -2.7798
  374MOL0     H49338   2.867   5.267   4.232  1.1529  0.4903  1.3338
  374MOL0     H49339   2.988   5.388   4.189 -0.6547  0.5667  0.5958
  374MOL0     H49340   2.757   5.316   3.999  0.0552 -0.9105  0.5608
  374MOL0     H49341   2.881   5.412   3.959 -1.5871  0.0444 -0.4604
  374MOL0     H49342   2.889   5.124   4.003 -2.3241  1.6489  1.2895
  374MOL0     H49343   3.045   5.210   3.998  0.6980  1.9985 -0.5081
  374MOL0     H49344   3.014   5.130   3.769  2.5099  2.6892  1.4904
  374MOL0     H49345   2.949   5.293   3.751  4.8095 -1.2583 -3.4082
  374MOL0     H49346   2.726   5.220   3.753 -0.3311 -0.7405  0.0274
  374MOL0     H49347   2.817   5.153   3.629 -1.1882  0.0250  0.0705
  374MOL0     H49348   2.781   5.004   3.879  1.5502  3.3459 -0.0334
  374MOL0     H49349   2.824   4.931   3.717 -2.0585 -0.1716 -0.9323
  374MOL0     H49350   2.826   5.575   4.614  0.5015  0.5790  1.8972
  374MOL0     H49351   2.935   5.619   4.807 -0.5200  1.4625 -0.1143
  374MOL0     H49352   3.323   5.862   4.970 -0.9403 -0.7214 -0.3426
  374MOL0     H49353   3.442   5.929   5.185 -1.5189 -0.2662 -0.3090
  374MOL0     H49354   4.134   4.545   6.379  0.9875 -0.6162  0.3779
  374MOL0     H49355   4.032   4.497   6.594 -2.0301  0.8505 -0.0793
  374MOL0     H49356   3.636   4.439   6.895 -3.2522  1.0561  1.6005
  374MOL0     H49357   3.624   4.384   7.147 -0.2127 -0.2243 -0.5900
  374MOL0     H49358   3.611   4.374   7.347  1.0611  0.3303 -0.4273
  374MOL0     H49359   3.502   4.517   7.377  0.0803 -0.1379 -0.8943
  374MOL0     H49360   3.713   4.387   7.559 -2.4838 -3.4244 -3.2863
  374MOL0     H49361   3.655   4.561   7.584  0.4384  1.6375 -3.2661
  374MOL0     H49362   3.513   4.302   7.618 -0.1821 -0.9242  3.2251
  374MOL0     H49363   3.422   4.445   7.577 -0.3757 -2.9815 -0.9007
  374MOL0     H49364   3.412   4.412   7.816  0.5592  1.2694  1.7636
  374MOL0     H49365   3.575   4.398   7.845  1.0538  0.9745 -0.5484
  374MOL0     H49366   3.483   4.807   7.879  1.1703  1.1374 -0.5561
  374MOL0     H49367   3.862   4.719   7.231 -0.5788 -0.5337 -0.8712
  374MOL0     H49368   3.930   4.730   6.991 -1.8023  2.9158  1.4196
  375MOL0     O49369   4.812   4.103   0.505  0.3616 -0.0775  0.7583
  375MOL0     C49370   4.807   4.032   0.606  0.8000  0.7260  0.0418
  375MOL0     O49371   4.728   4.048   0.720  0.8626  1.1996 -0.4951
  375MOL0     C49372   4.637   4.157   0.739  0.2576  0.3358 -0.3734
  375MOL0     C49373   4.601   4.261   0.652 -0.3919 -0.0938 -0.1841
  375MOL0     C49374   4.509   4.357   0.693 -0.2185 -0.0108 -0.5112
  375MOL0     C49375   4.426   4.343   0.808  0.0341 -0.2275  0.3186
  375MOL0     O49376   4.317   4.423   0.840  0.6480  0.6029  0.5594
  375MOL0     C49377   4.344   4.570   0.836  0.2831 -0.4184 -0.6147
  375MOL0     C49378   4.228   4.653   0.766 -1.3640 -0.0570 -0.4024
  375MOL0     C49379   4.113   4.652   0.859  0.5187  0.0337 -0.2134
  375MOL0     C49380   3.994   4.731   0.797 -0.1559  0.3906  0.1476
  375MOL0     C49381   4.019   4.893   0.794  0.3895  0.7132  0.0581
  375MOL0     C49382   4.018   4.957   0.937  0.5256  0.6029  0.5152
  375MOL0     C49383   4.012   5.112   0.937  0.0188 -0.0772 -0.0777
  375MOL0     C49384   4.145   5.169   0.893 -0.4640 -0.1360  0.0309
  375MOL0     N49385   4.155   5.316   0.928 -0.3066  0.4072 -0.4225
  375MOL0     C49386   4.217   5.409   0.837  0.5426 -0.2193  0.0020
  375MOL0     C49387   4.235   5.518   0.915  1.0054  0.4360  0.3343
  375MOL0     C49388   4.299   5.645   0.863  0.6176 -0.4230 -0.6752
  375MOL0     C49389   4.191   5.738   0.801 -1.0741 -0.2647  0.3789
  375MOL0     C49390   4.097   5.801   0.902 -0.0933  0.1068 -0.1587
  375MOL0     C49391   4.160   5.868   1.017 -0.3899  0.2279  0.7045
  375MOL0     O49392   4.234   5.983   0.974 -0.1575 -0.4878 -0.2026
  375MOL0     C49393   4.188   6.110   0.926  0.2342  0.1140 -0.2584
  375MOL0     C49394   4.058   6.159   0.920 -0.5486  0.3523 -0.0827
  375MOL0     C49395   4.031   6.293   0.880  0.1969 -1.1474  0.2155
  375MOL0     C49396   4.135   6.382   0.840  1.0277 -0.2193  0.3305
  375MOL0     C49397   4.106   6.522   0.813  0.4137 -0.2780  0.7337
  375MOL0     O49398   4.199   6.594   0.748  0.0116 -0.8245  0.1072
  375MOL0     C49399   4.191   6.726   0.740 -0.1908 -0.2713 -0.8475
  375MOL0     C49400   4.148   6.787   0.629  0.2291 -0.6838 -0.4395
  375MOL0     C49401   4.151   6.929   0.622  0.3908  0.6135 -0.2408
  375MOL0     C49402   4.211   7.004   0.721 -0.0361 -0.5178  0.1142
  375MOL0     O49403   4.240   7.136   0.702  1.1237 -0.2319  0.2552
  375MOL0     C49404   4.287   7.164   0.565 -0.1890 -0.4295  0.4198
  375MOL0     C49405   4.361   7.301   0.569  0.3747  0.5633 -0.2072
  375MOL0     C49406   4.518   7.274   0.555  0.9152 -0.8776  0.1493
  375MOL0     C49407   4.588   7.414   0.579  0.3033  0.9200 -1.4477
  375MOL0     C49408   4.739   7.401   0.546  0.8610 -0.3042 -0.5326
  375MOL0     C49409   4.816   7.540   0.559  0.8700 -0.1420 -0.1489
  375MOL0     C49410   4.822   7.592   0.710 -0.4879  0.1929  0.2885
  375MOL0     C49411   4.922   7.704   0.715  0.5545 -0.2346  0.5040
  375MOL0    Cl49412   4.937   7.755   0.877 -0.1500  0.7356  0.0958
  375MOL0     C49413   4.239   6.946   0.849  1.3505 -0.1189  0.1728
  375MOL0     C49414   4.221   6.807   0.856 -0.3531 -0.5469  0.3144
  375MOL0     O49415   3.995   6.567   0.846  0.0959 -0.2266  0.4691
  375MOL0     C49416   4.266   6.321   0.840  0.0659  0.0632 -0.5790
  375MOL0     C49417   4.288   6.191   0.874 -0.1615  0.0269  0.0951
  375MOL0     N49418   4.187   5.496   1.039  0.3870 -0.0691  0.3693
  375MOL0     N49419   4.154   5.371   1.053 -0.2871 -0.9331  0.1156
  375MOL0     C49420   4.467   4.244   0.891  1.0099 -0.8242  0.1465
  375MOL0     C49421   4.571   4.157   0.864  0.1271 -0.2552  0.5111
  375MOL0     C49422   4.898   3.908   0.613  0.0193 -0.9181 -0.9588
  375MOL0     C49423   4.894   3.801   0.711 -0.7523  0.0736 -0.2680
  375MOL0     C49424   4.996   3.710   0.728  0.9450 -0.1995 -0.6269
  375MOL0     C49425   5.098   3.703   0.634 -0.2293 -0.8896 -0.1829
  375MOL0     O49426   5.199   3.615   0.627 -0.4060 -0.1091  0.4138
  375MOL0     C49427   5.193   3.517   0.729  1.1654 -0.4520 -1.5486
  375MOL0     C49428   5.320   3.437   0.730  0.2488  0.2237 -0.3303
  375MOL0     C49429   5.379   3.396   0.588  0.1446 -0.2318 -0.1952
  375MOL0     C49430   5.463   3.272   0.595  0.1764 -0.6130  0.3535
  375MOL0     C49431   5.553   3.288   0.481 -0.2134 -0.6761  0.3365
  375MOL0     C49432   5.629   3.302   0.386  0.1131 -0.3267  0.5468
  375MOL0     C49433   5.102   3.804   0.530  0.1272 -0.5143 -0.8817
  375MOL0     C49434   5.007   3.906   0.524 -0.2793 -0.0007 -0.4936
  375MOL0     H49435   4.652   4.288   0.560  1.4794  1.0492  1.0938
  375MOL0     H49436   4.489   4.432   0.617  1.7667  2.2437  1.0492
  375MOL0     H49437   4.445   4.589   0.797  1.0058  2.5802  2.2587
  375MOL0     H49438   4.351   4.589   0.943  2.0820 -2.8557 -0.2073
  375MOL0     H49439   4.204   4.615   0.666 -4.3263  0.9112 -0.1550
  375MOL0     H49440   4.267   4.752   0.738 -1.5751  0.5850  1.4421
  375MOL0     H49441   4.135   4.707   0.951  2.3830  0.4779 -0.8968
  375MOL0     H49442   4.082   4.548   0.876  0.1861  0.1246 -0.2640
  375MOL0     H49443   3.985   4.693   0.695 -0.7340  2.2268 -0.5258
  375MOL0     H49444   3.902   4.710   0.854  2.1072  0.2803  4.1219
  375MOL0     H49445   3.940   4.938   0.733 -0.8181 -1.0326  0.2786
  375MOL0     H49446   4.116   4.914   0.747  0.0260  2.5204  0.0291
  375MOL0     H49447   4.093   4.921   1.008 -0.0850 -2.0102 -0.0594
  375MOL0     H49448   3.921   4.927   0.978 -0.1271  0.2271 -1.1970
  375MOL0     H49449   3.944   5.138   0.856 -1.7128  0.3428  1.4540
  375MOL0     H49450   3.978   5.144   1.036 -0.3883  0.8472 -0.5121
  375MOL0     H49451   4.156   5.159   0.784  0.4113 -2.5954  0.2668
  375MOL0     H49452   4.235   5.123   0.936 -0.1181  0.3345 -0.1805
  375MOL0     H49453   4.246   5.405   0.732 -0.9891  1.7629 -0.5657
  375MOL0     H49454   4.381   5.606   0.802  2.9704  2.2515  0.5629
  375MOL0     H49455   4.349   5.701   0.943  1.5742  0.3447 -1.7906
  375MOL0     H49456   4.135   5.688   0.723  3.7695 -2.9102 -1.8777
  375MOL0     H49457   4.247   5.816   0.748 -2.0337  0.4692  0.4131
  375MOL0     H49458   4.034   5.876   0.853  0.0324 -1.4681 -2.9211
  375MOL0     H49459   4.032   5.725   0.946  0.7007  0.8523  2.5404
  375MOL0     H49460   4.208   5.797   1.085 -3.5972 -3.2924 -0.3271
  375MOL0     H49461   4.078   5.906   1.080 -0.9068 -3.8242  2.8081
  375MOL0     H49462   3.979   6.096   0.958 -1.3118  1.1682 -0.2712
  375MOL0     H49463   3.927   6.323   0.888  1.1092  2.7551 -0.6518
  375MOL0     H49464   4.103   6.732   0.547  2.1109  1.1269 -2.8261
  375MOL0     H49465   4.107   6.980   0.537  1.3201  0.2172 -0.9759
  375MOL0     H49466   4.207   7.160   0.490  0.6879 -3.3819 -0.4655
  375MOL0     H49467   4.358   7.091   0.526 -0.9727  0.5688 -3.3316
  375MOL0     H49468   4.337   7.351   0.664  3.6751 -2.6957  2.6883
  375MOL0     H49469   4.310   7.361   0.493 -2.9080 -1.9371 -0.2178
  375MOL0     H49470   4.544   7.229   0.459  3.2805  1.4376 -0.4051
  375MOL0     H49471   4.553   7.207   0.635 -2.4437 -2.1599  0.7116
  375MOL0     H49472   4.541   7.489   0.516 -0.7076 -0.8494 -2.8927
  375MOL0     H49473   4.584   7.429   0.688 -0.4782 -1.0602 -1.1474
  375MOL0     H49474   4.745   7.368   0.442  3.6922 -3.7208  0.5061
  375MOL0     H49475   4.780   7.318   0.605 -1.4491 -1.3014 -0.2017
  375MOL0     H49476   4.775   7.617   0.492  1.7314  1.7779  1.4079
  375MOL0     H49477   4.918   7.521   0.525  0.3330 -0.7100 -1.4812
  375MOL0     H49478   4.727   7.633   0.748 -1.0280  2.0918 -2.7391
  375MOL0     H49479   4.847   7.508   0.776  1.9311 -0.0791 -0.8844
  375MOL0     H49480   4.880   7.786   0.658 -2.4480 -2.2986 -0.5022
  375MOL0     H49481   5.020   7.682   0.671  0.0969  0.9967 -1.2174
  375MOL0     H49482   4.272   7.000   0.937 -2.8173 -0.1070  1.9865
  375MOL0     H49483   4.229   6.753   0.950 -2.3674 -0.2035  0.7209
  375MOL0     H49484   4.350   6.386   0.822 -1.0120  1.9291  0.8072
  375MOL0     H49485   4.390   6.153   0.868  1.0788  3.2060 -1.4008
  375MOL0     H49486   4.401   4.227   0.976 -1.4837  5.8546  0.0793
  375MOL0     H49487   4.596   4.079   0.936 -0.9320 -0.7782  0.3322
  375MOL0     H49488   4.812   3.796   0.781  0.9545  4.0392  2.3816
  375MOL0     H49489   4.983   3.644   0.813 -0.0301  1.9128  0.9657
  375MOL0     H49490   5.098   3.464   0.724  0.2826  0.7615  0.7462
  375MOL0     H49491   5.183   3.572   0.823  1.2811 -2.7071 -0.1362
  375MOL0     H49492   5.397   3.498   0.779  0.9235 -1.2064  0.4672
  375MOL0     H49493   5.313   3.352   0.798  1.8049  1.6912  1.8365
  375MOL0     H49494   5.440   3.480   0.553 -1.8272  0.5681 -1.9236
  375MOL0     H49495   5.308   3.391   0.505 -0.0037 -0.5341 -0.0507
  375MOL0     H49496   5.518   3.273   0.689  0.7863  0.0807 -0.0047
  375MOL0     H49497   5.394   3.189   0.577  0.2486 -0.8675  1.2176
  375MOL0     H49498   5.686   3.293   0.295  1.2300 -3.7756  1.4393
  375MOL0     H49499   5.188   3.801   0.465  0.1956  0.5105 -0.8538
  375MOL0     H49500   5.014   3.990   0.455 -1.8263 -2.7521 -4.2966
  376MOL0     O49501   9.871   8.384   3.247 -0.1345  0.4864 -0.0790
  376MOL0     C49502   9.846   8.311   3.151  0.9699 -0.3418  0.4807
  376MOL0     O49503   9.781   8.340   3.040 -0.1948  0.6682 -0.7459
  376MOL0     C49504   9.711   8.449   3.025 -0.3340  0.6459 -0.5049
  376MOL0     C49505   9.587   8.458   3.093  0.8104  0.0213 -0.3833
  376MOL0     C49506   9.503   8.564   3.069  0.4649 -0.2524  0.4045
  376MOL0     C49507   9.534   8.668   2.985 -0.1625 -0.6664  0.2501
  376MOL0     O49508   9.453   8.779   2.970 -0.2479  0.1598 -0.5278
  376MOL0     C49509   9.316   8.774   3.023  0.2341 -1.2854  0.7213
  376MOL0     C49510   9.235   8.890   2.951 -0.1068  0.3471  0.6069
  376MOL0     C49511   9.265   9.027   2.999  0.3102  0.2782 -0.0754
  376MOL0     C49512   9.139   9.112   3.003 -0.8333 -0.0403 -0.0588
  376MOL0     C49513   9.054   9.091   3.122  0.4028  0.1348  0.1984
  376MOL0     C49514   8.911   9.143   3.099 -0.5870 -0.4031 -0.3643
  376MOL0     C49515   8.813   9.078   3.193 -0.6041  0.2299  1.0857
  376MOL0     C49516   8.826   9.146   3.331  0.2399  0.2106  0.6005
  376MOL0     N49517   8.745   9.076   3.432 -0.0873  0.3160  0.2538
  376MOL0     C49518   8.683   9.131   3.541  0.0724  0.1318  0.0361
  376MOL0     C49519   8.634   9.023   3.608  0.0973 -0.3056  0.3262
  376MOL0     C49520   8.547   9.029   3.742  0.0688  0.2763  0.7814
  376MOL0     C49521   8.407   9.007   3.710  0.4598  0.4339 -0.4004
  376MOL0     C49522   8.333   9.129   3.649 -0.5101  0.4554  0.5388
  376MOL0     C49523   8.197   9.104   3.606  0.8413  1.1959 -0.5927
  376MOL0     O49524   8.125   9.059   3.723 -0.1572 -1.2037  0.2950
  376MOL0     C49525   7.997   9.002   3.704 -0.1796 -0.8398 -0.5413
  376MOL0     C49526   7.938   9.006   3.578  0.3347 -0.0923  0.2683
  376MOL0     C49527   7.804   8.967   3.555 -0.4613  0.3261 -0.0192
  376MOL0     C49528   7.725   8.917   3.661  0.3351 -0.0937  0.6972
  376MOL0     C49529   7.587   8.901   3.635  0.1560 -0.1390  0.6131
  376MOL0     O49530   7.512   8.900   3.745  0.0024  0.3470  0.3483
  376MOL0     C49531   7.374   8.894   3.746  0.1723  0.3257 -0.2023
  376MOL0     C49532   7.323   8.909   3.873 -0.1441  0.9556  0.3551
  376MOL0     C49533   7.187   8.896   3.885  0.2077  0.3890 -1.0655
  376MOL0     C49534   7.096   8.863   3.782 -0.3747  0.7598 -0.0448
  376MOL0     O49535   6.960   8.824   3.793 -0.4548 -0.5563 -0.9358
  376MOL0     C49536   6.904   8.842   3.928  0.2765 -0.4888  0.4437
  376MOL0     C49537   6.758   8.826   3.921 -0.3709  0.2756 -0.5074
  376MOL0     C49538   6.714   8.718   4.026 -0.0282 -0.4018  0.1575
  376MOL0     C49539   6.763   8.581   3.999 -0.3656 -0.2638  0.1279
  376MOL0     C49540   6.687   8.481   4.087 -0.0954  0.4567 -0.1160
  376MOL0     C49541   6.741   8.336   4.094  0.7141  0.1189 -0.4702
  376MOL0     C49542   6.628   8.239   4.060  0.1404 -0.1740 -1.0110
  376MOL0     C49543   6.692   8.100   4.078  0.1378 -0.5538 -0.0104
  376MOL0    Cl49544   6.818   8.059   3.960 -0.2991  0.2594 -0.2942
  376MOL0     C49545   7.152   8.856   3.658  0.2931  0.1010 -0.0277
  376MOL0     C49546   7.294   8.874   3.635 -0.3450 -0.3036  0.0574
  376MOL0     O49547   7.546   8.911   3.522 -0.5074  0.1625 -0.7622
  376MOL0     C49548   7.782   8.900   3.795  0.8200 -0.1922  0.3250
  376MOL0     C49549   7.922   8.946   3.809  0.4396  0.7729  1.7515
  376MOL0     N49550   8.659   8.909   3.538  0.0163 -0.0872  0.3130
  376MOL0     N49551   8.739   8.938   3.438 -0.1847  0.7314 -0.5136
  376MOL0     C49552   9.666   8.663   2.925 -0.2013 -0.5108  0.2032
  376MOL0     C49553   9.757   8.556   2.939  0.3146  0.3101 -0.4945
  376MOL0     C49554   9.927   8.197   3.140 -0.8811  0.5983 -0.2681
  376MOL0     C49555   9.996   8.150   3.030 -0.1277 -0.8228  0.7344
  376MOL0     C49556  10.065   8.026   3.033  0.7332 -0.0698 -0.0385
  376MOL0     C49557  10.075   7.944   3.143 -0.5235 -1.2649  0.0164
  376MOL0     O49558  10.147   7.825   3.147  0.0894  1.0126 -0.2938
  376MOL0     C49559  10.207   7.764   3.035 -0.7452  0.2235 -0.0874
  376MOL0     C49560  10.234   7.615   3.062 -0.2020  0.3272  0.2639
  376MOL0     C49561  10.340   7.545   2.977  0.5590  0.4380 -1.2956
  376MOL0     C49562  10.302   7.405   2.934 -0.5864  0.4599 -0.5353
  376MOL0     C49563  10.421   7.334   2.871  0.4395 -0.3332 -0.7980
  376MOL0     C49564  10.527   7.272   2.835  0.0149 -0.3106 -0.5789
  376MOL0     C49565  10.025   8.004   3.261  0.9009  0.0440 -0.8444
  376MOL0     C49566   9.951   8.119   3.262 -0.4031 -0.3205 -0.1136
  376MOL0     H49567   9.547   8.379   3.155  2.0034 -0.6011 -0.3627
  376MOL0     H49568   9.401   8.552   3.105  0.3545 -2.6651 -0.4739
  376MOL0     H49569   9.299   8.787   3.130  1.5868  0.2050  0.7924
  376MOL0     H49570   9.261   8.688   2.983 -2.1388  0.2022  0.5341
  376MOL0     H49571   9.131   8.871   2.979 -0.2714  1.1333  0.5534
  376MOL0     H49572   9.256   8.880   2.845  2.4207 -0.8550  1.1381
  376MOL0     H49573   9.346   9.063   2.935  1.6493  3.5570  3.1108
  376MOL0     H49574   9.303   9.020   3.101 -3.7123 -1.5698  1.5026
  376MOL0     H49575   9.167   9.217   3.003 -1.2555  0.0998 -1.8580
  376MOL0     H49576   9.076   9.109   2.914  1.6076  0.1308 -1.8821
  376MOL0     H49577   9.097   9.152   3.202 -1.4149 -1.7870  2.8228
  376MOL0     H49578   9.046   8.983   3.138 -1.5442 -0.0632 -1.6368
  376MOL0     H49579   8.877   9.100   3.005  3.3413 -1.9600 -1.2491
  376MOL0     H49580   8.909   9.252   3.102 -0.1732 -0.4120  1.3757
  376MOL0     H49581   8.720   9.103   3.142  1.6620  3.0575 -2.1034
  376MOL0     H49582   8.850   8.975   3.191 -0.1957  0.3715 -1.2688
  376MOL0     H49583   8.801   9.253   3.329 -0.1129  0.1349  0.8417
  376MOL0     H49584   8.930   9.130   3.360  0.3358 -2.3962 -0.9188
  376MOL0     H49585   8.675   9.234   3.571  1.6082 -0.0041  1.0068
  376MOL0     H49586   8.552   9.127   3.788  1.0006  0.5988  0.0472
  376MOL0     H49587   8.587   8.954   3.810  1.8930 -3.1533 -3.5278
  376MOL0     H49588   8.364   8.976   3.806  3.0863  2.7238  1.6752
  376MOL0     H49589   8.397   8.926   3.637 -1.3192  0.6805 -0.4907
  376MOL0     H49590   8.330   9.220   3.709  3.6150  1.0382  0.2106
  376MOL0     H49591   8.393   9.152   3.560 -2.1875  1.9379 -0.2615
  376MOL0     H49592   8.196   9.013   3.546  1.2988  0.8900 -0.1444
  376MOL0     H49593   8.154   9.186   3.549 -2.0633  1.1605  1.2922
  376MOL0     H49594   7.987   9.061   3.499  0.8476 -2.2319 -0.9821
  376MOL0     H49595   7.759   8.979   3.457 -0.8551 -0.2567  0.0828
  376MOL0     H49596   7.384   8.949   3.954 -2.3430  2.9034  1.1664
  376MOL0     H49597   7.150   8.912   3.986  1.8157 -0.0816 -0.3572
  376MOL0     H49598   6.918   8.945   3.959 -1.6694  0.1759 -0.6803
  376MOL0     H49599   6.949   8.770   3.997  3.2060  1.0318  0.2550
  376MOL0     H49600   6.729   8.784   3.824 -0.1902  3.0143 -1.8496
  376MOL0     H49601   6.700   8.919   3.930 -0.1750  0.5837 -2.1270
  376MOL0     H49602   6.605   8.714   4.017 -0.0098  0.0037 -0.3137
  376MOL0     H49603   6.743   8.759   4.124  3.4002 -0.8437 -0.5299
  376MOL0     H49604   6.747   8.553   3.895 -0.9240 -1.3502  0.4853
  376MOL0     H49605   6.870   8.573   4.023 -0.0193  2.2350 -0.2898
  376MOL0     H49606   6.583   8.466   4.055  0.2275 -0.9400 -0.5665
  376MOL0     H49607   6.676   8.509   4.192 -0.8918 -2.0823  0.5586
  376MOL0     H49608   6.773   8.317   4.197 -3.3299  2.4156  1.4569
  376MOL0     H49609   6.830   8.314   4.035  1.3659 -0.7230  0.7726
  376MOL0     H49610   6.540   8.252   4.124  0.5508  1.9950 -0.8107
  376MOL0     H49611   6.600   8.247   3.955 -4.9915  0.3765  0.1607
  376MOL0     H49612   6.609   8.031   4.066 -0.4486  0.3203 -1.1826
  376MOL0     H49613   6.739   8.099   4.177  3.2087 -0.5358 -1.3419
  376MOL0     H49614   7.085   8.834   3.576 -0.8827  3.6054 -0.1649
  376MOL0     H49615   7.325   8.853   3.533  0.5167 -2.6545  0.7578
  376MOL0     H49616   7.720   8.859   3.874 -1.8683  1.4894 -0.7743
  376MOL0     H49617   7.977   8.939   3.903  2.7687 -2.9783  0.3578
  376MOL0     H49618   9.710   8.744   2.867 -1.1831 -1.0458 -1.3497
  376MOL0     H49619   9.852   8.547   2.886 -0.4640 -1.4239 -1.7055
  376MOL0     H49620   9.990   8.209   2.939  2.2381 -0.3748  0.8074
  376MOL0     H49621  10.109   7.990   2.940  1.3965 -1.4631  0.7922
  376MOL0     H49622  10.298   7.819   3.008  0.4753 -0.8322  1.6957
  376MOL0     H49623  10.139   7.778   2.950 -2.6877 -0.5992  1.2414
  376MOL0     H49624  10.261   7.617   3.168 -1.1102  0.8128  0.4950
  376MOL0     H49625  10.136   7.567   3.051 -0.4110  0.9993 -1.0209
  376MOL0     H49626  10.433   7.541   3.036 -1.0359  0.0417  1.3758
  376MOL0     H49627  10.358   7.609   2.890  0.8504  1.3115 -0.6225
  376MOL0     H49628  10.268   7.350   3.021 -1.9916  1.8359 -0.1831
  376MOL0     H49629  10.213   7.415   2.871 -0.6010  0.4957 -0.5081
  376MOL0     H49630  10.612   7.218   2.797 -2.0007 -3.1165 -1.4190
  376MOL0     H49631  10.042   7.946   3.351  0.8773  1.2229 -0.0516
  376MOL0     H49632   9.911   8.153   3.357  2.3802 -1.5954  1.6727
  377MOL0     O49633   5.108   9.120   5.456  0.0224 -0.5863 -0.2776
  377MOL0     C49634   5.137   9.076   5.344  0.2399  0.0094 -0.0174
  377MOL0     O49635   5.108   8.961   5.290 -0.0525  0.0507 -0.0676
  377MOL0     C49636   5.027   8.864   5.342 -0.1667 -0.1482 -0.4272
  377MOL0     C49637   4.937   8.879   5.453 -0.3834 -0.0404  0.0074
  377MOL0     C49638   4.869   8.766   5.495  0.2834  1.1973  0.3201
  377MOL0     C49639   4.889   8.634   5.441 -0.7234  0.0642  0.3009
  377MOL0     O49640   4.809   8.533   5.492 -0.0791 -0.3474 -0.0479
  377MOL0     C49641   4.785   8.414   5.416 -0.0181 -0.0801 -0.0999
  377MOL0     C49642   4.666   8.346   5.470 -0.0778 -0.5719  0.4964
  377MOL0     C49643   4.687   8.201   5.446  0.2861  0.6159  0.0355
  377MOL0     C49644   4.545   8.139   5.460 -0.3978 -0.4266 -0.0847
  377MOL0     C49645   4.489   8.147   5.608  0.3834  1.1361 -0.1864
  377MOL0     C49646   4.387   8.043   5.647 -1.1851  0.3823  0.2892
  377MOL0     C49647   4.313   8.091   5.768 -0.0302  0.2472 -0.2628
  377MOL0     C49648   4.291   7.969   5.851 -0.3471  0.4287  0.0033
  377MOL0     N49649   4.184   7.878   5.802 -0.7793 -0.2686 -0.2558
  377MOL0     C49650   4.154   7.759   5.861  0.5497  0.9445 -0.9323
  377MOL0     C49651   4.037   7.718   5.805 -0.3420 -0.5158  0.2425
  377MOL0     C49652   3.952   7.592   5.833 -0.7042  0.6479 -0.6111
  377MOL0     C49653   3.965   7.499   5.716  0.0631 -0.7821  0.6561
  377MOL0     C49654   4.091   7.421   5.710 -0.3811  0.5353 -0.7615
  377MOL0     C49655   4.105   7.326   5.598  0.1553  0.4886 -0.5037
  377MOL0     O49656   3.975   7.260   5.563 -0.1625  0.2429 -0.0699
  377MOL0     C49657   3.950   7.133   5.619  0.1097 -0.3568  0.3171
  377MOL0     C49658   3.847   7.063   5.552  0.4768  0.1784  0.8134
  377MOL0     C49659   3.805   6.933   5.599 -0.1955  0.3505 -0.4006
  377MOL0     C49660   3.873   6.878   5.711  0.2499  0.2964 -0.3498
  377MOL0     C49661   3.829   6.746   5.762  0.2812  0.7629  0.4237
  377MOL0     O49662   3.699   6.709   5.734  1.0162 -0.0812  0.9140
  377MOL0     C49663   3.640   6.581   5.748  0.0922  0.5979  0.0663
  377MOL0     C49664   3.708   6.457   5.764  0.3103  0.1084 -0.2221
  377MOL0     C49665   3.633   6.335   5.784  0.0043 -0.0755 -0.3216
  377MOL0     C49666   3.494   6.338   5.760  1.0994  0.2503  0.9802
  377MOL0     O49667   3.415   6.230   5.758 -0.0525 -0.6516 -0.2657
  377MOL0     C49668   3.462   6.098   5.770  0.2397  0.9152 -0.6075
  377MOL0     C49669   3.343   6.001   5.761 -0.1741  0.0721  0.6179
  377MOL0     C49670   3.254   6.012   5.885  0.0725 -0.1004  0.4660
  377MOL0     C49671   3.135   5.924   5.854  0.4845  0.3806 -0.1203
  377MOL0     C49672   3.023   5.951   5.956 -0.2081 -0.2760 -0.6808
  377MOL0     C49673   2.931   5.828   5.959  0.1118  0.6264  0.3631
  377MOL0     C49674   2.873   5.790   5.818  0.1221 -0.1061  1.0786
  377MOL0     C49675   2.770   5.670   5.838 -0.3453 -0.3783 -0.4397
  377MOL0    Cl49676   2.626   5.760   5.896  0.5518  0.2665  0.6351
  377MOL0     C49677   3.434   6.458   5.723 -0.0643 -0.6122  0.3432
  377MOL0     C49678   3.500   6.584   5.722 -0.6414 -0.4652 -0.0032
  377MOL0     O49679   3.900   6.682   5.844  0.1051 -0.0024 -0.0462
  377MOL0     C49680   3.988   6.941   5.766 -0.2494 -0.7949 -0.0596
  377MOL0     C49681   4.018   7.067   5.726  0.0655 -1.0248  0.5745
  377MOL0     N49682   3.999   7.811   5.708  0.5275 -0.8714 -0.2290
  377MOL0     N49683   4.093   7.898   5.701  0.3207  0.7821 -0.2592
  377MOL0     C49684   4.961   8.624   5.319  0.6072  0.2349 -0.2552
  377MOL0     C49685   5.031   8.740   5.273 -1.3490  0.1888 -0.3325
  377MOL0     C49686   5.208   9.166   5.251  0.3142 -0.0109  0.0529
  377MOL0     C49687   5.253   9.290   5.298 -0.2639 -0.6403  0.3558
  377MOL0     C49688   5.331   9.378   5.217  0.8217 -0.4767 -0.3532
  377MOL0     C49689   5.364   9.332   5.080 -0.3615 -0.2924 -0.2773
  377MOL0     O49690   5.427   9.398   4.980 -0.4697 -0.2157 -1.1005
  377MOL0     C49691   5.456   9.541   5.001  0.4681 -0.1940 -0.0615
  377MOL0     C49692   5.594   9.555   5.064 -0.0461  0.0999 -0.2282
  377MOL0     C49693   5.655   9.694   5.070  0.4223 -1.1124  0.5418
  377MOL0     C49694   5.803   9.698   5.100 -0.2956 -0.0190 -0.3844
  377MOL0     C49695   5.829   9.646   5.233  0.9659 -0.3821  0.0634
  377MOL0     C49696   5.861   9.599   5.339 -0.4132  0.2068 -0.0234
  377MOL0     C49697   5.316   9.212   5.043 -0.3575  0.5214  0.7347
  377MOL0     C49698   5.233   9.134   5.121  0.6482  0.3540  1.3677
  377MOL0     H49699   4.913   8.978   5.491  0.3466  0.5619 -1.0694
  377MOL0     H49700   4.808   8.779   5.584 -2.1091  0.1860 -1.0883
  377MOL0     H49701   4.880   8.360   5.430 -0.2455 -0.5739 -0.4262
  377MOL0     H49702   4.751   8.442   5.316 -0.9813  2.0336  0.7685
  377MOL0     H49703   4.586   8.387   5.406  0.6777 -2.3242 -1.7050
  377MOL0     H49704   4.653   8.378   5.574 -1.5966  3.1784 -0.6655
  377MOL0     H49705   4.755   8.156   5.518 -0.7562  2.4120  2.2674
  377MOL0     H49706   4.726   8.177   5.346 -1.1877  0.8866 -0.6336
  377MOL0     H49707   4.473   8.199   5.405  0.5054  2.8440  1.9665
  377MOL0     H49708   4.550   8.038   5.417  0.4367 -0.0271 -0.9613
  377MOL0     H49709   4.453   8.248   5.628 -2.6508  0.1564 -0.1323
  377MOL0     H49710   4.569   8.132   5.682 -2.6076 -0.2431  3.0950
  377MOL0     H49711   4.445   7.950   5.656 -1.5196  0.3195  2.0305
  377MOL0     H49712   4.310   8.035   5.570 -1.3482  0.7917  0.4085
  377MOL0     H49713   4.371   8.172   5.814  3.0377 -2.4916  1.1129
  377MOL0     H49714   4.212   8.128   5.749 -0.5485  1.0736  3.2846
  377MOL0     H49715   4.260   8.004   5.950  2.2992  1.6121  0.4782
  377MOL0     H49716   4.378   7.907   5.874  1.4246  3.4642  2.2002
  377MOL0     H49717   4.186   7.715   5.955 -0.2151 -1.1317 -1.5875
  377MOL0     H49718   3.851   7.633   5.843 -1.2222 -0.3641 -1.5511
  377MOL0     H49719   3.988   7.537   5.921 -1.7400  2.6739  1.1814
  377MOL0     H49720   3.958   7.565   5.630  1.9737  0.9280  1.7264
  377MOL0     H49721   3.883   7.426   5.720 -1.3215  0.7679  3.0452
  377MOL0     H49722   4.171   7.496   5.709 -0.5828  0.7501 -0.9121
  377MOL0     H49723   4.093   7.360   5.801 -1.3867  1.6002  0.0059
  377MOL0     H49724   4.183   7.255   5.625  1.5180  2.2058  0.2715
  377MOL0     H49725   4.129   7.378   5.505 -1.9751 -0.1802 -1.5054
  377MOL0     H49726   3.791   7.122   5.480  1.0298  3.0899  2.6018
  377MOL0     H49727   3.710   6.889   5.573  0.3926 -1.8640  0.9480
  377MOL0     H49728   3.815   6.472   5.774 -0.0556  2.0868  1.2008
  377MOL0     H49729   3.668   6.235   5.807 -3.7352 -1.4820 -0.0645
  377MOL0     H49730   3.506   6.080   5.869 -2.3647  0.0472  0.4943
  377MOL0     H49731   3.528   6.055   5.694 -0.3231 -2.6196  0.6913
  377MOL0     H49732   3.374   5.900   5.732 -0.6097  0.2840 -0.6735
  377MOL0     H49733   3.279   6.028   5.677  1.3692 -0.5167 -0.8047
  377MOL0     H49734   3.223   6.116   5.897  2.6734  1.0888 -1.8793
  377MOL0     H49735   3.302   5.974   5.975 -3.9387  0.6230  3.1260
  377MOL0     H49736   3.096   5.950   5.755  0.2567 -1.5047 -0.5516
  377MOL0     H49737   3.164   5.819   5.857 -1.6962 -0.2501  0.5896
  377MOL0     H49738   2.956   6.034   5.935 -1.2788 -0.9499  0.0035
  377MOL0     H49739   3.070   5.967   6.053  2.7305 -2.1092 -1.6570
  377MOL0     H49740   2.854   5.845   6.035  1.7028 -0.6783  2.3772
  377MOL0     H49741   2.996   5.751   6.002  0.6859  1.6785  1.4484
  377MOL0     H49742   2.828   5.875   5.765  2.6433  0.8219  0.2834
  377MOL0     H49743   2.954   5.764   5.749 -1.1297 -0.7741 -0.1993
  377MOL0     H49744   2.821   5.602   5.906 -1.0183 -1.0251 -0.5679
  377MOL0     H49745   2.753   5.606   5.751 -1.5459  1.0271 -1.3008
  377MOL0     H49746   3.334   6.462   5.682  0.0065  2.4856  0.2470
  377MOL0     H49747   3.452   6.680   5.705  0.9324  0.4214  0.3771
  377MOL0     H49748   4.034   6.899   5.855  2.2375  0.9505 -0.4265
  377MOL0     H49749   4.104   7.106   5.779 -0.1779 -0.1625  0.3427
  377MOL0     H49750   4.976   8.533   5.263  1.8061  0.7633 -0.8458
  377MOL0     H49751   5.094   8.731   5.185  3.9829 -3.4424  3.2225
  377MOL0     H49752   5.223   9.335   5.392 -0.9530  1.8772 -0.9831
  377MOL0     H49753   5.367   9.471   5.261 -0.6025  1.0474 -2.2361
  377MOL0     H49754   5.384   9.595   5.063  1.5923 -0.0312  1.1503
  377MOL0     H49755   5.463   9.588   4.902 -0.4002 -1.6427 -0.8491
  377MOL0     H49756   5.608   9.508   5.161  0.1986 -1.4202 -0.9686
  377MOL0     H49757   5.663   9.499   4.999 -0.4305 -1.5426  0.7369
  377MOL0     H49758   5.597   9.736   5.153 -0.7903 -1.3922 -0.1402
  377MOL0     H49759   5.638   9.760   4.984  0.7785 -0.8161  0.6941
  377MOL0     H49760   5.859   9.648   5.021 -1.0829 -4.9949  1.8210
  377MOL0     H49761   5.833   9.803   5.104  0.0627  0.0226 -3.0201
  377MOL0     H49762   5.883   9.570   5.439  1.6232  0.9893 -0.2046
  377MOL0     H49763   5.331   9.181   4.941  2.0976  2.3861  0.4438
  377MOL0     H49764   5.197   9.040   5.081 -2.1517  0.9717  2.1586
  378MOL0     O49765   6.159   4.356   5.258  0.1274  0.5923 -0.4679
  378MOL0     C49766   6.129   4.249   5.206  0.2204 -0.3745 -0.2962
  378MOL0     O49767   6.007   4.218   5.141  0.2025 -0.2986  0.1212
  378MOL0     C49768   5.918   4.317   5.157 -0.6796 -0.9164 -0.4396
  378MOL0     C49769   5.829   4.311   5.264  0.2243  0.0458  0.2455
  378MOL0     C49770   5.719   4.388   5.276  0.2709 -0.6238  0.9544
  378MOL0     C49771   5.697   4.496   5.187 -0.5036  1.2633  0.7957
  378MOL0     O49772   5.583   4.580   5.180 -0.5272  0.1940 -0.2039
  378MOL0     C49773   5.514   4.601   5.299  0.4579  0.0934  0.0706
  378MOL0     C49774   5.375   4.672   5.275  0.3342  0.3064  1.4032
  378MOL0     C49775   5.283   4.583   5.189  0.2605 -0.1957 -0.0159
  378MOL0     C49776   5.263   4.447   5.257 -0.7359  0.0576 -0.1264
  378MOL0     C49777   5.157   4.364   5.185 -0.3235  0.2641  0.7493
  378MOL0     C49778   5.193   4.337   5.038  0.5648  0.1311  0.0996
  378MOL0     C49779   5.094   4.242   4.977 -0.3346  0.5869 -0.6987
  378MOL0     C49780   5.138   4.201   4.844 -0.1076  0.6903  0.6917
  378MOL0     N49781   5.137   4.303   4.742 -0.5075  0.0048 -0.0225
  378MOL0     C49782   5.033   4.338   4.656  0.9320 -0.6316  0.3884
  378MOL0     C49783   5.065   4.457   4.597 -0.6273  0.3260  0.1847
  378MOL0     C49784   4.996   4.549   4.494  0.0886 -0.0632 -0.3213
  378MOL0     C49785   5.090   4.652   4.434  0.4959  0.2326  0.2437
  378MOL0     C49786   5.032   4.705   4.304 -0.1480 -0.4458  0.3943
  378MOL0     C49787   5.130   4.767   4.201  0.0560 -0.2112 -0.0948
  378MOL0     O49788   5.158   4.899   4.245 -0.0230  0.2317  0.9052
  378MOL0     C49789   5.244   4.960   4.154  0.4862  0.0112 -0.0507
  378MOL0     C49790   5.212   5.080   4.117  0.5724 -1.8020  0.3412
  378MOL0     C49791   5.291   5.163   4.027  0.3930  0.4489 -0.8178
  378MOL0     C49792   5.412   5.118   3.974 -1.6665 -0.4730 -0.1478
  378MOL0     C49793   5.491   5.202   3.875  0.5918  0.1049  1.4681
  378MOL0     O49794   5.605   5.149   3.818 -0.5830 -0.1308  0.2363
  378MOL0     C49795   5.655   5.206   3.706 -0.0085 -0.1221 -0.1723
  378MOL0     C49796   5.784   5.259   3.705  0.1806  0.4286  0.4093
  378MOL0     C49797   5.842   5.331   3.599  0.0023  0.1579  0.0864
  378MOL0     C49798   5.760   5.342   3.485  0.0451 -0.3128  0.1355
  378MOL0     O49799   5.823   5.410   3.383  0.3092 -0.1701  0.5444
  378MOL0     C49800   5.756   5.452   3.263  0.0070 -0.0868  0.2986
  378MOL0     C49801   5.746   5.335   3.166 -0.8131 -0.1469 -0.1751
  378MOL0     C49802   5.882   5.302   3.100  0.0014 -0.4357  0.2607
  378MOL0     C49803   5.902   5.168   3.034 -0.1276 -0.0757 -0.5583
  378MOL0     C49804   6.031   5.151   2.946 -0.1072 -0.0991 -0.2282
  378MOL0     C49805   6.043   5.266   2.845  0.1902 -0.0315 -0.0421
  378MOL0     C49806   6.129   5.231   2.724 -0.2774 -0.5391  0.8255
  378MOL0     C49807   6.283   5.208   2.749 -0.3347 -0.2559 -0.0467
  378MOL0    Cl49808   6.352   5.341   2.832 -0.0061  0.1227 -0.0482
  378MOL0     C49809   5.626   5.295   3.486  0.8139 -0.0047 -0.0394
  378MOL0     C49810   5.577   5.232   3.596 -0.0246  1.1455 -0.3135
  378MOL0     O49811   5.456   5.320   3.857  0.1709  0.2112  0.1662
  378MOL0     C49812   5.446   4.985   4.011 -0.4079 -0.5132 -0.2147
  378MOL0     C49813   5.358   4.907   4.094 -0.4283  0.3160 -0.5453
  378MOL0     N49814   5.197   4.484   4.636 -0.1603  0.3936 -0.2553
  378MOL0     N49815   5.233   4.396   4.725 -0.2013 -0.3543  0.1769
  378MOL0     C49816   5.785   4.509   5.069 -0.2745 -0.8757  0.4379
  378MOL0     C49817   5.892   4.417   5.060  0.4748  0.0020 -0.8426
  378MOL0     C49818   6.214   4.135   5.225  0.2661  0.4017 -0.0242
  378MOL0     C49819   6.355   4.155   5.233 -0.3044  0.2334 -0.6325
  378MOL0     C49820   6.444   4.046   5.249 -0.6617  0.1274  0.0083
  378MOL0     C49821   6.397   3.915   5.241  0.5330 -0.1569  0.2465
  378MOL0     O49822   6.466   3.800   5.238  0.3517  0.2849 -0.1330
  378MOL0     C49823   6.588   3.789   5.156 -0.5870 -0.8015  0.4931
  378MOL0     C49824   6.702   3.766   5.239 -0.6490  0.1141 -0.4066
  378MOL0     C49825   6.841   3.781   5.173 -0.3119  0.6326  0.2554
  378MOL0     C49826   6.955   3.754   5.270  0.3022  0.4193  0.6354
  378MOL0     C49827   7.088   3.724   5.203 -0.2075 -0.1948  0.9896
  378MOL0     C49828   7.198   3.712   5.161 -0.0045 -0.9794 -0.1083
  378MOL0     C49829   6.259   3.888   5.234 -0.1718 -0.1153 -0.5025
  378MOL0     C49830   6.172   3.997   5.223 -0.4221 -0.7044 -0.7253
  378MOL0     H49831   5.840   4.243   5.347 -3.1976 -1.0919 -0.0530
  378MOL0     H49832   5.659   4.370   5.365  2.5719 -0.8577  2.5659
  378MOL0     H49833   5.567   4.677   5.357  0.8988  0.1352 -0.3776
  378MOL0     H49834   5.497   4.512   5.360 -0.1658  0.3782  0.3181
  378MOL0     H49835   5.391   4.764   5.219 -3.5041  0.8467  0.9310
  378MOL0     H49836   5.331   4.705   5.369 -2.2380 -3.4293  1.7437
  378MOL0     H49837   5.332   4.566   5.092 -0.6107 -2.9319 -0.0724
  378MOL0     H49838   5.191   4.636   5.165  0.9741  0.7936 -0.6768
  378MOL0     H49839   5.356   4.393   5.273 -0.7278  0.5524  1.7177
  378MOL0     H49840   5.217   4.465   5.354  0.0967  0.4200  0.2058
  378MOL0     H49841   5.061   4.415   5.177  1.1697  3.0049 -1.7842
  378MOL0     H49842   5.141   4.269   5.236  0.5103 -1.0142 -1.2680
  378MOL0     H49843   5.297   4.307   5.029  0.5188 -0.9745  2.5858
  378MOL0     H49844   5.182   4.435   4.989  1.4052 -0.6606 -1.7881
  378MOL0     H49845   5.081   4.154   5.041 -0.9984  0.5564 -0.8664
  378MOL0     H49846   4.995   4.286   4.965 -0.4691  0.3361 -0.5029
  378MOL0     H49847   5.083   4.110   4.816  0.6707  0.3911  0.1056
  378MOL0     H49848   5.241   4.166   4.855  0.8241  3.1206  0.3681
  378MOL0     H49849   4.936   4.291   4.641  2.4881 -3.0254 -3.8519
  378MOL0     H49850   4.921   4.605   4.550  1.3080  1.2853  0.0268
  378MOL0     H49851   4.939   4.483   4.427 -4.7650 -0.0811  3.2865
  378MOL0     H49852   5.187   4.604   4.422  0.7924  0.7198  0.6574
  378MOL0     H49853   5.126   4.731   4.501  2.4378  1.0557 -1.6729
  378MOL0     H49854   4.997   4.615   4.253 -0.0154 -1.1334  1.4898
  378MOL0     H49855   4.948   4.771   4.329  1.1456  0.1656  3.6776
  378MOL0     H49856   5.101   4.764   4.095 -0.0155 -3.9995 -0.1040
  378MOL0     H49857   5.224   4.710   4.199  0.6038  0.4249 -4.4746
  378MOL0     H49858   5.130   5.121   4.174  1.2945 -1.1176  0.9074
  378MOL0     H49859   5.271   5.269   4.018  4.7316  1.3357 -2.3029
  378MOL0     H49860   5.845   5.255   3.794  1.0066 -1.6215 -0.2097
  378MOL0     H49861   5.940   5.376   3.603 -0.5279  1.3248  0.6739
  378MOL0     H49862   5.813   5.533   3.217  0.9590 -1.4683 -1.0338
  378MOL0     H49863   5.652   5.479   3.282  0.6453  3.4738 -0.4837
  378MOL0     H49864   5.675   5.358   3.086 -1.3910  3.4579  1.1773
  378MOL0     H49865   5.709   5.252   3.226 -0.7665  0.8259  1.2496
  378MOL0     H49866   5.960   5.327   3.172  0.0345  1.2521 -0.3295
  378MOL0     H49867   5.882   5.373   3.017 -0.9829  1.1781  1.5958
  378MOL0     H49868   5.908   5.093   3.114 -1.3053  0.5468  0.1282
  378MOL0     H49869   5.809   5.153   2.978 -0.7054 -0.7440  0.5426
  378MOL0     H49870   6.033   5.059   2.887 -0.4182  1.2279 -2.4253
  378MOL0     H49871   6.122   5.164   3.005 -0.1328 -0.6760 -0.0583
  378MOL0     H49872   6.074   5.363   2.885  0.0246 -0.2992  0.7514
  378MOL0     H49873   5.945   5.276   2.799  1.3788 -1.5164 -3.1396
  378MOL0     H49874   6.092   5.140   2.678 -2.5953  0.9718 -0.5003
  378MOL0     H49875   6.130   5.313   2.652  1.7103 -0.0401  1.3471
  378MOL0     H49876   6.328   5.193   2.651 -0.7597 -0.9615 -0.1427
  378MOL0     H49877   6.289   5.114   2.804 -0.0236 -0.7326 -0.8909
  378MOL0     H49878   5.561   5.310   3.400  3.5304  0.2446 -2.1745
  378MOL0     H49879   5.479   5.187   3.597  0.2171  0.3273 -3.4718
  378MOL0     H49880   5.525   4.927   3.963  1.2754  1.0585  0.5579
  378MOL0     H49881   5.391   4.804   4.107 -0.4004 -0.0096 -2.6965
  378MOL0     H49882   5.772   4.588   4.996 -0.7089  0.2941  1.7393
  378MOL0     H49883   5.967   4.440   4.985  0.2158  2.3939 -0.4611
  378MOL0     H49884   6.390   4.258   5.237  4.2409 -1.0941 -0.5757
  378MOL0     H49885   6.548   4.066   5.276 -0.6130 -2.2792  2.0240
  378MOL0     H49886   6.601   3.879   5.096  1.6508 -3.2435 -3.0704
  378MOL0     H49887   6.591   3.701   5.090  2.3188 -0.0432 -0.5399
  378MOL0     H49888   6.701   3.841   5.318 -1.1205  4.0799 -3.8061
  378MOL0     H49889   6.697   3.664   5.280  2.8103  0.4034  1.0990
  378MOL0     H49890   6.849   3.884   5.136 -2.0169  1.1165  1.1093
  378MOL0     H49891   6.841   3.702   5.098 -3.0861  1.5378 -0.8201
  378MOL0     H49892   6.959   3.829   5.349 -1.0817  0.6013  0.5730
  378MOL0     H49893   6.931   3.662   5.325 -3.2840  1.6939  1.5166
  378MOL0     H49894   7.291   3.695   5.111 -0.6009  0.7708 -1.9055
  378MOL0     H49895   6.230   3.786   5.211  3.7546 -1.1623 -1.5806
  378MOL0     H49896   6.066   3.983   5.204 -0.7087  1.2198 -0.7866
  379MOL0     O49897   3.318   8.344   2.768  0.2992 -0.5997  0.0349
  379MOL0     C49898   3.314   8.227   2.809 -0.3426  0.2337 -0.6349
  379MOL0     O49899   3.222   8.180   2.913 -0.0186 -0.6005  0.7972
  379MOL0     C49900   3.139   8.262   2.981  0.2212 -0.5031  0.7981
  379MOL0     C49901   3.050   8.198   3.070  0.7003 -0.2654  0.5921
  379MOL0     C49902   2.972   8.272   3.155  0.3059  0.1449 -0.2351
  379MOL0     C49903   2.956   8.411   3.152  0.2892  0.2907 -0.5279
  379MOL0     O49904   2.873   8.468   3.242 -0.2389 -0.0172 -0.7120
  379MOL0     C49905   2.807   8.578   3.186  0.1483  0.0863 -0.7014
  379MOL0     C49906   2.680   8.607   3.267 -0.3219 -0.2744  0.3617
  379MOL0     C49907   2.601   8.722   3.194 -0.4042 -0.5325 -0.0308
  379MOL0     C49908   2.460   8.706   3.224 -0.0254  0.7695 -0.5079
  379MOL0     C49909   2.406   8.792   3.339 -0.8719  0.0605 -0.5475
  379MOL0     C49910   2.284   8.732   3.420  0.4232 -0.6743  0.4596
  379MOL0     C49911   2.149   8.741   3.346 -0.1813  0.3859  0.0369
  379MOL0     C49912   2.035   8.733   3.448 -0.7939 -0.7152  0.0631
  379MOL0     N49913   1.996   8.864   3.505 -0.2957 -0.3733  0.5024
  379MOL0     C49914   1.885   8.873   3.589  0.3751 -0.3163  0.4967
  379MOL0     C49915   1.872   9.004   3.614  0.0267 -0.5928 -0.1794
  379MOL0     C49916   1.784   9.077   3.710  0.2632  0.4665 -0.7645
  379MOL0     C49917   1.823   9.015   3.853  0.9336  1.3782 -0.1033
  379MOL0     C49918   1.738   9.065   3.968 -0.4776 -0.7730  1.1504
  379MOL0     C49919   1.612   8.973   3.976  1.0264 -0.0792  0.4514
  379MOL0     O49920   1.504   9.043   4.045  0.9209  0.1787  0.3364
  379MOL0     C49921   1.462   9.172   4.021  0.9432 -0.8861 -0.0578
  379MOL0     C49922   1.459   9.237   3.899  0.0346  0.0895  0.5592
  379MOL0     C49923   1.402   9.363   3.877 -0.2228 -0.1620  0.7747
  379MOL0     C49924   1.333   9.425   3.987 -0.4735  0.5878  0.4668
  379MOL0     C49925   1.274   9.567   3.980  0.0393  0.1994 -0.3377
  379MOL0     O49926   1.211   9.615   4.088  0.1268  0.3273  0.2414
  379MOL0     C49927   1.123   9.718   4.060  0.0093 -0.3578  0.9944
  379MOL0     C49928   1.159   9.846   4.022  0.6685 -0.6500  0.8482
  379MOL0     C49929   1.064   9.944   3.979 -0.5389 -0.1850 -0.8247
  379MOL0     C49930   0.924   9.917   3.987 -0.0757 -0.5679  0.1489
  379MOL0     O49931   0.823  10.001   3.958 -0.2100  0.2980  0.7780
  379MOL0     C49932   0.867  10.132   3.908  0.2597 -0.4435  0.7772
  379MOL0     C49933   0.739  10.202   3.866  0.1508 -0.3657 -0.5718
  379MOL0     C49934   0.766  10.349   3.818  0.2869  0.2471  0.3011
  379MOL0     C49935   0.839  10.417   3.928  0.2280 -0.8627  0.3824
  379MOL0     C49936   0.756  10.446   4.052  0.7468 -0.9672  0.3567
  379MOL0     C49937   0.830  10.539   4.146 -0.2775  0.1053 -0.0581
  379MOL0     C49938   0.980  10.506   4.165 -0.2012 -0.0601  0.4597
  379MOL0     C49939   1.043  10.566   4.287  0.4722 -0.2713  0.4144
  379MOL0    Cl49940   0.975  10.513   4.445  0.2131 -0.2669  0.0823
  379MOL0     C49941   0.897   9.788   4.044  0.5679  0.1415 -0.0209
  379MOL0     C49942   0.991   9.691   4.078 -0.4380 -0.0939 -0.1085
  379MOL0     O49943   1.261   9.606   3.867 -0.3565  0.7867  0.7473
  379MOL0     C49944   1.328   9.360   4.112 -0.3137 -0.0566  0.7112
  379MOL0     C49945   1.393   9.236   4.123 -0.1378 -0.1663 -0.4287
  379MOL0     N49946   1.977   9.066   3.554 -0.2002 -0.1660 -0.0981
  379MOL0     N49947   2.057   8.985   3.489 -0.5789  0.7103  0.0684
  379MOL0     C49948   3.033   8.478   3.058 -0.2652  0.0703 -0.9376
  379MOL0     C49949   3.126   8.414   2.971  0.1103  0.4303 -0.5864
  379MOL0     C49950   3.406   8.135   2.758  0.4466  0.2620  0.5391
  379MOL0     C49951   3.446   8.016   2.829 -0.7655 -0.4996  0.0963
  379MOL0     C49952   3.547   7.937   2.769  0.3375  0.6021 -0.8544
  379MOL0     C49953   3.618   7.974   2.651  0.2213 -0.0747 -0.2849
  379MOL0     O49954   3.732   7.912   2.619 -0.4184  0.2669  0.6655
  379MOL0     C49955   3.756   7.872   2.481 -0.2998 -1.0746 -0.5210
  379MOL0     C49956   3.869   7.772   2.464 -0.3759  0.2222 -0.3575
  379MOL0     C49957   3.885   7.735   2.318 -0.3068  0.0261  0.4918
  379MOL0     C49958   4.024   7.680   2.288  0.2088 -0.3373  0.5779
  379MOL0     C49959   4.074   7.575   2.376 -0.2964  0.5029 -0.0017
  379MOL0     C49960   4.108   7.473   2.433  0.0416  0.0580  0.0892
  379MOL0     C49961   3.567   8.077   2.581  0.1195 -0.0520 -1.0253
  379MOL0     C49962   3.458   8.151   2.631  0.7879 -0.3992 -0.2134
  379MOL0     H49963   3.055   8.089   3.070 -0.7216 -0.3502 -0.2679
  379MOL0     H49964   2.909   8.229   3.232  2.0916  0.7302  1.6444
  379MOL0     H49965   2.774   8.554   3.085  1.2523  2.6077 -1.7317
  379MOL0     H49966   2.880   8.659   3.183  0.0284  0.2428  0.1993
  379MOL0     H49967   2.696   8.649   3.366 -1.4860 -0.9991  0.8676
  379MOL0     H49968   2.628   8.512   3.279  1.0755 -1.0067  0.8559
  379MOL0     H49969   2.601   8.723   3.084 -3.7553  0.2543 -0.1221
  379MOL0     H49970   2.645   8.821   3.214  1.4867 -0.7750 -2.4704
  379MOL0     H49971   2.407   8.735   3.133  2.6516  0.6170 -2.2323
  379MOL0     H49972   2.429   8.604   3.246  0.1378  0.3697 -2.0412
  379MOL0     H49973   2.407   8.900   3.324  0.5272  0.3766  1.4157
  379MOL0     H49974   2.474   8.777   3.424 -0.9783 -1.2971 -0.6730
  379MOL0     H49975   2.278   8.805   3.501 -1.2233 -0.3888  0.1236
  379MOL0     H49976   2.311   8.630   3.449  1.6264 -1.6999 -3.5431
  379MOL0     H49977   2.141   8.834   3.288  0.7461 -0.3332 -1.2963
  379MOL0     H49978   2.146   8.656   3.278  0.7770  1.2085 -1.0702
  379MOL0     H49979   2.047   8.656   3.524 -1.1465  0.2581  1.1375
  379MOL0     H49980   1.943   8.704   3.396 -2.5821  1.2998  1.8981
  379MOL0     H49981   1.820   8.793   3.622  2.2848 -1.8298  0.7259
  379MOL0     H49982   1.680   9.062   3.682  1.4308 -3.5481 -4.1238
  379MOL0     H49983   1.814   9.182   3.719 -0.5885  0.6451  0.0949
  379MOL0     H49984   1.930   9.026   3.874  1.0634  0.0794  0.0075
  379MOL0     H49985   1.804   8.908   3.837 -0.6361  1.9052 -2.2061
  379MOL0     H49986   1.802   9.056   4.056  1.3790 -1.9062 -0.2445
  379MOL0     H49987   1.729   9.171   3.942  4.4784 -1.1727 -4.2631
  379MOL0     H49988   1.643   8.876   4.016  2.0541 -0.1163 -0.3667
  379MOL0     H49989   1.573   8.943   3.878  2.1142 -2.9436  0.7962
  379MOL0     H49990   1.496   9.188   3.810 -1.2626 -1.3629  0.7729
  379MOL0     H49991   1.417   9.404   3.778  0.9199 -1.4882  0.3654
  379MOL0     H49992   1.263   9.876   4.008 -0.0852  1.1375 -1.7655
  379MOL0     H49993   1.098  10.041   3.946  2.9257 -0.6857  0.8314
  379MOL0     H49994   0.929  10.117   3.818 -0.3317  0.1455  0.2606
  379MOL0     H49995   0.931  10.186   3.979  4.9618 -0.1039 -3.1001
  379MOL0     H49996   0.663  10.208   3.945  2.2344 -2.3518  1.7847
  379MOL0     H49997   0.702  10.162   3.771  0.0809  0.3571 -0.8532
  379MOL0     H49998   0.672  10.395   3.788  0.9003  1.3225 -0.0134
  379MOL0     H49999   0.827  10.334   3.728 -1.5855  1.9834 -1.3597
  379MOL0     H50000   0.938  10.372   3.941  0.4440 -0.5055  0.0226
  379MOL0     H50001   0.854  10.515   3.880  0.3263  0.3566  2.7898
  379MOL0     H50002   0.723  10.351   4.094 -1.5846 -0.3586  0.0006
  379MOL0     H50003   0.668  10.497   4.013  1.9784  2.5672  1.7600
  379MOL0     H50004   0.766  10.533   4.234 -0.9320  1.4061 -0.4186
  379MOL0     H50005   0.829  10.641   4.107 -0.3360 -0.7951 -2.5717
  379MOL0     H50006   0.982  10.397   4.166 -2.5607 -0.3396 -3.4419
  379MOL0     H50007   1.040  10.540   4.080  0.3731 -1.2136  0.3846
  379MOL0     H50008   1.036  10.675   4.287 -2.7628 -0.3742  1.7314
  379MOL0     H50009   1.149  10.538   4.282  0.4745 -0.5122  1.4368
  379MOL0     H50010   0.793   9.770   4.069  0.6481  1.7924  1.7709
  379MOL0     H50011   0.955   9.600   4.123  1.4148 -0.0067  1.6945
  379MOL0     H50012   1.279   9.409   4.196  1.3580 -1.3016  2.5048
  379MOL0     H50013   1.381   9.188   4.220 -2.3168  0.1124 -0.5078
  379MOL0     H50014   3.021   8.586   3.052  1.7479  0.6728  2.7760
  379MOL0     H50015   3.188   8.475   2.906 -0.4386 -0.2884 -1.8247
  379MOL0     H50016   3.412   7.990   2.928  0.4005  0.9396  0.9221
  379MOL0     H50017   3.591   7.861   2.834 -0.8338 -0.4547 -1.2476
  379MOL0     H50018   3.784   7.959   2.420  1.5050  1.3545  3.3782
  379MOL0     H50019   3.662   7.833   2.440 -0.9370  1.1048 -1.2791
  379MOL0     H50020   3.957   7.816   2.513 -2.3787  0.8037  3.0742
  379MOL0     H50021   3.847   7.680   2.520 -1.8265  0.5421 -0.3714
  379MOL0     H50022   3.856   7.824   2.261  0.4033 -0.6377 -0.9691
  379MOL0     H50023   3.812   7.663   2.282  2.8843 -1.7655 -3.1287
  379MOL0     H50024   4.022   7.619   2.197  0.8691 -0.8096  0.8751
  379MOL0     H50025   4.087   7.768   2.269  0.4721 -0.3764  1.2488
  379MOL0     H50026   4.112   7.377   2.480 -0.5522  0.8045  1.7304
  379MOL0     H50027   3.622   8.093   2.489  4.8317 -2.3076  1.0474
  379MOL0     H50028   3.430   8.220   2.552  0.0669  0.6335  0.9112
  380MOL0     O50029   4.780  10.793   8.908 -0.1195  0.0618  0.1009
  380MOL0     C50030   4.816  10.902   8.869  0.4387 -1.1503  0.2533
  380MOL0     O50031   4.920  10.975   8.924 -0.1879 -0.3620  0.1519
  380MOL0     C50032   4.978  10.920   9.035 -0.4496  0.4901  0.8795
  380MOL0     C50033   5.109  10.865   9.026  0.8807  0.2539  0.0818
  380MOL0     C50034   5.161  10.803   9.143  0.7419 -0.1777  0.5050
  380MOL0     C50035   5.084  10.792   9.254  0.1630 -0.2284  0.9007
  380MOL0     O50036   5.144  10.740   9.358 -0.5226  1.0462 -0.4683
  380MOL0     C50037   5.102  10.752   9.493 -0.2485  0.0853 -0.8930
  380MOL0     C50038   5.198  10.662   9.577 -0.7988  0.4742 -0.2300
  380MOL0     C50039   5.314  10.744   9.639  0.6925  1.4550 -0.1593
  380MOL0     C50040   5.404  10.663   9.739  0.2957 -0.1499  0.7092
  380MOL0     C50041   5.530  10.748   9.769  0.0932  0.0106 -0.6648
  380MOL0     C50042   5.503  10.856   9.884 -0.1111 -1.2125 -0.9296
  380MOL0     C50043   5.612  10.960   9.887  0.2413  0.1908  0.6148
  380MOL0     C50044   5.606  11.050  10.005  0.3684 -0.5665  0.0847
  380MOL0     N50045   5.704  11.158   9.988 -0.4469 -0.7356 -0.1850
  380MOL0     C50046   5.714  11.249   9.888  0.4279 -0.1970 -0.3488
  380MOL0     C50047   5.786  11.354   9.944  0.6957  0.2059  0.4956
  380MOL0     C50048   5.818  11.485   9.881  1.2858  0.2988 -1.1136
  380MOL0     C50049   5.962  11.533   9.917 -0.3203 -0.6118  0.0209
  380MOL0     C50050   6.063  11.434   9.858  0.0242  1.1182 -0.2086
  380MOL0     C50051   6.185  11.510   9.802  0.2021  0.1166 -0.3316
  380MOL0     O50052   6.290  11.527   9.898 -0.2731  0.2654 -0.1051
  380MOL0     C50053   6.401  11.585   9.844 -0.7923 -1.0618 -0.5721
  380MOL0     C50054   6.477  11.661   9.933  0.2423  0.9010 -0.3028
  380MOL0     C50055   6.591  11.728   9.893  0.1297 -0.2495  0.2281
  380MOL0     C50056   6.646  11.717   9.770  0.1431 -0.4315 -0.4673
  380MOL0     C50057   6.782  11.763   9.743  0.1132  0.1078  0.1720
  380MOL0     O50058   6.830  11.716   9.618 -0.0779 -0.7508 -0.3134
  380MOL0     C50059   6.951  11.739   9.562  0.8273 -1.1302 -0.1082
  380MOL0     C50060   6.962  11.734   9.422  0.5975 -0.2711 -0.6533
  380MOL0     C50061   7.091  11.761   9.360  0.3303  0.3065 -0.2810
  380MOL0     C50062   7.204  11.772   9.438  0.2711 -0.4447  0.2244
  380MOL0     O50063   7.331  11.783   9.395 -0.0548 -0.9924  0.2921
  380MOL0     C50064   7.346  11.833   9.262  0.1705  0.1749 -0.3438
  380MOL0     C50065   7.490  11.846   9.228  0.0311  0.4914 -0.1529
  380MOL0     C50066   7.576  11.920   9.329 -0.6124  0.2254  1.2106
  380MOL0     C50067   7.710  11.965   9.254  0.1699 -0.5950  0.1388
  380MOL0     C50068   7.816  12.018   9.343 -0.2841 -0.6475  0.5338
  380MOL0     C50069   7.936  12.084   9.260  0.2270 -0.4336 -1.0194
  380MOL0     C50070   8.022  12.177   9.353 -0.4822  0.7480  0.4971
  380MOL0     C50071   8.146  12.241   9.283 -0.7739  1.0354  1.1162
  380MOL0    Cl50072   8.258  12.125   9.191 -0.4250 -0.1483 -0.1447
  380MOL0     C50073   7.189  11.778   9.575 -0.7589 -0.3485 -0.6719
  380MOL0     C50074   7.063  11.764   9.638 -0.0483 -0.8747 -0.3812
  380MOL0     O50075   6.839  11.840   9.820 -0.2567  0.2370  0.0390
  380MOL0     C50076   6.569  11.649   9.668 -0.8758  0.9613 -1.2668
  380MOL0     C50077   6.448  11.590   9.707  0.1673 -0.3707 -0.1911
  380MOL0     N50078   5.824  11.324  10.069 -0.3821  0.7804  0.4912
  380MOL0     N50079   5.778  11.203  10.096 -0.2581  0.7886  0.9982
  380MOL0     C50080   4.964  10.852   9.266  1.0424 -0.8552  0.0179
  380MOL0     C50081   4.914  10.920   9.157 -0.4071 -0.8597 -0.1165
  380MOL0     C50082   4.758  10.926   8.733 -0.1658  0.4521  0.4430
  380MOL0     C50083   4.821  11.009   8.643  0.6305 -0.0507  0.3910
  380MOL0     C50084   4.753  11.035   8.519 -0.1301 -0.5645  0.2602
  380MOL0     C50085   4.638  10.975   8.478  0.3754  0.1517 -0.0951
  380MOL0     O50086   4.585  10.993   8.357 -0.0730  0.3023 -0.0806
  380MOL0     C50087   4.500  11.102   8.341  0.2390 -0.3661  0.2049
  380MOL0     C50088   4.365  11.067   8.276 -0.0971  0.3635 -0.2145
  380MOL0     C50089   4.387  11.026   8.124  0.5895 -0.7227  0.9051
  380MOL0     C50090   4.265  11.049   8.030  0.7028 -0.8414 -0.2517
  380MOL0     C50091   4.139  10.990   8.085  0.3900 -0.3268 -0.0633
  380MOL0     C50092   4.041  10.923   8.110 -0.5671 -0.1599 -0.6338
  380MOL0     C50093   4.580  10.888   8.566  0.5178  0.1199  0.4145
  380MOL0     C50094   4.637  10.866   8.694 -0.6207  0.1133 -0.6649
  380MOL0     H50095   5.168  10.864   8.935  0.1274  0.6176 -0.4128
  380MOL0     H50096   5.253  10.746   9.149 -0.0900 -1.4053  2.7688
  380MOL0     H50097   4.999  10.718   9.505 -0.4006  0.6484 -0.5633
  380MOL0     H50098   5.098  10.858   9.521  1.8882 -0.0990  0.3245
  380MOL0     H50099   5.231  10.583   9.509  1.0337  2.8850 -2.3279
  380MOL0     H50100   5.140  10.617   9.658 -1.4529 -2.9088 -2.3694
  380MOL0     H50101   5.269  10.835   9.681 -0.2550  0.1369  1.8214
  380MOL0     H50102   5.368  10.773   9.548  1.2022  2.5490  0.4825
  380MOL0     H50103   5.343  10.647   9.829  0.8122  0.4467  1.1739
  380MOL0     H50104   5.433  10.569   9.692  1.7217  1.2130 -1.3066
  380MOL0     H50105   5.567  10.799   9.680  1.8221 -1.3520 -0.7679
  380MOL0     H50106   5.608  10.678   9.800  1.5544  0.6840 -2.6402
  380MOL0     H50107   5.493  10.814   9.985 -3.4518 -0.4320 -0.8257
  380MOL0     H50108   5.407  10.907   9.883 -0.1653 -1.1344  1.4807
  380MOL0     H50109   5.715  10.925   9.890  0.3474  0.4936  3.2155
  380MOL0     H50110   5.598  11.020   9.797  0.0906  2.1807  1.8890
  380MOL0     H50111   5.623  10.998  10.099 -1.0648 -2.2684 -0.5579
  380MOL0     H50112   5.505  11.092  10.004 -0.2729 -1.9055  2.5714
  380MOL0     H50113   5.666  11.246   9.791 -1.2180 -0.4865  0.4342
  380MOL0     H50114   5.758  11.571   9.912  1.9312 -0.0816  1.4403
  380MOL0     H50115   5.803  11.481   9.773  1.9764  3.2061 -1.3889
  380MOL0     H50116   5.997  11.565  10.015  0.8000  2.8008 -1.3568
  380MOL0     H50117   5.974  11.625   9.860  2.2925  0.5586  2.2767
  380MOL0     H50118   6.106  11.376   9.940  2.5765 -1.3267 -3.0159
  380MOL0     H50119   6.017  11.364   9.788  2.0855 -0.3937 -0.1447
  380MOL0     H50120   6.152  11.612   9.781  0.4738  0.1759 -0.4738
  380MOL0     H50121   6.226  11.446   9.724  1.7536  0.0815  0.4601
  380MOL0     H50122   6.455  11.638  10.037 -0.3844 -1.3926 -0.8812
  380MOL0     H50123   6.654  11.758   9.976  0.8187 -2.3775  0.5422
  380MOL0     H50124   6.866  11.720   9.372  1.5867 -3.3719 -1.9150
  380MOL0     H50125   7.093  11.754   9.252 -0.8148  2.2424 -0.4879
  380MOL0     H50126   7.299  11.932   9.262 -0.7808 -0.2604 -0.7368
  380MOL0     H50127   7.299  11.766   9.188  4.7495  0.0568 -3.5999
  380MOL0     H50128   7.497  11.894   9.129  0.7239 -2.5447 -1.7095
  380MOL0     H50129   7.528  11.744   9.218 -0.7455 -0.3384  3.9275
  380MOL0     H50130   7.592  11.861   9.420 -1.5343  0.9898  1.8823
  380MOL0     H50131   7.526  12.011   9.362  0.8102  1.3354  0.4011
  380MOL0     H50132   7.747  11.879   9.197  0.8158 -1.1063  1.3077
  380MOL0     H50133   7.674  12.045   9.188  2.7200  1.5537  1.1884
  380MOL0     H50134   7.845  11.950   9.424  2.4227  0.5184  0.6383
  380MOL0     H50135   7.771  12.096   9.404 -0.7242  0.1526 -0.7731
  380MOL0     H50136   7.916  12.128   9.162  1.4443 -4.9615 -3.5739
  380MOL0     H50137   7.997  12.000   9.226 -1.3029 -1.2948 -1.7821
  380MOL0     H50138   7.954  12.251   9.396 -0.9112  1.3014 -1.0481
  380MOL0     H50139   8.061  12.115   9.434  1.6615 -1.1296 -1.7906
  380MOL0     H50140   8.213  12.289   9.355  0.3741 -0.5842  1.1685
  380MOL0     H50141   8.123  12.318   9.209  1.5111 -0.3020 -1.1470
  380MOL0     H50142   7.282  11.795   9.628  0.1352 -0.3853 -2.1793
  380MOL0     H50143   7.064  11.765   9.746 -0.7102  0.6175 -0.3692
  380MOL0     H50144   6.609  11.647   9.567  0.5585 -2.8088 -0.7813
  380MOL0     H50145   6.392  11.534   9.633 -1.5988  1.6257 -0.4616
  380MOL0     H50146   4.912  10.832   9.359 -0.5237  0.5376 -0.5137
  380MOL0     H50147   4.819  10.972   9.166 -0.4458 -0.7964 -0.8629
  380MOL0     H50148   4.902  11.076   8.673  0.1367  1.3534 -1.2783
  380MOL0     H50149   4.785  11.117   8.455 -1.5367  0.7516  1.1484
  380MOL0     H50150   4.546  11.181   8.280  1.2697 -0.9050  0.2736
  380MOL0     H50151   4.492  11.150   8.439 -1.6623 -1.1604  0.4849
  380MOL0     H50152   4.327  10.974   8.318 -3.7968  2.0519  0.5177
  380MOL0     H50153   4.297  11.153   8.278 -0.1937  0.4407 -2.9540
  380MOL0     H50154   4.409  10.919   8.123  1.1989 -0.5945 -0.1556
  380MOL0     H50155   4.464  11.075   8.064 -0.4107 -2.5768 -2.1622
  380MOL0     H50156   4.249  11.157   8.020  2.5274 -0.5858 -0.9187
  380MOL0     H50157   4.281  11.012   7.928 -0.1285 -0.1941 -0.6239
  380MOL0     H50158   3.947  10.880   8.141  0.4077 -1.0182  1.3024
  380MOL0     H50159   4.495  10.828   8.534  0.8198 -0.5424  0.8372
  380MOL0     H50160   4.581  10.804   8.762  1.2828 -2.7235 -1.5217
  381MOL0     O50161   8.176   9.049   9.144 -0.3258  0.2694  0.6105
  381MOL0     C50162   8.078   9.002   9.201  0.0061 -0.3787 -0.2255
  381MOL0     O50163   8.076   8.885   9.257 -0.2909 -0.9231  0.5396
  381MOL0     C50164   8.187   8.800   9.252 -0.2302  0.8267 -0.4315
  381MOL0     C50165   8.207   8.715   9.359 -0.4987 -0.1873 -0.4320
  381MOL0     C50166   8.321   8.638   9.365  0.6330  0.8498  0.3596
  381MOL0     C50167   8.404   8.611   9.257  0.1146  0.1245  0.0713
  381MOL0     O50168   8.505   8.521   9.232  0.4602  0.1823 -0.3272
  381MOL0     C50169   8.522   8.414   9.325 -0.4538  0.4652  0.0568
  381MOL0     C50170   8.533   8.289   9.237 -0.0001 -0.4640 -0.4935
  381MOL0     C50171   8.538   8.168   9.322  0.3628 -0.6096  0.2571
  381MOL0     C50172   8.531   8.043   9.243  0.4593 -0.3901  0.6136
  381MOL0     C50173   8.589   7.927   9.335 -0.6960  0.7605  0.4657
  381MOL0     C50174   8.644   7.820   9.242  0.9086 -0.1953 -0.1562
  381MOL0     C50175   8.690   7.694   9.328  0.8574 -0.8601 -0.4677
  381MOL0     C50176   8.743   7.576   9.240 -0.2960 -0.1932  0.5369
  381MOL0     N50177   8.725   7.451   9.320  0.1083  0.8561  0.5276
  381MOL0     C50178   8.810   7.407   9.410 -0.4819 -0.5599 -0.7118
  381MOL0     C50179   8.752   7.311   9.482  1.2204  0.1339  0.2406
  381MOL0     C50180   8.802   7.245   9.603 -0.0789 -0.0282  0.5471
  381MOL0     C50181   8.899   7.127   9.573 -0.0416  0.2321  0.1635
  381MOL0     C50182   9.007   7.161   9.468 -0.0185  0.2820 -0.0600
  381MOL0     C50183   9.098   7.041   9.439 -0.1335 -0.3289  0.6564
  381MOL0     O50184   9.180   7.003   9.548  0.1186 -0.3487 -0.3770
  381MOL0     C50185   9.285   6.929   9.505 -0.5940 -0.5741  0.1321
  381MOL0     C50186   9.292   6.838   9.397  0.1993  0.3545 -0.0670
  381MOL0     C50187   9.405   6.754   9.379  0.3544 -0.1390  0.7309
  381MOL0     C50188   9.516   6.760   9.464  0.1146 -0.0231 -0.6292
  381MOL0     C50189   9.649   6.693   9.431  0.3051  0.4202 -0.6717
  381MOL0     O50190   9.649   6.588   9.346 -0.1152  0.2039  0.1016
  381MOL0     C50191   9.771   6.525   9.312  1.2419  0.6657 -0.1705
  381MOL0     C50192   9.845   6.473   9.417 -0.2411 -0.2170 -0.1104
  381MOL0     C50193   9.962   6.405   9.399 -0.9381  0.3507 -0.4906
  381MOL0     C50194  10.008   6.375   9.269  0.2833 -0.0934  0.2030
  381MOL0     O50195  10.120   6.307   9.238  0.0038  0.4401  0.5452
  381MOL0     C50196  10.184   6.213   9.323  0.6802 -0.6299 -0.3404
  381MOL0     C50197  10.322   6.185   9.253 -0.0559 -0.9066 -0.3009
  381MOL0     C50198  10.373   6.051   9.302  0.1513  0.1528 -0.7064
  381MOL0     C50199  10.409   6.054   9.453 -0.0261  0.2710  0.1407
  381MOL0     C50200  10.452   5.915   9.517  0.4948  0.2839 -0.0969
  381MOL0     C50201  10.528   5.937   9.641 -0.4452  0.4054  1.0647
  381MOL0     C50202  10.546   5.813   9.733 -0.1632 -0.3942  0.6995
  381MOL0     C50203  10.622   5.845   9.864  0.0301 -0.3652 -0.6567
  381MOL0    Cl50204  10.790   5.873   9.833 -0.8244  0.3014  0.1525
  381MOL0     C50205   9.922   6.423   9.162  0.6657 -0.7330 -0.0335
  381MOL0     C50206   9.807   6.500   9.182 -0.1941 -0.5422  1.0009
  381MOL0     O50207   9.743   6.760   9.457 -0.4510  0.4659  1.2782
  381MOL0     C50208   9.511   6.847   9.572 -0.2651 -0.6832  0.3901
  381MOL0     C50209   9.398   6.924   9.597  0.0651  0.3981  0.3237
  381MOL0     N50210   8.622   7.285   9.429 -0.2903  0.3240 -0.5183
  381MOL0     N50211   8.618   7.359   9.318  0.6136  0.2885  1.1198
  381MOL0     C50212   8.374   8.677   9.148  0.4609 -0.0530  1.1044
  381MOL0     C50213   8.269   8.773   9.143  0.1022  0.9377  0.3888
  381MOL0     C50214   7.956   9.089   9.193  0.2480 -0.6805  0.4453
  381MOL0     C50215   7.950   9.217   9.132 -1.0325 -0.7481 -0.1090
  381MOL0     C50216   7.846   9.309   9.155 -0.0531  0.3663 -0.5768
  381MOL0     C50217   7.733   9.274   9.229 -0.1144 -0.0781  0.0144
  381MOL0     O50218   7.633   9.365   9.249  0.0380  0.2628  0.4040
  381MOL0     C50219   7.496   9.308   9.240  0.4461  0.3813 -0.4137
  381MOL0     C50220   7.428   9.401   9.152 -0.2672  0.1515  0.2655
  381MOL0     C50221   7.410   9.536   9.225 -0.1685  0.3399  0.2914
  381MOL0     C50222   7.344   9.655   9.133  0.5397  0.1426  0.4678
  381MOL0     C50223   7.285   9.758   9.219 -0.3840 -0.2642 -0.1794
  381MOL0     C50224   7.237   9.842   9.299 -0.2494  0.2394  0.1116
  381MOL0     C50225   7.731   9.147   9.284  0.1183 -0.0264 -0.2256
  381MOL0     C50226   7.846   9.056   9.278  0.0609 -0.0971  0.2953
  381MOL0     H50227   8.150   8.720   9.451 -1.1939 -2.0313 -0.7072
  381MOL0     H50228   8.357   8.614   9.465  0.5943 -0.5835  0.0584
  381MOL0     H50229   8.436   8.417   9.392 -1.2525 -0.0788 -0.9077
  381MOL0     H50230   8.622   8.431   9.366  0.0161 -1.7127 -0.0636
  381MOL0     H50231   8.624   8.312   9.181  0.3332  1.0999  0.6352
  381MOL0     H50232   8.445   8.284   9.172 -2.1319 -1.0313  2.2662
  381MOL0     H50233   8.455   8.170   9.393  2.6216  1.7949  3.1150
  381MOL0     H50234   8.624   8.171   9.390  1.9734 -1.3873 -1.6244
  381MOL0     H50235   8.435   8.021   9.195  0.2329  1.0638  0.3464
  381MOL0     H50236   8.601   8.063   9.161  1.9440 -0.2521  1.8914
  381MOL0     H50237   8.517   7.890   9.408 -2.3093 -2.7311 -2.5420
  381MOL0     H50238   8.676   7.959   9.392  0.3863 -1.6565  0.3010
  381MOL0     H50239   8.725   7.852   9.176  1.5573 -0.2244  0.6066
  381MOL0     H50240   8.557   7.798   9.179 -0.6994  0.8103  1.5683
  381MOL0     H50241   8.764   7.734   9.399  1.4746 -1.8966 -0.5035
  381MOL0     H50242   8.604   7.657   9.385  1.5987  0.0544  1.3631
  381MOL0     H50243   8.848   7.584   9.212  0.1473  0.9799  2.3564
  381MOL0     H50244   8.687   7.572   9.146  2.5821 -2.8541 -1.2604
  381MOL0     H50245   8.896   7.461   9.448  0.2558 -2.0982 -0.1047
  381MOL0     H50246   8.717   7.208   9.661  0.1777  2.9885  3.1439
  381MOL0     H50247   8.845   7.325   9.664 -2.3175  2.2844 -0.7017
  381MOL0     H50248   8.836   7.046   9.535  0.1987  1.4639 -3.1600
  381MOL0     H50249   8.956   7.098   9.662  1.8752  0.7843 -0.8436
  381MOL0     H50250   8.951   7.192   9.378 -2.6703 -0.3410  1.2654
  381MOL0     H50251   9.075   7.241   9.500  4.0734 -1.9291 -2.4679
  381MOL0     H50252   9.163   7.078   9.359 -0.6500  3.1583  1.6882
  381MOL0     H50253   9.039   6.958   9.398  0.9609 -0.2622 -1.1802
  381MOL0     H50254   9.212   6.812   9.328 -1.7851  2.2501  1.3832
  381MOL0     H50255   9.406   6.700   9.285  0.4718 -2.3462  1.9316
  381MOL0     H50256   9.799   6.489   9.515 -2.0414  0.1913 -0.9833
  381MOL0     H50257  10.016   6.377   9.489 -2.8716  0.1020  0.6525
  381MOL0     H50258  10.123   6.122   9.322  0.1320 -0.2786  0.2633
  381MOL0     H50259  10.181   6.253   9.425 -3.7562 -1.8741  0.2344
  381MOL0     H50260  10.396   6.264   9.273  2.7943 -3.4311 -0.0320
  381MOL0     H50261  10.293   6.181   9.148  0.9172  0.5571 -0.6612
  381MOL0     H50262  10.461   6.018   9.248  0.3723 -0.6315  0.1099
  381MOL0     H50263  10.301   5.969   9.294  2.7113 -1.9982 -4.9092
  381MOL0     H50264  10.491   6.123   9.473  1.5821 -1.6552  0.5392
  381MOL0     H50265  10.319   6.080   9.509  0.4612 -0.0303  1.0935
  381MOL0     H50266  10.509   5.860   9.442 -0.0774  2.0329 -1.8885
  381MOL0     H50267  10.361   5.860   9.543  1.3171 -0.8621  0.4332
  381MOL0     H50268  10.476   6.015   9.696 -0.5691  0.3585  1.0145
  381MOL0     H50269  10.631   5.972   9.626 -0.0129 -0.0190  2.8512
  381MOL0     H50270  10.451   5.770   9.766 -0.2137  1.3625  3.1004
  381MOL0     H50271  10.597   5.731   9.681  1.2037 -0.4711  2.0870
  381MOL0     H50272  10.603   5.778   9.948  1.2643  1.5449  1.2512
  381MOL0     H50273  10.590   5.942   9.902 -1.0257 -0.9038 -0.1138
  381MOL0     H50274   9.946   6.416   9.056 -3.4924 -0.2261 -1.2083
  381MOL0     H50275   9.748   6.536   9.098 -0.5947  1.1964  1.9789
  381MOL0     H50276   9.586   6.866   9.648 -1.3172  0.0984  1.2631
  381MOL0     H50277   9.399   6.977   9.692  0.2471  4.0884 -1.5486
  381MOL0     H50278   8.423   8.651   9.055 -1.4975 -2.7250  0.6988
  381MOL0     H50279   8.258   8.831   9.052  0.6463 -0.6511 -0.7304
  381MOL0     H50280   8.034   9.263   9.080 -1.3299 -1.7393 -1.5483
  381MOL0     H50281   7.855   9.411   9.120  0.2571  0.1605 -1.1147
  381MOL0     H50282   7.448   9.323   9.337  1.8362 -2.2827  0.7887
  381MOL0     H50283   7.503   9.204   9.206 -0.9671 -0.3498  1.4101
  381MOL0     H50284   7.484   9.413   9.059 -0.4196 -0.7920  0.0460
  381MOL0     H50285   7.327   9.369   9.128 -1.5660  3.2763  1.0621
  381MOL0     H50286   7.497   9.577   9.275 -1.0760  1.3013  1.1212
  381MOL0     H50287   7.331   9.520   9.299 -2.2885  2.7802 -1.2911
  381MOL0     H50288   7.432   9.686   9.076 -0.9008 -0.0068 -1.9848
  381MOL0     H50289   7.275   9.608   9.062  1.5902 -3.8266  1.8017
  381MOL0     H50290   7.181   9.898   9.371 -0.3496  3.0426 -1.9636
  381MOL0     H50291   7.644   9.121   9.343 -0.6376 -0.1768 -1.3775
  381MOL0     H50292   7.842   8.964   9.334  1.0097  1.4846  3.1604
  382MOL0     O50293   3.791  10.750   7.493 -1.1198 -0.5248 -0.0933
  382MOL0     C50294   3.700  10.673   7.467  0.3347 -0.4179 -0.5856
  382MOL0     O50295   3.706  10.537   7.490  0.1213 -0.3561 -0.0546
  382MOL0     C50296   3.826  10.482   7.544 -0.1494  0.0385  0.4123
  382MOL0     C50297   3.958  10.525   7.539 -0.2302 -0.3878  0.4509
  382MOL0     C50298   4.060  10.446   7.599 -0.4397  0.6552 -0.7654
  382MOL0     C50299   4.036  10.328   7.668 -0.2334  0.9731  0.0011
  382MOL0     O50300   4.149  10.260   7.703 -0.0306 -1.1789 -0.2804
  382MOL0     C50301   4.145  10.131   7.769 -0.3621  0.1796  0.6773
  382MOL0     C50302   4.111  10.139   7.918  0.2539  0.6424  0.1103
  382MOL0     C50303   4.134  10.007   7.985  0.7798  0.0259 -0.5961
  382MOL0     C50304   4.192  10.010   8.126  0.1563 -0.2498 -0.2462
  382MOL0     C50305   4.191   9.865   8.176  0.0445 -0.9888  0.2655
  382MOL0     C50306   4.284   9.853   8.294 -0.6799  0.1441 -0.8119
  382MOL0     C50307   4.276   9.709   8.360  0.0214  0.0394 -0.2109
  382MOL0     C50308   4.354   9.607   8.289  1.0851 -1.0073  0.2155
  382MOL0     N50309   4.346   9.481   8.370  0.0134  0.4436  0.0689
  382MOL0     C50310   4.240   9.393   8.389  0.6647 -0.2262  1.3136
  382MOL0     C50311   4.292   9.285   8.462  0.0567  0.3899 -0.6079
  382MOL0     C50312   4.214   9.162   8.507 -0.5625 -0.5015 -0.4340
  382MOL0     C50313   4.207   9.128   8.661 -0.3895 -0.9339  0.1496
  382MOL0     C50314   4.123   9.232   8.728  0.4961 -0.4785 -0.4911
  382MOL0     C50315   4.091   9.185   8.869 -0.8779  0.0159 -1.2276
  382MOL0     O50316   3.972   9.251   8.922 -0.9339 -0.1125 -0.8594
  382MOL0     C50317   4.008   9.348   9.011  0.6167 -1.2697  0.9427
  382MOL0     C50318   4.005   9.322   9.149  0.2793  0.6078 -0.0461
  382MOL0     C50319   4.023   9.420   9.238 -0.3248  1.0944 -0.4966
  382MOL0     C50320   4.053   9.545   9.189 -0.5487 -0.2412  0.0835
  382MOL0     C50321   4.084   9.657   9.284 -0.1397  0.1352  0.3874
  382MOL0     O50322   4.100   9.782   9.232  0.0742 -0.4831 -0.2681
  382MOL0     C50323   4.167   9.867   9.322 -0.0438 -0.7059  0.1960
  382MOL0     C50324   4.102   9.982   9.379 -0.5400  0.0700  0.0047
  382MOL0     C50325   4.180  10.078   9.447 -0.2482 -0.3624 -1.2815
  382MOL0     C50326   4.308  10.057   9.478 -0.0010 -0.1979 -0.3800
  382MOL0     O50327   4.397  10.142   9.545  0.0234 -0.4512 -0.7829
  382MOL0     C50328   4.359  10.170   9.678  0.5686  0.8428  0.3010
  382MOL0     C50329   4.406  10.311   9.716  0.3777 -1.1978 -1.2665
  382MOL0     C50330   4.326  10.369   9.842 -0.6462 -0.1209  0.9344
  382MOL0     C50331   4.204  10.425   9.780  0.1541 -0.8532 -0.4571
  382MOL0     C50332   4.104  10.472   9.892 -0.5810 -0.4755  0.6099
  382MOL0     C50333   4.063  10.621   9.883  0.3730  0.7938 -0.0754
  382MOL0     C50334   3.955  10.665   9.984  0.4093 -0.0072  0.0032
  382MOL0     C50335   3.966  10.583  10.122  0.1549 -0.3659  0.9788
  382MOL0    Cl50336   3.877  10.666  10.254  0.0565 -0.0981 -0.5343
  382MOL0     C50337   4.375   9.950   9.425 -0.6632  0.5315 -0.3103
  382MOL0     C50338   4.304   9.858   9.342 -0.0613 -0.5102  0.0067
  382MOL0     O50339   4.108   9.622   9.400  0.4601  0.1253  0.9710
  382MOL0     C50340   4.050   9.578   9.054  0.2234  0.1262 -0.1806
  382MOL0     C50341   4.019   9.476   8.970  0.0480  0.1767 -0.4726
  382MOL0     N50342   4.420   9.321   8.497 -0.3180 -0.0281  0.8194
  382MOL0     N50343   4.455   9.433   8.440 -0.7216  0.1237  0.5279
  382MOL0     C50344   3.904  10.280   7.670  0.6542 -0.2597  0.6243
  382MOL0     C50345   3.804  10.360   7.606 -0.1903  0.2308  0.3675
  382MOL0     C50346   3.577  10.731   7.417 -0.5944  0.0338 -0.7453
  382MOL0     C50347   3.562  10.871   7.413 -0.7350 -0.4457  0.4860
  382MOL0     C50348   3.442  10.930   7.379 -0.8113  0.0900 -0.3893
  382MOL0     C50349   3.330  10.854   7.351  0.6595  0.5185 -0.4264
  382MOL0     O50350   3.205  10.902   7.329 -0.6023  0.0478 -0.3444
  382MOL0     C50351   3.174  11.035   7.381 -0.5377 -0.2090 -0.6969
  382MOL0     C50352   3.033  11.088   7.367 -0.1653 -0.3939  0.5146
  382MOL0     C50353   2.933  11.005   7.452 -0.2589 -0.0528  0.0354
  382MOL0     C50354   2.819  11.103   7.502 -0.2837  0.0954 -0.7583
  382MOL0     C50355   2.734  11.148   7.390  0.7028  0.7838 -0.0999
  382MOL0     C50356   2.691  11.195   7.295  0.8918 -0.0538  0.4615
  382MOL0     C50357   3.344  10.710   7.361  0.2575  0.3867 -0.3470
  382MOL0     C50358   3.468  10.654   7.392 -0.1280  0.2230  0.3997
  382MOL0     H50359   3.989  10.622   7.501 -2.2903 -0.0181 -0.4195
  382MOL0     H50360   4.159  10.488   7.588 -0.8234  2.0366  0.6669
  382MOL0     H50361   4.245  10.094   7.745  0.0717  0.4407  1.9658
  382MOL0     H50362   4.073  10.064   7.722 -1.3529  0.5844  1.5711
  382MOL0     H50363   4.016  10.183   7.950  1.2860  4.1924 -1.2386
  382MOL0     H50364   4.176  10.214   7.965  1.1153  0.1765 -0.3121
  382MOL0     H50365   4.209   9.948   7.930  2.5246  1.9311 -0.3771
  382MOL0     H50366   4.043   9.948   7.995  0.3536  0.8528  0.4927
  382MOL0     H50367   4.294  10.049   8.120 -0.1434  0.4263 -1.1252
  382MOL0     H50368   4.126  10.074   8.185 -0.7224 -1.5217  0.1911
  382MOL0     H50369   4.221   9.806   8.089  1.5846 -0.5887  0.4872
  382MOL0     H50370   4.090   9.834   8.202 -1.8136  4.9059  1.6921
  382MOL0     H50371   4.261   9.924   8.373  2.8581 -0.9457  1.4215
  382MOL0     H50372   4.385   9.867   8.255 -1.1134  0.6197 -1.7963
  382MOL0     H50373   4.310   9.716   8.464 -0.6135  6.3674 -0.0618
  382MOL0     H50374   4.174   9.676   8.380  0.7032 -1.2065  1.4870
  382MOL0     H50375   4.457   9.641   8.277  1.2130 -0.8731  1.5140
  382MOL0     H50376   4.300   9.587   8.196  0.8921 -1.0053  0.3268
  382MOL0     H50377   4.145   9.403   8.337  1.8840  2.9918 -0.5214
  382MOL0     H50378   4.261   9.078   8.455 -1.1872 -0.1916 -1.5197
  382MOL0     H50379   4.108   9.169   8.482 -0.9282  3.4167  1.5528
  382MOL0     H50380   4.306   9.116   8.707  0.3545 -3.0544 -1.8367
  382MOL0     H50381   4.162   9.029   8.672  1.6809 -1.6342  5.4241
  382MOL0     H50382   4.176   9.327   8.727 -1.1692  0.5180 -2.8414
  382MOL0     H50383   4.026   9.241   8.678 -3.4213 -2.0034  5.6608
  382MOL0     H50384   4.185   9.200   8.923 -1.1218 -2.0316 -0.1451
  382MOL0     H50385   4.066   9.080   8.888 -2.0691  0.8538  3.1362
  382MOL0     H50386   3.995   9.219   9.183 -2.1826 -0.0610 -2.3719
  382MOL0     H50387   4.026   9.404   9.345 -2.8623 -0.7741 -0.6093
  382MOL0     H50388   4.001  10.015   9.359  0.7345  3.7593 -1.1045
  382MOL0     H50389   4.132  10.161   9.498 -0.1186 -0.0270 -1.6961
  382MOL0     H50390   4.411  10.092   9.735  1.7348  2.0166  0.9139
  382MOL0     H50391   4.250  10.163   9.690 -0.1676  2.9967 -3.6156
  382MOL0     H50392   4.398  10.374   9.627  1.2207  0.5547 -0.1397
  382MOL0     H50393   4.512  10.301   9.741  0.2042  0.5052  0.3150
  382MOL0     H50394   4.383  10.447   9.892 -1.7696  0.3060  1.5883
  382MOL0     H50395   4.303  10.290   9.915 -0.4249  0.3114  1.4813
  382MOL0     H50396   4.227  10.514   9.720 -1.9550  0.4407  0.5469
  382MOL0     H50397   4.149  10.350   9.723  4.7409 -1.1210 -5.3658
  382MOL0     H50398   4.150  10.456   9.991 -2.0378 -0.9936  1.2280
  382MOL0     H50399   4.014  10.412   9.878 -0.3447 -0.7239  0.1206
  382MOL0     H50400   4.034  10.636   9.779  3.4342  1.4509 -0.9118
  382MOL0     H50401   4.147  10.686   9.910 -0.0214  0.4106  2.3505
  382MOL0     H50402   3.952  10.772  10.006  4.3773  0.4726 -0.9686
  382MOL0     H50403   3.854  10.648   9.946  0.0803  1.1817  0.2870
  382MOL0     H50404   4.074  10.571  10.138  0.8302  0.9422 -1.9681
  382MOL0     H50405   3.919  10.485  10.110 -3.3667  1.3771 -1.1912
  382MOL0     H50406   4.481   9.948   9.450 -0.4811  2.5530 -0.7648
  382MOL0     H50407   4.347   9.772   9.291 -3.2687 -2.9394  1.1083
  382MOL0     H50408   4.066   9.677   9.013  3.4096  1.0550  2.7982
  382MOL0     H50409   4.015   9.504   8.865 -0.6382  1.5212 -0.1061
  382MOL0     H50410   3.888  10.178   7.702  1.2695 -1.2105 -1.8631
  382MOL0     H50411   3.703  10.321   7.604 -0.1094  0.0459 -1.1625
  382MOL0     H50412   3.631  10.954   7.419 -2.0320  1.3519 -4.6271
  382MOL0     H50413   3.441  11.038   7.368 -0.0644  0.0166 -1.2647
  382MOL0     H50414   3.236  11.100   7.318  1.2714 -0.1418  1.0432
  382MOL0     H50415   3.211  11.051   7.482 -2.4293  0.3464 -0.0566
  382MOL0     H50416   3.031  11.195   7.389  4.7978  0.1714 -0.6818
  382MOL0     H50417   3.006  11.091   7.262  0.5940  2.1932  0.3354
  382MOL0     H50418   2.971  10.965   7.546  0.5698 -1.3372 -0.7972
  382MOL0     H50419   2.890  10.917   7.403  0.7317 -1.2491  1.2242
  382MOL0     H50420   2.765  11.043   7.576  0.5304  0.3230  0.0296
  382MOL0     H50421   2.872  11.186   7.550  0.5420 -1.1541  0.5834
  382MOL0     H50422   2.628  11.224   7.213  0.4921 -2.8639 -0.3052
  382MOL0     H50423   3.255  10.648   7.352 -0.7799  1.9132 -0.9497
  382MOL0     H50424   3.488  10.548   7.399  1.5898  0.5979  2.3253
  383MOL0     O50425   3.504   3.030   1.181 -0.8909  0.3629 -0.8533
  383MOL0     C50426   3.510   3.152   1.204 -0.1672 -0.0090  0.6465
  383MOL0     O50427   3.627   3.220   1.232 -0.2047 -0.0889 -0.5768
  383MOL0     C50428   3.753   3.155   1.235  0.3307  0.3945  0.8593
  383MOL0     C50429   3.854   3.229   1.291 -0.3386 -0.2743  0.5377
  383MOL0     C50430   3.993   3.193   1.294  0.3066 -0.4276 -0.1774
  383MOL0     C50431   4.021   3.067   1.243 -0.2441 -0.1256 -0.2625
  383MOL0     O50432   4.152   3.023   1.242 -0.1680  0.4469  0.1582
  383MOL0     C50433   4.213   3.026   1.374 -1.0852 -0.0587 -0.0075
  383MOL0     C50434   4.320   2.912   1.373 -0.9162 -0.2844 -0.6660
  383MOL0     C50435   4.415   2.930   1.501  0.6028 -0.3755 -0.8680
  383MOL0     C50436   4.551   2.882   1.475 -0.5176 -1.2608  1.4124
  383MOL0     C50437   4.619   2.981   1.378  0.5405  0.2465  0.6628
  383MOL0     C50438   4.707   3.079   1.451  0.4616  0.0106 -1.2345
  383MOL0     C50439   4.771   3.192   1.375  0.2824 -1.6431  0.3470
  383MOL0     C50440   4.833   3.143   1.250 -0.6005  0.9035  0.5835
  383MOL0     N50441   4.949   3.228   1.200  0.5937  0.2657  0.0891
  383MOL0     C50442   5.084   3.226   1.249 -0.4959  0.5564 -0.2521
  383MOL0     C50443   5.150   3.295   1.161  0.3964  0.2688  1.0587
  383MOL0     C50444   5.295   3.319   1.152 -0.9537 -0.8834  0.4433
  383MOL0     C50445   5.321   3.471   1.136  0.0657  1.8308  0.6767
  383MOL0     C50446   5.317   3.519   1.280  0.2504 -0.2341 -0.2079
  383MOL0     C50447   5.284   3.670   1.300 -0.1104 -0.3972  1.6438
  383MOL0     O50448   5.309   3.725   1.430 -0.1908  0.3998 -0.8243
  383MOL0     C50449   5.236   3.835   1.463 -0.8974  0.7544 -0.8670
  383MOL0     C50450   5.216   3.862   1.595  0.7144 -0.4062  0.5959
  383MOL0     C50451   5.152   3.977   1.640 -0.5235  0.3130  0.7072
  383MOL0     C50452   5.104   4.066   1.550  0.4451 -0.6047 -0.2525
  383MOL0     C50453   5.017   4.180   1.604 -1.1674  0.7429  0.6817
  383MOL0     O50454   4.947   4.248   1.511 -0.0188 -0.3753 -0.0098
  383MOL0     C50455   4.869   4.365   1.546  0.7361 -1.2305 -0.3679
  383MOL0     C50456   4.756   4.342   1.624 -0.1071  0.4455  0.1541
  383MOL0     C50457   4.661   4.441   1.643 -0.0832 -0.4915  0.3227
  383MOL0     C50458   4.664   4.560   1.562 -0.3305  0.4723 -0.5872
  383MOL0     O50459   4.548   4.641   1.574 -0.0934  0.1282 -0.8598
  383MOL0     C50460   4.578   4.785   1.570  0.3996 -0.5054 -0.0158
  383MOL0     C50461   4.478   4.871   1.646 -0.6203 -0.3076 -0.0500
  383MOL0     C50462   4.329   4.854   1.603  0.0180  0.5164 -0.7482
  383MOL0     C50463   4.224   4.943   1.665  0.0959  0.2523 -0.5482
  383MOL0     C50464   4.082   4.919   1.596  0.6352 -0.2548 -0.0986
  383MOL0     C50465   3.970   4.996   1.664 -0.3743  0.1707 -0.0931
  383MOL0     C50466   3.846   5.001   1.584  0.5043  0.3368  0.2725
  383MOL0     C50467   3.771   4.863   1.591 -0.7741 -0.5419 -1.0089
  383MOL0    Cl50468   3.589   4.876   1.571  0.2085  0.0244  0.4405
  383MOL0     C50469   4.782   4.588   1.494 -0.5714  0.5062 -0.4042
  383MOL0     C50470   4.890   4.493   1.499 -0.7310  0.2548 -0.6397
  383MOL0     O50471   5.036   4.215   1.718  0.0804  0.0298  0.0669
  383MOL0     C50472   5.116   4.042   1.412 -0.1019 -1.0632  0.1777
  383MOL0     C50473   5.186   3.925   1.372 -0.1370  0.4308  0.3979
  383MOL0     N50474   5.066   3.334   1.053 -0.3921 -0.8521 -0.2926
  383MOL0     N50475   4.951   3.291   1.083  0.7395  0.1750  0.6819
  383MOL0     C50476   3.924   2.984   1.197 -0.3930 -0.6791 -0.7526
  383MOL0     C50477   3.794   3.022   1.189  0.5528 -0.3362 -1.0857
  383MOL0     C50478   3.392   3.237   1.164 -0.6700 -0.3578  0.0816
  383MOL0     C50479   3.379   3.379   1.172  0.7997 -0.7510 -0.7793
  383MOL0     C50480   3.258   3.441   1.131 -0.5767 -0.5614 -0.6184
  383MOL0     C50481   3.148   3.359   1.094 -0.2405 -0.9803 -0.2365
  383MOL0     O50482   3.026   3.417   1.055  0.3011  0.6184  0.1406
  383MOL0     C50483   3.022   3.474   0.926 -0.9476 -0.0133 -0.3416
  383MOL0     C50484   2.911   3.581   0.906 -0.4185  0.7225  0.4927
  383MOL0     C50485   2.924   3.703   0.998  0.6429  0.2292 -0.2355
  383MOL0     C50486   2.833   3.801   0.942 -0.2459 -0.4973  0.4870
  383MOL0     C50487   2.857   3.926   1.019 -0.1533 -0.1352 -0.3911
  383MOL0     C50488   2.896   4.027   1.081 -0.6647  0.8974  0.0021
  383MOL0     C50489   3.158   3.224   1.094 -0.1512 -0.8557  0.2687
  383MOL0     C50490   3.278   3.166   1.131 -0.5383 -0.7311 -0.7651
  383MOL0     H50491   3.826   3.325   1.335 -0.5814 -0.6241  1.1598
  383MOL0     H50492   4.074   3.251   1.337  0.9261 -1.0404 -0.4994
  383MOL0     H50493   4.137   2.993   1.446 -1.0421 -2.7260 -1.0607
  383MOL0     H50494   4.257   3.122   1.400 -1.0138 -0.0339 -0.2223
  383MOL0     H50495   4.367   2.910   1.275  1.1028  0.3269  0.2404
  383MOL0     H50496   4.280   2.812   1.389  0.0526 -0.7972 -1.3259
  383MOL0     H50497   4.372   2.877   1.587 -2.7001  1.8087 -1.0123
  383MOL0     H50498   4.408   3.029   1.545 -0.0075 -0.8171  0.0699
  383MOL0     H50499   4.612   2.879   1.566  2.4177  0.1954 -0.3387
  383MOL0     H50500   4.550   2.778   1.443  1.8127 -2.0091  3.4148
  383MOL0     H50501   4.546   3.032   1.315  0.9901  2.3451  1.7512
  383MOL0     H50502   4.679   2.914   1.315  2.2749  2.9016 -0.6983
  383MOL0     H50503   4.790   3.016   1.484  0.8992  0.9803 -0.4122
  383MOL0     H50504   4.654   3.115   1.540 -0.4800 -1.5180 -1.1388
  383MOL0     H50505   4.693   3.267   1.360  1.3427 -0.0818  2.1913
  383MOL0     H50506   4.845   3.240   1.439 -0.7128  3.0390 -1.6067
  383MOL0     H50507   4.765   3.114   1.170  2.2965  1.2723 -2.2104
  383MOL0     H50508   4.882   3.047   1.272  2.9026  2.5125  0.5662
  383MOL0     H50509   5.109   3.173   1.340 -2.0969  1.7445  0.9247
  383MOL0     H50510   5.342   3.271   1.066  0.2825  0.8787  0.0890
  383MOL0     H50511   5.340   3.288   1.247 -2.0563 -0.0155  1.2880
  383MOL0     H50512   5.255   3.510   1.058 -0.3336  0.2734  0.1899
  383MOL0     H50513   5.419   3.476   1.088 -0.0019  1.5791  0.5096
  383MOL0     H50514   5.253   3.463   1.349  2.1531 -0.9816  1.0088
  383MOL0     H50515   5.418   3.509   1.319 -0.3761 -0.0193  1.5461
  383MOL0     H50516   5.181   3.687   1.265  1.4448  1.2684 -2.7499
  383MOL0     H50517   5.334   3.732   1.224  1.0059 -2.2867  0.7753
  383MOL0     H50518   5.254   3.789   1.666  1.8602  0.7874  1.2552
  383MOL0     H50519   5.135   3.999   1.745 -0.2347 -0.8789  1.0134
  383MOL0     H50520   4.731   4.248   1.672  1.8695  0.0980  0.6188
  383MOL0     H50521   4.575   4.417   1.705 -1.2464 -2.2878 -1.8585
  383MOL0     H50522   4.587   4.816   1.466  1.7494 -0.0588  0.2060
  383MOL0     H50523   4.677   4.801   1.615 -0.3833 -0.9917  1.9657
  383MOL0     H50524   4.515   4.972   1.628  0.0881 -0.5078  0.2606
  383MOL0     H50525   4.489   4.858   1.754  0.2610  0.7676 -0.0001
  383MOL0     H50526   4.310   4.747   1.616 -0.2751  0.6590  0.0189
  383MOL0     H50527   4.330   4.873   1.495  2.4725  1.6746 -0.5959
  383MOL0     H50528   4.223   4.925   1.773  0.3887 -3.9860 -1.0733
  383MOL0     H50529   4.247   5.048   1.649 -0.4614  0.7264  1.4082
  383MOL0     H50530   4.047   4.816   1.593  0.9802 -0.3690 -0.2878
  383MOL0     H50531   4.092   4.953   1.492 -1.8056 -2.5520 -1.1950
  383MOL0     H50532   4.001   5.101   1.660 -0.6351  0.2731  0.4853
  383MOL0     H50533   3.946   4.961   1.765 -1.3290  0.9493 -0.0291
  383MOL0     H50534   3.783   5.084   1.619 -0.8047  0.6705 -2.5990
  383MOL0     H50535   3.866   5.032   1.481 -1.8885  2.1756  0.2629
  383MOL0     H50536   3.788   4.817   1.689 -1.1674 -1.1451 -1.2183
  383MOL0     H50537   3.815   4.797   1.516  1.3934  1.0849 -1.2680
  383MOL0     H50538   4.792   4.688   1.452 -3.3014  0.3519 -1.5887
  383MOL0     H50539   4.989   4.522   1.466 -0.3439 -0.2633  0.0199
  383MOL0     H50540   5.068   4.110   1.343  0.4825 -0.8693 -0.0391
  383MOL0     H50541   5.203   3.916   1.266  2.9710  0.0902  0.8411
  383MOL0     H50542   3.961   2.894   1.149 -1.7328 -2.0382  0.6755
  383MOL0     H50543   3.722   2.962   1.135 -2.3115  1.5292  0.4494
  383MOL0     H50544   3.469   3.434   1.198  1.2556 -2.4309  1.4917
  383MOL0     H50545   3.239   3.548   1.130  0.5036 -0.3622 -0.9656
  383MOL0     H50546   3.014   3.391   0.855  0.1555 -0.0806 -0.3938
  383MOL0     H50547   3.118   3.519   0.898 -0.7795 -0.6191 -0.7591
  383MOL0     H50548   2.927   3.608   0.801  2.9118 -1.8662  0.1668
  383MOL0     H50549   2.817   3.533   0.935 -0.4210  0.5477  0.1864
  383MOL0     H50550   3.023   3.741   0.973  0.1916  1.4671 -0.1979
  383MOL0     H50551   2.912   3.700   1.106 -1.2792  5.7158  0.0072
  383MOL0     H50552   2.852   3.824   0.837 -0.2572  0.5294  0.6990
  383MOL0     H50553   2.730   3.768   0.957 -0.3728 -0.0576  0.6004
  383MOL0     H50554   2.922   4.109   1.145  2.0351  2.1705 -2.4736
  383MOL0     H50555   3.063   3.173   1.084  0.4059 -1.6056 -1.5901
  383MOL0     H50556   3.275   3.058   1.133 -1.9273 -0.7099  1.1073
  384MOL0     O50557   6.703   4.953  10.555  0.5240 -0.7689  0.1513
  384MOL0     C50558   6.727   5.036  10.474 -1.2189 -0.0905 -0.7375
  384MOL0     O50559   6.647   5.140  10.432  1.0843  0.2690 -0.1623
  384MOL0     C50560   6.536   5.182  10.518  0.1318  0.5340 -0.9794
  384MOL0     C50561   6.528   5.170  10.656 -0.0050 -0.9605  0.1159
  384MOL0     C50562   6.410   5.181  10.719 -0.0052  0.2174  0.4329
  384MOL0     C50563   6.292   5.234  10.661 -0.1085  0.6877  0.6394
  384MOL0     O50564   6.181   5.255  10.737  0.3765  0.7556 -0.0349
  384MOL0     C50565   6.053   5.277  10.668  0.2407  0.0088  0.0944
  384MOL0     C50566   5.936   5.317  10.764 -1.0613  0.3918 -1.6192
  384MOL0     C50567   5.971   5.416  10.871 -0.2294  0.1412 -0.6706
  384MOL0     C50568   5.855   5.436  10.963  1.0371  0.2067 -0.8256
  384MOL0     C50569   5.873   5.539  11.070  1.0255  0.1066  0.4260
  384MOL0     C50570   6.009   5.545  11.125 -1.2429  0.0392 -0.1219
  384MOL0     C50571   6.010   5.656  11.239 -0.3313  0.4271  0.3208
  384MOL0     C50572   5.890   5.670  11.340 -0.1566 -0.1243  0.8045
  384MOL0     N50573   5.899   5.800  11.400  0.3339 -0.1482 -0.3819
  384MOL0     C50574   6.004   5.853  11.479  0.1884 -0.3597 -0.2053
  384MOL0     C50575   5.981   5.990  11.476 -0.1808 -0.8909  0.1323
  384MOL0     C50576   6.089   6.085  11.526  0.0134 -0.4071 -0.1015
  384MOL0     C50577   6.070   6.136  11.676 -0.3453  0.3659 -0.1500
  384MOL0     C50578   5.987   6.263  11.674 -0.3984 -0.4054  0.6948
  384MOL0     C50579   5.959   6.310  11.820  0.6899 -0.4374 -0.7794
  384MOL0     O50580   5.877   6.427  11.836 -0.3196  0.0933  0.1242
  384MOL0     C50581   5.929   6.532  11.905  0.4119  0.2619  0.3492
  384MOL0     C50582   6.038   6.599  11.855  0.0852  0.1608  0.2748
  384MOL0     C50583   6.097   6.699  11.921 -0.2054  0.5812  0.1931
  384MOL0     C50584   6.053   6.727  12.055 -0.7968  0.5655 -1.0310
  384MOL0     C50585   6.105   6.838  12.144 -0.3190  0.9667  0.1413
  384MOL0     O50586   6.048   6.856  12.267  0.4328 -0.6181 -1.0930
  384MOL0     C50587   6.060   6.979  12.327 -0.5181  0.0570 -0.9932
  384MOL0     C50588   6.006   7.096  12.286 -0.0391 -0.0436 -0.4965
  384MOL0     C50589   6.015   7.205  12.370 -0.7777  0.3942 -0.5938
  384MOL0     C50590   6.102   7.201  12.476  0.6378  0.2526  0.3712
  384MOL0     O50591   6.113   7.300  12.574 -0.0788  0.1503  0.4088
  384MOL0     C50592   6.082   7.431  12.526  0.6493  0.4915  1.7854
  384MOL0     C50593   6.123   7.528  12.639  0.3685  0.7799 -0.0653
  384MOL0     C50594   6.091   7.672  12.616  0.2200  0.5180  0.0582
  384MOL0     C50595   5.948   7.693  12.629 -0.3651 -0.3796  0.0489
  384MOL0     C50596   5.924   7.850  12.628 -0.5536  1.4756 -0.3440
  384MOL0     C50597   5.773   7.895  12.625  0.4544  0.1815  0.9222
  384MOL0     C50598   5.751   8.042  12.626  0.4305 -0.4291 -0.1929
  384MOL0     C50599   5.840   8.111  12.721 -0.5170  0.1525  0.0373
  384MOL0    Cl50600   5.815   8.041  12.889 -0.5575 -0.0992 -0.1623
  384MOL0     C50601   6.165   7.084  12.514 -0.8210 -0.2411  0.7759
  384MOL0     C50602   6.139   6.973  12.439  0.1514 -0.3225 -0.2837
  384MOL0     O50603   6.205   6.903  12.101  0.5053  0.0952 -0.1273
  384MOL0     C50604   5.940   6.651  12.104  0.0777  0.3505  0.8055
  384MOL0     C50605   5.875   6.553  12.028  0.0480  0.0660 -0.5772
  384MOL0     N50606   5.867   6.017  11.410  0.8340  0.0847  0.5038
  384MOL0     N50607   5.810   5.904  11.378  0.3449  0.2864 -0.1210
  384MOL0     C50608   6.308   5.263  10.524  0.9597  1.0406 -0.9599
  384MOL0     C50609   6.423   5.234  10.453 -0.2382 -0.3783  0.2243
  384MOL0     C50610   6.865   5.031  10.405  0.3319  0.4954 -0.2097
  384MOL0     C50611   6.962   4.923  10.416 -0.9866 -0.1875 -0.7318
  384MOL0     C50612   7.083   4.933  10.345  0.8977 -0.8952  0.4633
  384MOL0     C50613   7.115   5.048  10.264 -0.1985 -0.0176  0.5008
  384MOL0     O50614   7.236   5.073  10.214  0.4229 -0.0522  1.1577
  384MOL0     C50615   7.336   4.968  10.247 -0.8150  0.7647 -0.7059
  384MOL0     C50616   7.481   5.022  10.211  0.2689  0.2637 -0.5867
  384MOL0     C50617   7.570   4.912  10.265 -0.1496 -0.2378  0.1937
  384MOL0     C50618   7.713   4.950  10.218  0.1298  0.4989  0.9325
  384MOL0     C50619   7.747   4.892  10.080 -0.3971  0.4061  0.5467
  384MOL0     C50620   7.771   4.857   9.967 -0.3335  0.2588 -1.0243
  384MOL0     C50621   7.026   5.144  10.244 -0.0085 -0.5852 -0.1528
  384MOL0     C50622   6.902   5.132  10.316 -1.1411 -0.4251 -0.6548
  384MOL0     H50623   6.614   5.132  10.711 -0.4838 -0.0478  1.5746
  384MOL0     H50624   6.406   5.129  10.814 -0.7494 -0.4278  0.0624
  384MOL0     H50625   6.021   5.187  10.614 -1.8519  1.5451 -1.4107
  384MOL0     H50626   6.055   5.356  10.592 -3.9626 -0.4984 -0.8238
  384MOL0     H50627   5.898   5.227  10.813 -1.6195 -0.9751 -4.3623
  384MOL0     H50628   5.846   5.355  10.715 -0.3134  1.8139 -1.9458
  384MOL0     H50629   6.001   5.514  10.832  0.7884  0.6944  1.3549
  384MOL0     H50630   6.051   5.365  10.925 -0.2059 -1.7331 -2.3433
  384MOL0     H50631   5.773   5.463  10.896  2.2315 -0.2761 -2.5501
  384MOL0     H50632   5.839   5.345  11.022 -1.8258  1.8341  1.1910
  384MOL0     H50633   5.796   5.527  11.147 -0.1622  0.6691 -0.6262
  384MOL0     H50634   5.849   5.634  11.020  3.3552  0.7875  0.4738
  384MOL0     H50635   6.070   5.586  11.044 -1.8945  0.9619 -0.1603
  384MOL0     H50636   6.051   5.453  11.166  1.6310  0.6883 -1.3386
  384MOL0     H50637   6.096   5.632  11.302  0.0928 -2.0294 -1.0630
  384MOL0     H50638   6.034   5.755  11.199  0.1589  0.4776  0.7265
  384MOL0     H50639   5.902   5.591  11.415  4.2511  0.9231  1.4638
  384MOL0     H50640   5.790   5.669  11.296 -0.6077 -2.2731  1.7476
  384MOL0     H50641   6.082   5.797  11.529  0.8669  0.3659 -0.4402
  384MOL0     H50642   6.096   6.167  11.454 -1.3526  1.4902  1.7915
  384MOL0     H50643   6.191   6.047  11.530  0.9996  2.1644  1.4880
  384MOL0     H50644   6.174   6.154  11.704  0.0389  0.1514 -1.3449
  384MOL0     H50645   6.025   6.056  11.735  3.0928 -1.4044  0.3418
  384MOL0     H50646   6.039   6.346  11.626  2.4002 -3.3081 -1.7669
  384MOL0     H50647   5.892   6.244  11.624  0.2653  0.6410 -1.0335
  384MOL0     H50648   6.047   6.311  11.884 -0.0936  0.8537  0.3324
  384MOL0     H50649   5.892   6.233  11.860  1.1400 -0.5591 -0.2546
  384MOL0     H50650   6.077   6.581  11.756  0.2533 -0.7124  0.4834
  384MOL0     H50651   6.185   6.738  11.870  0.2991 -3.4504 -2.4170
  384MOL0     H50652   5.954   7.121  12.194 -1.0044  3.8651  0.8966
  384MOL0     H50653   5.959   7.295  12.344 -0.1414  1.2072  0.7657
  384MOL0     H50654   5.976   7.450  12.509  1.1422  2.1488  0.2679
  384MOL0     H50655   6.139   7.449  12.435 -1.0651 -2.4523 -0.0127
  384MOL0     H50656   6.224   7.504  12.671 -0.9588 -2.3813  2.3195
  384MOL0     H50657   6.066   7.490  12.724 -1.2796  1.0395 -1.0018
  384MOL0     H50658   6.123   7.695  12.514  0.0654  1.1289  0.1451
  384MOL0     H50659   6.157   7.741  12.669  3.0326  0.7410 -3.3304
  384MOL0     H50660   5.899   7.642  12.547 -1.3024 -3.1453  2.1634
  384MOL0     H50661   5.900   7.645  12.715 -0.9272 -4.3553 -2.2310
  384MOL0     H50662   5.976   7.898  12.544 -0.6124  3.5414  0.7291
  384MOL0     H50663   5.977   7.888  12.716 -1.8056  1.2341  0.5461
  384MOL0     H50664   5.730   7.841  12.710 -1.1385 -0.5912 -0.3148
  384MOL0     H50665   5.718   7.865  12.535 -0.2064  0.8960  1.0714
  384MOL0     H50666   5.783   8.089  12.532  0.0372 -1.1782 -0.7144
  384MOL0     H50667   5.644   8.053  12.644  0.3315 -3.3062  1.6446
  384MOL0     H50668   5.823   8.219  12.726 -2.0727 -0.0031 -1.1691
  384MOL0     H50669   5.946   8.110  12.696 -0.7150 -1.4893 -0.8348
  384MOL0     H50670   6.238   7.071  12.594 -0.8466 -0.4033  0.7722
  384MOL0     H50671   6.167   6.877  12.479 -0.1247  0.1704  1.1711
  384MOL0     H50672   5.907   6.658  12.207  1.2701 -3.4574  1.5999
  384MOL0     H50673   5.784   6.503  12.058 -0.8204  1.4434 -0.8053
  384MOL0     H50674   6.221   5.300  10.470 -1.0104 -1.6002  0.1773
  384MOL0     H50675   6.431   5.249  10.345  0.0290 -0.8912  0.1717
  384MOL0     H50676   6.948   4.849  10.495 -1.0650 -1.6172 -2.0418
  384MOL0     H50677   7.148   4.852  10.374  3.1281  1.4306  2.4650
  384MOL0     H50678   7.307   4.875  10.198  1.8629 -1.2664  1.2415
  384MOL0     H50679   7.334   4.958  10.356 -1.1040 -0.5514 -0.8190
  384MOL0     H50680   7.490   5.027  10.102 -1.7156  0.2937 -0.7851
  384MOL0     H50681   7.494   5.119  10.260 -0.9389 -1.0246  2.5535
  384MOL0     H50682   7.534   4.824  10.211 -3.0395  0.4082  0.9197
  384MOL0     H50683   7.560   4.900  10.373 -0.1096 -0.1104  0.2120
  384MOL0     H50684   7.708   5.058  10.206 -1.4921  0.2212 -1.7211
  384MOL0     H50685   7.794   4.929  10.289  2.4914  2.1306 -1.1256
  384MOL0     H50686   7.792   4.809   9.874 -1.2445 -0.5805 -0.8195
  384MOL0     H50687   7.044   5.231  10.182  2.8589 -0.7036  0.4150
  384MOL0     H50688   6.842   5.221  10.301  1.4067  1.6007  0.3009
  385MOL0     O50689   2.556   9.416   9.405 -0.2049 -0.2158 -0.3521
  385MOL0     C50690   2.504   9.512   9.352 -0.3680 -0.3599  0.5271
  385MOL0     O50691   2.568   9.617   9.285  0.5383  0.7829  0.0080
  385MOL0     C50692   2.701   9.612   9.257 -0.3403 -0.5994  0.6430
  385MOL0     C50693   2.750   9.508   9.170 -0.3248 -0.3692 -0.3369
  385MOL0     C50694   2.889   9.515   9.130 -0.4927  0.2382  0.4797
  385MOL0     C50695   2.976   9.611   9.187 -0.4659 -0.4975 -0.0727
  385MOL0     O50696   3.100   9.620   9.129  0.4305 -0.2509 -0.5801
  385MOL0     C50697   3.209   9.652   9.210  0.7243 -0.0977 -0.0272
  385MOL0     C50698   3.243   9.800   9.193  0.3424  0.1267  0.0867
  385MOL0     C50699   3.371   9.845   9.254  0.0180 -0.2769 -0.5525
  385MOL0     C50700   3.380   9.988   9.285  0.6425 -0.7864 -0.2604
  385MOL0     C50701   3.513  10.031   9.356 -0.8579 -0.2436  0.0664
  385MOL0     C50702   3.546   9.968   9.487 -0.1850 -0.4744  0.5477
  385MOL0     C50703   3.697   9.978   9.511  0.0491 -0.4070 -0.1211
  385MOL0     C50704   3.723   9.936   9.648 -1.1546  0.3209 -0.3329
  385MOL0     N50705   3.862   9.922   9.671  0.0688 -0.5955  0.2259
  385MOL0     C50706   3.944   9.808   9.642 -0.3039 -0.5183 -0.8743
  385MOL0     C50707   4.068   9.847   9.682 -0.0485 -0.0795 -0.5169
  385MOL0     C50708   4.206   9.788   9.677 -0.3112  0.8418  0.2665
  385MOL0     C50709   4.242   9.746   9.817  0.0353 -0.5869  0.2236
  385MOL0     C50710   4.395   9.728   9.818 -0.2011 -0.2886 -0.0878
  385MOL0     C50711   4.441   9.694   9.958  0.0574 -0.0266 -0.7525
  385MOL0     O50712   4.400   9.561  10.002 -0.1222 -0.4008 -0.0951
  385MOL0     C50713   4.466   9.462   9.938 -0.3906 -0.9516 -0.4183
  385MOL0     C50714   4.595   9.428   9.962 -0.3902  0.0464  0.0649
  385MOL0     C50715   4.653   9.315   9.902  0.7119 -0.0151 -0.5049
  385MOL0     C50716   4.597   9.233   9.814  0.6457 -0.7138  0.6555
  385MOL0     C50717   4.668   9.114   9.751 -0.2398 -0.8794 -0.9733
  385MOL0     O50718   4.797   9.108   9.758  0.3611 -0.1296 -0.1875
  385MOL0     C50719   4.858   9.008   9.694 -0.0584 -0.0979 -0.6276
  385MOL0     C50720   4.943   8.920   9.778 -0.0164 -0.4970  1.1742
  385MOL0     C50721   5.007   8.803   9.728  0.2601  0.2092 -0.0510
  385MOL0     C50722   4.987   8.778   9.590 -0.9691 -0.1053 -0.2632
  385MOL0     O50723   5.039   8.666   9.523 -0.9900  0.8363 -0.6872
  385MOL0     C50724   5.155   8.598   9.565 -0.5689 -0.2376 -0.6858
  385MOL0     C50725   5.283   8.647   9.491  0.4720  0.3667 -0.3844
  385MOL0     C50726   5.271   8.621   9.339 -0.2163 -0.2905  1.4486
  385MOL0     C50727   5.261   8.480   9.289  1.0540  1.4386 -0.9163
  385MOL0     C50728   5.308   8.468   9.138  0.5236 -0.2750 -0.8245
  385MOL0     C50729   5.312   8.331   9.072  0.8087  0.1309 -0.4565
  385MOL0     C50730   5.404   8.327   8.945  0.7443 -0.7009  0.1222
  385MOL0     C50731   5.552   8.295   8.972  0.3856 -1.0161  0.0090
  385MOL0    Cl50732   5.566   8.122   9.011 -0.0249  0.1897 -0.5220
  385MOL0     C50733   4.903   8.862   9.518 -0.5929  0.1126 -0.0891
  385MOL0     C50734   4.844   8.976   9.558  1.1424  0.9119 -0.3553
  385MOL0     O50735   4.598   9.039   9.686 -0.6506  0.7111 -0.1082
  385MOL0     C50736   4.478   9.278   9.778  0.4425 -0.1926  0.4200
  385MOL0     C50737   4.408   9.386   9.842 -0.5504 -0.3683 -0.6368
  385MOL0     N50738   4.056   9.986   9.726 -0.2460 -0.3018  0.4338
  385MOL0     N50739   3.930  10.023   9.714 -0.0186  0.2900 -0.1051
  385MOL0     C50740   2.930   9.697   9.286  1.0258 -0.0120 -0.6470
  385MOL0     C50741   2.790   9.698   9.321  0.7925  0.5018  0.9009
  385MOL0     C50742   2.361   9.524   9.354 -0.4837 -0.1129 -0.3097
  385MOL0     C50743   2.291   9.643   9.323  0.9808  0.7637  0.3720
  385MOL0     C50744   2.154   9.649   9.316  0.3835 -0.3641  0.6587
  385MOL0     C50745   2.064   9.544   9.349  0.0327  0.7587 -0.3152
  385MOL0     O50746   1.928   9.541   9.355 -0.3693  0.1563 -0.3697
  385MOL0     C50747   1.862   9.671   9.347 -0.0400 -0.7544  0.6225
  385MOL0     C50748   1.711   9.669   9.345 -0.5206 -0.7326  0.7979
  385MOL0     C50749   1.663   9.566   9.248  1.3358 -1.3729 -0.1858
  385MOL0     C50750   1.527   9.604   9.191 -0.1826  0.1673  1.2636
  385MOL0     C50751   1.433   9.635   9.300 -0.8177 -0.2035  0.5616
  385MOL0     C50752   1.345   9.679   9.377 -0.5294  0.1409 -0.5707
  385MOL0     C50753   2.135   9.419   9.371  0.1747 -1.1940 -0.7837
  385MOL0     C50754   2.279   9.419   9.366  0.0600 -0.3142 -0.7378
  385MOL0     H50755   2.692   9.427   9.127 -3.5170  0.6461  1.7056
  385MOL0     H50756   2.923   9.440   9.059  0.4301 -1.0978  2.2582
  385MOL0     H50757   3.296   9.587   9.190  1.1956  0.6249 -0.3785
  385MOL0     H50758   3.178   9.626   9.312 -0.3209  0.5288 -0.1802
  385MOL0     H50759   3.158   9.864   9.220  0.5744  0.3168  0.3684
  385MOL0     H50760   3.258   9.818   9.086  1.1252  2.6332  0.5337
  385MOL0     H50761   3.459   9.826   9.192 -0.3059 -0.2140 -1.0322
  385MOL0     H50762   3.387   9.792   9.349 -1.2578 -1.6552 -1.0565
  385MOL0     H50763   3.353  10.048   9.198 -3.1870 -2.1227 -0.1856
  385MOL0     H50764   3.309  10.023   9.360  0.8095 -0.5167 -0.2237
  385MOL0     H50765   3.510  10.140   9.365  1.2008 -0.2668  2.1333
  385MOL0     H50766   3.593  10.006   9.286 -2.7452 -0.7193 -2.0419
  385MOL0     H50767   3.520   9.862   9.492  1.4561 -1.0639 -1.8121
  385MOL0     H50768   3.479  10.011   9.562  3.4375  0.1688  3.7366
  385MOL0     H50769   3.749   9.906   9.447  2.5644 -1.9972  3.3887
  385MOL0     H50770   3.727  10.079   9.484 -1.1321 -0.1601 -0.5614
  385MOL0     H50771   3.676   9.842   9.677  1.1188 -0.9408 -0.5418
  385MOL0     H50772   3.683  10.016   9.712 -2.7163  0.4186 -1.3927
  385MOL0     H50773   3.919   9.714   9.595 -0.1870  0.4224 -2.9257
  385MOL0     H50774   4.279   9.861   9.639  1.5126 -0.5428  0.9884
  385MOL0     H50775   4.195   9.701   9.611 -1.8692  2.8912 -2.4196
  385MOL0     H50776   4.193   9.656   9.854 -1.8665  0.9677  1.6677
  385MOL0     H50777   4.228   9.832   9.883  1.0807  1.0842 -1.6169
  385MOL0     H50778   4.432   9.651   9.750  0.3580 -2.2204  2.2979
  385MOL0     H50779   4.438   9.827   9.800 -0.1522 -0.2948 -0.0047
  385MOL0     H50780   4.412   9.772  10.028  2.6119 -1.5236  2.2140
  385MOL0     H50781   4.550   9.709   9.960  0.0250  0.1591  0.8452
  385MOL0     H50782   4.656   9.485  10.031 -0.9988 -1.1080  1.6392
  385MOL0     H50783   4.753   9.298   9.940 -0.7174 -1.9924  2.8229
  385MOL0     H50784   4.952   8.938   9.885  1.0122 -0.2956  1.0596
  385MOL0     H50785   5.064   8.737   9.793  0.7236  3.4591  3.1460
  385MOL0     H50786   5.135   8.491   9.555  0.9513 -0.9856  2.7473
  385MOL0     H50787   5.177   8.612   9.672  1.2389  1.3014 -1.2073
  385MOL0     H50788   5.363   8.594   9.545 -2.0334 -1.4429  1.8064
  385MOL0     H50789   5.307   8.753   9.504 -2.1958  1.0997 -0.9772
  385MOL0     H50790   5.371   8.660   9.314  0.6151 -1.9921  1.9741
  385MOL0     H50791   5.203   8.691   9.291  0.8377 -0.9486 -1.1931
  385MOL0     H50792   5.322   8.412   9.348 -1.1917  0.2023  0.1136
  385MOL0     H50793   5.155   8.455   9.304  1.6544 -0.3838  0.5394
  385MOL0     H50794   5.411   8.506   9.139  1.3303 -2.2676 -1.8251
  385MOL0     H50795   5.251   8.536   9.074  0.1577  0.9083  0.7007
  385MOL0     H50796   5.208   8.320   9.039  0.9815  2.6458 -2.0818
  385MOL0     H50797   5.333   8.248   9.140  2.1583 -1.0695 -2.2667
  385MOL0     H50798   5.373   8.250   8.874  0.7025 -1.1203  0.5982
  385MOL0     H50799   5.390   8.424   8.895 -2.2196 -1.4311 -0.6515
  385MOL0     H50800   5.590   8.363   9.049  0.1683 -0.6967 -0.1600
  385MOL0     H50801   5.595   8.303   8.872 -3.9784 -1.9797 -2.1844
  385MOL0     H50802   4.891   8.824   9.417  0.7731  0.2395 -0.3283
  385MOL0     H50803   4.783   9.021   9.480 -0.1230 -1.8931 -1.1206
  385MOL0     H50804   4.434   9.236   9.688  0.0396  0.8287  0.1222
  385MOL0     H50805   4.305   9.399   9.810 -2.0016 -1.2710  3.1085
  385MOL0     H50806   2.977   9.774   9.345 -0.9588 -1.1999  2.7558
  385MOL0     H50807   2.743   9.758   9.398 -1.6925 -0.9142  0.5943
  385MOL0     H50808   2.340   9.737   9.299  1.7164 -0.2170 -2.4030
  385MOL0     H50809   2.108   9.745   9.296  0.8875 -0.4361 -1.0218
  385MOL0     H50810   1.892   9.712   9.250  0.7976 -2.5482  0.0753
  385MOL0     H50811   1.893   9.735   9.430 -3.7685  0.2170  1.4457
  385MOL0     H50812   1.677   9.649   9.447 -1.4759  0.6009  0.7762
  385MOL0     H50813   1.684   9.773   9.321 -0.8205 -0.7989  0.8500
  385MOL0     H50814   1.656   9.474   9.305  1.4040 -0.7179  0.9001
  385MOL0     H50815   1.735   9.559   9.166  0.5102  2.0463 -1.3685
  385MOL0     H50816   1.532   9.686   9.119 -2.3055 -0.4402  0.3272
  385MOL0     H50817   1.490   9.512   9.145  4.2455 -2.0197  1.5579
  385MOL0     H50818   1.253   9.712   9.421 -0.9103 -2.8528  1.0850
  385MOL0     H50819   2.078   9.332   9.402  0.2130 -0.5673  1.1544
  385MOL0     H50820   2.328   9.325   9.387 -2.0403 -1.2281  0.3652
  386MOL0     O50821  11.145   3.943   6.621 -0.0809  0.6173  1.0810
  386MOL0     C50822  11.149   4.053   6.566  0.1033  0.3682 -0.2802
  386MOL0     O50823  11.035   4.139   6.544 -0.3775  0.1224 -0.3989
  386MOL0     C50824  10.919   4.077   6.568  0.2323 -0.5716 -0.3141
  386MOL0     C50825  10.856   4.015   6.462  0.6467  0.3148 -0.3925
  386MOL0     C50826  10.723   3.966   6.465 -0.0324 -0.2363 -0.3313
  386MOL0     C50827  10.652   3.981   6.592  0.5704  0.5052 -0.0373
  386MOL0     O50828  10.528   3.916   6.618  0.3120 -0.1553 -0.0206
  386MOL0     C50829  10.454   3.867   6.504  0.2981  0.1532 -0.4686
  386MOL0     C50830  10.308   3.823   6.542 -0.5387 -0.4471  0.4590
  386MOL0     C50831  10.301   3.748   6.679 -0.0583  0.0990  0.2350
  386MOL0     C50832  10.165   3.685   6.692 -0.6944 -0.4896 -0.2245
  386MOL0     C50833  10.159   3.619   6.825  0.5395 -0.5123  0.7558
  386MOL0     C50834  10.015   3.559   6.852  0.1300 -0.4140 -0.6993
  386MOL0     C50835  10.015   3.485   6.992 -0.9410  0.4270 -0.4200
  386MOL0     C50836   9.884   3.420   7.026 -0.4545 -0.3446  0.2351
  386MOL0     N50837   9.772   3.518   7.023  0.2591 -0.3416 -0.1236
  386MOL0     C50838   9.666   3.510   6.938 -0.1720 -0.3107  0.4267
  386MOL0     C50839   9.601   3.628   6.955 -0.1862 -0.5784 -0.2776
  386MOL0     C50840   9.482   3.667   6.879 -1.1181 -0.1064  1.2694
  386MOL0     C50841   9.508   3.778   6.773  0.1529  0.4085  0.7603
  386MOL0     C50842   9.387   3.794   6.670 -0.0558  0.0569 -0.4786
  386MOL0     C50843   9.405   3.888   6.549  0.6717  0.7702  0.2956
  386MOL0     O50844   9.515   3.833   6.472  0.0920 -0.2803  0.5485
  386MOL0     C50845   9.479   3.745   6.377 -0.9220  0.4667 -0.3912
  386MOL0     C50846   9.415   3.796   6.265 -0.7456  0.9195  0.4371
  386MOL0     C50847   9.362   3.711   6.168  0.4407 -0.1686  0.0554
  386MOL0     C50848   9.370   3.570   6.183 -0.5430  0.1784  0.1626
  386MOL0     C50849   9.298   3.471   6.093 -0.4126 -0.5762  0.0218
  386MOL0     O50850   9.190   3.519   6.016 -0.3471 -0.3264 -0.1533
  386MOL0     C50851   9.115   3.433   5.940 -0.1681 -0.0267  0.8354
  386MOL0     C50852   9.090   3.484   5.808 -0.2303  0.1797 -0.8116
  386MOL0     C50853   9.003   3.408   5.724 -1.1062  0.7537  0.2148
  386MOL0     C50854   8.946   3.289   5.768  0.5283  0.0897 -0.5151
  386MOL0     O50855   8.894   3.211   5.668 -0.1548  0.4824 -0.2746
  386MOL0     C50856   8.796   3.112   5.704 -0.0421 -0.7894 -0.9788
  386MOL0     C50857   8.714   3.068   5.576  0.4293  0.1588 -0.2324
  386MOL0     C50858   8.618   2.955   5.616 -0.2625 -0.6245  0.9598
  386MOL0     C50859   8.525   2.891   5.511 -0.0779  0.8676  0.3393
  386MOL0     C50860   8.422   2.782   5.582  0.1310 -0.9987  0.7145
  386MOL0     C50861   8.311   2.841   5.678  0.6756  0.1745 -0.1069
  386MOL0     C50862   8.204   2.735   5.713  0.1152  0.9453 -0.2023
  386MOL0     C50863   8.106   2.709   5.596 -0.3562  0.6390  0.2248
  386MOL0    Cl50864   8.012   2.849   5.561  0.1212 -0.4138  0.2037
  386MOL0     C50865   8.963   3.249   5.903  0.0965 -0.9108 -0.2210
  386MOL0     C50866   9.054   3.322   5.987  0.7726  0.1754  0.3832
  386MOL0     O50867   9.331   3.350   6.095  0.1155 -0.4958  0.4124
  386MOL0     C50868   9.431   3.522   6.303  0.7437 -0.5106  0.3356
  386MOL0     C50869   9.484   3.607   6.393 -0.0791  0.3834 -0.3333
  386MOL0     N50870   9.670   3.708   7.036 -0.1110  0.2252 -0.6786
  386MOL0     N50871   9.773   3.642   7.087 -0.2959  0.4773  0.2347
  386MOL0     C50872  10.723   4.034   6.705  0.1128  1.0830 -0.8864
  386MOL0     C50873  10.846   4.093   6.687 -0.2243  1.0830  0.0090
  386MOL0     C50874  11.284   4.109   6.532 -0.6243  0.6197  0.2352
  386MOL0     C50875  11.395   4.030   6.497  0.5131  0.3709 -0.2351
  386MOL0     C50876  11.509   4.093   6.467 -0.9969  0.7782  0.7906
  386MOL0     C50877  11.544   4.231   6.486  0.0177  0.5044 -0.4187
  386MOL0     O50878  11.677   4.271   6.481 -0.2195  1.0290 -0.0164
  386MOL0     C50879  11.692   4.409   6.518 -0.8054 -0.5442  0.8603
  386MOL0     C50880  11.844   4.423   6.520 -0.1732  0.0669  0.4289
  386MOL0     C50881  11.908   4.396   6.376  0.4450  0.3198  0.6804
  386MOL0     C50882  12.055   4.444   6.377  0.2477 -0.8828 -0.8446
  386MOL0     C50883  12.136   4.380   6.479 -0.3827  0.0597  0.9559
  386MOL0     C50884  12.211   4.328   6.559  0.2717 -0.0401  0.8208
  386MOL0     C50885  11.429   4.310   6.525  0.4771 -0.2553  0.1940
  386MOL0     C50886  11.305   4.246   6.549 -0.9517 -0.4433 -0.2876
  386MOL0     H50887  10.918   3.979   6.380 -0.6729  0.7506 -1.6216
  386MOL0     H50888  10.673   3.907   6.389 -0.4064  0.4541 -0.6310
  386MOL0     H50889  10.505   3.785   6.455  0.0360  2.2792 -4.7396
  386MOL0     H50890  10.457   3.947   6.430  0.0911  1.2017  0.6090
  386MOL0     H50891  10.281   3.746   6.470  0.8917  0.1061 -0.7190
  386MOL0     H50892  10.238   3.908   6.544  1.8249  1.6510 -0.8844
  386MOL0     H50893  10.317   3.818   6.761  1.3019  2.7418 -2.1362
  386MOL0     H50894  10.371   3.664   6.667  0.8364  1.1884 -3.1504
  386MOL0     H50895  10.088   3.763   6.677 -0.6022  0.4433  3.2936
  386MOL0     H50896  10.153   3.602   6.622 -0.0307 -0.4115 -0.4332
  386MOL0     H50897  10.190   3.684   6.908 -1.3855  1.5406 -0.0355
  386MOL0     H50898  10.232   3.537   6.828  2.1430  0.8664  1.8949
  386MOL0     H50899   9.998   3.473   6.787 -1.3040 -1.6716  1.2216
  386MOL0     H50900   9.939   3.638   6.853  0.7488  0.1938  0.9548
  386MOL0     H50901  10.092   3.407   6.997  0.4261  1.7813  1.4886
  386MOL0     H50902  10.045   3.552   7.073 -0.4068  0.5026 -0.6752
  386MOL0     H50903   9.899   3.382   7.127 -1.4992 -1.0828  0.1254
  386MOL0     H50904   9.865   3.334   6.961  0.3987 -1.0771  0.9390
  386MOL0     H50905   9.629   3.430   6.875 -1.6389 -1.2410  2.3579
  386MOL0     H50906   9.404   3.698   6.949  0.7726  2.8086  2.2987
  386MOL0     H50907   9.422   3.586   6.837 -2.5473  0.6184  1.8270
  386MOL0     H50908   9.602   3.750   6.725 -0.4283 -0.6047  0.1723
  386MOL0     H50909   9.528   3.877   6.815  0.1874  1.8823 -2.4078
  386MOL0     H50910   9.348   3.694   6.647  1.9231 -0.9265  0.1925
  386MOL0     H50911   9.303   3.838   6.723 -0.9037 -2.0229  0.0130
  386MOL0     H50912   9.420   3.993   6.578 -1.5218  1.7872 -1.8800
  386MOL0     H50913   9.314   3.865   6.492  0.3470 -0.0601  1.1371
  386MOL0     H50914   9.398   3.903   6.257  0.6254  1.1692  0.6253
  386MOL0     H50915   9.314   3.751   6.079 -0.2567  1.1987  1.0057
  386MOL0     H50916   9.136   3.579   5.785 -2.0690  1.2287 -0.3766
  386MOL0     H50917   8.999   3.438   5.619 -0.3647 -0.6307 -0.2413
  386MOL0     H50918   8.725   3.145   5.780  0.5302 -2.4115  0.3209
  386MOL0     H50919   8.839   3.021   5.747  1.3384 -0.4765 -1.6362
  386MOL0     H50920   8.777   3.029   5.495  1.6973  1.3509  0.1416
  386MOL0     H50921   8.651   3.152   5.547 -0.9372 -0.6257  0.3547
  386MOL0     H50922   8.543   2.999   5.682 -3.5905 -1.7091 -1.7332
  386MOL0     H50923   8.664   2.876   5.675 -1.3814 -1.1074  1.2157
  386MOL0     H50924   8.458   2.955   5.452 -3.0893 -1.9883  0.3431
  386MOL0     H50925   8.596   2.847   5.440 -0.1825  1.5038 -0.1758
  386MOL0     H50926   8.484   2.718   5.645 -2.0226 -1.2570  2.7128
  386MOL0     H50927   8.367   2.736   5.499  1.4020 -0.0772 -0.7014
  386MOL0     H50928   8.259   2.926   5.633  0.4317 -0.8447 -1.8279
  386MOL0     H50929   8.359   2.879   5.768  1.2454 -0.5094 -0.1199
  386MOL0     H50930   8.255   2.643   5.740 -0.3863  0.4244 -0.9833
  386MOL0     H50931   8.151   2.760   5.805 -0.0781  0.1059 -0.0774
  386MOL0     H50932   8.038   2.628   5.626 -2.2459  1.3733 -1.7808
  386MOL0     H50933   8.164   2.680   5.508  1.1247  2.0733  0.6736
  386MOL0     H50934   8.924   3.155   5.940 -1.1415  0.6387  2.8262
  386MOL0     H50935   9.064   3.303   6.094 -0.4202 -0.5210  0.3914
  386MOL0     H50936   9.447   3.416   6.317 -1.6801 -0.7510  1.8477
  386MOL0     H50937   9.528   3.577   6.488  1.7570  1.9046 -0.6584
  386MOL0     H50938  10.685   4.037   6.806  1.2477  1.3334 -0.4503
  386MOL0     H50939  10.898   4.128   6.776  1.8092  0.5474 -0.9112
  386MOL0     H50940  11.365   3.927   6.486 -4.0378  0.8901  3.7696
  386MOL0     H50941  11.592   4.033   6.431 -0.9233  0.6953  1.0937
  386MOL0     H50942  11.653   4.424   6.619  0.3759 -1.0063  1.4095
  386MOL0     H50943  11.653   4.474   6.439  0.9602 -3.0852 -2.3650
  386MOL0     H50944  11.865   4.525   6.552  2.5668  0.2115 -1.4754
  386MOL0     H50945  11.872   4.348   6.594 -1.4634 -1.2814 -0.4036
  386MOL0     H50946  11.849   4.447   6.299  0.2385 -3.2451 -1.7637
  386MOL0     H50947  11.905   4.291   6.343  2.1164  0.8217 -1.2686
  386MOL0     H50948  12.114   4.440   6.284  2.2432  0.1838  0.3126
  386MOL0     H50949  12.042   4.549   6.405 -1.6459 -1.7687  1.9302
  386MOL0     H50950  12.284   4.283   6.623  0.6728 -0.6793 -0.0560
  386MOL0     H50951  11.431   4.417   6.547 -4.0856 -0.1223  1.1025
  386MOL0     H50952  11.229   4.315   6.585  1.3765  1.6489  0.9338
  387MOL0     O50953   3.011   7.169   0.710 -0.3330 -0.5773  0.6452
  387MOL0     C50954   3.125   7.198   0.673  0.8578 -0.2217  0.6221
  387MOL0     O50955   3.185   7.179   0.554 -0.0398  0.6809 -1.1433
  387MOL0     C50956   3.131   7.094   0.462 -0.3954 -0.1594  0.2090
  387MOL0     C50957   3.173   7.125   0.331 -0.7190 -1.2778 -0.5144
  387MOL0     C50958   3.139   7.039   0.224 -0.9946  0.7555  0.3742
  387MOL0     C50959   3.071   6.923   0.245  1.3048  0.0201 -0.3330
  387MOL0     O50960   3.038   6.834   0.149 -0.3609 -0.6671  0.9067
  387MOL0     C50961   3.138   6.731   0.151 -0.0083  0.4037 -0.0903
  387MOL0     C50962   3.215   6.724   0.022  0.7138  0.4600  0.7541
  387MOL0     C50963   3.116   6.708  -0.092  0.1620  0.5588  0.4409
  387MOL0     C50964   3.183   6.734  -0.226  0.8243  0.3656 -0.7031
  387MOL0     C50965   3.093   6.718  -0.340 -0.6650 -0.9239 -0.0590
  387MOL0     C50966   3.146   6.747  -0.483  0.4325  0.2233  0.5677
  387MOL0     C50967   3.196   6.888  -0.519 -1.5182 -0.2165 -0.1928
  387MOL0     C50968   3.157   6.914  -0.662  0.4626 -1.1491  1.1765
  387MOL0     N50969   3.224   6.835  -0.765  0.1734  1.0476 -0.0638
  387MOL0     C50970   3.343   6.855  -0.816  0.1007 -0.3836  0.1948
  387MOL0     C50971   3.370   6.739  -0.878 -0.2851 -0.0033  0.1614
  387MOL0     C50972   3.502   6.705  -0.925  0.5748 -0.2091 -0.2660
  387MOL0     C50973   3.621   6.717  -0.824 -0.3479  0.2647  0.6102
  387MOL0     C50974   3.584   6.633  -0.703  0.5963  0.4059 -0.8309
  387MOL0     C50975   3.668   6.680  -0.575 -0.0102  0.1014  0.9505
  387MOL0     O50976   3.613   6.801  -0.532  0.0863  0.4890  0.6007
  387MOL0     C50977   3.632   6.837  -0.402  1.2723 -0.1427 -0.0204
  387MOL0     C50978   3.732   6.782  -0.315 -0.2572 -0.4614  0.5865
  387MOL0     C50979   3.737   6.823  -0.181 -1.1177 -0.3158  0.6049
  387MOL0     C50980   3.644   6.907  -0.119  0.1876 -1.1474  0.7062
  387MOL0     C50981   3.648   6.950   0.020 -0.0981 -0.6420 -0.2914
  387MOL0     O50982   3.542   7.001   0.078 -0.2298 -0.9171  0.5327
  387MOL0     C50983   3.533   6.995   0.220  0.9363 -0.5981  0.4388
  387MOL0     C50984   3.465   6.882   0.274 -0.6957  0.3853  0.0545
  387MOL0     C50985   3.451   6.869   0.408 -0.6966 -0.7818  0.4986
  387MOL0     C50986   3.465   6.983   0.495  0.3524 -0.1080 -0.0924
  387MOL0     O50987   3.437   6.992   0.630  0.1241  0.0864  0.0594
  387MOL0     C50988   3.444   6.876   0.714  0.3001 -0.0861  0.1823
  387MOL0     C50989   3.505   6.922   0.852 -0.4067  0.4568  0.3217
  387MOL0     C50990   3.597   6.809   0.907 -0.1259  0.5427 -0.0967
  387MOL0     C50991   3.506   6.702   0.973 -0.4605 -0.6740  0.4594
  387MOL0     C50992   3.606   6.585   0.994 -0.0905 -0.1093  0.1372
  387MOL0     C50993   3.527   6.458   1.042 -0.2866  0.3396 -0.2461
  387MOL0     C50994   3.622   6.355   1.117 -0.3057 -0.3547  0.2479
  387MOL0     C50995   3.569   6.212   1.124  0.4530 -0.0735 -0.8700
  387MOL0    Cl50996   3.381   6.187   1.142  0.3264  0.0387 -0.4945
  387MOL0     C50997   3.523   7.097   0.439  0.0026  0.8806 -0.0701
  387MOL0     C50998   3.562   7.102   0.305 -0.1434  0.3177 -0.0387
  387MOL0     O50999   3.757   6.932   0.076 -0.5356 -0.4094 -0.2617
  387MOL0     C51000   3.551   6.969  -0.209 -0.2307 -0.5649 -0.0365
  387MOL0     C51001   3.546   6.932  -0.345  0.6734 -0.8547  0.7546
  387MOL0     N51002   3.265   6.648  -0.871 -0.0988 -0.0857  0.0510
  387MOL0     N51003   3.184   6.708  -0.801  0.0719 -0.5295  0.5258
  387MOL0     C51004   3.019   6.901   0.376  1.1111 -0.9183  0.7445
  387MOL0     C51005   3.053   6.982   0.484 -0.0080 -0.1361  0.2710
  387MOL0     C51006   3.216   7.231   0.776 -0.4732  0.0004 -0.0489
  387MOL0     C51007   3.344   7.281   0.750  0.1471  0.1836  0.0211
  387MOL0     C51008   3.432   7.305   0.842 -1.0735  0.4918 -0.5513
  387MOL0     C51009   3.411   7.269   0.971 -0.2942  0.6219  0.3293
  387MOL0     O51010   3.504   7.267   1.064 -0.7933  0.4357 -0.5878
  387MOL0     C51011   3.624   7.341   1.056 -0.3137  0.6099  0.8377
  387MOL0     C51012   3.717   7.262   1.146 -0.7484  0.2053 -0.0594
  387MOL0     C51013   3.783   7.142   1.085 -0.5766 -0.3400  0.1891
  387MOL0     C51014   3.931   7.136   1.112  0.8986  0.2371  0.5533
  387MOL0     C51015   4.001   7.225   1.013  0.3008  0.2417  0.6838
  387MOL0     C51016   4.062   7.301   0.942  0.5926 -0.1582 -0.6263
  387MOL0     C51017   3.286   7.223   1.009 -0.0208  0.1996  0.2049
  387MOL0     C51018   3.186   7.210   0.913 -0.8151 -1.0258  0.9887
  387MOL0     H51019   3.239   7.210   0.315 -1.2503 -0.2263  2.4067
  387MOL0     H51020   3.163   7.059   0.120  2.4075 -2.0297  0.4331
  387MOL0     H51021   3.084   6.639   0.177  0.4575  0.1664  0.0483
  387MOL0     H51022   3.211   6.750   0.229 -2.0219  2.2351  1.4663
  387MOL0     H51023   3.292   6.646   0.020  0.3792  0.1248 -1.2104
  387MOL0     H51024   3.262   6.823   0.010  1.2039  0.0514 -1.0810
  387MOL0     H51025   3.025   6.768  -0.084  0.5078  1.4817 -1.8838
  387MOL0     H51026   3.090   6.603  -0.083  3.7553 -0.4829  0.3179
  387MOL0     H51027   3.212   6.839  -0.218 -0.3491  0.6273  0.3740
  387MOL0     H51028   3.270   6.669  -0.237 -0.8009 -1.8972 -0.9586
  387MOL0     H51029   3.013   6.792  -0.330 -0.7553 -1.0425  0.0953
  387MOL0     H51030   3.051   6.618  -0.329 -4.3773  0.1757 -2.4152
  387MOL0     H51031   3.057   6.732  -0.546  1.8249 -2.1433 -0.9996
  387MOL0     H51032   3.216   6.669  -0.512  1.9880  2.5716 -2.5629
  387MOL0     H51033   3.143   6.968  -0.466  0.7954  1.1214  0.2227
  387MOL0     H51034   3.302   6.893  -0.495 -1.2956  1.2210 -1.3440
  387MOL0     H51035   3.163   7.019  -0.694  3.8412 -2.2341 -2.5570
  387MOL0     H51036   3.050   6.893  -0.667  0.5310 -1.1998 -0.9961
  387MOL0     H51037   3.407   6.943  -0.805  2.1070 -1.6434 -0.7440
  387MOL0     H51038   3.521   6.767  -1.013 -2.2639  0.6544 -0.3702
  387MOL0     H51039   3.498   6.604  -0.967  1.8846 -0.5749  0.4341
  387MOL0     H51040   3.633   6.823  -0.797  0.1978  0.4974 -0.4994
  387MOL0     H51041   3.711   6.673  -0.868 -1.6102 -3.2273  1.2082
  387MOL0     H51042   3.477   6.650  -0.684  0.8536  1.5079 -0.2796
  387MOL0     H51043   3.598   6.528  -0.731 -2.4762  0.1208 -1.6482
  387MOL0     H51044   3.772   6.700  -0.599 -0.6036  3.1988  0.6132
  387MOL0     H51045   3.650   6.600  -0.503  3.2425 -2.0787 -0.4214
  387MOL0     H51046   3.801   6.705  -0.346 -0.0306  0.2988 -0.9281
  387MOL0     H51047   3.822   6.798  -0.118 -1.9793 -0.8643  1.5767
  387MOL0     H51048   3.419   6.810   0.208 -0.3501  2.0027 -2.0600
  387MOL0     H51049   3.407   6.776   0.441 -1.2250 -0.0315  2.0103
  387MOL0     H51050   3.501   6.801   0.658  1.6012  2.5485 -2.2796
  387MOL0     H51051   3.340   6.844   0.725  0.6497 -0.5775  2.5661
  387MOL0     H51052   3.416   6.932   0.916 -0.9978 -1.5524 -0.1235
  387MOL0     H51053   3.556   7.018   0.841  1.0471 -0.4564 -1.4597
  387MOL0     H51054   3.666   6.842   0.985  0.9122  0.2302 -0.8705
  387MOL0     H51055   3.660   6.768   0.828 -0.1962  1.9173 -0.8866
  387MOL0     H51056   3.444   6.744   1.053  0.5342  2.5570 -0.3019
  387MOL0     H51057   3.427   6.664   0.908 -1.8046  2.2509  0.1942
  387MOL0     H51058   3.695   6.611   1.052 -1.1332  3.7178  0.3157
  387MOL0     H51059   3.641   6.572   0.891  0.2302  3.4216 -0.3273
  387MOL0     H51060   3.492   6.410   0.950  3.7000 -0.2184 -1.6747
  387MOL0     H51061   3.453   6.486   1.117  1.5583  1.9750  1.0420
  387MOL0     H51062   3.721   6.364   1.071  0.4133  2.8864  2.1344
  387MOL0     H51063   3.628   6.386   1.221  1.7386  0.8383 -0.1707
  387MOL0     H51064   3.623   6.159   1.204  0.0484  0.6206 -0.1172
  387MOL0     H51065   3.602   6.156   1.036  2.5268 -0.5220  0.1259
  387MOL0     H51066   3.536   7.175   0.513 -1.4345 -1.6783  3.1369
  387MOL0     H51067   3.615   7.185   0.260 -1.8284  1.4381 -0.0440
  387MOL0     H51068   3.482   7.047  -0.180 -2.1052 -1.9967 -0.4316
  387MOL0     H51069   3.468   6.983  -0.401  0.9828 -0.9358  0.2455
  387MOL0     H51070   2.946   6.823   0.399 -0.8158  1.7654  4.7323
  387MOL0     H51071   3.019   6.964   0.586  0.8594  0.1774  0.6258
  387MOL0     H51072   3.370   7.306   0.647 -2.7780 -3.4293 -1.8294
  387MOL0     H51073   3.524   7.349   0.805 -1.7835  1.4723 -1.2100
  387MOL0     H51074   3.600   7.442   1.091  0.9313  0.2547  2.8828
  387MOL0     H51075   3.670   7.332   0.957 -0.0613  0.6677  0.9497
  387MOL0     H51076   3.778   7.346   1.181 -4.7452  2.5761  1.9765
  387MOL0     H51077   3.658   7.224   1.230  2.4534 -2.1215  1.3361
  387MOL0     H51078   3.770   7.143   0.977  5.2220 -0.7258 -0.8134
  387MOL0     H51079   3.736   7.048   1.117  2.2323 -2.4763 -1.5423
  387MOL0     H51080   3.937   7.159   1.218  2.4512 -1.5943  0.8985
  387MOL0     H51081   3.994   7.050   1.087  0.0521 -0.6763  1.4701
  387MOL0     H51082   4.131   7.359   0.885  0.8549 -0.7096 -0.8844
  387MOL0     H51083   3.252   7.200   1.109  0.5823  0.4873  0.4780
  387MOL0     H51084   3.090   7.172   0.946 -2.0514  1.7610  0.8928
  388MOL0     O51085   6.441   1.958   2.932  0.0910  0.0638  0.0761
  388MOL0     C51086   6.466   2.065   2.994 -0.6469 -0.7119  0.6241
  388MOL0     O51087   6.376   2.157   3.021 -0.2689  0.1448 -0.1583
  388MOL0     C51088   6.243   2.122   2.992 -0.4740 -0.6018  0.0352
  388MOL0     C51089   6.166   2.048   3.082  1.2941 -0.0292  0.5841
  388MOL0     C51090   6.035   2.009   3.047 -0.2141 -0.4472 -0.0142
  388MOL0     C51091   5.974   2.059   2.927 -0.9895 -0.5955 -0.4616
  388MOL0     O51092   5.838   2.046   2.897 -0.1742 -0.5646 -0.1794
  388MOL0     C51093   5.781   1.920   2.931 -0.4513  0.7713 -0.9422
  388MOL0     C51094   5.633   1.930   2.953  0.5414 -0.0590 -0.0524
  388MOL0     C51095   5.566   1.798   3.009  1.2318 -0.3452 -0.4175
  388MOL0     C51096   5.447   1.819   3.092 -0.5194 -0.3726  0.2237
  388MOL0     C51097   5.338   1.901   3.010 -0.6908 -0.3561 -0.0496
  388MOL0     C51098   5.195   1.887   3.067  0.2870 -0.4112  0.0449
  388MOL0     C51099   5.069   1.932   2.983 -0.1071  0.5375  0.3225
  388MOL0     C51100   4.939   1.951   3.061 -0.4280  1.1354 -0.7031
  388MOL0     N51101   4.814   1.932   2.991 -0.3065 -0.0106 -0.1804
  388MOL0     C51102   4.795   1.964   2.856  0.3227 -1.0831  0.4206
  388MOL0     C51103   4.664   1.966   2.845 -0.4426 -0.1127  0.5214
  388MOL0     C51104   4.582   2.010   2.727  0.1170 -0.2058 -0.1426
  388MOL0     C51105   4.625   1.954   2.585 -0.8857 -0.0657 -0.5018
  388MOL0     C51106   4.551   2.010   2.464  0.1713 -0.8709  0.5823
  388MOL0     C51107   4.571   1.930   2.331  0.5727  0.0214 -1.2623
  388MOL0     O51108   4.543   2.020   2.240 -0.1097 -0.7026 -0.5699
  388MOL0     C51109   4.419   2.011   2.175  0.5207 -0.2265  0.0009
  388MOL0     C51110   4.309   1.932   2.210  1.2999 -0.2027  0.3222
  388MOL0     C51111   4.193   1.934   2.130  0.3236 -0.9382  0.2458
  388MOL0     C51112   4.189   2.007   2.010  0.4219 -0.8082  0.0587
  388MOL0     C51113   4.082   1.983   1.918 -0.3619  0.6049  0.2671
  388MOL0     O51114   3.974   1.915   1.962 -1.1054 -0.2767 -1.3071
  388MOL0     C51115   3.874   1.867   1.870 -0.0320  0.1683 -0.6978
  388MOL0     C51116   3.906   1.812   1.748  0.4823 -0.1217  0.2709
  388MOL0     C51117   3.799   1.754   1.669 -0.8788 -0.4195  0.5893
  388MOL0     C51118   3.665   1.744   1.712 -0.5988  0.5474 -0.0398
  388MOL0     O51119   3.573   1.678   1.644  0.9295 -0.4890 -0.5771
  388MOL0     C51120   3.435   1.708   1.645  0.0886  0.6794 -0.0967
  388MOL0     C51121   3.373   1.603   1.542  0.4415 -0.2340 -0.4305
  388MOL0     C51122   3.417   1.617   1.397 -0.1523 -0.5992 -0.2842
  388MOL0     C51123   3.371   1.495   1.303 -0.0174 -0.4186 -0.5557
  388MOL0     C51124   3.233   1.508   1.245  0.7362 -0.0252 -0.5105
  388MOL0     C51125   3.226   1.595   1.123  0.2119 -0.1645  0.5172
  388MOL0     C51126   3.099   1.572   1.034 -0.2603 -0.4682  0.9013
  388MOL0     C51127   3.113   1.649   0.899  0.5976 -0.1105  0.3345
  388MOL0    Cl51128   3.232   1.572   0.772 -0.1168  0.2542  0.1025
  388MOL0     C51129   3.639   1.805   1.840  0.1351 -0.4004  0.2047
  388MOL0     C51130   3.745   1.864   1.909 -0.5653 -0.2751  1.1916
  388MOL0     O51131   4.087   2.036   1.804 -0.3430  0.1231 -0.3588
  388MOL0     C51132   4.300   2.091   1.978  1.0335  0.5262  0.2821
  388MOL0     C51133   4.412   2.095   2.060  0.4351  1.0371 -0.4877
  388MOL0     N51134   4.603   1.939   2.965  0.1164 -0.6747 -0.6456
  388MOL0     N51135   4.691   1.918   3.055  0.0301 -0.3968 -0.7768
  388MOL0     C51136   6.055   2.138   2.847 -0.2512 -0.3888 -0.0025
  388MOL0     C51137   6.187   2.159   2.870  0.0705 -0.1179 -0.2338
  388MOL0     C51138   6.605   2.103   3.038 -1.0588 -0.8431  0.3305
  388MOL0     C51139   6.712   2.009   3.024  0.3759 -0.8135  0.6329
  388MOL0     C51140   6.837   2.050   3.061 -0.5537  0.3027 -0.1377
  388MOL0     C51141   6.867   2.168   3.131 -0.4005  0.6768 -0.3509
  388MOL0     O51142   6.992   2.200   3.184 -0.2827 -0.2634 -0.4450
  388MOL0     C51143   7.110   2.113   3.167  1.4690 -0.1224  0.2531
  388MOL0     C51144   7.234   2.169   3.217 -1.0714 -0.0149 -0.1196
  388MOL0     C51145   7.276   2.119   3.356 -0.6374 -0.2487  0.3868
  388MOL0     C51146   7.425   2.148   3.391 -0.1120 -0.4632  0.5393
  388MOL0     C51147   7.418   2.280   3.465  0.7986  0.0291 -0.1753
  388MOL0     C51148   7.420   2.383   3.521  1.0697 -0.0842 -0.5870
  388MOL0     C51149   6.756   2.255   3.156 -0.3870  1.1396 -0.4911
  388MOL0     C51150   6.632   2.226   3.103  0.5631 -0.1471  1.3269
  388MOL0     H51151   6.195   2.014   3.181  3.4114  3.5702  1.3622
  388MOL0     H51152   5.977   1.949   3.116  0.1650 -1.8949 -0.9211
  388MOL0     H51153   5.819   1.876   3.024 -1.9948  0.7293 -0.3019
  388MOL0     H51154   5.817   1.851   2.854 -1.5939 -0.9935  0.0184
  388MOL0     H51155   5.593   1.979   2.863 -3.2891  1.1403  2.0704
  388MOL0     H51156   5.618   2.004   3.033 -1.7898 -1.0452  0.4981
  388MOL0     H51157   5.635   1.740   3.071 -1.4492 -0.9071  2.2556
  388MOL0     H51158   5.539   1.738   2.922  0.0495 -1.3688  0.6204
  388MOL0     H51159   5.404   1.725   3.128 -3.3630  0.0883 -1.6556
  388MOL0     H51160   5.476   1.874   3.182  1.9033 -2.5729  0.9334
  388MOL0     H51161   5.337   1.861   2.908  5.6382  1.4281 -1.1978
  388MOL0     H51162   5.361   2.006   2.994  0.9784 -0.6414  0.3096
  388MOL0     H51163   5.200   1.946   3.159 -1.9834 -0.8495  0.5065
  388MOL0     H51164   5.180   1.781   3.087  0.9791 -1.7105 -4.8845
  388MOL0     H51165   5.078   2.026   2.927 -2.8157  1.8456  1.8540
  388MOL0     H51166   5.052   1.850   2.914  0.5972  0.4242  0.2748
  388MOL0     H51167   4.940   2.040   3.124 -0.4030  0.6938 -0.0639
  388MOL0     H51168   4.934   1.866   3.130 -0.3273  1.5534 -0.1732
  388MOL0     H51169   4.875   1.990   2.787  2.2197  2.9257  3.6907
  388MOL0     H51170   4.582   2.119   2.741 -0.1418  0.0662 -2.0307
  388MOL0     H51171   4.480   1.981   2.753 -0.4066  1.5738 -0.0469
  388MOL0     H51172   4.617   1.845   2.592  2.8473 -0.4246  0.0855
  388MOL0     H51173   4.731   1.977   2.577 -0.8332 -0.3208 -0.5603
  388MOL0     H51174   4.444   2.003   2.485 -0.2484  4.2969  1.3036
  388MOL0     H51175   4.560   2.118   2.451 -1.1668 -0.5913  1.7342
  388MOL0     H51176   4.525   1.831   2.327  1.7308 -0.5427 -1.2943
  388MOL0     H51177   4.677   1.910   2.311  2.0176  2.1850  3.0972
  388MOL0     H51178   4.299   1.881   2.305 -1.3104 -0.1657  0.1369
  388MOL0     H51179   4.111   1.868   2.159 -0.2155  0.3933  1.9613
  388MOL0     H51180   4.007   1.813   1.708 -0.9532  2.3089 -3.9531
  388MOL0     H51181   3.826   1.709   1.574 -1.0019  0.1962  0.2617
  388MOL0     H51182   3.417   1.810   1.608  0.9240  0.6474 -0.6077
  388MOL0     H51183   3.405   1.690   1.749  0.6148  2.9314  0.5177
  388MOL0     H51184   3.266   1.588   1.559 -0.0715  1.5881 -1.7373
  388MOL0     H51185   3.399   1.498   1.558 -2.3258 -1.2678 -1.9593
  388MOL0     H51186   3.526   1.618   1.393 -0.1804 -1.0394 -1.4702
  388MOL0     H51187   3.389   1.714   1.357  1.5589 -0.1855 -0.5436
  388MOL0     H51188   3.441   1.484   1.220 -0.4850  2.5803 -1.5004
  388MOL0     H51189   3.387   1.402   1.358  0.9857  1.2506  2.1659
  388MOL0     H51190   3.162   1.542   1.321  0.4626 -2.8520  0.5922
  388MOL0     H51191   3.212   1.404   1.221  2.4927 -0.3306 -0.9013
  388MOL0     H51192   3.313   1.571   1.062 -0.9243 -0.4555 -1.0691
  388MOL0     H51193   3.227   1.702   1.146  0.1171  0.4839 -2.1893
  388MOL0     H51194   3.089   1.465   1.016  0.0578 -0.6692  1.8585
  388MOL0     H51195   3.008   1.602   1.089  1.1413  2.9443  1.6323
  388MOL0     H51196   3.148   1.752   0.905  4.0925 -1.1220 -0.4065
  388MOL0     H51197   3.017   1.650   0.846  2.0995  1.1770 -2.6237
  388MOL0     H51198   3.542   1.796   1.888  0.1841 -2.1338  0.0205
  388MOL0     H51199   3.720   1.909   2.005  4.8796  2.2934  1.8137
  388MOL0     H51200   4.304   2.152   1.888 -1.3276  0.6304  0.1700
  388MOL0     H51201   4.495   2.163   2.047  0.1482  0.9735 -3.1632
  388MOL0     H51202   6.000   2.173   2.760 -1.2780 -3.1726 -0.5951
  388MOL0     H51203   6.234   2.230   2.802 -1.1211  1.4921  0.5411
  388MOL0     H51204   6.686   1.922   2.966  1.3470 -2.4702  2.5682
  388MOL0     H51205   6.915   1.977   3.039 -3.0293 -1.9726 -1.9258
  388MOL0     H51206   7.111   2.088   3.061 -2.2489 -0.8257  0.2290
  388MOL0     H51207   7.086   2.020   3.220  0.6693  0.6246  1.2481
  388MOL0     H51208   7.311   2.153   3.141 -0.1277  4.5993 -0.4465
  388MOL0     H51209   7.238   2.279   3.211 -0.4515  0.0163  0.7940
  388MOL0     H51210   7.271   2.010   3.357  2.2153 -0.5134 -1.6616
  388MOL0     H51211   7.204   2.161   3.427 -0.9098  0.6153 -0.3748
  388MOL0     H51212   7.447   2.061   3.454 -2.1408 -0.8567  0.7675
  388MOL0     H51213   7.496   2.137   3.309 -1.0663  1.0763 -0.5539
  388MOL0     H51214   7.423   2.471   3.583 -0.1294 -1.1039  0.9971
  388MOL0     H51215   6.781   2.341   3.218 -3.5216 -0.4347  3.4023
  388MOL0     H51216   6.554   2.294   3.137  1.0621 -0.3634  3.0048
  389MOL0     O51217   9.905   0.541   2.221 -0.5878  0.2707  0.1784
  389MOL0     C51218   9.937   0.588   2.110  0.4065  1.4183 -0.4514
  389MOL0     O51219  10.061   0.606   2.069 -0.6709  0.0125 -0.4738
  389MOL0     C51220  10.173   0.574   2.152  0.9322 -0.0564  1.0036
  389MOL0     C51221  10.252   0.470   2.105 -0.9169  1.0723 -0.9870
  389MOL0     C51222  10.350   0.426   2.197 -0.6540  0.6968 -0.8308
  389MOL0     C51223  10.371   0.478   2.321  0.6623  0.0380  0.1481
  389MOL0     O51224  10.466   0.434   2.409 -0.7950 -0.0422 -0.3980
  389MOL0     C51225  10.602   0.411   2.362 -0.3386  0.3561  0.3728
  389MOL0     C51226  10.693   0.453   2.482 -1.1105 -0.5817  0.2141
  389MOL0     C51227  10.710   0.604   2.489  0.2499  0.1672  0.9295
  389MOL0     C51228  10.787   0.638   2.606 -1.1513  0.3437  0.2953
  389MOL0     C51229  10.776   0.793   2.615 -0.3381 -0.3025  0.1643
  389MOL0     C51230  10.809   0.877   2.498 -0.2428 -0.0516 -0.8425
  389MOL0     C51231  10.839   1.025   2.531 -0.1715  0.7077  0.0634
  389MOL0     C51232  10.900   1.094   2.409 -0.2093  0.7532  0.1125
  389MOL0     N51233  10.931   1.238   2.432 -0.0037  0.1442 -0.6628
  389MOL0     C51234  10.837   1.337   2.400  0.8045  0.7407 -0.5792
  389MOL0     C51235  10.897   1.457   2.402  0.4947 -0.6955  0.0735
  389MOL0     C51236  10.846   1.601   2.383 -0.4090  0.7046  0.2342
  389MOL0     C51237  10.761   1.646   2.506 -0.1382 -0.3517 -0.2527
  389MOL0     C51238  10.847   1.657   2.631  0.5253  0.6650  1.1339
  389MOL0     C51239  10.948   1.779   2.619 -0.4820  0.1916 -0.4884
  389MOL0     O51240  10.894   1.894   2.556 -0.0349  0.2759  0.0386
  389MOL0     C51241  10.796   1.959   2.615  0.6065 -0.0645  0.3470
  389MOL0     C51242  10.681   1.975   2.545  0.0401 -0.2165  0.3262
  389MOL0     C51243  10.572   2.024   2.613 -0.2269  0.2432 -0.2350
  389MOL0     C51244  10.583   2.090   2.736  0.6733 -0.0007  0.2075
  389MOL0     C51245  10.474   2.181   2.772 -0.4720 -0.4455  0.4399
  389MOL0     O51246  10.469   2.221   2.899  0.2091 -0.2340  1.0098
  389MOL0     C51247  10.359   2.293   2.935  0.4296 -0.7836  0.2767
  389MOL0     C51248  10.363   2.427   2.918 -0.1117  0.2221 -0.0939
  389MOL0     C51249  10.252   2.506   2.956 -0.7960  1.8524  0.1505
  389MOL0     C51250  10.134   2.454   3.023 -0.0303  1.0385 -0.0017
  389MOL0     O51251  10.038   2.531   3.070  0.4973 -0.1338  0.6484
  389MOL0     C51252   9.986   2.626   2.966  0.0129 -0.8505  0.8122
  389MOL0     C51253   9.842   2.659   2.990 -0.5834 -0.9408 -0.2331
  389MOL0     C51254   9.800   2.747   2.873 -0.7882 -0.0329 -0.0635
  389MOL0     C51255   9.658   2.792   2.880 -0.3541  0.1683  0.4801
  389MOL0     C51256   9.633   2.856   2.749  0.2879 -0.0886  0.4874
  389MOL0     C51257   9.482   2.857   2.709 -0.2456 -0.5167 -0.9618
  389MOL0     C51258   9.394   2.924   2.809  0.2410  0.1359 -0.1184
  389MOL0     C51259   9.252   2.942   2.764  0.1217  0.2313 -0.8727
  389MOL0    Cl51260   9.267   3.055   2.633 -0.6967 -0.1366  0.2357
  389MOL0     C51261  10.126   2.308   3.021 -0.8874  0.4525  0.2772
  389MOL0     C51262  10.239   2.229   2.980 -0.1349 -0.7111  0.3935
  389MOL0     O51263  10.405   2.230   2.680  0.3780 -0.1246 -0.0008
  389MOL0     C51264  10.712   2.082   2.804 -0.3355  0.0394 -1.5308
  389MOL0     C51265  10.821   2.012   2.740  0.6100 -0.3115 -0.4920
  389MOL0     N51266  11.035   1.431   2.434 -0.6081 -0.8586 -0.2922
  389MOL0     N51267  11.048   1.301   2.436 -0.4097 -0.2955  0.2090
  389MOL0     C51268  10.306   0.599   2.352 -0.2706 -0.8125 -0.8163
  389MOL0     C51269  10.194   0.635   2.275  0.3449 -0.4600  0.5755
  389MOL0     C51270   9.832   0.614   2.006 -0.8074 -0.2020  0.4035
  389MOL0     C51271   9.869   0.662   1.880  0.0596 -0.7973  0.7134
  389MOL0     C51272   9.772   0.662   1.777  0.5866 -0.3020  0.2326
  389MOL0     C51273   9.635   0.627   1.800  0.7885 -0.1179  0.2435
  389MOL0     O51274   9.528   0.628   1.715  0.6897  0.3136  0.0208
  389MOL0     C51275   9.554   0.634   1.577  0.3830 -0.2928  0.5963
  389MOL0     C51276   9.594   0.497   1.533  0.2955 -0.3548  0.4443
  389MOL0     C51277   9.740   0.490   1.497 -0.5667  0.4258 -0.4209
  389MOL0     C51278   9.784   0.367   1.413  0.5646 -0.3256  0.0198
  389MOL0     C51279   9.921   0.336   1.465  0.9641  0.2877  0.6056
  389MOL0     C51280  10.034   0.334   1.511 -0.3124 -0.2770 -0.0389
  389MOL0     C51281   9.609   0.599   1.935  0.0325 -0.6751 -0.6670
  389MOL0     C51282   9.702   0.582   2.034 -0.0428  0.3432 -0.1793
  389MOL0     H51283  10.257   0.418   2.009 -1.5532 -2.0679  0.5274
  389MOL0     H51284  10.398   0.335   2.162  1.9919  2.3319 -1.7706
  389MOL0     H51285  10.628   0.451   2.264  2.9426 -0.1798  0.9100
  389MOL0     H51286  10.628   0.304   2.362  1.6386  0.7989  0.8293
  389MOL0     H51287  10.796   0.417   2.467 -1.0695 -0.1806 -0.5439
  389MOL0     H51288  10.638   0.422   2.571  0.0878 -0.4931  1.0096
  389MOL0     H51289  10.612   0.647   2.511 -1.5725 -1.7652 -2.5453
  389MOL0     H51290  10.746   0.655   2.399 -0.8949  3.2457  2.0705
  389MOL0     H51291  10.745   0.595   2.697 -1.9560  1.9552  0.7209
  389MOL0     H51292  10.890   0.604   2.594 -0.9484  0.2525  2.0699
  389MOL0     H51293  10.845   0.826   2.693 -1.6750  4.1607 -0.2692
  389MOL0     H51294  10.674   0.813   2.649 -0.0856 -0.3288  0.9528
  389MOL0     H51295  10.727   0.879   2.426  0.6199  0.5478 -1.8544
  389MOL0     H51296  10.894   0.831   2.446  0.6498  0.6917 -0.0881
  389MOL0     H51297  10.740   1.066   2.556 -1.0098 -0.2578 -1.5011
  389MOL0     H51298  10.906   1.034   2.617  0.2101  0.7486 -0.2338
  389MOL0     H51299  10.840   1.086   2.318 -1.4977 -3.2378  1.1353
  389MOL0     H51300  10.995   1.046   2.383 -0.9561  0.0257 -1.4486
  389MOL0     H51301  10.731   1.324   2.382  0.4547  0.0687  1.6433
  389MOL0     H51302  10.789   1.605   2.290 -0.0499 -0.9319 -0.0863
  389MOL0     H51303  10.931   1.669   2.376  1.5411 -1.2538  2.9684
  389MOL0     H51304  10.684   1.570   2.519  0.0608 -0.7605 -1.3193
  389MOL0     H51305  10.721   1.747   2.494 -1.0052 -0.5759  0.6730
  389MOL0     H51306  10.779   1.669   2.716  1.7695 -2.3243  2.7119
  389MOL0     H51307  10.903   1.567   2.659 -1.0798 -0.9186 -0.5378
  389MOL0     H51308  11.037   1.739   2.569  0.8286 -2.8898  3.6967
  389MOL0     H51309  10.985   1.811   2.716 -0.5705  1.7160 -0.9356
  389MOL0     H51310  10.662   1.930   2.448 -2.8014 -0.4742  0.9146
  389MOL0     H51311  10.479   2.040   2.559 -0.5953  0.3230  0.4163
  389MOL0     H51312  10.450   2.473   2.872 -0.5012  1.0844  0.0037
  389MOL0     H51313  10.263   2.611   2.933  1.2880  1.4020 -1.1781
  389MOL0     H51314   9.984   2.583   2.866 -1.7574  0.7977  0.0868
  389MOL0     H51315  10.042   2.720   2.970 -0.1464 -0.5819 -1.6563
  389MOL0     H51316   9.827   2.721   3.078  3.2657  1.9060 -1.3239
  389MOL0     H51317   9.775   2.573   2.989 -2.3673  0.3930  0.1429
  389MOL0     H51318   9.822   2.693   2.780  1.7732  1.2739 -0.2892
  389MOL0     H51319   9.866   2.833   2.883  4.6557 -3.8557  1.2996
  389MOL0     H51320   9.601   2.699   2.872  1.1480 -0.7876  0.4832
  389MOL0     H51321   9.641   2.858   2.965 -3.0244  1.5134 -0.9431
  389MOL0     H51322   9.679   2.792   2.672 -2.0625 -1.2854 -0.0185
  389MOL0     H51323   9.667   2.958   2.730 -0.7723  0.1856  0.0135
  389MOL0     H51324   9.445   2.757   2.686 -3.4601  0.4591 -0.4924
  389MOL0     H51325   9.480   2.914   2.615 -0.8845 -1.1076 -1.3096
  389MOL0     H51326   9.392   2.869   2.904  0.8849  4.5730  2.7377
  389MOL0     H51327   9.441   3.020   2.830  1.8949 -0.6670  0.0426
  389MOL0     H51328   9.185   2.977   2.843 -0.0411 -4.5551  1.4813
  389MOL0     H51329   9.227   2.842   2.727 -0.6177  0.5327 -1.2093
  389MOL0     H51330  10.041   2.264   3.072 -2.4839  3.8348  0.7833
  389MOL0     H51331  10.226   2.121   2.989  1.6393 -1.2346 -2.4069
  389MOL0     H51332  10.736   2.126   2.900  2.3100 -1.7938 -1.2688
  389MOL0     H51333  10.917   2.012   2.789 -0.4016  0.1625  1.5981
  389MOL0     H51334  10.340   0.649   2.442 -0.5059 -3.5654  0.8806
  389MOL0     H51335  10.126   0.718   2.293 -1.2657 -1.7417  0.6269
  389MOL0     H51336   9.964   0.708   1.854 -0.3667 -2.1080 -4.3331
  389MOL0     H51337   9.814   0.695   1.682 -2.6503  2.0853 -0.5440
  389MOL0     H51338   9.629   0.710   1.552  0.2219 -0.3955 -0.2202
  389MOL0     H51339   9.456   0.648   1.531  1.6702  1.0252 -2.0008
  389MOL0     H51340   9.559   0.419   1.601  3.3053 -3.0988 -0.8965
  389MOL0     H51341   9.534   0.479   1.444  2.0271 -0.9886 -0.6391
  389MOL0     H51342   9.800   0.502   1.588  0.5396  1.0033 -1.2039
  389MOL0     H51343   9.762   0.576   1.433  2.5651 -1.4754 -2.1098
  389MOL0     H51344   9.724   0.282   1.446 -1.3733  1.3652  1.0317
  389MOL0     H51345   9.765   0.358   1.306 -0.5768  1.3279  0.0572
  389MOL0     H51346  10.131   0.328   1.557 -0.7314 -1.8213  0.7159
  389MOL0     H51347   9.507   0.579   1.967  0.4976 -1.9451  0.0890
  389MOL0     H51348   9.671   0.541   2.130  1.3529 -0.6089 -0.1061
  390MOL0     O51349   2.988   4.862   5.843  0.2645  0.6108 -0.2684
  390MOL0     C51350   2.984   4.861   5.970  0.0161  0.6443 -0.2877
  390MOL0     O51351   3.085   4.853   6.061 -1.1051 -0.3178 -0.4036
  390MOL0     C51352   3.205   4.888   6.004 -1.0437 -0.3411 -1.1741
  390MOL0     C51353   3.299   4.787   5.993  0.0761  0.2448  0.5793
  390MOL0     C51354   3.428   4.809   5.941 -0.2038  0.5496  0.0945
  390MOL0     C51355   3.469   4.936   5.899 -0.0430 -0.3598  0.2248
  390MOL0     O51356   3.592   4.964   5.853  0.4258 -0.0216  0.6486
  390MOL0     C51357   3.687   4.866   5.815 -0.0613 -0.7205  0.2999
  390MOL0     C51358   3.817   4.935   5.815  0.3073 -0.0543 -0.9324
  390MOL0     C51359   3.937   4.849   5.831 -0.2553 -0.0788 -0.1094
  390MOL0     C51360   3.953   4.752   5.711 -0.2231  0.9004 -0.4173
  390MOL0     C51361   4.091   4.675   5.715  1.1007 -0.2227 -0.3873
  390MOL0     C51362   4.099   4.562   5.622 -0.2587  0.3130  1.6430
  390MOL0     C51363   4.033   4.430   5.680 -0.2298  0.4363 -0.2413
  390MOL0     C51364   4.017   4.311   5.578 -0.3718  0.4289  0.0143
  390MOL0     N51365   3.893   4.329   5.496  0.0668 -0.3924 -0.2310
  390MOL0     C51366   3.772   4.288   5.536 -0.3099 -0.0741  0.4493
  390MOL0     C51367   3.708   4.263   5.422  0.0606 -0.1508 -1.1265
  390MOL0     C51368   3.561   4.237   5.435  0.9216 -0.0916 -0.2605
  390MOL0     C51369   3.485   4.192   5.308  0.4700  0.1035  1.2162
  390MOL0     C51370   3.512   4.288   5.182 -0.1616 -0.6779  0.3071
  390MOL0     C51371   3.411   4.238   5.077  0.1472  0.0128  0.4763
  390MOL0     O51372   3.280   4.297   5.086  0.5808  0.2889 -0.6487
  390MOL0     C51373   3.182   4.263   4.999 -0.5944 -0.2580 -0.8547
  390MOL0     C51374   3.053   4.317   5.014  0.7592  0.0795  0.1800
  390MOL0     C51375   2.949   4.281   4.920 -0.5984 -0.5002 -0.8636
  390MOL0     C51376   2.970   4.189   4.818 -0.8676  0.2524 -0.7263
  390MOL0     C51377   2.863   4.159   4.722 -0.8152  0.2621 -0.7217
  390MOL0     O51378   2.882   4.054   4.643  0.2781 -0.2523  0.3990
  390MOL0     C51379   2.777   4.033   4.549 -1.1523  0.5571 -0.7114
  390MOL0     C51380   2.703   3.910   4.560 -0.0265  1.6563 -0.0953
  390MOL0     C51381   2.613   3.875   4.458  0.1046 -0.0748 -1.2882
  390MOL0     C51382   2.583   3.962   4.351 -0.2961  0.3075 -0.6241
  390MOL0     O51383   2.483   3.930   4.269 -0.1933  0.3331  0.4247
  390MOL0     C51384   2.502   3.976   4.132  0.4242  0.5718  0.4420
  390MOL0     C51385   2.537   3.860   4.039 -0.4653 -0.2515 -0.8717
  390MOL0     C51386   2.649   3.768   4.105 -0.0791  0.0375 -0.5242
  390MOL0     C51387   2.719   3.666   4.008  0.0714 -0.0853 -0.6525
  390MOL0     C51388   2.831   3.723   3.926 -0.1359 -0.1677 -0.5005
  390MOL0     C51389   2.907   3.614   3.852 -0.1171  0.2033 -0.7894
  390MOL0     C51390   3.016   3.673   3.768  0.1679  0.0904 -0.7038
  390MOL0     C51391   3.152   3.606   3.783 -0.7991 -0.4697 -0.7394
  390MOL0    Cl51392   3.266   3.684   3.661 -0.6076  0.4696  0.0736
  390MOL0     C51393   2.652   4.083   4.345 -0.5580 -0.4141  0.4563
  390MOL0     C51394   2.741   4.116   4.443 -0.2965 -0.5615  0.1837
  390MOL0     O51395   2.768   4.231   4.722  0.3617 -0.7012 -0.4763
  390MOL0     C51396   3.100   4.138   4.797  0.5122  0.3132  0.7130
  390MOL0     C51397   3.203   4.177   4.891 -0.0278  0.0309  0.2477
  390MOL0     N51398   3.796   4.284   5.314  0.0291 -0.2625  0.2254
  390MOL0     N51399   3.906   4.322   5.364  0.6158  0.1008  0.1267
  390MOL0     C51400   3.364   5.035   5.892  0.4474 -1.1565 -0.1086
  390MOL0     C51401   3.244   5.010   5.957 -0.2602 -0.5277  0.1192
  390MOL0     C51402   2.845   4.855   6.026  0.4771 -0.8323  0.9849
  390MOL0     C51403   2.811   4.807   6.149  0.7331  0.2391  0.0515
  390MOL0     C51404   2.680   4.800   6.201  0.0497  0.9612 -0.7910
  390MOL0     C51405   2.570   4.850   6.133 -0.1373 -0.4409  0.6025
  390MOL0     O51406   2.445   4.838   6.178  0.2873  0.1598  1.2287
  390MOL0     C51407   2.339   4.920   6.121  0.4256 -0.5147 -0.3458
  390MOL0     C51408   2.202   4.870   6.165  0.3660  0.0024 -0.8552
  390MOL0     C51409   2.183   4.723   6.136  0.3045  1.1118  0.9065
  390MOL0     C51410   2.043   4.666   6.158  0.2033  0.1038 -0.0462
  390MOL0     C51411   1.932   4.743   6.079  0.0742 -0.3771 -0.0653
  390MOL0     C51412   1.837   4.800   6.022 -0.3399  0.6015  0.1881
  390MOL0     C51413   2.602   4.884   5.998 -0.4526 -0.5167 -0.0976
  390MOL0     C51414   2.730   4.893   5.946  0.3123  0.4606  0.1664
  390MOL0     H51415   3.267   4.687   6.022  2.7721 -1.2289 -1.0540
  390MOL0     H51416   3.505   4.732   5.936  1.9302  2.6193 -1.0914
  390MOL0     H51417   3.662   4.847   5.710  0.9119  2.4151 -0.5864
  390MOL0     H51418   3.687   4.785   5.889 -0.0319 -1.4061 -0.4362
  390MOL0     H51419   3.822   5.010   5.895  3.3802 -2.8601  1.7756
  390MOL0     H51420   3.835   4.995   5.724  2.8593 -1.7499 -1.6339
  390MOL0     H51421   3.943   4.812   5.934  1.1086  2.4527  0.8086
  390MOL0     H51422   4.018   4.922   5.834 -1.0878  1.0033 -2.0017
  390MOL0     H51423   3.870   4.681   5.720  0.0316  0.6693  0.1534
  390MOL0     H51424   3.952   4.794   5.610  3.2053  1.1546 -0.4770
  390MOL0     H51425   4.125   4.646   5.815  1.1339  3.1782  0.6921
  390MOL0     H51426   4.162   4.749   5.678 -2.8495  3.1436 -1.9143
  390MOL0     H51427   4.205   4.537   5.608 -0.8285 -1.3455 -0.1970
  390MOL0     H51428   4.046   4.585   5.529 -0.6418  2.3569  2.3224
  390MOL0     H51429   4.102   4.398   5.759  0.4792 -1.2346 -1.4602
  390MOL0     H51430   3.937   4.447   5.729  1.3116  0.0899  3.2127
  390MOL0     H51431   3.998   4.228   5.646  0.0637 -0.4586 -0.9125
  390MOL0     H51432   4.110   4.286   5.526  1.0545 -2.0325  3.3799
  390MOL0     H51433   3.734   4.274   5.637 -0.0185 -2.0135  0.3344
  390MOL0     H51434   3.514   4.332   5.461  1.3123 -0.2471  1.0595
  390MOL0     H51435   3.539   4.155   5.504 -1.8367  1.8894  1.4164
  390MOL0     H51436   3.378   4.199   5.325  0.2474 -3.4844  2.1747
  390MOL0     H51437   3.503   4.090   5.273  0.2072  1.1419 -2.3287
  390MOL0     H51438   3.495   4.392   5.213  0.4535 -1.1309  2.3454
  390MOL0     H51439   3.615   4.273   5.150  0.4954 -1.2998  2.4747
  390MOL0     H51440   3.392   4.130   5.075 -1.0270  0.2201 -0.2037
  390MOL0     H51441   3.465   4.255   4.983  3.5441  0.6920  2.3691
  390MOL0     H51442   3.038   4.405   5.075  2.3990  2.3547 -2.4245
  390MOL0     H51443   2.857   4.337   4.922  0.2525  0.9745 -1.3056
  390MOL0     H51444   2.714   3.848   4.648 -1.2514  1.8329  0.1997
  390MOL0     H51445   2.561   3.780   4.471 -2.0393  1.0458 -1.2278
  390MOL0     H51446   2.572   4.059   4.117  1.5743 -0.4831 -0.2311
  390MOL0     H51447   2.399   3.998   4.106  0.0934 -1.7153 -0.3939
  390MOL0     H51448   2.569   3.888   3.938 -0.5185  1.6533 -0.3811
  390MOL0     H51449   2.451   3.793   4.028  1.2125 -2.4284 -1.4941
  390MOL0     H51450   2.614   3.706   4.188  0.8044  2.6348  1.9445
  390MOL0     H51451   2.724   3.831   4.153 -2.6884  1.7727  1.5600
  390MOL0     H51452   2.769   3.598   4.078 -1.4794  1.5813  2.2955
  390MOL0     H51453   2.648   3.620   3.939  2.4651 -3.0431 -1.3243
  390MOL0     H51454   2.879   3.780   4.005 -3.9654  2.7219  0.0271
  390MOL0     H51455   2.790   3.799   3.859 -2.8476  0.4176  1.6498
  390MOL0     H51456   2.837   3.567   3.782 -1.6765  2.1229 -0.6125
  390MOL0     H51457   2.949   3.538   3.919  0.4464  0.6028 -0.6846
  390MOL0     H51458   2.983   3.672   3.664 -1.5252 -0.0975 -0.2026
  390MOL0     H51459   3.036   3.777   3.796  1.4259 -0.0701 -0.9359
  390MOL0     H51460   3.149   3.496   3.782  1.2847 -0.6004  0.3294
  390MOL0     H51461   3.184   3.630   3.885 -1.7242  0.5976 -0.6885
  390MOL0     H51462   2.625   4.163   4.277  0.1581 -2.3193 -2.2545
  390MOL0     H51463   2.790   4.212   4.442 -0.9825 -0.2006  0.4846
  390MOL0     H51464   3.118   4.086   4.704  0.4537  0.9648  0.3328
  390MOL0     H51465   3.304   4.144   4.870 -0.7343 -0.6912 -2.4154
  390MOL0     H51466   3.374   5.134   5.849 -2.1104 -0.6605  0.2653
  390MOL0     H51467   3.171   5.090   5.961 -0.2184 -0.4693 -0.2886
  390MOL0     H51468   2.886   4.783   6.223 -1.8150 -2.3339  2.0511
  390MOL0     H51469   2.663   4.764   6.303  1.0987  3.8672  0.4995
  390MOL0     H51470   2.335   4.916   6.012  0.0695  0.4492 -0.3803
  390MOL0     H51471   2.358   5.023   6.153  2.5441 -1.2579  0.9786
  390MOL0     H51472   2.185   4.898   6.269 -0.5224  0.5466 -1.1395
  390MOL0     H51473   2.121   4.926   6.118 -2.0534 -1.3734  1.4108
  390MOL0     H51474   2.244   4.658   6.200 -2.0553 -2.7958 -0.4855
  390MOL0     H51475   2.203   4.710   6.030 -0.9825  3.4532  0.3287
  390MOL0     H51476   2.033   4.560   6.134 -1.4381 -0.1906  1.6413
  390MOL0     H51477   2.016   4.668   6.265 -0.3172  1.2951 -0.1800
  390MOL0     H51478   1.743   4.831   5.981  0.6723 -0.1151 -2.9415
  390MOL0     H51479   2.525   4.925   5.934  1.1964  1.5031 -0.9132
  390MOL0     H51480   2.748   4.944   5.853 -2.6528 -0.9826 -1.3505
  391MOL0     O51481   0.233   3.037   0.169 -0.3196  0.5846  0.5370
  391MOL0     C51482   0.198   2.977   0.069  0.2624 -0.6824 -0.4214
  391MOL0     O51483   0.068   2.949   0.038 -0.0787  0.6736  0.1673
  391MOL0     C51484  -0.015   2.982   0.136  0.3376 -0.0245 -1.4953
  391MOL0     C51485  -0.010   2.882   0.244  0.0227  0.2004 -0.0969
  391MOL0     C51486  -0.098   2.904   0.351 -0.7283  0.4531 -0.0252
  391MOL0     C51487  -0.179   3.017   0.365  0.6003  0.2204  0.2579
  391MOL0     O51488  -0.265   3.052   0.458  0.8494  0.4022 -0.6852
  391MOL0     C51489  -0.294   2.947   0.551  0.4829 -0.1569  0.1895
  391MOL0     C51490  -0.374   2.990   0.672  0.3663  0.5362  0.2193
  391MOL0     C51491  -0.513   2.996   0.640  0.2431  1.2687 -0.2082
  391MOL0     C51492  -0.600   3.009   0.764  0.2537 -1.4444 -0.8588
  391MOL0     C51493  -0.743   2.987   0.723 -0.0281 -0.4251 -0.6529
  391MOL0     C51494  -0.837   2.993   0.843 -1.2112  0.0475 -0.2665
  391MOL0     C51495  -0.897   2.860   0.877 -1.0118 -0.0726  0.8559
  391MOL0     C51496  -1.005   2.847   0.981 -0.2881 -0.6565  0.0806
  391MOL0     N51497  -0.959   2.875   1.116 -0.2025  0.5077  0.2265
  391MOL0     C51498  -1.038   2.946   1.198 -0.0603 -0.4069 -0.2454
  391MOL0     C51499  -0.979   2.930   1.314  0.0884  0.5805 -0.2315
  391MOL0     C51500  -1.035   2.954   1.455 -0.5157  0.0794  0.4203
  391MOL0     C51501  -1.171   2.889   1.472 -0.7020  0.1643  0.1757
  391MOL0     C51502  -1.258   2.945   1.590  0.6046  0.1200 -0.0891
  391MOL0     C51503  -1.335   3.077   1.541  0.6862  0.7414 -0.5156
  391MOL0     O51504  -1.430   3.044   1.440 -0.3145 -0.0646  1.5079
  391MOL0     C51505  -1.560   3.031   1.490 -0.0866 -0.5253  0.0334
  391MOL0     C51506  -1.634   3.146   1.511  0.5419 -0.0326  0.4907
  391MOL0     C51507  -1.755   3.140   1.582 -0.1323  0.0477 -0.7032
  391MOL0     C51508  -1.819   3.015   1.597 -0.0115 -0.8818 -0.4907
  391MOL0     C51509  -1.965   3.001   1.647 -0.6674 -0.9402  0.0930
  391MOL0     O51510  -2.013   3.085   1.740  0.5992  0.9541  0.1777
  391MOL0     C51511  -2.137   3.073   1.799 -1.0445  0.0423  0.4149
  391MOL0     C51512  -2.154   3.135   1.922 -0.6167  0.7598  0.1076
  391MOL0     C51513  -2.278   3.115   1.989  0.3347  0.3105  0.5355
  391MOL0     C51514  -2.388   3.049   1.929  0.0750 -0.5288 -0.3185
  391MOL0     O51515  -2.501   3.030   2.006  0.1275  0.5133 -0.0180
  391MOL0     C51516  -2.567   3.144   2.078 -0.8442 -0.1353 -0.2213
  391MOL0     C51517  -2.697   3.091   2.125  0.1509 -0.8207 -0.2509
  391MOL0     C51518  -2.806   3.089   2.020 -0.2180  0.7765  0.6081
  391MOL0     C51519  -2.924   3.018   2.087  0.2677 -0.4929  0.1139
  391MOL0     C51520  -3.054   3.004   2.009 -0.9596 -0.2130 -0.0079
  391MOL0     C51521  -3.045   2.926   1.873 -0.6496  0.7647 -0.1797
  391MOL0     C51522  -2.990   2.780   1.886 -0.0504 -0.0527 -0.9245
  391MOL0     C51523  -3.095   2.697   1.952 -0.4739  1.0228  0.9829
  391MOL0    Cl51524  -3.235   2.695   1.828 -0.2890  0.0707  0.3546
  391MOL0     C51525  -2.375   3.008   1.801 -0.1467 -0.0384 -0.2439
  391MOL0     C51526  -2.256   3.021   1.733 -0.6217  0.3112 -0.8702
  391MOL0     O51527  -2.026   2.902   1.602 -0.0609  0.5320  0.1197
  391MOL0     C51528  -1.748   2.906   1.566  0.2154  0.0346  0.6895
  391MOL0     C51529  -1.620   2.912   1.523 -0.0825 -0.0423 -0.1124
  391MOL0     N51530  -0.848   2.864   1.303 -0.3612 -1.0686  0.2648
  391MOL0     N51531  -0.853   2.817   1.187 -0.4885 -0.6039  0.9412
  391MOL0     C51532  -0.175   3.109   0.266  0.2483  0.4802  0.0311
  391MOL0     C51533  -0.092   3.095   0.152  0.2814 -0.2452 -0.4054
  391MOL0     C51534   0.302   2.907  -0.010 -0.2606 -0.2985 -0.4029
  391MOL0     C51535   0.434   2.936  -0.004  0.6069 -0.7261 -0.7301
  391MOL0     C51536   0.528   2.861  -0.073  0.4999  0.2593  0.1710
  391MOL0     C51537   0.487   2.769  -0.167 -0.6829  0.7440  0.2345
  391MOL0     O51538   0.581   2.702  -0.245 -0.3486 -0.4600  0.1606
  391MOL0     C51539   0.611   2.772  -0.370 -0.6273  0.5118 -0.0905
  391MOL0     C51540   0.732   2.716  -0.440 -0.7716 -0.0347 -0.6085
  391MOL0     C51541   0.864   2.755  -0.376  1.2395  0.6674 -0.3674
  391MOL0     C51542   0.999   2.720  -0.452  1.0800  0.3620 -0.4435
  391MOL0     C51543   1.117   2.729  -0.367 -0.0790  0.7125 -0.3823
  391MOL0     C51544   1.220   2.740  -0.310 -1.0617 -0.5248 -0.4943
  391MOL0     C51545   0.354   2.742  -0.183 -0.3126 -0.1844 -0.2707
  391MOL0     C51546   0.261   2.811  -0.096  0.3190  0.7085  0.5873
  391MOL0     H51547   0.060   2.801   0.230  1.9004  2.0013 -1.9262
  391MOL0     H51548  -0.093   2.827   0.427  1.0094  1.4888  0.9541
  391MOL0     H51549  -0.200   2.907   0.589  1.4355  0.9056 -0.9361
  391MOL0     H51550  -0.346   2.868   0.496 -0.6570  2.4422 -2.8251
  391MOL0     H51551  -0.342   3.091   0.697  1.5355  0.0221  0.8698
  391MOL0     H51552  -0.359   2.913   0.747  1.6225  0.0789 -0.4596
  391MOL0     H51553  -0.539   2.901   0.593  4.1975  1.8414 -4.2859
  391MOL0     H51554  -0.535   3.070   0.562  2.5461 -0.3885 -2.5759
  391MOL0     H51555  -0.573   2.942   0.845 -0.6352  0.3132  0.9853
  391MOL0     H51556  -0.589   3.108   0.810 -3.5725 -1.3577  0.2678
  391MOL0     H51557  -0.748   2.884   0.687  1.1544 -0.9982  0.7239
  391MOL0     H51558  -0.757   3.067   0.650  1.5832  1.1523  0.6689
  391MOL0     H51559  -0.916   3.060   0.808 -0.2379  1.2016 -0.2740
  391MOL0     H51560  -0.791   3.048   0.925 -1.8654  0.3359 -0.0829
  391MOL0     H51561  -0.946   2.836   0.782  0.6534 -0.5495  0.0864
  391MOL0     H51562  -0.820   2.786   0.901  0.1604  1.5190  2.2209
  391MOL0     H51563  -1.059   2.752   0.967 -0.7729 -0.0492 -3.1832
  391MOL0     H51564  -1.080   2.923   0.955 -1.9033 -1.6565  1.5963
  391MOL0     H51565  -1.143   2.972   1.190 -0.2794 -0.9748  0.7099
  391MOL0     H51566  -1.036   3.061   1.477 -1.3111  0.6998 -2.2390
  391MOL0     H51567  -0.963   2.911   1.525  0.6521  1.3732  0.0465
  391MOL0     H51568  -1.147   2.783   1.481  0.3597 -0.0258 -3.5201
  391MOL0     H51569  -1.228   2.893   1.379  0.9245 -0.9189 -0.9327
  391MOL0     H51570  -1.325   2.861   1.612  1.1645 -0.5988 -1.0587
  391MOL0     H51571  -1.201   2.974   1.680 -2.0531  0.6847  1.5126
  391MOL0     H51572  -1.264   3.152   1.503  0.9070  0.6674 -0.2578
  391MOL0     H51573  -1.375   3.121   1.633  1.8388 -1.3901  1.1076
  391MOL0     H51574  -1.597   3.245   1.485 -1.9067  0.6977 -0.5085
  391MOL0     H51575  -1.813   3.229   1.603 -0.7574 -0.6251  0.5211
  391MOL0     H51576  -2.066   3.170   1.975  0.8180 -1.3125 -0.7589
  391MOL0     H51577  -2.277   3.160   2.088 -3.6218  0.3549  0.6832
  391MOL0     H51578  -2.563   3.232   2.013  3.5909 -0.8117 -1.2395
  391MOL0     H51579  -2.504   3.170   2.164  0.8588 -0.2705 -1.3610
  391MOL0     H51580  -2.728   3.160   2.203  0.8218  1.0448 -1.5702
  391MOL0     H51581  -2.671   2.996   2.174  3.6179 -0.5612 -1.3204
  391MOL0     H51582  -2.763   3.036   1.934  2.7581  3.0797  0.5039
  391MOL0     H51583  -2.821   3.191   1.983 -0.8869 -0.2003 -2.1051
  391MOL0     H51584  -2.901   2.913   2.104 -3.0352 -1.5649 -1.0733
  391MOL0     H51585  -2.941   3.080   2.175  1.7079  2.3422 -1.4459
  391MOL0     H51586  -3.099   3.102   1.991 -1.0282 -0.4515 -1.2716
  391MOL0     H51587  -3.127   2.946   2.066 -0.8222 -0.7923 -0.4035
  391MOL0     H51588  -2.982   2.977   1.800 -0.1669 -0.6112 -0.7636
  391MOL0     H51589  -3.140   2.923   1.820 -1.2265 -0.3562  0.8614
  391MOL0     H51590  -2.962   2.734   1.791  1.6800 -0.2228 -0.3639
  391MOL0     H51591  -2.902   2.772   1.950  0.5398  1.2580 -1.5264
  391MOL0     H51592  -3.115   2.742   2.050  2.5864  1.6313  1.4293
  391MOL0     H51593  -3.049   2.602   1.981  0.0602  1.3735  1.3049
  391MOL0     H51594  -2.463   2.972   1.749  0.3028 -2.5736  0.5795
  391MOL0     H51595  -2.254   2.988   1.629  1.1378  0.7105 -0.9992
  391MOL0     H51596  -1.792   2.806   1.562 -1.1683  0.6368 -2.9550
  391MOL0     H51597  -1.567   2.823   1.490  1.0847  0.4246  0.4747
  391MOL0     H51598  -0.242   3.194   0.264 -0.0687  0.2195 -1.2201
  391MOL0     H51599  -0.107   3.172   0.077  1.4037  0.5863  0.1851
  391MOL0     H51600   0.465   3.019   0.059  0.5927 -2.4426  1.6490
  391MOL0     H51601   0.624   2.906  -0.052  0.0847  0.3736  1.9899
  391MOL0     H51602   0.625   2.879  -0.354 -1.3530  0.6739 -0.4975
  391MOL0     H51603   0.527   2.771  -0.439 -0.2970 -0.6299 -0.5047
  391MOL0     H51604   0.712   2.609  -0.447 -1.1315 -0.1922  1.9429
  391MOL0     H51605   0.733   2.765  -0.538 -0.7845 -0.9230 -1.0574
  391MOL0     H51606   0.869   2.694  -0.285  3.4754  1.3255  0.0224
  391MOL0     H51607   0.857   2.861  -0.352 -0.8255  0.9752 -2.0796
  391MOL0     H51608   0.991   2.623  -0.503  1.3518  1.1998 -2.1652
  391MOL0     H51609   1.029   2.789  -0.532  1.5905 -0.3795 -0.9077
  391MOL0     H51610   1.320   2.767  -0.282 -1.2300 -0.7822  0.4084
  391MOL0     H51611   0.322   2.674  -0.260  0.2146 -0.5933 -0.1315
  391MOL0     H51612   0.156   2.786  -0.107  0.1720  1.8434 -0.9707
  392MOL0     O51613   7.283   4.315   2.926  0.4703  0.2564 -0.9021
  392MOL0     C51614   7.273   4.439   2.951  0.3665 -0.4819 -0.0596
  392MOL0     O51615   7.200   4.534   2.879  0.1265  0.0753  0.7295
  392MOL0     C51616   7.127   4.499   2.769  0.0284  1.0220 -0.4401
  392MOL0     C51617   7.182   4.424   2.666  0.2339  0.6369 -0.1918
  392MOL0     C51618   7.117   4.418   2.543  0.1195 -0.4991 -0.2631
  392MOL0     C51619   6.993   4.482   2.523  1.1629  0.0939 -0.4274
  392MOL0     O51620   6.922   4.492   2.410 -0.0871 -0.0145  0.7905
  392MOL0     C51621   6.982   4.444   2.285  0.2392  0.1363 -0.5609
  392MOL0     C51622   6.901   4.461   2.154  0.0458 -0.4473 -1.0566
  392MOL0     C51623   6.809   4.336   2.128  0.4135 -0.0940 -0.2452
  392MOL0     C51624   6.743   4.323   1.989 -0.3660  0.0461 -0.5859
  392MOL0     C51625   6.700   4.178   1.966  0.9762 -0.1750 -0.2692
  392MOL0     C51626   6.794   4.092   1.882  0.3818  0.3169  0.1238
  392MOL0     C51627   6.774   3.943   1.882 -0.2336  0.6923  1.3064
  392MOL0     C51628   6.641   3.909   1.803 -0.5365 -0.0514  0.2561
  392MOL0     N51629   6.652   3.768   1.763 -0.3278 -0.1398 -0.6074
  392MOL0     C51630   6.754   3.717   1.692 -0.6479  0.0617 -0.5918
  392MOL0     C51631   6.755   3.590   1.720  0.3795 -0.1165  0.5199
  392MOL0     C51632   6.872   3.507   1.668 -0.0204  1.2211 -0.2834
  392MOL0     C51633   6.993   3.509   1.771  0.1848 -0.0352 -0.1486
  392MOL0     C51634   6.957   3.465   1.916  0.5795 -0.0536  0.7700
  392MOL0     C51635   7.080   3.461   2.010  0.4112  0.2104  0.4164
  392MOL0     O51636   7.139   3.592   2.020 -0.0362 -0.1568 -1.1262
  392MOL0     C51637   7.092   3.678   2.116 -0.1176 -1.1691 -0.8589
  392MOL0     C51638   6.998   3.648   2.216  0.2439  0.0242  0.3846
  392MOL0     C51639   6.966   3.743   2.312 -0.4548 -0.6841  0.0798
  392MOL0     C51640   7.010   3.873   2.309 -1.1487 -0.9699  0.3883
  392MOL0     C51641   6.986   3.961   2.420  0.0806  0.3369 -0.2620
  392MOL0     O51642   6.950   3.897   2.535  0.1973  0.1122  0.5578
  392MOL0     C51643   6.918   3.973   2.646  0.2460  0.0202  0.4661
  392MOL0     C51644   6.974   4.092   2.685  0.1267 -0.1665 -1.1963
  392MOL0     C51645   6.931   4.160   2.803  0.2253  0.0965 -0.3084
  392MOL0     C51646   6.824   4.108   2.875  0.2132  0.2358  0.9519
  392MOL0     O51647   6.766   4.182   2.972  0.4675 -0.2196 -0.5693
  392MOL0     C51648   6.779   4.117   3.097  0.2964  0.1713 -0.6865
  392MOL0     C51649   6.875   4.212   3.179 -0.0282  0.5146 -0.5249
  392MOL0     C51650   6.882   4.189   3.336 -1.4106 -0.5581  0.8858
  392MOL0     C51651   6.962   4.293   3.412  0.2233 -0.3235 -0.0053
  392MOL0     C51652   6.993   4.252   3.557 -0.0968 -0.1729  0.1835
  392MOL0     C51653   7.129   4.194   3.601 -1.3021 -0.2920  0.1897
  392MOL0     C51654   7.237   4.302   3.591  0.5003 -0.0373  0.2285
  392MOL0     C51655   7.370   4.241   3.629 -0.1337  0.6127  1.6080
  392MOL0    Cl51656   7.395   4.086   3.548 -0.5451  0.6169 -0.5052
  392MOL0     C51657   6.769   3.985   2.838 -0.1725  0.2905 -1.2607
  392MOL0     C51658   6.812   3.916   2.719  0.3881 -0.3717 -0.6850
  392MOL0     O51659   6.994   4.078   2.401  0.1743 -0.0809  0.1452
  392MOL0     C51660   7.095   3.904   2.202 -0.5923  0.6994 -0.3704
  392MOL0     C51661   7.154   3.803   2.116  0.5374 -0.6286  0.6879
  392MOL0     N51662   6.640   3.558   1.793  0.2355 -0.2676 -0.8512
  392MOL0     N51663   6.577   3.674   1.821  0.0155 -0.4417  0.4586
  392MOL0     C51664   6.934   4.537   2.644  0.9666 -0.4328  0.0172
  392MOL0     C51665   6.998   4.539   2.764 -0.3915 -0.5772 -0.5066
  392MOL0     C51666   7.338   4.487   3.078 -0.5121  0.0224  0.0685
  392MOL0     C51667   7.358   4.398   3.186  0.4244  0.3649  1.0707
  392MOL0     C51668   7.407   4.444   3.304 -0.3030  0.1970 -0.2291
  392MOL0     C51669   7.433   4.577   3.325 -0.0245 -1.5865 -1.3257
  392MOL0     O51670   7.485   4.631   3.437  0.4172 -0.6010 -0.3620
  392MOL0     C51671   7.508   4.562   3.557 -0.8087  0.5128 -0.1131
  392MOL0     C51672   7.568   4.652   3.672  0.4125 -0.2390 -0.4591
  392MOL0     C51673   7.475   4.763   3.726  0.3330 -0.3552  0.1136
  392MOL0     C51674   7.502   4.899   3.653 -0.6063  1.0040  0.0007
  392MOL0     C51675   7.591   4.984   3.728  0.3440  0.7689  0.4617
  392MOL0     C51676   7.658   5.036   3.818  0.0178  0.4894 -0.7527
  392MOL0     C51677   7.412   4.668   3.217 -0.3724 -0.2123  0.6251
  392MOL0     C51678   7.371   4.624   3.091  0.6035  0.1092 -0.0360
  392MOL0     H51679   7.281   4.379   2.663 -0.8327 -1.8311 -3.4127
  392MOL0     H51680   7.167   4.361   2.465  0.0890  1.8413 -2.1206
  392MOL0     H51681   7.009   4.338   2.297  1.7852  0.7249  1.8656
  392MOL0     H51682   7.078   4.496   2.276 -1.0778  2.5458 -1.3402
  392MOL0     H51683   6.955   4.488   2.063 -3.5109  3.1716 -2.4036
  392MOL0     H51684   6.825   4.536   2.176 -3.2521 -3.3421 -1.6211
  392MOL0     H51685   6.751   4.333   2.221  0.6458 -0.3929 -0.1078
  392MOL0     H51686   6.864   4.242   2.141 -2.1469 -1.5461  0.7898
  392MOL0     H51687   6.666   4.400   2.000 -0.9617 -0.3087 -2.0337
  392MOL0     H51688   6.802   4.348   1.902 -0.8825  1.6857 -0.4937
  392MOL0     H51689   6.596   4.186   1.933  0.7511  2.3491  0.8500
  392MOL0     H51690   6.697   4.124   2.061 -3.5572 -0.6337 -0.4769
  392MOL0     H51691   6.891   4.099   1.932  0.1939 -0.6161  0.6354
  392MOL0     H51692   6.799   4.135   1.782 -0.1603  1.3326  0.5183
  392MOL0     H51693   6.865   3.896   1.844  0.5702  0.4553  3.3744
  392MOL0     H51694   6.763   3.897   1.981  4.2924  0.5785  1.9688
  392MOL0     H51695   6.625   3.967   1.712 -2.9721 -1.7088 -0.4932
  392MOL0     H51696   6.554   3.913   1.869  0.9242  0.9527  2.2267
  392MOL0     H51697   6.834   3.774   1.647 -2.2106  4.1244  1.3202
  392MOL0     H51698   6.904   3.528   1.566  0.4492  3.8768  0.3528
  392MOL0     H51699   6.834   3.404   1.660  0.7308  0.8279  0.8675
  392MOL0     H51700   7.049   3.603   1.770  0.2329 -0.0519  0.4733
  392MOL0     H51701   7.060   3.428   1.739 -1.3970 -1.3131 -0.3710
  392MOL0     H51702   6.882   3.529   1.963  0.7881  1.4818 -0.8728
  392MOL0     H51703   6.916   3.363   1.915  0.1265  0.1182  1.3916
  392MOL0     H51704   7.138   3.378   1.967 -0.3513 -0.4032  0.5568
  392MOL0     H51705   7.043   3.412   2.101 -1.4055 -0.3881 -0.5937
  392MOL0     H51706   6.948   3.552   2.216  2.0655 -0.9715  1.1020
  392MOL0     H51707   6.899   3.704   2.388 -0.4655 -0.0333  0.4122
  392MOL0     H51708   7.048   4.141   2.622 -0.8855  0.1843 -2.1429
  392MOL0     H51709   6.979   4.253   2.830  2.9290 -1.2170 -0.2173
  392MOL0     H51710   6.824   4.018   3.096  1.4011  0.6181 -3.2055
  392MOL0     H51711   6.682   4.118   3.146 -0.7294 -1.9760 -2.5147
  392MOL0     H51712   6.854   4.316   3.153 -1.7446  0.4492  0.4601
  392MOL0     H51713   6.977   4.183   3.149 -0.8511 -0.9745 -2.0876
  392MOL0     H51714   6.935   4.097   3.361 -0.8040 -0.2837  0.6383
  392MOL0     H51715   6.785   4.173   3.384 -2.2896 -0.2495 -0.7132
  392MOL0     H51716   7.059   4.315   3.365  1.5080  0.5932  2.8601
  392MOL0     H51717   6.912   4.391   3.417  1.6035  0.4023  0.1907
  392MOL0     H51718   6.926   4.175   3.597 -0.2754 -1.8468 -3.0729
  392MOL0     H51719   6.983   4.334   3.629  0.3331 -1.2957  1.5686
  392MOL0     H51720   7.150   4.114   3.529  2.5388 -1.5101  2.4091
  392MOL0     H51721   7.125   4.156   3.703 -1.7016  0.1923  0.3592
  392MOL0     H51722   7.242   4.349   3.492  0.2288  3.1770  1.5926
  392MOL0     H51723   7.213   4.380   3.664  2.1895  0.2341  0.5309
  392MOL0     H51724   7.375   4.224   3.736  2.3911 -1.5960  1.2223
  392MOL0     H51725   7.451   4.313   3.614  0.6212 -0.3696  0.8965
  392MOL0     H51726   6.687   3.940   2.894  0.9778 -2.1380 -1.4259
  392MOL0     H51727   6.765   3.823   2.686  2.1255 -1.8324  0.7386
  392MOL0     H51728   7.130   4.005   2.189  3.3874 -0.2269  1.4776
  392MOL0     H51729   7.234   3.820   2.045 -0.8265 -2.1357 -1.3130
  392MOL0     H51730   6.835   4.580   2.629 -0.0815 -3.1070 -1.3948
  392MOL0     H51731   6.954   4.588   2.850  0.7686 -2.0817  1.0126
  392MOL0     H51732   7.333   4.294   3.173  2.0379  0.1932 -1.2391
  392MOL0     H51733   7.427   4.384   3.392 -1.8648  1.6097  1.1568
  392MOL0     H51734   7.572   4.473   3.555 -0.3992  0.7801  0.6008
  392MOL0     H51735   7.406   4.538   3.590 -2.1776  1.9552 -2.9641
  392MOL0     H51736   7.598   4.592   3.758 -0.4911  0.8491  0.6436
  392MOL0     H51737   7.664   4.694   3.640  2.7443 -2.3732  3.0426
  392MOL0     H51738   7.485   4.775   3.834 -0.9544  1.0248  0.1171
  392MOL0     H51739   7.373   4.733   3.704 -0.4001  0.3312  2.3234
  392MOL0     H51740   7.568   4.885   3.566  1.5770  0.8110  1.6088
  392MOL0     H51741   7.413   4.956   3.626  0.9255  3.3664 -0.3260
  392MOL0     H51742   7.729   5.065   3.893 -0.1878  0.6008 -0.5999
  392MOL0     H51743   7.422   4.775   3.232 -1.2578  0.2465 -1.6700
  392MOL0     H51744   7.358   4.688   3.004  1.1804 -1.5947 -1.4493
  393MOL0     O51745   1.618   0.384   4.942 -1.0561  0.3142 -0.0140
  393MOL0     C51746   1.650   0.467   4.858 -0.4238  0.5514  0.6865
  393MOL0     O51747   1.682   0.446   4.728  0.4216 -0.0490 -0.0253
  393MOL0     C51748   1.724   0.314   4.702  0.6434 -0.7235  0.3138
  393MOL0     C51749   1.629   0.216   4.673 -0.0572 -0.4902 -1.0154
  393MOL0     C51750   1.666   0.088   4.642  0.2821 -0.1105 -0.5125
  393MOL0     C51751   1.802   0.061   4.629 -0.5320  0.3715  0.2984
  393MOL0     O51752   1.860  -0.067   4.609 -0.0803  0.1476  0.9743
  393MOL0     C51753   1.793  -0.176   4.659 -0.3234  0.2400 -0.1496
  393MOL0     C51754   1.701  -0.246   4.559 -0.4653 -0.3115  0.6336
  393MOL0     C51755   1.772  -0.282   4.435 -0.0044  0.2135 -0.3214
  393MOL0     C51756   1.674  -0.363   4.346  0.7081  0.3323  0.4056
  393MOL0     C51757   1.731  -0.392   4.206  0.5078 -0.4534 -0.6048
  393MOL0     C51758   1.831  -0.503   4.210 -0.3145 -0.3687 -0.8156
  393MOL0     C51759   1.782  -0.634   4.280  0.0841  0.5552  0.6255
  393MOL0     C51760   1.841  -0.751   4.206  0.0330  0.3295  0.3019
  393MOL0     N51761   1.841  -0.880   4.272  0.5451 -0.7257  0.3554
  393MOL0     C51762   1.936  -0.934   4.360  0.2327 -1.0265  0.2947
  393MOL0     C51763   1.892  -1.056   4.374  0.1688 -0.4418 -0.0073
  393MOL0     C51764   1.929  -1.165   4.468 -0.3612 -0.1834  0.0609
  393MOL0     C51765   2.009  -1.272   4.406 -0.5468  0.6632 -0.4985
  393MOL0     C51766   2.139  -1.223   4.339  0.0505  0.2132 -0.0160
  393MOL0     C51767   2.242  -1.179   4.450 -0.3885 -0.8192 -0.4401
  393MOL0     O51768   2.365  -1.183   4.374  0.6917  0.0201  0.3654
  393MOL0     C51769   2.474  -1.129   4.431  0.8972 -0.9281  0.1196
  393MOL0     C51770   2.494  -1.082   4.563  1.0176  0.2779 -0.2124
  393MOL0     C51771   2.612  -1.024   4.617 -0.4489  0.0989  0.2330
  393MOL0     C51772   2.715  -1.018   4.529 -0.3516  0.9435 -0.5535
  393MOL0     C51773   2.838  -0.948   4.579 -0.8786 -0.1514 -0.2082
  393MOL0     O51774   2.934  -0.929   4.488  0.2389 -0.8947 -0.1573
  393MOL0     C51775   3.045  -0.861   4.526  0.1829  0.0378 -0.4884
  393MOL0     C51776   3.058  -0.721   4.518  0.7563 -1.1533 -0.4418
  393MOL0     C51777   3.182  -0.670   4.546 -0.0310  0.5344 -0.7419
  393MOL0     C51778   3.291  -0.742   4.595  0.4896  0.8031 -0.1205
  393MOL0     O51779   3.416  -0.700   4.614  0.4241  0.5041  0.8615
  393MOL0     C51780   3.468  -0.595   4.534 -0.5415  0.1599 -0.1177
  393MOL0     C51781   3.602  -0.534   4.590  0.1893 -0.6310 -0.3788
  393MOL0     C51782   3.589  -0.480   4.733  0.0268  0.0842 -0.2971
  393MOL0     C51783   3.494  -0.360   4.739  1.0548 -0.2337  1.1579
  393MOL0     C51784   3.532  -0.272   4.860 -0.8089 -0.6893  0.2538
  393MOL0     C51785   3.659  -0.185   4.824  0.0566  0.2983  1.0039
  393MOL0     C51786   3.689  -0.055   4.910  0.3340 -0.4043  0.1234
  393MOL0     C51787   3.692  -0.076   5.061  0.5546  0.7869 -0.7187
  393MOL0    Cl51788   3.651   0.084   5.135  0.1710  0.2449  0.1470
  393MOL0     C51789   3.268  -0.885   4.614 -0.3830  0.5984  0.1429
  393MOL0     C51790   3.143  -0.942   4.585  0.8016  0.4857  0.6152
  393MOL0     O51791   2.847  -0.928   4.700  1.0605 -0.1213 -0.5671
  393MOL0     C51792   2.697  -1.057   4.396 -0.8842 -0.8476 -0.9446
  393MOL0     C51793   2.582  -1.110   4.350  0.3697 -0.4001 -0.3688
  393MOL0     N51794   1.764  -1.061   4.328  0.4615 -0.6996 -0.3159
  393MOL0     N51795   1.740  -0.963   4.248  0.6681 -0.0831  0.2747
  393MOL0     C51796   1.899   0.163   4.634 -1.0363  0.4707  0.0800
  393MOL0     C51797   1.857   0.289   4.661  0.5071 -0.0067 -1.0307
  393MOL0     C51798   1.618   0.599   4.906  0.0935 -0.0905 -0.8448
  393MOL0     C51799   1.670   0.713   4.843 -0.0415 -0.4415 -0.3394
  393MOL0     C51800   1.637   0.846   4.872  0.3927 -0.4331 -0.2418
  393MOL0     C51801   1.557   0.869   4.983 -0.6904  0.3364  0.3606
  393MOL0     O51802   1.518   1.000   5.011 -0.8094 -0.1388 -0.2750
  393MOL0     C51803   1.471   1.030   5.140  0.0879  0.9279  0.4456
  393MOL0     C51804   1.446   1.183   5.149 -0.1303 -0.4294  0.9369
  393MOL0     C51805   1.301   1.232   5.091 -0.0842  0.3159 -0.3578
  393MOL0     C51806   1.194   1.220   5.204 -0.0073  0.7117 -1.4084
  393MOL0     C51807   1.112   1.102   5.191  0.6402  0.3407  0.2260
  393MOL0     C51808   1.048   1.001   5.162  0.0741 -0.0154  0.1092
  393MOL0     C51809   1.515   0.761   5.056  0.6758  1.0103  0.3066
  393MOL0     C51810   1.545   0.631   5.019  0.6776  0.3707 -0.5119
  393MOL0     H51811   1.524   0.245   4.675 -0.4349 -1.8025 -1.2834
  393MOL0     H51812   1.583   0.018   4.638 -2.7754  3.2397 -3.2281
  393MOL0     H51813   1.714  -0.158   4.733 -1.0962 -0.1471 -0.8552
  393MOL0     H51814   1.866  -0.247   4.698 -3.0315 -2.1775  0.9166
  393MOL0     H51815   1.616  -0.187   4.524 -1.5727 -1.1338  1.8015
  393MOL0     H51816   1.663  -0.336   4.610 -3.0263 -0.5794 -1.5262
  393MOL0     H51817   1.861  -0.344   4.450 -0.0229 -0.0754 -1.3452
  393MOL0     H51818   1.800  -0.202   4.366 -0.1927  0.7749  0.2406
  393MOL0     H51819   1.647  -0.460   4.389 -2.1542  1.7542  2.1254
  393MOL0     H51820   1.578  -0.316   4.328 -0.2121 -2.0876 -1.5904
  393MOL0     H51821   1.773  -0.296   4.175  0.8402 -0.5111 -0.3327
  393MOL0     H51822   1.653  -0.419   4.133 -0.1936  0.3647 -0.1714
  393MOL0     H51823   1.930  -0.470   4.240 -1.1035  2.7093 -1.3063
  393MOL0     H51824   1.834  -0.523   4.102 -3.7097 -0.9324 -0.9422
  393MOL0     H51825   1.817  -0.638   4.383  0.3279 -1.7642  0.5242
  393MOL0     H51826   1.674  -0.625   4.263 -0.0030 -1.2255 -0.0129
  393MOL0     H51827   1.942  -0.721   4.178 -0.2064  0.7840 -0.0823
  393MOL0     H51828   1.785  -0.772   4.114 -0.0805  2.2297 -0.1173
  393MOL0     H51829   2.025  -0.885   4.397 -0.9332  2.7089 -1.4137
  393MOL0     H51830   1.834  -1.211   4.498 -1.7015  1.3110 -1.7199
  393MOL0     H51831   1.969  -1.126   4.562 -3.7170  1.0928  1.0814
  393MOL0     H51832   1.949  -1.310   4.322  1.3838  2.8270 -3.0481
  393MOL0     H51833   2.024  -1.354   4.476  1.1851  1.3359 -0.0425
  393MOL0     H51834   2.174  -1.306   4.277 -1.2886 -1.0649  0.8732
  393MOL0     H51835   2.116  -1.146   4.265  2.3376 -0.0602 -1.0982
  393MOL0     H51836   2.262  -1.247   4.534  0.0554  1.4289  1.3773
  393MOL0     H51837   2.217  -1.083   4.496  0.6318  0.0337 -1.6103
  393MOL0     H51838   2.420  -1.115   4.635  0.5747  0.5796 -0.5234
  393MOL0     H51839   2.615  -0.976   4.715 -1.5692 -0.0681  0.3672
  393MOL0     H51840   2.978  -0.657   4.482  1.4554  0.3282  0.5431
  393MOL0     H51841   3.191  -0.562   4.542  0.9436  0.5489  0.9684
  393MOL0     H51842   3.389  -0.520   4.544 -1.2800 -0.6975  0.7191
  393MOL0     H51843   3.485  -0.633   4.433 -0.3837  2.1774 -0.9017
  393MOL0     H51844   3.632  -0.454   4.521  1.4078 -0.7007  0.0657
  393MOL0     H51845   3.676  -0.614   4.581 -1.1512 -1.9975  0.3205
  393MOL0     H51846   3.690  -0.454   4.766  0.3702 -3.6020  2.0935
  393MOL0     H51847   3.559  -0.555   4.806 -0.9627  1.5353  0.8308
  393MOL0     H51848   3.491  -0.297   4.650 -0.2653  2.0333  2.7110
  393MOL0     H51849   3.396  -0.406   4.756  2.1680 -2.4500  1.9093
  393MOL0     H51850   3.556  -0.319   4.956  3.6280  2.4388  0.9914
  393MOL0     H51851   3.454  -0.196   4.868  0.0043  0.8308 -3.7750
  393MOL0     H51852   3.639  -0.160   4.720 -0.1694 -2.0474  0.4291
  393MOL0     H51853   3.755  -0.238   4.828 -1.4597 -2.7849 -0.4875
  393MOL0     H51854   3.771  -0.002   4.863  1.8952 -2.2423  0.6377
  393MOL0     H51855   3.609   0.015   4.885  1.3902  0.7300 -0.1691
  393MOL0     H51856   3.795  -0.106   5.079  0.5783  1.7824  0.9903
  393MOL0     H51857   3.618  -0.147   5.100  0.7921  2.7954  3.9753
  393MOL0     H51858   3.340  -0.929   4.681 -0.1220  1.0654  0.1673
  393MOL0     H51859   3.116  -1.043   4.613  2.7079  0.0383  1.0181
  393MOL0     H51860   2.765  -1.034   4.315  0.6856 -0.8677  0.3325
  393MOL0     H51861   2.564  -1.135   4.246  3.1255  5.8174 -2.8684
  393MOL0     H51862   2.002   0.141   4.610 -1.6419 -4.4856  0.9677
  393MOL0     H51863   1.921   0.377   4.654  0.7379 -0.2842 -2.9378
  393MOL0     H51864   1.733   0.719   4.755 -0.2656 -1.0410 -0.5412
  393MOL0     H51865   1.693   0.914   4.809  3.0614 -2.7952 -0.6268
  393MOL0     H51866   1.540   0.991   5.216  2.8947 -3.3826 -3.7719
  393MOL0     H51867   1.371   0.991   5.161 -0.8153  3.4716  1.2080
  393MOL0     H51868   1.481   1.213   5.248  1.5675  1.0086 -0.0329
  393MOL0     H51869   1.519   1.238   5.088 -0.9225  0.5145  0.8061
  393MOL0     H51870   1.276   1.170   5.004  4.6321 -1.0877 -0.9841
  393MOL0     H51871   1.309   1.338   5.063 -0.7521  0.4014 -0.2544
  393MOL0     H51872   1.247   1.201   5.298 -0.7363 -2.7694 -1.5573
  393MOL0     H51873   1.141   1.315   5.209  0.3095  0.8504 -0.4097
  393MOL0     H51874   0.994   0.916   5.127 -0.9511 -0.4714  2.5892
  393MOL0     H51875   1.460   0.783   5.146  0.5089  1.5827  0.0708
  393MOL0     H51876   1.514   0.541   5.071  0.5444 -0.8921 -2.6297
  394MOL0     O51877   2.034   7.521   2.756 -0.1494  1.0967 -0.3674
  394MOL0     C51878   2.073   7.416   2.808 -0.0415 -0.8948  0.6917
  394MOL0     O51879   2.037   7.367   2.932  0.1139  0.2918  0.0914
  394MOL0     C51880   1.919   7.413   3.002  0.0577 -0.6991  0.9285
  394MOL0     C51881   1.799   7.447   2.944  0.3949  0.3686 -0.5921
  394MOL0     C51882   1.693   7.497   3.024 -0.2183 -0.7838  0.1950
  394MOL0     C51883   1.697   7.500   3.165 -0.8282 -0.1591  0.2820
  394MOL0     O51884   1.590   7.541   3.238  0.4959  0.7638 -1.1150
  394MOL0     C51885   1.603   7.542   3.388  1.2116  0.4277  1.2778
  394MOL0     C51886   1.471   7.601   3.445  0.0160  0.0693 -0.0600
  394MOL0     C51887   1.406   7.717   3.376  0.0180 -0.0247  0.4559
  394MOL0     C51888   1.316   7.686   3.253  0.4991  0.2665  0.1911
  394MOL0     C51889   1.185   7.608   3.288  0.1713 -0.7983  0.4613
  394MOL0     C51890   1.138   7.537   3.166 -0.4966 -0.3189  0.3039
  394MOL0     C51891   1.017   7.446   3.181  0.6600 -0.6607  0.2916
  394MOL0     C51892   0.897   7.527   3.218 -0.8801 -0.2389 -0.7347
  394MOL0     N51893   0.762   7.467   3.180  0.1035  0.1463  0.1348
  394MOL0     C51894   0.698   7.369   3.258 -0.4118  0.5249  0.4467
  394MOL0     C51895   0.601   7.322   3.177  0.0843 -0.0549 -0.2766
  394MOL0     C51896   0.490   7.227   3.204 -1.1289  0.1371 -0.9887
  394MOL0     C51897   0.370   7.291   3.278  0.4535 -0.3112  0.6029
  394MOL0     C51898   0.386   7.372   3.410  0.0163 -0.0661  0.0935
  394MOL0     C51899   0.267   7.395   3.493 -0.2809  0.4497 -0.7160
  394MOL0     O51900   0.169   7.473   3.423 -0.0654  0.7164 -0.8002
  394MOL0     C51901   0.043   7.489   3.461  0.6077  0.9305 -0.1197
  394MOL0     C51902  -0.044   7.557   3.380 -0.2616 -0.4738 -0.3387
  394MOL0     C51903  -0.180   7.577   3.412 -0.2871 -0.4120  0.6798
  394MOL0     C51904  -0.232   7.503   3.525 -0.1090  0.2606  0.3963
  394MOL0     C51905  -0.369   7.521   3.577 -0.4945  0.4841 -0.2236
  394MOL0     O51906  -0.406   7.455   3.699 -0.4036  0.1923 -0.0956
  394MOL0     C51907  -0.502   7.518   3.766 -0.7016  0.4525  0.3003
  394MOL0     C51908  -0.468   7.641   3.829 -0.1596  0.0809  0.1117
  394MOL0     C51909  -0.569   7.731   3.859 -0.2559 -0.8416 -0.1354
  394MOL0     C51910  -0.705   7.689   3.834  0.5540 -0.6033  0.1922
  394MOL0     O51911  -0.803   7.771   3.887  0.0355  0.0222 -0.1565
  394MOL0     C51912  -0.920   7.709   3.943  0.4869 -0.5352  0.7291
  394MOL0     C51913  -0.977   7.804   4.055  0.5426 -0.8229 -0.4197
  394MOL0     C51914  -1.042   7.932   3.992 -0.0290  0.0211  0.1849
  394MOL0     C51915  -1.077   8.049   4.083 -0.7947  0.6484 -1.3332
  394MOL0     C51916  -1.177   8.154   4.024 -0.3359 -0.0089  0.5381
  394MOL0     C51917  -1.318   8.122   4.053  0.3389  0.4685 -0.1674
  394MOL0     C51918  -1.419   8.238   4.013 -0.1389  0.1023  0.1086
  394MOL0     C51919  -1.396   8.380   4.068 -0.0832  0.4633 -0.1181
  394MOL0    Cl51920  -1.505   8.497   3.999  0.2376  0.3900 -0.0785
  394MOL0     C51921  -0.733   7.565   3.784  0.4159  0.4636 -0.0099
  394MOL0     C51922  -0.633   7.480   3.748 -0.6551 -0.7933 -0.4692
  394MOL0     O51923  -0.446   7.575   3.508 -0.2634 -0.6380  0.6407
  394MOL0     C51924  -0.139   7.427   3.602  0.4359 -0.4712 -0.4195
  394MOL0     C51925  -0.006   7.418   3.572  0.3758 -0.8084 -0.3779
  394MOL0     N51926   0.620   7.382   3.054 -0.0494 -0.5683 -0.2563
  394MOL0     N51927   0.709   7.474   3.052 -0.8026 -0.1247  0.1904
  394MOL0     C51928   1.827   7.471   3.223 -0.2765 -0.1178  0.4032
  394MOL0     C51929   1.935   7.442   3.138 -0.7561  0.2616 -0.4166
  394MOL0     C51930   2.180   7.333   2.748  1.1160  0.5585 -0.4714
  394MOL0     C51931   2.213   7.346   2.609 -0.7580  0.3411  0.0292
  394MOL0     C51932   2.326   7.281   2.551 -0.0612 -0.3179 -0.1396
  394MOL0     C51933   2.405   7.202   2.622 -0.7325 -0.1276 -0.0705
  394MOL0     O51934   2.518   7.142   2.573 -1.0783  0.7278  0.1842
  394MOL0     C51935   2.582   7.195   2.458 -0.4161 -1.2512  1.0980
  394MOL0     C51936   2.529   7.123   2.329 -0.3775 -0.0212 -0.1896
  394MOL0     C51937   2.559   7.190   2.185  0.1074 -0.4693 -0.5804
  394MOL0     C51938   2.498   7.103   2.076  0.1571 -0.4477 -0.4011
  394MOL0     C51939   2.588   6.990   2.060 -0.1762  0.1805 -0.6568
  394MOL0     C51940   2.670   6.903   2.072 -0.8274 -0.1410 -0.2487
  394MOL0     C51941   2.359   7.171   2.755 -1.0348  0.8053  0.6305
  394MOL0     C51942   2.255   7.236   2.818  0.3444 -0.3087  0.0163
  394MOL0     H51943   1.790   7.446   2.836  2.9974  2.1055 -0.9098
  394MOL0     H51944   1.600   7.529   2.978  2.1998  0.8057 -4.2314
  394MOL0     H51945   1.688   7.600   3.425  1.8034 -0.3768  1.2011
  394MOL0     H51946   1.615   7.439   3.424 -2.9239 -1.7149 -2.4177
  394MOL0     H51947   1.504   7.645   3.539  3.2048 -2.7484  0.3498
  394MOL0     H51948   1.408   7.514   3.462  2.0050 -1.1780  1.3150
  394MOL0     H51949   1.475   7.796   3.343  0.1756 -0.7203 -0.9533
  394MOL0     H51950   1.342   7.777   3.441 -2.1117 -0.3351 -1.2379
  394MOL0     H51951   1.291   7.784   3.211 -2.1560  0.1562  1.3286
  394MOL0     H51952   1.371   7.641   3.169 -3.2292 -2.1273 -1.2038
  394MOL0     H51953   1.105   7.672   3.327  0.2215 -1.2482  1.3215
  394MOL0     H51954   1.217   7.523   3.350  1.3921 -1.6960 -1.3073
  394MOL0     H51955   1.217   7.470   3.128 -0.2412  0.3242 -0.3316
  394MOL0     H51956   1.132   7.602   3.078  0.1135 -0.3786  0.2065
  394MOL0     H51957   1.003   7.394   3.086 -0.2829 -0.5996  0.3871
  394MOL0     H51958   1.028   7.359   3.245 -0.5746  1.1085  3.0975
  394MOL0     H51959   0.915   7.627   3.177  2.9130  0.0542  1.2050
  394MOL0     H51960   0.885   7.533   3.326 -2.5528 -1.1162 -0.8373
  394MOL0     H51961   0.714   7.344   3.363  0.1515  1.6683  0.6478
  394MOL0     H51962   0.537   7.146   3.260  1.3540 -0.6761 -3.9695
  394MOL0     H51963   0.447   7.188   3.111 -0.8671  0.3087 -1.1834
  394MOL0     H51964   0.308   7.204   3.304 -3.9466  2.2513 -0.2339
  394MOL0     H51965   0.304   7.345   3.210 -0.0480  0.7342  1.8718
  394MOL0     H51966   0.469   7.318   3.457  0.7814  0.5589 -0.4969
  394MOL0     H51967   0.418   7.471   3.376 -1.3417  0.4533  0.2721
  394MOL0     H51968   0.296   7.443   3.587  1.4076  0.5521 -1.2488
  394MOL0     H51969   0.225   7.295   3.506 -0.6879  0.6905 -0.1095
  394MOL0     H51970   0.008   7.615   3.304  0.0718 -0.4145 -0.0672
  394MOL0     H51971  -0.247   7.643   3.359 -0.6740 -1.7143 -0.5082
  394MOL0     H51972  -0.363   7.667   3.844 -0.5304  1.1278  1.0205
  394MOL0     H51973  -0.548   7.828   3.904 -2.9273 -0.3933  0.2750
  394MOL0     H51974  -0.886   7.622   4.000  1.4943  0.4814  1.7256
  394MOL0     H51975  -0.992   7.693   3.862 -1.0813  0.8296  1.7955
  394MOL0     H51976  -0.892   7.831   4.118  0.5955 -0.8852 -0.4634
  394MOL0     H51977  -1.052   7.750   4.113 -3.3834  2.2001 -2.1747
  394MOL0     H51978  -1.135   7.881   3.963  0.2600 -2.5533  3.2387
  394MOL0     H51979  -0.987   7.973   3.906  0.6636  3.6343  2.1438
  394MOL0     H51980  -1.121   8.015   4.177 -0.8443  1.4188 -1.0679
  394MOL0     H51981  -0.978   8.082   4.117 -0.7059 -1.2615  0.4572
  394MOL0     H51982  -1.154   8.169   3.918 -1.9984 -0.9739 -0.0006
  394MOL0     H51983  -1.158   8.248   4.076 -0.2080  0.9664 -1.1952
  394MOL0     H51984  -1.332   8.105   4.160  2.3413  3.0687  0.6038
  394MOL0     H51985  -1.348   8.035   3.994 -3.8777  3.0659 -2.3543
  394MOL0     H51986  -1.418   8.251   3.904 -0.8183  3.5365  0.4071
  394MOL0     H51987  -1.520   8.211   4.046 -1.1116  1.7509 -1.3540
  394MOL0     H51988  -1.291   8.411   4.072 -0.7123  3.0065 -1.1118
  394MOL0     H51989  -1.435   8.354   4.167  0.5905 -1.7655 -0.3746
  394MOL0     H51990  -0.829   7.517   3.767  2.2039 -4.2091  1.4876
  394MOL0     H51991  -0.654   7.394   3.686  0.4143 -0.6192 -1.1019
  394MOL0     H51992  -0.173   7.382   3.695  0.1319 -2.7617 -1.5765
  394MOL0     H51993   0.053   7.363   3.645 -2.7705 -2.9243  0.7471
  394MOL0     H51994   1.844   7.473   3.330 -0.6315 -0.6340  0.4726
  394MOL0     H51995   2.031   7.429   3.187 -1.7714 -0.4745  1.4823
  394MOL0     H51996   2.158   7.415   2.546 -2.9524 -0.5892  0.8124
  394MOL0     H51997   2.345   7.282   2.444 -3.4045  0.9321 -0.8404
  394MOL0     H51998   2.691   7.187   2.462 -0.2072  1.1002  1.2114
  394MOL0     H51999   2.565   7.303   2.458  3.0629 -0.5883  1.6113
  394MOL0     H52000   2.569   7.021   2.332 -2.5700 -0.9429 -0.2377
  394MOL0     H52001   2.421   7.106   2.334 -0.1486 -1.5151  0.1405
  394MOL0     H52002   2.667   7.196   2.168  0.0028  1.9696 -0.8098
  394MOL0     H52003   2.529   7.296   2.183 -0.7901 -0.6471  1.2937
  394MOL0     H52004   2.396   7.075   2.105  0.2339 -1.4768 -1.0601
  394MOL0     H52005   2.488   7.160   1.983 -0.2470  0.7689  0.3577
  394MOL0     H52006   2.718   6.807   2.078 -0.8252 -0.3627 -2.9443
  394MOL0     H52007   2.428   7.102   2.803  3.0209  3.5905 -0.5939
  394MOL0     H52008   2.234   7.214   2.922  0.8319 -0.2162  0.1352
  395MOL0     O52009   8.185   1.741   2.233  0.1171 -0.0778 -0.5706
  395MOL0     C52010   8.152   1.850   2.285  0.4475 -1.0811 -0.2589
  395MOL0     O52011   8.026   1.892   2.288 -0.0027  0.7345 -0.1287
  395MOL0     C52012   7.926   1.805   2.265 -0.7941  0.4553  0.7579
  395MOL0     C52013   7.874   1.713   2.357 -0.3648  0.4142  0.1949
  395MOL0     C52014   7.775   1.629   2.320  0.7582  0.7502  1.2991
  395MOL0     C52015   7.708   1.645   2.198 -0.5305 -0.3764  0.1080
  395MOL0     O52016   7.598   1.574   2.164 -0.1007  0.7548 -0.4803
  395MOL0     C52017   7.631   1.439   2.138 -0.4304  0.6653  0.1626
  395MOL0     C52018   7.544   1.370   2.031 -0.2442 -0.0943 -0.1720
  395MOL0     C52019   7.640   1.266   1.959  0.1779 -0.2524  0.1935
  395MOL0     C52020   7.548   1.169   1.887 -0.5025 -0.5103 -0.6848
  395MOL0     C52021   7.527   1.202   1.741 -0.6068  0.6296  0.7577
  395MOL0     C52022   7.418   1.296   1.712 -0.6961  0.2281 -0.5548
  395MOL0     C52023   7.376   1.314   1.559  0.4944 -0.7703 -0.8542
  395MOL0     C52024   7.296   1.446   1.538 -0.2737 -0.0069  0.0378
  395MOL0     N52025   7.227   1.448   1.405  0.1504 -1.2325 -1.2074
  395MOL0     C52026   7.282   1.495   1.292  0.6557  0.3089 -0.0306
  395MOL0     C52027   7.185   1.467   1.204  1.0677 -0.2408 -0.0680
  395MOL0     C52028   7.205   1.482   1.060 -0.4437 -0.2015 -0.1669
  395MOL0     C52029   7.231   1.348   0.999  0.0133  0.8760  0.6241
  395MOL0     C52030   7.343   1.345   0.893  1.3665  0.7013 -0.2392
  395MOL0     C52031   7.362   1.211   0.833  0.9399  0.5356 -1.0264
  395MOL0     O52032   7.428   1.117   0.927  0.4588  0.4271 -0.3812
  395MOL0     C52033   7.561   1.106   0.930  0.2526  0.9372  0.3601
  395MOL0     C52034   7.638   1.018   0.855 -0.0292  1.1707 -0.5735
  395MOL0     C52035   7.772   1.004   0.871 -0.0010 -1.0119  0.3589
  395MOL0     C52036   7.836   1.077   0.972  0.7643  0.2389  0.7812
  395MOL0     C52037   7.981   1.046   1.000  0.0116 -0.4933 -0.5235
  395MOL0     O52038   8.025   1.077   1.127 -0.5302 -0.1804  0.8891
  395MOL0     C52039   8.149   1.042   1.161  1.1711  0.0763 -0.6749
  395MOL0     C52040   8.222   1.131   1.246 -0.8395  0.5460  0.1719
  395MOL0     C52041   8.350   1.101   1.298  0.9153 -0.5956 -0.1691
  395MOL0     C52042   8.409   0.974   1.278 -0.7575  1.3601 -0.2267
  395MOL0     O52043   8.532   0.928   1.323  0.1690 -0.6282 -0.0144
  395MOL0     C52044   8.597   0.990   1.435 -0.2394  0.0040  0.8702
  395MOL0     C52045   8.506   0.986   1.567 -0.2303 -0.4014  0.0453
  395MOL0     C52046   8.576   1.000   1.703  0.2246  0.3916  0.1060
  395MOL0     C52047   8.660   1.127   1.699 -0.7360 -0.6583 -0.3345
  395MOL0     C52048   8.733   1.142   1.834 -0.3754  0.1481 -0.3291
  395MOL0     C52049   8.838   1.256   1.835 -0.1424  0.5646  0.3411
  395MOL0     C52050   8.914   1.236   1.972  0.1456 -0.1270 -0.0375
  395MOL0     C52051   9.057   1.307   1.979  0.9150 -0.1141 -0.2346
  395MOL0    Cl52052   9.036   1.484   1.941  0.3208  0.0018 -0.0297
  395MOL0     C52053   8.327   0.880   1.212  1.1102 -0.0382 -0.6161
  395MOL0     C52054   8.198   0.913   1.162 -0.3538  1.0509  0.5619
  395MOL0     O52055   8.050   0.987   0.922  0.3162 -0.4742 -0.4350
  395MOL0     C52056   7.759   1.173   1.045 -0.7276  0.8112  0.0912
  395MOL0     C52057   7.621   1.174   1.028  0.2649  0.6526 -0.6420
  395MOL0     N52058   7.071   1.424   1.268  0.1105 -0.6110 -1.0384
  395MOL0     N52059   7.099   1.411   1.398  0.6401  0.3743 -0.2144
  395MOL0     C52060   7.756   1.731   2.107  1.0228 -0.7247  0.5023
  395MOL0     C52061   7.869   1.815   2.131  0.0516  0.3888  0.3243
  395MOL0     C52062   8.265   1.940   2.324  0.8800  0.2649 -0.2459
  395MOL0     C52063   8.236   2.046   2.409 -0.0445  0.4227  0.0045
  395MOL0     C52064   8.335   2.132   2.449  0.2904 -0.0699  0.6841
  395MOL0     C52065   8.464   2.131   2.416 -0.8945 -0.3145  0.1753
  395MOL0     O52066   8.547   2.239   2.444  0.7622 -0.1966 -0.4316
  395MOL0     C52067   8.678   2.250   2.374  0.3864 -0.2025 -0.0180
  395MOL0     C52068   8.733   2.394   2.396 -0.0801  0.5600 -0.6052
  395MOL0     C52069   8.875   2.398   2.357 -0.0131 -0.4918  0.0379
  395MOL0     C52070   8.892   2.435   2.210 -0.0199 -0.2166 -0.2972
  395MOL0     C52071   8.904   2.583   2.199 -0.3705 -0.4627  0.5343
  395MOL0     C52072   8.901   2.706   2.186  0.4706  0.4123  1.1311
  395MOL0     C52073   8.502   2.017   2.336  0.4198 -1.0705 -0.9318
  395MOL0     C52074   8.397   1.929   2.284  0.0217 -0.5087  0.1377
  395MOL0     H52075   7.931   1.713   2.449  0.8495  0.9838 -0.5245
  395MOL0     H52076   7.743   1.549   2.387  5.5290 -3.0969 -0.3258
  395MOL0     H52077   7.616   1.381   2.230  1.7419  1.8434  1.3339
  395MOL0     H52078   7.738   1.429   2.123  0.0432 -1.0232  3.7242
  395MOL0     H52079   7.499   1.448   1.970  0.1939  0.9538  0.8080
  395MOL0     H52080   7.461   1.319   2.081  2.6009 -1.3251  3.9017
  395MOL0     H52081   7.697   1.221   2.040 -0.6978  1.2346  1.7046
  395MOL0     H52082   7.712   1.315   1.893  0.4707 -0.5482  0.2890
  395MOL0     H52083   7.610   1.079   1.897  4.4488  2.6464  1.0440
  395MOL0     H52084   7.457   1.157   1.945 -1.0768 -3.1806 -1.9662
  395MOL0     H52085   7.511   1.113   1.679  0.9673  1.4039 -0.8679
  395MOL0     H52086   7.618   1.240   1.694  0.2354  0.2871  2.0890
  395MOL0     H52087   7.459   1.392   1.745  2.6602 -1.4072  0.4775
  395MOL0     H52088   7.331   1.280   1.776  0.8918  0.2283  1.7336
  395MOL0     H52089   7.463   1.312   1.493 -0.3087 -2.4199 -1.9191
  395MOL0     H52090   7.318   1.222   1.546 -1.0064 -0.6090  3.2577
  395MOL0     H52091   7.368   1.527   1.551 -0.1481 -0.1747  0.4129
  395MOL0     H52092   7.217   1.456   1.613  0.3179  2.9009  0.3971
  395MOL0     H52093   7.380   1.541   1.282  0.9689  0.2640  2.2790
  395MOL0     H52094   7.288   1.551   1.039 -0.5887 -0.3415 -1.2495
  395MOL0     H52095   7.123   1.535   1.010  0.6056 -0.9182 -2.7943
  395MOL0     H52096   7.146   1.316   0.938  1.1255  0.7056 -0.8807
  395MOL0     H52097   7.241   1.271   1.077  1.4227 -0.1291 -0.4964
  395MOL0     H52098   7.320   1.415   0.811  0.2169 -1.7983 -2.2100
  395MOL0     H52099   7.438   1.377   0.936  0.3076  0.0022  2.8593
  395MOL0     H52100   7.415   1.215   0.737 -1.0004 -0.1618 -2.1779
  395MOL0     H52101   7.259   1.180   0.813  1.8622 -2.6994 -1.3945
  395MOL0     H52102   7.589   0.958   0.778 -4.0198 -1.3627  3.4575
  395MOL0     H52103   7.822   0.941   0.798  1.3966  1.3109 -0.8423
  395MOL0     H52104   8.187   1.229   1.275  0.3663  1.2838 -0.7740
  395MOL0     H52105   8.407   1.184   1.338  1.3391 -1.0953  0.2783
  395MOL0     H52106   8.620   1.093   1.410  3.1489 -1.3151 -2.1980
  395MOL0     H52107   8.693   0.944   1.457  0.4545  1.4135  0.8680
  395MOL0     H52108   8.459   0.887   1.570  1.6178 -1.3028  2.7685
  395MOL0     H52109   8.421   1.055   1.558 -2.4072 -3.0860 -2.0864
  395MOL0     H52110   8.641   0.916   1.730 -0.3326  0.2635  1.0627
  395MOL0     H52111   8.504   1.003   1.785  0.0974  0.9586 -0.0188
  395MOL0     H52112   8.735   1.127   1.620 -0.1472 -1.4091  0.2076
  395MOL0     H52113   8.607   1.223   1.703  2.5628  1.2797  0.6434
  395MOL0     H52114   8.771   1.046   1.871 -1.3568 -0.1250  0.0249
  395MOL0     H52115   8.668   1.171   1.918  0.6892 -0.2048  0.6459
  395MOL0     H52116   8.792   1.355   1.836  2.4858  1.8826 -0.0143
  395MOL0     H52117   8.912   1.240   1.756 -0.9910 -0.4039 -0.2796
  395MOL0     H52118   8.861   1.277   2.058  0.8801 -0.6278  0.6768
  395MOL0     H52119   8.939   1.130   1.986  2.1170  0.5530  2.4081
  395MOL0     H52120   9.129   1.269   1.905 -0.5034  0.6720 -2.1193
  395MOL0     H52121   9.094   1.295   2.081  0.1151  2.1225  0.3878
  395MOL0     H52122   8.357   0.776   1.202  0.5226 -0.2518 -0.2782
  395MOL0     H52123   8.143   0.841   1.101  0.5051 -1.1414  2.2717
  395MOL0     H52124   7.810   1.239   1.115  0.8708 -0.0313 -0.2220
  395MOL0     H52125   7.561   1.244   1.086  0.2557 -0.5279  0.8365
  395MOL0     H52126   7.697   1.744   2.017  1.3717  0.8226  0.4536
  395MOL0     H52127   7.909   1.892   2.067  1.9846  0.5324  1.6348
  395MOL0     H52128   8.138   2.063   2.453 -0.1025 -0.9307  0.4421
  395MOL0     H52129   8.310   2.215   2.515 -0.0217 -0.4997  1.1166
  395MOL0     H52130   8.663   2.236   2.266 -0.3635  0.4479  0.0034
  395MOL0     H52131   8.758   2.185   2.411  1.8868  1.2000 -0.6593
  395MOL0     H52132   8.690   2.477   2.338  1.4853  2.6146  1.0035
  395MOL0     H52133   8.724   2.408   2.504 -1.6203 -1.0241 -0.5018
  395MOL0     H52134   8.918   2.298   2.373  2.4721  0.7008  1.3531
  395MOL0     H52135   8.940   2.459   2.420 -1.1489  1.1127 -0.2973
  395MOL0     H52136   8.986   2.390   2.176 -0.0126 -0.6925  0.3537
  395MOL0     H52137   8.815   2.399   2.141 -0.2338 -1.8755  0.7477
  395MOL0     H52138   8.907   2.813   2.184  0.4286  0.4527  2.5481
  395MOL0     H52139   8.608   2.012   2.312  1.3601  1.1125  2.0705
  395MOL0     H52140   8.424   1.854   2.210  1.9673 -2.6147  2.7986
  396MOL0     O52141   1.857   2.117   0.607 -0.2193 -1.2590 -0.3202
  396MOL0     C52142   1.769   2.117   0.692  1.7153 -0.9666 -0.4244
  396MOL0     O52143   1.699   2.005   0.737 -0.1995  0.0676 -0.4572
  396MOL0     C52144   1.686   1.893   0.659 -0.0464  0.0519 -0.1426
  396MOL0     C52145   1.704   1.889   0.517 -0.5086  0.4273 -0.0912
  396MOL0     C52146   1.677   1.763   0.457  0.4569 -0.2377  0.0211
  396MOL0     C52147   1.630   1.651   0.528 -1.0946 -0.4862 -0.5243
  396MOL0     O52148   1.596   1.535   0.468  0.8620  0.2728 -0.8325
  396MOL0     C52149   1.480   1.558   0.383 -0.2011  0.1549 -0.7105
  396MOL0     C52150   1.429   1.419   0.344  0.3565  0.4829  0.4167
  396MOL0     C52151   1.301   1.420   0.263 -0.0231 -0.0439 -0.3700
  396MOL0     C52152   1.167   1.429   0.356 -0.1103  0.3358  0.1336
  396MOL0     C52153   1.044   1.470   0.285 -0.0599 -0.3755 -0.1220
  396MOL0     C52154   1.004   1.345   0.195  0.5234  0.7670 -0.5304
  396MOL0     C52155   0.875   1.385   0.116 -0.4908  0.6677  0.1748
  396MOL0     C52156   0.742   1.394   0.180  0.3427 -0.7156 -0.4095
  396MOL0     N52157   0.631   1.399   0.088  0.4058 -0.1140 -0.0825
  396MOL0     C52158   0.619   1.491  -0.013 -0.8868  0.5569  0.4421
  396MOL0     C52159   0.522   1.454  -0.093  0.2096 -0.4298 -0.5815
  396MOL0     C52160   0.482   1.490  -0.235 -0.0812 -0.2023 -0.8676
  396MOL0     C52161   0.416   1.629  -0.255  0.4390 -0.8632 -0.8941
  396MOL0     C52162   0.277   1.632  -0.318 -1.0557 -0.3640 -0.3024
  396MOL0     C52163   0.173   1.587  -0.214  0.0332  1.1030  0.5048
  396MOL0     O52164   0.130   1.698  -0.125 -0.9626  0.1703  0.6321
  396MOL0     C52165  -0.002   1.709  -0.118 -0.2580 -0.7978 -0.9610
  396MOL0     C52166  -0.062   1.799  -0.207 -0.1655 -0.3916  0.2045
  396MOL0     C52167  -0.202   1.823  -0.201  0.1151 -0.6430 -0.5459
  396MOL0     C52168  -0.287   1.748  -0.114  0.1747  0.7517  0.3396
  396MOL0     C52169  -0.434   1.772  -0.123 -0.5689  0.1211  0.3214
  396MOL0     O52170  -0.475   1.883  -0.191 -0.9617  0.8484 -0.4888
  396MOL0     C52171  -0.605   1.920  -0.191 -0.9180 -0.8303 -0.0320
  396MOL0     C52172  -0.678   1.964  -0.075  0.2955  0.5121  0.0169
  396MOL0     C52173  -0.802   2.030  -0.090 -0.0327 -0.6003  0.4369
  396MOL0     C52174  -0.858   2.042  -0.220 -0.1854 -0.4678 -0.0922
  396MOL0     O52175  -0.981   2.086  -0.255 -0.1430 -0.0620  0.4540
  396MOL0     C52176  -1.059   2.174  -0.164 -0.4304  0.3443 -0.2115
  396MOL0     C52177  -1.198   2.117  -0.145  1.1258  0.2460  0.5085
  396MOL0     C52178  -1.310   2.151  -0.250  0.3920 -0.4560 -0.8497
  396MOL0     C52179  -1.266   2.096  -0.390  0.3510 -0.6144 -0.1591
  396MOL0     C52180  -1.381   2.010  -0.451  0.2717  0.7163  0.0668
  396MOL0     C52181  -1.326   1.924  -0.563 -0.7011  0.1488 -1.1729
  396MOL0     C52182  -1.422   1.813  -0.594  0.6768  0.5943 -0.6150
  396MOL0     C52183  -1.359   1.702  -0.693  0.0338  0.0588  0.0647
  396MOL0    Cl52184  -1.464   1.552  -0.676 -0.1387  0.1916  0.2750
  396MOL0     C52185  -0.788   1.997  -0.328 -0.5687 -0.1383  0.3404
  396MOL0     C52186  -0.671   1.936  -0.314  0.1288 -0.1096  0.1191
  396MOL0     O52187  -0.507   1.692  -0.077 -0.0424 -0.1465 -0.0696
  396MOL0     C52188  -0.229   1.647  -0.030  0.0234 -0.7786 -0.8913
  396MOL0     C52189  -0.091   1.648  -0.026  0.4001 -0.7227 -0.1392
  396MOL0     N52190   0.462   1.345  -0.034  0.1352  0.7344 -0.0114
  396MOL0     N52191   0.531   1.306   0.070 -0.4779  0.1007  0.2347
  396MOL0     C52192   1.622   1.659   0.659  0.0746 -0.2744  0.1267
  396MOL0     C52193   1.652   1.775   0.728  0.1545 -0.4545  0.5410
  396MOL0     C52194   1.717   2.243   0.746 -0.3269 -0.2248 -0.3740
  396MOL0     C52195   1.783   2.364   0.717  0.7913 -0.0453 -0.7190
  396MOL0     C52196   1.734   2.492   0.767 -0.0921 -0.6022  0.0339
  396MOL0     C52197   1.629   2.497   0.848  0.8437 -0.1167  0.7520
  396MOL0     O52198   1.580   2.611   0.905  0.7796  0.5432  0.0226
  396MOL0     C52199   1.678   2.718   0.927  1.4299 -0.0534 -0.0750
  396MOL0     C52200   1.645   2.803   1.056  0.7711  0.5114  0.7871
  396MOL0     C52201   1.746   2.910   1.082  0.2241  0.5309  0.8585
  396MOL0     C52202   1.726   3.005   1.197 -0.6055 -0.1150  0.1662
  396MOL0     C52203   1.598   3.070   1.190  0.2824 -0.2648  0.0146
  396MOL0     C52204   1.491   3.122   1.180  0.3372 -0.4507 -0.4325
  396MOL0     C52205   1.551   2.386   0.865 -0.9561 -0.4561 -0.3358
  396MOL0     C52206   1.600   2.263   0.822  0.3199  0.3707 -0.6021
  396MOL0     H52207   1.751   1.978   0.475  1.7808  0.0241  1.4172
  396MOL0     H52208   1.689   1.756   0.349 -1.1251 -0.6365 -0.1620
  396MOL0     H52209   1.505   1.607   0.289 -0.6798  0.4605 -0.6844
  396MOL0     H52210   1.409   1.622   0.438  1.2662  0.9830  0.2818
  396MOL0     H52211   1.423   1.350   0.429 -2.7712 -0.6390 -0.5685
  396MOL0     H52212   1.512   1.388   0.280  1.8616  5.4334 -0.4015
  396MOL0     H52213   1.286   1.320   0.221  0.3977 -1.4805  2.6472
  396MOL0     H52214   1.314   1.489   0.179  2.1167  1.0148  0.7690
  396MOL0     H52215   1.147   1.327   0.390  1.9429 -1.2795 -2.9820
  396MOL0     H52216   1.190   1.504   0.431 -2.5829  0.2660  1.0509
  396MOL0     H52217   1.060   1.560   0.226 -3.0254  0.5029  0.2511
  396MOL0     H52218   0.965   1.502   0.353 -0.2240  1.1877 -1.0007
  396MOL0     H52219   0.976   1.257   0.254  0.2164 -0.2590 -2.1377
  396MOL0     H52220   1.076   1.304   0.124 -1.5903 -5.8285  0.4161
  396MOL0     H52221   0.902   1.473   0.056 -3.1800  0.3815 -1.6145
  396MOL0     H52222   0.859   1.308   0.040  1.0219 -1.3854  1.8291
  396MOL0     H52223   0.728   1.480   0.246 -1.0922 -4.2116  4.3182
  396MOL0     H52224   0.723   1.305   0.239  1.9402  1.7579  4.3470
  396MOL0     H52225   0.678   1.579  -0.035 -1.3158 -0.0492 -4.0582
  396MOL0     H52226   0.416   1.416  -0.280 -2.3696  1.1191  0.1291
  396MOL0     H52227   0.571   1.490  -0.299 -0.7793  1.0330 -1.8791
  396MOL0     H52228   0.478   1.693  -0.319  4.1585 -0.8074  2.3689
  396MOL0     H52229   0.398   1.671  -0.155 -0.0956 -3.8131  0.3589
  396MOL0     H52230   0.254   1.733  -0.354 -1.7034 -0.4034  0.0023
  396MOL0     H52231   0.281   1.566  -0.405 -2.0544 -1.7816  0.6899
  396MOL0     H52232   0.212   1.507  -0.150  0.9312  0.5470 -0.6724
  396MOL0     H52233   0.082   1.542  -0.255  1.2558 -0.0593 -1.0867
  396MOL0     H52234   0.003   1.858  -0.271  0.2148  3.2350  3.6186
  396MOL0     H52235  -0.238   1.892  -0.276  2.0062 -0.1264 -1.0305
  396MOL0     H52236  -0.624   1.971   0.019  0.4689  0.6077 -0.0895
  396MOL0     H52237  -0.861   2.051  -0.002  0.0741 -1.7925  0.8228
  396MOL0     H52238  -1.069   2.265  -0.224 -2.1022 -1.2857 -2.6082
  396MOL0     H52239  -1.016   2.182  -0.064  0.1487  0.8624 -0.5015
  396MOL0     H52240  -1.230   2.152  -0.047 -1.0475  1.6350 -0.5907
  396MOL0     H52241  -1.179   2.010  -0.140  0.8116  0.1645  0.0996
  396MOL0     H52242  -1.334   2.257  -0.243  0.2353 -0.4547 -1.4111
  396MOL0     H52243  -1.394   2.095  -0.207 -2.4537  2.2925 -2.5051
  396MOL0     H52244  -1.242   2.176  -0.460  0.6968  0.3084  0.9833
  396MOL0     H52245  -1.169   2.046  -0.388  1.8656  1.9633 -2.4248
  396MOL0     H52246  -1.454   2.072  -0.505 -2.0828 -2.1931 -0.3344
  396MOL0     H52247  -1.439   1.939  -0.391  2.3180 -3.8640 -2.8088
  396MOL0     H52248  -1.228   1.888  -0.532  0.3533  3.4131 -0.2851
  396MOL0     H52249  -1.310   1.992  -0.648  3.7311  0.5262 -0.2611
  396MOL0     H52250  -1.450   1.767  -0.499  2.5648 -1.7747 -1.1188
  396MOL0     H52251  -1.520   1.851  -0.624 -0.3136 -1.1290  0.2552
  396MOL0     H52252  -1.255   1.684  -0.665  0.1544  1.3290  0.4699
  396MOL0     H52253  -1.368   1.743  -0.794  0.0437  2.5798  1.0114
  396MOL0     H52254  -0.824   1.999  -0.430 -0.6119 -0.1027  0.3558
  396MOL0     H52255  -0.611   1.905  -0.399  3.8286 -0.7219  2.7520
  396MOL0     H52256  -0.279   1.585   0.044  0.1719 -0.8361 -0.8399
  396MOL0     H52257  -0.034   1.597   0.051 -0.4555  1.1504  1.8500
  396MOL0     H52258   1.579   1.582   0.723 -2.7207 -0.9059 -2.3269
  396MOL0     H52259   1.648   1.783   0.836 -1.6129  1.9024  0.3836
  396MOL0     H52260   1.874   2.368   0.658 -0.9471  1.5082 -3.4558
  396MOL0     H52261   1.798   2.573   0.734  0.6116 -2.2148 -2.8821
  396MOL0     H52262   1.684   2.772   0.832 -0.2440 -3.0990 -2.0699
  396MOL0     H52263   1.777   2.681   0.953  0.9636 -0.8065  0.7094
  396MOL0     H52264   1.546   2.848   1.048  1.4496  1.8576 -0.3371
  396MOL0     H52265   1.630   2.742   1.147 -1.5691 -3.8715 -2.1580
  396MOL0     H52266   1.772   2.966   0.991  1.7874 -0.0941  0.8867
  396MOL0     H52267   1.842   2.862   1.106 -1.0053 -1.3453  2.2557
  396MOL0     H52268   1.733   2.964   1.298  2.6393  1.7646  0.8554
  396MOL0     H52269   1.814   3.071   1.198 -0.0714 -0.7372 -1.7087
  396MOL0     H52270   1.391   3.157   1.161 -0.4614 -2.1718  0.3623
  396MOL0     H52271   1.457   2.408   0.915  0.4544  4.2355  0.7750
  396MOL0     H52272   1.537   2.175   0.833 -0.4824  1.0078  0.0785
  397MOL0     O52273   5.506   8.799   0.291 -0.1833 -0.4074  0.1685
  397MOL0     C52274   5.543   8.835   0.404  0.0395  0.4277 -0.5121
  397MOL0     O52275   5.462   8.891   0.492  0.3494 -0.1840 -0.2913
  397MOL0     C52276   5.337   8.940   0.461 -0.3553  0.0669  0.3257
  397MOL0     C52277   5.224   8.873   0.500  0.0406  0.2280 -1.2064
  397MOL0     C52278   5.098   8.932   0.471 -0.1817 -0.1278 -0.5993
  397MOL0     C52279   5.098   9.057   0.404  0.2682 -0.9313  0.2277
  397MOL0     O52280   4.970   9.108   0.385 -0.5184  0.6115  0.5830
  397MOL0     C52281   4.954   9.250   0.351 -0.3472  0.1893  0.1002
  397MOL0     C52282   4.812   9.259   0.303  0.9925  0.2636  0.4581
  397MOL0     C52283   4.804   9.201   0.160  0.6396  0.3544  0.1956
  397MOL0     C52284   4.658   9.232   0.102  0.4717  0.2867  0.9175
  397MOL0     C52285   4.617   9.125   0.006  0.6300 -0.4656  0.2736
  397MOL0     C52286   4.601   8.982   0.059 -0.4012  0.2498 -0.9475
  397MOL0     C52287   4.562   8.890  -0.054 -0.9740  1.1015  0.3483
  397MOL0     C52288   4.415   8.899  -0.107  0.0544 -0.5469 -0.3510
  397MOL0     N52289   4.376   8.791  -0.203 -0.0066  0.3615  0.4001
  397MOL0     C52290   4.303   8.811  -0.318 -1.1031  0.2121  1.2306
  397MOL0     C52291   4.258   8.688  -0.359 -0.2787 -0.2426 -1.1124
  397MOL0     C52292   4.186   8.668  -0.480 -0.2402 -0.3805  0.3052
  397MOL0     C52293   4.082   8.563  -0.451  0.8581  0.3284 -0.2757
  397MOL0     C52294   3.959   8.625  -0.374 -1.1523 -0.4368  0.0853
  397MOL0     C52295   3.841   8.531  -0.367 -0.4151 -0.0860 -0.5752
  397MOL0     O52296   3.732   8.588  -0.287 -0.3558  0.2952  1.0459
  397MOL0     C52297   3.627   8.516  -0.258  0.7267 -0.5783  0.5794
  397MOL0     C52298   3.586   8.400  -0.325  0.7276  0.2639 -0.0110
  397MOL0     C52299   3.462   8.342  -0.301  0.7737  0.7702 -0.5015
  397MOL0     C52300   3.362   8.411  -0.216 -0.0869 -0.1905 -0.3052
  397MOL0     C52301   3.230   8.367  -0.211  0.1251 -0.2022 -0.1085
  397MOL0     O52302   3.197   8.251  -0.268 -1.0413  0.2482 -0.3873
  397MOL0     C52303   3.072   8.196  -0.265 -0.4662  1.0315  0.3383
  397MOL0     C52304   2.994   8.164  -0.147 -0.5006  0.1794  0.3654
  397MOL0     C52305   2.861   8.125  -0.158  0.7772 -0.5406 -0.7189
  397MOL0     C52306   2.798   8.105  -0.280 -0.6484 -0.0489  0.2098
  397MOL0     O52307   2.665   8.074  -0.294 -0.2450 -0.6023  0.7366
  397MOL0     C52308   2.601   7.992  -0.397  0.8754  0.5285 -0.4112
  397MOL0     C52309   2.446   7.986  -0.374  0.2612 -0.1546 -0.7830
  397MOL0     C52310   2.403   7.933  -0.231  0.4749 -0.7003 -0.9750
  397MOL0     C52311   2.260   7.873  -0.246  0.3571 -0.0800 -0.8874
  397MOL0     C52312   2.184   7.862  -0.107  1.1819 -0.1339  1.0600
  397MOL0     C52313   2.240   7.786   0.011 -0.5603 -0.3049  1.0311
  397MOL0     C52314   2.297   7.654  -0.038  0.3888 -0.8284  0.5583
  397MOL0     C52315   2.314   7.539   0.069  0.3787  1.4079  0.3437
  397MOL0    Cl52316   2.186   7.535   0.190 -0.5142 -0.1721  0.0858
  397MOL0     C52317   2.874   8.135  -0.392 -0.0569 -0.1402  0.2706
  397MOL0     C52318   3.016   8.173  -0.392  0.8492  0.4250 -0.2613
  397MOL0     O52319   3.146   8.443  -0.163 -0.6086 -0.7697 -0.1047
  397MOL0     C52320   3.415   8.525  -0.151 -0.4559 -0.0367  0.4724
  397MOL0     C52321   3.536   8.574  -0.167  0.1807  0.4640 -0.1119
  397MOL0     N52322   4.321   8.598  -0.265 -0.0036 -0.2989  0.2016
  397MOL0     N52323   4.382   8.657  -0.172 -0.5395  1.4781  0.0378
  397MOL0     C52324   5.220   9.120   0.362  0.2452 -0.6236 -0.3135
  397MOL0     C52325   5.335   9.060   0.388 -1.0435 -0.7587 -1.2033
  397MOL0     C52326   5.680   8.778   0.445 -0.0811 -0.1111 -0.0023
  397MOL0     C52327   5.756   8.853   0.528 -0.5469  0.3032  0.1125
  397MOL0     C52328   5.883   8.821   0.551 -0.3395 -0.1402 -0.0168
  397MOL0     C52329   5.939   8.703   0.514  0.0223  0.8140 -0.0179
  397MOL0     O52330   6.074   8.674   0.527 -0.3417 -0.9153 -0.0997
  397MOL0     C52331   6.078   8.565   0.619 -0.0879  0.9354  0.2282
  397MOL0     C52332   6.208   8.536   0.680  0.6143 -0.1923  0.6318
  397MOL0     C52333   6.306   8.469   0.586 -0.1774 -0.0801 -0.2345
  397MOL0     C52334   6.262   8.376   0.474  0.6345 -1.6186  0.6726
  397MOL0     C52335   6.370   8.319   0.412 -0.1095 -0.1882  0.3637
  397MOL0     C52336   6.471   8.259   0.373  0.5146 -0.3596 -0.7774
  397MOL0     C52337   5.863   8.629   0.431  0.6062  0.6431  0.3408
  397MOL0     C52338   5.735   8.662   0.394  0.0265 -0.3263 -0.0519
  397MOL0     H52339   5.224   8.776   0.549  0.1469  1.1207  0.6639
  397MOL0     H52340   5.003   8.881   0.488 -2.8893  4.7941  1.0358
  397MOL0     H52341   5.027   9.299   0.287  1.3752 -1.7369  0.4872
  397MOL0     H52342   4.966   9.294   0.450  3.4962 -1.3841  0.5017
  397MOL0     H52343   4.780   9.363   0.296 -0.7472 -0.3309 -1.7081
  397MOL0     H52344   4.737   9.216   0.371  2.5609 -2.2498  0.7363
  397MOL0     H52345   4.830   9.095   0.160 -0.6172  0.0234  0.0162
  397MOL0     H52346   4.877   9.258   0.101 -0.9466  1.5298 -0.7501
  397MOL0     H52347   4.589   9.240   0.186 -0.6774 -1.7331  0.2365
  397MOL0     H52348   4.663   9.327   0.049  2.5732  0.7271  1.7906
  397MOL0     H52349   4.675   9.125  -0.087  0.2609 -1.1269  0.0280
  397MOL0     H52350   4.519   9.160  -0.029  1.0257 -1.7438 -2.3602
  397MOL0     H52351   4.527   8.964   0.137  0.0850 -1.9387 -0.9295
  397MOL0     H52352   4.694   8.949   0.106 -0.7250  2.5495  1.5327
  397MOL0     H52353   4.628   8.900  -0.141 -2.6674  0.2133 -1.1192
  397MOL0     H52354   4.576   8.790  -0.013 -1.1895  1.0897  0.3942
  397MOL0     H52355   4.407   9.000  -0.148  3.5231  0.4902  1.1435
  397MOL0     H52356   4.349   8.906  -0.020  1.3531 -0.1476  0.6375
  397MOL0     H52357   4.280   8.909  -0.358  0.5512  0.8064  1.6472
  397MOL0     H52358   4.248   8.638  -0.566  0.7558  0.6390  0.6477
  397MOL0     H52359   4.143   8.762  -0.516 -1.0450 -1.6420 -2.3040
  397MOL0     H52360   4.121   8.473  -0.403  0.6740  0.1249 -0.5067
  397MOL0     H52361   4.042   8.536  -0.549 -0.0858  1.2585 -0.1694
  397MOL0     H52362   3.981   8.658  -0.272 -2.6599 -0.6434  0.4936
  397MOL0     H52363   3.932   8.719  -0.422 -1.2801 -0.7867 -0.5493
  397MOL0     H52364   3.867   8.439  -0.314  1.6472  1.1405  0.7220
  397MOL0     H52365   3.814   8.508  -0.471  0.0216  2.8373 -1.4478
  397MOL0     H52366   3.652   8.355  -0.398 -0.8749 -0.5308 -1.0486
  397MOL0     H52367   3.436   8.252  -0.357  2.1235  1.4823 -2.3751
  397MOL0     H52368   3.027   8.183  -0.046 -1.1422 -0.8319  0.7841
  397MOL0     H52369   2.805   8.117  -0.065 -1.4408 -0.3006 -1.9886
  397MOL0     H52370   2.629   7.887  -0.388  1.2454  0.6535 -0.0758
  397MOL0     H52371   2.627   8.028  -0.497  0.9516  0.4321 -0.4249
  397MOL0     H52372   2.395   7.925  -0.448 -2.3779  0.7949  0.1192
  397MOL0     H52373   2.408   8.088  -0.389  1.7161  0.7183  1.0375
  397MOL0     H52374   2.401   8.010  -0.153 -0.9600  1.4349 -2.9806
  397MOL0     H52375   2.480   7.864  -0.195  0.7563 -1.8261 -3.5539
  397MOL0     H52376   2.202   7.946  -0.303 -1.8992  1.5646  3.1182
  397MOL0     H52377   2.271   7.781  -0.303  4.0593  0.0699 -0.6613
  397MOL0     H52378   2.090   7.813  -0.132  0.7889  0.4052  1.4559
  397MOL0     H52379   2.168   7.967  -0.081  2.5314  0.0561  1.1947
  397MOL0     H52380   2.160   7.758   0.079 -1.4729 -0.4270 -0.0667
  397MOL0     H52381   2.314   7.845   0.066 -0.0752 -0.4395  0.5305
  397MOL0     H52382   2.236   7.621  -0.123  1.2354 -1.4168  0.1647
  397MOL0     H52383   2.396   7.666  -0.085  0.5699 -1.9664  0.6362
  397MOL0     H52384   2.412   7.552   0.115  2.6599 -0.8732 -3.3417
  397MOL0     H52385   2.331   7.446   0.014  0.7442  0.9210  1.2605
  397MOL0     H52386   2.823   8.126  -0.487 -3.7727  0.3196  2.0545
  397MOL0     H52387   3.070   8.193  -0.483 -0.4150 -0.2376 -1.1879
  397MOL0     H52388   3.346   8.585  -0.092 -2.5058 -0.7040 -1.1471
  397MOL0     H52389   3.554   8.667  -0.115 -0.7711 -0.6721  2.4011
  397MOL0     H52390   5.220   9.209   0.300  2.0561 -0.9240 -0.8109
  397MOL0     H52391   5.430   9.104   0.357 -0.9984  0.9031  1.0490
  397MOL0     H52392   5.740   8.948   0.578  4.3742  1.9972 -0.9553
  397MOL0     H52393   5.945   8.889   0.609 -1.4949  2.1734 -1.3455
  397MOL0     H52394   6.040   8.470   0.580  0.3141  1.1688 -0.7555
  397MOL0     H52395   6.019   8.587   0.708 -2.0601  0.6499 -0.9416
  397MOL0     H52396   6.236   8.634   0.719 -3.0304  1.4207 -0.3527
  397MOL0     H52397   6.192   8.466   0.763  1.4934  1.8183  2.6013
  397MOL0     H52398   6.362   8.405   0.655 -1.5494 -2.2520 -1.0609
  397MOL0     H52399   6.373   8.545   0.545 -1.9699  0.7448 -1.7810
  397MOL0     H52400   6.207   8.294   0.523 -0.4045 -1.9748 -0.9930
  397MOL0     H52401   6.196   8.419   0.397 -0.7564 -1.7856  1.7392
  397MOL0     H52402   6.545   8.187   0.343 -0.5012 -0.4641 -3.3578
  397MOL0     H52403   5.914   8.544   0.384  2.1414  2.5029 -1.5727
  397MOL0     H52404   5.670   8.603   0.330 -1.8665  0.1489  1.3316
  398MOL0     O52405  10.435   4.771   3.610  0.3229 -0.9094 -0.6139
  398MOL0     C52406  10.353   4.687   3.596  0.3720 -0.5089  0.8662
  398MOL0     O52407  10.249   4.657   3.688  0.0811 -0.7043  0.5281
  398MOL0     C52408  10.234   4.735   3.800  0.2745  0.6752  0.1028
  398MOL0     C52409  10.223   4.868   3.805 -0.3162 -0.7569 -0.2777
  398MOL0     C52410  10.204   4.929   3.929  0.3767 -0.4764  0.5237
  398MOL0     C52411  10.205   4.847   4.045  0.0596  0.3651  0.8522
  398MOL0     O52412  10.159   4.893   4.166  0.0794  0.6765 -0.0202
  398MOL0     C52413  10.111   5.027   4.176  1.1668 -0.1835 -0.1296
  398MOL0     C52414  10.234   5.114   4.195 -0.7832  0.0358 -0.5015
  398MOL0     C52415  10.215   5.275   4.200  0.7547  0.7239 -0.0583
  398MOL0     C52416  10.117   5.325   4.302 -0.3694 -0.5689 -0.1994
  398MOL0     C52417  10.148   5.477   4.331 -0.1045  1.0288  0.3330
  398MOL0     C52418  10.153   5.579   4.220  1.1125 -0.4602 -0.4745
  398MOL0     C52419  10.137   5.718   4.276 -0.5235 -0.9027 -0.4154
  398MOL0     C52420  10.120   5.810   4.152 -0.2752 -1.4756 -0.1547
  398MOL0     N52421  10.112   5.956   4.177  0.3901  1.1383  0.6765
  398MOL0     C52422  10.036   6.010   4.267  0.3234  0.4383  0.1045
  398MOL0     C52423  10.089   6.132   4.287 -0.9989  0.6623  0.0710
  398MOL0     C52424  10.029   6.234   4.379  0.3638 -0.3741  0.8720
  398MOL0     C52425   9.898   6.301   4.307  0.2315 -0.0336 -0.1952
  398MOL0     C52426   9.774   6.291   4.408  0.2884 -0.1484  0.2175
  398MOL0     C52427   9.726   6.151   4.431 -0.2475 -0.2813  0.0785
  398MOL0     O52428   9.694   6.075   4.310 -0.1683  0.5000  0.3688
  398MOL0     C52429   9.717   5.943   4.296  0.2317  0.9792  0.3067
  398MOL0     C52430   9.758   5.855   4.404 -0.3525 -0.0109 -0.3287
  398MOL0     C52431   9.792   5.719   4.376 -0.0283 -1.3694 -0.1223
  398MOL0     C52432   9.767   5.671   4.243  0.1942  0.4175 -1.0447
  398MOL0     C52433   9.787   5.527   4.214 -0.7476 -0.9779  0.9391
  398MOL0     O52434   9.829   5.501   4.086 -0.5322  0.3386  0.6034
  398MOL0     C52435   9.826   5.378   4.046 -0.5002 -0.0788 -0.1442
  398MOL0     C52436   9.936   5.340   3.965  0.6618  0.3632  0.4394
  398MOL0     C52437   9.948   5.207   3.913 -0.0326 -0.0414  0.1014
  398MOL0     C52438   9.851   5.117   3.932 -0.8797  0.0161  1.3179
  398MOL0     O52439   9.859   4.995   3.872 -0.4019 -0.5485  0.6611
  398MOL0     C52440   9.796   4.883   3.927  0.1692 -0.2005  0.2513
  398MOL0     C52441   9.845   4.756   3.860  0.6886  0.6995  0.2547
  398MOL0     C52442   9.757   4.642   3.937 -0.2184  0.0156 -0.4080
  398MOL0     C52443   9.800   4.514   3.875  0.3257 -0.0517 -0.5128
  398MOL0     C52444   9.760   4.389   3.953  0.3588 -0.4837  0.3150
  398MOL0     C52445   9.803   4.397   4.099  0.5225  0.3553  0.5552
  398MOL0     C52446   9.956   4.426   4.120  1.1194 -0.9337  1.2382
  398MOL0     C52447   9.992   4.450   4.262  0.4108  0.1750  0.4905
  398MOL0    Cl52448   9.926   4.594   4.329  0.0214 -0.6209  0.0663
  398MOL0     C52449   9.743   5.151   4.009 -0.7050  0.2271 -0.2976
  398MOL0     C52450   9.730   5.275   4.064 -0.3174 -0.2488  0.5252
  398MOL0     O52451   9.782   5.447   4.304 -0.6082 -0.1478 -0.4634
  398MOL0     C52452   9.717   5.753   4.146  1.3586  0.2147 -0.7012
  398MOL0     C52453   9.699   5.892   4.173  0.6647 -0.4690  0.6795
  398MOL0     N52454  10.187   6.156   4.189 -0.0097 -0.4893  0.9783
  398MOL0     N52455  10.197   6.048   4.123  0.9876  0.3747 -0.1241
  398MOL0     C52456  10.224   4.708   4.042  0.2787 -0.3618  1.0472
  398MOL0     C52457  10.234   4.650   3.913 -0.1638  0.1047 -0.8927
  398MOL0     C52458  10.367   4.617   3.466  0.3260  0.2045 -0.1873
  398MOL0     C52459  10.458   4.665   3.366  0.0313 -0.0135 -0.8189
  398MOL0     C52460  10.509   4.596   3.263  0.1920  0.4290 -0.7974
  398MOL0     C52461  10.451   4.465   3.239 -0.7125 -1.2136  0.4467
  398MOL0     O52462  10.499   4.403   3.125 -0.1104 -0.4889  0.9261
  398MOL0     C52463  10.451   4.280   3.072  0.0197 -0.7767  1.0451
  398MOL0     C52464  10.527   4.250   2.943  0.2369 -0.5593  0.1058
  398MOL0     C52465  10.674   4.205   2.972 -0.0091 -0.9673 -1.1790
  398MOL0     C52466  10.770   4.317   3.008 -0.4399  0.5279  0.8028
  398MOL0     C52467  10.918   4.287   2.996 -1.6845 -0.4263  0.1620
  398MOL0     C52468  11.035   4.270   3.007 -0.9994  0.9700  0.5870
  398MOL0     C52469  10.370   4.407   3.338 -0.3900 -0.2034 -0.8719
  398MOL0     C52470  10.322   4.482   3.451 -0.0136  0.6562  0.4504
  398MOL0     H52471  10.219   4.936   3.720  0.0224  5.0973  3.7728
  398MOL0     H52472  10.197   5.037   3.940  0.2147 -0.3855 -0.4077
  398MOL0     H52473  10.057   5.023   4.271  1.5978 -1.1238  0.0846
  398MOL0     H52474  10.034   5.050   4.102 -0.2064 -0.0297  1.3015
  398MOL0     H52475  10.308   5.098   4.116 -0.8992  0.4882 -0.7038
  398MOL0     H52476  10.284   5.078   4.285 -1.0196  0.5225 -0.1708
  398MOL0     H52477  10.179   5.307   4.102  0.9763  1.6853  0.1673
  398MOL0     H52478  10.305   5.333   4.222 -0.2805  2.6504 -0.6739
  398MOL0     H52479  10.011   5.320   4.274 -0.5493 -1.9371  0.6447
  398MOL0     H52480  10.126   5.260   4.389 -3.1324 -1.4146 -0.4412
  398MOL0     H52481  10.252   5.475   4.365 -0.1016 -1.1695  0.3703
  398MOL0     H52482  10.077   5.506   4.409 -0.5832 -0.6078  0.5470
  398MOL0     H52483  10.071   5.566   4.149  0.6397 -1.9687  0.2883
  398MOL0     H52484  10.247   5.552   4.172  2.7194  0.8865  1.7418
  398MOL0     H52485  10.056   5.726   4.349  1.2352 -0.0678  1.5450
  398MOL0     H52486  10.229   5.738   4.330 -1.1145  2.0639 -0.3632
  398MOL0     H52487  10.036   5.777   4.092 -0.0021 -1.0911 -0.7606
  398MOL0     H52488  10.204   5.789   4.085 -1.5143  3.1179 -3.6715
  398MOL0     H52489   9.960   5.962   4.329  0.2457 -2.3324 -1.9216
  398MOL0     H52490  10.091   6.318   4.411 -1.0332  0.0670  2.5916
  398MOL0     H52491  10.000   6.172   4.465  1.4749 -0.1426  1.4361
  398MOL0     H52492   9.872   6.243   4.218  0.6463 -1.9411  0.8826
  398MOL0     H52493   9.932   6.399   4.272  0.3196  0.2817  0.7348
  398MOL0     H52494   9.813   6.333   4.501  0.8673 -4.0251  1.8971
  398MOL0     H52495   9.688   6.349   4.373  0.1100 -0.1049  0.7221
  398MOL0     H52496   9.629   6.156   4.482 -1.2468  0.2971 -1.7804
  398MOL0     H52497   9.786   6.101   4.507 -0.9740  0.0862  0.9156
  398MOL0     H52498   9.763   5.897   4.504 -1.4908  2.5043 -1.2541
  398MOL0     H52499   9.830   5.654   4.455  1.5677 -2.8173 -1.9910
  398MOL0     H52500  10.016   5.407   3.935  1.8292 -0.8036  0.8003
  398MOL0     H52501  10.032   5.181   3.849  0.1533  1.2242 -0.1865
  398MOL0     H52502   9.688   4.892   3.916  0.0651 -0.1805  1.2002
  398MOL0     H52503   9.820   4.874   4.034 -1.8087  1.3437  0.9009
  398MOL0     H52504   9.953   4.739   3.862  0.7345  0.7196 -1.2245
  398MOL0     H52505   9.814   4.760   3.755  0.9599  2.6690  0.2123
  398MOL0     H52506   9.652   4.666   3.917 -0.0651 -0.6274 -2.1992
  398MOL0     H52507   9.792   4.659   4.039  3.0450 -2.5982 -0.9148
  398MOL0     H52508   9.767   4.517   3.771  0.3967  3.3433 -0.5525
  398MOL0     H52509   9.910   4.515   3.873  0.5823  1.8542  3.6617
  398MOL0     H52510   9.815   4.306   3.907 -0.3073 -0.2556 -0.9214
  398MOL0     H52511   9.653   4.376   3.936  0.0724  2.7672 -0.9972
  398MOL0     H52512   9.779   4.296   4.135 -0.2696 -0.2051 -1.3664
  398MOL0     H52513   9.739   4.459   4.161 -3.2554 -2.5051 -0.1228
  398MOL0     H52514   9.999   4.331   4.086 -1.0012 -1.8329  0.9287
  398MOL0     H52515   9.998   4.505   4.057 -1.3310 -0.3093  0.2765
  398MOL0     H52516  10.101   4.461   4.256  0.3120  1.7158  1.1822
  398MOL0     H52517   9.952   4.365   4.318 -0.8085  0.6435  0.3481
  398MOL0     H52518   9.658   5.087   4.031 -0.5391 -0.1472 -0.7349
  398MOL0     H52519   9.637   5.294   4.117 -0.1162  0.4966  0.6171
  398MOL0     H52520   9.688   5.710   4.050  1.2774  0.0024 -0.5829
  398MOL0     H52521   9.658   5.952   4.093  1.6264 -1.9925 -1.0324
  398MOL0     H52522  10.237   4.650   4.132  0.1344  0.1612  1.4142
  398MOL0     H52523  10.262   4.545   3.903  0.8786 -0.0761  2.6398
  398MOL0     H52524  10.494   4.767   3.376 -2.6201  1.1340 -2.0797
  398MOL0     H52525  10.585   4.632   3.193  1.1683 -1.5046 -0.7804
  398MOL0     H52526  10.344   4.291   3.054  0.3589  1.3164  0.0124
  398MOL0     H52527  10.473   4.198   3.142  2.1936 -0.3922  0.9003
  398MOL0     H52528  10.478   4.176   2.879  1.5043 -1.0888 -0.2826
  398MOL0     H52529  10.525   4.336   2.877 -1.3292 -0.7101 -0.0697
  398MOL0     H52530  10.711   4.155   2.882 -1.5435  0.0130 -2.4107
  398MOL0     H52531  10.682   4.131   3.052 -1.4394 -0.0761 -0.1659
  398MOL0     H52532  10.756   4.391   2.928 -3.2519 -0.9603 -0.2238
  398MOL0     H52533  10.753   4.367   3.104  1.9796 -0.3281  1.7406
  398MOL0     H52534  11.137   4.242   3.023 -1.3093  1.3435  3.9185
  398MOL0     H52535  10.333   4.307   3.317  1.9077 -0.7450 -2.8118
  398MOL0     H52536  10.249   4.441   3.520  1.5756  0.5696  2.1608
  399MOL0     O52537   2.091   3.583   5.162  0.1079  0.4518  0.8972
  399MOL0     C52538   2.197   3.523   5.176  1.2016  0.4026  0.2578
  399MOL0     O52539   2.215   3.421   5.269 -1.0070 -0.3076  0.9533
  399MOL0     C52540   2.132   3.368   5.350  0.8610  0.4464 -1.3396
  399MOL0     C52541   2.071   3.440   5.453  1.2785 -0.5014 -0.0861
  399MOL0     C52542   1.966   3.368   5.519  0.7981  0.0475 -1.2178
  399MOL0     C52543   1.943   3.232   5.500  0.2243  0.5174 -0.2044
  399MOL0     O52544   1.858   3.168   5.584 -0.7122  0.3000 -0.9526
  399MOL0     C52545   1.908   3.047   5.631 -0.1231  1.1218  0.3782
  399MOL0     C52546   1.811   2.941   5.681  0.0487 -0.3504  0.1578
  399MOL0     C52547   1.712   3.016   5.773 -0.6939 -0.2531  0.3474
  399MOL0     C52548   1.604   2.917   5.835 -0.5465  0.3155  0.6567
  399MOL0     C52549   1.493   3.000   5.902  0.6017  0.6400  0.3066
  399MOL0     C52550   1.538   3.064   6.031 -0.2144  0.2157  0.0245
  399MOL0     C52551   1.417   3.132   6.094  0.3534  0.4532 -0.4876
  399MOL0     C52552   1.452   3.213   6.221 -0.2520  0.5751 -0.3142
  399MOL0     N52553   1.336   3.291   6.260  0.5523 -0.9882  0.2772
  399MOL0     C52554   1.228   3.238   6.322 -0.9804  0.5046  0.7575
  399MOL0     C52555   1.143   3.339   6.340 -0.5845 -0.3294 -0.1542
  399MOL0     C52556   1.016   3.332   6.413 -0.3730 -0.8127  0.1995
  399MOL0     C52557   0.920   3.433   6.365 -0.2207 -0.4741  0.7911
  399MOL0     C52558   0.776   3.414   6.416 -0.0748 -0.4019  0.4882
  399MOL0     C52559   0.739   3.407   6.567  0.1924 -0.6440 -0.1052
  399MOL0     O52560   0.806   3.296   6.636 -0.2060 -0.1052  0.4416
  399MOL0     C52561   0.859   3.305   6.764  0.4352 -0.1604 -0.4514
  399MOL0     C52562   0.940   3.194   6.800  0.0589  0.9643 -0.3563
  399MOL0     C52563   1.001   3.191   6.928 -0.2128  0.2470  0.7742
  399MOL0     C52564   0.989   3.299   7.015 -0.8207 -0.1499  0.1011
  399MOL0     C52565   1.073   3.289   7.135 -0.2753  0.0181  0.9822
  399MOL0     O52566   1.196   3.237   7.099 -0.1531  0.7081 -0.1681
  399MOL0     C52567   1.293   3.214   7.184  0.0054 -0.0698  0.1028
  399MOL0     C52568   1.348   3.314   7.263  0.3768 -0.6842  0.3795
  399MOL0     C52569   1.472   3.286   7.323  0.2629 -0.3520 -0.7364
  399MOL0     C52570   1.531   3.162   7.333 -1.2550 -0.3404  0.2784
  399MOL0     O52571   1.653   3.123   7.393 -0.0509 -0.7320 -0.9222
  399MOL0     C52572   1.721   3.220   7.476 -0.2334 -0.5943  0.0947
  399MOL0     C52573   1.845   3.168   7.546 -0.9724  1.1726  0.2929
  399MOL0     C52574   1.945   3.088   7.466  0.7984 -0.2450  0.8180
  399MOL0     C52575   2.059   3.051   7.552  0.1434 -0.1487 -0.5324
  399MOL0     C52576   2.153   2.936   7.492 -0.8326 -0.2504  0.0933
  399MOL0     C52577   2.260   3.005   7.393 -0.3028 -0.5516  0.0374
  399MOL0     C52578   2.355   2.906   7.324  0.7451 -0.0914  0.0807
  399MOL0     C52579   2.454   2.981   7.237  0.5775 -0.6745 -0.8767
  399MOL0    Cl52580   2.589   2.877   7.180 -0.3283  0.2859 -0.2194
  399MOL0     C52581   1.462   3.056   7.271  0.2669 -0.0164  0.4634
  399MOL0     C52582   1.342   3.082   7.193 -0.0949 -0.6835  0.1967
  399MOL0     O52583   1.044   3.333   7.248 -0.6070  0.3386 -0.3874
  399MOL0     C52584   0.904   3.409   6.982  0.8652 -0.5944 -0.2846
  399MOL0     C52585   0.835   3.406   6.857 -0.3643  0.0420  0.0429
  399MOL0     N52586   1.199   3.456   6.293  0.0698  0.0588 -0.1695
  399MOL0     N52587   1.305   3.422   6.232 -1.2109 -0.9292  0.2025
  399MOL0     C52588   2.015   3.163   5.398 -0.9055  0.0679 -0.8830
  399MOL0     C52589   2.116   3.227   5.326  0.9101  0.5152 -0.7552
  399MOL0     C52590   2.324   3.563   5.103  0.0481 -0.8422 -0.2091
  399MOL0     C52591   2.332   3.693   5.046  0.2497  0.2997 -1.4682
  399MOL0     C52592   2.453   3.730   4.978  0.0068 -0.0902 -0.1452
  399MOL0     C52593   2.571   3.644   4.979  0.3877 -0.4892 -0.5238
  399MOL0     O52594   2.683   3.704   4.931 -0.1806 -0.1127  1.1583
  399MOL0     C52595   2.800   3.631   4.940  0.4575  0.8740 -0.6681
  399MOL0     C52596   2.900   3.708   4.843  0.0015  0.3178  0.0983
  399MOL0     C52597   3.037   3.646   4.826 -1.3050 -0.4381 -0.2433
  399MOL0     C52598   3.121   3.639   4.955 -0.1485 -0.2129  0.4818
  399MOL0     C52599   3.256   3.630   4.904 -0.3026 -0.3995 -0.4557
  399MOL0     C52600   3.368   3.637   4.866 -0.6004  0.3210 -0.6863
  399MOL0     C52601   2.566   3.518   5.042  0.2417  0.3660  0.1277
  399MOL0     C52602   2.441   3.488   5.106  0.6543 -0.2058  0.0274
  399MOL0     H52603   2.100   3.541   5.481  0.6729 -0.4789  0.5076
  399MOL0     H52604   1.918   3.421   5.600  0.2245  0.5437 -1.8680
  399MOL0     H52605   1.984   3.057   5.709  1.1038 -0.4665 -0.5347
  399MOL0     H52606   1.959   2.992   5.551  0.4653 -0.4935  1.7943
  399MOL0     H52607   1.855   2.852   5.727 -1.4322 -2.4138 -2.1866
  399MOL0     H52608   1.747   2.897   5.604 -2.4606 -1.4638  2.6741
  399MOL0     H52609   1.657   3.089   5.714 -0.4570 -0.3427  0.0117
  399MOL0     H52610   1.778   3.062   5.847  1.7852 -1.2138 -1.1339
  399MOL0     H52611   1.566   2.862   5.749 -0.8095  4.2852 -2.0350
  399MOL0     H52612   1.648   2.844   5.903 -1.9498  0.7478  2.0841
  399MOL0     H52613   1.408   2.933   5.919  1.7625 -1.4596 -1.6760
  399MOL0     H52614   1.449   3.076   5.837  0.6097 -0.4937 -1.0634
  399MOL0     H52615   1.618   3.136   6.010  0.8133 -0.9099  0.0125
  399MOL0     H52616   1.571   2.993   6.108 -0.0042  0.9406  0.6187
  399MOL0     H52617   1.358   3.192   6.025  1.5554  0.5952 -1.4058
  399MOL0     H52618   1.357   3.045   6.125  2.1089 -1.5540 -2.3568
  399MOL0     H52619   1.534   3.277   6.187 -0.8364  0.6744 -1.5941
  399MOL0     H52620   1.484   3.140   6.297  0.5169  0.1714 -1.0044
  399MOL0     H52621   1.231   3.134   6.353  0.8998 -0.2782 -1.7191
  399MOL0     H52622   1.052   3.355   6.513  1.2682 -1.5836 -0.1813
  399MOL0     H52623   0.985   3.227   6.410  1.3171 -1.6987  5.1487
  399MOL0     H52624   0.906   3.430   6.256  0.6955 -0.4600  0.6685
  399MOL0     H52625   0.952   3.535   6.389 -1.8452 -0.1752  1.8795
  399MOL0     H52626   0.709   3.486   6.368 -0.7457 -1.6368 -0.4795
  399MOL0     H52627   0.746   3.311   6.391 -2.0380  0.0499  0.7703
  399MOL0     H52628   0.630   3.397   6.579  0.3770 -0.8455  1.7540
  399MOL0     H52629   0.756   3.505   6.612 -1.5418 -0.9133  1.2676
  399MOL0     H52630   0.959   3.114   6.730 -0.7891  1.2803 -0.9686
  399MOL0     H52631   1.056   3.101   6.955 -0.2138 -1.0057 -2.8016
  399MOL0     H52632   1.316   3.417   7.252  2.4068 -0.1463 -1.1744
  399MOL0     H52633   1.514   3.382   7.353 -2.7660  1.7738 -2.6727
  399MOL0     H52634   1.648   3.251   7.552  0.3554  1.9088 -0.2970
  399MOL0     H52635   1.752   3.307   7.418  1.2361 -1.2287 -0.1270
  399MOL0     H52636   1.808   3.118   7.636  0.3907  0.5012  0.5095
  399MOL0     H52637   1.896   3.257   7.584  0.4358  0.8509 -0.7726
  399MOL0     H52638   1.978   3.146   7.379  0.8053  0.3775  1.2270
  399MOL0     H52639   1.893   2.999   7.430 -0.4218  1.2003 -1.2088
  399MOL0     H52640   2.121   3.135   7.583 -2.1144  0.6965  2.0893
  399MOL0     H52641   2.016   3.017   7.646 -1.4609  1.9991 -0.4037
  399MOL0     H52642   2.093   2.861   7.439 -0.6226  0.0082 -0.5145
  399MOL0     H52643   2.210   2.888   7.572 -3.2697 -0.7466  1.6454
  399MOL0     H52644   2.324   3.066   7.458  2.4646 -2.8940 -0.3052
  399MOL0     H52645   2.207   3.066   7.319  0.1720  1.3001  1.1503
  399MOL0     H52646   2.402   2.848   7.404 -2.1337 -0.2302  1.8139
  399MOL0     H52647   2.299   2.847   7.251 -0.2586  0.4132  0.4174
  399MOL0     H52648   2.496   3.065   7.293 -0.0062  0.3944 -1.9972
  399MOL0     H52649   2.407   3.029   7.150  0.9143  0.7060 -0.3193
  399MOL0     H52650   1.507   2.958   7.279  0.5739  0.2265  1.9361
  399MOL0     H52651   1.302   2.998   7.136 -1.0717 -1.4759  1.9616
  399MOL0     H52652   0.872   3.489   7.047  2.0249  0.2963 -0.7752
  399MOL0     H52653   0.776   3.492   6.829 -0.2477 -0.0517 -0.4992
  399MOL0     H52654   2.010   3.058   5.372 -1.3701 -1.0772  3.1570
  399MOL0     H52655   2.184   3.175   5.259  2.2690  3.3003 -1.7361
  399MOL0     H52656   2.248   3.762   5.052 -0.7601 -1.0423  0.8587
  399MOL0     H52657   2.454   3.822   4.921 -0.6026  0.2729  0.4165
  399MOL0     H52658   2.792   3.526   4.912 -1.1071  0.6871  0.3039
  399MOL0     H52659   2.845   3.640   5.039 -0.9760  2.4075 -0.1021
  399MOL0     H52660   2.856   3.730   4.745  1.6590  1.4199 -0.4592
  399MOL0     H52661   2.915   3.809   4.883  0.6462  0.2785 -0.0274
  399MOL0     H52662   3.084   3.716   4.756 -2.0776  1.2078  0.8304
  399MOL0     H52663   3.010   3.558   4.767  1.3252 -1.6821  0.2224
  399MOL0     H52664   3.111   3.734   5.009 -2.1992 -0.4478  0.6209
  399MOL0     H52665   3.094   3.552   5.016 -1.5538 -0.8701 -0.9760
  399MOL0     H52666   3.470   3.654   4.835 -1.3193  1.0637 -2.8342
  399MOL0     H52667   2.655   3.458   5.055  0.4294  0.7390  0.5923
  399MOL0     H52668   2.439   3.388   5.148  0.8629 -0.4978 -0.6335
  400MOL0     O52669   8.744   7.318   6.429 -0.1222  0.6594 -0.1602
  400MOL0     C52670   8.860   7.296   6.407 -1.7308 -0.0974 -0.4384
  400MOL0     O52671   8.922   7.268   6.287 -0.4966  0.4003 -0.2137
  400MOL0     C52672   8.862   7.305   6.171  1.1115 -0.4273  0.4861
  400MOL0     C52673   8.854   7.432   6.123  0.1337  0.0623 -0.8143
  400MOL0     C52674   8.779   7.457   6.008  0.4394  0.0475  0.2140
  400MOL0     C52675   8.702   7.361   5.940  0.2989 -0.3709  0.5392
  400MOL0     O52676   8.623   7.374   5.824 -0.2635  0.0428  0.3629
  400MOL0     C52677   8.623   7.513   5.769  0.2440  0.2335 -0.1251
  400MOL0     C52678   8.506   7.522   5.674  0.6598  0.1159 -0.0093
  400MOL0     C52679   8.516   7.650   5.579 -0.0896 -0.5494 -0.4253
  400MOL0     C52680   8.402   7.645   5.476 -0.1404 -0.7188 -0.5713
  400MOL0     C52681   8.393   7.763   5.377 -0.5263 -0.3573 -0.5007
  400MOL0     C52682   8.325   7.889   5.435 -0.6013  0.0685 -0.6835
  400MOL0     C52683   8.327   8.002   5.338 -0.4990  0.2604  0.2821
  400MOL0     C52684   8.239   7.978   5.221 -0.2885 -0.7193 -0.2241
  400MOL0     N52685   8.205   8.102   5.151  0.7071 -0.3418 -0.7077
  400MOL0     C52686   8.122   8.204   5.207 -0.6453  0.2229 -0.3380
  400MOL0     C52687   8.093   8.283   5.101  0.2558 -0.0908  0.3571
  400MOL0     C52688   8.006   8.410   5.105  0.1078 -0.0528 -0.1411
  400MOL0     C52689   7.872   8.367   5.054  0.6152  0.0067  0.7321
  400MOL0     C52690   7.781   8.486   5.016  0.2122 -0.0438  0.1202
  400MOL0     C52691   7.760   8.599   5.128  0.3067  0.7332  0.0509
  400MOL0     O52692   7.744   8.546   5.260 -0.0068  0.8882 -0.6747
  400MOL0     C52693   7.616   8.524   5.300 -0.2416 -0.3928 -1.1811
  400MOL0     C52694   7.496   8.576   5.255 -0.2070 -0.1412  0.2192
  400MOL0     C52695   7.376   8.566   5.330 -0.2346  0.9890 -0.3584
  400MOL0     C52696   7.373   8.487   5.447  0.7233  0.3542 -0.9841
  400MOL0     C52697   7.236   8.477   5.519 -0.7440  0.4040  0.1428
  400MOL0     O52698   7.131   8.544   5.474  0.0778 -0.5174 -0.4592
  400MOL0     C52699   7.012   8.567   5.548  0.0862 -0.6109 -1.4349
  400MOL0     C52700   6.886   8.582   5.481  0.0378 -0.5718 -0.0504
  400MOL0     C52701   6.776   8.625   5.555 -0.5537  0.0295  0.8696
  400MOL0     C52702   6.771   8.631   5.696 -0.2663  0.6177  0.0541
  400MOL0     O52703   6.657   8.646   5.771 -0.4316 -0.2009 -0.0223
  400MOL0     C52704   6.560   8.735   5.730  0.6412 -0.3591  0.2114
  400MOL0     C52705   6.474   8.766   5.852 -0.8913  0.2622 -0.1151
  400MOL0     C52706   6.375   8.654   5.882  0.6353  0.0981  0.2302
  400MOL0     C52707   6.264   8.648   5.782  0.4752  0.2070 -0.1156
  400MOL0     C52708   6.148   8.724   5.838 -0.2078 -0.8669 -0.3356
  400MOL0     C52709   6.039   8.771   5.743  0.7076 -0.1178  0.4991
  400MOL0     C52710   5.925   8.826   5.829 -0.4524 -0.1196 -0.0832
  400MOL0     C52711   5.806   8.819   5.741  0.1246  0.5525 -0.8429
  400MOL0    Cl52712   5.688   8.920   5.835 -0.0132  0.7443  0.2982
  400MOL0     C52713   6.893   8.613   5.770 -1.1133 -0.9207  0.1232
  400MOL0     C52714   7.013   8.587   5.694 -1.4024  0.3936 -0.1861
  400MOL0     O52715   7.240   8.407   5.622  0.4049  0.3815 -0.0398
  400MOL0     C52716   7.491   8.426   5.496 -0.3109  0.2476  0.0176
  400MOL0     C52717   7.613   8.438   5.420 -0.0593 -0.2366  0.0800
  400MOL0     N52718   8.168   8.241   4.992 -0.6124  0.0762 -0.9459
  400MOL0     N52719   8.235   8.133   5.020 -0.0202  0.3732  0.6067
  400MOL0     C52720   8.730   7.236   5.981 -0.1878  0.2697  1.0102
  400MOL0     C52721   8.795   7.207   6.104  0.9637  0.2260  0.0133
  400MOL0     C52722   8.946   7.297   6.522  0.2102 -0.3649 -0.2794
  400MOL0     C52723   8.912   7.348   6.647  1.4928 -0.0280 -0.6333
  400MOL0     C52724   9.000   7.354   6.752 -1.1613  0.3422  0.3615
  400MOL0     C52725   9.122   7.287   6.743  0.3359  0.0853  1.0308
  400MOL0     O52726   9.224   7.290   6.835  1.0925  0.6630 -0.0478
  400MOL0     C52727   9.198   7.191   6.932 -0.1818 -0.3244  0.9541
  400MOL0     C52728   9.334   7.141   6.978 -0.5054  0.3838 -0.3330
  400MOL0     C52729   9.402   7.044   6.877  0.0596 -0.6933  0.4832
  400MOL0     C52730   9.487   6.949   6.940  1.0095  0.1652  0.2983
  400MOL0     C52731   9.570   6.889   6.828  0.8821  0.3853 -0.0919
  400MOL0     C52732   9.650   6.850   6.741 -0.2790 -0.1713  1.1928
  400MOL0     C52733   9.147   7.214   6.627  0.3949 -0.0848  1.2353
  400MOL0     C52734   9.067   7.224   6.513  0.4331 -0.3735  0.3573
  400MOL0     H52735   8.897   7.515   6.178 -0.4355 -1.6634  2.5143
  400MOL0     H52736   8.776   7.557   5.966 -2.2521 -0.3081 -0.6049
  400MOL0     H52737   8.723   7.537   5.731  1.4260 -1.7664  1.5254
  400MOL0     H52738   8.598   7.587   5.845  2.8772  0.7447  0.3454
  400MOL0     H52739   8.409   7.526   5.726 -0.3292  3.0953 -1.8512
  400MOL0     H52740   8.508   7.433   5.609  2.0946  0.5449 -0.5715
  400MOL0     H52741   8.616   7.643   5.534  0.6098 -0.8918  1.1211
  400MOL0     H52742   8.514   7.750   5.624 -2.6779 -1.1937  1.1095
  400MOL0     H52743   8.425   7.559   5.412 -0.9735 -3.2463  2.3045
  400MOL0     H52744   8.301   7.631   5.515 -0.3334  0.0443 -0.7663
  400MOL0     H52745   8.329   7.738   5.291 -1.9899  2.1241 -0.2406
  400MOL0     H52746   8.494   7.798   5.355  0.7462 -3.8304 -0.8350
  400MOL0     H52747   8.370   7.925   5.529 -0.6945 -0.1016 -0.5724
  400MOL0     H52748   8.221   7.859   5.451  0.6088 -4.4511  0.2333
  400MOL0     H52749   8.298   8.094   5.389 -0.6688 -0.5367  1.6728
  400MOL0     H52750   8.430   8.017   5.305 -0.7796  0.4088 -0.5569
  400MOL0     H52751   8.149   7.927   5.256 -0.4898 -0.2179 -0.0071
  400MOL0     H52752   8.290   7.910   5.152 -0.4483 -0.3814 -0.6791
  400MOL0     H52753   8.068   8.208   5.301  1.2855 -1.4636  0.9254
  400MOL0     H52754   8.040   8.493   5.043 -2.8366 -0.5432 -2.6384
  400MOL0     H52755   8.003   8.460   5.202 -2.7285  1.2428 -0.7983
  400MOL0     H52756   7.828   8.310   5.136  0.6394 -1.3436 -0.1492
  400MOL0     H52757   7.884   8.307   4.963  1.2137  2.0390 -0.6020
  400MOL0     H52758   7.830   8.535   4.931  0.1428  0.2371  0.2397
  400MOL0     H52759   7.687   8.444   4.978  0.5721 -0.8905  0.1355
  400MOL0     H52760   7.694   8.672   5.081  2.7078  1.4711 -2.4870
  400MOL0     H52761   7.856   8.651   5.129  1.0423 -0.5897  0.7018
  400MOL0     H52762   7.496   8.649   5.174 -0.4007 -1.1261 -0.6967
  400MOL0     H52763   7.283   8.608   5.291 -0.8746  0.9769  1.0888
  400MOL0     H52764   6.874   8.582   5.373  0.4915  1.1492 -0.1329
  400MOL0     H52765   6.682   8.645   5.504 -2.1929  0.2799  3.8059
  400MOL0     H52766   6.499   8.697   5.647 -1.0686  2.2687  0.1383
  400MOL0     H52767   6.600   8.829   5.691 -2.7172  1.0814 -0.1240
  400MOL0     H52768   6.432   8.865   5.833 -0.9311 -0.0965 -2.2502
  400MOL0     H52769   6.546   8.765   5.934  1.3738  1.0897 -1.9447
  400MOL0     H52770   6.338   8.673   5.983  1.2836 -0.8804  0.6670
  400MOL0     H52771   6.428   8.559   5.882 -0.7621 -0.7126  1.0556
  400MOL0     H52772   6.288   8.677   5.679 -0.7840 -2.3870 -1.2657
  400MOL0     H52773   6.230   8.544   5.777 -2.2529  0.9275  1.4803
  400MOL0     H52774   6.181   8.823   5.871 -3.2518  0.3609 -0.7151
  400MOL0     H52775   6.110   8.668   5.924  2.2299  1.8315  2.8001
  400MOL0     H52776   5.993   8.689   5.687 -0.3285  1.5796 -1.2370
  400MOL0     H52777   6.073   8.854   5.681 -0.7077  0.5394  0.5781
  400MOL0     H52778   5.910   8.756   5.911  0.2666 -1.3760 -0.9872
  400MOL0     H52779   5.948   8.924   5.871 -1.1034 -0.5780  1.3976
  400MOL0     H52780   5.779   8.713   5.733  1.9864  0.1712 -3.0687
  400MOL0     H52781   5.825   8.850   5.638  0.8224 -1.6152 -1.4239
  400MOL0     H52782   6.894   8.603   5.878  1.0655  2.4255  0.5631
  400MOL0     H52783   7.105   8.579   5.751 -1.4292 -0.7732 -0.2750
  400MOL0     H52784   7.475   8.356   5.577 -1.3073 -3.4905 -3.0957
  400MOL0     H52785   7.705   8.403   5.465 -1.2635 -0.6010  2.4039
  400MOL0     H52786   8.691   7.147   5.932 -2.1985  2.1097 -0.9089
  400MOL0     H52787   8.790   7.102   6.131  0.7730 -0.6719 -3.0819
  400MOL0     H52788   8.821   7.407   6.656  2.1419  0.6514  3.0992
  400MOL0     H52789   8.966   7.419   6.832 -0.6333  2.4453 -1.0415
  400MOL0     H52790   9.144   7.101   6.901 -0.1824  0.1250 -0.4192
  400MOL0     H52791   9.153   7.233   7.022  2.2502  0.2790  1.9760
  400MOL0     H52792   9.407   7.222   6.985 -1.1608  0.8871  1.0207
  400MOL0     H52793   9.333   7.096   7.077  0.9120  2.7879  0.8535
  400MOL0     H52794   9.473   7.109   6.824 -0.9238  2.7113  2.9708
  400MOL0     H52795   9.325   6.990   6.821 -0.8945 -1.1838  2.2041
  400MOL0     H52796   9.552   6.994   7.015  3.5105  3.6213 -3.4688
  400MOL0     H52797   9.426   6.871   6.986 -0.8228 -0.1879 -2.4845
  400MOL0     H52798   9.719   6.849   6.659 -2.3178 -0.4553 -0.5947
  400MOL0     H52799   9.245   7.167   6.638  1.1780  1.7476  2.6914
  400MOL0     H52800   9.097   7.171   6.424 -0.6161  0.3496 -0.4467
  401MOL0     O52801   5.602  10.360   6.667 -0.3567  0.4495  0.9079
  401MOL0     C52802   5.599  10.237   6.654  0.6420 -0.6044  0.3479
  401MOL0     O52803   5.710  10.154   6.677 -0.5043  0.8505 -0.5965
  401MOL0     C52804   5.805  10.184   6.770 -0.5042 -0.2271 -0.2548
  401MOL0     C52805   5.791  10.233   6.901  0.0683  0.4937  0.0853
  401MOL0     C52806   5.901  10.257   6.987 -0.5569  0.6013 -0.0439
  401MOL0     C52807   6.027  10.248   6.944 -1.3366  0.5588  0.4937
  401MOL0     O52808   6.126  10.295   7.030  0.4564 -0.2038  0.1271
  401MOL0     C52809   6.252  10.357   6.976  0.9295  0.1243  0.2451
  401MOL0     C52810   6.334  10.439   7.083 -0.4367  0.7047  0.9817
  401MOL0     C52811   6.232  10.540   7.142  0.1737 -0.3317 -0.3133
  401MOL0     C52812   6.191  10.655   7.045 -0.0814 -0.7330  0.2336
  401MOL0     C52813   6.113  10.775   7.117  0.0019  0.0846 -0.2171
  401MOL0     C52814   5.964  10.750   7.151 -0.5873  0.3823  0.3968
  401MOL0     C52815   5.875  10.687   7.038 -0.3574 -0.0550 -0.2081
  401MOL0     C52816   5.731  10.693   7.084 -0.0834  0.3998  0.0709
  401MOL0     N52817   5.691  10.575   7.163  0.1376  0.6696  0.6909
  401MOL0     C52818   5.564  10.542   7.188  0.9269  0.6694  0.4341
  401MOL0     C52819   5.567  10.417   7.235 -0.4518 -0.9567 -0.0104
  401MOL0     C52820   5.443  10.339   7.283 -0.0506 -0.5190  0.3647
  401MOL0     C52821   5.389  10.261   7.161  0.8497  0.4833 -0.6108
  401MOL0     C52822   5.288  10.345   7.083 -0.1367  0.2846 -0.4246
  401MOL0     C52823   5.238  10.266   6.965  0.5965  1.0549 -0.1883
  401MOL0     O52824   5.190  10.356   6.861 -0.4504  0.4345 -0.1944
  401MOL0     C52825   5.073  10.327   6.790  0.1969  0.5922 -0.0798
  401MOL0     C52826   5.007  10.440   6.728  1.0940 -0.3336 -0.5851
  401MOL0     C52827   4.883  10.422   6.660 -0.3654 -1.0850 -0.6696
  401MOL0     C52828   4.819  10.303   6.661  0.8981  0.9604 -0.1475
  401MOL0     C52829   4.671  10.300   6.637 -1.1784  0.6283  0.0231
  401MOL0     O52830   4.618  10.408   6.567 -0.4999  0.2459  0.5985
  401MOL0     C52831   4.486  10.410   6.508 -0.9977  1.1838 -0.6316
  401MOL0     C52832   4.381  10.319   6.542 -0.1815 -0.2567 -0.3598
  401MOL0     C52833   4.257  10.334   6.471  0.5624  0.1636 -0.1993
  401MOL0     C52834   4.251  10.422   6.354  1.1894  0.4074 -0.2361
  401MOL0     O52835   4.145  10.405   6.264 -0.0709  0.1342 -0.5505
  401MOL0     C52836   4.108  10.519   6.185  0.3581 -0.0247  0.5408
  401MOL0     C52837   3.995  10.471   6.093  0.5360 -0.2773  0.0627
  401MOL0     C52838   4.044  10.344   6.007  0.7250  0.1302  0.6916
  401MOL0     C52839   3.934  10.300   5.911 -0.7995 -0.5794  0.1929
  401MOL0     C52840   3.843  10.206   5.978 -0.1109  0.2603 -0.3769
  401MOL0     C52841   3.758  10.128   5.868  0.5044 -0.2035 -0.2716
  401MOL0     C52842   3.837  10.032   5.793 -0.3555  0.4563  0.3999
  401MOL0     C52843   3.771   9.899   5.766 -0.5764  0.5451 -0.5506
  401MOL0    Cl52844   3.645   9.914   5.644 -0.6742 -0.0305 -0.0333
  401MOL0     C52845   4.352  10.500   6.327 -0.6144 -0.8941 -1.1660
  401MOL0     C52846   4.473  10.499   6.398 -0.6858  0.2851 -0.0547
  401MOL0     O52847   4.612  10.201   6.660  0.5358  1.4093 -0.2264
  401MOL0     C52848   4.884  10.193   6.715  0.4231 -0.2167  0.1762
  401MOL0     C52849   5.008  10.204   6.772  0.7236 -0.3751  0.4909
  401MOL0     N52850   5.695  10.381   7.257 -0.1379 -0.3994  0.1348
  401MOL0     N52851   5.768  10.477   7.213  1.2219  0.0059  0.2680
  401MOL0     C52852   6.047  10.201   6.808  0.3892  0.4797 -0.2422
  401MOL0     C52853   5.934  10.173   6.722 -1.6647 -0.0012  0.4569
  401MOL0     C52854   5.478  10.178   6.592 -0.5624 -0.6921  0.2479
  401MOL0     C52855   5.468  10.057   6.527  0.2282 -0.1869  0.0737
  401MOL0     C52856   5.349  10.015   6.460 -0.4113  0.0174 -0.2192
  401MOL0     C52857   5.243  10.101   6.440  0.5307  0.4691  0.9601
  401MOL0     O52858   5.148  10.051   6.353 -0.2525 -0.1165 -0.4886
  401MOL0     C52859   5.045  10.144   6.312  0.5058  0.1957 -0.3837
  401MOL0     C52860   4.919  10.065   6.269 -1.1661  1.4800 -0.4345
  401MOL0     C52861   4.854   9.977   6.378  0.0258  0.4638 -0.5323
  401MOL0     C52862   4.751   9.877   6.334  1.0970 -0.1433  1.0654
  401MOL0     C52863   4.625   9.954   6.291 -0.4972  0.6165 -0.7532
  401MOL0     C52864   4.537  10.009   6.233 -0.6295  0.9551 -0.1595
  401MOL0     C52865   5.248  10.225   6.513 -0.4537 -0.4363  0.7126
  401MOL0     C52866   5.363  10.260   6.578  0.6812  0.1747  0.3737
  401MOL0     H52867   5.696  10.261   6.944 -0.1078  2.1236 -1.2596
  401MOL0     H52868   5.879  10.286   7.089  3.0691  0.4153  0.9252
  401MOL0     H52869   6.233  10.425   6.893  1.2194  0.2907  0.3119
  401MOL0     H52870   6.321  10.287   6.929  0.2095  0.9500 -2.1868
  401MOL0     H52871   6.423  10.494   7.053 -0.4090  0.0228 -0.2381
  401MOL0     H52872   6.354  10.372   7.167  0.1693  0.7334  0.8633
  401MOL0     H52873   6.288  10.595   7.219  1.0525 -1.7862  0.1191
  401MOL0     H52874   6.144  10.498   7.190 -1.9257  3.9605  0.1212
  401MOL0     H52875   6.288  10.700   7.020 -0.2754 -0.0582  0.6688
  401MOL0     H52876   6.147  10.616   6.953 -1.2141  0.3250  0.2958
  401MOL0     H52877   6.116  10.862   7.050 -1.5156 -0.0567 -0.4863
  401MOL0     H52878   6.159  10.800   7.214 -0.3086 -1.4318  0.3367
  401MOL0     H52879   5.906  10.827   7.204  1.9988  1.5915  1.6825
  401MOL0     H52880   5.968  10.665   7.220  1.7496  0.2849  0.2122
  401MOL0     H52881   5.882  10.746   6.946 -2.9987 -0.5644 -0.8186
  401MOL0     H52882   5.904  10.587   7.006 -0.7780 -0.0252 -0.6845
  401MOL0     H52883   5.671  10.697   6.993  2.8216  0.4885 -1.9657
  401MOL0     H52884   5.704  10.788   7.132  1.1995  2.5839 -3.1461
  401MOL0     H52885   5.473  10.599   7.170 -0.7950 -2.2059 -0.5887
  401MOL0     H52886   5.366  10.403   7.326 -1.5472 -1.0161 -1.4406
  401MOL0     H52887   5.479  10.271   7.360 -0.3674 -1.0310  0.0660
  401MOL0     H52888   5.340  10.167   7.189  0.8679  0.5471 -0.3672
  401MOL0     H52889   5.473  10.227   7.100 -0.5342 -4.5781 -0.1538
  401MOL0     H52890   5.204  10.371   7.149  1.7126  1.3668  1.6390
  401MOL0     H52891   5.338  10.437   7.053 -1.0124  1.0919  0.4820
  401MOL0     H52892   5.157  10.198   6.993  0.1369  2.0581  1.0608
  401MOL0     H52893   5.327  10.213   6.930  2.9923  1.7820  4.0572
  401MOL0     H52894   5.062  10.533   6.720  0.6481 -0.1646 -1.9263
  401MOL0     H52895   4.836  10.511   6.621  0.2813 -0.3598  0.1772
  401MOL0     H52896   4.374  10.243   6.618 -1.2792  1.9818  1.9378
  401MOL0     H52897   4.171  10.270   6.485 -1.4629  2.4627 -1.2491
  401MOL0     H52898   4.180  10.568   6.118  0.8049  0.1805  1.1631
  401MOL0     H52899   4.066  10.599   6.247 -2.0479 -0.0745 -0.8892
  401MOL0     H52900   3.973  10.551   6.021 -1.0187 -1.1171 -0.4509
  401MOL0     H52901   3.899  10.462   6.145  0.0060  1.0704 -0.6309
  401MOL0     H52902   4.077  10.265   6.074  1.5096 -0.0023  0.1675
  401MOL0     H52903   4.131  10.375   5.948 -0.6323  1.2643 -0.8090
  401MOL0     H52904   3.876  10.379   5.862  1.4800  0.9990 -0.1206
  401MOL0     H52905   3.988  10.244   5.834  0.2408  0.2213  0.3075
  401MOL0     H52906   3.773  10.254   6.047  2.1693  0.3679  2.0442
  401MOL0     H52907   3.890  10.133   6.044  1.4834 -1.5515 -3.3282
  401MOL0     H52908   3.718  10.208   5.804 -0.2422  1.4915  2.1373
  401MOL0     H52909   3.685  10.073   5.928  2.3200 -2.1786  0.2371
  401MOL0     H52910   3.871  10.079   5.700  1.0502  2.8278  1.9899
  401MOL0     H52911   3.925  10.003   5.851 -1.4462  0.8673  2.3476
  401MOL0     H52912   3.731   9.859   5.859  1.3591 -1.0417 -0.3300
  401MOL0     H52913   3.846   9.830   5.724  0.1504  1.2254 -0.4039
  401MOL0     H52914   4.343  10.574   6.248  0.1745 -1.0512 -1.4162
  401MOL0     H52915   4.550  10.558   6.348 -0.5464  0.1779  0.0355
  401MOL0     H52916   4.845  10.094   6.735  1.4207 -0.5134  0.6785
  401MOL0     H52917   5.056  10.121   6.822  3.4771  1.4396  1.0858
  401MOL0     H52918   6.142  10.182   6.760 -0.8257 -5.4275 -1.1004
  401MOL0     H52919   5.958  10.139   6.622 -0.7781  1.3114  0.2078
  401MOL0     H52920   5.550   9.986   6.518 -1.8242 -2.7763  0.5844
  401MOL0     H52921   5.341   9.915   6.419 -3.0434  1.6281 -4.2964
  401MOL0     H52922   5.076  10.216   6.236 -2.1677  1.6506 -0.2145
  401MOL0     H52923   5.015  10.210   6.394  0.9521  0.8019 -0.7024
  401MOL0     H52924   4.840  10.129   6.230 -2.1580  1.1238  0.9386
  401MOL0     H52925   4.941  10.009   6.178 -2.9835  3.9479 -2.5472
  401MOL0     H52926   4.822  10.033   6.467  1.2991 -1.0217  0.9317
  401MOL0     H52927   4.941   9.921   6.415  0.0226  1.9633  1.9937
  401MOL0     H52928   4.783   9.813   6.252  0.3345 -0.0820  0.7053
  401MOL0     H52929   4.727   9.810   6.417 -0.9321  2.4862  2.7759
  401MOL0     H52930   4.442  10.028   6.186 -2.2159 -2.0453  1.4941
  401MOL0     H52931   5.167  10.298   6.512  2.1519  2.7191  1.8092
  401MOL0     H52932   5.358  10.358   6.625 -0.3565  0.3451 -0.0650
  402MOL0     O52933   0.272  10.041   4.371 -0.2026  0.3450  0.6997
  402MOL0     C52934   0.311  10.021   4.480 -0.9603  0.1678 -0.4625
  402MOL0     O52935   0.232  10.034   4.602 -0.4682  0.7179 -0.2597
  402MOL0     C52936   0.110  10.095   4.601  0.7310 -0.7775  0.5223
  402MOL0     C52937   0.010  10.037   4.682  0.7105 -1.1432 -0.3802
  402MOL0     C52938  -0.112  10.102   4.710  0.4333  0.1909  0.1605
  402MOL0     C52939  -0.144  10.225   4.656 -0.2338  0.3156  0.1358
  402MOL0     O52940  -0.267  10.278   4.690 -0.9783 -1.0238 -0.2422
  402MOL0     C52941  -0.258  10.350   4.807  0.0005  0.0836 -0.0065
  402MOL0     C52942  -0.377  10.448   4.824  0.2572  0.4977 -0.6396
  402MOL0     C52943  -0.443  10.512   4.695  0.0522 -0.2318 -0.4084
  402MOL0     C52944  -0.554  10.610   4.736 -1.1064 -0.3329 -0.8185
  402MOL0     C52945  -0.634  10.659   4.616 -0.9225  0.0720 -0.7393
  402MOL0     C52946  -0.556  10.702   4.488 -0.1196 -0.1715  0.0659
  402MOL0     C52947  -0.657  10.739   4.385  0.6681  0.5337  0.2772
  402MOL0     C52948  -0.586  10.774   4.255 -0.5396 -1.0033 -0.0051
  402MOL0     N52949  -0.688  10.792   4.162  0.0831 -0.7863  0.3979
  402MOL0     C52950  -0.760  10.909   4.144 -0.1483 -0.2704 -0.9761
  402MOL0     C52951  -0.844  10.894   4.043  0.4029 -0.2093  0.5314
  402MOL0     C52952  -0.921  10.995   3.972 -0.4167  0.4380 -0.2587
  402MOL0     C52953  -1.000  10.942   3.854  0.0278 -0.0331  0.4482
  402MOL0     C52954  -1.125  11.020   3.806  0.4730 -0.4982  0.3282
  402MOL0     C52955  -1.166  10.990   3.663  0.8102 -0.0287  0.7055
  402MOL0     O52956  -1.194  10.854   3.637 -0.1304 -0.5631  0.4630
  402MOL0     C52957  -1.320  10.825   3.678  0.0760 -0.0909 -0.5102
  402MOL0     C52958  -1.341  10.789   3.814  0.2990 -0.6385  0.5002
  402MOL0     C52959  -1.473  10.771   3.850  0.0715 -0.3019  0.6706
  402MOL0     C52960  -1.588  10.784   3.767  0.0649 -0.9338  0.0414
  402MOL0     C52961  -1.726  10.765   3.827 -0.8315 -1.2829  0.4734
  402MOL0     O52962  -1.830  10.808   3.739 -0.5155  0.4928 -0.2364
  402MOL0     C52963  -1.955  10.792   3.794 -0.0197  0.1096  0.7598
  402MOL0     C52964  -2.006  10.663   3.813  0.6215  0.5602  0.3731
  402MOL0     C52965  -2.132  10.642   3.875  1.0693  0.1978 -0.7670
  402MOL0     C52966  -2.216  10.753   3.903 -0.1355 -0.3882 -0.3199
  402MOL0     O52967  -2.335  10.724   3.960  0.7790 -0.3017 -0.5214
  402MOL0     C52968  -2.443  10.749   3.875  0.1066  0.0312  0.2108
  402MOL0     C52969  -2.566  10.679   3.931 -0.3043  0.1936 -0.2907
  402MOL0     C52970  -2.563  10.527   3.918  0.4166  0.2799  0.3261
  402MOL0     C52971  -2.688  10.475   3.998 -0.4478 -0.8358 -0.2237
  402MOL0     C52972  -2.724  10.328   3.965 -0.0309  0.4231  0.5846
  402MOL0     C52973  -2.616  10.222   4.009  0.0013  0.2111  0.2048
  402MOL0     C52974  -2.560  10.238   4.162 -0.9952  1.3124  0.8272
  402MOL0     C52975  -2.423  10.159   4.191 -0.2032 -0.6814  0.1005
  402MOL0    Cl52976  -2.291  10.209   4.067  0.1000 -0.3225 -0.1148
  402MOL0     C52977  -2.159  10.878   3.893  0.0806 -0.4540  0.0701
  402MOL0     C52978  -2.036  10.900   3.842  0.9461 -0.1377  0.2220
  402MOL0     O52979  -1.739  10.721   3.937  0.6415 -0.0395 -0.3757
  402MOL0     C52980  -1.563  10.816   3.634 -0.0357 -1.0647  0.2470
  402MOL0     C52981  -1.432  10.826   3.593  0.0390 -0.9702 -0.7081
  402MOL0     N52982  -0.835  10.764   3.993  0.1551  0.7861 -0.5879
  402MOL0     N52983  -0.744  10.707   4.064  0.1612  0.0348  0.0674
  402MOL0     C52984  -0.054  10.279   4.565  0.3184  0.3091 -1.0323
  402MOL0     C52985   0.073  10.221   4.540  0.0935  0.6126  0.5638
  402MOL0     C52986   0.455   9.971   4.501  0.0386 -0.0105  0.0458
  402MOL0     C52987   0.503   9.941   4.633  0.1477 -0.8062  0.6395
  402MOL0     C52988   0.632   9.884   4.644  0.3486  0.3901 -0.1473
  402MOL0     C52989   0.711   9.850   4.533  0.2987  0.8218  0.6373
  402MOL0     O52990   0.831   9.776   4.551 -0.4497 -0.5524  0.0106
  402MOL0     C52991   0.900   9.716   4.441 -1.1651  0.9438 -0.2236
  402MOL0     C52992   0.983   9.600   4.499 -0.7529 -0.2227 -0.1155
  402MOL0     C52993   1.125   9.641   4.521 -0.6234  0.0365  0.3920
  402MOL0     C52994   1.215   9.514   4.547  0.6099  0.0605  0.2194
  402MOL0     C52995   1.177   9.456   4.676  0.2745 -1.1448  0.3332
  402MOL0     C52996   1.156   9.419   4.785 -0.6643 -0.7279 -0.8441
  402MOL0     C52997   0.662   9.879   4.402  0.2679 -0.5698  0.1216
  402MOL0     C52998   0.536   9.935   4.389  0.5441 -0.2649  0.2370
  402MOL0     H52999   0.039   9.939   4.720 -0.2776 -1.5365 -0.6018
  402MOL0     H53000  -0.194  10.054   4.762  0.6359 -0.7818 -0.3964
  402MOL0     H53001  -0.164  10.405   4.796  0.5552 -0.7725  0.3337
  402MOL0     H53002  -0.255  10.289   4.898  2.1931 -1.7305 -1.1924
  402MOL0     H53003  -0.349  10.524   4.898 -0.2582 -1.4542  1.6541
  402MOL0     H53004  -0.444  10.391   4.889  0.3637 -0.2796 -1.1975
  402MOL0     H53005  -0.475  10.423   4.641  0.7013 -0.7268  0.0033
  402MOL0     H53006  -0.373  10.571   4.635 -0.6568  1.5636  0.4467
  402MOL0     H53007  -0.610  10.554   4.811  0.1508 -0.7531 -0.1623
  402MOL0     H53008  -0.511  10.694   4.792  0.0670 -1.8947  0.7029
  402MOL0     H53009  -0.698  10.740   4.652 -0.3234 -0.2048  1.0373
  402MOL0     H53010  -0.694  10.573   4.586  1.8120 -2.6496  1.0351
  402MOL0     H53011  -0.495  10.622   4.447  0.9788  0.5548  0.2372
  402MOL0     H53012  -0.491  10.786   4.515 -0.3806 -0.5855  2.2316
  402MOL0     H53013  -0.719  10.652   4.362  0.2613  0.5339  1.3206
  402MOL0     H53014  -0.712  10.829   4.413  1.7204  1.4538 -0.4993
  402MOL0     H53015  -0.519  10.689   4.241  0.3866 -1.0474  3.5739
  402MOL0     H53016  -0.527  10.866   4.254 -0.6565 -0.9286 -0.7658
  402MOL0     H53017  -0.743  11.006   4.190 -1.4206  0.6255 -2.3377
  402MOL0     H53018  -0.851  11.069   3.932 -1.7605  0.6260 -2.4234
  402MOL0     H53019  -1.001  11.034   4.036 -0.3910  1.5761 -0.8954
  402MOL0     H53020  -1.036  10.842   3.878  1.6565 -1.4188 -2.3417
  402MOL0     H53021  -0.926  10.929   3.774 -0.3181 -0.3641  0.1803
  402MOL0     H53022  -1.208  11.002   3.875  1.0566 -3.3554  0.4030
  402MOL0     H53023  -1.109  11.128   3.792 -3.6622  0.0984 -0.9983
  402MOL0     H53024  -1.084  11.021   3.598  0.4347 -0.1708  0.1555
  402MOL0     H53025  -1.254  11.050   3.636  0.1935 -2.0094 -2.1782
  402MOL0     H53026  -1.259  10.778   3.884 -0.5407 -0.5322  1.5187
  402MOL0     H53027  -1.488  10.757   3.957  1.0642  1.6540  1.1100
  402MOL0     H53028  -1.945  10.583   3.774 -0.7107  0.4666 -1.6775
  402MOL0     H53029  -2.174  10.542   3.885 -1.3135  1.3318  1.9555
  402MOL0     H53030  -2.435  10.710   3.773 -4.3288  1.0738 -0.7624
  402MOL0     H53031  -2.457  10.857   3.870  1.0623  0.1357 -0.5945
  402MOL0     H53032  -2.661  10.707   3.886 -1.8846 -1.4586  1.7801
  402MOL0     H53033  -2.587  10.716   4.032  0.1219  0.1964 -0.2012
  402MOL0     H53034  -2.476  10.478   3.964 -1.1630 -3.6249 -0.4278
  402MOL0     H53035  -2.569  10.497   3.813 -0.5956 -2.9906  1.1904
  402MOL0     H53036  -2.661  10.492   4.103  5.3696 -1.4251 -1.2545
  402MOL0     H53037  -2.781  10.526   3.972 -0.3150 -0.8721 -0.7857
  402MOL0     H53038  -2.738  10.310   3.858 -1.0975 -2.8274  1.1652
  402MOL0     H53039  -2.823  10.305   4.004 -0.3685  0.5424 -0.1938
  402MOL0     H53040  -2.528  10.225   3.944  1.7150  1.1286  2.4549
  402MOL0     H53041  -2.665  10.125   3.994  0.9874 -0.2112 -0.4061
  402MOL0     H53042  -2.542  10.342   4.190  2.0245  2.8540 -5.2164
  402MOL0     H53043  -2.636  10.193   4.227 -1.3195 -2.1936 -1.6993
  402MOL0     H53044  -2.447  10.052   4.191 -0.7293 -0.5823  1.3847
  402MOL0     H53045  -2.390  10.177   4.293 -2.2090 -3.2844  1.3586
  402MOL0     H53046  -2.225  10.960   3.919  1.8096 -0.0982  4.1984
  402MOL0     H53047  -1.995  11.000   3.839 -0.2147  0.3982  1.3173
  402MOL0     H53048  -1.648  10.809   3.567 -0.2430 -1.4028  0.5373
  402MOL0     H53049  -1.426  10.832   3.485 -1.3035 -0.4394 -0.7713
  402MOL0     H53050  -0.093  10.364   4.510  1.1778  0.3374 -1.6257
  402MOL0     H53051   0.149  10.261   4.473 -1.1740  2.6625  0.2517
  402MOL0     H53052   0.439   9.956   4.719  1.2413 -1.1558  1.5419
  402MOL0     H53053   0.658   9.849   4.744  2.2448 -1.3429 -1.1655
  402MOL0     H53054   0.956   9.787   4.380  2.0734 -0.1237  1.2521
  402MOL0     H53055   0.817   9.681   4.379 -1.3778  1.7061 -0.3881
  402MOL0     H53056   0.933   9.566   4.589 -1.0492  0.6682  0.0597
  402MOL0     H53057   0.976   9.518   4.426 -0.5183 -0.9283  0.6311
  402MOL0     H53058   1.144   9.713   4.601  2.8357 -0.1164 -0.1152
  402MOL0     H53059   1.156   9.696   4.432  0.1211 -0.7410  0.1552
  402MOL0     H53060   1.189   9.437   4.474  0.3316  1.2015 -0.9225
  402MOL0     H53061   1.320   9.543   4.551  0.4375  0.6304  3.7180
  402MOL0     H53062   1.099   9.385   4.870 -2.2168  2.4699 -0.4610
  402MOL0     H53063   0.711   9.851   4.309 -0.1966  0.3114 -0.4007
  402MOL0     H53064   0.494   9.960   4.292 -0.3682  0.7687  0.8813
  403MOL0     O53065   2.148   9.667  10.565  0.1545 -0.1391  0.0239
  403MOL0     C53066   2.057   9.718  10.624 -0.2725  0.2084 -0.1857
  403MOL0     O53067   2.037   9.708  10.758 -0.2462 -0.4399  0.4481
  403MOL0     C53068   2.118   9.630  10.832  1.0869 -0.7465 -0.1913
  403MOL0     C53069   2.234   9.678  10.894  0.2093  1.8723  0.0270
  403MOL0     C53070   2.307   9.585  10.971 -0.3229  0.2791  0.5758
  403MOL0     C53071   2.267   9.445  10.973  0.9103  0.6167  0.0016
  403MOL0     O53072   2.356   9.361  11.038 -0.3121 -0.5424 -0.2263
  403MOL0     C53073   2.299   9.251  11.114 -0.7146 -0.4111  0.6348
  403MOL0     C53074   2.418   9.172  11.182 -0.2126 -0.6625  1.0485
  403MOL0     C53075   2.529   9.247  11.258 -0.4549  0.0369  0.2599
  403MOL0     C53076   2.635   9.157  11.310  0.3911  0.4535  0.3957
  403MOL0     C53077   2.759   9.240  11.336 -0.7336  0.4064  1.0370
  403MOL0     C53078   2.862   9.158  11.419  0.2591 -0.4377  0.0769
  403MOL0     C53079   2.916   9.026  11.361  0.0822 -0.3731 -0.3488
  403MOL0     C53080   2.989   8.940  11.468  0.0708  0.4060  0.0682
  403MOL0     N53081   3.125   8.986  11.488 -0.6393 -0.0299  0.3983
  403MOL0     C53082   3.171   9.070  11.582 -0.6381  0.0048  0.6051
  403MOL0     C53083   3.301   9.086  11.551 -0.7177  0.0672 -0.2936
  403MOL0     C53084   3.402   9.158  11.636 -0.1891  0.5283  1.0112
  403MOL0     C53085   3.360   9.294  11.676  0.9850 -0.1115  0.7358
  403MOL0     C53086   3.477   9.388  11.717  0.6758 -0.2054  0.0156
  403MOL0     C53087   3.525   9.477  11.597  0.0078  0.4137 -0.4409
  403MOL0     O53088   3.584   9.614  11.631 -0.2250  0.4201 -0.6603
  403MOL0     C53089   3.629   9.700  11.528 -0.1561  0.6614  0.5435
  403MOL0     C53090   3.682   9.820  11.555  0.0518  0.3848  0.0946
  403MOL0     C53091   3.730   9.913  11.461  0.7817 -0.0147  1.2335
  403MOL0     C53092   3.722   9.877  11.318  0.1632 -1.0474 -0.3335
  403MOL0     C53093   3.767   9.978  11.220  0.0862  0.8902  0.5086
  403MOL0     O53094   3.803  10.107  11.261 -0.9824  0.0026  0.1324
  403MOL0     C53095   3.877  10.192  11.179  0.6544  0.1128 -0.1933
  403MOL0     C53096   3.943  10.157  11.062 -0.6863 -0.5622 -0.1082
  403MOL0     C53097   4.029  10.252  10.998  0.1782 -0.2546 -0.0507
  403MOL0     C53098   4.031  10.384  11.049 -0.1139  0.0841  0.8514
  403MOL0     O53099   4.108  10.474  10.977 -0.4675 -0.0903  0.3222
  403MOL0     C53100   4.190  10.568  11.044 -0.1037  0.7651 -0.7313
  403MOL0     C53101   4.325  10.591  10.974  0.5109 -1.0467 -0.2127
  403MOL0     C53102   4.296  10.669  10.839 -0.4098  0.5060  1.0676
  403MOL0     C53103   4.412  10.689  10.744 -0.7588 -1.0484  0.3550
  403MOL0     C53104   4.373  10.725  10.600  0.1291 -0.1292 -0.7193
  403MOL0     C53105   4.416  10.622  10.492  0.3430 -0.5199 -1.0135
  403MOL0     C53106   4.320  10.508  10.486 -0.0515  0.2879 -0.4061
  403MOL0     C53107   4.369  10.405  10.372 -0.5611  0.2569 -0.7791
  403MOL0    Cl53108   4.352  10.493  10.215 -0.1605 -0.7370  0.5511
  403MOL0     C53109   3.955  10.422  11.159 -0.2035 -0.2600  0.2726
  403MOL0     C53110   3.883  10.324  11.225  0.2805  0.3804  0.7473
  403MOL0     O53111   3.753   9.943  11.104 -0.5914  0.5388  0.4794
  403MOL0     C53112   3.673   9.748  11.290  0.9890 -0.5040 -0.1241
  403MOL0     C53113   3.632   9.657  11.394 -0.6366  0.3550 -0.6723
  403MOL0     N53114   3.335   9.008  11.445 -0.5783  0.4526  0.8258
  403MOL0     N53115   3.227   8.962  11.394  0.1730 -0.3275 -0.5119
  403MOL0     C53116   2.152   9.401  10.917  1.0158 -0.0812  0.9224
  403MOL0     C53117   2.081   9.493  10.840 -0.1082  0.4914 -0.5666
  403MOL0     C53118   1.967   9.805  10.545  0.2492 -0.1145 -0.0889
  403MOL0     C53119   1.844   9.830  10.602  0.8134  0.2000 -0.5226
  403MOL0     C53120   1.763   9.911  10.525  0.2760 -0.0488  0.7539
  403MOL0     C53121   1.800   9.978  10.409 -0.5014 -0.9476 -0.1449
  403MOL0     O53122   1.707  10.058  10.343 -0.1404 -0.2810 -0.9536
  403MOL0     C53123   1.763  10.148  10.244  0.1507 -0.4041  0.3290
  403MOL0     C53124   1.654  10.240  10.196  0.9313 -0.6709  0.8891
  403MOL0     C53125   1.540  10.167  10.124 -0.4871  0.4183  0.1451
  403MOL0     C53126   1.442  10.249  10.036 -0.5062 -0.5247 -1.1628
  403MOL0     C53127   1.510  10.270   9.903 -0.2508 -1.2677  1.0564
  403MOL0     C53128   1.563  10.298   9.795 -0.0328  0.5105 -0.4153
  403MOL0     C53129   1.932   9.961  10.364  0.3572 -0.1653  0.3215
  403MOL0     C53130   2.016   9.873  10.431 -0.0912  0.6624 -0.0465
  403MOL0     H53131   2.256   9.784  10.885  0.7195  1.5999 -3.0994
  403MOL0     H53132   2.392   9.622  11.028 -0.6476  0.5255  0.9033
  403MOL0     H53133   2.252   9.169  11.060  0.2042  0.4823 -1.6291
  403MOL0     H53134   2.217   9.288  11.177 -2.2449 -2.4454 -0.0446
  403MOL0     H53135   2.465   9.104  11.110  0.7015  0.8489  0.1543
  403MOL0     H53136   2.366   9.116  11.260 -0.7106  0.9502  1.9201
  403MOL0     H53137   2.491   9.310  11.339  1.3211  1.5008  0.0368
  403MOL0     H53138   2.569   9.305  11.174 -0.1311 -1.4400 -0.6347
  403MOL0     H53139   2.609   9.108  11.405  0.3977  0.9827  0.6709
  403MOL0     H53140   2.661   9.080  11.236 -1.5214  0.0527  0.0707
  403MOL0     H53141   2.743   9.335  11.388 -0.5959  1.2463 -0.3877
  403MOL0     H53142   2.797   9.256  11.234  0.6186 -3.4841  0.7617
  403MOL0     H53143   2.838   9.144  11.525 -0.3609  1.0256  0.1572
  403MOL0     H53144   2.943   9.232  11.431 -0.6126  0.9335 -1.9269
  403MOL0     H53145   2.830   8.969  11.324 -0.4231  0.2723 -0.1911
  403MOL0     H53146   2.979   9.040  11.272  0.2211  0.0302 -0.1908
  403MOL0     H53147   2.978   8.831  11.456 -1.2876  0.4294  0.8560
  403MOL0     H53148   2.936   8.964  11.561  2.8809  0.4379  1.7767
  403MOL0     H53149   3.120   9.104  11.672 -0.0832 -3.4715  2.3808
  403MOL0     H53150   3.493   9.179  11.579  0.2749  1.3344  2.0109
  403MOL0     H53151   3.429   9.094  11.721 -2.7834 -0.3037  1.2965
  403MOL0     H53152   3.302   9.274  11.766  1.1109  3.4452  1.7773
  403MOL0     H53153   3.287   9.348  11.614  1.6447  0.7970  0.7284
  403MOL0     H53154   3.446   9.459  11.794 -5.2978 -0.7618 -1.3534
  403MOL0     H53155   3.562   9.334  11.760  1.4074  0.6140 -0.3815
  403MOL0     H53156   3.444   9.482  11.524 -2.6463 -0.6403  2.2014
  403MOL0     H53157   3.602   9.416  11.550 -2.0212 -3.0341  0.3148
  403MOL0     H53158   3.679   9.859  11.656  0.9328  2.4795 -0.6218
  403MOL0     H53159   3.765  10.013  11.484  0.0114 -0.1111  2.9599
  403MOL0     H53160   3.952  10.061  11.012  0.3505  0.2081 -1.4549
  403MOL0     H53161   4.088  10.232  10.909  1.3832  0.6525  0.5144
  403MOL0     H53162   4.215  10.525  11.142  0.0700  0.2696 -0.9915
  403MOL0     H53163   4.132  10.657  11.068 -0.7320 -0.3078  2.1583
  403MOL0     H53164   4.363  10.490  10.955  1.0270 -0.4203 -3.0814
  403MOL0     H53165   4.389  10.650  11.039  0.0868  0.1531 -0.8585
  403MOL0     H53166   4.240  10.762  10.852 -0.8662  0.7181 -1.8887
  403MOL0     H53167   4.223  10.611  10.783  0.9989 -1.6193  1.3301
  403MOL0     H53168   4.475  10.765  10.790 -1.2192 -2.0598  2.8075
  403MOL0     H53169   4.465  10.593  10.746  0.8119 -0.2029  0.8155
  403MOL0     H53170   4.425  10.818  10.572  0.7412 -0.0142  0.6875
  403MOL0     H53171   4.267  10.748  10.602 -0.7028 -3.4400 -1.1155
  403MOL0     H53172   4.518  10.583  10.501  0.9782  1.4029  0.7884
  403MOL0     H53173   4.408  10.682  10.400  1.1590 -0.4431 -1.0373
  403MOL0     H53174   4.300  10.464  10.585  1.8333  3.7726  1.7355
  403MOL0     H53175   4.223  10.553  10.461 -0.0755  1.6330  1.8296
  403MOL0     H53176   4.306  10.316  10.365 -2.3761  1.0138  3.0242
  403MOL0     H53177   4.467  10.361  10.391 -0.8550  0.9461  3.2541
  403MOL0     H53178   3.945  10.524  11.195  1.3230 -0.1363  0.3955
  403MOL0     H53179   3.838  10.349  11.321 -0.6492 -2.8983  1.2801
  403MOL0     H53180   3.662   9.714  11.187  0.4485 -2.4543  0.5269
  403MOL0     H53181   3.606   9.558  11.358  0.8369  0.4263 -2.0389
  403MOL0     H53182   2.121   9.297  10.913 -0.2433  0.2943 -2.2480
  403MOL0     H53183   1.992   9.457  10.790  1.8054 -4.1413 -1.1527
  403MOL0     H53184   1.813   9.798  10.701 -1.8786 -0.5267 -1.5112
  403MOL0     H53185   1.664   9.942  10.557 -0.3633 -0.5711 -0.6693
  403MOL0     H53186   1.777  10.080  10.160  1.1868  1.1662 -0.8454
  403MOL0     H53187   1.856  10.195  10.278  1.7608 -1.0938 -2.6782
  403MOL0     H53188   1.616  10.289  10.287 -2.4731 -1.4406  0.0278
  403MOL0     H53189   1.696  10.311  10.124 -1.8784  0.5840  0.3177
  403MOL0     H53190   1.468  10.126  10.195  1.1978 -0.5801  1.3494
  403MOL0     H53191   1.587  10.086  10.067  0.9689 -0.1022  1.9765
  403MOL0     H53192   1.351  10.189  10.025  0.4561 -1.9498 -1.7994
  403MOL0     H53193   1.419  10.344  10.083  2.0115 -0.9146  1.1370
  403MOL0     H53194   1.613  10.333   9.707 -1.2559  0.0558 -1.3379
  403MOL0     H53195   1.968  10.011  10.274  0.0975 -2.7794 -1.3275
  403MOL0     H53196   2.113   9.845  10.391 -2.0616 -0.8133 -4.4431
  404MOL0     O53197   8.531   0.625   2.850 -0.5702  0.0526 -0.7130
  404MOL0     C53198   8.534   0.643   2.973  0.2254 -0.7311  0.7188
  404MOL0     O53199   8.638   0.622   3.062 -0.0362  0.5159  0.5961
  404MOL0     C53200   8.760   0.589   3.017  0.0548 -0.1049 -1.0667
  404MOL0     C53201   8.823   0.476   3.063 -0.0612  0.1399  0.0854
  404MOL0     C53202   8.959   0.456   3.040  0.0018  0.5458  0.2329
  404MOL0     C53203   9.037   0.545   2.958  0.5898  0.1679 -0.1970
  404MOL0     O53204   9.177   0.541   2.926 -0.1034  0.3448  0.0995
  404MOL0     C53205   9.254   0.487   3.035 -0.0948  0.0256  0.2460
  404MOL0     C53206   9.399   0.532   3.015  0.2357 -0.2029  0.1763
  404MOL0     C53207   9.468   0.486   2.880  0.0849  0.7397  0.2443
  404MOL0     C53208   9.621   0.521   2.874 -0.0931  0.0417  0.7392
  404MOL0     C53209   9.705   0.450   2.764  0.9421 -0.3179 -0.2866
  404MOL0     C53210   9.847   0.501   2.764 -0.2047  0.4593  0.1753
  404MOL0     C53211   9.937   0.407   2.847  0.3820  0.4328  0.2523
  404MOL0     C53212  10.086   0.451   2.829 -0.1177 -0.3866  0.9706
  404MOL0     N53213  10.163   0.382   2.926 -1.0208 -0.0821 -0.1115
  404MOL0     C53214  10.197   0.250   2.922 -1.0779 -0.0410 -0.3178
  404MOL0     C53215  10.237   0.222   3.047 -0.5266  0.5892  0.1259
  404MOL0     C53216  10.274   0.088   3.117 -0.3270  0.1416  0.8194
  404MOL0     C53217  10.355   0.109   3.242  0.4955 -0.2689  0.5255
  404MOL0     C53218  10.339   0.001   3.344  0.2258 -0.1308 -0.0775
  404MOL0     C53219  10.404   0.032   3.472  0.7279 -1.0572  0.1737
  404MOL0     O53220  10.543  -0.000   3.467 -0.4836  0.2842  0.1801
  404MOL0     C53221  10.604  -0.054   3.575 -0.7374 -0.1876  0.1865
  404MOL0     C53222  10.719  -0.121   3.554  1.5380 -0.0875 -0.9020
  404MOL0     C53223  10.780  -0.197   3.651  0.2504 -0.5543 -0.5784
  404MOL0     C53224  10.742  -0.182   3.788 -0.3388  0.0769 -0.3618
  404MOL0     C53225  10.824  -0.255   3.890  1.2283  0.5973  0.1974
  404MOL0     O53226  10.932  -0.329   3.852  0.2191  1.4813  0.3587
  404MOL0     C53227  10.991  -0.414   3.936  0.1922 -0.4306 -0.3268
  404MOL0     C53228  10.985  -0.550   3.899  0.3949 -1.5988  0.5768
  404MOL0     C53229  11.050  -0.651   3.961 -0.0381 -0.3021 -0.2743
  404MOL0     C53230  11.124  -0.624   4.077  0.5979 -0.6484  0.3095
  404MOL0     O53231  11.177  -0.726   4.158 -0.1514  0.0694 -0.2369
  404MOL0     C53232  11.264  -0.828   4.106 -0.3457 -0.7749  0.0311
  404MOL0     C53233  11.188  -0.957   4.074 -0.1439  0.4623  0.0077
  404MOL0     C53234  11.186  -1.050   4.198 -0.1784  0.5857 -0.2689
  404MOL0     C53235  11.080  -1.019   4.301  0.3180 -0.3792 -0.1314
  404MOL0     C53236  11.030  -1.147   4.367 -0.8684 -0.4168 -0.6115
  404MOL0     C53237  10.931  -1.220   4.280 -0.1953 -0.0724  0.1229
  404MOL0     C53238  10.869  -1.346   4.346 -0.1648  0.2070  0.0155
  404MOL0     C53239  10.968  -1.460   4.343 -0.4727 -0.2586 -0.4762
  404MOL0    Cl53240  10.888  -1.609   4.395  0.0446 -0.1033  0.5121
  404MOL0     C53241  11.133  -0.493   4.114 -0.6568 -0.0288 -0.7544
  404MOL0     C53242  11.073  -0.386   4.049  0.2433  0.7624  0.1901
  404MOL0     O53243  10.785  -0.244   4.007  0.0152 -0.2607  0.3256
  404MOL0     C53244  10.628  -0.108   3.820  0.0560 -0.3169  0.2595
  404MOL0     C53245  10.559  -0.040   3.713 -0.5065  0.6998 -0.3662
  404MOL0     N53246  10.255   0.346   3.105  0.1907 -0.9806  0.5113
  404MOL0     N53247  10.211   0.442   3.035  0.5041  0.6005  0.2468
  404MOL0     C53248   8.962   0.657   2.902 -0.0504 -0.2806 -0.4141
  404MOL0     C53249   8.833   0.684   2.935  0.3240  0.3083 -0.6170
  404MOL0     C53250   8.402   0.689   3.040  0.2111 -1.2171 -0.1504
  404MOL0     C53251   8.301   0.755   2.970  0.7571  0.3828 -0.4378
  404MOL0     C53252   8.180   0.793   3.031 -0.4063  0.9989  0.0999
  404MOL0     C53253   8.148   0.750   3.162 -1.0708  0.5334  0.7388
  404MOL0     O53254   8.039   0.768   3.236 -0.1631  0.5242  0.6517
  404MOL0     C53255   7.942   0.863   3.182 -0.5539  0.5745  0.0675
  404MOL0     C53256   7.986   1.016   3.194  0.6151 -0.7186 -0.7633
  404MOL0     C53257   7.879   1.108   3.127  0.0099 -0.3272 -0.2158
  404MOL0     C53258   7.932   1.249   3.101 -0.3601  0.4773 -0.4433
  404MOL0     C53259   7.827   1.324   3.035 -0.0108  0.4239 -0.7044
  404MOL0     C53260   7.743   1.396   2.983 -0.5863  0.9330  0.2597
  404MOL0     C53261   8.245   0.689   3.228  0.1920  0.4049  0.5040
  404MOL0     C53262   8.377   0.659   3.173 -0.1299 -0.4863  0.1942
  404MOL0     H53263   8.766   0.411   3.128 -2.5445  1.9954 -0.0975
  404MOL0     H53264   9.004   0.368   3.084 -0.2640 -0.9598 -2.3419
  404MOL0     H53265   9.256   0.378   3.046  4.0132 -0.0345  0.2611
  404MOL0     H53266   9.218   0.516   3.134 -1.1284 -0.3198 -0.0185
  404MOL0     H53267   9.465   0.506   3.098 -0.9320 -1.3857  0.7763
  404MOL0     H53268   9.389   0.640   3.010 -0.7515 -0.2649  0.5096
  404MOL0     H53269   9.417   0.528   2.793  1.9964 -0.4702 -1.5382
  404MOL0     H53270   9.464   0.377   2.870  0.1016  0.8177 -0.7112
  404MOL0     H53271   9.626   0.629   2.859 -1.5462  0.3749  2.3166
  404MOL0     H53272   9.659   0.507   2.975 -0.1245  2.4151  1.1354
  404MOL0     H53273   9.661   0.463   2.665 -1.9301  1.0057  1.0386
  404MOL0     H53274   9.691   0.349   2.803  0.4488  0.6039  2.1106
  404MOL0     H53275   9.854   0.598   2.813 -0.0991  0.2395  0.6050
  404MOL0     H53276   9.887   0.507   2.663  2.6899  1.5475  1.2717
  404MOL0     H53277   9.901   0.419   2.950 -0.7384 -2.6463  0.3436
  404MOL0     H53278   9.933   0.306   2.804 -1.2628  0.4488  0.3128
  404MOL0     H53279  10.083   0.558   2.848 -1.0811 -0.4397  1.1843
  404MOL0     H53280  10.122   0.438   2.726  2.1056 -2.2234  1.8905
  404MOL0     H53281  10.189   0.174   2.845 -0.1616 -1.5396  0.9692
  404MOL0     H53282  10.318   0.014   3.049 -2.3185  0.4857 -0.9426
  404MOL0     H53283  10.179   0.045   3.152 -1.2607  0.2495 -1.3870
  404MOL0     H53284  10.324   0.193   3.305  1.1672 -1.5716  2.7341
  404MOL0     H53285  10.459   0.103   3.207  0.8115 -3.1038  1.6270
  404MOL0     H53286  10.234  -0.013   3.374 -0.6570  1.4435 -2.1728
  404MOL0     H53287  10.375  -0.096   3.307 -1.2372 -1.2315  1.2534
  404MOL0     H53288  10.362  -0.039   3.544  1.5035 -0.4952  1.2234
  404MOL0     H53289  10.407   0.140   3.489  1.7074 -0.6510 -2.2247
  404MOL0     H53290  10.756  -0.135   3.453 -1.3057  1.7730 -2.3324
  404MOL0     H53291  10.835  -0.280   3.607 -1.1325 -1.8256  0.0302
  404MOL0     H53292  10.917  -0.577   3.819 -1.7923 -0.2438  1.8842
  404MOL0     H53293  11.026  -0.749   3.922 -2.2643  0.6508 -1.4651
  404MOL0     H53294  11.342  -0.855   4.178  1.0239 -1.6937 -1.6940
  404MOL0     H53295  11.301  -0.796   4.008 -1.4506  0.5666  0.0274
  404MOL0     H53296  11.232  -1.019   3.995  0.8156 -1.7796  2.1494
  404MOL0     H53297  11.089  -0.925   4.041  0.3019  1.7104 -0.1538
  404MOL0     H53298  11.282  -1.062   4.248 -0.6277  0.2707  0.5505
  404MOL0     H53299  11.165  -1.146   4.150  1.3290  0.1033 -0.0107
  404MOL0     H53300  11.094  -0.940   4.376 -3.0014 -0.2062  0.4614
  404MOL0     H53301  10.996  -0.970   4.252  2.2711  1.8071 -1.5123
  404MOL0     H53302  10.977  -1.127   4.461  4.1527 -1.0607  2.7578
  404MOL0     H53303  11.106  -1.221   4.392  1.6793  1.4072 -2.4622
  404MOL0     H53304  10.979  -1.261   4.190 -0.7761  1.6786 -1.0302
  404MOL0     H53305  10.859  -1.143   4.251  1.3274  1.4409  0.2491
  404MOL0     H53306  10.850  -1.339   4.453  0.5682  3.5180  0.0477
  404MOL0     H53307  10.775  -1.366   4.293  1.8385 -1.6942 -3.1417
  404MOL0     H53308  11.054  -1.440   4.409 -1.3816  2.3114  0.0379
  404MOL0     H53309  11.006  -1.477   4.242  2.0942 -0.5838  0.4606
  404MOL0     H53310  11.171  -0.477   4.214 -3.3447  1.3450  0.1543
  404MOL0     H53311  11.091  -0.280   4.062 -3.5988  1.4790  0.8470
  404MOL0     H53312  10.577  -0.100   3.916 -2.0184 -0.2200 -0.7997
  404MOL0     H53313  10.474   0.019   3.745  0.1496 -0.1632  3.4244
  404MOL0     H53314   9.018   0.716   2.831  1.8807 -1.5567 -0.0347
  404MOL0     H53315   8.785   0.775   2.901  0.0837 -0.5356 -2.6712
  404MOL0     H53316   8.330   0.799   2.875  3.2247 -0.6037 -0.2104
  404MOL0     H53317   8.125   0.868   2.975  1.8897  2.8304  0.1370
  404MOL0     H53318   7.851   0.836   3.237 -1.0882  1.1226 -0.5442
  404MOL0     H53319   7.924   0.847   3.076  1.5749  1.1028 -0.4069
  404MOL0     H53320   8.013   1.045   3.296 -3.0348 -0.9338  0.4218
  404MOL0     H53321   8.068   1.029   3.123  0.5808 -1.8306 -1.0264
  404MOL0     H53322   7.784   1.117   3.181 -0.6785  0.5618 -1.5082
  404MOL0     H53323   7.858   1.052   3.036 -1.9680  0.7902 -0.5015
  404MOL0     H53324   7.944   1.289   3.201 -2.5224 -3.6203  1.7353
  404MOL0     H53325   8.028   1.255   3.049  0.5156  1.3557  1.1984
  404MOL0     H53326   7.682   1.459   2.922 -1.2868 -1.5103 -1.7415
  404MOL0     H53327   8.220   0.653   3.327 -5.6792 -3.5996 -1.9138
  404MOL0     H53328   8.449   0.597   3.227  1.2906 -1.3860 -2.5490
  405MOL0     O53329   4.837   0.523   9.598 -0.2811 -0.6785 -0.0966
  405MOL0     C53330   4.813   0.556   9.717  0.2746  0.0204  0.8457
  405MOL0     O53331   4.692   0.560   9.780 -0.3698 -0.2932  0.0156
  405MOL0     C53332   4.571   0.553   9.707  0.2970  0.1164 -0.1265
  405MOL0     C53333   4.469   0.464   9.723  0.4547 -0.1826  0.1766
  405MOL0     C53334   4.355   0.469   9.644  0.6164 -0.4808 -0.6841
  405MOL0     C53335   4.342   0.581   9.559  1.5976  0.2274  0.5068
  405MOL0     O53336   4.229   0.601   9.478  0.1423 -0.3142  0.1543
  405MOL0     C53337   4.144   0.501   9.445 -0.1021 -0.2814  1.1195
  405MOL0     C53338   4.074   0.521   9.308 -0.1932  0.2039 -0.0964
  405MOL0     C53339   3.945   0.433   9.309  0.8545 -0.0979  0.3455
  405MOL0     C53340   3.896   0.430   9.166  0.3095 -0.2607  0.6369
  405MOL0     C53341   3.744   0.396   9.155 -1.5653 -0.5882  0.4281
  405MOL0     C53342   3.700   0.249   9.179 -0.8774  0.3224 -0.0480
  405MOL0     C53343   3.677   0.199   9.035 -0.3772 -0.2222  0.9465
  405MOL0     C53344   3.655   0.053   9.028  0.0609 -0.2643  1.0192
  405MOL0     N53345   3.557  -0.014   9.114  0.2494 -0.0651  0.4679
  405MOL0     C53346   3.423  -0.036   9.076 -0.0994 -0.4825  0.2694
  405MOL0     C53347   3.360  -0.055   9.194  0.5789  0.4162 -0.4219
  405MOL0     C53348   3.207  -0.041   9.226 -0.0609 -0.7074 -0.0402
  405MOL0     C53349   3.159  -0.169   9.298  0.0812 -0.1801  0.6989
  405MOL0     C53350   3.004  -0.161   9.322 -0.4671 -0.3558 -0.7952
  405MOL0     C53351   2.916  -0.144   9.204 -0.5795 -0.4736 -0.6971
  405MOL0     O53352   2.779  -0.141   9.227  0.2713 -0.0176  0.0560
  405MOL0     C53353   2.709  -0.259   9.221  0.3312  1.2823  0.5315
  405MOL0     C53354   2.577  -0.240   9.194  0.6680  0.7066  0.0495
  405MOL0     C53355   2.482  -0.346   9.203  0.2552  0.6082  0.0022
  405MOL0     C53356   2.534  -0.471   9.219 -0.2852 -0.4018  0.7676
  405MOL0     C53357   2.442  -0.581   9.212  0.1165 -0.2759  0.3291
  405MOL0     O53358   2.478  -0.694   9.280 -0.1921  0.0067  0.1618
  405MOL0     C53359   2.377  -0.783   9.290 -0.4810 -0.1733 -0.4466
  405MOL0     C53360   2.360  -0.881   9.193 -1.1577  0.4622  0.0514
  405MOL0     C53361   2.276  -0.987   9.210 -0.8522 -0.9467 -0.3978
  405MOL0     C53362   2.209  -1.001   9.327  0.4636  0.3882 -1.0619
  405MOL0     O53363   2.128  -1.111   9.336 -0.5229  0.3066  0.7367
  405MOL0     C53364   2.095  -1.176   9.463  0.4235  0.4846 -0.0806
  405MOL0     C53365   2.080  -1.331   9.438  0.3956  0.7960 -0.0366
  405MOL0     C53366   2.078  -1.415   9.565  0.2671  0.6825 -1.1542
  405MOL0     C53367   2.222  -1.438   9.628 -0.5587  0.2440 -0.1485
  405MOL0     C53368   2.230  -1.515   9.754  0.4215 -0.7699 -0.5042
  405MOL0     C53369   2.173  -1.438   9.877  0.6511 -0.3475 -0.8890
  405MOL0     C53370   2.210  -1.286   9.891 -0.6760  0.5442  0.4708
  405MOL0     C53371   2.195  -1.250  10.033 -1.1401  0.2454 -0.3574
  405MOL0    Cl53372   2.024  -1.221  10.055  0.0599  0.1821 -0.2531
  405MOL0     C53373   2.205  -0.902   9.422 -0.3429 -0.7604  0.8096
  405MOL0     C53374   2.290  -0.789   9.408 -1.2785 -0.5456 -0.3034
  405MOL0     O53375   2.332  -0.562   9.154  0.2011  0.4920 -0.7833
  405MOL0     C53376   2.679  -0.497   9.230  0.0019  0.0944 -0.2195
  405MOL0     C53377   2.760  -0.391   9.237  0.1471 -0.7561 -0.2035
  405MOL0     N53378   3.451  -0.067   9.302  0.6106 -0.0225 -0.4026
  405MOL0     N53379   3.565  -0.031   9.248  0.0703  0.3369  0.1754
  405MOL0     C53380   4.441   0.683   9.557 -0.1751  0.2932  0.9516
  405MOL0     C53381   4.563   0.665   9.617 -0.7951 -0.0151 -0.6277
  405MOL0     C53382   4.932   0.559   9.796 -0.0908  0.8140 -0.0799
  405MOL0     C53383   4.915   0.548   9.941  0.6561  0.4331 -0.9451
  405MOL0     C53384   5.031   0.551  10.016  0.3554  0.4260  0.5276
  405MOL0     C53385   5.158   0.560   9.962 -0.8593  0.4192 -0.7854
  405MOL0     O53386   5.254   0.570  10.064  1.2843 -0.7627  0.0053
  405MOL0     C53387   5.381   0.609  10.026  0.8101  0.4956  0.1608
  405MOL0     C53388   5.479   0.521  10.091 -0.5377  0.4908 -0.0364
  405MOL0     C53389   5.619   0.542  10.041  0.3845 -0.1766  0.7340
  405MOL0     C53390   5.677   0.683  10.081  0.0465 -0.2537 -0.6947
  405MOL0     C53391   5.810   0.699  10.021  0.1096 -0.9435  0.4013
  405MOL0     C53392   5.915   0.713   9.970 -0.3776 -0.2110  0.2777
  405MOL0     C53393   5.173   0.569   9.824 -0.9211  0.1461  0.3900
  405MOL0     C53394   5.063   0.563   9.740  0.1501 -1.1917 -0.0424
  405MOL0     H53395   4.496   0.381   9.787 -3.1472 -3.4861 -2.1337
  405MOL0     H53396   4.280   0.390   9.653 -1.5924  1.6706  1.2274
  405MOL0     H53397   4.070   0.487   9.524 -0.4088 -1.9435  0.5819
  405MOL0     H53398   4.205   0.409   9.449 -1.1168 -0.9378  4.1108
  405MOL0     H53399   4.143   0.504   9.224 -1.4288  1.5879 -1.4776
  405MOL0     H53400   4.044   0.626   9.297  0.5517  0.2191 -2.6462
  405MOL0     H53401   3.873   0.483   9.373  1.3906  2.0455 -0.6339
  405MOL0     H53402   3.952   0.335   9.357 -2.5741 -0.4982  0.2648
  405MOL0     H53403   3.913   0.533   9.135 -0.8243  1.8320  5.8084
  405MOL0     H53404   3.954   0.373   9.093  2.3970  2.8341 -0.3152
  405MOL0     H53405   3.699   0.440   9.065 -1.7254  0.2300  0.8997
  405MOL0     H53406   3.694   0.457   9.231  0.6693  2.8411 -0.6331
  405MOL0     H53407   3.600   0.240   9.221 -0.1390  1.5633  2.1263
  405MOL0     H53408   3.775   0.197   9.240 -2.7945 -4.1392 -1.0521
  405MOL0     H53409   3.582   0.244   9.005 -0.1244 -0.9702 -1.1478
  405MOL0     H53410   3.761   0.230   8.972 -0.7381 -2.0759 -0.5304
  405MOL0     H53411   3.753   0.016   9.059 -0.3089 -1.0685  1.2632
  405MOL0     H53412   3.636   0.015   8.927 -2.1260  0.8606  0.9534
  405MOL0     H53413   3.385  -0.014   8.976  0.8140  3.7476  0.6495
  405MOL0     H53414   3.146  -0.033   9.136 -2.5694 -2.1517  1.4361
  405MOL0     H53415   3.203   0.054   9.279  4.2580 -0.4062  0.1191
  405MOL0     H53416   3.209  -0.185   9.394  0.5604  1.7294  0.8116
  405MOL0     H53417   3.178  -0.246   9.222  0.3478 -1.4302  1.9872
  405MOL0     H53418   2.992  -0.259   9.369  1.4619  0.0975  0.7958
  405MOL0     H53419   2.986  -0.087   9.401 -0.0625  0.3427 -1.3467
  405MOL0     H53420   2.940  -0.223   9.133 -0.7644 -1.8397  0.7040
  405MOL0     H53421   2.933  -0.045   9.160  0.1235 -1.1571 -2.0077
  405MOL0     H53422   2.536  -0.141   9.180 -2.0765 -0.3598  0.0219
  405MOL0     H53423   2.375  -0.327   9.194 -0.0091  1.3202  3.4726
  405MOL0     H53424   2.418  -0.868   9.102  1.5469  0.3918  1.6480
  405MOL0     H53425   2.261  -1.053   9.125 -0.8706 -1.2342 -0.1719
  405MOL0     H53426   1.997  -1.141   9.495 -0.3481 -0.6004 -1.1572
  405MOL0     H53427   2.176  -1.159   9.535 -0.6361  0.8040  1.0666
  405MOL0     H53428   2.171  -1.363   9.386  2.1598  4.0297  0.7566
  405MOL0     H53429   1.984  -1.350   9.389  0.6797 -2.1919  0.4335
  405MOL0     H53430   2.033  -1.513   9.551 -0.0587  0.7358 -0.4887
  405MOL0     H53431   2.026  -1.350   9.636 -3.1750  0.6397 -3.3847
  405MOL0     H53432   2.280  -1.499   9.559 -0.1153 -0.9460  1.2211
  405MOL0     H53433   2.258  -1.335   9.641  1.0786 -0.2305 -0.8098
  405MOL0     H53434   2.332  -1.555   9.756  0.4186 -0.8390 -1.3121
  405MOL0     H53435   2.164  -1.602   9.750  0.6317 -1.2493  3.3875
  405MOL0     H53436   2.182  -1.490   9.973 -0.1220  2.4941  0.8563
  405MOL0     H53437   2.064  -1.443   9.867  0.4357  1.3478  0.1405
  405MOL0     H53438   2.315  -1.271   9.865 -0.2157 -0.5511  1.5897
  405MOL0     H53439   2.152  -1.222   9.824  0.7782  1.2508 -0.1419
  405MOL0     H53440   2.252  -1.159  10.052  1.1935 -1.6070  2.4217
  405MOL0     H53441   2.223  -1.324  10.109  0.0470  1.2718  0.2481
  405MOL0     H53442   2.123  -0.908   9.492 -0.9384 -0.7028  0.1236
  405MOL0     H53443   2.284  -0.717   9.490 -3.3005  1.1911 -1.8357
  405MOL0     H53444   2.706  -0.601   9.238  1.0828  0.4537  1.2134
  405MOL0     H53445   2.867  -0.410   9.244  0.6637  2.1195  1.2990
  405MOL0     H53446   4.433   0.770   9.493  1.9720 -0.6778 -0.7918
  405MOL0     H53447   4.645   0.734   9.601 -0.7691 -0.3949 -2.3539
  405MOL0     H53448   4.825   0.536  10.000  1.4473 -0.0163  0.2028
  405MOL0     H53449   5.021   0.552  10.124  0.7895  1.7330  0.5717
  405MOL0     H53450   5.396   0.712  10.060 -2.3844  0.1173  3.3822
  405MOL0     H53451   5.404   0.590   9.921  1.5000  2.2772 -0.0512
  405MOL0     H53452   5.481   0.518  10.201  0.2818 -0.6095 -0.0664
  405MOL0     H53453   5.434   0.431  10.051 -4.1300  1.9085  0.4581
  405MOL0     H53454   5.625   0.535   9.932  0.7604  0.9147  0.6721
  405MOL0     H53455   5.677   0.459  10.084 -0.9601 -1.0287  0.9467
  405MOL0     H53456   5.611   0.768  10.064  0.7720  0.5929  0.5738
  405MOL0     H53457   5.693   0.678  10.189  0.7913 -1.5757 -0.8411
  405MOL0     H53458   6.011   0.718   9.923 -1.0270 -0.2129 -1.1081
  405MOL0     H53459   5.268   0.581   9.774 -2.3815  4.0996 -1.9667
  405MOL0     H53460   5.079   0.573   9.634 -0.0673 -0.5023 -0.0146
  406MOL0     O53461   2.586   9.448   0.187 -0.4302 -0.3685 -0.3054
  406MOL0     C53462   2.561   9.364   0.276  0.1333  0.0033  1.1604
  406MOL0     O53463   2.648   9.318   0.373  0.3156  0.4211 -0.1182
  406MOL0     C53464   2.763   9.388   0.395 -0.0425 -0.0521  0.7630
  406MOL0     C53465   2.757   9.529   0.406  0.1864 -0.1677  0.6309
  406MOL0     C53466   2.880   9.604   0.417  0.6037  0.0653 -0.1794
  406MOL0     C53467   3.012   9.534   0.401 -0.5328  0.3495 -0.3376
  406MOL0     O53468   3.142   9.584   0.399 -0.1090  0.1338  0.3555
  406MOL0     C53469   3.167   9.721   0.445 -0.1588 -0.3780  0.0757
  406MOL0     C53470   3.312   9.759   0.411  0.9169 -1.2267 -0.1424
  406MOL0     C53471   3.346   9.896   0.473  0.0814 -0.4644  0.6960
  406MOL0     C53472   3.479   9.949   0.423  0.0596 -0.0060  0.0657
  406MOL0     C53473   3.525  10.069   0.504  0.1804  0.1773 -0.3101
  406MOL0     C53474   3.669  10.115   0.474  0.5521  0.2035 -0.1128
  406MOL0     C53475   3.679  10.217   0.363 -0.2535  0.1036  0.0229
  406MOL0     C53476   3.647  10.354   0.433  1.1312 -0.9136 -0.0882
  406MOL0     N53477   3.687  10.471   0.355  0.3530  0.7871  0.3301
  406MOL0     C53478   3.813  10.523   0.360  0.1842  0.0537  0.1395
  406MOL0     C53479   3.820  10.597   0.247  0.0257  1.3191 -0.0565
  406MOL0     C53480   3.928  10.687   0.217 -0.1817 -0.0743 -0.2470
  406MOL0     C53481   3.985  10.652   0.078 -0.2367  0.2181  0.6542
  406MOL0     C53482   4.108  10.745   0.046  0.9067 -1.2285  0.0015
  406MOL0     C53483   4.229  10.690   0.113 -0.5509 -0.0081 -0.9359
  406MOL0     O53484   4.263  10.572   0.037 -0.1312 -0.7431  0.1216
  406MOL0     C53485   4.390  10.519   0.061  0.4829 -0.5175 -0.8078
  406MOL0     C53486   4.419  10.413  -0.020  0.9174 -0.2963 -0.9622
  406MOL0     C53487   4.538  10.347  -0.002  0.9232  0.0092 -0.2634
  406MOL0     C53488   4.629  10.376   0.094 -0.2924 -0.3129 -0.5162
  406MOL0     C53489   4.749  10.293   0.132 -0.4864  0.1978 -0.2249
  406MOL0     O53490   4.781  10.206   0.034  0.0116  0.4562  0.1459
  406MOL0     C53491   4.898  10.128   0.034  1.0957  0.7560 -0.1289
  406MOL0     C53492   4.887   9.991  -0.006 -0.1174  0.0569  0.5086
  406MOL0     C53493   4.998   9.912  -0.042  0.5557  0.2614 -0.3950
  406MOL0     C53494   5.126   9.966  -0.051  0.8632  0.4890  0.2014
  406MOL0     O53495   5.230   9.874  -0.089 -0.4749  0.0295  0.5477
  406MOL0     C53496   5.344   9.929  -0.171  0.0393  0.9570  0.8234
  406MOL0     C53497   5.473   9.842  -0.152  0.7876 -0.6058  0.7396
  406MOL0     C53498   5.501   9.785  -0.015  0.4577  0.1799  0.0629
  406MOL0     C53499   5.540   9.904   0.082  0.1527  0.9996 -0.0765
  406MOL0     C53500   5.605   9.836   0.205 -0.2739 -0.5231 -1.5932
  406MOL0     C53501   5.654   9.952   0.295  1.0046 -0.5502  0.6449
  406MOL0     C53502   5.747   9.903   0.405  0.3319  0.4298 -1.0656
  406MOL0     C53503   5.787  10.019   0.497 -1.4691 -1.9085  0.7074
  406MOL0    Cl53504   5.881  10.155   0.402  0.2325  0.4052 -0.6892
  406MOL0     C53505   5.141  10.099   0.003 -0.9889  0.8727 -0.4325
  406MOL0     C53506   5.033  10.183   0.039 -0.1518 -0.3171  0.7506
  406MOL0     O53507   4.821  10.317   0.236 -0.0588  0.3131  0.2686
  406MOL0     C53508   4.598  10.485   0.175  0.7907  0.7663 -1.1374
  406MOL0     C53509   4.478  10.557   0.164 -0.0786 -0.7221  0.3562
  406MOL0     N53510   3.704  10.579   0.173  0.2143  0.1218  0.0197
  406MOL0     N53511   3.626  10.507   0.236 -0.3118 -0.0344 -0.2010
  406MOL0     C53512   3.005   9.401   0.385 -0.0583 -0.7783 -0.1241
  406MOL0     C53513   2.888   9.324   0.383  0.4275 -0.4896 -0.1191
  406MOL0     C53514   2.425   9.297   0.249 -0.9509  0.5877 -0.0769
  406MOL0     C53515   2.329   9.356   0.171  0.8835 -0.9332  0.5805
  406MOL0     C53516   2.209   9.282   0.142  0.9325  0.2029 -0.1340
  406MOL0     C53517   2.186   9.150   0.189 -0.6047 -0.0935 -0.2818
  406MOL0     O53518   2.084   9.071   0.176  0.8431 -0.6709 -0.0547
  406MOL0     C53519   1.985   9.116   0.085 -0.8285  0.9792  1.1698
  406MOL0     C53520   1.863   9.035   0.098 -0.0423 -0.4711  0.5107
  406MOL0     C53521   1.878   8.890   0.126 -0.0712 -0.6296  0.1102
  406MOL0     C53522   1.748   8.823   0.105  0.4631  0.6896 -0.1155
  406MOL0     C53523   1.758   8.715   0.008  0.1581  0.0627 -0.1249
  406MOL0     C53524   1.744   8.629  -0.075 -0.2765 -0.0469 -0.1085
  406MOL0     C53525   2.282   9.089   0.272  0.6249 -0.7166  0.4904
  406MOL0     C53526   2.401   9.162   0.301 -0.6604 -0.9303  1.2924
  406MOL0     H53527   2.656   9.566   0.418 -0.0176 -0.7098  0.5792
  406MOL0     H53528   2.882   9.710   0.439  1.8478 -0.1563  0.9171
  406MOL0     H53529   3.144   9.720   0.552  1.1232 -0.5290  0.3733
  406MOL0     H53530   3.094   9.784   0.395 -0.2826 -0.8418 -0.3389
  406MOL0     H53531   3.328   9.767   0.303  4.0547  2.1366  0.3565
  406MOL0     H53532   3.389   9.683   0.431  0.7290 -2.1332 -2.5023
  406MOL0     H53533   3.355   9.887   0.581 -3.8021 -0.1463  1.2032
  406MOL0     H53534   3.264   9.967   0.459  1.9384  1.8508  0.9091
  406MOL0     H53535   3.541   9.859   0.432 -1.6068 -1.2689 -0.6157
  406MOL0     H53536   3.469   9.982   0.319 -1.5359 -0.1024  0.1683
  406MOL0     H53537   3.531  10.045   0.610 -0.4908 -2.9927 -0.8838
  406MOL0     H53538   3.460  10.156   0.489 -2.6610 -1.5147  1.3628
  406MOL0     H53539   3.716  10.020   0.449 -1.0885 -0.3341 -1.2967
  406MOL0     H53540   3.705  10.152   0.570  0.3676  0.6173 -0.2019
  406MOL0     H53541   3.781  10.220   0.322  0.3033 -0.0939  1.3442
  406MOL0     H53542   3.613  10.197   0.278  1.0788  2.2263 -1.6033
  406MOL0     H53543   3.687  10.376   0.532 -1.4219  1.6550  0.5054
  406MOL0     H53544   3.538  10.355   0.442  1.3171  0.9299  4.1076
  406MOL0     H53545   3.882  10.504   0.441 -0.6080  2.0263  1.3399
  406MOL0     H53546   3.995  10.702   0.302 -0.5225  3.0581 -0.4074
  406MOL0     H53547   3.889  10.789   0.207  1.7553  0.7197 -0.1781
  406MOL0     H53548   3.907  10.664   0.002  1.4529 -2.9189 -1.7987
  406MOL0     H53549   4.010  10.546   0.090 -0.7192  0.3102  2.9030
  406MOL0     H53550   4.125  10.754  -0.061  1.0785  0.0744  0.1275
  406MOL0     H53551   4.092  10.847   0.082  1.2455 -0.0167 -3.0210
  406MOL0     H53552   4.218  10.649   0.213  2.4166 -2.1654 -1.3528
  406MOL0     H53553   4.311  10.763   0.109  0.3744 -0.8884  0.6684
  406MOL0     H53554   4.350  10.380  -0.096  0.8683 -1.0639 -0.5934
  406MOL0     H53555   4.564  10.256  -0.056  2.9068 -0.6577  1.6381
  406MOL0     H53556   4.788   9.947  -0.005  0.3381 -0.9999  1.4802
  406MOL0     H53557   4.986   9.805  -0.052 -0.6502  0.6271 -4.1513
  406MOL0     H53558   5.357  10.035  -0.147 -0.6918  0.9651  1.2304
  406MOL0     H53559   5.319   9.911  -0.276  4.4272 -2.4792  0.0842
  406MOL0     H53560   5.552   9.911  -0.180 -0.1303  0.7664  1.4331
  406MOL0     H53561   5.453   9.755  -0.215 -0.8688  0.3668 -0.1583
  406MOL0     H53562   5.580   9.713  -0.037  0.9563  1.3771 -2.3440
  406MOL0     H53563   5.420   9.731   0.036  2.1366 -0.9270  1.7423
  406MOL0     H53564   5.598   9.981   0.031 -2.5281  2.2347 -1.4933
  406MOL0     H53565   5.447   9.947   0.122 -0.7544 -2.5401  2.0199
  406MOL0     H53566   5.684   9.769   0.168  1.5779 -0.3276  1.6188
  406MOL0     H53567   5.539   9.769   0.260 -1.3567  0.0165 -2.2087
  406MOL0     H53568   5.587  10.022   0.347  4.6154  1.8315  2.4952
  406MOL0     H53569   5.708  10.020   0.229  0.3876 -2.5732 -2.1019
  406MOL0     H53570   5.695   9.822   0.457  1.4999 -0.7176 -1.6338
  406MOL0     H53571   5.840   9.862   0.368  0.4497 -2.6999  2.1714
  406MOL0     H53572   5.845   9.982   0.582 -1.4928 -2.4524  0.4905
  406MOL0     H53573   5.698  10.063   0.544 -0.0051 -0.4442  2.2372
  406MOL0     H53574   5.241  10.141   0.002  0.8032 -2.9865 -1.0690
  406MOL0     H53575   5.033  10.284   0.078  2.9756 -0.3011  0.9630
  406MOL0     H53576   4.658  10.508   0.263  0.6061  1.8238 -1.2834
  406MOL0     H53577   4.468  10.639   0.234  0.7128  0.3636 -0.7482
  406MOL0     H53578   3.097   9.347   0.361  0.3047 -0.7969  1.2232
  406MOL0     H53579   2.885   9.217   0.360 -1.2677 -0.3611 -0.6445
  406MOL0     H53580   2.356   9.455   0.138  3.7759 -2.5281 -2.5143
  406MOL0     H53581   2.128   9.326   0.084 -0.8535 -2.3272  0.2889
  406MOL0     H53582   2.028   9.118  -0.016 -0.2945 -0.9615  1.3138
  406MOL0     H53583   1.955   9.218   0.111  0.0283  1.3538  0.7228
  406MOL0     H53584   1.800   9.094   0.165  2.0820  3.1812 -0.4427
  406MOL0     H53585   1.813   9.046   0.001 -1.2708  2.0362  1.3360
  406MOL0     H53586   1.914   8.883   0.229  0.6972  3.0726  0.2534
  406MOL0     H53587   1.953   8.855   0.056 -0.2328  1.2188 -1.0525
  406MOL0     H53588   1.717   8.777   0.199  1.0484  0.6919  0.0798
  406MOL0     H53589   1.661   8.878   0.066 -0.3087 -1.5613 -1.7567
  406MOL0     H53590   1.709   8.560  -0.149 -1.3035 -1.1523  1.3575
  406MOL0     H53591   2.282   8.993   0.322 -3.3694  0.1610  2.6136
  406MOL0     H53592   2.484   9.131   0.363  1.1268  1.5049  0.2704
  407MOL0     O53593   0.221   9.462   4.677 -0.4964 -0.2574 -0.3794
  407MOL0     C53594   0.177   9.365   4.618  0.0565  0.5668 -0.2281
  407MOL0     O53595   0.095   9.361   4.506  1.0813  0.0728  0.4146
  407MOL0     C53596   0.043   9.481   4.462 -0.6712 -0.3453 -0.9895
  407MOL0     C53597  -0.061   9.544   4.529 -0.3685  0.0547 -0.1046
  407MOL0     C53598  -0.105   9.685   4.506 -0.2382 -0.3847 -0.1303
  407MOL0     C53599  -0.043   9.748   4.398 -0.6429  0.1648  0.2186
  407MOL0     O53600  -0.073   9.882   4.375  0.2724  0.2333 -0.0667
  407MOL0     C53601  -0.038   9.946   4.244 -0.8003 -1.5173  0.5569
  407MOL0     C53602  -0.131   9.929   4.125 -0.4841  0.0607  0.0720
  407MOL0     C53603  -0.055   9.985   3.996  0.4356  0.0569  0.1377
  407MOL0     C53604  -0.098   9.896   3.875  0.1221 -0.2488 -0.0825
  407MOL0     C53605  -0.123   9.970   3.745  0.2995 -0.6744  0.1517
  407MOL0     C53606  -0.256  10.055   3.743  0.8986 -0.4754 -0.3632
  407MOL0     C53607  -0.274  10.114   3.598 -0.1663  0.1734  0.3548
  407MOL0     C53608  -0.405  10.191   3.580  0.0932 -0.5527 -0.4533
  407MOL0     N53609  -0.427  10.198   3.439  0.1466  0.1936  0.3624
  407MOL0     C53610  -0.496  10.098   3.380 -0.3300 -0.6569  0.4955
  407MOL0     C53611  -0.483  10.111   3.252  0.5547 -0.2288  0.8972
  407MOL0     C53612  -0.515  10.014   3.144 -0.2397  0.3295  0.3833
  407MOL0     C53613  -0.401   9.910   3.108 -0.2898  0.0267  0.2682
  407MOL0     C53614  -0.405   9.851   2.961 -0.2980 -0.4311 -0.0116
  407MOL0     C53615  -0.343   9.705   2.954 -0.0246  0.2733 -0.5143
  407MOL0     O53616  -0.208   9.702   2.995 -0.2266 -0.6268  0.6715
  407MOL0     C53617  -0.131   9.772   2.905 -0.3465 -0.0375 -0.5951
  407MOL0     C53618  -0.064   9.877   2.962  0.6851  0.8291  0.2169
  407MOL0     C53619   0.018   9.954   2.884 -0.7197  0.3493  0.9842
  407MOL0     C53620   0.056   9.897   2.755 -0.7262 -0.6423 -1.3933
  407MOL0     C53621   0.171   9.969   2.676  0.5713  1.3729 -0.7588
  407MOL0     O53622   0.182   9.958   2.546  0.2564 -0.3481  0.4542
  407MOL0     C53623   0.275  10.022   2.468 -0.4306  0.8734  0.1742
  407MOL0     C53624   0.317  10.147   2.495 -0.5222 -0.8688  1.1653
  407MOL0     C53625   0.421  10.203   2.419 -0.7172 -0.5712 -0.9796
  407MOL0     C53626   0.473  10.141   2.301  0.1587 -0.3070  0.5124
  407MOL0     O53627   0.559  10.214   2.224 -0.1871  0.1740 -0.2742
  407MOL0     C53628   0.579  10.180   2.085  0.0979 -0.6643  0.0829
  407MOL0     C53629   0.699  10.256   2.027  0.0469  0.0822  0.3809
  407MOL0     C53630   0.661  10.406   2.021 -0.3830 -0.4807 -0.0191
  407MOL0     C53631   0.744  10.488   1.924 -0.4846  0.1550  0.6753
  407MOL0     C53632   0.704  10.641   1.941  0.4088  0.4300  0.6776
  407MOL0     C53633   0.778  10.723   1.837 -0.1713 -0.5493 -0.1613
  407MOL0     C53634   0.924  10.728   1.864 -0.7057 -0.1782 -0.2519
  407MOL0     C53635   0.994  10.817   1.768 -0.0362 -0.0112 -0.1126
  407MOL0    Cl53636   1.005  10.743   1.601 -0.3801  0.0280  0.6081
  407MOL0     C53637   0.413  10.021   2.269  0.2832  0.1841 -0.0632
  407MOL0     C53638   0.323   9.952   2.356 -0.5989  0.7707  1.0488
  407MOL0     O53639   0.242  10.035   2.740 -0.2416 -0.3423  0.3309
  407MOL0     C53640  -0.005   9.784   2.700 -0.1403  0.0787 -0.5152
  407MOL0     C53641  -0.105   9.722   2.778  0.0363 -0.6582  0.6845
  407MOL0     N53642  -0.383  10.216   3.227 -0.2176 -0.5523  0.5538
  407MOL0     N53643  -0.361  10.267   3.343 -0.2815  0.4659 -0.9688
  407MOL0     C53644   0.057   9.683   4.326  0.3231  0.4839  0.2478
  407MOL0     C53645   0.101   9.549   4.352 -0.8276  0.2303 -0.3679
  407MOL0     C53646   0.219   9.233   4.650  0.1147  0.1011  0.0843
  407MOL0     C53647   0.177   9.116   4.581  0.8752  0.0680 -1.2021
  407MOL0     C53648   0.225   8.989   4.614  0.3499  0.3390 -0.2266
  407MOL0     C53649   0.316   8.968   4.711 -0.5695  0.1644  0.4221
  407MOL0     O53650   0.368   8.839   4.745  0.6310 -0.1325 -0.3887
  407MOL0     C53651   0.331   8.715   4.677 -0.6721 -1.1046  0.1223
  407MOL0     C53652   0.179   8.673   4.695  0.0910  0.2639  0.3870
  407MOL0     C53653   0.146   8.641   4.839 -1.0630  0.3921 -0.3275
  407MOL0     C53654   0.177   8.491   4.879 -0.0551  0.2280  0.2454
  407MOL0     C53655   0.064   8.421   4.814 -0.9811  0.0931 -0.5421
  407MOL0     C53656  -0.045   8.385   4.781 -0.1020  0.5092 -0.3884
  407MOL0     C53657   0.364   9.079   4.768 -0.6360  0.2836  0.6116
  407MOL0     C53658   0.310   9.206   4.744 -0.5115  0.6508 -0.5240
  407MOL0     H53659  -0.100   9.494   4.617  4.1936 -0.6072  1.8211
  407MOL0     H53660  -0.184   9.736   4.559 -1.3427 -3.2345  1.2000
  407MOL0     H53661   0.063   9.920   4.211 -0.0553  0.4848  1.0727
  407MOL0     H53662  -0.028  10.055   4.258 -2.2788 -1.4691  1.4874
  407MOL0     H53663  -0.224   9.985   4.134 -0.1694  0.4833  0.8085
  407MOL0     H53664  -0.151   9.822   4.116 -1.8250  0.3020  0.0451
  407MOL0     H53665   0.054   9.985   4.002  0.4322  1.7857  0.7281
  407MOL0     H53666  -0.092  10.087   3.989 -2.3364 -0.8407  0.3651
  407MOL0     H53667  -0.029   9.812   3.865  2.6043  1.5753  0.7457
  407MOL0     H53668  -0.196   9.853   3.898 -0.1300 -0.7119 -1.8532
  407MOL0     H53669  -0.128   9.891   3.670  3.2342  0.0872 -0.9787
  407MOL0     H53670  -0.043  10.034   3.708  2.2653 -2.2402  1.4335
  407MOL0     H53671  -0.254  10.139   3.813 -0.1954  0.9096 -1.9144
  407MOL0     H53672  -0.341   9.989   3.759  0.9412 -0.5188 -0.3089
  407MOL0     H53673  -0.191  10.178   3.567 -1.4631  2.2285  0.9156
  407MOL0     H53674  -0.279  10.034   3.523  0.8468  0.7632 -0.3704
  407MOL0     H53675  -0.394  10.291   3.623  0.2857 -0.7289 -0.0818
  407MOL0     H53676  -0.485  10.130   3.622 -1.4350  1.2710 -0.5950
  407MOL0     H53677  -0.541  10.011   3.427  0.4867 -0.9053  0.8280
  407MOL0     H53678  -0.552  10.062   3.053 -0.7780 -0.1735  0.3329
  407MOL0     H53679  -0.598   9.954   3.183 -1.5606  0.7029 -1.7126
  407MOL0     H53680  -0.408   9.824   3.175 -0.7378  0.8875  1.3587
  407MOL0     H53681  -0.304   9.959   3.125 -1.1837  1.4985  1.4512
  407MOL0     H53682  -0.512   9.855   2.939 -0.3535 -0.3052  0.2702
  407MOL0     H53683  -0.353   9.921   2.895  1.7362 -2.1963 -0.3750
  407MOL0     H53684  -0.360   9.674   2.851 -0.8571  0.8841 -0.5627
  407MOL0     H53685  -0.400   9.638   3.019 -2.4898  0.7742 -2.0342
  407MOL0     H53686  -0.065   9.897   3.069 -1.6120 -3.4730  1.2267
  407MOL0     H53687   0.065  10.043   2.924  1.5775  0.4371 -1.6437
  407MOL0     H53688   0.265  10.203   2.573  0.2305 -0.1124  1.1384
  407MOL0     H53689   0.438  10.309   2.433 -3.1268  0.0616 -2.3436
  407MOL0     H53690   0.491  10.221   2.035  0.2399  1.2283  1.2904
  407MOL0     H53691   0.603  10.075   2.069 -0.5034 -0.8904  0.6568
  407MOL0     H53692   0.710  10.207   1.930 -1.9021  0.4397 -0.0774
  407MOL0     H53693   0.795  10.244   2.077  0.1736  2.4462  0.8599
  407MOL0     H53694   0.685  10.438   2.122  0.2780  0.5521 -0.4922
  407MOL0     H53695   0.554  10.408   1.994  0.0929  0.8267 -2.0572
  407MOL0     H53696   0.850  10.479   1.951  0.5325 -1.7367 -3.2374
  407MOL0     H53697   0.735  10.443   1.824  1.0324  1.2625  0.0020
  407MOL0     H53698   0.723  10.678   2.042  1.0573  3.0418 -0.3160
  407MOL0     H53699   0.602  10.651   1.904  0.3568 -0.1688  0.6442
  407MOL0     H53700   0.747  10.828   1.838  2.1091  0.2025 -1.1575
  407MOL0     H53701   0.765  10.682   1.736  2.1256  0.0484 -0.7706
  407MOL0     H53702   0.942  10.758   1.967  0.5309  3.1765 -1.2913
  407MOL0     H53703   0.958  10.626   1.845 -2.2684 -0.4479 -1.9590
  407MOL0     H53704   1.098  10.843   1.791  0.2759 -1.1513 -0.1819
  407MOL0     H53705   0.946  10.915   1.774 -1.6257 -0.7829  0.2717
  407MOL0     H53706   0.448   9.974   2.177 -1.8488  0.0107 -0.8419
  407MOL0     H53707   0.294   9.848   2.339  2.6816  0.0549 -1.2318
  407MOL0     H53708   0.026   9.742   2.605 -2.1589  1.4722 -1.8819
  407MOL0     H53709  -0.156   9.634   2.742 -0.0964 -0.2186 -0.2442
  407MOL0     H53710   0.105   9.744   4.250  2.5288 -1.5812 -0.1396
  407MOL0     H53711   0.180   9.504   4.291  1.5916  1.7076  1.4907
  407MOL0     H53712   0.099   9.127   4.507 -2.9682 -0.9916  2.3562
  407MOL0     H53713   0.178   8.913   4.552 -1.3179  0.4518  0.8302
  407MOL0     H53714   0.395   8.636   4.717 -0.8633 -0.6694  1.3436
  407MOL0     H53715   0.348   8.720   4.569 -0.8289 -1.4391  0.0802
  407MOL0     H53716   0.120   8.760   4.666 -1.2104  0.2575  2.8123
  407MOL0     H53717   0.165   8.587   4.628  1.3105  1.6874 -1.8140
  407MOL0     H53718   0.044   8.674   4.861 -0.9162  1.0465 -0.6208
  407MOL0     H53719   0.210   8.700   4.905  0.0807 -2.5600  1.4185
  407MOL0     H53720   0.277   8.462   4.846  1.1304  2.4678  1.5544
  407MOL0     H53721   0.180   8.467   4.986 -2.0382  3.0108  1.0499
  407MOL0     H53722  -0.124   8.353   4.716 -0.1772  0.0193 -0.0627
  407MOL0     H53723   0.442   9.073   4.843 -1.4207  2.0660  1.6412
  407MOL0     H53724   0.348   9.294   4.793 -1.4526  0.8748 -0.1846
  408MOL0     O53725   4.717   3.014   6.239  0.3739  0.0183 -0.1121
  408MOL0     C53726   4.799   3.045   6.319 -0.4392  0.2081  0.1921
  408MOL0     O53727   4.782   3.119   6.440 -0.3294  0.6371  0.5937
  408MOL0     C53728   4.663   3.124   6.510  0.1750  0.4004 -0.2492
  408MOL0     C53729   4.666   3.199   6.625  0.0445  0.9621 -1.0868
  408MOL0     C53730   4.551   3.219   6.706 -0.9439  0.0004 -0.2927
  408MOL0     C53731   4.434   3.152   6.678  0.4488  0.8080 -1.0221
  408MOL0     O53732   4.315   3.168   6.753 -0.9082 -0.0081 -0.7599
  408MOL0     C53733   4.234   3.273   6.712 -0.0331 -0.2006 -0.6182
  408MOL0     C53734   4.243   3.385   6.818 -0.3412 -0.4748  0.0073
  408MOL0     C53735   4.203   3.346   6.966  0.3854  0.1463  0.4363
  408MOL0     C53736   4.058   3.284   6.975  0.0163  0.2523 -0.2178
  408MOL0     C53737   3.929   3.351   6.923 -0.1540  0.0278 -0.8774
  408MOL0     C53738   3.918   3.495   6.978 -0.0025  0.0377  0.4960
  408MOL0     C53739   3.795   3.565   6.926 -0.5435  0.2357 -0.0176
  408MOL0     C53740   3.661   3.538   7.009  0.1097  0.7828 -0.0108
  408MOL0     N53741   3.548   3.580   6.929 -0.3880 -0.3543 -0.2283
  408MOL0     C53742   3.488   3.699   6.935  0.1840  0.4553  0.3222
  408MOL0     C53743   3.376   3.692   6.855 -0.0534  1.0325  1.3706
  408MOL0     C53744   3.277   3.795   6.834  0.7987 -0.0127  0.1857
  408MOL0     C53745   3.302   3.892   6.719 -0.0318  0.7960  0.6789
  408MOL0     C53746   3.364   3.820   6.594 -0.1284  0.9020 -0.0311
  408MOL0     C53747   3.368   3.905   6.470 -0.3139  0.0136  1.6332
  408MOL0     O53748   3.435   4.034   6.483 -0.4892  0.4358 -0.2496
  408MOL0     C53749   3.569   4.056   6.483  0.4216  0.1566  0.6095
  408MOL0     C53750   3.665   3.958   6.449 -0.5028  0.4228  0.1807
  408MOL0     C53751   3.806   3.976   6.444 -0.6628  1.3736 -1.1171
  408MOL0     C53752   3.853   4.105   6.462  0.5552 -1.3457 -0.6913
  408MOL0     C53753   3.999   4.132   6.463  0.2257 -0.5361  0.2186
  408MOL0     O53754   4.080   4.032   6.434  0.2039  0.5430  0.3758
  408MOL0     C53755   4.204   4.047   6.382 -1.0867 -0.3900  1.4299
  408MOL0     C53756   4.250   4.155   6.306 -0.1337 -0.2980  0.7454
  408MOL0     C53757   4.381   4.175   6.261  0.5217  0.1827  0.4661
  408MOL0     C53758   4.477   4.085   6.316  0.1054 -0.8348 -0.2388
  408MOL0     O53759   4.605   4.104   6.259  0.6013  0.2649 -0.3640
  408MOL0     C53760   4.714   4.008   6.287 -0.4781 -0.2680 -0.0795
  408MOL0     C53761   4.842   4.062   6.227 -0.0246  0.2140  0.2155
  408MOL0     C53762   4.958   3.953   6.214  0.1801 -0.1222  0.5228
  408MOL0     C53763   5.092   4.032   6.179 -0.2135 -0.8282 -0.3124
  408MOL0     C53764   5.216   3.940   6.189 -0.0929 -0.0678  0.1543
  408MOL0     C53765   5.237   3.839   6.075 -0.4212 -0.0821 -0.2392
  408MOL0     C53766   5.253   3.913   5.944 -0.1342  0.3073  0.5910
  408MOL0     C53767   5.297   3.822   5.831  0.1306 -0.1871 -0.5291
  408MOL0    Cl53768   5.203   3.680   5.819  0.4968 -0.2615 -0.0102
  408MOL0     C53769   4.437   3.967   6.392  0.1175 -1.3863 -0.0359
  408MOL0     C53770   4.297   3.954   6.417 -0.7262 -0.1772 -0.8295
  408MOL0     O53771   4.031   4.240   6.509  0.6044 -0.2559 -0.4213
  408MOL0     C53772   3.758   4.206   6.502 -0.4434 -0.0150 -0.4126
  408MOL0     C53773   3.617   4.177   6.514 -0.1639  0.2803 -1.1313
  408MOL0     N53774   3.378   3.573   6.797  0.5181 -0.6357 -0.2273
  408MOL0     N53775   3.465   3.497   6.855  0.4429 -0.0421 -0.3624
  408MOL0     C53776   4.440   3.049   6.570  0.0798  0.4588 -0.3829
  408MOL0     C53777   4.546   3.046   6.483  0.8137  0.5842 -0.0042
  408MOL0     C53778   4.944   3.006   6.290 -0.5863  0.1038 -0.5480
  408MOL0     C53779   4.978   2.979   6.157 -0.0952  1.0529 -0.8109
  408MOL0     C53780   5.104   2.931   6.126 -1.5092  0.6084  0.4424
  408MOL0     C53781   5.204   2.916   6.221 -0.3792  0.2750  0.4875
  408MOL0     O53782   5.330   2.876   6.200  0.6164  0.1083 -0.3103
  408MOL0     C53783   5.375   2.805   6.082 -0.2532 -0.5565  0.2382
  408MOL0     C53784   5.531   2.799   6.081 -0.3979 -1.1217  0.0083
  408MOL0     C53785   5.587   2.730   5.950  0.0619 -0.2264  0.3868
  408MOL0     C53786   5.743   2.743   5.950  0.1950 -0.2689 -0.1508
  408MOL0     C53787   5.779   2.871   5.911 -0.6044 -0.4364  0.1147
  408MOL0     C53788   5.804   2.991   5.889 -0.3780  0.3324  0.7478
  408MOL0     C53789   5.171   2.951   6.350 -0.8472 -0.1895 -0.3514
  408MOL0     C53790   5.048   2.995   6.385  0.1934 -0.3828 -0.0544
  408MOL0     H53791   4.757   3.256   6.641  3.0474 -1.8201 -5.7819
  408MOL0     H53792   4.556   3.291   6.787 -1.7761  1.0341 -1.1346
  408MOL0     H53793   4.130   3.239   6.711 -1.1673  2.9755 -0.1459
  408MOL0     H53794   4.266   3.312   6.615 -0.6426 -0.3021 -0.8693
  408MOL0     H53795   4.181   3.472   6.794  4.0840  2.3345 -2.6092
  408MOL0     H53796   4.345   3.423   6.817 -1.2196  2.1848  1.2437
  408MOL0     H53797   4.216   3.426   7.039  0.9806  0.7845 -0.3480
  408MOL0     H53798   4.277   3.271   6.996  1.1687  0.5756 -0.3673
  408MOL0     H53799   4.066   3.182   6.936  0.0091 -0.4954  1.5978
  408MOL0     H53800   4.051   3.276   7.084  2.5408  1.3268  0.1060
  408MOL0     H53801   3.850   3.287   6.963  0.6203 -1.3773 -1.5127
  408MOL0     H53802   3.925   3.348   6.814  0.6391  1.4685 -0.9688
  408MOL0     H53803   4.008   3.549   6.947  0.4754 -0.4241  1.0576
  408MOL0     H53804   3.913   3.490   7.087  0.7616 -1.8414  0.4905
  408MOL0     H53805   3.809   3.674   6.926  0.9340  0.0719 -0.7816
  408MOL0     H53806   3.781   3.526   6.825 -0.1420  2.0893 -0.8342
  408MOL0     H53807   3.667   3.581   7.109  1.2775 -0.8635  0.6742
  408MOL0     H53808   3.659   3.431   7.032  2.2707  1.2934  3.1934
  408MOL0     H53809   3.508   3.788   6.994 -1.7014  1.4389 -0.4263
  408MOL0     H53810   3.264   3.837   6.935 -0.8972  1.9826 -0.7793
  408MOL0     H53811   3.186   3.736   6.818  1.1715 -0.5372 -0.0318
  408MOL0     H53812   3.364   3.975   6.753 -1.3605  2.2468 -0.3270
  408MOL0     H53813   3.206   3.938   6.694 -0.4232  1.7416  3.5312
  408MOL0     H53814   3.469   3.795   6.615  1.1708  4.3241 -1.5625
  408MOL0     H53815   3.306   3.732   6.565 -0.5147  0.8678  0.8315
  408MOL0     H53816   3.266   3.917   6.433  0.1094  2.7978  1.1524
  408MOL0     H53817   3.413   3.840   6.395 -3.6166 -1.4742  0.7989
  408MOL0     H53818   3.632   3.856   6.435 -0.4641  0.1566  1.8292
  408MOL0     H53819   3.880   3.899   6.425  0.1984  2.1790 -1.1269
  408MOL0     H53820   4.180   4.234   6.279 -1.4754 -2.1313 -1.5148
  408MOL0     H53821   4.408   4.259   6.197 -1.0490  0.5887  0.2907
  408MOL0     H53822   4.691   3.908   6.248 -0.6814  0.0970 -0.9067
  408MOL0     H53823   4.736   3.997   6.394  1.4337 -1.7108 -0.5697
  408MOL0     H53824   4.862   4.140   6.302  0.9509 -0.6155  0.8541
  408MOL0     H53825   4.830   4.100   6.126  0.8255 -3.2831 -1.3405
  408MOL0     H53826   4.943   3.884   6.130 -3.8081 -1.5084  2.1549
  408MOL0     H53827   4.976   3.898   6.306  3.0346 -0.6381 -0.2358
  408MOL0     H53828   5.078   4.086   6.085 -0.3489  2.4025  1.4203
  408MOL0     H53829   5.096   4.104   6.261  0.2989  0.8245 -1.7576
  408MOL0     H53830   5.214   3.881   6.281  4.1904 -1.4119 -0.3801
  408MOL0     H53831   5.314   3.989   6.195  0.9986 -2.2367  1.2711
  408MOL0     H53832   5.150   3.772   6.079  1.6240 -2.8746  0.7053
  408MOL0     H53833   5.316   3.765   6.089  0.3364  1.0166  1.5141
  408MOL0     H53834   5.154   3.945   5.908 -0.2899  0.1470  0.8708
  408MOL0     H53835   5.317   3.999   5.965  1.7386 -1.3845  2.1789
  408MOL0     H53836   5.395   3.794   5.873 -0.9060 -1.0143  1.4662
  408MOL0     H53837   5.298   3.879   5.738  1.9527 -0.2075 -0.5683
  408MOL0     H53838   4.508   3.892   6.425  1.2841 -0.1878  0.2639
  408MOL0     H53839   4.281   3.863   6.474  1.2313  0.3718  0.7205
  408MOL0     H53840   3.793   4.303   6.536  2.0983 -1.7576  2.3927
  408MOL0     H53841   3.546   4.256   6.531 -0.0247  0.0822  0.4829
  408MOL0     H53842   4.353   2.986   6.555 -0.2343  0.7866  0.0470
  408MOL0     H53843   4.540   2.986   6.393 -3.5432  3.0210 -1.6144
  408MOL0     H53844   4.899   2.974   6.083 -1.8768 -0.3097  1.0771
  408MOL0     H53845   5.135   2.905   6.025 -0.4581  0.9403  0.6667
  408MOL0     H53846   5.345   2.870   6.000  2.4556 -0.8403 -1.0738
  408MOL0     H53847   5.336   2.704   6.068 -0.4895 -0.4205 -0.0988
  408MOL0     H53848   5.565   2.903   6.081  1.6905 -1.7473  0.9697
  408MOL0     H53849   5.570   2.748   6.170 -0.4080 -3.4781 -1.2398
  408MOL0     H53850   5.535   2.772   5.863  1.0290 -1.3994 -0.8017
  408MOL0     H53851   5.568   2.622   5.955 -1.1824 -0.0157  0.6283
  408MOL0     H53852   5.786   2.707   6.044  2.1705  1.4261 -0.3359
  408MOL0     H53853   5.780   2.681   5.868 -0.0771  1.2664 -1.4882
  408MOL0     H53854   5.810   3.092   5.854  0.2559 -0.6470 -2.2956
  408MOL0     H53855   5.246   2.930   6.426 -0.2082  1.1842 -0.5729
  408MOL0     H53856   5.009   3.007   6.486 -1.1922 -1.0434 -0.4765
  409MOL0     O53857   2.711   8.374   6.841 -0.2511  0.3294 -0.3012
  409MOL0     C53858   2.607   8.343   6.901 -0.1355 -0.1815  0.1526
  409MOL0     O53859   2.600   8.312   7.037 -0.3266 -0.6224  0.3614
  409MOL0     C53860   2.713   8.316   7.115 -0.4757  0.1782  0.7527
  409MOL0     C53861   2.844   8.284   7.062  0.9041  0.5285  0.3575
  409MOL0     C53862   2.958   8.289   7.148 -0.1059  0.0701  0.3281
  409MOL0     C53863   2.934   8.341   7.277  0.6161  0.2196 -0.0341
  409MOL0     O53864   3.048   8.347   7.348  0.8731 -0.0531 -0.6009
  409MOL0     C53865   3.051   8.413   7.474 -0.0120 -0.6363  0.3327
  409MOL0     C53866   3.193   8.457   7.515  0.7817  0.3897 -0.0654
  409MOL0     C53867   3.208   8.456   7.663  0.7451  0.1052 -1.5602
  409MOL0     C53868   3.345   8.512   7.704 -0.6412  0.1235 -0.0050
  409MOL0     C53869   3.340   8.553   7.852  0.0901  0.9468 -0.1432
  409MOL0     C53870   3.472   8.600   7.910  0.2530 -0.2263 -0.2483
  409MOL0     C53871   3.464   8.628   8.049 -0.8743 -0.4391 -0.5546
  409MOL0     C53872   3.582   8.710   8.081  0.1405 -0.4135  0.5428
  409MOL0     N53873   3.544   8.815   8.183 -0.1125  0.6235  0.0079
  409MOL0     C53874   3.491   8.774   8.308  0.0158 -0.6091 -0.5775
  409MOL0     C53875   3.407   8.874   8.344 -0.0135 -0.5580 -0.1482
  409MOL0     C53876   3.331   8.878   8.470 -0.1828 -0.4236  0.9441
  409MOL0     C53877   3.180   8.859   8.441 -0.9672 -0.3152  0.1650
  409MOL0     C53878   3.100   8.890   8.565  0.1194 -0.2199  0.5005
  409MOL0     C53879   2.946   8.886   8.544  0.1075  0.4703  0.6382
  409MOL0     O53880   2.907   8.745   8.537 -0.6411 -0.4437 -0.1696
  409MOL0     C53881   2.769   8.743   8.510  0.0806 -0.2993 -0.8581
  409MOL0     C53882   2.717   8.728   8.376 -0.3312  0.5701 -0.0001
  409MOL0     C53883   2.576   8.738   8.360  0.1180 -1.3480  0.4118
  409MOL0     C53884   2.490   8.772   8.474  0.1413 -0.2932  0.8341
  409MOL0     C53885   2.343   8.781   8.463 -0.2755  0.0513 -0.1633
  409MOL0     O53886   2.297   8.769   8.328 -0.2925 -0.2663  0.2121
  409MOL0     C53887   2.163   8.808   8.309 -0.1509 -0.3873 -1.1330
  409MOL0     C53888   2.096   8.924   8.364 -0.1062  0.1085 -0.7605
  409MOL0     C53889   1.957   8.936   8.356 -0.2085  0.0448  1.0288
  409MOL0     C53890   1.878   8.839   8.300  0.8183  0.0178  0.3280
  409MOL0     O53891   1.740   8.844   8.289 -0.1994  0.1626  0.1052
  409MOL0     C53892   1.677   8.954   8.336  0.4384  0.6075  0.8232
  409MOL0     C53893   1.533   8.926   8.338 -0.3670  0.0422  0.1855
  409MOL0     C53894   1.478   8.811   8.433  0.1571  0.3073 -0.8005
  409MOL0     C53895   1.328   8.802   8.407  0.2934 -0.3458  1.2653
  409MOL0     C53896   1.259   8.713   8.505  0.2331  0.0335 -0.7036
  409MOL0     C53897   1.109   8.708   8.464  0.1119 -0.3238 -0.1103
  409MOL0     C53898   1.013   8.642   8.565 -0.4422 -0.1366  0.0825
  409MOL0     C53899   0.908   8.545   8.512 -0.3789 -0.4989 -0.4582
  409MOL0    Cl53900   0.962   8.455   8.358 -0.0707  0.0126 -0.2098
  409MOL0     C53901   1.944   8.730   8.246 -0.1298 -0.0643  0.5636
  409MOL0     C53902   2.084   8.704   8.255 -0.1716  0.3690 -0.6972
  409MOL0     O53903   2.279   8.788   8.569 -0.0765  0.7505  0.0752
  409MOL0     C53904   2.547   8.780   8.598 -0.6194  0.0151 -0.1840
  409MOL0     C53905   2.688   8.773   8.614 -0.2155 -0.3120  0.5131
  409MOL0     N53906   3.408   8.968   8.247 -0.2441 -0.1353 -0.5022
  409MOL0     N53907   3.485   8.932   8.152 -0.3838 -0.0850 -0.4078
  409MOL0     C53908   2.808   8.365   7.326 -0.1640 -0.0692  0.7318
  409MOL0     C53909   2.694   8.362   7.247  0.1509  0.4353  0.2110
  409MOL0     C53910   2.478   8.349   6.829 -0.1656  0.3862 -0.1960
  409MOL0     C53911   2.358   8.303   6.894 -0.0722 -1.0419  0.1263
  409MOL0     C53912   2.236   8.296   6.825  0.0406  0.6719  0.5445
  409MOL0     C53913   2.226   8.333   6.689  0.6450  0.4190  0.4422
  409MOL0     O53914   2.108   8.326   6.620  0.6273  0.4277 -0.0066
  409MOL0     C53915   2.104   8.348   6.479  1.1364 -1.0227  1.1628
  409MOL0     C53916   1.957   8.353   6.432 -0.4736  0.5453 -0.6758
  409MOL0     C53917   1.948   8.344   6.274 -1.5561 -0.0911 -0.7404
  409MOL0     C53918   1.854   8.449   6.206 -1.1605  0.0376 -0.1136
  409MOL0     C53919   1.712   8.433   6.240  0.2234  0.4782 -0.7356
  409MOL0     C53920   1.599   8.437   6.284  0.2890 -1.0832 -0.1957
  409MOL0     C53921   2.342   8.383   6.628  0.4509  0.0471 -0.3854
  409MOL0     C53922   2.462   8.401   6.696 -0.4860 -1.1135  0.0454
  409MOL0     H53923   2.856   8.255   6.959 -0.8694 -3.4740  1.0773
  409MOL0     H53924   3.055   8.277   7.102  0.2849 -4.3317  1.8209
  409MOL0     H53925   3.012   8.350   7.555  1.3875 -0.8535  0.8676
  409MOL0     H53926   2.993   8.503   7.454  0.1782 -0.6218 -0.1767
  409MOL0     H53927   3.227   8.545   7.459 -0.2772  0.0585 -1.2796
  409MOL0     H53928   3.257   8.377   7.475 -0.2565  0.4834 -2.0646
  409MOL0     H53929   3.200   8.359   7.713 -1.1540  1.3697  0.8031
  409MOL0     H53930   3.127   8.522   7.695 -1.1808 -2.3866 -0.9064
  409MOL0     H53931   3.424   8.443   7.676  0.1761  0.3066  1.7015
  409MOL0     H53932   3.372   8.607   7.657  0.3582 -0.9658 -1.7238
  409MOL0     H53933   3.321   8.457   7.901  2.0959 -1.6326 -3.8987
  409MOL0     H53934   3.261   8.625   7.873  0.2728  1.6389 -1.6805
  409MOL0     H53935   3.494   8.696   7.861 -1.1172  0.6570  0.7830
  409MOL0     H53936   3.553   8.530   7.888  0.2685 -0.7156  1.2523
  409MOL0     H53937   3.373   8.687   8.058 -0.7295 -0.5610  4.2098
  409MOL0     H53938   3.462   8.532   8.102 -0.4786 -1.2317 -1.9302
  409MOL0     H53939   3.613   8.773   7.997 -3.1818  0.9990  0.2131
  409MOL0     H53940   3.664   8.650   8.121  3.0981  2.3751 -0.8941
  409MOL0     H53941   3.502   8.686   8.371 -0.8506  2.4849  4.4318
  409MOL0     H53942   3.336   8.979   8.512 -0.5800  0.0250 -0.0372
  409MOL0     H53943   3.368   8.800   8.537 -0.1095 -0.4871  0.8312
  409MOL0     H53944   3.159   8.758   8.403 -0.8514  1.0225 -3.9858
  409MOL0     H53945   3.158   8.928   8.359 -0.1521  2.6139  2.2738
  409MOL0     H53946   3.133   8.815   8.637 -2.9946 -2.4187 -0.1325
  409MOL0     H53947   3.133   8.983   8.613  2.4882 -1.3331  1.1692
  409MOL0     H53948   2.917   8.929   8.447 -1.8509 -1.4558  0.2747
  409MOL0     H53949   2.895   8.931   8.630 -0.8720 -0.6095  0.6489
  409MOL0     H53950   2.790   8.709   8.299 -0.2273 -0.5701  0.3561
  409MOL0     H53951   2.532   8.722   8.262 -1.8214 -2.9506  1.4718
  409MOL0     H53952   2.150   9.002   8.416 -0.0918 -0.1916 -0.3207
  409MOL0     H53953   1.918   9.026   8.401  1.5277  1.3975 -0.0169
  409MOL0     H53954   1.691   9.045   8.278 -0.1826  0.0494 -0.2455
  409MOL0     H53955   1.702   8.975   8.440 -0.1301  0.1891  1.0529
  409MOL0     H53956   1.508   8.892   8.237  3.1453 -0.1618 -0.7407
  409MOL0     H53957   1.488   9.023   8.360  0.8562 -0.1596  4.2995
  409MOL0     H53958   1.482   8.847   8.536 -1.0371 -1.4311 -0.0920
  409MOL0     H53959   1.530   8.716   8.425 -0.9384 -0.5747  1.5587
  409MOL0     H53960   1.280   8.901   8.408  0.6830 -0.1154 -0.3409
  409MOL0     H53961   1.313   8.757   8.309 -0.9490 -0.2140  1.3698
  409MOL0     H53962   1.274   8.759   8.603 -1.3156 -0.5739 -0.1614
  409MOL0     H53963   1.309   8.616   8.500  1.4523  0.6938 -3.2807
  409MOL0     H53964   1.108   8.653   8.370 -0.6676  0.0481 -0.3296
  409MOL0     H53965   1.082   8.811   8.440  0.4442 -0.4201 -0.9397
  409MOL0     H53966   1.074   8.597   8.644 -0.8286 -5.2263 -2.1177
  409MOL0     H53967   0.970   8.727   8.617  1.8199  1.2063 -0.1043
  409MOL0     H53968   0.808   8.590   8.515  0.5540  1.6624  1.3266
  409MOL0     H53969   0.895   8.468   8.588 -0.3985 -1.2349 -1.1833
  409MOL0     H53970   1.890   8.642   8.211  2.6630 -1.1525 -1.3955
  409MOL0     H53971   2.123   8.611   8.215  1.7855  1.9788 -2.7659
  409MOL0     H53972   2.484   8.796   8.685  2.7058 -2.1704  2.9485
  409MOL0     H53973   2.727   8.777   8.715 -0.9910  0.3590  0.7898
  409MOL0     H53974   2.788   8.423   7.416 -0.2819  2.6660 -0.9434
  409MOL0     H53975   2.594   8.384   7.284  0.2132  2.2835 -0.6231
  409MOL0     H53976   2.362   8.286   7.001  1.8754  1.3151  0.5143
  409MOL0     H53977   2.155   8.255   6.884 -0.2614 -1.8831 -1.4226
  409MOL0     H53978   2.159   8.267   6.430 -0.7813 -2.0681  0.6282
  409MOL0     H53979   2.146   8.446   6.454  1.5798 -1.6452 -0.7343
  409MOL0     H53980   1.906   8.272   6.485  2.0375 -0.1736  0.8233
  409MOL0     H53981   1.916   8.451   6.462 -0.6255 -0.1686  1.6071
  409MOL0     H53982   1.922   8.241   6.246 -2.6224  0.5609 -2.2645
  409MOL0     H53983   2.048   8.360   6.233 -0.8139  0.2319  1.0898
  409MOL0     H53984   1.888   8.550   6.234 -4.7099  2.2870 -2.9715
  409MOL0     H53985   1.870   8.449   6.098  1.7797  0.0062  0.2493
  409MOL0     H53986   1.507   8.406   6.327  0.1262 -1.6753 -0.9580
  409MOL0     H53987   2.348   8.437   6.534  4.3774 -0.2294 -0.4443
  409MOL0     H53988   2.540   8.441   6.633 -2.7400  1.5900 -1.2650
  410MOL0     O53989   4.613   7.599   3.949 -0.2982 -0.6848  0.0570
  410MOL0     C53990   4.571   7.581   4.060 -0.6009 -0.5415  0.0400
  410MOL0     O53991   4.456   7.519   4.097  0.4663  0.1132  0.8420
  410MOL0     C53992   4.369   7.465   4.001 -1.4315 -0.3462 -0.1073
  410MOL0     C53993   4.299   7.350   4.045  0.2882  0.3322  0.6973
  410MOL0     C53994   4.202   7.285   3.961 -0.0234  0.4018 -0.3148
  410MOL0     C53995   4.176   7.329   3.839  0.2546 -0.2514 -1.4952
  410MOL0     O53996   4.077   7.270   3.765  0.3690  0.7736 -0.1297
  410MOL0     C53997   4.109   7.257   3.628 -0.7733 -0.2363 -0.8341
  410MOL0     C53998   4.024   7.147   3.568 -0.2355 -0.3921  0.0092
  410MOL0     C53999   3.873   7.164   3.610  0.2255  0.3275 -0.3409
  410MOL0     C54000   3.786   7.058   3.536 -0.0425  0.3711 -0.5037
  410MOL0     C54001   3.637   7.076   3.570 -0.1712 -0.1578 -0.2801
  410MOL0     C54002   3.562   6.975   3.496 -0.0545  0.3556  0.7896
  410MOL0     C54003   3.407   6.976   3.523 -0.1317  0.3627 -0.2937
  410MOL0     C54004   3.370   6.949   3.674  0.2718 -0.7257  0.3973
  410MOL0     N54005   3.222   6.924   3.682 -1.0655 -0.5646 -0.1733
  410MOL0     C54006   3.155   6.806   3.690 -1.2155 -0.1753  0.0358
  410MOL0     C54007   3.021   6.846   3.704 -0.9210  1.1419  0.7052
  410MOL0     C54008   2.892   6.771   3.693  0.8992  0.3566 -0.7116
  410MOL0     C54009   2.901   6.627   3.645  0.0715 -0.5772  0.8419
  410MOL0     C54010   2.772   6.563   3.619  0.0790 -0.0579  0.0825
  410MOL0     C54011   2.714   6.512   3.748  0.2804 -0.4200  0.3442
  410MOL0     O54012   2.585   6.467   3.726 -0.0164 -0.4630  0.6913
  410MOL0     C54013   2.552   6.337   3.713  0.0559 -0.2282  0.1991
  410MOL0     C54014   2.413   6.320   3.661  0.0990  0.6556  0.6280
  410MOL0     C54015   2.370   6.182   3.645  0.8412 -1.4555 -0.1589
  410MOL0     C54016   2.462   6.074   3.642 -0.1592  0.2774  0.5328
  410MOL0     C54017   2.408   5.935   3.620 -0.0597 -0.1465  0.4470
  410MOL0     O54018   2.277   5.919   3.596  0.9343  0.2918 -1.1391
  410MOL0     C54019   2.233   5.795   3.583  0.6243 -0.4666  0.7927
  410MOL0     C54020   2.224   5.703   3.691  0.3949 -0.3878  0.9849
  410MOL0     C54021   2.160   5.579   3.683 -0.8604 -0.4733  0.6465
  410MOL0     C54022   2.100   5.540   3.568 -1.1043 -0.0309  0.7131
  410MOL0     O54023   2.015   5.425   3.567  0.9012 -0.1070 -0.2227
  410MOL0     C54024   1.886   5.454   3.500  0.4933 -0.2591 -0.7833
  410MOL0     C54025   1.771   5.340   3.519 -0.9992 -0.0725 -0.7524
  410MOL0     C54026   1.800   5.214   3.440  0.1893 -0.1529 -0.0478
  410MOL0     C54027   1.858   5.224   3.307 -0.2518  0.0302 -0.7245
  410MOL0     C54028   1.846   5.096   3.227  0.4464 -1.2125  0.4623
  410MOL0     C54029   1.956   5.087   3.121 -0.1177 -0.8241 -0.1161
  410MOL0     C54030   1.921   4.958   3.045  0.3480 -0.4340  0.4437
  410MOL0     C54031   2.035   4.905   2.957 -0.0223 -0.3875  0.0944
  410MOL0    Cl54032   2.146   5.035   2.908 -0.4278 -0.2604  0.1432
  410MOL0     C54033   2.114   5.628   3.456 -0.0466 -0.5745 -0.4229
  410MOL0     C54034   2.174   5.752   3.465 -0.8855  0.2219 -0.2188
  410MOL0     O54035   2.486   5.847   3.641  0.1965 -0.6127 -0.3722
  410MOL0     C54036   2.598   6.100   3.669 -0.6949  0.0245 -0.1153
  410MOL0     C54037   2.640   6.228   3.715  0.2963  0.2406 -0.0702
  410MOL0     N54038   3.016   6.980   3.676 -0.1468 -0.0626 -0.1262
  410MOL0     N54039   3.136   7.024   3.671 -0.3769  0.2407 -0.3565
  410MOL0     C54040   4.244   7.442   3.788  0.7553  0.0292 -0.5838
  410MOL0     C54041   4.345   7.510   3.868  0.0647  0.7854  0.2313
  410MOL0     C54042   4.664   7.633   4.172 -0.0123 -0.0824 -1.0377
  410MOL0     C54043   4.791   7.696   4.159  0.0933  1.9027 -0.3291
  410MOL0     C54044   4.865   7.730   4.272 -0.2955 -0.1642 -0.2951
  410MOL0     C54045   4.812   7.713   4.398  0.7156 -0.0966  0.1172
  410MOL0     O54046   4.882   7.746   4.512  0.2728 -0.1023 -0.0729
  410MOL0     C54047   4.854   7.875   4.567  0.6236  1.1653 -0.0169
  410MOL0     C54048   4.980   7.919   4.632 -0.2127 -0.4148  0.0254
  410MOL0     C54049   4.983   8.062   4.697  1.1484  0.0897 -0.1078
  410MOL0     C54050   5.120   8.119   4.709 -0.2515 -0.1036 -0.3129
  410MOL0     C54051   5.180   8.176   4.587  0.6908  0.7225 -1.0034
  410MOL0     C54052   5.236   8.238   4.498 -0.4925 -0.7940  0.1268
  410MOL0     C54053   4.681   7.674   4.413  0.5546  1.6703  1.0670
  410MOL0     C54054   4.606   7.627   4.300 -0.0745 -1.2798 -0.1711
  410MOL0     H54055   4.335   7.304   4.137  1.4670 -1.1833 -0.4743
  410MOL0     H54056   4.154   7.192   3.990 -3.1836  1.3999 -1.8685
  410MOL0     H54057   4.216   7.250   3.606 -0.5502  2.3471 -0.8864
  410MOL0     H54058   4.065   7.348   3.586 -0.9679  0.3334  0.5611
  410MOL0     H54059   4.059   7.045   3.588  0.4274 -0.3170 -0.7471
  410MOL0     H54060   4.025   7.159   3.459  3.0851 -0.5690 -0.0730
  410MOL0     H54061   3.843   7.263   3.574  1.3410  0.4693 -0.9302
  410MOL0     H54062   3.862   7.157   3.718  1.2628 -1.8391 -0.3344
  410MOL0     H54063   3.813   7.061   3.430 -0.6898  2.1525 -0.6401
  410MOL0     H54064   3.816   6.955   3.558 -2.9089 -0.7044 -1.1737
  410MOL0     H54065   3.599   7.177   3.553  1.6698  0.7277  0.5024
  410MOL0     H54066   3.625   7.054   3.676 -1.8424 -1.5198 -0.7165
  410MOL0     H54067   3.602   6.877   3.521  0.9874  0.8966  1.2927
  410MOL0     H54068   3.578   6.982   3.388 -2.4772 -0.3228  0.3235
  410MOL0     H54069   3.375   7.078   3.497  2.2041  1.4192  0.6982
  410MOL0     H54070   3.369   6.895   3.459  0.2963 -0.2114  0.1739
  410MOL0     H54071   3.391   7.043   3.725 -2.4754  0.6856 -0.8447
  410MOL0     H54072   3.428   6.865   3.714  0.7259 -0.3670  0.5039
  410MOL0     H54073   3.204   6.710   3.679  4.3423  2.4536 -1.7173
  410MOL0     H54074   2.825   6.819   3.621 -2.0381 -2.2802  0.0664
  410MOL0     H54075   2.843   6.767   3.790 -0.2678 -2.6236 -1.3105
  410MOL0     H54076   2.956   6.564   3.716  1.7352 -4.1329 -3.1305
  410MOL0     H54077   2.949   6.616   3.547  0.3413 -0.2028  0.9332
  410MOL0     H54078   2.703   6.636   3.575 -1.6147 -0.3271  2.1254
  410MOL0     H54079   2.785   6.485   3.544  2.6474  1.9471 -1.7547
  410MOL0     H54080   2.703   6.590   3.823 -3.7852  0.4065 -0.8405
  410MOL0     H54081   2.782   6.439   3.792  0.2804 -1.2840 -1.0059
  410MOL0     H54082   2.343   6.398   3.634 -0.6811 -0.7684 -1.7566
  410MOL0     H54083   2.262   6.172   3.636  0.7071  0.2564 -0.7742
  410MOL0     H54084   2.252   5.734   3.791  0.2953  3.7487 -0.0973
  410MOL0     H54085   2.149   5.517   3.772  0.1729 -1.8405 -0.1402
  410MOL0     H54086   1.904   5.475   3.394 -3.4619  1.0892 -1.3365
  410MOL0     H54087   1.841   5.551   3.519  0.8600  0.7623 -4.4727
  410MOL0     H54088   1.670   5.373   3.496 -1.4166 -1.8440 -1.6111
  410MOL0     H54089   1.761   5.313   3.625 -2.1576  0.8373 -0.6201
  410MOL0     H54090   1.706   5.158   3.427  0.6951 -2.0013  3.1597
  410MOL0     H54091   1.865   5.141   3.489  0.3815 -1.3180 -1.9464
  410MOL0     H54092   1.816   5.316   3.264  1.2214 -0.1819 -2.7664
  410MOL0     H54093   1.967   5.234   3.320 -0.2098  1.2482 -1.8233
  410MOL0     H54094   1.745   5.090   3.185 -0.9538  1.1760  3.0982
  410MOL0     H54095   1.850   5.002   3.284  1.6133 -0.9454  0.8502
  410MOL0     H54096   2.056   5.086   3.165 -0.5856 -1.3994  0.9671
  410MOL0     H54097   1.945   5.168   3.048 -0.6519 -0.0502  0.7853
  410MOL0     H54098   1.901   4.875   3.113  0.7371 -1.9870 -1.2687
  410MOL0     H54099   1.842   4.976   2.972 -1.9092 -0.0377  2.8568
  410MOL0     H54100   1.980   4.865   2.871 -1.1812 -1.2914  1.2179
  410MOL0     H54101   2.077   4.821   3.013 -2.7612 -3.6008 -2.1833
  410MOL0     H54102   2.063   5.620   3.360 -2.7660  2.4172  0.5999
  410MOL0     H54103   2.187   5.817   3.379  0.0129 -0.9406 -0.9879
  410MOL0     H54104   2.661   6.011   3.665  0.2734  0.7486 -2.1283
  410MOL0     H54105   2.746   6.249   3.727  1.1562 -0.8432 -4.1848
  410MOL0     H54106   4.232   7.470   3.684 -0.2600  0.4189 -0.3703
  410MOL0     H54107   4.397   7.599   3.834  1.2588  0.1843  0.4088
  410MOL0     H54108   4.827   7.713   4.058  0.2060  2.9269 -0.1272
  410MOL0     H54109   4.958   7.785   4.259 -0.5030 -0.1950 -2.1099
  410MOL0     H54110   4.777   7.864   4.644 -1.6043 -0.4908 -2.3436
  410MOL0     H54111   4.814   7.943   4.491  1.0738 -0.2185 -1.5523
  410MOL0     H54112   5.015   7.854   4.713  2.9661 -0.1950 -1.0473
  410MOL0     H54113   5.056   7.903   4.555 -2.0528 -1.0017 -1.7445
  410MOL0     H54114   4.932   8.055   4.793 -1.8640 -0.2302 -1.6047
  410MOL0     H54115   4.915   8.127   4.642 -0.9519 -1.2029  0.8664
  410MOL0     H54116   5.116   8.206   4.776  1.1956 -0.2680  0.0275
  410MOL0     H54117   5.199   8.057   4.750 -0.4600 -1.5801 -2.0090
  410MOL0     H54118   5.273   8.280   4.406  1.8277 -3.4445 -0.3005
  410MOL0     H54119   4.634   7.667   4.510  1.3902 -2.3537  1.3222
  410MOL0     H54120   4.503   7.595   4.309 -0.7111  0.3195 -1.2813
  411MOL0     O54121   6.486   3.560   8.446  1.3600  0.4917 -0.0382
  411MOL0     C54122   6.484   3.554   8.326 -0.6033  0.1364  0.1615
  411MOL0     O54123   6.377   3.589   8.251 -0.2612  0.3027  0.1812
  411MOL0     C54124   6.256   3.638   8.313  1.3942  0.6528  0.5892
  411MOL0     C54125   6.247   3.707   8.430 -0.4275 -0.2383 -0.1249
  411MOL0     C54126   6.119   3.738   8.486 -0.0260 -0.3887  0.0136
  411MOL0     C54127   6.000   3.711   8.421 -0.0114  0.2997 -0.4289
  411MOL0     O54128   5.871   3.735   8.466 -0.0232 -0.1581  0.5188
  411MOL0     C54129   5.844   3.830   8.568 -0.0504  0.4362 -0.3374
  411MOL0     C54130   5.699   3.835   8.631 -0.7824  0.7156  0.1020
  411MOL0     C54131   5.604   3.869   8.524 -0.0335 -0.3750 -0.4923
  411MOL0     C54132   5.452   3.881   8.565  1.1057 -0.1491 -0.7877
  411MOL0     C54133   5.375   3.755   8.599 -0.8866  0.3314 -0.2419
  411MOL0     C54134   5.240   3.777   8.669  0.3889  0.9730 -0.2748
  411MOL0     C54135   5.179   3.640   8.711  0.6617 -0.1427 -0.1405
  411MOL0     C54136   5.050   3.671   8.784  0.1902 -0.4938  0.6659
  411MOL0     N54137   4.984   3.550   8.835  0.3470 -0.7233  0.3150
  411MOL0     C54138   4.914   3.545   8.954  0.1093  0.4505 -0.6544
  411MOL0     C54139   4.881   3.411   8.968  0.7918 -0.0767  0.5029
  411MOL0     C54140   4.766   3.356   9.056 -0.0152  0.3841  0.3996
  411MOL0     C54141   4.748   3.202   9.064 -1.1159 -0.5917  0.4296
  411MOL0     C54142   4.637   3.140   8.978 -0.0424  0.2316  0.2779
  411MOL0     C54143   4.500   3.144   9.038 -0.5725  0.1487 -0.4245
  411MOL0     O54144   4.394   3.128   8.935 -0.6447  0.3279 -0.1818
  411MOL0     C54145   4.277   3.095   8.987 -0.0144 -0.4954 -0.4614
  411MOL0     C54146   4.193   3.195   9.042 -0.5516  0.1284  0.3151
  411MOL0     C54147   4.071   3.159   9.105  1.3228 -0.0892  0.1534
  411MOL0     C54148   4.025   3.021   9.088  0.4396  0.9857 -0.6692
  411MOL0     C54149   3.882   2.993   9.141 -0.4417 -0.3893  1.0922
  411MOL0     O54150   3.855   2.865   9.148  0.4441 -0.5267  0.0999
  411MOL0     C54151   3.716   2.837   9.144 -0.1443 -0.1824 -0.9984
  411MOL0     C54152   3.666   2.746   9.048 -0.7412  0.7058  0.1367
  411MOL0     C54153   3.527   2.713   9.047 -0.4639  0.5406 -0.2520
  411MOL0     C54154   3.440   2.758   9.146  0.0270 -0.6287  0.9338
  411MOL0     O54155   3.304   2.709   9.142 -0.4426 -0.4731 -0.5232
  411MOL0     C54156   3.224   2.738   9.262 -0.0835  0.0602 -0.3843
  411MOL0     C54157   3.083   2.680   9.250  0.4528  0.3152 -0.6585
  411MOL0     C54158   2.983   2.745   9.341 -1.1194 -0.6116 -0.9572
  411MOL0     C54159   2.842   2.694   9.350  0.3439 -0.7024 -0.8996
  411MOL0     C54160   2.775   2.737   9.485 -0.9110 -1.0053  0.3866
  411MOL0     C54161   2.631   2.683   9.481 -0.0905  0.1921  0.1081
  411MOL0     C54162   2.533   2.782   9.534 -1.8327 -1.0818 -0.1707
  411MOL0     C54163   2.390   2.734   9.520  0.4841  0.7045  0.3465
  411MOL0    Cl54164   2.283   2.863   9.558  0.5939 -0.1533  0.7006
  411MOL0     C54165   3.489   2.863   9.227  1.0219 -0.1340  0.7665
  411MOL0     C54166   3.624   2.894   9.228  0.5736 -0.1475 -0.0543
  411MOL0     O54167   3.811   3.085   9.178 -0.1746  0.6180 -0.3150
  411MOL0     C54168   4.110   2.924   9.044 -0.2481 -0.0020 -1.3727
  411MOL0     C54169   4.236   2.962   8.995 -0.2703  0.9598  0.8250
  411MOL0     N54170   4.930   3.339   8.861  0.4286 -0.3386 -0.7332
  411MOL0     N54171   5.007   3.421   8.787  0.8348  0.5937 -0.2938
  411MOL0     C54172   6.016   3.654   8.297  0.6986  0.3469 -0.6687
  411MOL0     C54173   6.137   3.612   8.242 -0.0787 -0.1389 -0.9911
  411MOL0     C54174   6.596   3.502   8.250  0.0401  0.1838  0.7704
  411MOL0     C54175   6.586   3.521   8.108  0.0025  0.0265 -0.9023
  411MOL0     C54176   6.694   3.469   8.034 -0.4553 -0.3535  0.6578
  411MOL0     C54177   6.797   3.384   8.090  0.9416 -0.3301  0.5491
  411MOL0     O54178   6.893   3.307   8.030 -0.2228 -0.6279 -0.7479
  411MOL0     C54179   6.913   3.319   7.892 -0.4495 -0.2139  0.7541
  411MOL0     C54180   6.968   3.454   7.853 -0.4057 -0.5036  0.9325
  411MOL0     C54181   7.116   3.465   7.896  0.3858  0.0251  0.9302
  411MOL0     C54182   7.204   3.350   7.848 -0.6466  0.9408  0.5325
  411MOL0     C54183   7.189   3.308   7.703  0.3648 -1.2569  0.6803
  411MOL0     C54184   7.197   3.273   7.588  0.1751 -0.7317 -0.2797
  411MOL0     C54185   6.775   3.345   8.227  0.0908 -0.5856  1.6933
  411MOL0     C54186   6.678   3.410   8.303 -0.7627 -0.2591 -0.2861
  411MOL0     H54187   6.333   3.738   8.488 -0.5263  1.0998 -0.6562
  411MOL0     H54188   6.109   3.794   8.578 -1.9626 -1.2785  0.3942
  411MOL0     H54189   5.864   3.931   8.530  0.9401  0.3398 -0.0933
  411MOL0     H54190   5.917   3.811   8.647  2.6651  3.0438 -2.0295
  411MOL0     H54191   5.695   3.916   8.704  2.0016  0.6479  0.4150
  411MOL0     H54192   5.684   3.736   8.674  2.8798 -1.0678 -2.2396
  411MOL0     H54193   5.606   3.795   8.443 -1.5312 -0.0290 -0.8844
  411MOL0     H54194   5.645   3.960   8.479  1.0898 -0.8668 -0.4757
  411MOL0     H54195   5.449   3.933   8.661  0.0800 -3.7196  1.2583
  411MOL0     H54196   5.399   3.948   8.496 -0.4562 -0.4316  0.0818
  411MOL0     H54197   5.426   3.695   8.676  0.8955  0.8400 -0.9617
  411MOL0     H54198   5.375   3.707   8.501 -0.7166 -1.4920  0.6057
  411MOL0     H54199   5.173   3.841   8.611  0.7956  1.0792 -0.6353
  411MOL0     H54200   5.251   3.826   8.766  1.7326 -0.4004  0.3094
  411MOL0     H54201   5.162   3.576   8.625  0.1993 -1.0391  0.6010
  411MOL0     H54202   5.238   3.590   8.789 -1.4419 -1.2606  0.8099
  411MOL0     H54203   4.985   3.713   8.706  1.9740 -0.2573 -0.7422
  411MOL0     H54204   5.065   3.747   8.861  0.5330  3.1771 -2.7441
  411MOL0     H54205   4.886   3.629   9.016 -0.6764 -0.6277  0.4979
  411MOL0     H54206   4.675   3.412   9.030  0.1481  0.4306 -0.0841
  411MOL0     H54207   4.793   3.392   9.155 -0.2591 -0.0225  0.6155
  411MOL0     H54208   4.719   3.186   9.169 -2.9521  3.2818  0.6868
  411MOL0     H54209   4.839   3.147   9.039 -1.8867 -0.8682 -2.0560
  411MOL0     H54210   4.631   3.185   8.878  2.6118  1.6940  0.6905
  411MOL0     H54211   4.661   3.035   8.960 -1.5276 -0.2685  1.0178
  411MOL0     H54212   4.480   3.232   9.100 -1.6245  0.9165 -1.7916
  411MOL0     H54213   4.483   3.063   9.110  0.5197  1.5540  1.5020
  411MOL0     H54214   4.227   3.298   9.040  2.0986 -0.6041 -3.7442
  411MOL0     H54215   4.011   3.241   9.144  3.4738  1.5099  0.2316
  411MOL0     H54216   3.723   2.704   8.965 -3.3945 -0.5983 -1.1497
  411MOL0     H54217   3.504   2.638   8.972  1.0453  0.7544 -0.9669
  411MOL0     H54218   3.218   2.845   9.282  0.2907 -0.2091  1.2475
  411MOL0     H54219   3.272   2.685   9.344 -1.7418 -0.6480  0.1621
  411MOL0     H54220   3.088   2.573   9.274  2.2352  0.5443  0.2177
  411MOL0     H54221   3.045   2.689   9.148 -0.4528 -0.4996 -0.3980
  411MOL0     H54222   2.981   2.854   9.331 -0.7468 -0.1404  2.7224
  411MOL0     H54223   3.017   2.739   9.445 -2.0293  2.5958 -0.3737
  411MOL0     H54224   2.788   2.731   9.262 -1.9396  1.7399  1.3487
  411MOL0     H54225   2.856   2.586   9.343  1.4051 -0.5061 -2.2433
  411MOL0     H54226   2.789   2.845   9.487  0.0205 -1.1258  0.8626
  411MOL0     H54227   2.820   2.684   9.569  3.2270 -1.0492 -1.6224
  411MOL0     H54228   2.629   2.587   9.534  1.9547  1.0875  1.9861
  411MOL0     H54229   2.596   2.684   9.378  1.8907  3.6644 -0.6882
  411MOL0     H54230   2.541   2.791   9.643 -2.0017 -3.0623  0.0270
  411MOL0     H54231   2.559   2.879   9.489  2.2850 -1.8825  0.0261
  411MOL0     H54232   2.383   2.652   9.591 -1.1068  0.8322  0.3755
  411MOL0     H54233   2.361   2.704   9.419  1.0665  3.6439 -0.7993
  411MOL0     H54234   3.421   2.922   9.287 -2.1279 -0.9503 -1.7115
  411MOL0     H54235   3.656   2.975   9.292 -0.3570  1.1740 -1.1892
  411MOL0     H54236   4.079   2.820   9.047 -0.2200  0.0028 -0.9569
  411MOL0     H54237   4.296   2.879   8.958  0.0511  0.4282  2.4533
  411MOL0     H54238   5.931   3.649   8.230  1.8481  2.6416 -2.4576
  411MOL0     H54239   6.137   3.565   8.144  1.6748 -1.5980 -0.3674
  411MOL0     H54240   6.513   3.587   8.063  0.9098  1.9311  0.3139
  411MOL0     H54241   6.693   3.508   7.933 -2.2548  2.6100  1.6777
  411MOL0     H54242   6.824   3.311   7.830  0.5023  0.1613 -0.7279
  411MOL0     H54243   6.972   3.244   7.839  0.4259  1.4019 -0.6656
  411MOL0     H54244   6.968   3.457   7.744 -0.5214 -2.4694  0.8465
  411MOL0     H54245   6.912   3.536   7.898 -1.7757  0.3516 -2.0690
  411MOL0     H54246   7.126   3.464   8.005 -0.1834  1.9910  1.0395
  411MOL0     H54247   7.150   3.567   7.873  0.8092 -0.2407  0.3639
  411MOL0     H54248   7.307   3.369   7.878 -0.5372 -1.5320  1.9344
  411MOL0     H54249   7.181   3.262   7.908  3.0746 -0.5927 -0.0476
  411MOL0     H54250   7.191   3.241   7.486 -1.6294 -3.3533  0.5503
  411MOL0     H54251   6.841   3.273   8.273  2.0257  0.7768  1.1841
  411MOL0     H54252   6.663   3.387   8.408  0.0272 -0.9978 -0.3220
  412MOL0     O54253   3.982   4.361   7.474  0.4584 -0.1274  0.6731
  412MOL0     C54254   4.037   4.269   7.427  0.1538  0.6007 -0.2750
  412MOL0     O54255   4.011   4.141   7.458 -0.4402  0.7279 -0.4498
  412MOL0     C54256   3.900   4.107   7.530  0.2988  0.3809  0.5157
  412MOL0     C54257   3.899   4.052   7.663 -0.2456 -1.2760  0.2778
  412MOL0     C54258   3.782   4.020   7.733 -0.8254 -0.7500  0.1603
  412MOL0     C54259   3.656   4.038   7.679  0.3637  0.2501 -0.5642
  412MOL0     O54260   3.534   4.015   7.736 -0.5643 -0.4252  0.1454
  412MOL0     C54261   3.530   4.012   7.878 -0.6370  0.2783  0.7458
  412MOL0     C54262   3.399   4.073   7.940 -0.2369 -0.0484 -0.5824
  412MOL0     C54263   3.281   3.987   7.914 -0.2976  0.0239  0.1164
  412MOL0     C54264   3.161   4.027   8.001 -0.7667  0.4749  0.8527
  412MOL0     C54265   3.105   4.162   7.952  0.0135  0.2232  0.0314
  412MOL0     C54266   3.067   4.245   8.078 -0.7712  0.2389  0.1180
  412MOL0     C54267   2.995   4.380   8.054  0.8265  0.4688  0.1450
  412MOL0     C54268   3.078   4.481   7.981 -0.4647 -0.2602 -0.9151
  412MOL0     N54269   3.049   4.613   8.039  0.1033  0.2589  0.1838
  412MOL0     C54270   2.915   4.657   8.080 -0.7688  0.1480 -0.1121
  412MOL0     C54271   2.943   4.774   8.143 -0.5929  0.9026  0.2336
  412MOL0     C54272   2.836   4.854   8.200  0.0285 -0.1540  0.2766
  412MOL0     C54273   2.745   4.904   8.080 -0.2694  0.4938 -0.1369
  412MOL0     C54274   2.669   5.028   8.129  0.5055  1.1151 -0.1844
  412MOL0     C54275   2.540   5.042   8.056 -0.0817  0.0081  0.4067
  412MOL0     O54276   2.545   5.037   7.911  0.1053 -0.7888 -0.4073
  412MOL0     C54277   2.618   5.140   7.850 -0.7763  1.1221 -1.0657
  412MOL0     C54278   2.674   5.258   7.916  0.3860  0.2690  1.2726
  412MOL0     C54279   2.746   5.349   7.842  0.2218 -0.2571 -0.5188
  412MOL0     C54280   2.759   5.334   7.703 -0.9289  0.7119  0.3073
  412MOL0     C54281   2.825   5.422   7.614  0.0011  0.2426  0.2764
  412MOL0     O54282   2.914   5.367   7.523  0.4006 -0.7007 -0.1016
  412MOL0     C54283   2.986   5.460   7.444  1.1849  0.1260  0.1557
  412MOL0     C54284   2.979   5.461   7.300  0.4078 -0.3038 -0.7863
  412MOL0     C54285   3.082   5.520   7.222  0.7201 -0.5006  0.3767
  412MOL0     C54286   3.190   5.583   7.290  0.7927  0.2524 -0.0576
  412MOL0     O54287   3.290   5.640   7.216  0.0494  0.2155 -0.0473
  412MOL0     C54288   3.389   5.720   7.297  0.7980  0.9934 -0.1530
  412MOL0     C54289   3.500   5.786   7.212  0.4304  0.1749 -0.5719
  412MOL0     C54290   3.540   5.930   7.246  0.2203  0.6912 -0.1526
  412MOL0     C54291   3.589   5.952   7.384  0.0569  0.5668 -0.5215
  412MOL0     C54292   3.685   6.077   7.394  0.4356  0.7700 -0.3212
  412MOL0     C54293   3.612   6.211   7.393 -0.4584 -0.3345  0.4542
  412MOL0     C54294   3.710   6.321   7.355 -0.4641  0.6689  0.2268
  412MOL0     C54295   3.674   6.447   7.431 -0.1020  0.9196  0.5475
  412MOL0    Cl54296   3.547   6.536   7.342 -0.1651  0.0250  0.3586
  412MOL0     C54297   3.187   5.595   7.429  1.0166  0.9473 -0.0802
  412MOL0     C54298   3.091   5.528   7.501  0.7206 -0.5370  0.1993
  412MOL0     O54299   2.793   5.536   7.638  0.4806 -0.0957 -0.7801
  412MOL0     C54300   2.706   5.224   7.638 -0.0128  0.0022 -0.3789
  412MOL0     C54301   2.641   5.129   7.710  0.2358 -0.3890  0.5754
  412MOL0     N54302   3.076   4.802   8.150  0.2621  0.7526  0.4613
  412MOL0     N54303   3.140   4.710   8.083  0.6583  0.7934  0.5704
  412MOL0     C54304   3.650   4.085   7.550 -0.1645  0.3213 -0.7946
  412MOL0     C54305   3.764   4.114   7.473  0.2223 -0.5889 -1.0820
  412MOL0     C54306   4.157   4.308   7.348 -0.1234  0.7996 -0.0163
  412MOL0     C54307   4.230   4.213   7.279 -0.5253  0.4635 -0.0816
  412MOL0     C54308   4.327   4.249   7.192  0.2220 -0.0963 -0.2668
  412MOL0     C54309   4.373   4.373   7.174 -0.0608  0.9357  0.9768
  412MOL0     O54310   4.487   4.376   7.092 -0.1377 -0.7962  0.5917
  412MOL0     C54311   4.481   4.471   6.987  0.9890  0.6809 -0.0638
  412MOL0     C54312   4.361   4.468   6.897  0.3868  1.1875  0.0439
  412MOL0     C54313   4.366   4.325   6.834  0.1753 -0.0160  0.3490
  412MOL0     C54314   4.228   4.304   6.765 -1.0576 -0.0823 -0.7029
  412MOL0     C54315   4.107   4.298   6.846  0.4083  0.5492 -1.3491
  412MOL0     C54316   3.997   4.288   6.890 -0.1085  0.7355 -0.1874
  412MOL0     C54317   4.308   4.475   7.241  0.0670 -0.8356  0.8926
  412MOL0     C54318   4.195   4.445   7.322  0.1322 -0.2259  0.3673
  412MOL0     H54319   3.996   4.020   7.700  2.6019  3.3462 -2.2764
  412MOL0     H54320   3.783   3.984   7.835  1.7340 -2.1612 -0.2776
  412MOL0     H54321   3.611   4.067   7.927 -0.2030  0.9058 -0.6312
  412MOL0     H54322   3.529   3.906   7.906 -1.4484  0.1205  0.1839
  412MOL0     H54323   3.382   4.176   7.907 -1.7392  0.7833  2.3973
  412MOL0     H54324   3.417   4.079   8.048  1.0111 -1.6489 -0.6514
  412MOL0     H54325   3.306   3.883   7.939  0.9318  0.6350  1.5812
  412MOL0     H54326   3.258   3.993   7.807  2.3656 -0.3592 -0.5496
  412MOL0     H54327   3.101   3.936   7.990  0.9841 -0.5015 -1.3970
  412MOL0     H54328   3.194   4.015   8.104  0.3080 -2.5924  0.2552
  412MOL0     H54329   3.016   4.153   7.888  1.1162 -0.8093 -1.4317
  412MOL0     H54330   3.179   4.217   7.894 -0.7431  1.0836 -0.1492
  412MOL0     H54331   3.160   4.262   8.134 -0.9934  4.7328 -0.5040
  412MOL0     H54332   2.996   4.192   8.141 -1.3970  0.4858 -0.3683
  412MOL0     H54333   2.900   4.363   8.004  0.6863 -2.0471  1.1050
  412MOL0     H54334   2.967   4.415   8.154 -1.7261 -1.4846  0.2190
  412MOL0     H54335   3.064   4.483   7.873  1.3955 -1.5946 -1.2423
  412MOL0     H54336   3.184   4.461   8.002 -0.2085  0.6927 -1.2569
  412MOL0     H54337   2.822   4.608   8.055 -1.8448  1.6835  0.6942
  412MOL0     H54338   2.880   4.940   8.252  3.0885 -2.8429  2.5755
  412MOL0     H54339   2.779   4.793   8.271  1.4557 -0.4490  1.1945
  412MOL0     H54340   2.675   4.824   8.055  1.2956 -0.2304 -2.5787
  412MOL0     H54341   2.814   4.934   8.001  1.6114  1.0519  1.6307
  412MOL0     H54342   2.638   4.998   8.230  1.0385 -0.5986 -0.4982
  412MOL0     H54343   2.746   5.106   8.128  2.5013 -0.7418 -1.1809
  412MOL0     H54344   2.480   5.127   8.089  2.8395  3.3079 -2.0941
  412MOL0     H54345   2.481   4.950   8.071 -0.6021  0.6473  2.7905
  412MOL0     H54346   2.651   5.283   8.019  4.3723  1.3094  2.0617
  412MOL0     H54347   2.782   5.438   7.893  2.2450 -2.0974  1.4779
  412MOL0     H54348   2.892   5.413   7.257 -0.0372  1.4116 -1.8910
  412MOL0     H54349   3.068   5.526   7.115  2.0883  0.1392  0.2031
  412MOL0     H54350   3.449   5.649   7.355 -3.1719  0.0772  3.3161
  412MOL0     H54351   3.334   5.788   7.363 -3.1434 -0.2621 -1.8629
  412MOL0     H54352   3.465   5.774   7.109 -0.3480 -1.8976 -0.1161
  412MOL0     H54353   3.584   5.721   7.240 -0.5057 -0.4493  0.8588
  412MOL0     H54354   3.455   5.996   7.225 -1.1511 -1.1527 -0.6842
  412MOL0     H54355   3.617   5.957   7.173  0.2942  0.3266 -0.2134
  412MOL0     H54356   3.514   5.938   7.462  0.7692 -0.9160 -0.0646
  412MOL0     H54357   3.649   5.863   7.404 -1.6048 -0.2441  1.2090
  412MOL0     H54358   3.773   6.067   7.329  1.4591  0.8980  0.9917
  412MOL0     H54359   3.723   6.064   7.496 -2.7635 -0.5664  0.8116
  412MOL0     H54360   3.564   6.238   7.487 -0.4208 -2.0306  0.9925
  412MOL0     H54361   3.530   6.208   7.320  1.9461  0.0050 -2.4863
  412MOL0     H54362   3.811   6.300   7.391 -1.0308 -3.1938  0.0455
  412MOL0     H54363   3.717   6.329   7.246 -1.7246 -0.8537 -0.0141
  412MOL0     H54364   3.753   6.522   7.441 -0.4922  1.1423  2.0572
  412MOL0     H54365   3.625   6.432   7.527 -2.1602 -0.8171 -0.6699
  412MOL0     H54366   3.251   5.646   7.500 -0.2314  3.6072 -0.7546
  412MOL0     H54367   3.083   5.522   7.609 -0.4284 -2.7890  0.0643
  412MOL0     H54368   2.725   5.216   7.532  0.5044  3.3287 -0.6222
  412MOL0     H54369   2.594   5.051   7.652 -2.5821  1.2999  0.3911
  412MOL0     H54370   3.556   4.080   7.495  1.6526 -4.0722 -4.1236
  412MOL0     H54371   3.747   4.152   7.373  0.1597 -0.0643 -0.8742
  412MOL0     H54372   4.219   4.106   7.293  1.5715 -0.2092 -2.7519
  412MOL0     H54373   4.392   4.175   7.145  0.6252 -0.0361  0.1838
  412MOL0     H54374   4.574   4.457   6.931  1.8196  3.8647  0.3454
  412MOL0     H54375   4.488   4.572   7.029  3.7096  0.9789 -1.0716
  412MOL0     H54376   4.264   4.498   6.937 -0.6670  0.0256 -1.4795
  412MOL0     H54377   4.389   4.550   6.831  0.4096  2.7070  1.8857
  412MOL0     H54378   4.381   4.242   6.904  1.0568  0.0098  0.1940
  412MOL0     H54379   4.443   4.317   6.757  0.0492 -1.2738  0.3343
  412MOL0     H54380   4.231   4.395   6.706  2.1169 -1.2254 -2.5352
  412MOL0     H54381   4.238   4.218   6.698 -1.2749 -0.4262 -0.2978
  412MOL0     H54382   3.905   4.279   6.944  0.0674  0.4348  0.0625
  412MOL0     H54383   4.342   4.577   7.229  0.3163 -0.6313  2.9131
  412MOL0     H54384   4.133   4.531   7.344  1.9688  2.3011 -3.3827
  413MOL0     O54385   3.108   5.183   2.532  0.5715 -0.5248 -0.7698
  413MOL0     C54386   2.991   5.177   2.557 -1.5267  0.2927  0.3928
  413MOL0     O54387   2.938   5.194   2.682 -0.5436  0.1637 -0.6988
  413MOL0     C54388   3.018   5.242   2.786  0.1490  0.2851 -0.4472
  413MOL0     C54389   3.066   5.143   2.883  0.6801 -0.0960  0.8696
  413MOL0     C54390   3.140   5.194   2.995  0.1163  1.4903 -0.1127
  413MOL0     C54391   3.155   5.332   3.016 -0.2016 -0.9330 -0.8398
  413MOL0     O54392   3.213   5.386   3.128  0.3570 -0.6432  0.4422
  413MOL0     C54393   3.342   5.439   3.100 -0.2373 -0.1110 -0.4267
  413MOL0     C54394   3.452   5.395   3.205 -0.1841 -0.7053  0.7697
  413MOL0     C54395   3.492   5.256   3.165 -1.2398  0.2784  0.3958
  413MOL0     C54396   3.597   5.193   3.255  0.3153 -0.0423 -0.2452
  413MOL0     C54397   3.545   5.188   3.402  0.3824  0.4478  1.2247
  413MOL0     C54398   3.622   5.087   3.487  0.2220  0.8053 -0.1109
  413MOL0     C54399   3.771   5.112   3.490 -0.1073  0.4393  0.2272
  413MOL0     C54400   3.850   5.018   3.583 -0.0304 -0.1518 -0.5111
  413MOL0     N54401   3.902   4.904   3.499 -0.0946  1.3378 -0.0498
  413MOL0     C54402   3.964   4.790   3.541  1.1994  0.5258 -0.1538
  413MOL0     C54403   3.950   4.704   3.434  0.3251  0.1891 -0.7111
  413MOL0     C54404   3.984   4.562   3.436  1.0984  0.6745  0.2522
  413MOL0     C54405   4.133   4.547   3.423  0.3547  0.2946 -0.3460
  413MOL0     C54406   4.171   4.409   3.365 -0.4184 -0.1244  0.5058
  413MOL0     C54407   4.317   4.406   3.315 -0.8412  0.6966 -0.3922
  413MOL0     O54408   4.406   4.463   3.409  0.2105 -0.0834 -0.4225
  413MOL0     C54409   4.520   4.394   3.449  0.3338  0.3453  0.0010
  413MOL0     C54410   4.560   4.270   3.405 -0.5531  0.4351  0.3775
  413MOL0     C54411   4.667   4.204   3.468  0.4160  0.6923  0.2037
  413MOL0     C54412   4.746   4.270   3.562  0.9554 -0.0228 -0.6357
  413MOL0     C54413   4.831   4.201   3.656 -0.5506 -0.5257 -0.6757
  413MOL0     O54414   4.808   4.069   3.670  0.4962 -0.2692  0.6189
  413MOL0     C54415   4.888   3.980   3.736 -0.4311  0.2549 -0.0729
  413MOL0     C54416   4.977   4.007   3.844  0.7860 -0.1395  0.3264
  413MOL0     C54417   5.084   3.923   3.879 -0.6677 -0.3833 -0.0149
  413MOL0     C54418   5.101   3.804   3.805 -0.8421  0.1992 -0.1761
  413MOL0     O54419   5.211   3.727   3.849 -0.0922  0.5538  0.3176
  413MOL0     C54420   5.259   3.611   3.778 -0.8960  0.3018 -0.0481
  413MOL0     C54421   5.351   3.657   3.671 -1.0360 -0.4478 -0.2443
  413MOL0     C54422   5.449   3.551   3.624  0.4695  0.6993  0.4932
  413MOL0     C54423   5.518   3.599   3.494 -0.4234 -0.4161 -0.2212
  413MOL0     C54424   5.666   3.565   3.504 -0.1041  0.3539 -0.1480
  413MOL0     C54425   5.737   3.559   3.371  0.1444 -1.1918  0.4325
  413MOL0     C54426   5.848   3.452   3.333 -0.0733 -1.0805 -0.2243
  413MOL0     C54427   5.983   3.493   3.386 -0.0675  0.5989  0.1611
  413MOL0    Cl54428   6.091   3.351   3.352 -0.1279 -0.0693  0.0467
  413MOL0     C54429   5.011   3.777   3.698 -0.1380 -0.5628 -0.5155
  413MOL0     C54430   4.905   3.857   3.668  0.3732  0.4905 -0.1109
  413MOL0     O54431   4.910   4.267   3.728 -0.8374 -1.1763 -0.0157
  413MOL0     C54432   4.713   4.406   3.590 -1.1304 -0.5166  0.2238
  413MOL0     C54433   4.604   4.464   3.534  0.8138  0.4249  0.1776
  413MOL0     N54434   3.893   4.765   3.331 -0.1938 -0.6149 -0.7727
  413MOL0     N54435   3.856   4.884   3.366 -1.1725 -0.7195 -0.1493
  413MOL0     C54436   3.107   5.423   2.918  0.9875  0.1696  0.6240
  413MOL0     C54437   3.041   5.378   2.803  0.5062 -0.0191  0.0175
  413MOL0     C54438   2.898   5.156   2.443 -0.5074  0.4503 -0.0124
  413MOL0     C54439   2.764   5.167   2.454 -0.3724  0.0673 -0.2973
  413MOL0     C54440   2.679   5.165   2.340 -0.3422  0.4211 -0.2548
  413MOL0     C54441   2.726   5.142   2.217  0.4832  0.1435  0.6883
  413MOL0     O54442   2.622   5.118   2.127 -0.1219 -0.7917  0.8230
  413MOL0     C54443   2.611   4.991   2.065  0.3678  0.6336  0.0322
  413MOL0     C54444   2.691   4.996   1.940 -0.4768  0.5315  0.9671
  413MOL0     C54445   2.712   4.854   1.887  0.3611  0.5989  0.1666
  413MOL0     C54446   2.602   4.747   1.884 -0.4279  0.9918 -0.9703
  413MOL0     C54447   2.532   4.767   1.764 -0.6980 -0.5915 -0.2632
  413MOL0     C54448   2.455   4.797   1.672 -0.3652 -0.1908 -0.7108
  413MOL0     C54449   2.861   5.130   2.191  0.3193  0.4742 -0.7285
  413MOL0     C54450   2.946   5.124   2.310 -0.3462  0.0270  0.2739
  413MOL0     H54451   3.037   5.039   2.875  2.5031 -0.5170 -1.6620
  413MOL0     H54452   3.168   5.123   3.072  0.4002 -1.2177 -2.5296
  413MOL0     H54453   3.329   5.547   3.099 -2.7208 -0.2849 -3.4025
  413MOL0     H54454   3.373   5.412   2.999 -1.8682 -1.3969 -0.6346
  413MOL0     H54455   3.411   5.402   3.306 -1.4122  1.1020  0.2025
  413MOL0     H54456   3.544   5.451   3.191  1.5158 -2.4498  3.8779
  413MOL0     H54457   3.523   5.254   3.060 -0.3124 -0.5450  0.6700
  413MOL0     H54458   3.400   5.196   3.156 -1.5757  1.0976 -2.6371
  413MOL0     H54459   3.609   5.091   3.218 -3.5646 -1.3322  1.5353
  413MOL0     H54460   3.694   5.244   3.260  0.3907 -0.0855 -1.1887
  413MOL0     H54461   3.442   5.152   3.401  0.0300  1.4601  0.3413
  413MOL0     H54462   3.543   5.288   3.445 -0.5811  0.1049  2.0321
  413MOL0     H54463   3.598   4.982   3.467  1.6609  1.0287 -3.9424
  413MOL0     H54464   3.597   5.107   3.591 -0.3705  2.1529 -0.4962
  413MOL0     H54465   3.822   5.116   3.393  2.0815 -0.5245  1.2594
  413MOL0     H54466   3.786   5.211   3.534 -0.9657  1.4345 -1.6308
  413MOL0     H54467   3.794   4.994   3.675  0.7276 -0.2206 -0.0563
  413MOL0     H54468   3.939   5.073   3.616  0.4756 -0.0910 -1.9343
  413MOL0     H54469   3.995   4.761   3.641  2.8361  0.4858 -0.6488
  413MOL0     H54470   3.917   4.523   3.359  1.1959  0.6555  0.1756
  413MOL0     H54471   3.941   4.520   3.526 -1.9057  1.2712 -0.7856
  413MOL0     H54472   4.176   4.562   3.522  1.3952  2.1856 -1.0224
  413MOL0     H54473   4.176   4.628   3.363  4.3998  0.7659  2.7817
  413MOL0     H54474   4.151   4.334   3.442 -0.6606  0.2034  0.7696
  413MOL0     H54475   4.104   4.395   3.280  0.5667  1.0518 -0.4948
  413MOL0     H54476   4.347   4.466   3.228 -3.3451  0.9264 -1.1606
  413MOL0     H54477   4.334   4.302   3.286 -0.3685  0.3589  1.0192
  413MOL0     H54478   4.512   4.224   3.320  2.9992  0.7851 -2.0342
  413MOL0     H54479   4.676   4.098   3.449 -0.5068 -0.0753  3.4330
  413MOL0     H54480   4.965   4.102   3.896  0.2313  0.2385 -0.4796
  413MOL0     H54481   5.148   3.945   3.964 -2.1869 -1.5007  1.5067
  413MOL0     H54482   5.170   3.572   3.728 -0.9387 -1.2812  1.1767
  413MOL0     H54483   5.299   3.533   3.844 -3.0446  1.3723  2.7113
  413MOL0     H54484   5.413   3.741   3.702 -0.4091 -0.0356 -2.4195
  413MOL0     H54485   5.290   3.693   3.587  1.1068  2.1191 -0.8294
  413MOL0     H54486   5.391   3.459   3.610 -1.2731  1.7608  0.5058
  413MOL0     H54487   5.522   3.529   3.703  1.2016 -0.2868 -0.4124
  413MOL0     H54488   5.464   3.551   3.411  0.0906  2.8770 -2.6577
  413MOL0     H54489   5.504   3.705   3.471 -0.8887 -0.3770  0.2049
  413MOL0     H54490   5.683   3.465   3.544 -0.1903  1.0407  1.6718
  413MOL0     H54491   5.728   3.627   3.569  3.0738 -3.1737  0.5258
  413MOL0     H54492   5.773   3.661   3.358 -3.4161  0.2191  0.4022
  413MOL0     H54493   5.662   3.546   3.292 -0.2541  3.1509 -0.1098
  413MOL0     H54494   5.821   3.352   3.368 -1.8251 -1.0152 -1.2410
  413MOL0     H54495   5.854   3.447   3.224  2.9146 -0.6166 -0.1535
  413MOL0     H54496   5.976   3.498   3.495  0.5891 -0.9171  0.2966
  413MOL0     H54497   6.028   3.588   3.357 -0.9888  1.8795  2.5806
  413MOL0     H54498   5.023   3.681   3.649 -1.0783 -0.6240 -0.6504
  413MOL0     H54499   4.835   3.838   3.588 -0.4436  1.0362  0.4630
  413MOL0     H54500   4.779   4.453   3.662 -0.4981 -1.5749  0.3483
  413MOL0     H54501   4.587   4.569   3.556 -3.7759  0.0796 -0.7058
  413MOL0     H54502   3.129   5.528   2.937 -0.6434  0.8631 -1.0855
  413MOL0     H54503   3.013   5.452   2.729  0.9145  1.3986  1.2256
  413MOL0     H54504   2.717   5.205   2.545 -1.9092  2.2727 -1.8831
  413MOL0     H54505   2.572   5.180   2.355 -0.3215 -1.5131  2.6161
  413MOL0     H54506   2.509   4.976   2.029  0.1512  2.5056 -0.2673
  413MOL0     H54507   2.649   4.913   2.131 -2.5632  0.1771  1.3288
  413MOL0     H54508   2.633   5.057   1.870 -1.5831 -1.7919 -0.2573
  413MOL0     H54509   2.791   5.042   1.940 -1.1296  2.1517 -1.6437
  413MOL0     H54510   2.784   4.815   1.959 -1.1416  1.8241  2.4716
  413MOL0     H54511   2.756   4.855   1.787 -0.2536 -0.7109 -0.1424
  413MOL0     H54512   2.647   4.647   1.881 -1.3286  0.3279  2.7020
  413MOL0     H54513   2.542   4.742   1.975 -2.8114 -1.6572 -2.5389
  413MOL0     H54514   2.384   4.821   1.595  0.7723  0.4087 -1.5932
  413MOL0     H54515   2.908   5.116   2.094  1.1685  0.3863 -0.3088
  413MOL0     H54516   3.052   5.118   2.288  0.0595  2.5193  1.1891
  414MOL0     O54517   0.839   1.879   5.706  0.2405 -0.0423  0.5343
  414MOL0     C54518   0.805   1.864   5.821  0.4954  1.6766 -0.2978
  414MOL0     O54519   0.707   1.770   5.858 -0.6759 -0.3939 -0.2348
  414MOL0     C54520   0.658   1.672   5.764  0.0554  0.3015 -0.7453
  414MOL0     C54521   0.540   1.690   5.696 -0.0407  0.0562  0.4966
  414MOL0     C54522   0.512   1.594   5.601 -0.3944 -0.4265 -0.4157
  414MOL0     C54523   0.588   1.481   5.572 -0.6492  0.3128 -0.3124
  414MOL0     O54524   0.542   1.393   5.480 -0.1285  0.2660  0.2167
  414MOL0     C54525   0.634   1.327   5.401  0.4521  1.1316 -0.2480
  414MOL0     C54526   0.729   1.423   5.330  0.4366 -0.6792 -1.0548
  414MOL0     C54527   0.806   1.371   5.214  0.7665 -0.3809 -0.6863
  414MOL0     C54528   0.902   1.467   5.143  0.4901  0.0893 -0.1300
  414MOL0     C54529   0.993   1.559   5.237 -0.9667 -0.4420 -0.5514
  414MOL0     C54530   1.112   1.644   5.157  0.3704 -0.3285  0.0826
  414MOL0     C54531   1.217   1.681   5.265  0.3754 -0.1408  0.3375
  414MOL0     C54532   1.312   1.785   5.214  0.3092  0.2212 -0.4913
  414MOL0     N54533   1.413   1.732   5.129 -1.2712  0.4402  0.3419
  414MOL0     C54534   1.471   1.607   5.126 -0.5067 -0.1832 -0.1599
  414MOL0     C54535   1.570   1.615   5.033  0.1789 -0.0156 -1.0709
  414MOL0     C54536   1.663   1.501   4.995  0.3806 -0.3533  0.1268
  414MOL0     C54537   1.677   1.468   4.844 -0.2369  0.0364  0.7505
  414MOL0     C54538   1.564   1.387   4.780  0.0449 -0.9261 -0.3579
  414MOL0     C54539   1.609   1.305   4.660 -0.1954 -0.6889 -1.4705
  414MOL0     O54540   1.646   1.403   4.568 -0.2126  0.7922 -0.3695
  414MOL0     C54541   1.712   1.356   4.455  0.2159  0.0673 -0.5770
  414MOL0     C54542   1.739   1.461   4.364 -0.8155 -0.3683  0.6511
  414MOL0     C54543   1.781   1.428   4.232 -0.0617  0.0982 -0.3931
  414MOL0     C54544   1.799   1.295   4.195  0.7962  0.0653 -0.6799
  414MOL0     C54545   1.845   1.267   4.053 -1.2138 -0.4950 -0.5460
  414MOL0     O54546   1.860   1.138   4.010 -0.1054 -0.6526 -0.2671
  414MOL0     C54547   1.903   1.110   3.883 -0.2106  0.0697  0.1235
  414MOL0     C54548   1.976   0.992   3.861  0.3014  0.6453 -0.2247
  414MOL0     C54549   2.021   0.941   3.741  0.1773  0.0117  0.1142
  414MOL0     C54550   1.990   1.016   3.620  0.7224  0.7052 -0.7664
  414MOL0     O54551   2.042   0.969   3.506  0.6122 -0.2622 -0.1692
  414MOL0     C54552   1.964   0.987   3.385  0.0504 -0.5498  0.1247
  414MOL0     C54553   1.824   0.928   3.387  0.3132 -0.5529 -0.5417
  414MOL0     C54554   1.806   0.791   3.317 -0.0788 -0.0372 -0.2669
  414MOL0     C54555   1.830   0.678   3.416  0.3437 -0.5364  0.3801
  414MOL0     C54556   1.790   0.543   3.354 -0.0927  0.4230  0.0290
  414MOL0     C54557   1.819   0.529   3.200  0.5608  0.6272 -0.1603
  414MOL0     C54558   1.790   0.386   3.160 -0.0816 -0.8254 -1.0277
  414MOL0     C54559   1.795   0.380   3.008  0.3789 -0.0693 -0.2526
  414MOL0    Cl54560   1.831   0.213   2.946 -0.1985  0.3678  0.2957
  414MOL0     C54561   1.921   1.142   3.639 -0.2825  0.7518 -0.4362
  414MOL0     C54562   1.880   1.177   3.765  0.1649 -0.8700  0.5840
  414MOL0     O54563   1.876   1.365   3.992  0.3857 -0.0715  0.0421
  414MOL0     C54564   1.791   1.192   4.291  0.6412  0.3564  0.5856
  414MOL0     C54565   1.748   1.225   4.419  0.1654 -0.2119 -0.4244
  414MOL0     N54566   1.584   1.750   5.007  0.0346 -0.8959  0.0826
  414MOL0     N54567   1.479   1.809   5.048 -0.1824 -0.1673  0.0101
  414MOL0     C54568   0.698   1.467   5.646 -0.8684  0.7469 -1.6617
  414MOL0     C54569   0.740   1.562   5.742 -1.0394 -0.4697 -0.1877
  414MOL0     C54570   0.878   1.941   5.925 -0.7075 -0.5064 -0.1414
  414MOL0     C54571   0.921   2.075   5.911  0.7830 -0.6211  0.0156
  414MOL0     C54572   0.965   2.146   6.022  0.5236 -0.2617  0.2851
  414MOL0     C54573   0.995   2.073   6.143 -1.0339 -0.2403  0.0001
  414MOL0     O54574   1.044   2.142   6.253 -1.1011 -0.2221 -0.0715
  414MOL0     C54575   1.119   2.259   6.228 -0.0594  0.1368 -0.4126
  414MOL0     C54576   1.210   2.263   6.349  0.5999 -0.0959 -0.1814
  414MOL0     C54577   1.281   2.403   6.360  0.4331  0.0678  0.5189
  414MOL0     C54578   1.375   2.410   6.476  0.2871  0.3552  0.1121
  414MOL0     C54579   1.309   2.364   6.603  1.2948  0.8177 -1.0389
  414MOL0     C54580   1.258   2.319   6.701  0.1293  0.1428 -0.4921
  414MOL0     C54581   0.972   1.932   6.155 -0.0712 -0.7534 -0.6417
  414MOL0     C54582   0.905   1.877   6.051  0.0764  0.1338 -0.5329
  414MOL0     H54583   0.470   1.772   5.705  1.4350  1.7081 -1.7437
  414MOL0     H54584   0.412   1.602   5.560 -0.5535  2.8145  0.3663
  414MOL0     H54585   0.587   1.266   5.323  3.3254 -1.9016  0.1715
  414MOL0     H54586   0.696   1.254   5.455 -0.1149  0.5645 -0.3499
  414MOL0     H54587   0.796   1.467   5.405 -0.7233 -0.4397 -0.1371
  414MOL0     H54588   0.674   1.498   5.273 -0.8870 -1.9213 -1.4593
  414MOL0     H54589   0.746   1.322   5.136  1.0704 -1.1447 -0.4468
  414MOL0     H54590   0.865   1.295   5.264 -0.8464  1.0390  3.8809
  414MOL0     H54591   0.952   1.414   5.062 -1.5580  0.4285 -1.7020
  414MOL0     H54592   0.834   1.529   5.083  2.6871  1.7061 -1.1127
  414MOL0     H54593   1.040   1.492   5.309 -1.3826 -1.2965 -1.0604
  414MOL0     H54594   0.934   1.634   5.291  2.7310  1.7207  0.8829
  414MOL0     H54595   1.069   1.729   5.104 -3.4945 -1.9620  0.2270
  414MOL0     H54596   1.159   1.583   5.079  1.5280  1.7378 -0.9097
  414MOL0     H54597   1.159   1.714   5.351  0.4034 -1.7855  1.0277
  414MOL0     H54598   1.270   1.597   5.312 -1.0435 -0.8504  0.7304
  414MOL0     H54599   1.366   1.824   5.300  0.6983 -0.3682 -0.4649
  414MOL0     H54600   1.258   1.864   5.161 -3.2945 -0.8165  1.2877
  414MOL0     H54601   1.429   1.520   5.176  2.6595 -1.0713  1.2735
  414MOL0     H54602   1.643   1.407   5.047 -2.0859  0.0336 -0.0063
  414MOL0     H54603   1.762   1.529   5.032  2.3143 -0.1271 -4.4909
  414MOL0     H54604   1.777   1.430   4.820  0.2494 -1.7297  4.6891
  414MOL0     H54605   1.674   1.561   4.787 -3.9948 -1.4204 -1.8411
  414MOL0     H54606   1.512   1.318   4.848  0.8315 -1.7595 -0.5904
  414MOL0     H54607   1.485   1.458   4.754 -0.9121 -1.4608  0.9885
  414MOL0     H54608   1.517   1.260   4.622 -0.2835  0.7582 -3.0652
  414MOL0     H54609   1.684   1.234   4.697 -1.3291 -0.4696  1.5263
  414MOL0     H54610   1.718   1.561   4.403  2.2059  0.3792  0.5589
  414MOL0     H54611   1.805   1.508   4.163 -0.3602 -0.9122 -1.7023
  414MOL0     H54612   1.997   0.936   3.952  0.0331 -2.7729 -2.1101
  414MOL0     H54613   2.080   0.850   3.741  0.0955 -0.0893  2.1097
  414MOL0     H54614   2.015   0.942   3.300  0.8442  1.9528 -0.8197
  414MOL0     H54615   1.965   1.093   3.356 -4.8772 -0.2573  0.1701
  414MOL0     H54616   1.767   1.006   3.334  3.7419  1.7739 -1.0923
  414MOL0     H54617   1.782   0.923   3.488  0.6572 -2.4570 -0.4660
  414MOL0     H54618   1.869   0.770   3.229  2.9154 -4.3091  2.5215
  414MOL0     H54619   1.703   0.795   3.280  0.7077  2.9790 -2.6051
  414MOL0     H54620   1.936   0.661   3.437  0.4671 -2.3583 -1.4163
  414MOL0     H54621   1.769   0.688   3.506  0.9809  0.9301  0.6740
  414MOL0     H54622   1.681   0.532   3.363 -0.4808  2.3794 -1.5818
  414MOL0     H54623   1.841   0.461   3.405  0.6099 -0.7127 -2.3486
  414MOL0     H54624   1.924   0.546   3.173  0.8399 -1.8303 -0.9157
  414MOL0     H54625   1.756   0.591   3.136 -0.8383 -1.4667 -0.9102
  414MOL0     H54626   1.870   0.327   3.208  1.0578  1.2191 -0.3056
  414MOL0     H54627   1.701   0.342   3.205 -0.6654  0.9226 -0.4274
  414MOL0     H54628   1.865   0.448   2.959 -0.9779  1.8670  0.4003
  414MOL0     H54629   1.692   0.414   2.993  0.5043  2.5966  3.6497
  414MOL0     H54630   1.901   1.209   3.556 -0.1797  0.0194 -1.0710
  414MOL0     H54631   1.826   1.271   3.772 -1.0839 -1.1754 -3.0527
  414MOL0     H54632   1.806   1.087   4.269 -1.8952  0.1184 -0.3076
  414MOL0     H54633   1.732   1.151   4.496 -0.6575  2.7857  2.5389
  414MOL0     H54634   0.757   1.380   5.619 -1.9364  0.4395 -3.2075
  414MOL0     H54635   0.832   1.561   5.800 -1.2780 -0.5531  0.1871
  414MOL0     H54636   0.925   2.134   5.820  0.1102 -1.7311 -0.7591
  414MOL0     H54637   0.997   2.249   6.012  0.3232 -0.1165  1.0262
  414MOL0     H54638   1.068   2.352   6.202 -0.6396 -0.1554 -0.3304
  414MOL0     H54639   1.191   2.229   6.151 -0.1787  2.4916 -1.5100
  414MOL0     H54640   1.150   2.258   6.441  0.3584  2.2459 -0.1622
  414MOL0     H54641   1.286   2.184   6.349  1.9023  0.9955  2.9001
  414MOL0     H54642   1.209   2.483   6.381  0.4432  0.3115 -0.3056
  414MOL0     H54643   1.337   2.422   6.267  1.2055 -0.2134  0.9180
  414MOL0     H54644   1.464   2.347   6.473  1.4612  1.5111  4.2573
  414MOL0     H54645   1.416   2.508   6.501  2.3461 -0.5219  0.3907
  414MOL0     H54646   1.213   2.282   6.791 -1.6586  0.0047 -1.4068
  414MOL0     H54647   0.994   1.892   6.253 -2.5126 -3.4452 -1.0632
  414MOL0     H54648   0.886   1.770   6.060 -2.0328  0.5493  0.4995
  415MOL0     O54649   0.308   4.607   5.058 -0.0896  0.5563  0.4353
  415MOL0     C54650   0.347   4.611   5.177  0.0189 -0.0067 -0.6137
  415MOL0     O54651   0.320   4.709   5.260 -0.3676  0.2031  0.8563
  415MOL0     C54652   0.239   4.814   5.226 -0.6583  0.0803 -0.3878
  415MOL0     C54653   0.293   4.939   5.255  0.3967  0.1897  0.4317
  415MOL0     C54654   0.224   5.046   5.203  0.4212 -0.2586 -0.4569
  415MOL0     C54655   0.093   5.036   5.152  0.0911 -0.4756 -0.6788
  415MOL0     O54656   0.034   5.151   5.104 -0.3269  0.0139  0.0790
  415MOL0     C54657  -0.083   5.150   5.024 -0.2096  0.7136 -0.2932
  415MOL0     C54658  -0.107   5.292   4.989  0.2261  1.0446  0.3768
  415MOL0     C54659  -0.243   5.309   4.923 -0.0145 -0.4979  0.5506
  415MOL0     C54660  -0.256   5.441   4.838  0.5224  0.4446  0.1984
  415MOL0     C54661  -0.393   5.448   4.762 -0.0316  0.0149  0.5455
  415MOL0     C54662  -0.417   5.578   4.688  0.1066  0.0047 -0.0067
  415MOL0     C54663  -0.358   5.576   4.550  0.0245  0.8511 -0.3118
  415MOL0     C54664  -0.371   5.711   4.480 -0.8333 -0.2513 -1.0855
  415MOL0     N54665  -0.506   5.753   4.461  0.8588 -0.2318  0.3102
  415MOL0     C54666  -0.622   5.692   4.423  0.1385 -0.7291 -0.1562
  415MOL0     C54667  -0.709   5.797   4.402 -0.2158  0.3722  0.5413
  415MOL0     C54668  -0.847   5.781   4.338 -1.0979 -0.6721  0.2829
  415MOL0     C54669  -0.842   5.722   4.195 -0.6080 -0.1130 -0.5774
  415MOL0     C54670  -0.754   5.811   4.109  1.1352 -0.5585  0.0474
  415MOL0     C54671  -0.788   5.959   4.101 -0.0266 -0.2725  0.0333
  415MOL0     O54672  -0.756   6.001   3.967  0.4441  0.5214  0.0108
  415MOL0     C54673  -0.796   6.129   3.937 -0.8105 -0.1684  0.5378
  415MOL0     C54674  -0.883   6.213   4.009 -0.4694  0.3957 -0.1818
  415MOL0     C54675  -0.916   6.346   3.967  1.4733  0.5773 -0.3266
  415MOL0     C54676  -0.863   6.401   3.846 -0.3389 -0.1250 -0.3282
  415MOL0     C54677  -0.904   6.528   3.773 -0.6500  0.2343 -1.3399
  415MOL0     O54678  -0.846   6.557   3.662 -0.2573  0.2625 -0.3715
  415MOL0     C54679  -0.917   6.636   3.576 -0.4206 -0.8822 -0.2230
  415MOL0     C54680  -0.923   6.778   3.592  0.2613  1.2655  0.0622
  415MOL0     C54681  -1.015   6.858   3.516 -0.7063  0.0854  0.1229
  415MOL0     C54682  -1.067   6.808   3.399  0.0687 -0.3615  0.6468
  415MOL0     O54683  -1.151   6.883   3.309  0.4085  0.8280  0.8299
  415MOL0     C54684  -1.237   6.977   3.363 -0.2750 -0.1193 -0.1091
  415MOL0     C54685  -1.332   7.028   3.250  0.1880  0.4531 -0.1441
  415MOL0     C54686  -1.421   7.152   3.281 -0.8525 -0.2307 -0.6632
  415MOL0     C54687  -1.488   7.196   3.152  0.7377  0.5476  0.3030
  415MOL0     C54688  -1.623   7.270   3.171 -0.5795 -0.5546  0.0364
  415MOL0     C54689  -1.679   7.330   3.038  0.1285  0.3485 -0.6306
  415MOL0     C54690  -1.805   7.406   3.091  0.1794 -0.2574 -0.1317
  415MOL0     C54691  -1.910   7.460   2.996 -0.8980  0.7975  0.1720
  415MOL0    Cl54692  -2.005   7.309   2.923 -0.5248  0.2384 -0.0766
  415MOL0     C54693  -1.036   6.675   3.373  1.4095  0.9571  0.6762
  415MOL0     C54694  -0.980   6.584   3.469 -0.2524  0.1354 -0.3722
  415MOL0     O54695  -1.003   6.589   3.817 -0.5223 -0.2152 -0.0731
  415MOL0     C54696  -0.781   6.304   3.775  0.2081  0.0410  0.7224
  415MOL0     C54697  -0.749   6.176   3.815  0.2858  0.3493 -0.2542
  415MOL0     N54698  -0.654   5.918   4.446  0.2459  0.8403  0.1509
  415MOL0     N54699  -0.538   5.886   4.493  0.6684 -0.2134 -0.6354
  415MOL0     C54700   0.033   4.909   5.137 -0.5082  0.4680 -0.0940
  415MOL0     C54701   0.114   4.794   5.177 -0.2342 -0.2795  0.6452
  415MOL0     C54702   0.446   4.508   5.217 -0.8031 -1.1665  0.4410
  415MOL0     C54703   0.515   4.521   5.341 -0.1575  0.5107  0.0579
  415MOL0     C54704   0.602   4.422   5.378  0.7428  1.0183 -0.7069
  415MOL0     C54705   0.633   4.313   5.293 -0.4848 -0.0213 -0.2666
  415MOL0     O54706   0.729   4.227   5.340  0.3572 -0.1157  0.2960
  415MOL0     C54707   0.772   4.115   5.261 -0.7459  0.4194  0.7216
  415MOL0     C54708   0.876   4.025   5.339  0.1078  0.2171 -0.1345
  415MOL0     C54709   1.016   4.050   5.297  0.0337 -0.8240  0.3911
  415MOL0     C54710   1.079   4.146   5.397 -0.1712  0.0875 -0.3273
  415MOL0     C54711   1.225   4.151   5.364  0.0358  0.6751 -0.0661
  415MOL0     C54712   1.339   4.163   5.332 -0.0697 -0.6800  0.5925
  415MOL0     C54713   0.569   4.299   5.171  0.3632 -0.3141  0.0596
  415MOL0     C54714   0.474   4.398   5.129 -0.1612  0.2033 -0.6613
  415MOL0     H54715   0.389   4.964   5.298 -0.8409  3.9686  1.4022
  415MOL0     H54716   0.267   5.144   5.221 -0.8924  0.6488 -2.0014
  415MOL0     H54717  -0.173   5.117   5.076  0.2987 -2.1694 -1.0717
  415MOL0     H54718  -0.067   5.091   4.933 -0.5962  0.4341 -0.1829
  415MOL0     H54719  -0.035   5.335   4.919  1.4800 -1.3399  0.1194
  415MOL0     H54720  -0.102   5.356   5.078  1.7003  2.9547 -1.0067
  415MOL0     H54721  -0.320   5.302   5.000  1.4132 -2.1039  1.9197
  415MOL0     H54722  -0.267   5.221   4.863  0.3846  0.4600 -1.0579
  415MOL0     H54723  -0.246   5.519   4.914 -0.4431  2.4924 -1.6300
  415MOL0     H54724  -0.175   5.456   4.765  2.3241 -1.1447  1.7604
  415MOL0     H54725  -0.472   5.438   4.837  0.7773 -0.3938  1.3769
  415MOL0     H54726  -0.401   5.372   4.684  1.0802 -0.3639  0.7767
  415MOL0     H54727  -0.374   5.659   4.748 -0.8369  1.8772 -1.7300
  415MOL0     H54728  -0.525   5.593   4.686 -0.2325 -1.9075  1.7555
  415MOL0     H54729  -0.251   5.558   4.554  0.1149  1.4341  0.1023
  415MOL0     H54730  -0.405   5.493   4.495  0.9955 -0.5842  0.9486
  415MOL0     H54731  -0.305   5.695   4.395  3.1467 -2.1496  2.0537
  415MOL0     H54732  -0.325   5.785   4.546 -1.4583  1.4639 -2.4815
  415MOL0     H54733  -0.633   5.589   4.390  2.2472 -0.6149 -1.3944
  415MOL0     H54734  -0.896   5.879   4.336  0.5366  0.2870  2.8055
  415MOL0     H54735  -0.904   5.719   4.407  0.7295  0.1195  2.6180
  415MOL0     H54736  -0.946   5.712   4.161 -0.9338 -1.2983  0.6799
  415MOL0     H54737  -0.798   5.624   4.210  1.8506  0.7092 -1.8753
  415MOL0     H54738  -0.649   5.802   4.139  1.7690 -2.4642 -2.3831
  415MOL0     H54739  -0.761   5.752   4.017  1.9030 -0.4314 -0.1020
  415MOL0     H54740  -0.743   6.013   4.185 -2.0366 -2.5069  2.7512
  415MOL0     H54741  -0.896   5.970   4.117  0.1583  3.3833 -0.3129
  415MOL0     H54742  -0.932   6.188   4.102  0.5195  2.3018  0.9162
  415MOL0     H54743  -0.985   6.404   4.027  1.9924  1.5991 -0.6978
  415MOL0     H54744  -0.865   6.816   3.674  2.3843  1.3575 -1.3995
  415MOL0     H54745  -1.042   6.958   3.548  1.2044  1.0330 -1.0576
  415MOL0     H54746  -1.180   7.058   3.409 -0.7387 -1.8965  4.0476
  415MOL0     H54747  -1.292   6.935   3.448  0.9790  0.1462  0.8511
  415MOL0     H54748  -1.389   6.936   3.231 -2.6205  1.4496  2.5865
  415MOL0     H54749  -1.272   7.053   3.162 -1.9588  1.6371 -1.3552
  415MOL0     H54750  -1.365   7.239   3.317 -0.0702 -1.2197  0.5995
  415MOL0     H54751  -1.500   7.129   3.352 -1.7412 -0.4356 -1.6907
  415MOL0     H54752  -1.416   7.255   3.093  3.2904 -3.0927 -0.5771
  415MOL0     H54753  -1.515   7.100   3.107  1.1900 -2.7959  6.0982
  415MOL0     H54754  -1.596   7.353   3.238  2.6614 -1.9416  0.6002
  415MOL0     H54755  -1.693   7.199   3.217 -3.4354  1.5172 -0.7812
  415MOL0     H54756  -1.699   7.253   2.963  3.7592 -0.8233 -0.5616
  415MOL0     H54757  -1.595   7.392   3.008  0.2612  1.1833  1.3075
  415MOL0     H54758  -1.866   7.331   3.142 -2.2118 -0.3365 -2.8264
  415MOL0     H54759  -1.778   7.488   3.158 -0.8890  0.5681 -0.6673
  415MOL0     H54760  -1.869   7.512   2.909  1.5134 -0.9620  0.1713
  415MOL0     H54761  -1.982   7.516   3.056 -0.7203  1.7497 -0.4752
  415MOL0     H54762  -1.090   6.628   3.292  0.9104  0.6673  1.1676
  415MOL0     H54763  -0.970   6.479   3.445  2.6643  0.2663 -0.0603
  415MOL0     H54764  -0.734   6.342   3.685 -0.6971  0.1241  0.2770
  415MOL0     H54765  -0.691   6.105   3.756  3.2522  2.7828 -0.5077
  415MOL0     H54766  -0.069   4.899   5.103 -1.1155  0.2311  1.6996
  415MOL0     H54767   0.072   4.698   5.149 -2.7152  1.2603 -1.2720
  415MOL0     H54768   0.493   4.606   5.404  0.5635 -0.0642  1.1228
  415MOL0     H54769   0.667   4.421   5.466  2.5457 -0.1509 -1.9851
  415MOL0     H54770   0.816   4.152   5.168  2.3133 -1.1718  1.3915
  415MOL0     H54771   0.688   4.054   5.228 -0.1273  1.0142 -2.2398
  415MOL0     H54772   0.844   4.033   5.443 -0.8964  1.7119 -0.5175
  415MOL0     H54773   0.863   3.920   5.313  0.6723 -0.2097  1.2162
  415MOL0     H54774   1.012   4.081   5.193 -2.1569  0.7125  0.8682
  415MOL0     H54775   1.070   3.956   5.284  0.5446 -0.2921 -1.5258
  415MOL0     H54776   1.043   4.249   5.398  1.4808  0.6997  0.5450
  415MOL0     H54777   1.067   4.114   5.501 -1.8166 -0.1882 -0.5721
  415MOL0     H54778   1.444   4.182   5.323  0.8630 -2.2800  5.4383
  415MOL0     H54779   0.590   4.216   5.105  1.2694  0.0999 -0.1868
  415MOL0     H54780   0.425   4.394   5.033  0.0154 -1.6995 -0.7065
  416MOL0     O54781   8.654  11.009   5.306 -0.6917 -0.1674  0.3010
  416MOL0     C54782   8.738  11.077   5.256  0.8413 -0.3095  0.6708
  416MOL0     O54783   8.744  11.108   5.127  0.0505  0.1380 -0.2022
  416MOL0     C54784   8.647  11.055   5.045  0.2067  0.4277 -0.2784
  416MOL0     C54785   8.521  11.103   5.041 -0.6863  0.6376  0.5235
  416MOL0     C54786   8.429  11.040   4.956  0.1514 -0.1329  1.0903
  416MOL0     C54787   8.459  10.930   4.879  0.0603  0.2691  0.0196
  416MOL0     O54788   8.367  10.884   4.776 -0.4355 -0.1708 -0.2973
  416MOL0     C54789   8.312  10.750   4.797 -1.0590  0.4501 -0.0875
  416MOL0     C54790   8.163  10.767   4.760 -0.8805 -0.3453  0.4459
  416MOL0     C54791   8.103  10.629   4.723  0.4021 -0.2033  0.3717
  416MOL0     C54792   7.964  10.633   4.654 -0.5161 -0.8320  1.0026
  416MOL0     C54793   7.850  10.582   4.739 -0.5924 -0.1159 -0.2349
  416MOL0     C54794   7.699  10.606   4.680  0.0361  0.0211 -0.2821
  416MOL0     C54795   7.584  10.582   4.793 -0.5093  0.1206  0.1300
  416MOL0     C54796   7.451  10.591   4.733  0.4368  0.9063  0.9471
  416MOL0     N54797   7.381  10.464   4.711 -0.2626 -0.0215 -0.6916
  416MOL0     C54798   7.434  10.341   4.687  0.6666  0.5679  0.3641
  416MOL0     C54799   7.334  10.251   4.691 -0.2728 -0.7931 -0.5020
  416MOL0     C54800   7.357  10.097   4.686  0.9133 -1.0867  0.3996
  416MOL0     C54801   7.287  10.046   4.805  0.1647  1.1215 -1.1410
  416MOL0     C54802   7.311   9.901   4.845 -0.0659 -0.3844 -0.7299
  416MOL0     C54803   7.282   9.802   4.732  0.2684  0.1657 -0.0059
  416MOL0     O54804   7.283   9.667   4.783  0.4672  0.1740 -0.0342
  416MOL0     C54805   7.406   9.615   4.816 -0.9582  0.7322 -0.1388
  416MOL0     C54806   7.539   9.667   4.810  0.9665  0.1322  0.3204
  416MOL0     C54807   7.653   9.591   4.851  0.6936  0.0165 -0.1845
  416MOL0     C54808   7.638   9.459   4.896 -0.0317  0.0869 -0.1292
  416MOL0     C54809   7.744   9.390   4.957 -0.3012  0.1657 -0.0839
  416MOL0     O54810   7.870   9.450   4.957 -0.1634 -0.1093 -0.1009
  416MOL0     C54811   7.976   9.394   5.018 -0.1956  0.2987  0.1523
  416MOL0     C54812   7.983   9.337   5.147  0.1825  0.2637 -0.7140
  416MOL0     C54813   8.098   9.290   5.205 -0.7994  0.0410 -0.4554
  416MOL0     C54814   8.218   9.316   5.141  0.8720 -0.1903  0.0531
  416MOL0     O54815   8.331   9.293   5.216  0.0280  0.6542 -0.1142
  416MOL0     C54816   8.454   9.323   5.150 -1.3106  0.7613  0.1007
  416MOL0     C54817   8.568   9.269   5.237 -0.3225 -0.8523  1.3394
  416MOL0     C54818   8.578   9.114   5.238  1.3641  0.5271 -0.7241
  416MOL0     C54819   8.698   9.080   5.334  0.4373 -0.7524  0.5502
  416MOL0     C54820   8.703   8.927   5.345  0.5973 -1.1018 -0.4398
  416MOL0     C54821   8.827   8.879   5.437 -0.1095  0.1493  0.6479
  416MOL0     C54822   8.965   8.906   5.373  0.3737  0.4932  0.0941
  416MOL0     C54823   9.086   8.835   5.436  0.0129  0.2895  0.2515
  416MOL0    Cl54824   9.078   8.654   5.414  0.0055  0.1141  0.0558
  416MOL0     C54825   8.225   9.378   5.012  0.9936 -0.3606 -0.0037
  416MOL0     C54826   8.100   9.416   4.949 -0.4761 -0.6000  0.4208
  416MOL0     O54827   7.719   9.279   5.013  0.2793 -0.5116 -0.3770
  416MOL0     C54828   7.509   9.406   4.898  0.7940 -0.5176 -0.5703
  416MOL0     C54829   7.396   9.479   4.856 -0.4093 -0.4147  0.0559
  416MOL0     N54830   7.217  10.320   4.713  1.1610 -0.1785 -0.6468
  416MOL0     N54831   7.247  10.444   4.719  0.0079 -0.0758  0.5839
  416MOL0     C54832   8.583  10.871   4.898 -0.2089 -0.9685 -0.2342
  416MOL0     C54833   8.677  10.939   4.974 -0.2365 -0.8178  0.1914
  416MOL0     C54834   8.854  11.113   5.344 -0.1025  0.2235  0.4747
  416MOL0     C54835   8.964  11.184   5.294 -0.8117  0.1485 -0.4110
  416MOL0     C54836   9.072  11.221   5.375  0.6736  0.1330 -0.2383
  416MOL0     C54837   9.066  11.208   5.511  0.2978  0.2242 -0.2902
  416MOL0     O54838   9.160  11.259   5.599 -0.8701 -0.3158  0.3938
  416MOL0     C54839   9.232  11.140   5.632 -0.4685  0.2533 -0.5071
  416MOL0     C54840   9.370  11.185   5.685  0.0845 -0.1984  0.4069
  416MOL0     C54841   9.456  11.211   5.555 -0.5858 -0.1152  0.2465
  416MOL0     C54842   9.588  11.279   5.599 -0.8927 -0.9731 -0.1316
  416MOL0     C54843   9.679  11.198   5.671  0.3426  1.3217 -0.8425
  416MOL0     C54844   9.768  11.133   5.705 -1.1950 -0.0797 -0.2289
  416MOL0     C54845   8.947  11.150   5.555 -0.0659  1.0522 -0.8456
  416MOL0     C54846   8.845  11.103   5.478  0.3423  0.2346  0.4807
  416MOL0     H54847   8.502  11.195   5.095 -1.0064  1.9020 -1.6140
  416MOL0     H54848   8.326  11.074   4.956 -0.2282 -0.7104 -3.7359
  416MOL0     H54849   8.324  10.708   4.897  0.8226  2.5264  0.6385
  416MOL0     H54850   8.365  10.693   4.720  0.0237  1.3868 -0.0593
  416MOL0     H54851   8.155  10.834   4.674  0.4303  1.3779  1.5752
  416MOL0     H54852   8.105  10.803   4.846  1.1393  2.2637  0.8688
  416MOL0     H54853   8.093  10.568   4.814  1.6610 -1.3764 -0.2372
  416MOL0     H54854   8.175  10.577   4.659 -1.4209 -3.0738  0.4477
  416MOL0     H54855   7.947  10.733   4.614  1.2544 -1.3171 -1.1761
  416MOL0     H54856   7.970  10.569   4.565  0.8085 -1.1481  1.2976
  416MOL0     H54857   7.859  10.621   4.841  2.2753 -1.1076 -0.0040
  416MOL0     H54858   7.858  10.473   4.747 -0.8991 -0.1609 -0.5350
  416MOL0     H54859   7.670  10.542   4.596 -1.9395 -1.1434  1.1881
  416MOL0     H54860   7.695  10.712   4.652 -0.4253  0.3080  0.8165
  416MOL0     H54861   7.605  10.488   4.843  0.2574 -1.3934 -2.7953
  416MOL0     H54862   7.591  10.657   4.873 -2.4010  0.1264  0.3422
  416MOL0     H54863   7.458  10.631   4.631 -2.8889 -3.0802 -1.1658
  416MOL0     H54864   7.382  10.646   4.798 -3.6151 -0.0823 -2.1122
  416MOL0     H54865   7.536  10.312   4.667 -0.0945 -1.4558 -0.9824
  416MOL0     H54866   7.465  10.083   4.699  1.2915  0.6149 -0.7163
  416MOL0     H54867   7.318  10.050   4.596  0.0047 -2.4859  1.4698
  416MOL0     H54868   7.178  10.058   4.803  0.0972  1.0231  0.5111
  416MOL0     H54869   7.307  10.102   4.897 -2.4833  1.4249 -0.6499
  416MOL0     H54870   7.415   9.888   4.874 -0.6765 -0.7547  1.4222
  416MOL0     H54871   7.244   9.881   4.929  0.9715  1.0879  0.5117
  416MOL0     H54872   7.359   9.805   4.654  0.9181  0.4910  0.6328
  416MOL0     H54873   7.182   9.827   4.696  0.1566 -1.5131 -0.9632
  416MOL0     H54874   7.554   9.768   4.773 -1.4481  0.4291 -0.0290
  416MOL0     H54875   7.752   9.634   4.860 -0.1236  1.9231  0.1021
  416MOL0     H54876   7.888   9.327   5.199 -0.3168 -0.0367 -1.6620
  416MOL0     H54877   8.088   9.248   5.304 -5.1170  3.2858  0.8003
  416MOL0     H54878   8.465   9.432   5.142  1.1494  0.5829  0.2171
  416MOL0     H54879   8.465   9.279   5.050  1.1163  2.7744 -0.6413
  416MOL0     H54880   8.560   9.316   5.335 -1.5579  2.1051 -0.0290
  416MOL0     H54881   8.660   9.305   5.190 -2.1573 -0.6845 -2.5831
  416MOL0     H54882   8.591   9.059   5.144 -1.9951 -4.4905  1.3219
  416MOL0     H54883   8.488   9.059   5.267  1.5135  2.4424  4.4227
  416MOL0     H54884   8.789   9.112   5.283 -0.6414  0.8029 -0.4980
  416MOL0     H54885   8.678   9.137   5.425 -0.3580  2.4150 -1.4523
  416MOL0     H54886   8.734   8.892   5.246  2.2296  1.1255 -0.8028
  416MOL0     H54887   8.607   8.881   5.369 -0.5597  0.7510 -1.2939
  416MOL0     H54888   8.816   8.776   5.473 -2.4493  1.0179  2.6967
  416MOL0     H54889   8.817   8.939   5.528 -3.3773  1.0386 -0.1915
  416MOL0     H54890   8.966   8.873   5.269 -1.3301 -0.5623  0.3866
  416MOL0     H54891   8.974   9.015   5.374 -2.5360  0.9224 -2.6136
  416MOL0     H54892   9.100   8.852   5.543  1.4401  0.5878  0.0399
  416MOL0     H54893   9.176   8.880   5.394 -1.0841 -0.7285 -3.5619
  416MOL0     H54894   8.314   9.409   4.959 -0.3086  4.7836  0.2871
  416MOL0     H54895   8.106   9.468   4.854 -0.5696 -1.7779 -0.2396
  416MOL0     H54896   7.476   9.318   4.951 -0.9811  0.3397 -0.1489
  416MOL0     H54897   7.293   9.443   4.859 -0.7251  0.5251  1.1306
  416MOL0     H54898   8.595  10.765   4.877  0.7311 -0.6608 -1.3941
  416MOL0     H54899   8.782  10.913   4.986  0.6756  0.3415 -3.7545
  416MOL0     H54900   8.985  11.198   5.189  2.6018 -1.1345 -0.0325
  416MOL0     H54901   9.151  11.282   5.333  0.1249  0.3383 -0.9780
  416MOL0     H54902   9.236  11.066   5.551 -2.3990  1.1641 -1.4901
  416MOL0     H54903   9.181  11.087   5.713 -1.1213 -0.9252 -1.6529
  416MOL0     H54904   9.365  11.284   5.732  1.6749  0.7661 -1.3150
  416MOL0     H54905   9.421  11.115   5.751 -1.1464 -1.5386 -0.0090
  416MOL0     H54906   9.405  11.284   5.491  1.0199  2.6229  1.8782
  416MOL0     H54907   9.474  11.122   5.494 -2.3844  0.1571 -0.7680
  416MOL0     H54908   9.623  11.300   5.498 -3.9506  1.2044 -0.8960
  416MOL0     H54909   9.569  11.372   5.653 -0.2723 -0.0363 -1.4732
  416MOL0     H54910   9.849  11.069   5.736 -1.4120 -0.7846 -1.0860
  416MOL0     H54911   8.928  11.158   5.661  1.6655 -0.8387 -0.3184
  416MOL0     H54912   8.753  11.069   5.526  0.9586 -2.0427  0.1566
  417MOL0     O54913   2.412   5.743   3.198  0.1216  0.0954  0.3664
  417MOL0     C54914   2.392   5.620   3.212 -0.2258 -0.2339  0.2085
  417MOL0     O54915   2.464   5.530   3.279 -0.2732 -0.5099  0.7318
  417MOL0     C54916   2.578   5.567   3.333 -1.1624 -0.8072 -0.2531
  417MOL0     C54917   2.700   5.528   3.281 -0.1754  0.1962  0.6597
  417MOL0     C54918   2.819   5.566   3.336  0.2070  0.0335  0.3077
  417MOL0     C54919   2.817   5.659   3.435 -0.1480  0.3487 -0.6436
  417MOL0     O54920   2.937   5.694   3.498 -0.2459 -0.1353  0.6828
  417MOL0     C54921   2.952   5.809   3.579  0.2202  0.0205  0.4808
  417MOL0     C54922   3.096   5.845   3.601 -0.0662 -0.2562  0.5098
  417MOL0     C54923   3.131   5.950   3.714 -0.1230  0.1628  0.4975
  417MOL0     C54924   3.282   5.960   3.705  0.8962  0.4980  0.2629
  417MOL0     C54925   3.335   6.024   3.836 -0.6604 -0.6838  0.5058
  417MOL0     C54926   3.484   6.061   3.827  0.2033 -0.0651 -1.4051
  417MOL0     C54927   3.561   5.941   3.882 -0.4395 -0.0965  1.1027
  417MOL0     C54928   3.587   5.935   4.033  0.0119  0.5535  0.3141
  417MOL0     N54929   3.717   5.994   4.052 -0.9733  0.3983  0.0092
  417MOL0     C54930   3.827   5.917   4.084  0.3443  0.2034  0.1259
  417MOL0     C54931   3.931   5.996   4.093 -0.2749 -0.1848  0.1516
  417MOL0     C54932   4.077   5.960   4.120  0.1421 -0.0009 -0.3739
  417MOL0     C54933   4.136   6.048   4.229  0.1335  0.7461 -0.5801
  417MOL0     C54934   4.290   6.033   4.238  0.0864  0.8522 -0.9666
  417MOL0     C54935   4.351   6.129   4.330 -0.1721  0.1611 -0.4506
  417MOL0     O54936   4.494   6.138   4.300 -0.7484 -0.0034 -0.5198
  417MOL0     C54937   4.542   6.235   4.211  0.0105  0.2431 -0.4527
  417MOL0     C54938   4.667   6.214   4.156 -0.8052  0.3528 -0.0157
  417MOL0     C54939   4.717   6.299   4.053 -0.5200 -0.1132 -0.6294
  417MOL0     C54940   4.640   6.408   4.002  0.8662 -0.2617 -0.8963
  417MOL0     C54941   4.684   6.493   3.885 -0.1760  0.7451  0.0775
  417MOL0     O54942   4.796   6.439   3.824 -0.3253  0.3960 -0.1726
  417MOL0     C54943   4.855   6.498   3.708  0.0584  0.2543 -0.0511
  417MOL0     C54944   4.776   6.539   3.600  0.9977  0.3945  0.6180
  417MOL0     C54945   4.835   6.578   3.475  0.6397  0.6073  0.1076
  417MOL0     C54946   4.973   6.571   3.458 -0.5575  0.6609 -0.2306
  417MOL0     O54947   5.018   6.598   3.332  0.6652 -0.1434 -0.3078
  417MOL0     C54948   5.111   6.503   3.280 -0.4405  0.4554  0.0869
  417MOL0     C54949   5.035   6.393   3.198  0.2802  0.3672  0.1976
  417MOL0     C54950   4.910   6.428   3.119 -0.4547  0.2775 -0.5801
  417MOL0     C54951   4.842   6.302   3.069 -0.3289 -0.0602  0.2403
  417MOL0     C54952   4.706   6.334   2.996 -0.0575  0.7575  0.4234
  417MOL0     C54953   4.599   6.393   3.078  1.0023 -0.3729 -0.0264
  417MOL0     C54954   4.460   6.390   3.002  0.4068 -0.1988  0.3559
  417MOL0     C54955   4.354   6.469   3.070 -0.6139  0.2103 -0.7418
  417MOL0    Cl54956   4.334   6.417   3.239 -0.6182  0.0254  0.2518
  417MOL0     C54957   5.051   6.529   3.565  0.1159  0.6919 -0.8973
  417MOL0     C54958   4.987   6.498   3.686 -0.2322  0.5904 -0.0473
  417MOL0     O54959   4.634   6.599   3.859  0.2543 -0.0418  0.2089
  417MOL0     C54960   4.529   6.437   4.074 -0.0907 -0.5699 -0.3860
  417MOL0     C54961   4.478   6.352   4.177  0.4750 -0.2152  0.2345
  417MOL0     N54962   3.888   6.130   4.077  0.9792 -0.4556 -0.9861
  417MOL0     N54963   3.755   6.123   4.060 -0.1522  0.3523 -0.5615
  417MOL0     C54964   2.702   5.692   3.503  0.8254 -0.2857  1.0236
  417MOL0     C54965   2.579   5.651   3.444  0.4340  0.1797  0.1767
  417MOL0     C54966   2.281   5.562   3.122 -0.4602 -0.5140 -0.0644
  417MOL0     C54967   2.216   5.639   3.024  0.6721  0.2241  0.4139
  417MOL0     C54968   2.131   5.576   2.930  0.2384  0.5358 -0.0461
  417MOL0     C54969   2.108   5.441   2.940  1.2023  1.0839 -0.9212
  417MOL0     O54970   2.015   5.373   2.857 -0.6920  0.3833 -0.0802
  417MOL0     C54971   1.958   5.448   2.752  0.7626  0.4579 -0.5155
  417MOL0     C54972   1.838   5.377   2.688 -0.5241  0.1752 -0.3725
  417MOL0     C54973   1.895   5.271   2.594 -1.0990  1.0658  0.6680
  417MOL0     C54974   1.773   5.182   2.552  0.1491 -0.7656  0.9973
  417MOL0     C54975   1.830   5.066   2.479  0.6461 -1.0555 -0.3357
  417MOL0     C54976   1.879   4.970   2.422  0.0480 -0.3453 -0.2301
  417MOL0     C54977   2.171   5.366   3.037 -0.5068 -0.1618  0.0504
  417MOL0     C54978   2.253   5.428   3.139  0.5003 -0.4278  0.4091
  417MOL0     H54979   2.702   5.452   3.203  2.1846 -1.7993  2.5330
  417MOL0     H54980   2.920   5.552   3.298  0.5830 -1.6740  1.8065
  417MOL0     H54981   2.913   5.783   3.678 -1.1724  0.0515 -0.0256
  417MOL0     H54982   2.900   5.898   3.542  2.2508  0.9031 -0.3692
  417MOL0     H54983   3.132   5.889   3.508  1.1539 -0.9392  0.6350
  417MOL0     H54984   3.158   5.756   3.612 -0.3686 -0.6334 -0.7693
  417MOL0     H54985   3.121   5.911   3.816  2.2084  4.3248  2.6201
  417MOL0     H54986   3.076   6.041   3.689  1.5692  1.1576  0.2140
  417MOL0     H54987   3.321   5.860   3.687  0.9847  1.0260 -3.4082
  417MOL0     H54988   3.306   6.016   3.614  2.8597  2.5396  1.9223
  417MOL0     H54989   3.329   5.954   3.919 -0.7812 -0.0017  1.0881
  417MOL0     H54990   3.299   6.123   3.867  2.1767  1.1785 -1.6047
  417MOL0     H54991   3.499   6.148   3.891 -1.5579  0.0109 -1.0600
  417MOL0     H54992   3.508   6.080   3.722 -1.2269 -1.1580 -1.9590
  417MOL0     H54993   3.532   5.842   3.848  3.4647 -0.9715 -0.1589
  417MOL0     H54994   3.663   5.946   3.842 -1.1245  1.3151 -0.6265
  417MOL0     H54995   3.571   5.831   4.060 -0.2973  0.5130 -0.0157
  417MOL0     H54996   3.520   5.986   4.103 -1.0927 -2.8426  1.9472
  417MOL0     H54997   3.829   5.808   4.082 -0.4547  0.1899 -1.7012
  417MOL0     H54998   4.128   5.983   4.026 -0.9898 -0.8431 -1.2152
  417MOL0     H54999   4.075   5.854   4.145 -5.6241 -0.0196  0.5798
  417MOL0     H55000   4.099   6.008   4.324  0.7998  0.3354 -0.4894
  417MOL0     H55001   4.108   6.152   4.211  1.2599  1.8001  2.8850
  417MOL0     H55002   4.307   5.932   4.276 -1.7856  1.2550  1.1799
  417MOL0     H55003   4.340   6.037   4.141  0.7604  3.2078 -0.6087
  417MOL0     H55004   4.338   6.105   4.436  2.8246 -0.6072 -0.1621
  417MOL0     H55005   4.303   6.227   4.318  2.3925  1.8489  1.9364
  417MOL0     H55006   4.720   6.122   4.177 -2.6332 -1.3979 -2.5370
  417MOL0     H55007   4.813   6.269   4.013 -0.0090 -1.3567  1.3681
  417MOL0     H55008   4.668   6.524   3.601  1.0509 -0.0354  1.4556
  417MOL0     H55009   4.761   6.584   3.396  0.5043 -3.0949 -0.2603
  417MOL0     H55010   5.154   6.449   3.364 -0.7908 -2.4959 -1.4972
  417MOL0     H55011   5.192   6.546   3.219  1.1556 -0.3681  1.5284
  417MOL0     H55012   4.993   6.320   3.268 -1.6614  0.3019 -0.9713
  417MOL0     H55013   5.116   6.350   3.138  0.7965 -3.0045  2.9814
  417MOL0     H55014   4.941   6.497   3.040  0.3176  0.2460 -0.3115
  417MOL0     H55015   4.839   6.484   3.182 -1.7396 -1.4289 -0.4394
  417MOL0     H55016   4.911   6.248   3.003 -1.3225  1.1809 -1.9101
  417MOL0     H55017   4.818   6.251   3.163 -1.4683  1.7631  0.9825
  417MOL0     H55018   4.671   6.237   2.961  2.6975 -0.1336 -0.1564
  417MOL0     H55019   4.724   6.393   2.906  0.4368 -1.0041 -0.6796
  417MOL0     H55020   4.634   6.497   3.089  0.0250 -0.2181  2.2838
  417MOL0     H55021   4.596   6.343   3.175  1.2466  1.9775  1.2818
  417MOL0     H55022   4.475   6.426   2.900  1.8839 -0.6387  0.3941
  417MOL0     H55023   4.419   6.289   3.007  1.2118 -0.4601  2.8207
  417MOL0     H55024   4.253   6.454   3.033 -1.3233  1.2977  0.6653
  417MOL0     H55025   4.380   6.574   3.057  2.4732  0.1140  2.6657
  417MOL0     H55026   5.158   6.509   3.570 -0.2187 -1.5649 -1.6188
  417MOL0     H55027   5.049   6.454   3.763 -1.5410  2.2161  2.0403
  417MOL0     H55028   4.480   6.532   4.056  3.7635  1.7634  0.3268
  417MOL0     H55029   4.381   6.378   4.219  0.7144  2.0254 -0.4897
  417MOL0     H55030   2.689   5.769   3.578 -2.3336  0.4739 -0.1336
  417MOL0     H55031   2.483   5.685   3.482 -1.8389 -4.2366 -0.8563
  417MOL0     H55032   2.243   5.744   3.018 -2.2115  1.0376  0.2979
  417MOL0     H55033   2.094   5.640   2.851  0.8905  0.1231 -0.7062
  417MOL0     H55034   2.036   5.468   2.678  0.4897 -0.9532 -1.2260
  417MOL0     H55035   1.923   5.547   2.782  1.8849  0.4491  0.9639
  417MOL0     H55036   1.773   5.325   2.759 -1.2850 -0.6377 -1.6245
  417MOL0     H55037   1.788   5.457   2.633 -0.0787  0.7865  0.0942
  417MOL0     H55038   1.961   5.202   2.647 -0.4518  1.2396  0.1000
  417MOL0     H55039   1.944   5.311   2.505  1.3586 -2.4788  0.2441
  417MOL0     H55040   1.731   5.143   2.646  2.8213 -0.3303  2.4687
  417MOL0     H55041   1.706   5.239   2.487  0.2999 -2.1619 -0.4533
  417MOL0     H55042   1.930   4.891   2.370 -0.7263  0.1998 -1.9172
  417MOL0     H55043   2.140   5.262   3.048 -0.1366 -0.1612  1.1417
  417MOL0     H55044   2.303   5.364   3.211  3.2656 -1.6749 -2.3356
  418MOL0     O55045   1.342   5.902   2.505 -0.6176  0.2862  0.6821
  418MOL0     C55046   1.336   5.998   2.579 -0.9766 -0.0729 -0.4608
  418MOL0     O55047   1.227   6.019   2.661 -0.3331 -0.2622 -0.0828
  418MOL0     C55048   1.130   5.925   2.671 -0.1603  1.4318 -0.3921
  418MOL0     C55049   1.059   5.894   2.559  0.9707 -0.3551 -1.2101
  418MOL0     C55050   0.952   5.805   2.575  0.7076  0.4897 -0.8389
  418MOL0     C55051   0.908   5.758   2.701  0.3243  0.3632  0.5029
  418MOL0     O55052   0.806   5.666   2.692  0.4408  0.3756 -0.3370
  418MOL0     C55053   0.699   5.695   2.785 -0.0086 -0.2463 -1.0239
  418MOL0     C55054   0.658   5.575   2.869  0.2633  0.2384 -0.5617
  418MOL0     C55055   0.718   5.582   3.002  1.0409 -0.0222 -0.6659
  418MOL0     C55056   0.633   5.494   3.104  0.2119  0.6000  0.0416
  418MOL0     C55057   0.690   5.495   3.252  0.1467 -0.0015  0.4178
  418MOL0     C55058   0.679   5.642   3.316  0.0220 -0.0161  0.1364
  418MOL0     C55059   0.726   5.659   3.457  0.2523 -0.1535 -0.5381
  418MOL0     C55060   0.872   5.620   3.458  0.6658  0.8531 -0.1730
  418MOL0     N55061   0.926   5.662   3.588  0.0928 -0.6885  0.3984
  418MOL0     C55062   0.959   5.583   3.694 -0.1590  0.5020  0.2539
  418MOL0     C55063   1.020   5.663   3.781 -0.3116  0.6700 -0.3306
  418MOL0     C55064   1.091   5.629   3.913 -0.4350  0.3732  0.0688
  418MOL0     C55065   1.181   5.725   3.992 -0.0719  0.3174 -0.0441
  418MOL0     C55066   1.288   5.794   3.895 -0.1110  0.1349  0.0176
  418MOL0     C55067   1.403   5.881   3.967  0.1491 -0.2246  0.5138
  418MOL0     O55068   1.456   5.792   4.065 -0.1066  0.3588 -0.0489
  418MOL0     C55069   1.559   5.837   4.150 -0.9111  0.5361  0.2675
  418MOL0     C55070   1.621   5.750   4.246 -0.6884  0.7908  0.3212
  418MOL0     C55071   1.724   5.785   4.325  0.3882  0.2968 -0.4077
  418MOL0     C55072   1.770   5.922   4.320 -1.0614  0.9868 -0.3866
  418MOL0     C55073   1.888   5.956   4.409 -0.8397 -0.0557 -0.6820
  418MOL0     O55074   1.982   5.857   4.426  0.8504 -0.1987 -0.0999
  418MOL0     C55075   2.107   5.899   4.481  0.4919 -0.0007  0.2351
  418MOL0     C55076   2.147   5.866   4.614 -0.5054  0.4310 -0.4123
  418MOL0     C55077   2.275   5.892   4.650  0.2108 -0.1339 -0.3844
  418MOL0     C55078   2.372   5.946   4.568  0.2078 -0.1686 -0.0817
  418MOL0     O55079   2.502   5.956   4.624 -0.3542  0.1853 -0.7555
  418MOL0     C55080   2.611   5.985   4.547 -0.2016  0.6005  0.3210
  418MOL0     C55081   2.737   6.021   4.625 -0.5930 -0.9691  0.2138
  418MOL0     C55082   2.843   6.057   4.520 -0.1783  0.3695  0.2766
  418MOL0     C55083   2.940   6.154   4.603  0.2095  0.9196  0.4152
  418MOL0     C55084   3.057   6.192   4.510 -0.2929  0.3347 -0.9252
  418MOL0     C55085   3.172   6.082   4.491 -0.4246  0.0948  0.2324
  418MOL0     C55086   3.277   6.125   4.385 -0.9091  0.6023  0.4957
  418MOL0     C55087   3.393   6.032   4.393 -0.5624  0.7872  0.6894
  418MOL0    Cl55088   3.481   6.072   4.558 -0.4672 -0.2357 -0.2490
  418MOL0     C55089   2.326   5.994   4.440 -0.5025 -0.6351 -0.4653
  418MOL0     C55090   2.196   5.978   4.395 -0.2011  0.1428 -0.3988
  418MOL0     O55091   1.902   6.067   4.456 -0.1367  0.3462 -0.0547
  418MOL0     C55092   1.719   6.009   4.223 -0.1951  0.5549 -0.1242
  418MOL0     C55093   1.610   5.968   4.147  0.8272  0.3666  0.1756
  418MOL0     N55094   1.023   5.786   3.730  1.1109  0.5462 -0.9945
  418MOL0     N55095   0.961   5.791   3.621 -0.2183 -0.0698  0.1347
  418MOL0     C55096   0.974   5.800   2.815 -0.4484  0.7240  0.3634
  418MOL0     C55097   1.095   5.874   2.797  0.8449 -0.0828  1.3952
  418MOL0     C55098   1.448   6.093   2.554  0.6162 -0.2503  0.0826
  418MOL0     C55099   1.452   6.197   2.651 -0.4486 -0.5695  0.7303
  418MOL0     C55100   1.548   6.301   2.628  1.3335  0.0511  0.0022
  418MOL0     C55101   1.634   6.306   2.522  0.6859  0.9033 -0.2633
  418MOL0     O55102   1.726   6.409   2.521 -0.2711  0.6593 -0.5273
  418MOL0     C55103   1.837   6.410   2.446 -0.8904  0.3277  0.2032
  418MOL0     C55104   1.955   6.445   2.527 -0.6719 -0.2480 -0.4243
  418MOL0     C55105   2.063   6.519   2.451  0.4392  0.0049  0.5981
  418MOL0     C55106   2.185   6.556   2.534 -0.3682  0.8258  0.0596
  418MOL0     C55107   2.270   6.660   2.471  0.0096 -0.8053 -0.2970
  418MOL0     C55108   2.314   6.761   2.427 -0.6732 -0.1330 -0.4051
  418MOL0     C55109   1.631   6.193   2.428 -0.0776  0.1661  0.1283
  418MOL0     C55110   1.537   6.094   2.440 -0.3151  0.5058  0.7002
  418MOL0     H55111   1.090   5.931   2.462  2.3608 -0.1647 -0.7259
  418MOL0     H55112   0.892   5.785   2.488 -0.4255 -1.3684  0.3070
  418MOL0     H55113   0.622   5.727   2.715  1.5561  4.3514 -0.9297
  418MOL0     H55114   0.727   5.783   2.842  0.5895 -1.1080  0.0547
  418MOL0     H55115   0.698   5.481   2.829  2.2957  0.5530  0.6026
  418MOL0     H55116   0.549   5.568   2.871  0.3325 -1.5148 -0.6608
  418MOL0     H55117   0.730   5.686   3.035  0.5220  0.0091 -0.5719
  418MOL0     H55118   0.819   5.540   2.992  1.0035 -0.3704  0.2662
  418MOL0     H55119   0.533   5.535   3.118 -0.6323 -1.7664  1.6060
  418MOL0     H55120   0.631   5.391   3.067 -0.8748  1.1950 -1.7028
  418MOL0     H55121   0.797   5.468   3.250 -0.4355 -3.3258  3.4602
  418MOL0     H55122   0.634   5.426   3.317 -1.9772  2.3246  1.2006
  418MOL0     H55123   0.582   5.689   3.302  1.9239  3.1732 -4.8837
  418MOL0     H55124   0.742   5.709   3.258 -1.3100  1.4653  0.3621
  418MOL0     H55125   0.726   5.761   3.496 -0.3998  0.4332 -2.0080
  418MOL0     H55126   0.665   5.605   3.531 -0.6406  2.8170  1.0279
  418MOL0     H55127   0.921   5.681   3.382 -0.9185  1.2342 -0.9288
  418MOL0     H55128   0.894   5.516   3.435 -1.6351  0.2099  0.2543
  418MOL0     H55129   0.956   5.475   3.705 -0.2260  0.1586 -2.3443
  418MOL0     H55130   1.157   5.543   3.898 -1.5381 -0.9427  2.2639
  418MOL0     H55131   1.012   5.597   3.981 -2.1728 -0.8024 -2.3666
  418MOL0     H55132   1.238   5.677   4.072  0.1410 -0.4134 -0.6187
  418MOL0     H55133   1.123   5.807   4.035  0.5900 -0.4098  2.3544
  418MOL0     H55134   1.339   5.719   3.834 -0.8082  1.4507 -2.2856
  418MOL0     H55135   1.233   5.858   3.826 -0.6948  0.9300  1.1805
  418MOL0     H55136   1.363   5.976   4.004 -1.7042 -0.1198 -1.5339
  418MOL0     H55137   1.492   5.904   3.907  0.4586 -2.4324  0.0406
  418MOL0     H55138   1.600   5.644   4.248  2.1346  0.1277  3.7016
  418MOL0     H55139   1.761   5.712   4.397 -0.3718  1.4250  1.2097
  418MOL0     H55140   2.069   5.839   4.684 -0.6253 -2.5206 -1.5601
  418MOL0     H55141   2.307   5.882   4.753 -2.2124  1.9936  0.6935
  418MOL0     H55142   2.592   6.073   4.485  0.7321  0.7526  0.2294
  418MOL0     H55143   2.645   5.916   4.470  1.0613  1.8534 -0.3022
  418MOL0     H55144   2.775   5.932   4.675  2.6204  1.1225  1.7796
  418MOL0     H55145   2.713   6.104   4.693  0.0829 -0.6640  0.0875
  418MOL0     H55146   2.807   6.110   4.431  1.5102  0.0916 -0.6141
  418MOL0     H55147   2.899   5.970   4.483 -3.1660 -1.3157 -0.5878
  418MOL0     H55148   2.889   6.246   4.632  0.9098  2.2230 -2.1835
  418MOL0     H55149   2.989   6.099   4.684 -1.1185  0.0468  0.6631
  418MOL0     H55150   3.100   6.282   4.554 -1.0675  0.0559  0.4763
  418MOL0     H55151   3.019   6.220   4.411  0.5021  1.9140 -0.8131
  418MOL0     H55152   3.127   5.984   4.471 -0.2100  0.6121 -3.5703
  418MOL0     H55153   3.227   6.076   4.585  0.0133  2.9576  0.2248
  418MOL0     H55154   3.236   6.128   4.284  0.5090  1.4139 -0.0764
  418MOL0     H55155   3.310   6.228   4.403  0.7402  0.6699 -2.3116
  418MOL0     H55156   3.464   6.036   4.310  2.0320 -1.2513  2.6586
  418MOL0     H55157   3.345   5.934   4.392 -1.0250  0.9938  1.5709
  418MOL0     H55158   2.392   6.050   4.375 -1.8251 -0.0126 -1.3136
  418MOL0     H55159   2.174   5.988   4.289  1.1658 -1.3231 -0.8697
  418MOL0     H55160   1.773   6.097   4.193  2.7549 -1.1458 -0.1377
  418MOL0     H55161   1.569   6.044   4.081 -0.0317  0.5567  0.9113
  418MOL0     H55162   0.953   5.771   2.918  0.6128  2.2011  1.0255
  418MOL0     H55163   1.154   5.908   2.882  1.3287 -0.3470  1.1687
  418MOL0     H55164   1.385   6.201   2.737  0.3581  2.8385  1.3415
  418MOL0     H55165   1.563   6.370   2.710 -2.8096 -1.3474  2.2309
  418MOL0     H55166   1.808   6.475   2.364  0.0924 -1.2480 -1.4587
  418MOL0     H55167   1.855   6.305   2.419  0.5388 -0.0594  2.3682
  418MOL0     H55168   1.924   6.511   2.608 -2.1060 -0.7343 -0.5488
  418MOL0     H55169   1.986   6.353   2.576  0.6718 -0.0989 -0.9378
  418MOL0     H55170   2.023   6.610   2.405 -0.3280 -1.0110 -0.8447
  418MOL0     H55171   2.105   6.456   2.373 -1.3824 -0.4437 -0.0717
  418MOL0     H55172   2.163   6.586   2.637 -0.6152 -1.2783  0.6594
  418MOL0     H55173   2.231   6.457   2.538  0.9710  1.1729 -3.3033
  418MOL0     H55174   2.357   6.846   2.378  3.3012 -0.9924  1.1981
  418MOL0     H55175   1.703   6.174   2.350  2.1973  0.6074  1.9987
  418MOL0     H55176   1.536   6.015   2.366  1.5161  4.6246 -4.3461
  419MOL0     O55177   0.350   1.164   0.331 -0.0325 -0.3617  0.4951
  419MOL0     C55178   0.293   1.263   0.285  0.4897  0.0453  1.5101
  419MOL0     O55179   0.296   1.386   0.334  0.0578  0.0454  1.0835
  419MOL0     C55180   0.401   1.422   0.413  0.8795 -0.0861 -0.1075
  419MOL0     C55181   0.429   1.374   0.541  0.5070  0.4173  0.4749
  419MOL0     C55182   0.526   1.431   0.618  0.3138 -0.4259 -0.0776
  419MOL0     C55183   0.604   1.539   0.570  0.5278 -0.0983  0.5516
  419MOL0     O55184   0.708   1.587   0.645 -0.2131 -0.1543  0.8595
  419MOL0     C55185   0.786   1.685   0.584 -0.3283 -0.6343 -0.0170
  419MOL0     C55186   0.909   1.711   0.678 -0.0543 -0.4206  0.5876
  419MOL0     C55187   0.995   1.827   0.639 -0.0160 -0.2104  0.5399
  419MOL0     C55188   1.123   1.835   0.722  0.0120 -0.8512 -0.7645
  419MOL0     C55189   1.208   1.955   0.663 -0.3481 -0.6711  0.1227
  419MOL0     C55190   1.285   1.915   0.547  0.0330  0.3774  0.0340
  419MOL0     C55191   1.353   2.018   0.459  0.1889 -0.2261 -0.1739
  419MOL0     C55192   1.416   1.957   0.338 -0.7675 -0.9720 -0.2057
  419MOL0     N55193   1.506   2.053   0.257  0.2435 -0.3596  0.7252
  419MOL0     C55194   1.558   2.175   0.300  1.3438 -0.9239 -0.2596
  419MOL0     C55195   1.622   2.226   0.192 -0.6818  0.2979  0.1484
  419MOL0     C55196   1.672   2.367   0.182 -0.5556  0.3362  0.4176
  419MOL0     C55197   1.782   2.379   0.286 -0.6732 -0.3269 -0.3499
  419MOL0     C55198   1.823   2.518   0.338  0.6718  0.0407 -0.2220
  419MOL0     C55199   1.743   2.578   0.443  0.3865  1.2833  0.6891
  419MOL0     O55200   1.642   2.659   0.386  0.4866 -0.2595 -0.2814
  419MOL0     C55201   1.572   2.740   0.480 -0.4379 -0.7302 -0.4101
  419MOL0     C55202   1.496   2.696   0.587 -0.4157  0.4008 -0.5034
  419MOL0     C55203   1.428   2.784   0.677  0.9081  0.6058  0.6617
  419MOL0     C55204   1.421   2.921   0.642  0.3769  0.5098  0.4029
  419MOL0     C55205   1.354   3.013   0.735  0.4203  0.8754  0.3809
  419MOL0     O55206   1.281   2.954   0.838 -0.4418  0.0770  0.5213
  419MOL0     C55207   1.211   3.029   0.933  0.8298 -0.1366 -1.0427
  419MOL0     C55208   1.151   2.956   1.039  0.5334  0.2244 -0.7898
  419MOL0     C55209   1.073   3.016   1.140 -0.1191  0.3442 -0.1388
  419MOL0     C55210   1.053   3.155   1.142  0.1114 -0.2445  0.1800
  419MOL0     O55211   0.969   3.232   1.231  1.0788  0.4999 -0.0402
  419MOL0     C55212   0.880   3.167   1.316  0.3093  0.6324  0.1814
  419MOL0     C55213   0.759   3.124   1.234 -0.2426 -0.0055  0.6648
  419MOL0     C55214   0.641   3.077   1.316  0.4405 -1.0171 -0.2834
  419MOL0     C55215   0.670   2.936   1.385 -0.1217  0.3094 -0.4898
  419MOL0     C55216   0.562   2.902   1.491  0.1062  0.4710  0.3049
  419MOL0     C55217   0.581   2.756   1.535 -0.3067  0.4915 -0.2464
  419MOL0     C55218   0.490   2.712   1.654  0.4013  0.0339  0.2738
  419MOL0     C55219   0.549   2.610   1.751  0.6700  0.3066 -0.0032
  419MOL0    Cl55220   0.565   2.455   1.660  0.5621 -0.1624 -0.4985
  419MOL0     C55221   1.116   3.224   1.039  0.2417 -0.0560 -0.2214
  419MOL0     C55222   1.186   3.161   0.932 -0.8387  0.2209 -0.3227
  419MOL0     O55223   1.367   3.129   0.716 -0.1775 -0.3608 -0.0056
  419MOL0     C55224   1.510   2.959   0.542  0.0804 -0.0189  0.8370
  419MOL0     C55225   1.570   2.875   0.458  0.1452  0.9428  0.3990
  419MOL0     N55226   1.613   2.134   0.087 -0.1471 -0.1855 -0.6115
  419MOL0     N55227   1.538   2.032   0.122  0.3092  0.0116 -0.6188
  419MOL0     C55228   0.566   1.599   0.442  0.2111  0.6091  0.4982
  419MOL0     C55229   0.468   1.538   0.363  0.4741 -0.7829  0.2306
  419MOL0     C55230   0.190   1.240   0.175  0.6802  0.9592 -0.3106
  419MOL0     C55231   0.160   1.112   0.129 -0.4032  0.7016 -0.8066
  419MOL0     C55232   0.062   1.091   0.030 -0.9086 -0.0534 -0.3493
  419MOL0     C55233  -0.003   1.194  -0.025  0.3921  0.3038 -0.0591
  419MOL0     O55234  -0.113   1.171  -0.096  0.7362 -0.1614  0.1651
  419MOL0     C55235  -0.131   1.049  -0.155  0.0992  0.6294  0.2418
  419MOL0     C55236  -0.263   1.042  -0.237  0.5645 -0.5957  0.4552
  419MOL0     C55237  -0.379   1.064  -0.139 -0.1463 -0.0949  0.2958
  419MOL0     C55238  -0.492   0.957  -0.149  0.5686  0.3612 -0.3824
  419MOL0     C55239  -0.439   0.827  -0.111  1.4521 -0.5158  0.3660
  419MOL0     C55240  -0.380   0.730  -0.079  0.6565  1.9236 -0.6622
  419MOL0     C55241   0.032   1.323   0.013  0.2601 -0.2171  0.8453
  419MOL0     C55242   0.125   1.346   0.110 -0.5851 -0.1007  0.4739
  419MOL0     H55243   0.378   1.287   0.581 -0.0888  0.4783 -0.1418
  419MOL0     H55244   0.549   1.369   0.704  1.2253 -0.4513 -0.3284
  419MOL0     H55245   0.739   1.784   0.587 -2.0594 -1.3346 -1.7046
  419MOL0     H55246   0.837   1.651   0.493  1.4115 -2.4302  1.5548
  419MOL0     H55247   0.970   1.621   0.673  2.1424  0.9281  1.4951
  419MOL0     H55248   0.886   1.714   0.785  0.0260 -0.7279  0.6126
  419MOL0     H55249   0.943   1.923   0.649 -0.9182  0.0110 -4.0958
  419MOL0     H55250   1.011   1.817   0.531 -4.5718 -0.4881 -0.2783
  419MOL0     H55251   1.098   1.864   0.825 -2.6555 -1.7021 -1.0869
  419MOL0     H55252   1.190   1.749   0.724  3.0799  1.2952 -2.6729
  419MOL0     H55253   1.277   2.002   0.733  0.9624  1.7936 -2.6064
  419MOL0     H55254   1.147   2.044   0.646  1.3364  1.3830  3.6930
  419MOL0     H55255   1.223   1.853   0.481  0.4387 -2.5186  2.1770
  419MOL0     H55256   1.363   1.849   0.585  0.9938 -0.9081 -3.6602
  419MOL0     H55257   1.288   2.098   0.422  0.6277 -0.1733 -0.8296
  419MOL0     H55258   1.437   2.051   0.520 -0.6207 -0.3108  1.0184
  419MOL0     H55259   1.348   1.920   0.261 -1.0792  0.2112 -0.5061
  419MOL0     H55260   1.465   1.863   0.368 -2.3785 -1.7690  0.0688
  419MOL0     H55261   1.537   2.233   0.389 -0.1119  1.0250 -1.7703
  419MOL0     H55262   1.584   2.430   0.199 -0.6504  0.9583 -2.0084
  419MOL0     H55263   1.720   2.383   0.085 -2.9390 -0.9228 -1.0684
  419MOL0     H55264   1.875   2.348   0.239  1.0223  2.8937  0.5896
  419MOL0     H55265   1.778   2.315   0.374  0.7372 -0.3633 -0.2939
  419MOL0     H55266   1.930   2.510   0.359  0.6614 -2.5445 -0.8983
  419MOL0     H55267   1.816   2.578   0.247 -2.2266 -3.9888 -2.9791
  419MOL0     H55268   1.805   2.644   0.505  5.2162 -1.1704 -0.9537
  419MOL0     H55269   1.702   2.499   0.506  2.2467 -1.6994 -1.5239
  419MOL0     H55270   1.510   2.589   0.597  3.0486  0.4260 -3.3521
  419MOL0     H55271   1.380   2.734   0.760  2.9332 -1.0683  0.8981
  419MOL0     H55272   1.169   2.851   1.059 -0.6077  0.6014  2.8027
  419MOL0     H55273   1.039   2.932   1.201 -0.7790 -0.0342 -1.0070
  419MOL0     H55274   0.849   3.238   1.393 -4.3192 -1.0267  0.1512
  419MOL0     H55275   0.920   3.074   1.358  0.9619  1.8627  2.4218
  419MOL0     H55276   0.783   3.050   1.157 -1.8210  2.7425 -2.7273
  419MOL0     H55277   0.730   3.218   1.188  1.3050 -0.8082 -2.1954
  419MOL0     H55278   0.550   3.054   1.259  0.4611 -1.0214 -0.3142
  419MOL0     H55279   0.620   3.132   1.408 -0.9394 -1.8136 -0.0848
  419MOL0     H55280   0.663   2.860   1.307  0.4239 -1.3930  1.0537
  419MOL0     H55281   0.767   2.938   1.436  0.8166 -1.1014 -2.1299
  419MOL0     H55282   0.457   2.918   1.467 -0.1895 -1.5787  0.0643
  419MOL0     H55283   0.565   2.963   1.582 -1.7630 -1.4125  1.7414
  419MOL0     H55284   0.687   2.748   1.563  0.0147  1.4696 -1.1221
  419MOL0     H55285   0.578   2.683   1.454 -0.9124  1.5049 -1.1479
  419MOL0     H55286   0.459   2.804   1.705 -2.8037 -0.4886 -0.5175
  419MOL0     H55287   0.395   2.668   1.625  2.4014 -2.1282 -3.7121
  419MOL0     H55288   0.490   2.596   1.842 -0.6507  4.7656  0.0647
  419MOL0     H55289   0.644   2.651   1.788  0.7655 -2.0523  2.7476
  419MOL0     H55290   1.099   3.330   1.025 -1.6052  0.1300  2.6113
  419MOL0     H55291   1.215   3.242   0.865  0.4318 -1.4117 -1.8533
  419MOL0     H55292   1.521   3.067   0.541 -3.0451  0.3936 -1.1496
  419MOL0     H55293   1.628   2.920   0.378  3.0987 -2.7656  0.1910
  419MOL0     H55294   0.611   1.689   0.403  0.7896  0.1850  0.1600
  419MOL0     H55295   0.433   1.593   0.276 -1.5005 -0.7478  1.0125
  419MOL0     H55296   0.194   1.021   0.178 -2.8517 -0.4832 -1.1855
  419MOL0     H55297   0.039   0.987   0.014  0.4077 -0.2603 -1.0095
  419MOL0     H55298  -0.141   0.963  -0.089  1.8620 -0.8424 -1.3026
  419MOL0     H55299  -0.043   1.036  -0.218 -0.9100  2.3085 -1.6409
  419MOL0     H55300  -0.270   1.118  -0.316  1.0642 -1.9285 -0.9326
  419MOL0     H55301  -0.275   0.947  -0.291  2.1904  0.0475 -1.1708
  419MOL0     H55302  -0.415   1.167  -0.148 -1.3256 -0.4989  0.2462
  419MOL0     H55303  -0.351   1.062  -0.033 -0.7715  1.2393  0.5081
  419MOL0     H55304  -0.577   0.980  -0.084  1.2153  0.8274  0.3111
  419MOL0     H55305  -0.526   0.948  -0.252  0.4145 -4.4352 -0.1546
  419MOL0     H55306  -0.324   0.640  -0.063 -3.5757 -1.1949 -1.5691
  419MOL0     H55307  -0.029   1.403  -0.029  0.3518 -1.1117 -1.1443
  419MOL0     H55308   0.149   1.449   0.136  0.7739 -0.9086  2.6749
  420MOL0     O55309   3.190   4.136  11.344 -0.4187 -0.2551 -0.0665
  420MOL0     C55310   3.148   4.248  11.373 -0.0674  0.5476  0.6820
  420MOL0     O55311   3.070   4.325  11.286 -0.4205 -0.2625  0.3752
  420MOL0     C55312   3.058   4.303  11.152  0.1995  0.6882  0.3017
  420MOL0     C55313   2.966   4.212  11.096  0.6817 -0.1672  0.7902
  420MOL0     C55314   2.931   4.209  10.960 -0.3909  0.8524  0.1230
  420MOL0     C55315   3.006   4.295  10.872  0.2681  0.4130 -0.7677
  420MOL0     O55316   2.994   4.263  10.740 -0.7567  0.4353  0.2519
  420MOL0     C55317   2.985   4.372  10.646 -0.3039 -1.2725 -0.8721
  420MOL0     C55318   3.071   4.366  10.526  0.6493 -0.1723  0.0362
  420MOL0     C55319   3.039   4.246  10.445 -0.7988  0.6200 -0.4119
  420MOL0     C55320   3.138   4.229  10.333  0.7265 -0.0346  0.1131
  420MOL0     C55321   3.150   4.086  10.279 -1.1932  0.0268  0.6586
  420MOL0     C55322   3.157   3.971  10.377 -0.1593 -0.1244 -0.0423
  420MOL0     C55323   3.200   3.834  10.322  0.0731 -0.1854  0.2783
  420MOL0     C55324   3.118   3.749  10.233  0.8633 -0.0784 -0.7216
  420MOL0     N55325   2.972   3.768  10.251 -1.0829  0.7573 -0.2276
  420MOL0     C55326   2.891   3.861  10.188 -0.5528  1.2079 -0.7101
  420MOL0     C55327   2.764   3.828  10.225  0.6162 -0.1282  0.3087
  420MOL0     C55328   2.646   3.891  10.159 -0.6115  0.1967  0.0824
  420MOL0     C55329   2.598   3.993  10.263 -0.0578  1.0639  0.1730
  420MOL0     C55330   2.455   4.054  10.222  0.2987 -0.2399  0.6505
  420MOL0     C55331   2.435   4.186  10.307 -0.2782  0.2726 -0.1736
  420MOL0     O55332   2.320   4.248  10.285 -0.1888 -0.4472 -0.2493
  420MOL0     C55333   2.318   4.331  10.173  0.4419 -0.6093  0.7098
  420MOL0     C55334   2.410   4.431  10.135 -0.1507 -1.0194 -0.6126
  420MOL0     C55335   2.387   4.512  10.018 -0.1482  0.0990 -0.8870
  420MOL0     C55336   2.280   4.464   9.933 -1.3916 -0.5062  0.6449
  420MOL0     C55337   2.256   4.543   9.804 -0.9564  0.9827  0.7937
  420MOL0     O55338   2.136   4.521   9.731 -0.1062  0.1962  0.0507
  420MOL0     C55339   2.095   4.614   9.635  0.4146  0.5484  0.1501
  420MOL0     C55340   1.999   4.559   9.547 -1.2660  0.0473 -0.2763
  420MOL0     C55341   1.946   4.635   9.447 -0.1401  0.0799  0.6291
  420MOL0     C55342   1.990   4.762   9.420 -0.1554  0.1095 -0.6924
  420MOL0     O55343   1.953   4.831   9.304  0.1305  0.1683 -0.3577
  420MOL0     C55344   1.817   4.816   9.255  0.2593  0.0820  0.0169
  420MOL0     C55345   1.806   4.745   9.121 -0.0397 -0.9058  1.0498
  420MOL0     C55346   1.677   4.657   9.103  0.2815  0.1528 -0.0605
  420MOL0     C55347   1.624   4.636   8.953 -0.0679  0.1002  0.1781
  420MOL0     C55348   1.609   4.759   8.872  0.8360 -1.3554 -0.1233
  420MOL0     C55349   1.529   4.749   8.740  0.1490  1.1813  0.3863
  420MOL0     C55350   1.377   4.700   8.766 -0.1567  0.2465 -0.4871
  420MOL0     C55351   1.267   4.745   8.672  0.1352 -0.4886  0.7247
  420MOL0    Cl55352   1.299   4.681   8.502  0.0114  0.4012  0.9537
  420MOL0     C55353   2.084   4.819   9.507  0.5256 -0.0251  0.2597
  420MOL0     C55354   2.137   4.747   9.613 -0.7469  0.5843  0.0616
  420MOL0     O55355   2.348   4.615   9.770 -0.0293 -0.4953 -0.1158
  420MOL0     C55356   2.204   4.356   9.964  0.8521 -0.0633  0.8441
  420MOL0     C55357   2.223   4.286  10.079  0.2658  1.3930 -0.1522
  420MOL0     N55358   2.773   3.722  10.313  0.5975 -0.2125 -0.2521
  420MOL0     N55359   2.898   3.689  10.329 -1.4140  0.9110  0.9091
  420MOL0     C55360   3.107   4.379  10.922 -0.1426  0.6321 -0.7149
  420MOL0     C55361   3.119   4.388  11.061 -0.1331 -0.5779  1.6131
  420MOL0     C55362   3.181   4.291  11.516  1.0118  0.5250  0.0350
  420MOL0     C55363   3.239   4.205  11.611 -1.2880 -0.2644  0.4523
  420MOL0     C55364   3.271   4.251  11.740 -0.4421  0.4274 -0.1134
  420MOL0     C55365   3.248   4.386  11.773 -0.2384 -0.8920 -0.2454
  420MOL0     O55366   3.285   4.425  11.898  0.0339  0.2074 -0.0792
  420MOL0     C55367   3.381   4.531  11.897  0.3311 -0.4809  0.6370
  420MOL0     C55368   3.514   4.510  11.838  0.1707  0.2244 -0.0547
  420MOL0     C55369   3.582   4.373  11.879 -1.2893 -0.1060  0.2642
  420MOL0     C55370   3.675   4.321  11.767  0.8110  0.0990  0.7691
  420MOL0     C55371   3.784   4.408  11.741  0.0666 -0.2478 -0.0247
  420MOL0     C55372   3.877   4.483  11.711  0.3152  0.0258 -0.5866
  420MOL0     C55373   3.186   4.466  11.671 -0.2890 -0.6947  0.2823
  420MOL0     C55374   3.159   4.419  11.552 -0.2377  0.0170  0.3822
  420MOL0     H55375   2.895   4.164  11.163  0.6181 -2.7877 -1.0035
  420MOL0     H55376   2.858   4.142  10.916 -3.4976  2.7787  1.9575
  420MOL0     H55377   3.012   4.469  10.689  1.0276 -2.5979  1.4927
  420MOL0     H55378   2.881   4.358  10.614 -0.7429 -0.7880  0.2767
  420MOL0     H55379   3.178   4.367  10.549  0.3470 -4.0432  2.4506
  420MOL0     H55380   3.059   4.454  10.462  2.1173 -2.0830 -3.1061
  420MOL0     H55381   2.938   4.262  10.408 -0.5054  0.8434 -1.1379
  420MOL0     H55382   3.042   4.160  10.513  4.2778 -1.0405 -2.2402
  420MOL0     H55383   3.101   4.296  10.255  2.2585 -0.3889 -0.9727
  420MOL0     H55384   3.239   4.260  10.361  0.8912  0.2530 -0.7824
  420MOL0     H55385   3.250   4.089  10.233 -2.1056 -1.9297 -1.6610
  420MOL0     H55386   3.073   4.075  10.203 -0.5031 -0.3565 -0.0019
  420MOL0     H55387   3.054   3.965  10.413 -0.5476  0.8760 -0.9409
  420MOL0     H55388   3.228   4.009  10.451  0.0403  2.3953 -1.3902
  420MOL0     H55389   3.290   3.848  10.261  0.6225  0.2592  1.1630
  420MOL0     H55390   3.249   3.778  10.403  3.6315  0.2461 -1.3794
  420MOL0     H55391   3.150   3.645  10.247  1.1478 -0.2876 -2.6557
  420MOL0     H55392   3.135   3.766  10.126  2.1778  1.8598 -0.2397
  420MOL0     H55393   2.919   3.945  10.126 -0.2928  1.7663  0.1489
  420MOL0     H55394   2.579   3.808  10.134 -3.0016  2.9745 -3.9404
  420MOL0     H55395   2.675   3.940  10.065 -0.0172 -0.7659 -0.2604
  420MOL0     H55396   2.679   4.067  10.267  0.3819  0.5853  0.3697
  420MOL0     H55397   2.592   3.958  10.367 -2.8266  0.9118  0.0300
  420MOL0     H55398   2.469   4.073  10.115 -1.3845 -0.5920  0.3376
  420MOL0     H55399   2.371   3.985  10.228 -1.5593  1.3050 -3.5116
  420MOL0     H55400   2.517   4.255  10.289  1.1321 -1.4376 -0.5837
  420MOL0     H55401   2.436   4.161  10.413 -2.8798 -0.8827 -0.3366
  420MOL0     H55402   2.479   4.461  10.214 -1.5219  0.3014  0.1416
  420MOL0     H55403   2.450   4.599  10.002  1.4806 -0.5966  1.2492
  420MOL0     H55404   1.993   4.451   9.559  1.1453 -0.2378 -1.1008
  420MOL0     H55405   1.892   4.587   9.365  0.9139 -0.8215  0.4438
  420MOL0     H55406   1.758   4.908   9.253  0.6121  0.3039 -0.5734
  420MOL0     H55407   1.763   4.759   9.331  4.7170 -1.0151  2.6992
  420MOL0     H55408   1.894   4.682   9.109 -0.4867 -1.1948 -1.2307
  420MOL0     H55409   1.808   4.826   9.047 -0.9743  1.4884  3.4557
  420MOL0     H55410   1.601   4.723   9.146  2.0105  2.0393  0.2494
  420MOL0     H55411   1.701   4.561   9.149 -2.1828  0.5905  2.3651
  420MOL0     H55412   1.692   4.566   8.904  1.5472  2.0668 -0.5503
  420MOL0     H55413   1.529   4.589   8.979  0.7160 -1.6251  0.0922
  420MOL0     H55414   1.706   4.801   8.846 -0.9968  2.1790 -2.0534
  420MOL0     H55415   1.551   4.834   8.927  2.1829 -0.0011 -0.5104
  420MOL0     H55416   1.571   4.681   8.666 -3.1720 -1.4200  0.6454
  420MOL0     H55417   1.512   4.851   8.705 -1.1666  0.8329 -0.0523
  420MOL0     H55418   1.383   4.591   8.770  1.1625  0.3418  0.9615
  420MOL0     H55419   1.347   4.729   8.867  0.4203 -2.4496  0.5261
  420MOL0     H55420   1.291   4.851   8.656  1.8915 -0.9599 -0.0006
  420MOL0     H55421   1.160   4.731   8.687  0.0220  0.8635  1.3244
  420MOL0     H55422   2.132   4.916   9.499 -0.0267  0.1948 -0.6765
  420MOL0     H55423   2.215   4.793   9.672 -0.7778 -1.1349  1.5445
  420MOL0     H55424   2.133   4.339   9.884 -0.3383  0.1773  1.8277
  420MOL0     H55425   2.161   4.198  10.091 -1.7838  2.5581 -1.5586
  420MOL0     H55426   3.167   4.442  10.857 -0.0254  0.4607 -0.7738
  420MOL0     H55427   3.192   4.464  11.089  0.2872 -0.1854 -0.4407
  420MOL0     H55428   3.245   4.101  11.579  5.2710 -0.7262  1.6291
  420MOL0     H55429   3.307   4.190  11.821 -1.6593 -0.3279 -0.1235
  420MOL0     H55430   3.406   4.571  11.996 -0.0714  2.9362 -0.5083
  420MOL0     H55431   3.333   4.622  11.860  0.1588  0.5118  3.1332
  420MOL0     H55432   3.505   4.527  11.731 -2.2379 -2.5466 -0.4348
  420MOL0     H55433   3.575   4.581  11.895 -0.8329 -1.2025  3.0056
  420MOL0     H55434   3.511   4.296  11.910 -0.4795 -0.0279  2.5589
  420MOL0     H55435   3.653   4.399  11.959 -0.5468 -3.8530  1.0239
  420MOL0     H55436   3.708   4.224  11.805  0.6890 -0.6109 -0.8665
  420MOL0     H55437   3.615   4.308  11.676  0.5789  1.4163  0.7256
  420MOL0     H55438   3.944   4.563  11.686  0.2229 -0.1952 -1.5754
  420MOL0     H55439   3.163   4.570  11.691 -3.1513 -1.0915 -0.4992
  420MOL0     H55440   3.115   4.493  11.485 -1.5845 -0.0286  1.1769
  421MOL0     O55441   9.155   6.228   7.276 -0.3133  0.1460  0.1878
  421MOL0     C55442   9.140   6.147   7.183 -1.0083  0.2185  0.5649
  421MOL0     O55443   9.077   6.177   7.063 -0.2021 -0.5470  0.0085
  421MOL0     C55444   9.049   6.308   7.031  0.2157 -0.7692 -0.4847
  421MOL0     C55445   9.147   6.402   6.992 -1.1936  0.6079 -1.0473
  421MOL0     C55446   9.114   6.516   6.929  0.1997  0.5324  0.2594
  421MOL0     C55447   8.982   6.562   6.926  0.0415  0.3856 -0.2180
  421MOL0     O55448   8.955   6.684   6.871 -0.1521 -0.1114 -0.7722
  421MOL0     C55449   8.825   6.723   6.845  0.1885  0.1634 -0.5019
  421MOL0     C55450   8.815   6.865   6.798  1.0522 -0.3977 -0.4581
  421MOL0     C55451   8.663   6.894   6.787  0.3584 -0.3581 -0.1462
  421MOL0     C55452   8.638   7.038   6.742  0.7654  0.6154  0.7039
  421MOL0     C55453   8.486   7.042   6.695 -0.1706  0.5512 -0.8402
  421MOL0     C55454   8.457   7.162   6.598 -0.4806  0.1963 -0.0126
  421MOL0     C55455   8.480   7.293   6.677 -1.2682  0.9269 -0.3854
  421MOL0     C55456   8.439   7.412   6.597 -0.3728  0.5574 -0.2413
  421MOL0     N55457   8.296   7.423   6.598 -0.5489 -0.3475 -0.8168
  421MOL0     C55458   8.215   7.431   6.709  0.2549  0.6025 -0.6654
  421MOL0     C55459   8.089   7.409   6.658  0.0842  1.1099 -0.5732
  421MOL0     C55460   7.955   7.379   6.722  0.5084  1.1743  0.0776
  421MOL0     C55461   7.929   7.478   6.835 -0.1504  0.5083  0.0854
  421MOL0     C55462   7.782   7.476   6.870 -0.3803 -0.2805 -0.2312
  421MOL0     C55463   7.703   7.578   6.792 -0.5565 -0.8178 -0.8995
  421MOL0     O55464   7.700   7.705   6.873  0.1319 -0.2658  0.4862
  421MOL0     C55465   7.558   7.738   6.891  0.4856  0.1853 -0.2601
  421MOL0     C55466   7.546   7.792   7.021  0.4180  0.5753  1.3899
  421MOL0     C55467   7.415   7.829   7.063 -0.1916  0.6770 -0.0206
  421MOL0     C55468   7.314   7.842   6.974  0.9108  0.2404 -0.1970
  421MOL0     C55469   7.180   7.894   7.005 -0.4406  0.0633 -0.6851
  421MOL0     O55470   7.083   7.858   6.918  0.0603  0.3059 -0.0486
  421MOL0     C55471   6.945   7.879   6.952 -0.4880 -0.6480  0.0713
  421MOL0     C55472   6.883   7.850   7.073  0.2098  0.2990 -0.2794
  421MOL0     C55473   6.749   7.863   7.085 -0.3975 -1.2471  0.3671
  421MOL0     C55474   6.672   7.919   6.987  0.4021 -0.2882  0.0007
  421MOL0     O55475   6.531   7.928   6.994 -0.1724  0.0694 -0.5525
  421MOL0     C55476   6.452   7.819   6.950 -0.0653 -0.3527  0.7429
  421MOL0     C55477   6.320   7.890   6.933  0.0569 -0.5504  0.0143
  421MOL0     C55478   6.225   7.816   6.837  0.6065  0.2482 -0.5501
  421MOL0     C55479   6.187   7.676   6.869 -0.6318  0.4810 -0.3106
  421MOL0     C55480   6.042   7.636   6.831 -0.6496  0.5870 -0.0209
  421MOL0     C55481   5.921   7.712   6.897  0.2408 -0.0203 -0.8550
  421MOL0     C55482   5.913   7.688   7.056  0.0806  0.4750 -0.0607
  421MOL0     C55483   5.975   7.804   7.141  0.5416 -0.0077 -0.2805
  421MOL0    Cl55484   5.878   7.955   7.128 -0.1496  0.4436 -0.1113
  421MOL0     C55485   6.738   7.958   6.873  0.6628 -0.2540  0.1496
  421MOL0     C55486   6.866   7.929   6.851  0.2658 -0.3958  0.2559
  421MOL0     O55487   7.159   7.939   7.114  0.2319 -0.4671 -0.2317
  421MOL0     C55488   7.331   7.798   6.842  0.4484 -0.3748  0.0540
  421MOL0     C55489   7.455   7.749   6.800 -0.0157  0.4039  0.2937
  421MOL0     N55490   8.098   7.417   6.521  0.4824  0.1532 -0.0466
  421MOL0     N55491   8.224   7.421   6.484 -0.6467 -0.6037 -0.3560
  421MOL0     C55492   8.882   6.472   6.967  1.8214 -0.2100 -0.3128
  421MOL0     C55493   8.913   6.352   7.021  0.2927  0.3694  0.5796
  421MOL0     C55494   9.188   6.006   7.193  0.9780  0.0304 -0.3122
  421MOL0     C55495   9.133   5.916   7.108 -0.3673 -0.0778  0.1582
  421MOL0     C55496   9.196   5.791   7.100  0.4746  0.3857 -0.6575
  421MOL0     C55497   9.304   5.757   7.181  0.2829 -0.0215  0.3232
  421MOL0     O55498   9.361   5.633   7.156  0.1481 -0.1037 -0.5114
  421MOL0     C55499   9.500   5.619   7.206  0.6869 -1.1135  0.2657
  421MOL0     C55500   9.600   5.702   7.132  0.0318  0.2545  0.1467
  421MOL0     C55501   9.571   5.713   6.981 -0.1524  0.7459 -0.0758
  421MOL0     C55502   9.673   5.810   6.905  0.5379 -0.5100  0.5333
  421MOL0     C55503   9.690   5.783   6.763 -1.0379 -0.6359 -0.9521
  421MOL0     C55504   9.708   5.773   6.645  0.0595  0.0598  0.3761
  421MOL0     C55505   9.348   5.851   7.270  0.3299 -0.8039 -0.5325
  421MOL0     C55506   9.293   5.977   7.276 -1.4728 -0.5830 -0.6929
  421MOL0     H55507   9.246   6.359   6.999 -0.4947  2.3266  1.2452
  421MOL0     H55508   9.194   6.579   6.891 -1.3222  1.0063 -2.3603
  421MOL0     H55509   8.770   6.721   6.940  2.5237 -0.2440  0.9284
  421MOL0     H55510   8.784   6.655   6.770 -0.6292 -0.5928  0.5791
  421MOL0     H55511   8.841   6.877   6.692 -4.3208  2.9796 -1.7511
  421MOL0     H55512   8.868   6.947   6.847 -0.9800  1.9981 -2.0009
  421MOL0     H55513   8.614   6.879   6.884 -1.9798 -0.2529 -1.2301
  421MOL0     H55514   8.616   6.820   6.721  1.8779 -1.0123 -0.5480
  421MOL0     H55515   8.657   7.114   6.818  2.8820  1.6200 -0.7175
  421MOL0     H55516   8.707   7.070   6.663 -1.7025  0.9615 -1.4879
  421MOL0     H55517   8.419   7.049   6.780 -0.1110 -0.5060 -0.6899
  421MOL0     H55518   8.463   6.947   6.646  0.9050 -1.3950  2.1742
  421MOL0     H55519   8.353   7.168   6.563  0.5135  1.4734 -3.0595
  421MOL0     H55520   8.515   7.151   6.506 -2.8349 -0.0553 -1.5476
  421MOL0     H55521   8.421   7.291   6.770 -1.5741 -1.3475 -0.5741
  421MOL0     H55522   8.583   7.308   6.709 -0.0710 -2.1316 -2.3934
  421MOL0     H55523   8.464   7.388   6.493 -2.8969  1.0449 -1.0233
  421MOL0     H55524   8.495   7.503   6.624 -1.8892  0.6756  2.9012
  421MOL0     H55525   8.245   7.431   6.813  0.2756 -1.7964 -0.6086
  421MOL0     H55526   7.951   7.277   6.761 -1.5982  0.9665 -0.5574
  421MOL0     H55527   7.878   7.384   6.644  1.6755 -2.7637 -1.5918
  421MOL0     H55528   7.957   7.578   6.802  0.4345 -0.3859 -2.3200
  421MOL0     H55529   8.002   7.456   6.914  0.7741 -1.2202 -1.1731
  421MOL0     H55530   7.736   7.378   6.858 -2.1856 -0.1917  4.1250
  421MOL0     H55531   7.781   7.500   6.977  4.4958  1.9366 -0.4019
  421MOL0     H55532   7.607   7.525   6.789 -1.2071  0.2358  0.3962
  421MOL0     H55533   7.741   7.606   6.694 -0.0412  2.1094  0.0490
  421MOL0     H55534   7.637   7.797   7.080  0.2868  2.0549  1.5085
  421MOL0     H55535   7.409   7.861   7.167 -0.2503  0.1728  0.1349
  421MOL0     H55536   6.941   7.813   7.157  0.9272 -1.3587 -1.4516
  421MOL0     H55537   6.686   7.843   7.172 -3.0697 -0.0578 -1.1568
  421MOL0     H55538   6.440   7.757   7.039  1.6294 -2.8827 -0.6791
  421MOL0     H55539   6.483   7.749   6.873 -1.5917 -1.3897  1.0208
  421MOL0     H55540   6.338   7.989   6.890  0.2886  0.4835  2.3193
  421MOL0     H55541   6.273   7.900   7.031  1.3895 -0.7854  0.6972
  421MOL0     H55542   6.269   7.824   6.737 -1.3788 -3.0842 -1.8472
  421MOL0     H55543   6.137   7.880   6.827  1.0353  0.7188 -1.4432
  421MOL0     H55544   6.259   7.609   6.822  0.7126  0.6848  1.3410
  421MOL0     H55545   6.204   7.661   6.977 -1.0125  3.4862  0.2438
  421MOL0     H55546   6.029   7.527   6.836 -0.3705  0.4374 -1.9070
  421MOL0     H55547   6.026   7.662   6.726 -0.4769  1.6033  0.1958
  421MOL0     H55548   5.826   7.685   6.850  0.1758 -4.0464  1.1682
  421MOL0     H55549   5.942   7.819   6.901  0.2703 -0.0549  0.6491
  421MOL0     H55550   5.819   7.663   7.106  1.3564 -0.2233  2.1157
  421MOL0     H55551   5.976   7.601   7.073 -2.0010 -1.8475 -3.1164
  421MOL0     H55552   6.080   7.813   7.111  0.1116 -0.4164 -2.0855
  421MOL0     H55553   5.981   7.777   7.246  2.6411  3.4476  0.6475
  421MOL0     H55554   6.665   7.996   6.802  0.6748 -1.5931 -0.6060
  421MOL0     H55555   6.897   7.926   6.747 -1.2728 -0.9690 -0.2081
  421MOL0     H55556   7.242   7.788   6.780 -0.7754 -0.2091  1.7025
  421MOL0     H55557   7.462   7.707   6.700 -0.2710  0.3085  0.3137
  421MOL0     H55558   8.777   6.490   6.949  1.5341 -1.8451 -0.4744
  421MOL0     H55559   8.850   6.269   7.049  1.4254 -1.0723 -0.9205
  421MOL0     H55560   9.052   5.944   7.041  1.3526  1.3375 -1.4779
  421MOL0     H55561   9.165   5.714   7.029 -0.2095  0.5615 -0.5585
  421MOL0     H55562   9.522   5.512   7.203 -1.6343 -1.6217 -0.2136
  421MOL0     H55563   9.499   5.632   7.315 -1.1955 -2.1252  0.4015
  421MOL0     H55564   9.590   5.806   7.164  1.8882 -0.2962  2.8608
  421MOL0     H55565   9.704   5.677   7.154 -0.3797 -0.5520  1.2795
  421MOL0     H55566   9.467   5.745   6.965 -0.2117  1.8455  2.1577
  421MOL0     H55567   9.597   5.621   6.928  0.2513  2.5053 -3.1989
  421MOL0     H55568   9.638   5.913   6.915  1.0700 -0.4536  2.0701
  421MOL0     H55569   9.775   5.800   6.943 -0.1762  0.6289  2.9278
  421MOL0     H55570   9.723   5.762   6.539  1.1719  1.6988  0.3357
  421MOL0     H55571   9.426   5.825   7.341 -1.5078 -1.5833  1.2777
  421MOL0     H55572   9.341   6.055   7.336 -1.1599 -0.6100 -0.9044
  422MOL0     O55573   0.200  10.542   8.317 -0.6097 -0.0712  0.9382
  422MOL0     C55574   0.092  10.595   8.329  0.0481  0.2719 -0.1271
  422MOL0     O55575   0.068  10.729   8.325  0.7101 -0.6650  0.3135
  422MOL0     C55576   0.161  10.833   8.343  0.2655  0.4520  0.4701
  422MOL0     C55577   0.280  10.820   8.430  0.0176  0.2452  0.8158
  422MOL0     C55578   0.383  10.931   8.424  0.6419  0.4075 -0.3691
  422MOL0     C55579   0.356  11.054   8.375  0.0914 -0.9889  1.1506
  422MOL0     O55580   0.461  11.148   8.377 -0.4215  0.1434  0.1889
  422MOL0     C55581   0.449  11.250   8.280  0.4513 -0.7853 -1.0531
  422MOL0     C55582   0.591  11.301   8.249 -0.0015  0.7595  0.8397
  422MOL0     C55583   0.604  11.378   8.112  0.0439 -0.1853 -0.4260
  422MOL0     C55584   0.746  11.382   8.061 -0.8638  0.4158 -0.2624
  422MOL0     C55585   0.842  11.471   8.149  0.8210 -0.4161  0.2143
  422MOL0     C55586   0.792  11.615   8.193 -1.0357  0.0860  0.5507
  422MOL0     C55587   0.903  11.672   8.281 -0.0974  0.5222  0.5632
  422MOL0     C55588   0.917  11.597   8.422 -0.6750 -0.9049  0.4170
  422MOL0     N55589   0.792  11.606   8.495 -0.4958 -1.0253 -0.4175
  422MOL0     C55590   0.721  11.506   8.555 -0.1032  0.3734  0.0369
  422MOL0     C55591   0.643  11.567   8.652 -0.3121 -0.1452 -0.0256
  422MOL0     C55592   0.528  11.518   8.739 -0.1980  0.3728  0.6533
  422MOL0     C55593   0.438  11.408   8.675  0.9460  0.2129  0.1630
  422MOL0     C55594   0.329  11.348   8.760  0.1623 -0.3240  0.5254
  422MOL0     C55595   0.249  11.241   8.680  1.3296  0.4415  0.4700
  422MOL0     O55596   0.139  11.204   8.751  0.9135  0.2300  0.2812
  422MOL0     C55597   0.031  11.149   8.678  0.3489  0.0438  0.0018
  422MOL0     C55598  -0.100  11.197   8.719 -0.0286  0.4914 -0.6174
  422MOL0     C55599  -0.210  11.156   8.652  0.3624 -0.8983 -0.2061
  422MOL0     C55600  -0.198  11.047   8.563  0.8799  0.4541  0.2142
  422MOL0     C55601  -0.317  10.975   8.513 -0.4533  0.4736  0.3903
  422MOL0     O55602  -0.430  11.010   8.576 -0.0767 -0.2075  0.1770
  422MOL0     C55603  -0.542  10.931   8.571  0.2797 -0.0148 -0.5401
  422MOL0     C55604  -0.584  10.842   8.470  0.2616  0.0203 -0.6169
  422MOL0     C55605  -0.691  10.763   8.491 -0.1480  0.0690  0.9253
  422MOL0     C55606  -0.763  10.750   8.605  0.3502  0.1600 -0.1700
  422MOL0     O55607  -0.858  10.657   8.598  0.4280 -0.6843  0.2485
  422MOL0     C55608  -0.966  10.683   8.686  0.8263  0.5867  0.4657
  422MOL0     C55609  -1.085  10.598   8.653 -0.0126  0.0516 -0.5295
  422MOL0     C55610  -1.164  10.649   8.535  0.5209  0.3207 -0.2017
  422MOL0     C55611  -1.301  10.575   8.508  0.0720 -0.7491  0.7692
  422MOL0     C55612  -1.406  10.641   8.414 -0.9683 -0.2879  0.1848
  422MOL0     C55613  -1.526  10.547   8.410  0.2986  0.0640 -0.2475
  422MOL0     C55614  -1.642  10.593   8.324  1.5911  0.1548  0.9782
  422MOL0     C55615  -1.720  10.503   8.232 -0.1413  0.6838  0.6660
  422MOL0    Cl55616  -1.837  10.396   8.331 -0.4678  0.2274  0.2325
  422MOL0     C55617  -0.725  10.826   8.715 -0.9147  0.2451 -0.2634
  422MOL0     C55618  -0.620  10.923   8.694 -0.2339 -0.3580 -0.4289
  422MOL0     O55619  -0.301  10.884   8.432  0.8077 -0.3800 -0.0507
  422MOL0     C55620  -0.071  10.994   8.529  0.1351 -0.5339  0.1272
  422MOL0     C55621   0.038  11.051   8.579 -1.4206 -0.2569 -0.2965
  422MOL0     N55622   0.663  11.702   8.641 -0.3877 -0.2778 -0.7525
  422MOL0     N55623   0.762  11.720   8.563  0.4815  0.3456  0.0850
  422MOL0     C55624   0.229  11.073   8.307 -0.2949  0.6499  0.2299
  422MOL0     C55625   0.142  10.965   8.284 -0.3946  0.0815 -0.1572
  422MOL0     C55626  -0.026  10.501   8.344  0.6056 -0.0618 -0.4428
  422MOL0     C55627  -0.161  10.543   8.343 -0.2277  0.3256  0.5647
  422MOL0     C55628  -0.270  10.452   8.341  0.8558 -0.0259 -0.2671
  422MOL0     C55629  -0.251  10.321   8.374  0.0050  0.3075 -0.3396
  422MOL0     O55630  -0.357  10.232   8.405  0.1172 -0.5528  0.5622
  422MOL0     C55631  -0.493  10.290   8.416 -0.9688  0.4502  0.6051
  422MOL0     C55632  -0.588  10.182   8.458  1.0307  1.1107 -1.2813
  422MOL0     C55633  -0.734  10.228   8.427 -0.2119  0.6631 -0.8109
  422MOL0     C55634  -0.836  10.149   8.505  0.0605 -0.0045 -0.8298
  422MOL0     C55635  -0.976  10.177   8.476  0.3972  0.2322 -0.3073
  422MOL0     C55636  -1.089  10.177   8.436  0.3727 -0.1230  0.6375
  422MOL0     C55637  -0.122  10.276   8.395  0.6986 -0.3701  0.9070
  422MOL0     C55638  -0.012  10.361   8.370  0.3024  0.8226  0.7913
  422MOL0     H55639   0.308  10.725   8.473  0.5216  0.3158  0.6515
  422MOL0     H55640   0.481  10.919   8.470  0.6547 -1.9745 -0.8958
  422MOL0     H55641   0.379  11.331   8.304  0.5296 -0.3491 -2.2006
  422MOL0     H55642   0.394  11.218   8.190  0.1705 -0.5640 -0.9637
  422MOL0     H55643   0.652  11.210   8.249 -2.1970 -0.7727  1.2694
  422MOL0     H55644   0.622  11.361   8.335 -3.9479  1.2440  2.0989
  422MOL0     H55645   0.572  11.482   8.118  0.8180  0.0139  0.5594
  422MOL0     H55646   0.546  11.319   8.040 -0.7072 -2.5913  1.9871
  422MOL0     H55647   0.801  11.288   8.055 -1.6993 -0.2120  1.3447
  422MOL0     H55648   0.747  11.416   7.957 -0.2692  3.0510  0.5289
  422MOL0     H55649   0.936  11.476   8.094  0.7904 -1.3719  0.0614
  422MOL0     H55650   0.863  11.418   8.242 -0.1124  0.0816  0.7246
  422MOL0     H55651   0.693  11.609   8.239 -2.2358  1.8417 -1.6118
  422MOL0     H55652   0.777  11.678   8.105  1.0427 -0.2093 -0.0545
  422MOL0     H55653   0.998  11.679   8.227  0.8270  3.0660  2.3216
  422MOL0     H55654   0.881  11.778   8.296 -4.3451 -0.2143  0.5144
  422MOL0     H55655   0.994  11.655   8.474  2.5516 -1.6667 -3.0860
  422MOL0     H55656   0.962  11.497   8.417  2.9994  0.6399 -3.0750
  422MOL0     H55657   0.724  11.399   8.534 -1.8460  0.3114 -0.1047
  422MOL0     H55658   0.479  11.614   8.758 -0.6051  0.5013 -0.8994
  422MOL0     H55659   0.575  11.462   8.820  0.8685  2.4971  1.5732
  422MOL0     H55660   0.496  11.323   8.637 -2.2325 -1.7606 -0.6513
  422MOL0     H55661   0.391  11.449   8.585  0.5325  0.3460  0.4343
  422MOL0     H55662   0.377  11.300   8.846 -3.3333  1.3184  3.6504
  422MOL0     H55663   0.270  11.434   8.794 -1.5701 -2.5798  3.6698
  422MOL0     H55664   0.302  11.148   8.662 -1.5573 -1.1338 -0.6257
  422MOL0     H55665   0.224  11.292   8.587  1.9093 -0.7857 -0.3700
  422MOL0     H55666  -0.131  11.279   8.782 -3.7063 -2.1967  1.4529
  422MOL0     H55667  -0.308  11.198   8.674  0.1395 -0.9744 -1.0010
  422MOL0     H55668  -0.535  10.826   8.374  1.4396 -1.7973  0.2325
  422MOL0     H55669  -0.727  10.694   8.416  1.8505 -1.8812  1.6611
  422MOL0     H55670  -1.004  10.785   8.692 -1.9021 -0.4153  2.3927
  422MOL0     H55671  -0.924  10.665   8.785  0.4714  0.1811  0.5477
  422MOL0     H55672  -1.152  10.598   8.739 -0.0417 -2.7055 -0.4505
  422MOL0     H55673  -1.035  10.501   8.641  0.8059  0.5938 -1.6278
  422MOL0     H55674  -1.105  10.645   8.443 -0.0240 -1.6242 -0.4960
  422MOL0     H55675  -1.183  10.755   8.555 -2.3942  0.1886 -1.7438
  422MOL0     H55676  -1.291  10.475   8.465  1.9102 -1.2666  2.2805
  422MOL0     H55677  -1.349  10.557   8.604 -0.1073 -1.0258  0.6279
  422MOL0     H55678  -1.370  10.643   8.311 -1.0925 -3.6020 -0.0311
  422MOL0     H55679  -1.421  10.742   8.453 -0.0935  0.5359 -1.4871
  422MOL0     H55680  -1.566  10.526   8.510 -3.1088  1.2629 -1.2115
  422MOL0     H55681  -1.481  10.458   8.364 -1.6378 -0.6535 -0.8394
  422MOL0     H55682  -1.722  10.632   8.388  0.9080 -0.1143  0.2998
  422MOL0     H55683  -1.612  10.677   8.261 -3.5494  1.4222 -0.2114
  422MOL0     H55684  -1.647  10.433   8.191  1.2023  0.8398  2.6620
  422MOL0     H55685  -1.776  10.551   8.152  1.1789  0.0562 -0.6810
  422MOL0     H55686  -0.766  10.818   8.815 -0.7064 -3.9629 -0.3200
  422MOL0     H55687  -0.586  10.973   8.784  0.9936 -1.3939 -0.2982
  422MOL0     H55688  -0.054  10.915   8.456 -0.8277 -2.0688  1.5184
  422MOL0     H55689   0.136  11.023   8.541 -1.4678 -1.3306  0.3374
  422MOL0     H55690   0.208  11.177   8.281  1.4559  0.8004 -0.6847
  422MOL0     H55691   0.053  10.975   8.223 -0.3821  0.5302 -0.1073
  422MOL0     H55692  -0.183  10.648   8.326 -1.2194  0.0637  0.1688
  422MOL0     H55693  -0.369  10.496   8.326  1.3212  0.9548 -0.5380
  422MOL0     H55694  -0.533  10.327   8.322 -3.9971 -0.6064  1.3352
  422MOL0     H55695  -0.493  10.362   8.498 -2.2458 -3.0092  3.9977
  422MOL0     H55696  -0.577  10.085   8.409 -0.3452  0.0673  0.3559
  422MOL0     H55697  -0.576  10.172   8.567 -0.4019 -0.8570 -1.2512
  422MOL0     H55698  -0.761  10.222   8.321  0.2804  2.3280 -1.0501
  422MOL0     H55699  -0.739  10.335   8.445  0.8156  1.5543 -4.7594
  422MOL0     H55700  -0.816  10.045   8.480 -0.7999 -0.5355  0.5453
  422MOL0     H55701  -0.829  10.156   8.614 -3.1590 -0.3102 -0.4980
  422MOL0     H55702  -1.190  10.172   8.398 -0.3151  0.1220  2.3327
  422MOL0     H55703  -0.093  10.176   8.426  1.8405 -0.9382 -1.7276
  422MOL0     H55704   0.086  10.319   8.391 -0.0108 -0.4116 -0.1363
  423MOL0     O55705   3.984   8.915  10.564  0.4445  0.0809 -0.1203
  423MOL0     C55706   4.058   8.821  10.573 -0.1130  0.3428  0.7965
  423MOL0     O55707   4.024   8.701  10.622 -0.5101 -0.4879  0.4590
  423MOL0     C55708   3.887   8.679  10.639  0.0331  0.1824 -1.0500
  423MOL0     C55709   3.845   8.551  10.599  0.3846 -0.1626  0.5587
  423MOL0     C55710   3.710   8.518  10.594  0.4934 -0.0839 -1.2522
  423MOL0     C55711   3.607   8.612  10.641  0.3107  0.8584  1.0826
  423MOL0     O55712   3.475   8.605  10.625 -0.2614  0.5549 -0.1886
  423MOL0     C55713   3.409   8.481  10.601 -0.3544 -0.1052  0.8329
  423MOL0     C55714   3.386   8.404  10.732 -0.2160  0.3939  0.2060
  423MOL0     C55715   3.243   8.420  10.791 -0.0135  0.2171 -0.1081
  423MOL0     C55716   3.180   8.561  10.808  0.0557  0.3067  0.5033
  423MOL0     C55717   3.072   8.549  10.916 -0.0087 -0.4014  0.5892
  423MOL0     C55718   2.962   8.657  10.906 -0.9821  0.1818 -1.0927
  423MOL0     C55719   2.866   8.653  11.030 -0.3181 -0.1118 -0.5398
  423MOL0     C55720   2.922   8.717  11.162 -0.3344 -0.3157  0.1941
  423MOL0     N55721   2.822   8.671  11.269 -0.3703 -0.5364  0.7348
  423MOL0     C55722   2.819   8.546  11.332 -0.0268 -0.4417  0.5321
  423MOL0     C55723   2.688   8.527  11.374  0.1189 -0.3663  0.3392
  423MOL0     C55724   2.614   8.418  11.439  0.3173  0.2578 -0.0383
  423MOL0     C55725   2.694   8.341  11.541  0.3939  0.3519 -0.6652
  423MOL0     C55726   2.615   8.249  11.629 -0.6860 -0.2506  0.4438
  423MOL0     C55727   2.717   8.174  11.730  0.2582 -1.1079 -0.5153
  423MOL0     O55728   2.644   8.075  11.799  0.8535  0.9421  0.9560
  423MOL0     C55729   2.695   7.994  11.890  0.2475  0.4731 -0.3055
  423MOL0     C55730   2.835   7.976  11.924  1.2816 -0.1505  0.1553
  423MOL0     C55731   2.876   7.882  12.018 -0.3528 -0.4404 -0.4966
  423MOL0     C55732   2.780   7.795  12.082  0.6060 -0.6261  0.1525
  423MOL0     C55733   2.821   7.698  12.185  0.1018  0.5144  0.3443
  423MOL0     O55734   2.733   7.674  12.281  0.1379 -0.5857 -0.4804
  423MOL0     C55735   2.755   7.586  12.389 -0.1163  0.6575 -0.2886
  423MOL0     C55736   2.847   7.479  12.399  0.8351  0.0367  1.0189
  423MOL0     C55737   2.852   7.401  12.511  0.0348  0.9190 -0.4583
  423MOL0     C55738   2.773   7.427  12.622  0.2835 -0.0687 -0.6374
  423MOL0     O55739   2.775   7.354  12.738 -0.6177  0.0403 -0.0679
  423MOL0     C55740   2.652   7.318  12.810 -0.5773 -0.4009  0.1471
  423MOL0     C55741   2.666   7.353  12.965 -0.3919  0.1487 -0.1634
  423MOL0     C55742   2.792   7.302  13.035  0.1824 -1.2410 -0.5915
  423MOL0     C55743   2.787   7.152  13.063  0.2309 -0.6157  0.8571
  423MOL0     C55744   2.927   7.094  13.104 -0.6274  0.3677 -0.7380
  423MOL0     C55745   2.917   6.984  13.209  0.8364  0.3840  0.0898
  423MOL0     C55746   3.017   6.965  13.326  1.2733 -0.5527  0.4342
  423MOL0     C55747   3.041   7.097  13.408 -0.2967  0.2968 -0.4324
  423MOL0    Cl55748   3.138   7.071  13.551 -0.5998 -0.0931 -0.4896
  423MOL0     C55749   2.683   7.532  12.614  0.6710 -0.5464  0.4367
  423MOL0     C55750   2.670   7.605  12.500  0.2860 -1.1527 -0.7456
  423MOL0     O55751   2.936   7.640  12.169 -0.3650 -0.8516  0.7395
  423MOL0     C55752   2.647   7.801  12.044  0.2921 -0.1067  0.4437
  423MOL0     C55753   2.606   7.895  11.946 -0.0842  0.0163 -0.9064
  423MOL0     N55754   2.625   8.648  11.330 -0.2438  0.5835 -0.7718
  423MOL0     N55755   2.703   8.734  11.279 -0.2309 -0.2952  0.3144
  423MOL0     C55756   3.659   8.731  10.705  0.5221  1.1940  0.4652
  423MOL0     C55757   3.793   8.764  10.704 -0.3862  0.0710 -0.6958
  423MOL0     C55758   4.206   8.839  10.547  1.1115 -0.0730 -0.4682
  423MOL0     C55759   4.257   8.970  10.550 -0.3733 -0.6786  1.4370
  423MOL0     C55760   4.397   9.000  10.548  0.6247 -1.3618  0.6819
  423MOL0     C55761   4.486   8.900  10.545  0.3448 -0.2181 -0.2257
  423MOL0     O55762   4.612   8.918  10.514  0.6052  0.5568  0.0690
  423MOL0     C55763   4.678   8.839  10.405  0.4987 -0.2287 -1.0318
  423MOL0     C55764   4.608   8.856  10.280  0.1621  0.7014 -0.1912
  423MOL0     C55765   4.661   8.772  10.162 -0.3318 -0.3256  0.4081
  423MOL0     C55766   4.805   8.800  10.113  0.3382 -0.0054 -0.5293
  423MOL0     C55767   4.870   8.698  10.036 -0.5553  0.1344  0.0584
  423MOL0     C55768   4.910   8.610   9.970  0.5351  0.0096 -0.1787
  423MOL0     C55769   4.436   8.765  10.559  0.5089 -0.1590  0.1833
  423MOL0     C55770   4.300   8.740  10.562 -0.4882 -0.2483  0.2310
  423MOL0     H55771   3.915   8.483  10.552  0.2248  0.9994 -1.5193
  423MOL0     H55772   3.689   8.419  10.554  1.4923 -0.6137 -0.4979
  423MOL0     H55773   3.460   8.422  10.525  1.9745 -1.0808  2.9865
  423MOL0     H55774   3.316   8.499  10.546 -0.5335 -1.5219  0.6370
  423MOL0     H55775   3.462   8.435  10.805 -0.2586  0.2317  0.3188
  423MOL0     H55776   3.405   8.297  10.719  1.4419  0.4610  1.6005
  423MOL0     H55777   3.262   8.373  10.888  1.4811 -0.6581 -0.7861
  423MOL0     H55778   3.169   8.355  10.744 -0.8297  0.9683  0.1112
  423MOL0     H55779   3.263   8.627  10.836  2.0433 -0.6693 -2.5612
  423MOL0     H55780   3.144   8.594  10.710 -0.0228 -0.0828  0.3983
  423MOL0     H55781   3.122   8.563  11.012 -1.3770 -3.7429  1.9077
  423MOL0     H55782   3.037   8.446  10.921  1.9021 -1.0336  2.4369
  423MOL0     H55783   2.913   8.630  10.811 -1.2956 -3.6935 -0.0114
  423MOL0     H55784   3.003   8.758  10.908 -1.1946  0.2691  1.3949
  423MOL0     H55785   2.782   8.718  11.003  0.0092  1.8964  2.8145
  423MOL0     H55786   2.834   8.549  11.041 -2.0008  0.5405  1.2366
  423MOL0     H55787   2.921   8.826  11.165 -1.2194 -0.3185  0.5355
  423MOL0     H55788   3.021   8.679  11.190 -1.5946 -2.3139  2.3731
  423MOL0     H55789   2.896   8.470  11.346 -1.3769 -2.4459 -2.1626
  423MOL0     H55790   2.568   8.351  11.365  1.3612 -0.9408  0.3661
  423MOL0     H55791   2.533   8.472  11.489  2.1191  1.7497  1.4151
  423MOL0     H55792   2.750   8.407  11.608 -1.6343 -0.6704  2.2269
  423MOL0     H55793   2.763   8.270  11.493  0.4235  0.5428 -0.9073
  423MOL0     H55794   2.546   8.313  11.685 -2.4879  0.7009 -2.6182
  423MOL0     H55795   2.551   8.182  11.571 -0.9706 -0.2689  0.7725
  423MOL0     H55796   2.770   8.240  11.800  0.2401 -0.4927 -1.0742
  423MOL0     H55797   2.788   8.129  11.659  2.0031  0.4528  0.1491
  423MOL0     H55798   2.907   8.044  11.881 -1.6502  2.2489 -1.3546
  423MOL0     H55799   2.978   7.872  12.054 -0.7418  1.4972  1.3855
  423MOL0     H55800   2.910   7.441  12.319 -0.9479 -0.8458 -0.0246
  423MOL0     H55801   2.909   7.311  12.530  1.7610  1.7356 -1.5076
  423MOL0     H55802   2.637   7.210  12.809 -0.6839 -0.3868 -1.5416
  423MOL0     H55803   2.559   7.357  12.767 -0.8307 -3.0448 -1.9090
  423MOL0     H55804   2.578   7.316  13.017  1.1857 -1.5980  1.4065
  423MOL0     H55805   2.664   7.463  12.969 -1.2296  0.0891  1.9059
  423MOL0     H55806   2.808   7.349  13.132 -1.1855  1.3327 -1.5289
  423MOL0     H55807   2.878   7.318  12.970 -0.0890 -1.1558 -0.9318
  423MOL0     H55808   2.700   7.136  13.127  0.8488 -2.3023  1.3265
  423MOL0     H55809   2.759   7.098  12.971 -0.2235 -0.4659  0.9060
  423MOL0     H55810   2.981   7.178  13.149 -0.2768 -0.6763  0.8860
  423MOL0     H55811   2.993   7.067  13.022 -0.4356  1.1733 -0.8598
  423MOL0     H55812   2.933   6.893  13.150  1.4422  0.8929 -0.5480
  423MOL0     H55813   2.812   6.995  13.237  0.4293  1.2825 -1.6216
  423MOL0     H55814   2.978   6.886  13.390 -0.2370 -1.1481 -1.1348
  423MOL0     H55815   3.117   6.933  13.296  1.2199 -1.4449  1.1688
  423MOL0     H55816   2.950   7.156  13.424 -2.7921 -3.5502  0.9282
  423MOL0     H55817   3.109   7.148  13.339  1.5325  0.4899  1.4222
  423MOL0     H55818   2.606   7.544  12.690 -1.3063 -2.5725 -1.1337
  423MOL0     H55819   2.591   7.680  12.500 -0.0219 -1.4654  0.1973
  423MOL0     H55820   2.568   7.736  12.082 -1.5563  0.9990 -1.3179
  423MOL0     H55821   2.502   7.891  11.916 -0.1942  0.2539 -0.5669
  423MOL0     H55822   3.578   8.798  10.736  0.1063  0.2508  1.4672
  423MOL0     H55823   3.831   8.848  10.762  0.2634 -1.3810  1.0920
  423MOL0     H55824   4.185   9.051  10.565  0.3040 -0.2079  2.2660
  423MOL0     H55825   4.420   9.106  10.547 -0.5580 -1.0717 -1.1140
  423MOL0     H55826   4.694   8.736  10.436 -0.2649 -0.7365 -2.2279
  423MOL0     H55827   4.777   8.877  10.380 -0.0862  0.0419 -3.2260
  423MOL0     H55828   4.511   8.812  10.301 -0.3096  2.3765  1.4321
  423MOL0     H55829   4.601   8.965  10.265  1.1732  0.7405 -0.4807
  423MOL0     H55830   4.588   8.784  10.082  0.5952 -2.9723 -0.9593
  423MOL0     H55831   4.666   8.667  10.194  1.2467 -0.8553 -1.4254
  423MOL0     H55832   4.808   8.894  10.059  1.6097  0.3427  0.1083
  423MOL0     H55833   4.869   8.807  10.202  0.3121 -2.8807 -0.1751
  423MOL0     H55834   4.954   8.526   9.919  2.7221 -0.1333  1.7694
  423MOL0     H55835   4.510   8.686  10.550  0.5958 -0.0584  0.0087
  423MOL0     H55836   4.272   8.637  10.577  1.4256 -1.1561 -1.7788
  424MOL0     O55837   9.057   7.523  10.108 -0.4543  0.4045  0.4575
  424MOL0     C55838   9.158   7.448  10.118  0.6061 -0.0191  0.3307
  424MOL0     O55839   9.156   7.315  10.161  0.3525 -0.0265 -0.4879
  424MOL0     C55840   9.037   7.239  10.154  0.6026  0.0759 -0.0540
  424MOL0     C55841   9.008   7.162  10.260 -0.1054 -0.7445 -0.3303
  424MOL0     C55842   8.902   7.077  10.264  0.3486 -1.0104 -0.5149
  424MOL0     C55843   8.818   7.082  10.155 -0.2161  0.8459 -1.2958
  424MOL0     O55844   8.714   6.993  10.167  0.2807  0.5258 -0.0373
  424MOL0     C55845   8.629   6.965  10.054  0.1167  1.0935 -0.8464
  424MOL0     C55846   8.704   6.868   9.963  0.0840  0.3128  0.5750
  424MOL0     C55847   8.605   6.807   9.864 -0.3715  0.0766 -0.1363
  424MOL0     C55848   8.684   6.716   9.772  0.2363 -0.2746 -0.9375
  424MOL0     C55849   8.717   6.583   9.840  0.5669 -0.0536 -0.1381
  424MOL0     C55850   8.607   6.494   9.897 -0.3787 -0.0019  0.4946
  424MOL0     C55851   8.650   6.348   9.898  0.1477  0.8238  0.5620
  424MOL0     C55852   8.530   6.250   9.891 -0.2918 -0.5208  0.0765
  424MOL0     N55853   8.447   6.242  10.010 -1.2990  0.1894  0.4317
  424MOL0     C55854   8.316   6.266  10.025 -0.3028  0.4707 -0.4484
  424MOL0     C55855   8.267   6.195  10.133 -0.0664 -0.2412  0.0325
  424MOL0     C55856   8.118   6.184  10.182 -0.6950  0.6079  0.8704
  424MOL0     C55857   8.140   6.143  10.329 -0.2346  0.3321 -0.9377
  424MOL0     C55858   8.188   6.255  10.419  0.0550 -0.7626 -0.1865
  424MOL0     C55859   8.332   6.288  10.437  0.6138 -0.5484 -0.1190
  424MOL0     O55860   8.363   6.384  10.543  0.8035 -0.0064  0.4023
  424MOL0     C55861   8.484   6.455  10.531  0.0406 -0.2007 -0.5004
  424MOL0     C55862   8.571   6.438  10.431 -0.7620  0.0040 -0.2070
  424MOL0     C55863   8.692   6.501  10.437 -0.3312  0.2597 -0.2886
  424MOL0     C55864   8.738   6.572  10.551  0.3028  1.0808 -0.1867
  424MOL0     C55865   8.866   6.634  10.553 -0.1999 -0.9623 -0.6309
  424MOL0     O55866   8.944   6.630  10.437  0.1039 -0.3219  0.1122
  424MOL0     C55867   9.059   6.697  10.434 -0.6855 -0.5261 -0.6569
  424MOL0     C55868   9.078   6.801  10.337  1.0627 -0.0611  0.3907
  424MOL0     C55869   9.192   6.884  10.339 -0.4219 -0.1369 -0.3543
  424MOL0     C55870   9.304   6.858  10.420 -0.0321 -0.2588 -0.8836
  424MOL0     O55871   9.413   6.935  10.426 -0.2558  0.4347  0.2470
  424MOL0     C55872   9.457   6.989  10.299  0.1160 -1.2136 -0.0081
  424MOL0     C55873   9.587   7.058  10.326  0.2342 -0.2139 -0.1452
  424MOL0     C55874   9.689   6.960  10.374 -0.2728  0.3973 -0.8106
  424MOL0     C55875   9.811   7.027  10.441 -0.1063  0.5025  0.3266
  424MOL0     C55876   9.887   7.122  10.354  0.4861 -0.7507 -0.5391
  424MOL0     C55877   9.988   7.213  10.421 -0.3723 -0.2485 -0.2501
  424MOL0     C55878  10.082   7.275  10.325 -0.3001 -0.9013 -1.1823
  424MOL0     C55879  10.094   7.421  10.370 -0.5315 -0.1346  0.8332
  424MOL0    Cl55880  10.183   7.515  10.241 -0.3040  0.3968 -0.5399
  424MOL0     C55881   9.293   6.755  10.510  0.3015  0.4962  0.0331
  424MOL0     C55882   9.179   6.672  10.516  0.1741 -0.6412  0.4921
  424MOL0     O55883   8.896   6.698  10.655 -0.0145 -0.0869 -0.0410
  424MOL0     C55884   8.647   6.596  10.653  0.4758  0.3506  0.1462
  424MOL0     C55885   8.525   6.536  10.645  0.7547  0.3157 -0.3645
  424MOL0     N55886   8.369   6.115  10.167 -0.8831 -0.0304 -0.5954
  424MOL0     N55887   8.475   6.134  10.092  0.3261  0.3814  0.0672
  424MOL0     C55888   8.849   7.148  10.038  1.1437  0.0629 -0.6363
  424MOL0     C55889   8.956   7.235  10.040 -1.6761 -1.1175  0.6722
  424MOL0     C55890   9.287   7.518  10.104  0.5700  0.6566  0.5152
  424MOL0     C55891   9.299   7.650  10.055  0.0243  0.0734  0.0296
  424MOL0     C55892   9.428   7.711  10.047 -0.4230  1.2378 -1.1572
  424MOL0     C55893   9.547   7.655  10.093  0.4949  0.2790 -0.4395
  424MOL0     O55894   9.667   7.710  10.050 -0.1935  0.0642 -0.4295
  424MOL0     C55895   9.768   7.703  10.152 -0.9542 -0.6934  0.3076
  424MOL0     C55896   9.891   7.777  10.099 -0.1431 -0.8721 -0.1493
  424MOL0     C55897   9.851   7.917  10.048  0.4479  0.7695  0.0152
  424MOL0     C55898   9.928   8.025  10.091 -0.7007  0.2918 -1.8490
  424MOL0     C55899   9.936   8.024  10.240  0.8285 -0.1991 -0.1731
  424MOL0     C55900   9.938   8.024  10.365 -0.8408  1.4318  0.4835
  424MOL0     C55901   9.532   7.524  10.155 -0.2346  0.4916 -0.2160
  424MOL0     C55902   9.404   7.461  10.159  0.4860 -0.1389  0.1858
  424MOL0     H55903   9.072   7.184  10.345  1.3199 -2.7679 -0.8179
  424MOL0     H55904   8.875   7.012  10.347 -1.7129 -1.1943 -1.2659
  424MOL0     H55905   8.584   7.052  10.005 -3.4396 -0.7073 -1.0522
  424MOL0     H55906   8.548   6.905  10.096  0.7069  1.8283  1.5310
  424MOL0     H55907   8.759   6.799  10.028  1.7480  3.2397  2.5101
  424MOL0     H55908   8.782   6.927   9.915  0.1767  2.4241  3.1081
  424MOL0     H55909   8.548   6.885   9.812 -4.1279 -1.4243  1.4141
  424MOL0     H55910   8.534   6.748   9.922 -2.2141 -1.4626 -3.6628
  424MOL0     H55911   8.620   6.694   9.686 -0.9935 -0.9102  0.1022
  424MOL0     H55912   8.776   6.764   9.737  0.0473  2.9783  2.3360
  424MOL0     H55913   8.783   6.616   9.921  1.0448 -2.3244  0.4778
  424MOL0     H55914   8.776   6.529   9.765 -0.6205  0.8952 -1.8204
  424MOL0     H55915   8.515   6.495   9.838 -0.3970 -1.2667  0.4577
  424MOL0     H55916   8.584   6.523  10.000 -1.3163 -0.2134  0.3568
  424MOL0     H55917   8.722   6.339   9.816  1.3164  0.6174  1.5956
  424MOL0     H55918   8.720   6.321   9.977  1.5820 -1.8153 -1.4741
  424MOL0     H55919   8.567   6.151   9.862  3.3602  1.0166 -1.2266
  424MOL0     H55920   8.482   6.283   9.799  2.3515  2.1408 -0.5249
  424MOL0     H55921   8.249   6.323   9.960 -2.3430 -0.7650  0.4623
  424MOL0     H55922   8.071   6.102  10.126 -1.0689  0.9129  0.7373
  424MOL0     H55923   8.061   6.276  10.170  1.1276  1.4640 -2.2986
  424MOL0     H55924   8.201   6.053  10.342 -0.7189  0.3698  2.9209
  424MOL0     H55925   8.043   6.105  10.365 -0.7316 -1.1250 -3.5273
  424MOL0     H55926   8.154   6.352  10.383  2.7264  0.1910 -0.3484
  424MOL0     H55927   8.145   6.232  10.517 -0.4924 -1.1068 -0.5027
  424MOL0     H55928   8.365   6.332  10.343 -1.2579 -2.7378 -1.9283
  424MOL0     H55929   8.385   6.195  10.462  2.9424  0.9244  0.7835
  424MOL0     H55930   8.567   6.383  10.338 -1.6241  2.1399 -1.5002
  424MOL0     H55931   8.768   6.479  10.363  1.3316  2.3200  0.7154
  424MOL0     H55932   9.007   6.829  10.261 -0.1798 -0.7939  1.2365
  424MOL0     H55933   9.195   6.971  10.274 -0.8102  0.3359  0.2458
  424MOL0     H55934   9.392   7.068  10.261  3.8308  0.1886 -4.2824
  424MOL0     H55935   9.456   6.907  10.226 -2.3155 -1.2450 -0.0246
  424MOL0     H55936   9.577   7.137  10.401  2.8442  0.5481 -0.4875
  424MOL0     H55937   9.604   7.103  10.228 -3.2480 -1.4945 -1.4853
  424MOL0     H55938   9.719   6.899  10.289 -2.4896 -3.0202  0.6362
  424MOL0     H55939   9.652   6.896  10.455  0.2880 -0.1866 -1.0074
  424MOL0     H55940   9.765   7.083  10.523 -0.7222 -2.0722  1.8277
  424MOL0     H55941   9.878   6.952  10.484 -1.9372 -0.8254  0.9957
  424MOL0     H55942   9.822   7.182  10.290 -1.8740  0.9448  3.0854
  424MOL0     H55943   9.953   7.057  10.296 -0.1873 -3.4758  1.5110
  424MOL0     H55944  10.052   7.162  10.493  1.0006 -0.2588 -1.4288
  424MOL0     H55945   9.927   7.284  10.477  1.5319  3.3490 -2.3914
  424MOL0     H55946  10.182   7.230  10.320 -0.6479 -1.6003 -1.9891
  424MOL0     H55947  10.032   7.262  10.229 -1.1018 -1.4013 -0.7117
  424MOL0     H55948  10.151   7.427  10.463  0.0082  2.4211  0.4210
  424MOL0     H55949   9.996   7.470  10.370 -1.0561 -1.1365 -0.0415
  424MOL0     H55950   9.361   6.734  10.593 -1.3585  0.0914  1.3366
  424MOL0     H55951   9.170   6.594  10.591  2.5998  0.5494  2.1477
  424MOL0     H55952   8.669   6.640  10.750 -2.9625 -0.3866  1.3850
  424MOL0     H55953   8.467   6.549  10.736  0.9168 -1.5481  0.0364
  424MOL0     H55954   8.780   7.143   9.954 -0.5367  1.7911  0.5585
  424MOL0     H55955   8.982   7.297   9.954 -0.6324 -1.8866  0.4038
  424MOL0     H55956   9.217   7.717  10.031 -0.5698 -0.1938  1.2110
  424MOL0     H55957   9.431   7.805   9.992 -1.9239  2.6340  0.9745
  424MOL0     H55958   9.791   7.599  10.178 -2.4400 -0.4238  2.9755
  424MOL0     H55959   9.750   7.757  10.245  2.0097  4.0029 -1.4624
  424MOL0     H55960   9.965   7.786  10.180  0.2244 -0.1313 -0.5554
  424MOL0     H55961   9.929   7.715  10.018 -3.0657 -4.1661  0.7782
  424MOL0     H55962   9.748   7.950  10.066  0.2763  0.1467  0.1937
  424MOL0     H55963   9.858   7.909   9.939  2.4828  1.4446  0.0625
  424MOL0     H55964  10.031   8.022  10.056  0.4238 -1.9626  1.1522
  424MOL0     H55965   9.878   8.113  10.050 -2.2104  0.8772  0.9764
  424MOL0     H55966   9.948   8.021  10.472  3.1914 -0.8782  0.2480
  424MOL0     H55967   9.610   7.471  10.208 -1.1591  1.1153  1.8765
  424MOL0     H55968   9.395   7.363  10.204 -1.8434 -0.1302 -0.1106
  425MOL0     O55969   3.438   1.170   5.705 -0.0142  0.4634 -1.0728
  425MOL0     C55970   3.408   1.104   5.602  0.3906  0.4329 -0.8119
  425MOL0     O55971   3.300   1.027   5.584  0.0079  0.5521  0.4723
  425MOL0     C55972   3.205   1.005   5.681  0.7648 -1.0507 -0.2409
  425MOL0     C55973   3.159   0.874   5.696  1.4649  0.3825  0.8321
  425MOL0     C55974   3.040   0.842   5.770 -0.7120  0.0146 -0.1628
  425MOL0     C55975   2.975   0.946   5.841 -0.3358 -0.0103  0.4255
  425MOL0     O55976   2.870   0.920   5.924  0.0394 -0.3727  0.4996
  425MOL0     C55977   2.812   0.789   5.928  0.0845  0.4741 -0.2103
  425MOL0     C55978   2.700   0.744   6.021  0.7205  0.0708 -0.7289
  425MOL0     C55979   2.717   0.805   6.162 -0.2717  0.7173  0.4468
  425MOL0     C55980   2.616   0.735   6.254 -0.0589  0.2820  1.2524
  425MOL0     C55981   2.594   0.787   6.398 -0.0229  0.9383 -0.1333
  425MOL0     C55982   2.553   0.940   6.396  0.2452  0.1137 -0.6552
  425MOL0     C55983   2.516   1.004   6.533  0.8372  0.2032  0.4958
  425MOL0     C55984   2.636   0.997   6.629  0.5808  0.3894 -0.5746
  425MOL0     N55985   2.619   1.089   6.744  0.2221  0.8426 -0.9194
  425MOL0     C55986   2.514   1.084   6.834 -0.8919 -0.2402  0.1444
  425MOL0     C55987   2.554   1.178   6.926 -0.0143  0.0705  1.1999
  425MOL0     C55988   2.484   1.238   7.046  0.5607 -0.1844  0.9435
  425MOL0     C55989   2.466   1.153   7.173 -0.7742 -0.9442 -0.1225
  425MOL0     C55990   2.388   1.026   7.151 -0.3732  0.9779 -0.0676
  425MOL0     C55991   2.330   0.985   7.296  0.8324  0.8918  1.1499
  425MOL0     O55992   2.219   0.890   7.287  0.3528  0.3279 -0.1229
  425MOL0     C55993   2.145   0.883   7.405 -0.2289  0.2983 -0.1129
  425MOL0     C55994   2.009   0.895   7.396  1.4239  0.8280  0.2047
  425MOL0     C55995   1.927   0.886   7.509  0.6835  0.3433  0.2248
  425MOL0     C55996   1.976   0.866   7.633 -0.1638  0.2648  0.3470
  425MOL0     C55997   1.898   0.841   7.757 -0.3057 -0.8148  0.1335
  425MOL0     O55998   1.783   0.775   7.733 -0.3632 -0.3800 -0.2573
  425MOL0     C55999   1.694   0.755   7.831 -0.4494  0.6781  0.4566
  425MOL0     C56000   1.573   0.818   7.816  0.1824 -0.2827 -0.2451
  425MOL0     C56001   1.456   0.782   7.894 -0.5990  0.1102 -0.1690
  425MOL0     C56002   1.473   0.687   7.998  0.0016 -0.7488  0.0234
  425MOL0     O56003   1.359   0.673   8.080 -0.4229  0.2697  0.6340
  425MOL0     C56004   1.379   0.590   8.201 -0.6691  0.2141  0.5370
  425MOL0     C56005   1.242   0.571   8.269  0.3011 -0.1624 -0.7701
  425MOL0     C56006   1.251   0.541   8.419 -0.2697  0.6210 -0.1550
  425MOL0     C56007   1.341   0.423   8.462  0.1638 -0.5573  0.1753
  425MOL0     C56008   1.412   0.452   8.591 -0.2756  0.7644 -0.9004
  425MOL0     C56009   1.519   0.556   8.579 -0.9241  0.1515 -0.6691
  425MOL0     C56010   1.638   0.554   8.682  0.3111 -0.2342 -0.2480
  425MOL0     C56011   1.760   0.642   8.658 -0.1353 -0.3443  0.0794
  425MOL0    Cl56012   1.709   0.827   8.671 -0.0342 -0.1095 -0.0225
  425MOL0     C56013   1.593   0.623   8.007 -1.0430 -0.3109 -1.6348
  425MOL0     C56014   1.702   0.649   7.921  0.0171 -0.4739 -0.0218
  425MOL0     O56015   1.949   0.879   7.861  0.6741  0.0179 -0.2212
  425MOL0     C56016   2.117   0.846   7.640  0.9004 -0.5516  0.3876
  425MOL0     C56017   2.200   0.869   7.525  0.2610 -0.1686 -0.6004
  425MOL0     N56018   2.676   1.234   6.886  0.0657 -1.2455  0.3704
  425MOL0     N56019   2.714   1.178   6.779 -0.2419 -1.4769  0.1215
  425MOL0     C56020   3.025   1.081   5.827  0.1208  0.5837  0.3937
  425MOL0     C56021   3.136   1.104   5.754  0.0063 -0.3066 -0.6922
  425MOL0     C56022   3.493   1.128   5.477 -0.1079  0.2095 -0.5923
  425MOL0     C56023   3.607   1.212   5.483 -0.6670 -0.1527 -0.4646
  425MOL0     C56024   3.683   1.245   5.370 -0.5407  0.5223 -1.0436
  425MOL0     C56025   3.657   1.180   5.244 -0.2381  0.0810 -0.3429
  425MOL0     O56026   3.720   1.205   5.121 -0.8469 -0.3052 -0.0538
  425MOL0     C56027   3.812   1.314   5.119  0.0661  0.3839  0.7713
  425MOL0     C56028   3.861   1.341   4.982 -0.2014  0.4381 -0.3274
  425MOL0     C56029   3.746   1.388   4.884 -0.2952  0.9624 -0.2325
  425MOL0     C56030   3.649   1.475   4.945  0.2816 -0.0358  0.1247
  425MOL0     C56031   3.564   1.537   4.851 -0.0233 -0.6654 -0.1463
  425MOL0     C56032   3.484   1.578   4.776  0.0635 -0.8139  0.2223
  425MOL0     C56033   3.541   1.099   5.237 -0.1258 -0.1884  0.5548
  425MOL0     C56034   3.465   1.076   5.350  0.7267 -0.0526 -0.7920
  425MOL0     H56035   3.200   0.801   5.627 -2.9089 -0.6680 -1.0088
  425MOL0     H56036   3.011   0.738   5.764  1.9490 -0.7643 -1.1033
  425MOL0     H56037   2.885   0.717   5.965 -2.8106 -3.2386 -1.1469
  425MOL0     H56038   2.778   0.758   5.829  0.2352  2.3105 -0.8735
  425MOL0     H56039   2.693   0.636   6.007  5.2687 -0.8794  2.1737
  425MOL0     H56040   2.611   0.787   5.975  2.6858 -0.1893 -5.2848
  425MOL0     H56041   2.708   0.913   6.145 -1.8652  0.6680  0.8097
  425MOL0     H56042   2.817   0.775   6.195  0.1353  0.5328 -0.9019
  425MOL0     H56043   2.529   0.745   6.188  0.7807  2.6266  0.4085
  425MOL0     H56044   2.625   0.626   6.253  2.8451  0.3801 -2.0501
  425MOL0     H56045   2.691   0.765   6.443 -0.5485 -4.9467 -1.0478
  425MOL0     H56046   2.508   0.732   6.436 -0.9670  2.1949 -0.4162
  425MOL0     H56047   2.457   0.939   6.343 -0.7610 -0.1561  1.1130
  425MOL0     H56048   2.631   1.000   6.348  1.2115  1.2336  2.1507
  425MOL0     H56049   2.492   1.110   6.525 -3.8038 -0.5532  1.2313
  425MOL0     H56050   2.426   0.956   6.575  1.5819 -1.1124  0.6484
  425MOL0     H56051   2.731   1.018   6.579  1.2384  3.5641  1.6709
  425MOL0     H56052   2.626   0.897   6.672 -4.7866  0.4323 -1.0481
  425MOL0     H56053   2.424   1.022   6.826 -1.4814  0.8633 -3.2383
  425MOL0     H56054   2.380   1.261   7.024  0.4169  3.0908  4.1719
  425MOL0     H56055   2.522   1.338   7.068  1.4019 -0.1310 -0.6282
  425MOL0     H56056   2.427   1.204   7.262  0.3310  0.3439 -0.3433
  425MOL0     H56057   2.570   1.124   7.188 -1.6686 -3.6011  1.5687
  425MOL0     H56058   2.289   1.041   7.106 -2.0732 -3.0195  1.8344
  425MOL0     H56059   2.444   0.951   7.095  0.8736  0.1127  2.1938
  425MOL0     H56060   2.297   1.072   7.353  3.5125  3.5250 -0.9812
  425MOL0     H56061   2.417   0.956   7.357 -0.3626  0.4836  2.7339
  425MOL0     H56062   1.953   0.890   7.303  1.0743 -1.2169  0.4896
  425MOL0     H56063   1.820   0.897   7.495  0.9554  2.5391 -0.4947
  425MOL0     H56064   1.556   0.893   7.739 -2.6801 -3.1324 -2.7221
  425MOL0     H56065   1.360   0.833   7.891 -2.5764 -3.3161  0.2022
  425MOL0     H56066   1.456   0.638   8.262  0.2482  0.1763 -0.5442
  425MOL0     H56067   1.405   0.488   8.171 -1.4175 -0.4695  2.1446
  425MOL0     H56068   1.188   0.492   8.214  1.8007 -0.0935 -2.4374
  425MOL0     H56069   1.184   0.662   8.252  0.6041  0.0580 -0.6205
  425MOL0     H56070   1.151   0.502   8.443  0.2342 -0.5225  0.1438
  425MOL0     H56071   1.267   0.632   8.478  5.0043  0.2093 -0.5294
  425MOL0     H56072   1.282   0.331   8.469  0.5894 -1.0891 -2.2878
  425MOL0     H56073   1.414   0.397   8.384 -0.1846 -1.2696  0.0781
  425MOL0     H56074   1.460   0.365   8.636  0.1114  1.2361 -0.3795
  425MOL0     H56075   1.336   0.492   8.659 -0.1173  0.8425 -0.7687
  425MOL0     H56076   1.466   0.651   8.560 -2.5262 -0.7945 -1.1544
  425MOL0     H56077   1.570   0.541   8.484  1.5465 -2.3884  0.9162
  425MOL0     H56078   1.600   0.568   8.783  0.8497 -1.5697  0.1665
  425MOL0     H56079   1.684   0.455   8.674 -2.2436 -1.4913 -0.2215
  425MOL0     H56080   1.810   0.621   8.563  0.5153  1.8502 -0.1145
  425MOL0     H56081   1.831   0.619   8.739 -0.0382 -5.4933 -1.1405
  425MOL0     H56082   1.595   0.533   8.069  0.0545  1.5361  1.2339
  425MOL0     H56083   1.790   0.585   7.926 -1.7267 -3.3779 -2.6350
  425MOL0     H56084   2.142   0.812   7.740  2.4214 -1.6884 -0.3383
  425MOL0     H56085   2.304   0.853   7.548 -0.0165 -0.6419  0.3566
  425MOL0     H56086   2.975   1.157   5.886  0.8142 -1.2478  3.5491
  425MOL0     H56087   3.163   1.209   5.741 -1.8634  0.4220  0.8056
  425MOL0     H56088   3.621   1.251   5.583 -1.7252 -1.7619  0.3614
  425MOL0     H56089   3.765   1.316   5.380  1.0024 -1.5185  3.8080
  425MOL0     H56090   3.901   1.291   5.177  3.2202 -1.0835 -4.0569
  425MOL0     H56091   3.764   1.398   5.169  3.5196  2.6264  0.6542
  425MOL0     H56092   3.947   1.408   4.984 -1.2129  1.7790  0.9784
  425MOL0     H56093   3.904   1.247   4.947  2.2836  1.5771 -0.5373
  425MOL0     H56094   3.688   1.304   4.845  0.7933  1.3141 -2.8419
  425MOL0     H56095   3.792   1.434   4.796 -2.2355  1.2351 -1.1739
  425MOL0     H56096   3.580   1.416   5.007 -1.1385  0.6406 -0.7606
  425MOL0     H56097   3.707   1.549   5.001 -0.2701 -0.5237  1.3799
  425MOL0     H56098   3.409   1.619   4.711  0.1752 -0.5041  0.2907
  425MOL0     H56099   3.499   1.075   5.140 -4.3301  1.6749  1.6841
  425MOL0     H56100   3.369   1.026   5.343 -0.0608  1.5869 -2.9059
  426MOL0     O56101   8.988   6.081   5.263  0.3617  1.3203 -0.4231
  426MOL0     C56102   9.032   6.094   5.377 -0.6130 -0.6233 -0.2155
  426MOL0     O56103   8.963   6.165   5.470  0.7414  0.4745 -0.1714
  426MOL0     C56104   8.826   6.190   5.444 -1.1683  0.0916 -0.2196
  426MOL0     C56105   8.722   6.109   5.491 -0.0227  0.4357 -0.2047
  426MOL0     C56106   8.591   6.151   5.487  0.0982  1.8327  0.4104
  426MOL0     C56107   8.549   6.256   5.413 -0.0056  0.5177 -0.2201
  426MOL0     O56108   8.413   6.288   5.427 -0.2250 -0.7828  1.0664
  426MOL0     C56109   8.326   6.222   5.336  1.0121 -0.1100 -0.1024
  426MOL0     C56110   8.207   6.144   5.399  0.3511  0.0353  0.4671
  426MOL0     C56111   8.128   6.225   5.503 -0.2597  0.4401 -0.2467
  426MOL0     C56112   8.149   6.180   5.646  0.2421  0.0126  0.7474
  426MOL0     C56113   8.045   6.255   5.729  0.0843 -0.0356 -0.3262
  426MOL0     C56114   8.076   6.280   5.879 -1.2097  0.1553  0.1734
  426MOL0     C56115   8.126   6.151   5.956 -0.0680  0.1129  0.3587
  426MOL0     C56116   8.152   6.184   6.107 -0.4522  0.0419  0.2949
  426MOL0     N56117   8.281   6.265   6.116 -0.0571  0.0018  0.4858
  426MOL0     C56118   8.408   6.218   6.119 -0.7681  0.0618 -0.4303
  426MOL0     C56119   8.485   6.330   6.156  0.5798 -0.3102 -0.3719
  426MOL0     C56120   8.632   6.346   6.153  0.4959 -0.2320 -0.5246
  426MOL0     C56121   8.704   6.207   6.184  0.0561 -0.2216  0.8653
  426MOL0     C56122   8.855   6.228   6.165 -0.6465 -0.2047 -0.2522
  426MOL0     C56123   8.919   6.098   6.170  0.0406  0.1834  0.1323
  426MOL0     O56124   8.957   6.071   6.308  0.0560 -0.1797 -0.4529
  426MOL0     C56125   9.052   5.967   6.312  0.5118 -0.1828 -0.0067
  426MOL0     C56126   9.061   5.859   6.227 -0.5137 -0.1328  0.2994
  426MOL0     C56127   9.151   5.755   6.250  0.1785 -0.0375 -0.2367
  426MOL0     C56128   9.232   5.756   6.359 -0.5869 -0.2952 -0.0166
  426MOL0     C56129   9.336   5.644   6.378 -0.1231  0.0355 -0.1307
  426MOL0     O56130   9.309   5.523   6.334  0.5026 -0.9191 -0.3346
  426MOL0     C56131   9.368   5.396   6.347 -0.8102  0.2965  0.6636
  426MOL0     C56132   9.318   5.286   6.268  0.7076 -0.1575  0.1061
  426MOL0     C56133   9.371   5.158   6.273 -0.1874 -0.0969 -0.3524
  426MOL0     C56134   9.466   5.134   6.371 -0.0531 -0.1957  0.2918
  426MOL0     O56135   9.521   5.011   6.375  0.2528 -0.1996  0.2695
  426MOL0     C56136   9.668   5.009   6.359 -0.6997 -0.8860 -0.3123
  426MOL0     C56137   9.727   5.072   6.229  0.0744 -1.9939 -0.2793
  426MOL0     C56138   9.870   5.114   6.247  1.0157  0.7886 -0.3610
  426MOL0     C56139   9.947   5.134   6.117  0.3840  0.0325 -0.5530
  426MOL0     C56140  10.101   5.170   6.152 -0.7614  0.2739  0.1520
  426MOL0     C56141  10.134   5.300   6.229  0.6687  0.0307 -0.1776
  426MOL0     C56142  10.278   5.323   6.272 -0.0009 -0.0125  0.2232
  426MOL0     C56143  10.321   5.282   6.421 -0.4138 -0.2270  0.2564
  426MOL0    Cl56144  10.331   5.105   6.423 -0.3059  0.2177  0.1605
  426MOL0     C56145   9.521   5.240   6.449  0.4377 -0.2207 -0.1455
  426MOL0     C56146   9.476   5.371   6.438  0.2579 -0.0938 -0.5855
  426MOL0     O56147   9.442   5.675   6.434 -0.5691  0.0329  0.2082
  426MOL0     C56148   9.225   5.874   6.443  1.0023 -0.4199  0.0848
  426MOL0     C56149   9.138   5.975   6.416 -0.0518 -1.1001  0.7498
  426MOL0     N56150   8.402   6.444   6.158  0.3886  0.6159  0.2147
  426MOL0     N56151   8.280   6.399   6.128 -0.2456 -0.5726  0.2543
  426MOL0     C56152   8.642   6.342   5.359  0.4494 -0.6760  0.2180
  426MOL0     C56153   8.780   6.303   5.386 -0.2203 -0.3885  0.3611
  426MOL0     C56154   9.173   6.058   5.419 -1.1978  0.1477  0.2598
  426MOL0     C56155   9.236   6.100   5.539 -0.2205  0.4413  0.2915
  426MOL0     C56156   9.370   6.069   5.569 -0.4803 -0.3363  0.3435
  426MOL0     C56157   9.443   5.984   5.494  0.1030 -0.2881 -0.4813
  426MOL0     O56158   9.569   5.940   5.530  0.3843  0.6682 -0.7512
  426MOL0     C56159   9.635   6.011   5.637  0.1845  0.9180  0.6913
  426MOL0     C56160   9.777   5.961   5.677 -0.3382  1.0075  0.3773
  426MOL0     C56161   9.764   5.815   5.725 -0.5680  0.1417  0.2257
  426MOL0     C56162   9.885   5.749   5.786  0.1741  0.7442 -1.2257
  426MOL0     C56163  10.005   5.741   5.697 -0.2122 -0.2303  0.2832
  426MOL0     C56164  10.103   5.734   5.622  0.5805  1.0393 -0.5752
  426MOL0     C56165   9.388   5.936   5.382  0.4741 -0.9428 -0.1124
  426MOL0     C56166   9.254   5.972   5.340 -0.0863  1.6116 -0.1545
  426MOL0     H56167   8.743   6.026   5.558  0.1006  0.0845 -0.6789
  426MOL0     H56168   8.522   6.089   5.542 -0.4131  1.6110 -0.4495
  426MOL0     H56169   8.374   6.141   5.281 -1.0969 -0.2505 -1.8932
  426MOL0     H56170   8.292   6.291   5.258  1.8326 -0.1144 -0.4658
  426MOL0     H56171   8.247   6.052   5.442 -0.5914 -1.3765 -1.5347
  426MOL0     H56172   8.135   6.106   5.326 -1.4068  1.9247  1.1161
  426MOL0     H56173   8.024   6.223   5.469 -1.2422  0.3438  2.5354
  426MOL0     H56174   8.162   6.329   5.493 -0.9937  0.9481  2.0441
  426MOL0     H56175   8.144   6.072   5.661 -4.0953  0.1991  2.0638
  426MOL0     H56176   8.242   6.219   5.689  0.5738  0.0642 -0.0121
  426MOL0     H56177   7.944   6.214   5.723  0.1228 -0.5122  1.6343
  426MOL0     H56178   8.033   6.360   5.702  0.7706  0.1836  0.1700
  426MOL0     H56179   7.995   6.341   5.918 -0.8130  2.5180 -2.3714
  426MOL0     H56180   8.157   6.353   5.888 -0.4485 -0.7778  1.2340
  426MOL0     H56181   8.043   6.080   5.956  1.2693 -1.5312 -1.4003
  426MOL0     H56182   8.219   6.110   5.916  0.3781  0.7858  0.6785
  426MOL0     H56183   8.174   6.093   6.162  2.3897 -0.5997 -1.7123
  426MOL0     H56184   8.071   6.240   6.154  2.7393  2.3372  3.5862
  426MOL0     H56185   8.442   6.119   6.093  1.0522 -0.2500  2.6032
  426MOL0     H56186   8.662   6.416   6.232  1.1404 -0.5412 -0.4904
  426MOL0     H56187   8.658   6.392   6.057  1.5919  0.0753 -0.0980
  426MOL0     H56188   8.668   6.129   6.117  2.0311 -1.8809  1.6462
  426MOL0     H56189   8.680   6.166   6.283  0.1083  2.7081  2.2024
  426MOL0     H56190   8.887   6.280   6.074 -0.3405  1.0135  0.5326
  426MOL0     H56191   8.889   6.290   6.248  0.7272  0.5746 -1.3610
  426MOL0     H56192   9.014   6.108   6.115 -0.8395  0.3096 -1.4280
  426MOL0     H56193   8.856   6.019   6.130  1.1828 -0.2501 -0.8857
  426MOL0     H56194   8.999   5.857   6.137  2.8068  1.2176 -2.2446
  426MOL0     H56195   9.140   5.681   6.171 -4.5492  1.0544 -0.8601
  426MOL0     H56196   9.230   5.307   6.208 -0.8786 -0.8350  2.1067
  426MOL0     H56197   9.353   5.079   6.201  2.4367  1.3519 -2.7825
  426MOL0     H56198   9.704   4.906   6.347  1.6185  0.0385 -2.4304
  426MOL0     H56199   9.712   5.063   6.443 -1.8184 -0.3766 -0.0337
  426MOL0     H56200   9.677   5.167   6.208  0.5482 -1.2058  1.9098
  426MOL0     H56201   9.728   4.998   6.148  0.0243 -0.3370 -1.8414
  426MOL0     H56202   9.925   5.032   6.294 -1.2399  1.5590  4.1293
  426MOL0     H56203   9.878   5.191   6.324  1.8129 -0.9290  1.3438
  426MOL0     H56204   9.943   5.043   6.056  1.2159  1.2263 -2.4623
  426MOL0     H56205   9.907   5.216   6.057 -1.2981 -0.1783  0.2165
  426MOL0     H56206  10.141   5.176   6.050 -0.6328  0.1981  0.1964
  426MOL0     H56207  10.159   5.089   6.198  0.8475  0.5931 -1.1987
  426MOL0     H56208  10.076   5.309   6.321 -1.8513  1.6929 -1.8131
  426MOL0     H56209  10.098   5.391   6.179 -2.6351 -1.0993 -0.0846
  426MOL0     H56210  10.350   5.270   6.209 -1.4739 -1.6805 -0.1338
  426MOL0     H56211  10.293   5.427   6.242  2.2177 -0.2136  0.4489
  426MOL0     H56212  10.250   5.309   6.500  0.3448 -2.1177  1.6233
  426MOL0     H56213  10.419   5.322   6.448 -0.4424  1.0375 -1.3224
  426MOL0     H56214   9.595   5.215   6.524  0.1202  1.0689  0.6294
  426MOL0     H56215   9.527   5.454   6.485  0.6197 -0.9968  0.6544
  426MOL0     H56216   9.296   5.884   6.525  3.2000 -1.1611 -1.6139
  426MOL0     H56217   9.115   6.066   6.471 -2.4402 -1.1958  0.0217
  426MOL0     H56218   8.614   6.425   5.294  3.0575  0.1818  0.0879
  426MOL0     H56219   8.863   6.366   5.357  0.1156 -0.2841  1.4888
  426MOL0     H56220   9.172   6.155   5.606 -2.4343 -1.0185 -0.5037
  426MOL0     H56221   9.405   6.100   5.667 -0.9754 -1.2276  0.8178
  426MOL0     H56222   9.576   6.004   5.728  1.7278  3.0906  1.9445
  426MOL0     H56223   9.639   6.117   5.609 -0.4797  1.0386  1.0357
  426MOL0     H56224   9.845   5.979   5.593  0.8461  0.3520  1.1674
  426MOL0     H56225   9.806   6.029   5.757  2.3660 -1.9098  2.1165
  426MOL0     H56226   9.715   5.757   5.646  1.5750 -1.5324  0.0149
  426MOL0     H56227   9.695   5.814   5.809 -1.9915  1.2437 -0.8802
  426MOL0     H56228   9.903   5.800   5.881  1.1632 -1.5875 -0.0748
  426MOL0     H56229   9.862   5.643   5.801  0.4556  0.5976 -1.7803
  426MOL0     H56230  10.173   5.725   5.542 -0.4966 -1.2284 -1.3537
  426MOL0     H56231   9.433   5.849   5.335 -0.1130 -2.8145  2.5308
  426MOL0     H56232   9.218   5.927   5.248 -0.6245 -0.3747  0.9668
  427MOL0     O56233   5.975   8.588  11.066  0.5325  0.1480 -0.1410
  427MOL0     C56234   6.095   8.563  11.056 -0.5379  0.4498  0.0136
  427MOL0     O56235   6.180   8.538  11.157  0.8980 -0.4159  0.9199
  427MOL0     C56236   6.124   8.487  11.273  0.2678 -0.5332 -1.1110
  427MOL0     C56237   6.064   8.361  11.274  0.1157  0.3571  0.1479
  427MOL0     C56238   6.017   8.313  11.399 -0.5105 -0.0587  0.6227
  427MOL0     C56239   6.025   8.389  11.514  1.0717  0.4321  0.6239
  427MOL0     O56240   5.987   8.345  11.636  1.0607 -0.0110  0.0787
  427MOL0     C56241   5.951   8.210  11.677  0.0306  0.2450  0.2938
  427MOL0     C56242   5.794   8.186  11.694 -0.5907 -0.6344 -0.2494
  427MOL0     C56243   5.761   8.252  11.837  0.5786 -0.1806 -0.3548
  427MOL0     C56244   5.611   8.290  11.832  0.3944  0.9239  0.3310
  427MOL0     C56245   5.538   8.345  11.954 -0.9474  0.7478  0.5671
  427MOL0     C56246   5.392   8.392  11.928 -0.2965 -0.0932  0.5602
  427MOL0     C56247   5.324   8.471  12.035 -0.3826 -1.2081 -0.3823
  427MOL0     C56248   5.405   8.598  12.069  0.3752  0.0729 -0.2394
  427MOL0     N56249   5.340   8.699  12.154  0.1107  0.1553 -0.8637
  427MOL0     C56250   5.416   8.792  12.211 -0.3198 -0.2348 -0.0458
  427MOL0     C56251   5.322   8.878  12.258 -0.3733 -0.4366  0.1334
  427MOL0     C56252   5.350   8.995  12.342  0.8341 -0.7563  0.4887
  427MOL0     C56253   5.452   8.975  12.448 -0.3472  0.4251  0.3042
  427MOL0     C56254   5.459   9.096  12.540 -0.1190  1.0317  0.1578
  427MOL0     C56255   5.597   9.095  12.607  0.3563 -1.2172 -0.6302
  427MOL0     O56256   5.591   8.981  12.702  0.4851 -0.8247  0.5947
  427MOL0     C56257   5.632   9.009  12.835  0.4771  0.0686  0.7539
  427MOL0     C56258   5.542   8.986  12.942 -0.0040 -0.5666 -0.3827
  427MOL0     C56259   5.583   9.029  13.066 -0.3130 -0.0842  0.2373
  427MOL0     C56260   5.706   9.097  13.090 -0.2054 -0.2527  0.2628
  427MOL0     C56261   5.748   9.146  13.224 -0.9999  0.2678 -0.2223
  427MOL0     O56262   5.853   9.234  13.218 -0.3460  0.1791 -0.4446
  427MOL0     C56263   5.889   9.319  13.323 -0.4722 -0.2608 -0.4356
  427MOL0     C56264   5.847   9.307  13.461  0.9090 -0.7905 -0.0706
  427MOL0     C56265   5.889   9.403  13.555  0.7269  0.6285 -0.2525
  427MOL0     C56266   5.968   9.507  13.517  0.4335  0.0040  0.9449
  427MOL0     O56267   5.994   9.602  13.617 -0.0342  0.4691 -0.0155
  427MOL0     C56268   6.095   9.694  13.603  0.2745 -0.5933  0.1390
  427MOL0     C56269   6.152   9.761  13.731  0.2023 -0.1426 -0.1866
  427MOL0     C56270   6.217   9.897  13.688  1.2301  1.0766  0.2633
  427MOL0     C56271   6.261   9.975  13.813  0.2537 -0.0005  0.3583
  427MOL0     C56272   6.331  10.111  13.792 -0.5509 -0.5154  0.3693
  427MOL0     C56273   6.469  10.132  13.853  0.4744 -0.2309 -0.8394
  427MOL0     C56274   6.521  10.265  13.836 -0.2265 -0.3846  0.5334
  427MOL0     C56275   6.652  10.294  13.905 -0.0699  1.7654 -0.0211
  427MOL0    Cl56276   6.795  10.274  13.793  0.2004  0.4882  0.1323
  427MOL0     C56277   6.018   9.522  13.385  1.4012 -0.4146  0.1684
  427MOL0     C56278   5.974   9.428  13.293  0.4513 -0.3468  0.5214
  427MOL0     O56279   5.674   9.123  13.314 -0.7880  0.2548 -0.3752
  427MOL0     C56280   5.793   9.111  12.984  0.1124 -0.2999  0.2076
  427MOL0     C56281   5.753   9.072  12.858 -0.9015 -0.2603 -0.6649
  427MOL0     N56282   5.197   8.822  12.248  0.5963 -0.1650 -0.6055
  427MOL0     N56283   5.209   8.706  12.191  0.5740 -0.2205 -0.2984
  427MOL0     C56284   6.068   8.522  11.509  0.0743  0.5766  1.0140
  427MOL0     C56285   6.114   8.569  11.384  0.0171  0.2204 -0.5308
  427MOL0     C56286   6.160   8.586  10.923 -0.0813 -0.0368 -0.4556
  427MOL0     C56287   6.081   8.632  10.811 -0.7118  0.0506  0.2257
  427MOL0     C56288   6.147   8.646  10.684 -0.3194  0.6435  0.4759
  427MOL0     C56289   6.279   8.612  10.660 -1.1906  0.3410  0.0172
  427MOL0     O56290   6.343   8.652  10.541 -0.1253  0.6479 -0.1135
  427MOL0     C56291   6.478   8.598  10.501  1.7437 -0.8673  0.1094
  427MOL0     C56292   6.456   8.465  10.435  0.3452  0.1048  0.0553
  427MOL0     C56293   6.586   8.416  10.379 -0.7293  0.9324  0.7222
  427MOL0     C56294   6.601   8.260  10.366  0.6792 -0.6614  0.8617
  427MOL0     C56295   6.493   8.196  10.280  1.1698 -1.1042  0.2828
  427MOL0     C56296   6.417   8.130  10.219  0.1005  0.8215  0.1824
  427MOL0     C56297   6.354   8.562  10.769 -0.4276 -0.2040 -0.0350
  427MOL0     C56298   6.292   8.545  10.901 -0.0645 -0.0918  0.2568
  427MOL0     H56299   6.038   8.310  11.182 -1.6018 -0.7832  1.2000
  427MOL0     H56300   5.971   8.215  11.404  0.3074 -0.4150  1.3758
  427MOL0     H56301   5.989   8.184  11.776  2.9803 -3.6217 -1.5786
  427MOL0     H56302   5.986   8.125  11.617 -2.0220 -1.3249  1.2174
  427MOL0     H56303   5.784   8.077  11.700 -1.9811 -0.5170  0.1658
  427MOL0     H56304   5.736   8.217  11.607  0.0504  0.4154 -0.3181
  427MOL0     H56305   5.829   8.334  11.860  1.3325 -0.9331  0.1899
  427MOL0     H56306   5.781   8.179  11.916  2.1120 -0.9042 -1.3764
  427MOL0     H56307   5.602   8.361  11.749 -0.9080  1.1970  0.6755
  427MOL0     H56308   5.551   8.203  11.805  0.8655  0.9881 -1.0237
  427MOL0     H56309   5.590   8.435  11.991 -0.7322  0.7668  0.2169
  427MOL0     H56310   5.538   8.273  12.036  0.5571 -0.6736 -0.6089
  427MOL0     H56311   5.324   8.306  11.926  0.7464 -1.0142  2.2571
  427MOL0     H56312   5.391   8.450  11.835 -1.6337  1.3301  1.4245
  427MOL0     H56313   5.224   8.508  12.010 -0.3320  0.9489  2.1157
  427MOL0     H56314   5.327   8.405  12.122 -2.5802  0.0435  0.7331
  427MOL0     H56315   5.432   8.645  11.974 -2.0539 -1.2226 -1.6724
  427MOL0     H56316   5.499   8.568  12.117  0.8428  1.1540 -0.4489
  427MOL0     H56317   5.522   8.804  12.192  0.2722 -7.4417 -6.0504
  427MOL0     H56318   5.256   9.029  12.388  1.6266  0.7711  1.0597
  427MOL0     H56319   5.375   9.074  12.270 -1.7697 -1.1056 -0.9283
  427MOL0     H56320   5.548   8.965  12.396  0.1300  2.8730  0.5840
  427MOL0     H56321   5.423   8.883  12.501 -2.1660  0.1422 -1.0768
  427MOL0     H56322   5.455   9.187  12.480 -1.5521  1.1696  0.4382
  427MOL0     H56323   5.386   9.092  12.621  3.6088  0.9469  3.8684
  427MOL0     H56324   5.612   9.192  12.655  0.4083  0.5383 -3.8736
  427MOL0     H56325   5.677   9.103  12.533  0.8348  0.9781  0.0251
  427MOL0     H56326   5.441   8.951  12.919  0.6783 -1.7940 -1.6683
  427MOL0     H56327   5.511   9.027  13.147  0.6321  1.7298  1.1797
  427MOL0     H56328   5.789   9.218  13.483 -2.4616  1.7182  2.0705
  427MOL0     H56329   5.851   9.389  13.656 -2.5001 -1.5913 -1.5770
  427MOL0     H56330   6.062   9.762  13.523 -1.9281 -1.7788 -0.0279
  427MOL0     H56331   6.185   9.641  13.569  0.6963 -0.3696  0.9008
  427MOL0     H56332   6.220   9.696  13.787  1.0109  0.4480 -0.4699
  427MOL0     H56333   6.059   9.778  13.787  0.0450  0.0800 -0.5128
  427MOL0     H56334   6.144   9.959  13.636 -0.0534  0.6620  1.5061
  427MOL0     H56335   6.303   9.871  13.625 -1.0253  0.4185 -2.8210
  427MOL0     H56336   6.180   9.984  13.886 -0.7398  1.7029 -0.8751
  427MOL0     H56337   6.336   9.917  13.867  0.3130 -1.4540 -1.1960
  427MOL0     H56338   6.267  10.190  13.834 -0.9206 -0.9282  0.5866
  427MOL0     H56339   6.347  10.127  13.685 -0.2147  1.3100  0.6458
  427MOL0     H56340   6.543  10.062  13.812  2.6818 -0.2295  2.7091
  427MOL0     H56341   6.457  10.098  13.956 -3.2634 -0.4864 -1.2470
  427MOL0     H56342   6.543  10.285  13.730 -2.5317 -3.4128 -0.6733
  427MOL0     H56343   6.443  10.337  13.858  0.5134 -0.2229  2.9059
  427MOL0     H56344   6.662  10.221  13.986 -2.5675  1.1199 -0.2315
  427MOL0     H56345   6.642  10.398  13.938  1.5794  1.8891  0.1948
  427MOL0     H56346   6.070   9.613  13.356 -1.8143  1.7335  0.5788
  427MOL0     H56347   6.002   9.425  13.189  1.1958 -0.3209  0.7140
  427MOL0     H56348   5.894   9.151  12.986 -0.6292  1.6834  0.3010
  427MOL0     H56349   5.822   9.102  12.779 -0.3455  1.7048  0.5100
  427MOL0     H56350   6.062   8.585  11.598 -4.3296  1.1294  0.5522
  427MOL0     H56351   6.136   8.674  11.368 -0.5853  0.9678  2.8139
  427MOL0     H56352   5.978   8.654  10.840 -0.5936 -3.5202  4.3738
  427MOL0     H56353   6.084   8.675  10.601 -4.0144  0.1577  2.8946
  427MOL0     H56354   6.548   8.596  10.585  2.1512 -1.0122 -0.2304
  427MOL0     H56355   6.527   8.661  10.425  5.2323 -2.6864  0.6654
  427MOL0     H56356   6.428   8.399  10.518  0.2929 -0.7477 -0.6310
  427MOL0     H56357   6.376   8.463  10.361 -1.1045  0.1129  1.5703
  427MOL0     H56358   6.670   8.452  10.440  0.9021 -0.1616 -0.7774
  427MOL0     H56359   6.604   8.451  10.277  0.9401 -1.7551 -0.0121
  427MOL0     H56360   6.698   8.232  10.323 -0.0433 -2.0537  0.0974
  427MOL0     H56361   6.608   8.221  10.468  4.2093  1.5326  1.6481
  427MOL0     H56362   6.338   8.075  10.172  0.4967  2.5678 -2.8207
  427MOL0     H56363   6.458   8.542  10.743 -0.0090  2.6650 -0.8485
  427MOL0     H56364   6.360   8.516  10.980  1.8766 -3.3257 -2.3585
  428MOL0     O56365   0.689   6.624   2.836 -0.5428  0.1224  0.1652
  428MOL0     C56366   0.643   6.605   2.726  0.3158 -0.0959  0.3340
  428MOL0     O56367   0.720   6.582   2.612 -0.0323 -0.1282  0.8024
  428MOL0     C56368   0.854   6.583   2.619  0.2490  0.7370  0.2835
  428MOL0     C56369   0.927   6.500   2.703  0.0839  0.8470 -0.7753
  428MOL0     C56370   1.071   6.495   2.683 -0.8509 -0.3950  0.2236
  428MOL0     C56371   1.143   6.570   2.583  1.4148 -0.0277 -0.5963
  428MOL0     O56372   1.276   6.564   2.572 -1.1014  0.1288 -0.5958
  428MOL0     C56373   1.345   6.659   2.480  0.2329  0.3147 -0.2897
  428MOL0     C56374   1.502   6.634   2.486 -0.3137 -0.3470  0.4323
  428MOL0     C56375   1.558   6.761   2.433 -0.4236 -0.4016  0.7612
  428MOL0     C56376   1.713   6.765   2.411 -0.6461  0.4720 -0.0907
  428MOL0     C56377   1.786   6.783   2.551  0.4314 -0.2028 -0.0186
  428MOL0     C56378   1.935   6.820   2.540 -0.5458  0.0269  0.6244
  428MOL0     C56379   1.964   6.955   2.596 -0.2673 -0.3982 -0.1279
  428MOL0     C56380   1.914   7.074   2.511  0.7348 -0.3626  0.0104
  428MOL0     N56381   1.969   7.080   2.382  0.0742 -0.1171  0.2963
  428MOL0     C56382   1.904   7.072   2.261 -0.4909 -0.0178 -0.3710
  428MOL0     C56383   2.003   7.040   2.168  0.6818 -0.0574 -0.1540
  428MOL0     C56384   1.993   7.015   2.024 -0.1497 -0.5597  0.1078
  428MOL0     C56385   2.043   6.870   1.992  0.2955 -0.6310  0.6296
  428MOL0     C56386   1.962   6.765   2.073  0.4672 -1.7154  0.4672
  428MOL0     C56387   1.939   6.639   1.994  0.0382 -0.0925 -0.3942
  428MOL0     O56388   1.873   6.534   2.073 -0.2417  0.5171 -0.0913
  428MOL0     C56389   1.737   6.514   2.080 -0.3294 -0.0519 -0.4174
  428MOL0     C56390   1.693   6.394   2.140  0.6249  0.1662  0.4649
  428MOL0     C56391   1.555   6.378   2.157  0.1892 -0.1231  0.1218
  428MOL0     C56392   1.462   6.474   2.101 -0.4900 -0.0068 -0.7092
  428MOL0     C56393   1.318   6.453   2.125 -0.9253 -0.7752 -0.0871
  428MOL0     O56394   1.284   6.331   2.169  0.7306  0.2569  0.0254
  428MOL0     C56395   1.155   6.308   2.218 -0.1200 -0.8813  1.1406
  428MOL0     C56396   1.047   6.284   2.131  0.1684 -0.1249  0.7821
  428MOL0     C56397   0.930   6.238   2.197 -0.0401  0.4116 -0.7189
  428MOL0     C56398   0.918   6.222   2.341  0.4920 -0.2558 -0.1572
  428MOL0     O56399   0.794   6.182   2.390  0.6150 -0.2613 -0.1036
  428MOL0     C56400   0.777   6.189   2.536 -0.1218  0.5039 -0.4048
  428MOL0     C56401   0.627   6.157   2.582 -0.6709 -0.0572  0.4582
  428MOL0     C56402   0.579   6.026   2.510  0.4334 -0.0378 -0.3085
  428MOL0     C56403   0.426   6.035   2.538 -0.1108 -0.0532  0.1542
  428MOL0     C56404   0.350   5.913   2.497  0.2003  0.0519 -1.1602
  428MOL0     C56405   0.203   5.904   2.549 -0.7010 -0.6630 -0.3902
  428MOL0     C56406   0.117   5.789   2.481 -0.1653  0.0501 -0.0494
  428MOL0     C56407   0.001   5.728   2.569  0.1518  0.6294  0.3614
  428MOL0    Cl56408  -0.107   5.866   2.609 -0.0301  0.2368 -0.3571
  428MOL0     C56409   1.035   6.245   2.411 -0.3040  0.5839  0.6961
  428MOL0     C56410   1.151   6.288   2.356  0.8303  0.6547  0.5430
  428MOL0     O56411   1.241   6.544   2.098 -0.4586  0.4414 -0.3758
  428MOL0     C56412   1.513   6.597   2.045 -0.0529  0.5269 -0.0957
  428MOL0     C56413   1.649   6.611   2.027 -0.1837 -0.5807 -0.1402
  428MOL0     N56414   2.125   7.020   2.232  0.1657  0.3603 -1.1687
  428MOL0     N56415   2.096   7.046   2.359  0.3323 -0.2524 -0.2969
  428MOL0     C56416   1.062   6.636   2.491 -0.0281  0.3257  0.1821
  428MOL0     C56417   0.919   6.643   2.509 -0.2491 -0.5565  0.2987
  428MOL0     C56418   0.494   6.610   2.716 -0.4015 -0.7030  0.8159
  428MOL0     C56419   0.416   6.608   2.835  0.3409 -0.3653  0.2255
  428MOL0     C56420   0.274   6.601   2.828  0.1090  0.4908  0.0062
  428MOL0     C56421   0.210   6.593   2.702  0.5686 -0.0850 -0.2386
  428MOL0     O56422   0.077   6.584   2.670  0.5827 -0.1141  0.0778
  428MOL0     C56423  -0.007   6.536   2.778 -0.2523  0.1707  0.1933
  428MOL0     C56424   0.026   6.391   2.831  0.1899  0.5927  0.6008
  428MOL0     C56425   0.038   6.288   2.723 -0.0481  0.2704 -0.3277
  428MOL0     C56426   0.124   6.177   2.780  0.7877 -0.1096  1.5664
  428MOL0     C56427   0.265   6.223   2.795  0.4779 -0.1376 -0.6561
  428MOL0     C56428   0.380   6.253   2.809  0.1332 -0.4125 -0.5775
  428MOL0     C56429   0.285   6.625   2.591  0.2706  0.1345 -0.6982
  428MOL0     C56430   0.426   6.622   2.591  0.0626  0.1381  0.1387
  428MOL0     H56431   0.882   6.437   2.778  2.7697 -0.2407  0.0492
  428MOL0     H56432   1.132   6.437   2.752 -3.6839 -1.9252  1.6554
  428MOL0     H56433   1.323   6.761   2.512 -1.0331  0.0653 -0.2839
  428MOL0     H56434   1.315   6.650   2.375  1.3524  0.7381 -0.6532
  428MOL0     H56435   1.541   6.548   2.430 -0.9830  0.5839 -1.5786
  428MOL0     H56436   1.525   6.625   2.592 -0.9579  1.2000  0.7332
  428MOL0     H56437   1.537   6.844   2.502  0.7906 -0.6982  1.5094
  428MOL0     H56438   1.508   6.781   2.338 -0.9814  0.7476  1.2694
  428MOL0     H56439   1.742   6.674   2.358 -1.8872 -0.3117  0.5290
  428MOL0     H56440   1.735   6.850   2.345 -2.5395  1.8508  0.9638
  428MOL0     H56441   1.759   6.700   2.617 -1.1042  1.0533  0.9752
  428MOL0     H56442   1.735   6.869   2.594  2.8122  0.9231  0.7260
  428MOL0     H56443   1.974   6.823   2.437  1.8328 -2.5761  1.3441
  428MOL0     H56444   1.991   6.745   2.596  2.3746  0.5627 -1.3445
  428MOL0     H56445   1.923   6.963   2.697  2.0891 -3.8216  1.2778
  428MOL0     H56446   2.073   6.964   2.601 -0.2587  0.1190 -1.0538
  428MOL0     H56447   1.952   7.161   2.566 -1.6781  0.9912 -0.3373
  428MOL0     H56448   1.805   7.074   2.510  0.6978 -1.1598  1.2888
  428MOL0     H56449   1.798   7.076   2.237 -1.1206 -0.4024  2.0816
  428MOL0     H56450   2.056   7.092   1.978 -3.0507  0.2697 -2.8580
  428MOL0     H56451   1.893   7.019   1.981  0.1428 -1.4697 -0.7036
  428MOL0     H56452   2.148   6.862   2.024  0.5336  1.7131  0.6193
  428MOL0     H56453   2.033   6.853   1.884 -1.5411  0.6939  0.5539
  428MOL0     H56454   2.006   6.757   2.173  2.0942  3.9389  0.5436
  428MOL0     H56455   1.867   6.817   2.091  2.0880  0.7283  2.8461
  428MOL0     H56456   2.038   6.605   1.962  1.2038  2.3192  0.3904
  428MOL0     H56457   1.884   6.664   1.903  2.1088 -4.0674 -3.0331
  428MOL0     H56458   1.768   6.322   2.168  1.3031  1.0754  1.0378
  428MOL0     H56459   1.525   6.297   2.222 -1.2495  0.0489 -0.2972
  428MOL0     H56460   1.059   6.294   2.024  2.3768 -4.2092  0.4689
  428MOL0     H56461   0.836   6.208   2.153 -0.4474 -1.4588  1.3164
  428MOL0     H56462   0.792   6.282   2.592 -1.8170 -0.6544  2.2026
  428MOL0     H56463   0.848   6.117   2.577  3.0731  2.8223 -1.4457
  428MOL0     H56464   0.568   6.242   2.547 -3.1419 -1.4061  1.1464
  428MOL0     H56465   0.618   6.155   2.691  1.1207  3.5133  0.8327
  428MOL0     H56466   0.633   5.940   2.553 -0.9251 -0.5305  0.4570
  428MOL0     H56467   0.608   6.003   2.407 -0.9175 -2.6184 -0.2089
  428MOL0     H56468   0.407   6.035   2.646 -0.5152  0.7016  0.0910
  428MOL0     H56469   0.369   6.119   2.496  0.2043 -0.7071 -1.6711
  428MOL0     H56470   0.402   5.820   2.520  0.7525  0.2173 -1.7398
  428MOL0     H56471   0.335   5.924   2.389  0.2859 -1.7520 -1.3810
  428MOL0     H56472   0.156   5.999   2.521  1.2242  0.0212 -1.4927
  428MOL0     H56473   0.195   5.905   2.658 -0.5263 -0.5578 -0.3775
  428MOL0     H56474   0.073   5.837   2.393  1.0841  1.0594 -0.1446
  428MOL0     H56475   0.182   5.707   2.450  0.4937 -0.0205  1.4528
  428MOL0     H56476   0.039   5.687   2.663  1.8811 -0.0351 -0.5811
  428MOL0     H56477  -0.063   5.667   2.504  1.0543  0.9242 -0.8551
  428MOL0     H56478   1.033   6.228   2.518  0.9115 -3.0316  0.2831
  428MOL0     H56479   1.243   6.296   2.412  0.9660  6.4784  0.0740
  428MOL0     H56480   1.448   6.678   2.015  0.8446  0.3712 -2.6569
  428MOL0     H56481   1.686   6.693   1.965 -0.7967 -2.9124 -3.9201
  428MOL0     H56482   1.107   6.682   2.403  1.1918  0.6960  0.9769
  428MOL0     H56483   0.861   6.699   2.436  3.2431  3.4533  0.2518
  428MOL0     H56484   0.446   6.621   2.939 -0.5272  3.6081  0.1452
  428MOL0     H56485   0.206   6.591   2.912 -0.4468  4.2746  0.1725
  428MOL0     H56486  -0.111   6.547   2.744 -0.6373  1.0039  1.5497
  428MOL0     H56487   0.005   6.606   2.861  2.6770 -0.2389  0.2236
  428MOL0     H56488   0.116   6.384   2.894  3.0812  1.3853 -3.0942
  428MOL0     H56489  -0.053   6.352   2.896 -0.2057 -1.1319 -0.8273
  428MOL0     H56490   0.063   6.334   2.627 -1.6055  0.6639 -0.5756
  428MOL0     H56491  -0.062   6.246   2.707  0.6874 -0.9260 -2.1398
  428MOL0     H56492   0.094   6.125   2.872  1.2274 -1.2836  1.0552
  428MOL0     H56493   0.118   6.097   2.707 -0.5895  1.3295  0.0211
  428MOL0     H56494   0.476   6.298   2.830 -0.3261 -0.7887  3.0692
  428MOL0     H56495   0.241   6.638   2.492 -0.6025 -1.2152 -0.5169
  428MOL0     H56496   0.478   6.646   2.499 -1.6448  3.0853 -0.2224
  429MOL0     O56497   5.157   6.395   8.084 -0.1871  0.0678 -0.2913
  429MOL0     C56498   5.099   6.392   7.981  0.4784 -0.0112 -0.9258
  429MOL0     O56499   5.149   6.343   7.862  0.0083  0.1603  0.4013
  429MOL0     C56500   5.267   6.271   7.857 -0.1834  0.4954 -0.2330
  429MOL0     C56501   5.263   6.155   7.780 -0.2303 -0.2153 -0.3050
  429MOL0     C56502   5.369   6.072   7.768 -0.2904  0.1884  0.0644
  429MOL0     C56503   5.498   6.103   7.822 -0.2668  0.1507 -0.6466
  429MOL0     O56504   5.606   6.009   7.825 -0.5764 -0.1562 -0.7314
  429MOL0     C56505   5.741   6.057   7.809  0.5067  0.4341  0.1940
  429MOL0     C56506   5.845   5.953   7.858 -0.1335 -0.3605 -0.3426
  429MOL0     C56507   5.894   5.860   7.752  0.6161  0.3671 -0.2934
  429MOL0     C56508   6.000   5.764   7.803 -0.2050  0.0263  0.4630
  429MOL0     C56509   6.063   5.686   7.691 -0.2775  0.7350  0.4396
  429MOL0     C56510   6.177   5.610   7.736  0.1108  0.4402  0.0563
  429MOL0     C56511   6.269   5.530   7.632 -0.3268 -0.3106 -0.7473
  429MOL0     C56512   6.228   5.379   7.597 -0.2603  0.0472  0.7718
  429MOL0     N56513   6.123   5.367   7.490 -0.2084 -0.3586 -0.8943
  429MOL0     C56514   6.148   5.370   7.362 -0.4962 -0.2165 -0.3205
  429MOL0     C56515   6.020   5.375   7.302 -1.5618 -0.2452 -0.2128
  429MOL0     C56516   6.011   5.408   7.157 -0.3244 -1.1103 -0.0272
  429MOL0     C56517   6.089   5.538   7.119  0.0730 -0.0018 -1.2716
  429MOL0     C56518   6.091   5.575   6.975  0.2555 -0.6402  0.0799
  429MOL0     C56519   6.143   5.475   6.872 -0.1842 -0.4072  0.1745
  429MOL0     O56520   6.145   5.544   6.742  0.2389 -0.1629  0.7264
  429MOL0     C56521   6.183   5.452   6.650 -0.0890 -0.0105  0.0127
  429MOL0     C56522   6.315   5.422   6.627  0.2362 -0.1984  0.2412
  429MOL0     C56523   6.340   5.327   6.534 -0.0712 -0.6353  0.3811
  429MOL0     C56524   6.244   5.244   6.472  0.0069  0.0820 -0.1228
  429MOL0     C56525   6.274   5.133   6.374 -0.1620 -0.7258 -0.4348
  429MOL0     O56526   6.405   5.107   6.354 -0.5337  0.2437 -0.4742
  429MOL0     C56527   6.449   5.010   6.264  0.2932 -0.4520 -0.7591
  429MOL0     C56528   6.575   4.942   6.291 -0.0573  0.1772  0.2784
  429MOL0     C56529   6.629   4.857   6.196  0.5657 -0.1013  0.2309
  429MOL0     C56530   6.563   4.834   6.076 -0.2891  0.5862 -0.0145
  429MOL0     O56531   6.642   4.757   5.987 -0.1098 -1.2179  0.1221
  429MOL0     C56532   6.567   4.680   5.897 -0.1437  0.4811 -0.1072
  429MOL0     C56533   6.653   4.557   5.866 -0.8099 -0.7028 -0.4636
  429MOL0     C56534   6.583   4.462   5.776  0.3461 -0.6770 -0.1448
  429MOL0     C56535   6.657   4.317   5.794  0.7353 -0.6850  0.6243
  429MOL0     C56536   6.580   4.212   5.712 -0.6257  0.3144 -0.0869
  429MOL0     C56537   6.644   4.071   5.729 -0.5152 -1.6293 -0.0606
  429MOL0     C56538   6.763   4.064   5.629  1.3012  0.1722  0.4924
  429MOL0     C56539   6.794   3.916   5.606  0.1582 -0.0259  0.3139
  429MOL0    Cl56540   6.867   3.838   5.747 -0.0210 -0.4323 -0.2507
  429MOL0     C56541   6.434   4.892   6.060 -0.1911  0.2688  0.5079
  429MOL0     C56542   6.377   4.982   6.149  0.1001  0.1560 -0.1737
  429MOL0     O56543   6.178   5.075   6.332 -0.6395  0.3254  0.2419
  429MOL0     C56544   6.108   5.284   6.491 -0.1664  0.4805 -0.6435
  429MOL0     C56545   6.081   5.389   6.577  0.9925  0.2335 -0.1434
  429MOL0     N56546   5.929   5.369   7.406  1.0284  0.0442 -0.6689
  429MOL0     N56547   5.984   5.359   7.513 -0.5108  0.1951  0.1996
  429MOL0     C56548   5.501   6.220   7.902  0.6322  0.0118  0.4232
  429MOL0     C56549   5.388   6.308   7.912 -0.2750 -0.0943  0.0729
  429MOL0     C56550   4.964   6.449   7.974 -0.0997 -0.3395 -0.1482
  429MOL0     C56551   4.909   6.532   8.080  0.6123 -0.8113  0.2767
  429MOL0     C56552   4.786   6.595   8.056 -0.9059 -0.0974  0.1768
  429MOL0     C56553   4.708   6.576   7.945 -0.3711 -0.4644  0.1589
  429MOL0     O56554   4.585   6.635   7.935  0.3967 -0.8591 -0.2462
  429MOL0     C56555   4.471   6.536   7.949 -0.1046  0.2947  0.0635
  429MOL0     C56556   4.346   6.609   7.992  0.1009  0.2013 -0.1184
  429MOL0     C56557   4.340   6.649   8.148 -0.0047  0.2179 -0.0473
  429MOL0     C56558   4.428   6.767   8.180  0.0163 -0.1776  0.2942
  429MOL0     C56559   4.511   6.750   8.295 -0.2279  1.2829 -0.3047
  429MOL0     C56560   4.580   6.758   8.396 -0.5535  0.2919  0.3778
  429MOL0     C56561   4.765   6.493   7.845  0.2625 -0.1029 -0.0064
  429MOL0     C56562   4.888   6.432   7.858 -0.4500  0.6405 -0.4741
  429MOL0     H56563   5.163   6.128   7.746 -0.4663  2.8810 -2.4906
  429MOL0     H56564   5.363   5.972   7.724 -2.7467  1.3014 -2.4476
  429MOL0     H56565   5.757   6.158   7.849 -1.4984  1.4442 -1.3739
  429MOL0     H56566   5.760   6.075   7.703 -1.2966  0.8675 -0.0904
  429MOL0     H56567   5.808   5.894   7.943  3.7052 -1.8804  0.4591
  429MOL0     H56568   5.934   6.001   7.899  0.1779 -1.9899  1.0028
  429MOL0     H56569   5.939   5.913   7.668  1.6122 -1.1673 -0.7486
  429MOL0     H56570   5.817   5.794   7.711  0.8992  1.2812 -2.4142
  429MOL0     H56571   6.074   5.833   7.844 -1.5396  1.1497  1.0787
  429MOL0     H56572   5.969   5.705   7.890 -0.0184  2.4402  2.2874
  429MOL0     H56573   6.091   5.763   7.620 -1.8506  1.3511  0.4518
  429MOL0     H56574   5.989   5.625   7.637  2.0414 -0.9159 -1.0389
  429MOL0     H56575   6.157   5.544   7.821  2.1563  0.6601  0.7636
  429MOL0     H56576   6.247   5.682   7.781 -1.0153  1.8885 -0.4354
  429MOL0     H56577   6.268   5.585   7.537 -0.1983  2.1196  0.5804
  429MOL0     H56578   6.371   5.539   7.670 -0.0922 -1.1248 -1.1689
  429MOL0     H56579   6.186   5.341   7.690 -1.3361  1.6645  0.9867
  429MOL0     H56580   6.319   5.326   7.568  0.8852  3.6500 -3.3661
  429MOL0     H56581   6.243   5.358   7.309 -0.2758  1.7132 -0.4380
  429MOL0     H56582   5.908   5.422   7.123 -0.6702  0.3984  1.5385
  429MOL0     H56583   6.067   5.333   7.100  0.1368 -1.0681  0.3653
  429MOL0     H56584   6.192   5.533   7.155 -0.9067  0.9743  1.9959
  429MOL0     H56585   6.042   5.625   7.165 -1.2652  1.1786 -4.6033
  429MOL0     H56586   5.989   5.602   6.945  0.0955  0.6690  1.6250
  429MOL0     H56587   6.155   5.663   6.959 -0.4045 -0.5497 -2.4120
  429MOL0     H56588   6.081   5.385   6.874 -0.5811 -0.1386 -0.1384
  429MOL0     H56589   6.246   5.442   6.894  0.7031  0.8320 -1.8640
  429MOL0     H56590   6.397   5.469   6.680 -0.0688 -0.8685  1.3408
  429MOL0     H56591   6.443   5.311   6.504  0.2520  2.7470 -0.7288
  429MOL0     H56592   6.638   4.972   6.374  3.1258 -4.7875  0.1057
  429MOL0     H56593   6.731   4.823   6.211  0.1810 -0.0145  4.0983
  429MOL0     H56594   6.551   4.732   5.801  1.7894 -1.4633 -1.5910
  429MOL0     H56595   6.472   4.645   5.939 -0.4187  0.4899 -0.7030
  429MOL0     H56596   6.676   4.515   5.965 -1.1310  1.2493  0.4798
  429MOL0     H56597   6.746   4.595   5.824 -0.2408 -1.9156 -0.3446
  429MOL0     H56598   6.589   4.487   5.670 -1.5751 -1.3565 -0.4527
  429MOL0     H56599   6.482   4.466   5.817  0.4253 -3.0982  0.5015
  429MOL0     H56600   6.757   4.308   5.752 -0.3973  0.0096 -2.5067
  429MOL0     H56601   6.656   4.294   5.901  2.2260  2.0883  1.3333
  429MOL0     H56602   6.568   4.243   5.608  1.9042  0.5767 -0.3696
  429MOL0     H56603   6.485   4.210   5.766  1.5399 -0.2941  4.1780
  429MOL0     H56604   6.571   3.993   5.710 -1.5416 -0.7655  0.2484
  429MOL0     H56605   6.681   4.052   5.831 -0.5751 -0.2773  0.2348
  429MOL0     H56606   6.721   4.091   5.532  1.2721  1.4006  0.8397
  429MOL0     H56607   6.850   4.127   5.648 -1.4000  5.0713 -1.5345
  429MOL0     H56608   6.861   3.910   5.520  1.0890 -2.7513  1.0941
  429MOL0     H56609   6.701   3.867   5.574 -2.5307  3.7577  1.5664
  429MOL0     H56610   6.382   4.865   5.968  0.7189  0.6696 -0.1397
  429MOL0     H56611   6.276   5.017   6.133  0.0713  0.5800  0.8620
  429MOL0     H56612   6.024   5.233   6.446 -0.7767 -1.0624  2.0199
  429MOL0     H56613   5.978   5.414   6.598  0.8663  0.7614 -1.2950
  429MOL0     H56614   5.597   6.255   7.939 -0.0294  0.8310  1.4348
  429MOL0     H56615   5.401   6.394   7.977 -0.7706 -0.0217  0.0755
  429MOL0     H56616   4.951   6.547   8.179 -0.4297  1.3789  0.4669
  429MOL0     H56617   4.734   6.660   8.126 -1.8896 -0.6657 -0.0148
  429MOL0     H56618   4.506   6.454   8.013 -0.5293 -0.1415 -0.2559
  429MOL0     H56619   4.447   6.495   7.850  2.3696 -1.5803  0.1269
  429MOL0     H56620   4.322   6.698   7.935  0.0566 -1.1185 -2.2767
  429MOL0     H56621   4.269   6.533   7.978 -3.1017  2.2694  4.1466
  429MOL0     H56622   4.360   6.559   8.207  2.0651 -0.0664 -1.0919
  429MOL0     H56623   4.241   6.692   8.169  0.6390  1.4601  0.5753
  429MOL0     H56624   4.497   6.784   8.097 -1.0153  1.6586 -0.2485
  429MOL0     H56625   4.369   6.859   8.193  1.9799  0.9716  1.7955
  429MOL0     H56626   4.640   6.779   8.482 -1.7396  0.7172  1.1284
  429MOL0     H56627   4.711   6.480   7.752  0.9313  0.4160 -0.4753
  429MOL0     H56628   4.931   6.374   7.776  0.5782  3.0958 -1.7805
  430MOL0     O56629   4.523   3.972   7.256 -0.0599  0.0933  0.0710
  430MOL0     C56630   4.602   4.046   7.314  0.5974 -1.0207 -1.5451
  430MOL0     O56631   4.607   4.052   7.449  0.2680 -0.1443  0.3951
  430MOL0     C56632   4.518   3.983   7.533 -0.0731  0.6141 -0.7332
  430MOL0     C56633   4.539   3.862   7.604 -0.9710 -0.0795 -0.3918
  430MOL0     C56634   4.439   3.802   7.679  0.3671  0.0659  0.0999
  430MOL0     C56635   4.319   3.862   7.708  0.1396 -0.4747 -0.4102
  430MOL0     O56636   4.208   3.819   7.777  0.2894  0.6397  0.4723
  430MOL0     C56637   4.221   3.711   7.871 -0.5284 -0.9563 -0.2278
  430MOL0     C56638   4.168   3.582   7.812  0.5832  0.9490  0.2320
  430MOL0     C56639   4.022   3.564   7.853  0.1333  0.2525 -0.7339
  430MOL0     C56640   3.956   3.449   7.769 -0.4349 -0.0073 -0.9872
  430MOL0     C56641   3.818   3.410   7.835  0.2336 -0.0157  0.3831
  430MOL0     C56642   3.837   3.335   7.969  0.7282 -0.0489  0.1593
  430MOL0     C56643   3.702   3.305   8.035 -0.0128 -0.8460 -0.4702
  430MOL0     C56644   3.708   3.210   8.150 -0.2558  0.2469 -0.2641
  430MOL0     N56645   3.572   3.168   8.181 -0.4017 -0.2061  0.0837
  430MOL0     C56646   3.509   3.042   8.155  0.1773  0.0046 -1.0775
  430MOL0     C56647   3.387   3.047   8.210  0.0872 -0.2881 -0.3446
  430MOL0     C56648   3.277   2.942   8.194  0.3258 -0.1688 -0.4261
  430MOL0     C56649   3.205   2.923   8.065  0.2168 -0.1673 -0.6239
  430MOL0     C56650   3.141   3.047   8.006  0.2419 -0.3641  0.1959
  430MOL0     C56651   3.248   3.118   7.912 -0.5200 -0.0146  0.3747
  430MOL0     O56652   3.245   3.057   7.786  0.1223  0.2542 -0.7195
  430MOL0     C56653   3.360   3.077   7.715 -0.1996  0.1469 -0.2590
  430MOL0     C56654   3.500   3.069   7.764  0.0414 -1.2403  0.0451
  430MOL0     C56655   3.611   3.069   7.685  0.2367 -0.0129  0.2601
  430MOL0     C56656   3.595   3.102   7.551  0.0961  0.0039  1.0876
  430MOL0     C56657   3.710   3.137   7.462  0.5516 -0.6741 -0.5359
  430MOL0     O56658   3.828   3.154   7.527 -0.3356 -0.5112  0.0019
  430MOL0     C56659   3.945   3.140   7.452 -0.6870  1.0579 -0.2436
  430MOL0     C56660   4.004   3.021   7.415 -0.2376 -0.4732 -0.6643
  430MOL0     C56661   4.119   3.018   7.336  0.8649  0.0667 -0.2062
  430MOL0     C56662   4.186   3.139   7.311 -0.0965 -1.0129  0.1937
  430MOL0     O56663   4.309   3.150   7.255 -0.3227  0.3041  1.2637
  430MOL0     C56664   4.374   3.035   7.219  0.5646 -0.3525  0.5320
  430MOL0     C56665   4.523   3.058   7.180 -0.0056  0.5322  0.1453
  430MOL0     C56666   4.528   3.140   7.054  0.2761  0.3096  1.0816
  430MOL0     C56667   4.666   3.162   7.027 -0.9992 -0.0837 -0.5692
  430MOL0     C56668   4.739   3.036   7.001  0.3326  0.4724  0.3831
  430MOL0     C56669   4.873   3.041   6.928  0.9169  0.7608  0.2537
  430MOL0     C56670   4.962   3.141   6.983  0.0427 -0.3742 -0.0098
  430MOL0     C56671   5.062   3.190   6.883  0.4578 -0.5517 -0.8378
  430MOL0    Cl56672   4.996   3.263   6.740 -0.4529  0.3620 -0.3727
  430MOL0     C56673   4.127   3.264   7.359  0.6285  1.0237 -0.3477
  430MOL0     C56674   4.009   3.257   7.421  1.3955 -1.3286 -0.0967
  430MOL0     O56675   3.692   3.158   7.340 -0.3940 -0.3026 -0.6621
  430MOL0     C56676   3.464   3.100   7.500  0.3382 -0.9510  0.4269
  430MOL0     C56677   3.346   3.081   7.578 -0.3707  0.1006  0.1469
  430MOL0     N56678   3.370   3.174   8.264 -0.3351  0.2979 -1.2836
  430MOL0     N56679   3.483   3.236   8.256  0.3481  0.3341  0.4958
  430MOL0     C56680   4.290   3.984   7.640 -0.0400  0.3118  0.0611
  430MOL0     C56681   4.390   4.035   7.544 -0.3062  0.5065 -0.9136
  430MOL0     C56682   4.709   4.125   7.245  0.0738 -0.3276 -0.0034
  430MOL0     C56683   4.820   4.191   7.310  1.1219  0.5606  0.7387
  430MOL0     C56684   4.921   4.253   7.232 -0.6261  0.5415 -0.1195
  430MOL0     C56685   4.896   4.274   7.095  0.2418 -0.5586  0.0063
  430MOL0     O56686   4.978   4.347   7.005 -0.1482 -0.1196  0.1861
  430MOL0     C56687   5.123   4.375   7.034  0.3790 -0.4309  0.9228
  430MOL0     C56688   5.205   4.249   7.038  0.8937  0.4814  0.5431
  430MOL0     C56689   5.349   4.279   7.065 -0.0564  0.1463 -1.3285
  430MOL0     C56690   5.432   4.151   7.052 -0.3606 -1.4988 -0.3951
  430MOL0     C56691   5.571   4.189   7.095 -0.8495 -0.0128  0.1151
  430MOL0     C56692   5.677   4.210   7.150  0.6384  0.1984  0.0478
  430MOL0     C56693   4.778   4.228   7.035 -0.0217  1.2696 -0.5184
  430MOL0     C56694   4.694   4.149   7.111  0.1634  0.1961  0.2372
  430MOL0     H56695   4.628   3.804   7.577  0.5856  2.7198 -1.7659
  430MOL0     H56696   4.453   3.702   7.719  0.0449 -1.1611 -2.6087
  430MOL0     H56697   4.151   3.742   7.950 -2.1847 -0.9625 -1.6244
  430MOL0     H56698   4.324   3.703   7.905 -1.0036  2.6411  2.7676
  430MOL0     H56699   4.228   3.501   7.857 -0.6090 -0.8654 -1.2859
  430MOL0     H56700   4.182   3.566   7.705 -0.7972 -0.6442  0.2343
  430MOL0     H56701   3.962   3.654   7.840 -0.3316  0.2218  0.9310
  430MOL0     H56702   4.021   3.545   7.961 -1.3740 -0.4060 -0.8265
  430MOL0     H56703   3.936   3.487   7.669 -3.1167 -1.2230 -1.0020
  430MOL0     H56704   4.027   3.366   7.763  1.3764  1.4847 -0.9972
  430MOL0     H56705   3.753   3.354   7.768 -2.4242  1.7666  1.3200
  430MOL0     H56706   3.768   3.506   7.851  1.1059  0.2372  1.6992
  430MOL0     H56707   3.914   3.394   8.021  2.2111  1.2809 -3.2475
  430MOL0     H56708   3.882   3.237   7.953  0.2510 -0.4963  1.4651
  430MOL0     H56709   3.657   3.398   8.072  3.7486  1.2566 -0.7624
  430MOL0     H56710   3.640   3.257   7.959 -3.3080  2.0394  0.1221
  430MOL0     H56711   3.763   3.255   8.233 -1.0385  0.1833  0.3030
  430MOL0     H56712   3.772   3.126   8.122  1.4542  1.0503  1.0878
  430MOL0     H56713   3.553   2.956   8.104 -0.4947 -1.4772  0.6943
  430MOL0     H56714   3.199   2.960   8.268 -0.4855  1.4456 -1.6061
  430MOL0     H56715   3.319   2.843   8.211  0.8405  0.1482  0.2038
  430MOL0     H56716   3.122   2.855   8.085  1.0848 -1.8845 -2.4779
  430MOL0     H56717   3.274   2.874   7.995  2.2402  1.0236  0.4435
  430MOL0     H56718   3.056   3.015   7.945  0.6775 -1.4772  0.1547
  430MOL0     H56719   3.107   3.110   8.089  3.5845 -0.6995  1.9788
  430MOL0     H56720   3.347   3.119   7.959 -0.4085  3.0671  0.2507
  430MOL0     H56721   3.225   3.224   7.904 -2.3163 -0.3425  0.7787
  430MOL0     H56722   3.521   3.052   7.869 -0.1418  1.1339  0.5105
  430MOL0     H56723   3.705   3.082   7.737 -0.9465  2.9388  1.9002
  430MOL0     H56724   3.953   2.930   7.445  1.2941 -0.6544  1.6175
  430MOL0     H56725   4.153   2.921   7.303 -0.0773 -0.4685  0.3276
  430MOL0     H56726   4.322   2.978   7.142  0.4322 -0.9333  1.0325
  430MOL0     H56727   4.385   2.979   7.313 -0.6827  2.5524  2.5915
  430MOL0     H56728   4.554   2.956   7.155 -2.4377 -0.0312 -0.8707
  430MOL0     H56729   4.589   3.108   7.252 -0.2308  2.8251 -1.1354
  430MOL0     H56730   4.479   3.237   7.067 -0.2559  0.9721 -3.9916
  430MOL0     H56731   4.482   3.090   6.968  0.1404 -0.1950  1.4418
  430MOL0     H56732   4.685   3.238   6.950  1.5242 -0.7251 -0.6684
  430MOL0     H56733   4.707   3.215   7.113 -0.0195  2.8659 -2.7009
  430MOL0     H56734   4.682   2.963   6.944 -0.5508  2.0568 -0.8262
  430MOL0     H56735   4.754   2.989   7.099 -0.5636 -0.0639  0.2743
  430MOL0     H56736   4.851   3.066   6.824  0.9754  2.8749  0.6932
  430MOL0     H56737   4.918   2.942   6.936  0.4388  0.6965  4.2482
  430MOL0     H56738   4.903   3.225   7.022  0.6578 -1.1745  2.8817
  430MOL0     H56739   5.008   3.103   7.075  0.4635 -0.6646 -0.3364
  430MOL0     H56740   5.129   3.109   6.853 -0.0980 -1.3383 -0.0308
  430MOL0     H56741   5.124   3.259   6.941  0.7673 -0.0083 -1.7909
  430MOL0     H56742   4.164   3.366   7.355  1.9370  0.5383 -1.2575
  430MOL0     H56743   3.956   3.347   7.449  3.8157 -0.0673  0.7315
  430MOL0     H56744   3.458   3.100   7.392  4.9545 -0.2580 -0.0619
  430MOL0     H56745   3.246   3.072   7.536  0.3532 -0.2370 -1.5465
  430MOL0     H56746   4.195   4.034   7.658 -0.8348 -0.2862 -2.1884
  430MOL0     H56747   4.382   4.133   7.497  3.8441  1.2083 -0.5621
  430MOL0     H56748   4.828   4.191   7.418  2.3049  0.9064  0.6596
  430MOL0     H56749   5.018   4.297   7.254 -0.4857  0.7251 -1.0506
  430MOL0     H56750   5.129   4.424   7.132  2.9933  0.3187  0.4601
  430MOL0     H56751   5.166   4.436   6.954  0.3211  0.5929  1.6572
  430MOL0     H56752   5.153   4.167   7.089 -1.5051  1.5491  0.0005
  430MOL0     H56753   5.217   4.209   6.937  2.5925  0.8039  0.5983
  430MOL0     H56754   5.365   4.321   7.165 -2.7467  0.2848 -0.8897
  430MOL0     H56755   5.382   4.358   6.995  0.4482 -0.7979 -2.1857
  430MOL0     H56756   5.407   4.084   7.135  2.3553  1.4584  3.1094
  430MOL0     H56757   5.429   4.116   6.948 -0.6601 -1.5975 -0.3542
  430MOL0     H56758   5.771   4.232   7.196  2.0330 -2.2599 -1.4433
  430MOL0     H56759   4.743   4.242   6.933  1.3058  3.5697 -0.7296
  430MOL0     H56760   4.600   4.118   7.065 -0.0580  1.5485 -0.2784
  431MOL0     O56761   8.007   5.063   9.179 -0.4124  0.1506  0.4461
  431MOL0     C56762   8.002   4.977   9.090 -0.4535 -0.1509 -0.0342
  431MOL0     O56763   7.890   4.934   9.033  0.0804 -0.2783 -0.2630
  431MOL0     C56764   7.773   4.943   9.107  0.2800  0.5657  0.8486
  431MOL0     C56765   7.704   4.824   9.132  0.4543  0.2958  0.5827
  431MOL0     C56766   7.573   4.824   9.176 -0.1999 -0.3573 -0.0771
  431MOL0     C56767   7.516   4.946   9.213 -0.3062  0.3798  0.4215
  431MOL0     O56768   7.389   4.954   9.260 -0.0384 -0.0032  0.1983
  431MOL0     C56769   7.293   4.862   9.209 -0.9507 -0.1746  0.1860
  431MOL0     C56770   7.188   4.953   9.132 -0.9648  0.8802 -0.3742
  431MOL0     C56771   7.233   5.060   9.040 -0.3183 -0.7578  0.8765
  431MOL0     C56772   7.110   5.127   8.978  0.3210  0.1976 -0.2088
  431MOL0     C56773   7.052   5.043   8.853  1.0704 -0.4881  0.6656
  431MOL0     C56774   7.150   5.048   8.727  0.4882 -0.5344  0.3989
  431MOL0     C56775   7.092   4.959   8.619  0.3888  0.0503  0.8582
  431MOL0     C56776   7.026   5.038   8.515  0.4284 -0.1935  0.6420
  431MOL0     N56777   7.113   5.114   8.422  0.0792  0.9292  0.6871
  431MOL0     C56778   7.198   5.060   8.328 -0.4615  0.4451 -0.9285
  431MOL0     C56779   7.271   5.153   8.280  0.0513 -0.6387  0.3439
  431MOL0     C56780   7.368   5.138   8.164 -0.1348 -0.9466  0.2925
  431MOL0     C56781   7.472   5.027   8.188  0.2777 -0.1982 -0.5346
  431MOL0     C56782   7.581   5.050   8.088 -0.6642  0.6775  0.5702
  431MOL0     C56783   7.679   4.934   8.072 -0.4374  0.1486  0.1640
  431MOL0     O56784   7.620   4.803   8.033  0.0555  0.2816  1.2731
  431MOL0     C56785   7.633   4.756   7.901 -0.2424 -0.2784 -1.0334
  431MOL0     C56786   7.623   4.613   7.878 -0.2652  0.1564 -0.0565
  431MOL0     C56787   7.657   4.549   7.758  0.4263 -0.5692 -0.3491
  431MOL0     C56788   7.703   4.629   7.652 -0.6369 -0.9038  0.2085
  431MOL0     C56789   7.751   4.573   7.522  0.2956  1.1880  0.4884
  431MOL0     O56790   7.857   4.639   7.459 -0.2143 -0.0643  0.1653
  431MOL0     C56791   7.908   4.588   7.349 -0.0637  0.3781  1.0419
  431MOL0     C56792   8.032   4.521   7.352 -0.0158 -0.8582 -0.1390
  431MOL0     C56793   8.093   4.480   7.242 -0.6005  0.3255  0.2323
  431MOL0     C56794   8.042   4.513   7.118  0.3523 -0.1620 -0.1918
  431MOL0     O56795   8.096   4.477   6.997  0.0017 -0.0276 -0.1826
  431MOL0     C56796   8.235   4.488   6.994 -0.8610 -0.4263  0.4298
  431MOL0     C56797   8.276   4.439   6.848 -0.2706  0.6499 -0.0665
  431MOL0     C56798   8.260   4.287   6.812  0.6905 -0.2261 -0.5276
  431MOL0     C56799   8.337   4.195   6.917 -1.0821  0.3404  0.5244
  431MOL0     C56800   8.343   4.042   6.868  0.4982  0.1649  0.0583
  431MOL0     C56801   8.215   3.977   6.904  0.4461 -0.3218  0.8466
  431MOL0     C56802   8.208   3.947   7.063 -0.2787  1.1950 -1.1699
  431MOL0     C56803   8.095   3.845   7.102  0.0027  0.8737  0.5167
  431MOL0    Cl56804   8.087   3.700   6.992  0.2040  0.0478 -0.1657
  431MOL0     C56805   7.917   4.579   7.110 -0.7628  0.2169  0.3432
  431MOL0     C56806   7.857   4.619   7.226  0.4217  1.5495 -0.2751
  431MOL0     O56807   7.712   4.465   7.490 -0.2360  0.0112  1.1361
  431MOL0     C56808   7.715   4.771   7.670  0.2692  0.6938  0.7998
  431MOL0     C56809   7.681   4.834   7.792 -0.3846  0.1484 -0.2633
  431MOL0     N56810   7.237   5.271   8.338  0.4036  0.2822 -0.0244
  431MOL0     N56811   7.152   5.245   8.427 -0.1354 -0.0894 -0.6404
  431MOL0     C56812   7.589   5.066   9.201  0.0805 -0.6030  0.3547
  431MOL0     C56813   7.719   5.065   9.140 -0.0793 -0.7702 -0.3116
  431MOL0     C56814   8.134   4.939   9.025  1.3999 -0.6110 -0.7727
  431MOL0     C56815   8.262   4.960   9.082  0.6640  0.4655  0.0970
  431MOL0     C56816   8.374   4.936   9.008  0.0234  0.3672 -1.2638
  431MOL0     C56817   8.366   4.883   8.871  0.0898 -0.4732 -1.6767
  431MOL0     O56818   8.479   4.863   8.808  1.2213  0.2018  0.2718
  431MOL0     C56819   8.477   4.808   8.676  0.6761 -0.4744  1.2375
  431MOL0     C56820   8.617   4.753   8.641 -0.5128 -1.1701  0.0676
  431MOL0     C56821   8.612   4.661   8.519  0.1758 -0.1984 -1.5306
  431MOL0     C56822   8.749   4.603   8.476 -0.0769 -0.9687  0.0659
  431MOL0     C56823   8.800   4.501   8.568 -0.1962  0.3676 -0.5447
  431MOL0     C56824   8.827   4.400   8.636  0.5754 -0.2251 -0.8792
  431MOL0     C56825   8.239   4.863   8.820  0.2220 -0.7315 -0.0132
  431MOL0     C56826   8.128   4.886   8.894  0.1257 -0.5413 -0.6119
  431MOL0     H56827   7.767   4.736   9.125 -0.8764 -0.5464 -2.1770
  431MOL0     H56828   7.531   4.726   9.197  0.7838 -0.6206  0.7796
  431MOL0     H56829   7.250   4.801   9.288  2.1412 -0.3072  1.9458
  431MOL0     H56830   7.335   4.797   9.131 -0.1306  1.1604 -0.5369
  431MOL0     H56831   7.123   5.000   9.206 -1.1073  0.1760 -0.0393
  431MOL0     H56832   7.124   4.878   9.086  0.0180 -0.7798  0.8569
  431MOL0     H56833   7.296   5.017   8.961  2.2704  3.6514  0.2506
  431MOL0     H56834   7.292   5.135   9.092  1.0997  0.6292 -2.4248
  431MOL0     H56835   7.024   5.142   9.044 -2.3490 -2.0487 -2.8793
  431MOL0     H56836   7.151   5.213   8.924  4.1591 -1.3939 -0.1136
  431MOL0     H56837   6.957   5.080   8.812 -0.6730 -4.6535  0.5144
  431MOL0     H56838   7.035   4.938   8.879 -1.7497 -0.2830 -0.0369
  431MOL0     H56839   7.245   5.006   8.761  1.6920  0.7275 -1.2946
  431MOL0     H56840   7.177   5.149   8.696 -0.1796 -0.8679 -1.3548
  431MOL0     H56841   7.157   4.877   8.588 -3.6568 -2.3909 -2.0957
  431MOL0     H56842   7.017   4.887   8.652 -0.3053 -1.7727 -3.9437
  431MOL0     H56843   6.952   5.105   8.559  0.1704 -1.9822  3.1740
  431MOL0     H56844   6.982   4.962   8.450  1.2216  0.4447 -0.6966
  431MOL0     H56845   7.193   4.956   8.299  0.2330  0.3809 -0.8304
  431MOL0     H56846   7.421   5.234   8.158 -1.1824 -0.3631  0.0595
  431MOL0     H56847   7.309   5.117   8.075  2.2973  3.5445 -2.7761
  431MOL0     H56848   7.431   4.925   8.183 -2.1349  0.5757  1.3409
  431MOL0     H56849   7.500   5.041   8.293 -2.0099  3.0631 -0.2244
  431MOL0     H56850   7.537   5.067   7.989  1.3953  1.3877 -0.2726
  431MOL0     H56851   7.633   5.144   8.109  1.2434 -0.3582  0.6345
  431MOL0     H56852   7.716   4.913   8.173 -3.9524  1.0346  1.7999
  431MOL0     H56853   7.748   4.972   7.997 -0.8965  0.0900 -0.2948
  431MOL0     H56854   7.585   4.549   7.957 -3.9837  3.0403  0.8078
  431MOL0     H56855   7.645   4.443   7.742 -3.7729  0.1112 -3.8828
  431MOL0     H56856   8.074   4.509   7.452 -0.0121 -1.4790 -0.2089
  431MOL0     H56857   8.195   4.448   7.257 -0.0330  2.3145  1.0632
  431MOL0     H56858   8.275   4.414   7.064 -0.7054 -0.4319  0.3351
  431MOL0     H56859   8.272   4.589   7.017  0.6841 -0.8836  0.0983
  431MOL0     H56860   8.383   4.444   6.828  0.0049 -3.1317 -0.2850
  431MOL0     H56861   8.216   4.492   6.773 -1.6648 -2.8360 -1.6126
  431MOL0     H56862   8.309   4.264   6.717  0.7551 -0.7588 -0.3705
  431MOL0     H56863   8.153   4.263   6.812  0.4440  0.7775  0.4012
  431MOL0     H56864   8.438   4.236   6.911 -1.2012  0.4402 -1.4372
  431MOL0     H56865   8.301   4.185   7.020 -0.7058 -2.8353  0.4698
  431MOL0     H56866   8.426   3.986   6.913  2.2499  3.2247  0.9486
  431MOL0     H56867   8.352   4.044   6.759 -0.2485 -2.7336 -0.1231
  431MOL0     H56868   8.218   3.881   6.852 -2.2228 -0.4530  0.8325
  431MOL0     H56869   8.127   4.024   6.861  1.1217 -0.0349 -0.2847
  431MOL0     H56870   8.305   3.903   7.085  0.1531  2.1750 -1.0603
  431MOL0     H56871   8.200   4.033   7.130  2.4876 -0.8625  2.0823
  431MOL0     H56872   8.000   3.900   7.096  0.5763  1.7465 -1.1996
  431MOL0     H56873   8.108   3.798   7.200 -0.9354 -3.0974 -1.0983
  431MOL0     H56874   7.872   4.606   7.015 -1.9081 -1.5279  0.3492
  431MOL0     H56875   7.769   4.681   7.214 -0.1607  0.5848 -1.2027
  431MOL0     H56876   7.752   4.823   7.582  2.8298  0.3264  1.5894
  431MOL0     H56877   7.690   4.942   7.801 -2.8080  0.4690 -0.9403
  431MOL0     H56878   7.557   5.168   9.219  3.2427  0.1809  2.3282
  431MOL0     H56879   7.771   5.160   9.135 -1.4740  0.4426  3.9454
  431MOL0     H56880   8.271   5.006   9.180  2.2602  3.0406 -1.1464
  431MOL0     H56881   8.474   4.957   9.045 -0.0504 -1.0298 -0.1531
  431MOL0     H56882   8.444   4.882   8.602  0.0080 -2.7979 -0.9074
  431MOL0     H56883   8.419   4.717   8.662  0.6962 -0.4761  1.1646
  431MOL0     H56884   8.682   4.836   8.612  0.3347 -1.2469  1.6102
  431MOL0     H56885   8.645   4.696   8.730 -2.8418  1.6869  2.8802
  431MOL0     H56886   8.572   4.733   8.447 -0.9424  2.7142  1.7735
  431MOL0     H56887   8.543   4.579   8.543 -1.0462  1.7140  2.2520
  431MOL0     H56888   8.753   4.556   8.377  1.1505 -0.6512 -0.0530
  431MOL0     H56889   8.815   4.690   8.463  0.6152 -1.6983 -1.6000
  431MOL0     H56890   8.843   4.314   8.697  1.7736  0.1196 -0.6795
  431MOL0     H56891   8.221   4.829   8.719 -0.2720 -1.9937  0.4853
  431MOL0     H56892   8.029   4.892   8.852  0.4485 -0.0736 -1.3203
  432MOL0     O56893   4.823   4.969   9.705 -0.3236 -0.6464  1.0559
  432MOL0     C56894   4.884   4.892   9.627  0.2175  0.8464  0.3561
  432MOL0     O56895   4.837   4.828   9.512 -0.3677 -0.2945 -0.8925
  432MOL0     C56896   4.707   4.860   9.483  0.8198  0.3143  0.2779
  432MOL0     C56897   4.604   4.769   9.491  0.3751  0.1925  1.6097
  432MOL0     C56898   4.481   4.803   9.444 -0.3963 -0.2608  0.0322
  432MOL0     C56899   4.445   4.932   9.395  0.2024 -0.5278  0.4251
  432MOL0     O56900   4.313   4.957   9.359 -1.3939  0.1569  0.3785
  432MOL0     C56901   4.233   4.848   9.310 -0.8910  0.1648 -0.8918
  432MOL0     C56902   4.115   4.918   9.240 -0.2550  0.7927 -0.0675
  432MOL0     C56903   4.002   4.815   9.192  0.3167  0.2927  0.2330
  432MOL0     C56904   3.877   4.874   9.128  0.1706  0.6650  0.8061
  432MOL0     C56905   3.782   4.763   9.076  0.7313  0.1622 -0.5933
  432MOL0     C56906   3.665   4.814   9.000 -0.8547  0.4827 -1.1493
  432MOL0     C56907   3.600   4.697   8.938  0.7874  0.4583  0.2057
  432MOL0     C56908   3.502   4.732   8.826  0.1273 -0.3544 -0.1703
  432MOL0     N56909   3.407   4.829   8.888 -0.3367 -0.5957  0.0063
  432MOL0     C56910   3.313   4.820   8.982  0.2346  0.4245  0.9342
  432MOL0     C56911   3.261   4.945   9.000 -0.4619  0.5062  0.4690
  432MOL0     C56912   3.149   4.980   9.091  1.1713 -0.2193  0.9247
  432MOL0     C56913   3.021   5.030   9.014 -1.2155  0.4634  0.2019
  432MOL0     C56914   2.927   5.115   9.108  0.5344 -0.4566  0.5127
  432MOL0     C56915   2.793   5.166   9.045  0.4469 -0.6075 -0.4538
  432MOL0     O56916   2.712   5.239   9.144  0.1275 -0.2207  0.7908
  432MOL0     C56917   2.590   5.296   9.109  0.2117 -0.4216 -0.3307
  432MOL0     C56918   2.529   5.290   8.982 -0.7518 -1.0231 -1.1960
  432MOL0     C56919   2.401   5.339   8.968 -0.5562 -0.3587 -0.3823
  432MOL0     C56920   2.347   5.409   9.083 -0.5712  0.3566  0.1584
  432MOL0     C56921   2.217   5.475   9.076  0.4816 -0.0175  2.2620
  432MOL0     O56922   2.173   5.510   8.953  1.0120  0.3722 -0.0103
  432MOL0     C56923   2.039   5.547   8.938 -1.5116 -0.0658  0.0285
  432MOL0     C56924   1.948   5.605   9.026 -0.1342  1.1735  0.0910
  432MOL0     C56925   1.824   5.655   8.985  0.0211  1.1078  1.0585
  432MOL0     C56926   1.792   5.653   8.845  0.1763 -1.1107  0.1574
  432MOL0     O56927   1.669   5.706   8.811 -0.9771  0.3826  0.0498
  432MOL0     C56928   1.666   5.797   8.698  0.1748 -0.0136  0.2352
  432MOL0     C56929   1.536   5.866   8.706 -0.5014 -0.9245 -0.5722
  432MOL0     C56930   1.411   5.768   8.722 -0.2143 -0.1119  0.5587
  432MOL0     C56931   1.271   5.826   8.677 -0.4957  0.2546 -0.0388
  432MOL0     C56932   1.173   5.704   8.677  0.9459  0.5114 -0.4347
  432MOL0     C56933   1.026   5.750   8.713 -0.6607  0.0433 -0.1565
  432MOL0     C56934   0.986   5.871   8.624  1.0148 -0.1966 -0.4529
  432MOL0     C56935   0.840   5.906   8.666 -0.5580  0.2204  0.2896
  432MOL0    Cl56936   0.730   5.838   8.533 -0.2698  0.1502  0.1368
  432MOL0     C56937   1.888   5.606   8.758 -0.1696 -0.4216  0.5070
  432MOL0     C56938   2.008   5.551   8.800  0.8763 -0.3453 -0.0674
  432MOL0     O56939   2.157   5.485   9.182  0.4809 -0.5306  0.1903
  432MOL0     C56940   2.414   5.424   9.206 -0.1241  0.6264 -0.5734
  432MOL0     C56941   2.533   5.363   9.220 -0.1478  0.4004  1.1118
  432MOL0     N56942   3.311   5.024   8.901 -0.7354 -0.6430 -0.1359
  432MOL0     N56943   3.400   4.958   8.834 -0.0177 -0.5779 -0.8259
  432MOL0     C56944   4.548   5.031   9.413 -0.0170  0.2416  0.8354
  432MOL0     C56945   4.675   4.993   9.448  0.1351  0.3928  0.1006
  432MOL0     C56946   5.015   4.854   9.666  0.4959 -0.0576 -1.1891
  432MOL0     C56947   5.087   4.936   9.755  0.4201 -0.0205 -0.4193
  432MOL0     C56948   5.220   4.900   9.805  0.0527  0.2282  0.6666
  432MOL0     C56949   5.271   4.782   9.762  0.3676  0.4813  0.1569
  432MOL0     O56950   5.385   4.749   9.833 -0.6059 -0.0963  1.7481
  432MOL0     C56951   5.427   4.609   9.808 -0.1930 -0.1116 -0.0893
  432MOL0     C56952   5.514   4.578   9.935  1.0094 -0.5174 -0.0593
  432MOL0     C56953   5.565   4.437   9.931 -0.5377  0.4306 -0.5437
  432MOL0     C56954   5.611   4.394  10.078 -0.6912 -0.7039  0.3663
  432MOL0     C56955   5.693   4.279  10.060 -0.8183 -0.1690  0.9281
  432MOL0     C56956   5.746   4.173  10.048 -0.8513 -0.2932  0.3385
  432MOL0     C56957   5.212   4.710   9.663 -0.5130  0.2123 -0.2454
  432MOL0     C56958   5.084   4.734   9.616 -0.0369 -0.6029  0.1433
  432MOL0     H56959   4.625   4.672   9.535  1.6986 -0.0387  0.5252
  432MOL0     H56960   4.406   4.725   9.428  0.5951 -1.0027 -1.1330
  432MOL0     H56961   4.181   4.791   9.388 -2.6948  1.0663 -1.3765
  432MOL0     H56962   4.285   4.776   9.246  2.0314  0.9779  0.4229
  432MOL0     H56963   4.145   4.975   9.152 -0.5202  1.9145  0.5482
  432MOL0     H56964   4.082   4.989   9.317 -0.1282  1.6517 -0.7984
  432MOL0     H56965   3.971   4.773   9.288 -0.0096  1.1528  0.5178
  432MOL0     H56966   4.044   4.738   9.126  1.7661  1.7127 -0.5868
  432MOL0     H56967   3.831   4.930   9.210  2.2061  0.2520  2.3389
  432MOL0     H56968   3.917   4.936   9.048  1.0495  2.9257  2.8616
  432MOL0     H56969   3.752   4.702   9.162  0.5403  1.8764  0.6145
  432MOL0     H56970   3.839   4.696   9.011 -0.3223 -1.3965  0.0305
  432MOL0     H56971   3.693   4.889   8.927  1.3393  0.2475 -0.6229
  432MOL0     H56972   3.598   4.851   9.078  1.4840  0.3957  1.0613
  432MOL0     H56973   3.663   4.620   8.894 -4.0071 -3.6261 -0.4315
  432MOL0     H56974   3.542   4.635   9.007 -0.6447 -0.3945 -1.6592
  432MOL0     H56975   3.449   4.638   8.803 -1.7952  0.6484 -0.0621
  432MOL0     H56976   3.539   4.772   8.732  0.4394 -2.8851 -1.2166
  432MOL0     H56977   3.289   4.739   9.050  1.0366 -0.5721  0.0651
  432MOL0     H56978   3.172   5.071   9.147  0.7954  1.4933 -1.5546
  432MOL0     H56979   3.133   4.900   9.164  2.1814 -2.4706 -1.1863
  432MOL0     H56980   2.969   4.945   8.968  2.2014 -0.6905 -1.8207
  432MOL0     H56981   3.052   5.090   8.928  1.3192 -0.1449  0.6243
  432MOL0     H56982   2.904   5.052   9.194  0.0657  2.4130  2.5995
  432MOL0     H56983   2.981   5.198   9.153  1.3412  1.3281 -3.3216
  432MOL0     H56984   2.738   5.081   9.002  0.1630  0.3195 -1.9914
  432MOL0     H56985   2.822   5.230   8.962  2.1443  0.8297  1.1550
  432MOL0     H56986   2.585   5.250   8.897  3.0302  3.9976 -1.5353
  432MOL0     H56987   2.345   5.332   8.875 -1.4674 -2.8168  0.2829
  432MOL0     H56988   1.963   5.623   9.132  0.1912  2.7066 -0.2001
  432MOL0     H56989   1.751   5.701   9.051 -1.0683  1.8875 -0.6287
  432MOL0     H56990   1.674   5.745   8.603  1.2688  2.3347 -1.0264
  432MOL0     H56991   1.750   5.865   8.706  1.3548 -1.5106  1.2060
  432MOL0     H56992   1.513   5.923   8.615 -1.5583  1.8885  1.3174
  432MOL0     H56993   1.528   5.941   8.785 -1.6200 -0.9670 -0.6279
  432MOL0     H56994   1.403   5.725   8.823  0.9604 -2.5115 -0.2931
  432MOL0     H56995   1.436   5.691   8.649  1.1547  0.7969  0.0525
  432MOL0     H56996   1.235   5.907   8.741 -1.0761  0.3927 -0.5345
  432MOL0     H56997   1.274   5.870   8.577 -0.7134  2.1651  0.7389
  432MOL0     H56998   1.213   5.623   8.738 -0.7947  0.5494  0.8199
  432MOL0     H56999   1.164   5.669   8.573 -2.3798 -1.8548  0.4694
  432MOL0     H57000   1.017   5.785   8.816 -0.7057  1.8083 -0.7132
  432MOL0     H57001   0.972   5.657   8.695  0.7115 -0.3396 -2.9055
  432MOL0     H57002   1.052   5.955   8.649  1.7467 -1.1113  0.8016
  432MOL0     H57003   0.998   5.863   8.515 -0.9051  2.7397 -1.0008
  432MOL0     H57004   0.830   6.014   8.673 -0.3196  0.2985 -0.4735
  432MOL0     H57005   0.819   5.861   8.763  2.7673  0.4169  1.2234
  432MOL0     H57006   1.869   5.601   8.652  1.8061 -1.8611  0.1670
  432MOL0     H57007   2.075   5.504   8.730 -0.8273 -0.9048 -1.3888
  432MOL0     H57008   2.372   5.480   9.289  3.3225  1.1843  0.9754
  432MOL0     H57009   2.596   5.361   9.308 -0.7104 -1.3281  1.5208
  432MOL0     H57010   4.528   5.137   9.398  0.9408  0.4181  0.7476
  432MOL0     H57011   4.737   5.081   9.466 -1.1080  1.1696  0.7737
  432MOL0     H57012   5.040   5.027   9.793 -0.6048 -0.5570 -0.3559
  432MOL0     H57013   5.275   4.962   9.875 -0.1966 -0.7468  1.7688
  432MOL0     H57014   5.482   4.602   9.714 -0.7089  0.2235 -0.4219
  432MOL0     H57015   5.345   4.537   9.809  0.3799 -0.8458 -1.9701
  432MOL0     H57016   5.599   4.646   9.939 -1.4012  3.0613 -3.3797
  432MOL0     H57017   5.446   4.584  10.020  1.4975  0.5708  0.2625
  432MOL0     H57018   5.637   4.430   9.849 -0.3501  0.0380 -0.3480
  432MOL0     H57019   5.480   4.376   9.900 -2.8245  1.8272  2.4428
  432MOL0     H57020   5.663   4.471  10.136  0.4878  0.3996 -2.0135
  432MOL0     H57021   5.519   4.369  10.131 -2.1700  1.9534 -0.7475
  432MOL0     H57022   5.805   4.089  10.016  0.6453  0.4071  1.2200
  432MOL0     H57023   5.256   4.620   9.621 -4.0056 -2.5452  1.4607
  432MOL0     H57024   5.033   4.674   9.541  0.1542 -0.2126 -0.3122
  433MOL0     O57025   3.372   3.395   7.641  0.2442  0.3168 -0.2702
  433MOL0     C57026   3.437   3.492   7.671 -0.5118  0.1244 -0.9484
  433MOL0     O57027   3.413   3.575   7.776  0.0909  0.2890  0.9678
  433MOL0     C57028   3.298   3.569   7.853  0.2903 -0.4712  0.2928
  433MOL0     C57029   3.163   3.531   7.805 -1.2693  0.4675 -0.3059
  433MOL0     C57030   3.051   3.543   7.888 -0.2548 -0.3141  0.4597
  433MOL0     C57031   3.066   3.592   8.020 -0.1723  0.1854  0.4976
  433MOL0     O57032   2.947   3.602   8.097  0.1229 -0.0960 -0.0025
  433MOL0     C57033   2.947   3.507   8.207  0.4423  0.1808 -0.0018
  433MOL0     C57034   2.821   3.493   8.279  1.1082 -0.1568 -0.8494
  433MOL0     C57035   2.763   3.624   8.322 -0.0411 -0.7203  0.9870
  433MOL0     C57036   2.634   3.588   8.397  0.7819  1.1071  0.1089
  433MOL0     C57037   2.568   3.716   8.444 -0.8399  0.1445 -0.7911
  433MOL0     C57038   2.424   3.686   8.486  0.4602 -0.1367  0.3208
  433MOL0     C57039   2.323   3.773   8.397  0.3229  0.5689  0.3315
  433MOL0     C57040   2.187   3.724   8.416  0.5559 -0.2067  0.4843
  433MOL0     N57041   2.090   3.820   8.375  0.9574  0.8419 -0.1119
  433MOL0     C57042   2.021   3.906   8.454 -0.2635  0.1072 -0.4497
  433MOL0     C57043   1.924   3.956   8.375 -0.4595  0.4715 -0.6905
  433MOL0     C57044   1.806   4.042   8.417  1.0494  0.0983  0.5040
  433MOL0     C57045   1.740   4.105   8.306 -0.0011 -0.2165  0.6893
  433MOL0     C57046   1.644   4.024   8.221 -0.3778 -0.5127  1.2830
  433MOL0     C57047   1.508   4.016   8.289  0.6440 -0.2398  0.1078
  433MOL0     O57048   1.434   4.116   8.215 -0.1574 -0.2265  0.4092
  433MOL0     C57049   1.327   4.159   8.296 -0.1465 -0.3971 -0.0232
  433MOL0     C57050   1.224   4.063   8.318  0.1431  0.1053 -0.5115
  433MOL0     C57051   1.108   4.108   8.390 -0.5507  0.4722  0.0716
  433MOL0     C57052   1.098   4.235   8.432  0.4340  0.2545  0.4439
  433MOL0     C57053   0.977   4.277   8.512 -0.8048 -0.7353 -0.4902
  433MOL0     O57054   0.991   4.403   8.567  0.2191  0.1762  0.4846
  433MOL0     C57055   0.878   4.461   8.625 -0.1667 -1.0822  0.5861
  433MOL0     C57056   0.881   4.493   8.760  0.5805 -0.5249  0.4962
  433MOL0     C57057   0.772   4.553   8.823  0.8585 -0.1462  0.6007
  433MOL0     C57058   0.643   4.568   8.760  0.3056 -0.5015  0.0134
  433MOL0     O57059   0.545   4.615   8.844 -0.2143  0.2032  0.5012
  433MOL0     C57060   0.413   4.610   8.794  0.7105 -0.2716 -0.7660
  433MOL0     C57061   0.375   4.711   8.680 -0.9018 -0.3503  0.5450
  433MOL0     C57062   0.241   4.706   8.604 -0.5865  0.0765  0.3392
  433MOL0     C57063   0.238   4.582   8.509 -0.4208 -0.2249  0.1504
  433MOL0     C57064   0.111   4.581   8.414 -0.3310  1.0249  0.0601
  433MOL0     C57065   0.140   4.474   8.292  0.7773 -0.9733  0.1832
  433MOL0     C57066   0.237   4.527   8.191 -0.8623 -0.2387  1.9558
  433MOL0     C57067   0.268   4.415   8.088 -0.3244 -0.6288 -0.3197
  433MOL0    Cl57068   0.360   4.474   7.947 -0.2748 -0.3095 -0.4006
  433MOL0     C57069   0.647   4.532   8.624  0.2105  1.2248  0.2564
  433MOL0     C57070   0.759   4.485   8.551 -0.1107  0.5347 -0.1347
  433MOL0     O57071   0.876   4.208   8.515 -0.3541  0.3048  1.0564
  433MOL0     C57072   1.206   4.320   8.406 -0.1206 -0.0889  1.3316
  433MOL0     C57073   1.319   4.289   8.342  1.1830 -0.2273  0.4591
  433MOL0     N57074   1.935   3.896   8.250  0.4689  0.6485  1.1128
  433MOL0     N57075   2.041   3.820   8.254  0.1104  0.2190 -0.2908
  433MOL0     C57076   3.187   3.644   8.057  0.1412  0.4053  0.0824
  433MOL0     C57077   3.304   3.634   7.973 -0.2824  0.2237 -1.1798
  433MOL0     C57078   3.547   3.536   7.579 -0.1588 -0.1798 -0.5143
  433MOL0     C57079   3.591   3.460   7.469 -0.6516 -1.4878 -0.4335
  433MOL0     C57080   3.704   3.500   7.394 -0.3157 -0.0172  0.7794
  433MOL0     C57081   3.769   3.621   7.414 -0.3939 -0.3803  0.3546
  433MOL0     O57082   3.869   3.653   7.322  0.9882  0.2372 -0.1368
  433MOL0     C57083   3.934   3.779   7.322  0.6510 -0.4778  0.6913
  433MOL0     C57084   4.068   3.778   7.392  0.1691  0.1423 -0.4697
  433MOL0     C57085   4.147   3.644   7.365  0.0212 -0.7853 -0.6279
  433MOL0     C57086   4.297   3.690   7.352  1.3533  0.1172  0.7582
  433MOL0     C57087   4.371   3.565   7.338 -0.1138 -0.3242  0.2489
  433MOL0     C57088   4.438   3.465   7.340  0.4118  0.2513  0.1390
  433MOL0     C57089   3.730   3.703   7.524  0.5240  1.1132  0.0491
  433MOL0     C57090   3.616   3.659   7.605 -0.7237 -0.1196 -0.5443
  433MOL0     H57091   3.149   3.492   7.705 -3.6474 -0.1941  0.2353
  433MOL0     H57092   2.954   3.505   7.858  0.4205 -2.4551  0.7959
  433MOL0     H57093   3.020   3.536   8.283 -1.4705  0.1014  1.9713
  433MOL0     H57094   2.971   3.408   8.167 -0.0684 -0.0901  0.3474
  433MOL0     H57095   2.843   3.432   8.367 -0.5442 -0.7946 -0.8586
  433MOL0     H57096   2.744   3.445   8.219  0.8657  0.3673 -0.9673
  433MOL0     H57097   2.745   3.673   8.226  1.6140 -1.7722  0.0843
  433MOL0     H57098   2.825   3.693   8.380 -3.8874  2.2718  1.9807
  433MOL0     H57099   2.566   3.543   8.325 -0.8314  1.0992  1.5810
  433MOL0     H57100   2.649   3.529   8.488 -0.8166  2.8533  1.5903
  433MOL0     H57101   2.561   3.788   8.362 -3.1908 -1.0369 -1.7343
  433MOL0     H57102   2.628   3.752   8.528 -0.7758  0.0782 -0.8090
  433MOL0     H57103   2.407   3.694   8.594 -0.2118  2.1589  0.0960
  433MOL0     H57104   2.414   3.579   8.467 -0.1744 -0.2808  1.4130
  433MOL0     H57105   2.322   3.880   8.422  2.1098  0.2507  2.0416
  433MOL0     H57106   2.349   3.757   8.292  0.3028 -3.6300  0.7989
  433MOL0     H57107   2.175   3.698   8.522 -0.2481  2.6070  1.1541
  433MOL0     H57108   2.166   3.631   8.362 -4.0338  0.2776  1.0287
  433MOL0     H57109   2.034   3.924   8.560  0.6014  1.2882 -0.7299
  433MOL0     H57110   1.838   4.127   8.478 -1.6538  1.8478 -0.3221
  433MOL0     H57111   1.731   3.982   8.470 -0.3482  0.3932 -1.0711
  433MOL0     H57112   1.811   4.157   8.241 -1.0614 -0.1559 -0.4794
  433MOL0     H57113   1.683   4.190   8.343  0.3083  1.1343 -1.7084
  433MOL0     H57114   1.639   4.080   8.128  1.7568  0.1858  1.5355
  433MOL0     H57115   1.669   3.920   8.195 -0.3603 -0.1470 -0.2379
  433MOL0     H57116   1.508   4.057   8.390 -0.2441  1.6733 -0.6329
  433MOL0     H57117   1.459   3.919   8.274 -2.3755  1.2241 -0.3052
  433MOL0     H57118   1.235   3.961   8.283  0.8394  0.4367 -1.2908
  433MOL0     H57119   1.036   4.029   8.408  1.4280 -1.8631 -1.7002
  433MOL0     H57120   0.978   4.485   8.809  0.0884 -0.5597  1.4756
  433MOL0     H57121   0.783   4.574   8.929 -0.6520  2.1701  0.3642
  433MOL0     H57122   0.346   4.625   8.879  3.7993 -0.7570  1.9568
  433MOL0     H57123   0.383   4.511   8.758 -2.1483 -1.1479  3.3180
  433MOL0     H57124   0.453   4.721   8.604 -1.1570  2.6561  0.5817
  433MOL0     H57125   0.372   4.807   8.732  0.0546  1.4901 -2.4900
  433MOL0     H57126   0.216   4.795   8.546  0.9832 -0.1643 -0.7718
  433MOL0     H57127   0.175   4.699   8.691 -0.1698  3.1428  1.0288
  433MOL0     H57128   0.331   4.578   8.451 -0.2257 -0.1581  0.4544
  433MOL0     H57129   0.231   4.490   8.568  1.6538  0.8926  2.3051
  433MOL0     H57130   0.098   4.684   8.380 -1.3251  1.0617  0.4980
  433MOL0     H57131   0.025   4.547   8.472 -2.2574  1.5241 -2.3638
  433MOL0     H57132   0.042   4.463   8.246 -0.9458  3.1426  2.3567
  433MOL0     H57133   0.159   4.377   8.340 -1.7058 -0.9678  1.3756
  433MOL0     H57134   0.198   4.617   8.142  2.3692  0.9310  1.2507
  433MOL0     H57135   0.322   4.556   8.252  0.3705  1.4807 -0.4020
  433MOL0     H57136   0.171   4.370   8.062 -1.2753  0.6528  0.8962
  433MOL0     H57137   0.320   4.329   8.132  1.6477 -2.3050 -5.2283
  433MOL0     H57138   0.558   4.543   8.563 -0.1256  0.7089  0.6484
  433MOL0     H57139   0.759   4.483   8.443  0.2106 -3.4607 -0.2048
  433MOL0     H57140   1.206   4.423   8.441 -0.5885  2.0288 -4.0125
  433MOL0     H57141   1.393   4.363   8.315  0.3447  0.4688 -0.0063
  433MOL0     H57142   3.188   3.698   8.151 -0.3054 -1.4702  1.1908
  433MOL0     H57143   3.393   3.679   8.017 -0.1489 -1.1161 -0.0304
  433MOL0     H57144   3.547   3.362   7.455 -2.2777 -0.8233 -0.2550
  433MOL0     H57145   3.737   3.439   7.311 -2.0873  2.5302 -1.9971
  433MOL0     H57146   3.866   3.854   7.363 -0.6601 -0.9067 -0.6365
  433MOL0     H57147   3.946   3.802   7.216 -1.8896  2.6574  0.9399
  433MOL0     H57148   4.120   3.867   7.356 -2.3771  1.6489 -0.6500
  433MOL0     H57149   4.053   3.786   7.500 -2.1243 -0.6524 -0.6670
  433MOL0     H57150   4.128   3.603   7.265 -1.0750 -0.5485 -0.5337
  433MOL0     H57151   4.128   3.568   7.441  1.2378 -0.9398 -0.4646
  433MOL0     H57152   4.314   3.755   7.266 -1.2062 -1.7673 -1.3429
  433MOL0     H57153   4.331   3.742   7.442  3.3124 -0.8949  0.6700
  433MOL0     H57154   4.485   3.369   7.335 -0.1085  0.0335 -2.9930
  433MOL0     H57155   3.777   3.797   7.548  2.3040 -0.2959  2.6076
  433MOL0     H57156   3.577   3.719   7.686 -0.7812 -2.1999  1.0507
  434MOL0     O57157   9.446   7.235   2.540 -1.1522  0.3128  1.7127
  434MOL0     C57158   9.465   7.338   2.596  0.5023 -0.7497 -0.5472
  434MOL0     O57159   9.363   7.418   2.630  0.7234  0.0702  0.1453
  434MOL0     C57160   9.231   7.393   2.586 -0.0634  0.0465 -0.3990
  434MOL0     C57161   9.135   7.328   2.668  0.4252 -1.0395  0.0340
  434MOL0     C57162   9.004   7.326   2.624 -0.8232  0.7958  0.6070
  434MOL0     C57163   8.964   7.351   2.495  0.3084 -0.5367  0.7170
  434MOL0     O57164   8.827   7.350   2.473 -0.4259  0.8339  0.0414
  434MOL0     C57165   8.794   7.338   2.335  0.4507 -0.6911  0.5562
  434MOL0     C57166   8.791   7.478   2.256  0.3502 -0.1264  0.3465
  434MOL0     C57167   8.655   7.544   2.280  0.4501  1.0832  0.1226
  434MOL0     C57168   8.645   7.676   2.204  0.5619 -0.7447 -0.2115
  434MOL0     C57169   8.518   7.752   2.252  0.0860  0.5625 -0.6241
  434MOL0     C57170   8.515   7.883   2.182 -0.7865  0.8098  0.4488
  434MOL0     C57171   8.408   7.985   2.225 -0.2354 -0.2852  0.2622
  434MOL0     C57172   8.414   8.036   2.371  0.3733  0.3643 -1.1181
  434MOL0     N57173   8.327   8.151   2.385  0.0647  0.0970  0.4722
  434MOL0     C57174   8.354   8.258   2.464  0.3924 -0.1140  0.4328
  434MOL0     C57175   8.237   8.325   2.454 -0.7034  0.2646 -0.0811
  434MOL0     C57176   8.219   8.461   2.518 -0.0273 -0.8844  1.3077
  434MOL0     C57177   8.283   8.471   2.657 -1.4014  0.1553  0.4973
  434MOL0     C57178   8.217   8.368   2.752 -0.5553  0.6568  0.2002
  434MOL0     C57179   8.264   8.394   2.890  0.0050  0.0016  0.0907
  434MOL0     O57180   8.184   8.501   2.934 -0.0219 -0.3652 -0.4423
  434MOL0     C57181   8.187   8.544   3.062  0.0878  0.0391 -0.8785
  434MOL0     C57182   8.256   8.475   3.166 -0.1594  0.4421 -0.9961
  434MOL0     C57183   8.256   8.516   3.299  0.3679 -0.3031  0.6033
  434MOL0     C57184   8.185   8.633   3.335 -0.0176  0.2059 -0.4616
  434MOL0     C57185   8.173   8.682   3.477  0.3043  0.4767  0.2504
  434MOL0     O57186   8.252   8.627   3.568  0.6693 -0.4709  0.3891
  434MOL0     C57187   8.243   8.652   3.702  0.1981 -0.6352 -0.6177
  434MOL0     C57188   8.129   8.664   3.780 -0.0957  0.6768 -0.9369
  434MOL0     C57189   8.134   8.676   3.925  0.0106 -0.4076  0.8114
  434MOL0     C57190   8.259   8.696   3.984  0.8777 -0.5551  0.3076
  434MOL0     O57191   8.251   8.701   4.118 -0.7116  0.1953 -0.4409
  434MOL0     C57192   8.278   8.831   4.181  1.1184 -0.7978  0.2191
  434MOL0     C57193   8.264   8.832   4.337  0.3723 -0.0188 -0.7821
  434MOL0     C57194   8.131   8.902   4.376  0.1135  0.2202 -0.0129
  434MOL0     C57195   8.017   8.801   4.344  0.3595  0.1835  0.3012
  434MOL0     C57196   7.889   8.894   4.370 -0.6988  0.0299 -0.0367
  434MOL0     C57197   7.752   8.842   4.343  0.1023 -0.4170 -0.3395
  434MOL0     C57198   7.647   8.952   4.380 -0.8146 -0.1292 -0.1414
  434MOL0     C57199   7.505   8.906   4.369  0.7322 -0.4814 -0.2156
  434MOL0    Cl57200   7.475   8.882   4.189  0.2413  0.2745 -0.1164
  434MOL0     C57201   8.378   8.701   3.915 -0.3855  1.1429  0.5071
  434MOL0     C57202   8.368   8.667   3.770  0.1986 -0.1763 -0.5234
  434MOL0     O57203   8.092   8.770   3.502  0.2055  0.3293 -0.1289
  434MOL0     C57204   8.116   8.700   3.238  0.7695 -0.1156 -0.3112
  434MOL0     C57205   8.124   8.661   3.099 -0.8369  0.6903  0.0722
  434MOL0     N57206   8.136   8.247   2.385  0.0456  0.2542 -0.6103
  434MOL0     N57207   8.197   8.145   2.344  0.3424  0.3075  0.8656
  434MOL0     C57208   9.062   7.387   2.403 -0.2850  0.7451 -0.3212
  434MOL0     C57209   9.187   7.418   2.453  0.0159  1.2175  0.3871
  434MOL0     C57210   9.603   7.384   2.619  0.2171  0.3026  0.1879
  434MOL0     C57211   9.632   7.515   2.667  0.4585  0.3416  0.4691
  434MOL0     C57212   9.762   7.549   2.700  0.7684 -0.4744 -0.3818
  434MOL0     C57213   9.864   7.461   2.679 -0.2351  0.8969 -0.5829
  434MOL0     O57214   9.990   7.509   2.696  0.1423  0.0435 -0.1730
  434MOL0     C57215  10.006   7.623   2.602 -0.9453 -0.2152 -0.0756
  434MOL0     C57216  10.156   7.623   2.548 -0.4826  0.3947  0.3417
  434MOL0     C57217  10.262   7.697   2.631 -0.1007 -0.3348 -1.1439
  434MOL0     C57218  10.400   7.646   2.592  0.2118 -0.2813  0.8567
  434MOL0     C57219  10.426   7.685   2.456  0.7878  0.4880  0.0112
  434MOL0     C57220  10.474   7.719   2.348  0.8807  0.2957  1.2953
  434MOL0     C57221   9.840   7.337   2.624  0.5383 -0.4673 -0.7643
  434MOL0     C57222   9.709   7.294   2.590  0.2369 -0.3783 -0.5557
  434MOL0     H57223   9.165   7.314   2.771  3.2663 -0.2018 -0.5948
  434MOL0     H57224   8.938   7.287   2.701 -0.6377 -0.3623  0.1993
  434MOL0     H57225   8.691   7.303   2.324 -0.8681  2.7453  0.5703
  434MOL0     H57226   8.860   7.268   2.283  2.0420  0.2664  1.2339
  434MOL0     H57227   8.796   7.469   2.147 -1.2830  2.7658 -0.0726
  434MOL0     H57228   8.861   7.549   2.301 -0.3492  2.8290 -2.8328
  434MOL0     H57229   8.650   7.564   2.387 -0.3112  0.4441  0.2100
  434MOL0     H57230   8.572   7.475   2.262  2.3475 -2.4288  3.4869
  434MOL0     H57231   8.738   7.726   2.231 -1.1832  1.7626  1.7320
  434MOL0     H57232   8.642   7.662   2.096 -3.9776  0.1072 -0.3901
  434MOL0     H57233   8.524   7.772   2.359  0.3143  0.7196 -0.6652
  434MOL0     H57234   8.424   7.698   2.239  1.1831 -2.0232  1.2577
  434MOL0     H57235   8.518   7.869   2.074 -2.8939 -0.3341  0.4804
  434MOL0     H57236   8.609   7.927   2.217  1.3093 -2.3678 -0.6927
  434MOL0     H57237   8.428   8.074   2.165 -1.0262 -0.9010 -0.9328
  434MOL0     H57238   8.306   7.950   2.206 -0.3034  0.4165 -0.7184
  434MOL0     H57239   8.512   8.063   2.412  0.6933 -2.3811  0.1250
  434MOL0     H57240   8.373   7.964   2.443 -0.7286  1.3620 -0.7115
  434MOL0     H57241   8.449   8.280   2.511 -0.8533  1.7109  2.2608
  434MOL0     H57242   8.116   8.498   2.523  0.0933 -0.2972 -0.0250
  434MOL0     H57243   8.269   8.534   2.453  1.7140 -1.8466  1.5081
  434MOL0     H57244   8.295   8.572   2.698 -0.6207  1.0521 -1.8062
  434MOL0     H57245   8.388   8.440   2.650 -0.3702  3.5493 -1.3175
  434MOL0     H57246   8.109   8.365   2.741 -0.4215 -0.1364 -1.1477
  434MOL0     H57247   8.257   8.269   2.726  1.1627  1.5981 -0.9200
  434MOL0     H57248   8.371   8.418   2.888 -0.2001  0.9546  0.0934
  434MOL0     H57249   8.245   8.302   2.946  1.0008 -0.0607  0.3573
  434MOL0     H57250   8.316   8.390   3.136 -0.0170  0.1384  0.0789
  434MOL0     H57251   8.299   8.458   3.380  2.6994  0.2890 -0.1101
  434MOL0     H57252   8.028   8.655   3.741 -0.7834  3.1019  0.1183
  434MOL0     H57253   8.043   8.648   3.977  1.2454 -3.9307  1.3530
  434MOL0     H57254   8.204   8.896   4.134  0.3786 -2.6943 -1.4307
  434MOL0     H57255   8.380   8.861   4.156  0.0787  1.1395 -2.2048
  434MOL0     H57256   8.344   8.874   4.400 -0.1362 -2.0398  1.3253
  434MOL0     H57257   8.242   8.731   4.372  2.2343 -0.2217 -0.0665
  434MOL0     H57258   8.125   8.991   4.314 -1.5655  1.0782  1.2807
  434MOL0     H57259   8.127   8.932   4.482  0.9254 -2.3242  0.8208
  434MOL0     H57260   8.009   8.784   4.236 -0.5716 -1.3774  0.5754
  434MOL0     H57261   8.000   8.709   4.400  0.9373 -1.3147 -1.8379
  434MOL0     H57262   7.903   8.985   4.310  1.1774  0.1613  0.5478
  434MOL0     H57263   7.908   8.925   4.473  0.0585 -0.8057  0.0867
  434MOL0     H57264   7.744   8.751   4.404 -0.9487 -0.4831 -0.5440
  434MOL0     H57265   7.751   8.813   4.238  1.4732 -3.4262  0.3755
  434MOL0     H57266   7.666   8.969   4.486 -0.5869 -1.4532  0.0499
  434MOL0     H57267   7.655   9.034   4.307 -4.1191  0.8916  0.4616
  434MOL0     H57268   7.445   8.986   4.412  1.0767  0.4401 -1.3971
  434MOL0     H57269   7.470   8.819   4.425  0.3066 -1.3425 -1.7408
  434MOL0     H57270   8.474   8.732   3.954  0.1727  1.8221 -1.2819
  434MOL0     H57271   8.458   8.664   3.709 -1.7183 -1.3080 -3.4964
  434MOL0     H57272   8.053   8.788   3.250 -0.1190 -0.5996 -1.1804
  434MOL0     H57273   8.075   8.701   3.011 -1.5991 -0.6198 -0.1169
  434MOL0     H57274   9.036   7.394   2.298 -1.0750  1.2692 -0.1078
  434MOL0     H57275   9.259   7.467   2.388 -2.3263  3.5157 -0.7131
  434MOL0     H57276   9.550   7.582   2.692  0.2232 -0.5160  2.1375
  434MOL0     H57277   9.770   7.648   2.743 -3.3843 -1.0204  2.1698
  434MOL0     H57278   9.980   7.720   2.645  0.9049 -1.3157  3.9981
  434MOL0     H57279   9.954   7.617   2.506  1.1951  0.7971 -1.3687
  434MOL0     H57280  10.187   7.519   2.534  2.5501  1.2803 -0.2794
  434MOL0     H57281  10.147   7.670   2.449  1.1446 -0.4525 -0.2340
  434MOL0     H57282  10.241   7.669   2.734  3.8610 -5.7291 -1.3606
  434MOL0     H57283  10.267   7.806   2.631 -0.0322 -0.2567  2.0299
  434MOL0     H57284  10.471   7.704   2.652  1.5376 -0.9979  0.0394
  434MOL0     H57285  10.414   7.540   2.616  1.1074  0.1684  2.4763
  434MOL0     H57286  10.533   7.746   2.263 -0.2627  2.7152  1.1732
  434MOL0     H57287   9.916   7.271   2.584  1.1505  0.5308 -1.3029
  434MOL0     H57288   9.697   7.196   2.546 -0.1929  0.2632 -1.9513
  435MOL0     O57289   6.925   5.078   9.908  0.0972 -0.8053 -0.0641
  435MOL0     C57290   6.931   5.072   9.786 -0.5806  1.2879  0.9423
  435MOL0     O57291   6.826   5.095   9.703  0.1466  0.2547  0.1203
  435MOL0     C57292   6.704   5.134   9.754 -1.1268  1.0441  0.1857
  435MOL0     C57293   6.687   5.255   9.811  0.1506 -0.2328  0.3238
  435MOL0     C57294   6.558   5.301   9.853 -0.7987 -0.6670  0.8199
  435MOL0     C57295   6.448   5.216   9.840 -0.1514  0.3880 -0.3551
  435MOL0     O57296   6.325   5.267   9.881  0.0210 -0.6831  0.0096
  435MOL0     C57297   6.229   5.250   9.780  0.7364  0.5464  0.6231
  435MOL0     C57298   6.133   5.374   9.782  0.0030  0.0361 -0.1508
  435MOL0     C57299   5.989   5.349   9.740 -0.7709  0.6669  0.6080
  435MOL0     C57300   5.889   5.467   9.747  0.0676  0.2320  0.7380
  435MOL0     C57301   5.761   5.437   9.662 -0.7337  0.3239  0.1300
  435MOL0     C57302   5.691   5.569   9.632 -0.3792  0.2209  0.1746
  435MOL0     C57303   5.532   5.552   9.605 -1.6624  0.3280  0.1074
  435MOL0     C57304   5.483   5.622   9.472  0.5658 -0.3873 -0.1561
  435MOL0     N57305   5.492   5.767   9.483 -0.4648 -0.3098 -0.1475
  435MOL0     C57306   5.452   5.846   9.590  0.3600  0.9303 -0.5426
  435MOL0     C57307   5.446   5.974   9.537 -0.1131  0.3696  0.0136
  435MOL0     C57308   5.425   6.110   9.598  0.0211  0.8965 -0.3661
  435MOL0     C57309   5.275   6.137   9.595 -0.2408  0.4799  0.0653
  435MOL0     C57310   5.237   6.223   9.474 -0.1777  0.7632 -1.5567
  435MOL0     C57311   5.090   6.271   9.482  0.5177 -0.1359  0.4058
  435MOL0     O57312   5.048   6.300   9.348 -0.2537 -0.5366  0.8865
  435MOL0     C57313   4.928   6.358   9.325  0.2021  0.1283 -1.1443
  435MOL0     C57314   4.904   6.415   9.195  0.1137  0.3287 -0.2117
  435MOL0     C57315   4.785   6.480   9.158 -0.2880 -0.0845 -0.3509
  435MOL0     C57316   4.681   6.493   9.257 -0.1720 -1.2301  0.3987
  435MOL0     C57317   4.559   6.578   9.236 -0.2416 -0.0314 -0.2627
  435MOL0     O57318   4.472   6.598   9.339  0.4098 -0.0312  0.2139
  435MOL0     C57319   4.346   6.660   9.334 -0.4121  0.7081  0.2572
  435MOL0     C57320   4.268   6.688   9.214 -1.0913  0.1783 -0.1805
  435MOL0     C57321   4.140   6.715   9.218 -0.6660 -0.0594  0.0012
  435MOL0     C57322   4.081   6.739   9.346 -0.1788  0.1324  0.2556
  435MOL0     O57323   3.949   6.775   9.332 -0.2368  0.3434  0.2758
  435MOL0     C57324   3.880   6.850   9.439  0.2411  0.0712  0.1536
  435MOL0     C57325   3.727   6.880   9.416 -0.2521 -0.3922  0.4648
  435MOL0     C57326   3.720   6.953   9.286  0.6759 -0.3099 -1.1212
  435MOL0     C57327   3.589   7.023   9.275 -0.0585  0.0284 -0.6308
  435MOL0     C57328   3.475   6.922   9.240 -0.0983 -0.0305 -0.4548
  435MOL0     C57329   3.485   6.866   9.099  0.1611  0.5565 -0.6758
  435MOL0     C57330   3.360   6.784   9.089 -0.9104  0.0616 -0.4018
  435MOL0     C57331   3.331   6.748   8.935  0.1634 -0.7002 -1.1756
  435MOL0    Cl57332   3.472   6.668   8.884  0.4118 -0.4922  0.0808
  435MOL0     C57333   4.146   6.723   9.463 -0.6718  0.8619 -0.2120
  435MOL0     C57334   4.283   6.687   9.452  0.5785  0.3523 -0.1206
  435MOL0     O57335   4.535   6.606   9.120  0.1519  0.2265 -0.0176
  435MOL0     C57336   4.691   6.428   9.377  0.1831  0.9159 -0.5503
  435MOL0     C57337   4.808   6.352   9.407 -1.1030  0.3245  1.0481
  435MOL0     N57338   5.475   5.969   9.402  0.1315 -0.5175 -0.3711
  435MOL0     N57339   5.509   5.845   9.378 -0.0738  0.4422  0.4008
  435MOL0     C57340   6.476   5.082   9.793  0.7280 -0.5889 -0.0973
  435MOL0     C57341   6.599   5.050   9.744 -0.0050  0.7222 -0.0786
  435MOL0     C57342   7.069   5.035   9.740 -0.3009  0.1537 -0.1414
  435MOL0     C57343   7.089   4.999   9.602 -0.3278  0.3343 -0.9498
  435MOL0     C57344   7.221   4.959   9.556  0.6019  0.0936 -0.2758
  435MOL0     C57345   7.331   4.957   9.641 -0.5925  0.6682  0.4108
  435MOL0     O57346   7.455   4.908   9.591  0.2534  0.0034 -0.0596
  435MOL0     C57347   7.576   4.945   9.662 -0.7121 -0.2835  0.0630
  435MOL0     C57348   7.715   4.920   9.587 -0.3256  0.2240 -0.1494
  435MOL0     C57349   7.713   4.785   9.513  0.0857 -0.0249  0.4544
  435MOL0     C57350   7.842   4.760   9.439 -0.1882  0.6047 -0.0046
  435MOL0     C57351   7.858   4.621   9.379 -1.1221  0.2876 -0.2756
  435MOL0     C57352   7.872   4.516   9.325 -0.1129 -0.5939  0.3826
  435MOL0     C57353   7.310   4.976   9.779  0.0192 -0.0836 -0.4050
  435MOL0     C57354   7.187   5.032   9.826 -0.2094  0.2930 -0.9599
  435MOL0     H57355   6.770   5.325   9.816 -0.7088  0.9031 -0.8910
  435MOL0     H57356   6.540   5.406   9.876 -0.7603 -0.8050  1.4760
  435MOL0     H57357   6.178   5.154   9.794  0.9563  0.4975  1.1263
  435MOL0     H57358   6.277   5.244   9.683 -1.3487  1.3373 -0.5348
  435MOL0     H57359   6.177   5.447   9.713 -2.4111  2.4131  0.6904
  435MOL0     H57360   6.131   5.424   9.879  0.4074 -1.1981  0.5266
  435MOL0     H57361   5.945   5.278   9.810 -0.1590  2.7540  3.2891
  435MOL0     H57362   6.002   5.305   9.641  0.7374  1.9023  0.2181
  435MOL0     H57363   5.855   5.497   9.847  1.4589 -0.3289  1.4045
  435MOL0     H57364   5.944   5.547   9.696  4.0500 -1.8543  1.3660
  435MOL0     H57365   5.694   5.378   9.725 -0.5944  1.2178  1.1507
  435MOL0     H57366   5.784   5.382   9.571 -1.3336 -2.5431  1.5998
  435MOL0     H57367   5.746   5.608   9.546 -3.6843 -1.1400 -2.8264
  435MOL0     H57368   5.714   5.624   9.723 -0.9796  0.6789  0.0539
  435MOL0     H57369   5.497   5.449   9.612 -0.6847  0.0844  1.8905
  435MOL0     H57370   5.484   5.600   9.690 -1.4641 -0.0815  0.4500
  435MOL0     H57371   5.381   5.591   9.446  0.7861 -0.0770 -1.4635
  435MOL0     H57372   5.540   5.586   9.386  0.9515  1.2911 -0.6390
  435MOL0     H57373   5.435   5.819   9.694 -0.1655  2.1118 -0.3161
  435MOL0     H57374   5.484   6.185   9.544  2.4341  2.3899  3.8354
  435MOL0     H57375   5.463   6.103   9.700 -2.1840  0.0708  0.4640
  435MOL0     H57376   5.244   6.179   9.691 -3.9001 -1.2405 -0.1882
  435MOL0     H57377   5.232   6.036   9.595 -1.2745  0.8928  1.6018
  435MOL0     H57378   5.295   6.314   9.457  0.6521  0.8591  1.2826
  435MOL0     H57379   5.254   6.167   9.381 -0.1243  1.0895 -1.7441
  435MOL0     H57380   5.062   6.353   9.548 -2.7038  1.6336 -2.7771
  435MOL0     H57381   5.028   6.196   9.532  1.7824  0.3436  2.8119
  435MOL0     H57382   4.988   6.403   9.128  0.8220 -0.1059  0.7263
  435MOL0     H57383   4.768   6.536   9.066 -2.4250 -0.3799 -0.1676
  435MOL0     H57384   4.310   6.666   9.116  0.0589 -1.0526  0.5602
  435MOL0     H57385   4.082   6.723   9.127 -0.1350 -3.2903 -0.7427
  435MOL0     H57386   3.929   6.946   9.454 -3.8895  2.3632  0.2976
  435MOL0     H57387   3.872   6.788   9.530  0.0241  0.5567  0.4692
  435MOL0     H57388   3.687   6.931   9.504 -2.9565 -1.7190  0.1203
  435MOL0     H57389   3.678   6.782   9.406 -0.1427 -0.4330  0.3203
  435MOL0     H57390   3.750   6.885   9.206  0.9600 -1.5085 -0.0234
  435MOL0     H57391   3.799   7.028   9.295 -0.8699  1.1343  1.5113
  435MOL0     H57392   3.581   7.080   9.369  1.6903 -1.5022  0.5038
  435MOL0     H57393   3.591   7.093   9.191 -0.7190  1.9203  0.8511
  435MOL0     H57394   3.388   6.986   9.255  0.8651  1.1843  0.2123
  435MOL0     H57395   3.461   6.844   9.315 -0.9095 -0.6125 -1.1945
  435MOL0     H57396   3.573   6.804   9.079 -1.6233 -2.5205  0.3174
  435MOL0     H57397   3.475   6.941   9.019 -0.1665  1.0944 -0.1436
  435MOL0     H57398   3.371   6.689   9.144  0.0726  0.6371  0.4239
  435MOL0     H57399   3.273   6.835   9.132 -1.7182 -0.0203 -1.8893
  435MOL0     H57400   3.313   6.842   8.882  2.4497  0.1291 -0.6285
  435MOL0     H57401   3.251   6.676   8.918 -0.1064 -0.5732 -0.4720
  435MOL0     H57402   4.088   6.741   9.553 -3.3520 -0.3180 -1.5880
  435MOL0     H57403   4.337   6.681   9.545  1.4274 -2.3546 -0.6830
  435MOL0     H57404   4.600   6.421   9.436 -0.6179 -1.7993 -1.9299
  435MOL0     H57405   4.813   6.303   9.503 -0.0659  3.5472  2.8070
  435MOL0     H57406   6.396   5.009   9.783 -0.8226  1.1000 -0.4082
  435MOL0     H57407   6.621   4.958   9.690  0.5475 -1.3111  3.2951
  435MOL0     H57408   7.010   5.012   9.529 -0.6166  2.6865 -0.3192
  435MOL0     H57409   7.237   4.942   9.450 -0.5075  3.3718 -1.0926
  435MOL0     H57410   7.579   4.886   9.754 -4.7945  0.1047  0.6356
  435MOL0     H57411   7.575   5.048   9.700 -0.4235 -0.7536  1.4141
  435MOL0     H57412   7.727   4.987   9.501  1.6529 -1.7567 -1.5475
  435MOL0     H57413   7.801   4.916   9.654 -1.1625  1.1285  1.0184
  435MOL0     H57414   7.628   4.776   9.445 -1.8062 -0.1160  2.7091
  435MOL0     H57415   7.702   4.700   9.581 -1.4129 -1.7388 -1.7673
  435MOL0     H57416   7.842   4.826   9.352 -3.5504  2.3632  1.1305
  435MOL0     H57417   7.928   4.780   9.504  0.0306  2.5491 -0.8285
  435MOL0     H57418   7.856   4.423   9.274 -3.2353 -0.4003  0.8023
  435MOL0     H57419   7.397   4.972   9.844  0.4248 -1.5320 -0.9941
  435MOL0     H57420   7.175   5.063   9.929 -0.1861 -2.3501 -0.0765
  436MOL0     O57421  10.406   0.566   0.563  0.3109 -1.0639 -0.1996
  436MOL0     C57422  10.364   0.458   0.605 -0.4368  0.4855 -0.7203
  436MOL0     O57423  10.426   0.380   0.698 -0.1320  0.4371 -0.6213
  436MOL0     C57424  10.528   0.433   0.766  0.2142  0.4014  1.0401
  436MOL0     C57425  10.651   0.477   0.712  1.0387  0.5606  0.0664
  436MOL0     C57426  10.743   0.543   0.798 -0.0735 -0.4192 -0.0641
  436MOL0     C57427  10.713   0.559   0.933  0.1206  0.0595  0.3688
  436MOL0     O57428  10.811   0.631   0.997  0.6452 -0.0444 -1.1230
  436MOL0     C57429  10.796   0.667   1.138 -0.0527 -0.6159  0.4635
  436MOL0     C57430  10.868   0.801   1.160  0.0458  0.4545 -1.6029
  436MOL0     C57431  11.018   0.790   1.157 -0.8140  0.2293  0.2496
  436MOL0     C57432  11.080   0.769   1.027 -0.7218  0.0844  1.1052
  436MOL0     C57433  11.234   0.799   1.018 -0.1888 -0.0841  0.3152
  436MOL0     C57434  11.332   0.700   1.090 -0.1181  1.2495  0.3775
  436MOL0     C57435  11.468   0.703   1.031  0.1257  1.0979 -0.4414
  436MOL0     C57436  11.577   0.630   1.112 -0.3519  0.9095 -0.1269
  436MOL0     N57437  11.585   0.482   1.089  0.0641 -0.0326 -0.4734
  436MOL0     C57438  11.695   0.406   1.057 -1.9247 -0.1571 -0.6547
  436MOL0     C57439  11.654   0.277   1.054 -0.0978  0.0516  0.2348
  436MOL0     C57440  11.727   0.151   1.019 -0.6553 -0.6095  0.1887
  436MOL0     C57441  11.796   0.106   1.147 -0.0239  0.1530 -0.7203
  436MOL0     C57442  11.905  -0.012   1.133  1.1940 -0.3044 -0.5322
  436MOL0     C57443  11.965  -0.044   1.276  0.7663 -0.1841  1.2306
  436MOL0     O57444  12.070   0.045   1.305 -0.1135  1.2452  0.2130
  436MOL0     C57445  12.173   0.007   1.376  0.7214  1.3492  0.1970
  436MOL0     C57446  12.169  -0.103   1.464 -0.6158  0.7717 -0.7758
  436MOL0     C57447  12.286  -0.134   1.531 -0.2966 -0.0388 -0.3173
  436MOL0     C57448  12.397  -0.044   1.539  0.7218  0.0363 -0.3405
  436MOL0     C57449  12.520  -0.063   1.623 -0.1418  0.0434 -0.4582
  436MOL0     O57450  12.531  -0.191   1.688 -0.8361 -0.5206  0.6771
  436MOL0     C57451  12.650  -0.235   1.744  0.2951 -0.6042 -0.0381
  436MOL0     C57452  12.719  -0.167   1.851 -0.2101  0.0616  1.3538
  436MOL0     C57453  12.851  -0.204   1.889  1.1588 -0.0110  0.4696
  436MOL0     C57454  12.897  -0.321   1.853  0.1005 -0.4378  0.3766
  436MOL0     O57455  13.022  -0.359   1.888  0.5552 -0.0640  0.2354
  436MOL0     C57456  13.026  -0.369   2.028  1.7082  0.2933 -0.4414
  436MOL0     C57457  13.115  -0.502   2.052  0.1211 -0.3173  0.4046
  436MOL0     C57458  13.243  -0.512   1.967 -0.4144  0.5034 -0.2723
  436MOL0     C57459  13.319  -0.647   1.993  0.4295 -0.0762 -0.6905
  436MOL0     C57460  13.456  -0.662   1.912 -0.3597 -1.3120 -0.1224
  436MOL0     C57461  13.527  -0.790   1.947 -1.1831  0.6548 -0.7402
  436MOL0     C57462  13.674  -0.771   1.927 -0.8130  0.1397  0.3606
  436MOL0     C57463  13.748  -0.901   1.963 -0.1861  0.2327 -0.0867
  436MOL0    Cl57464  13.935  -0.878   1.946 -0.1177 -0.4156  0.3188
  436MOL0     C57465  12.822  -0.409   1.773  0.6282 -0.7652  0.1640
  436MOL0     C57466  12.698  -0.368   1.708  0.2668 -0.0523 -0.9520
  436MOL0     O57467  12.611   0.023   1.609 -0.0429  0.1598  0.3296
  436MOL0     C57468  12.389   0.061   1.448  0.1136 -0.9314  0.0011
  436MOL0     C57469  12.280   0.088   1.369 -0.2063  0.0138  0.1685
  436MOL0     N57470  11.531   0.276   1.104 -0.0412 -0.2941 -0.3771
  436MOL0     N57471  11.493   0.397   1.129 -0.0396  0.7723  0.6856
  436MOL0     C57472  10.603   0.506   0.991 -0.0320  0.1761 -1.2481
  436MOL0     C57473  10.509   0.441   0.908 -1.0566 -0.0126  0.4619
  436MOL0     C57474  10.246   0.412   0.528 -0.3684  1.3021  0.4241
  436MOL0     C57475  10.195   0.484   0.417  0.5079 -0.2145 -0.0479
  436MOL0     C57476  10.085   0.431   0.338 -0.6059 -0.4405  0.2736
  436MOL0     C57477  10.023   0.312   0.376  0.2827  0.2890 -0.0498
  436MOL0     O57478   9.914   0.276   0.302 -0.3422 -0.0574  0.3842
  436MOL0     C57479   9.853   0.147   0.318 -0.2355 -0.4507 -0.4941
  436MOL0     C57480   9.761   0.113   0.202 -0.5567 -0.0471  0.1964
  436MOL0     C57481   9.642   0.202   0.193  0.1441  0.4084 -0.2173
  436MOL0     C57482   9.531   0.116   0.262 -0.7105  0.4374  0.9338
  436MOL0     C57483   9.440   0.036   0.175  0.5481 -0.6531  1.0015
  436MOL0     C57484   9.357  -0.026   0.107 -0.3161  0.1531  0.2114
  436MOL0     C57485  10.071   0.238   0.487 -0.3633 -0.2507 -0.7442
  436MOL0     C57486  10.180   0.290   0.563 -0.9159  0.3462 -0.7256
  436MOL0     H57487  10.678   0.483   0.607  0.2415  1.8217 -0.0804
  436MOL0     H57488  10.831   0.587   0.752  0.0353 -0.1408  0.4021
  436MOL0     H57489  10.833   0.589   1.205  1.8419  1.3342  1.8181
  436MOL0     H57490  10.690   0.668   1.166 -0.7130 -3.7951 -1.4491
  436MOL0     H57491  10.847   0.835   1.262 -0.3640 -1.8357 -0.8607
  436MOL0     H57492  10.843   0.878   1.087 -1.0981  1.9417  0.2734
  436MOL0     H57493  11.049   0.710   1.224 -0.7630 -0.5986 -0.7454
  436MOL0     H57494  11.058   0.880   1.204 -0.3065 -0.1378  0.5253
  436MOL0     H57495  11.047   0.666   1.010 -0.8974 -0.3379  3.6438
  436MOL0     H57496  11.032   0.835   0.954 -2.2728  0.6054  2.5333
  436MOL0     H57497  11.254   0.901   1.053 -0.2751  0.4226 -1.0816
  436MOL0     H57498  11.265   0.787   0.914  0.0545  2.3317  0.0501
  436MOL0     H57499  11.283   0.604   1.068  3.6366 -0.3198 -2.2058
  436MOL0     H57500  11.342   0.715   1.198 -0.1017  0.4430  0.4972
  436MOL0     H57501  11.454   0.654   0.935  1.2828 -2.5263  1.0634
  436MOL0     H57502  11.496   0.808   1.019 -1.1003  1.4120 -0.6526
  436MOL0     H57503  11.569   0.646   1.220 -1.2141  0.1271 -0.0546
  436MOL0     H57504  11.676   0.666   1.083  1.4329 -4.1166 -1.3985
  436MOL0     H57505  11.780   0.451   1.007 -2.8153 -0.4936 -2.5805
  436MOL0     H57506  11.808   0.183   0.953 -0.8983  3.2853  1.5235
  436MOL0     H57507  11.664   0.072   0.978  3.2981 -3.0369 -1.8201
  436MOL0     H57508  11.723   0.072   1.221  2.5605  0.3347  2.1244
  436MOL0     H57509  11.836   0.194   1.199 -3.6042  0.3848  2.0826
  436MOL0     H57510  11.849  -0.099   1.097  0.1275  0.8452 -1.7830
  436MOL0     H57511  11.991   0.016   1.072  1.9985 -1.3769  0.0604
  436MOL0     H57512  12.004  -0.146   1.279 -0.2711 -0.6615 -0.1598
  436MOL0     H57513  11.882  -0.035   1.347 -2.0095  2.9604 -1.9926
  436MOL0     H57514  12.088  -0.176   1.468  1.5154 -1.6755 -0.0624
  436MOL0     H57515  12.283  -0.218   1.599  1.3692  0.5161  0.5009
  436MOL0     H57516  12.676  -0.071   1.880 -2.1834  0.1302 -1.4212
  436MOL0     H57517  12.903  -0.150   1.968  1.5584  0.8297 -0.3531
  436MOL0     H57518  12.926  -0.379   2.071  1.7274  1.6706 -0.0358
  436MOL0     H57519  13.076  -0.284   2.075  1.8984 -1.5875  3.0983
  436MOL0     H57520  13.050  -0.589   2.049 -1.7044  0.8702  2.3723
  436MOL0     H57521  13.146  -0.512   2.157  0.0393  1.2660  0.6113
  436MOL0     H57522  13.318  -0.435   1.984 -0.6237  0.4938  0.7305
  436MOL0     H57523  13.217  -0.514   1.861  0.8049  0.3956 -0.5877
  436MOL0     H57524  13.338  -0.645   2.101 -1.7410  0.5941 -0.2835
  436MOL0     H57525  13.252  -0.731   1.973  0.9991 -0.8182  0.4057
  436MOL0     H57526  13.517  -0.578   1.946 -2.2062 -0.2936  0.8511
  436MOL0     H57527  13.438  -0.652   1.805 -0.6021 -0.9953 -0.0536
  436MOL0     H57528  13.502  -0.875   1.882  4.3103  0.0128 -2.4765
  436MOL0     H57529  13.510  -0.818   2.051  1.4144  1.4499 -0.0450
  436MOL0     H57530  13.693  -0.739   1.824 -0.1936  1.5461  0.8886
  436MOL0     H57531  13.711  -0.687   1.987 -1.6799  2.7368 -2.4895
  436MOL0     H57532  13.708  -0.986   1.908 -1.0737  0.5943 -0.0203
  436MOL0     H57533  13.724  -0.919   2.068 -1.8077 -0.4277 -0.5547
  436MOL0     H57534  12.847  -0.510   1.745 -0.2042 -0.0551 -3.7169
  436MOL0     H57535  12.656  -0.419   1.622 -1.2610 -2.6977  1.2354
  436MOL0     H57536  12.482   0.117   1.442 -1.1839  1.3628  0.3143
  436MOL0     H57537  12.292   0.164   1.293  3.0296  1.5797  2.0385
  436MOL0     H57538  10.606   0.503   1.100  1.6346 -2.7310 -1.2708
  436MOL0     H57539  10.421   0.387   0.941 -0.0186 -2.7391 -0.9399
  436MOL0     H57540  10.254   0.571   0.387  3.4959 -2.1262 -0.1329
  436MOL0     H57541  10.057   0.480   0.245 -0.8045 -1.1417 -0.0396
  436MOL0     H57542   9.806   0.145   0.417  1.4785 -1.4970  0.3396
  436MOL0     H57543   9.931   0.071   0.332 -3.0979 -3.4202  0.6671
  436MOL0     H57544   9.818   0.128   0.110  1.5429 -2.7642  0.9253
  436MOL0     H57545   9.741   0.006   0.188 -1.3035  0.2992 -1.8699
  436MOL0     H57546   9.613   0.217   0.089  1.3732 -1.2648 -0.8542
  436MOL0     H57547   9.661   0.296   0.245 -0.5705  0.2528  0.3361
  436MOL0     H57548   9.575   0.048   0.335  0.9293  2.0337  1.5118
  436MOL0     H57549   9.468   0.185   0.320 -2.1297 -0.9419  1.1229
  436MOL0     H57550   9.282  -0.081   0.053 -0.1337  1.9182 -1.9914
  436MOL0     H57551  10.025   0.153   0.535 -0.2914  0.2278  0.1902
  436MOL0     H57552  10.215   0.241   0.653 -0.5421  4.8836  1.9138
  437MOL0     O57553   1.678   2.075   8.451  0.6467  0.3379  0.1422
  437MOL0     C57554   1.799   2.049   8.454  0.9342  0.0052  0.7374
  437MOL0     O57555   1.858   1.927   8.442  0.4235  0.0754 -0.4882
  437MOL0     C57556   1.769   1.826   8.422  0.9595  0.2490  0.4029
  437MOL0     C57557   1.702   1.800   8.298  0.8035 -0.0933 -0.2821
  437MOL0     C57558   1.600   1.707   8.295  0.4245  0.1351 -0.5260
  437MOL0     C57559   1.580   1.608   8.398 -0.2913  0.6714 -0.1130
  437MOL0     O57560   1.471   1.522   8.376  0.3769 -0.3153 -0.5778
  437MOL0     C57561   1.482   1.401   8.450 -0.1594  0.0602 -0.5423
  437MOL0     C57562   1.372   1.306   8.427 -0.5947 -0.7100 -0.3210
  437MOL0     C57563   1.353   1.291   8.274  1.0455  0.3336  1.0681
  437MOL0     C57564   1.244   1.180   8.251 -0.9798 -0.5869 -0.6145
  437MOL0     C57565   1.199   1.188   8.114 -0.7384 -0.2639  0.2193
  437MOL0     C57566   1.084   1.091   8.079 -0.1503 -0.6016  0.8877
  437MOL0     C57567   1.114   0.940   8.088  0.4053 -0.1244 -1.1875
  437MOL0     C57568   0.999   0.860   8.020 -0.3519 -0.3822 -0.2228
  437MOL0     N57569   1.012   0.717   8.015  0.2812 -0.5234 -0.7255
  437MOL0     C57570   1.063   0.642   7.913 -0.1084  0.5381  0.5196
  437MOL0     C57571   1.030   0.518   7.933  0.6634  0.0770 -0.0706
  437MOL0     C57572   1.088   0.401   7.860 -0.6174 -0.8863 -1.1863
  437MOL0     C57573   1.191   0.346   7.969 -0.1572 -0.1950 -0.0298
  437MOL0     C57574   1.247   0.220   7.903 -0.2110  0.5440 -0.0816
  437MOL0     C57575   1.380   0.175   7.969 -0.3124 -0.1408  0.6961
  437MOL0     O57576   1.362   0.164   8.110  0.2680  0.3412  0.4403
  437MOL0     C57577   1.271   0.075   8.162  0.8986  1.0211  0.7659
  437MOL0     C57578   1.241   0.078   8.297  0.6786 -0.3578  0.1775
  437MOL0     C57579   1.167  -0.022   8.368 -0.9894 -0.6351  0.4201
  437MOL0     C57580   1.109  -0.125   8.293  0.2346  0.5290  0.3252
  437MOL0     C57581   1.016  -0.220   8.351 -0.3847 -0.1712  0.3450
  437MOL0     O57582   1.020  -0.339   8.295 -0.5275 -0.6268  0.8211
  437MOL0     C57583   0.948  -0.449   8.346  0.1416  0.0235  0.1899
  437MOL0     C57584   0.807  -0.458   8.363  0.2336 -0.0592 -0.0147
  437MOL0     C57585   0.748  -0.574   8.400 -0.5550 -0.5746 -0.4338
  437MOL0     C57586   0.823  -0.687   8.427  0.6736 -0.4412 -0.3131
  437MOL0     O57587   0.767  -0.806   8.450  0.0356 -0.5518 -0.2618
  437MOL0     C57588   0.649  -0.820   8.535 -0.7108  0.1995 -0.0746
  437MOL0     C57589   0.583  -0.962   8.547  0.1725  0.3913  0.4291
  437MOL0     C57590   0.431  -0.963   8.588 -0.7549  1.0553 -0.1959
  437MOL0     C57591   0.387  -1.106   8.623  0.3358 -0.3785 -0.5454
  437MOL0     C57592   0.263  -1.126   8.720  0.1015  0.4482 -0.9845
  437MOL0     C57593   0.259  -1.270   8.770 -0.0869 -0.3497  1.0213
  437MOL0     C57594   0.214  -1.364   8.661  0.1348  0.2663  0.7699
  437MOL0     C57595   0.262  -1.509   8.692 -0.6127  0.1506 -0.2103
  437MOL0    Cl57596   0.184  -1.571   8.838  0.2661 -0.1106  0.3068
  437MOL0     C57597   0.960  -0.685   8.421 -0.4851  0.1621  0.6765
  437MOL0     C57598   1.020  -0.565   8.383 -1.1785  0.0464 -0.0923
  437MOL0     O57599   0.935  -0.176   8.438 -0.1641 -0.1507  0.1245
  437MOL0     C57600   1.139  -0.146   8.150 -0.4517 -0.1748  0.4711
  437MOL0     C57601   1.235  -0.047   8.093  0.5248 -1.1752  0.5747
  437MOL0     N57602   0.953   0.512   8.045 -0.1421  0.1069  0.0357
  437MOL0     N57603   0.933   0.632   8.095 -0.5489  0.5257  0.8903
  437MOL0     C57604   1.655   1.632   8.520  0.3169  0.2877  0.5715
  437MOL0     C57605   1.748   1.739   8.534 -0.3804 -0.9120  0.1680
  437MOL0     C57606   1.889   2.170   8.457  0.2372 -1.3780  0.4409
  437MOL0     C57607   1.840   2.296   8.463  0.3538 -0.1286 -0.3800
  437MOL0     C57608   1.927   2.412   8.453 -0.5758  0.0052  0.0173
  437MOL0     C57609   2.065   2.391   8.431 -0.3423 -0.1775  0.7553
  437MOL0     O57610   2.145   2.504   8.414 -0.0590  0.0378 -0.7594
  437MOL0     C57611   2.267   2.493   8.341 -0.2430 -0.2985 -0.6674
  437MOL0     C57612   2.241   2.443   8.204 -0.3569  0.1291 -0.8170
  437MOL0     C57613   2.351   2.481   8.107 -0.3948  0.2311  0.3245
  437MOL0     C57614   2.482   2.409   8.140 -0.4121  0.3749  0.3210
  437MOL0     C57615   2.560   2.376   8.017  0.7704  0.6600  0.0203
  437MOL0     C57616   2.616   2.335   7.917 -0.6419  0.1728 -0.2025
  437MOL0     C57617   2.112   2.261   8.420  0.1680  0.2122  0.8335
  437MOL0     C57618   2.026   2.155   8.431 -0.4743  0.3258  1.2264
  437MOL0     H57619   1.706   1.860   8.207 -1.1697  0.5854  0.0326
  437MOL0     H57620   1.554   1.702   8.197 -0.3515 -1.2605 -0.1142
  437MOL0     H57621   1.475   1.428   8.556 -1.0763  0.8815 -0.7982
  437MOL0     H57622   1.578   1.358   8.422 -0.5777 -1.1762 -0.1441
  437MOL0     H57623   1.277   1.337   8.471  0.3021 -0.0665  1.2443
  437MOL0     H57624   1.396   1.210   8.473 -0.5188 -1.2826 -1.5133
  437MOL0     H57625   1.442   1.244   8.231  0.1937  1.8656 -2.8751
  437MOL0     H57626   1.325   1.373   8.207 -3.5853 -1.7653  0.0129
  437MOL0     H57627   1.286   1.083   8.276 -2.2958 -1.2122 -0.7266
  437MOL0     H57628   1.150   1.199   8.305 -1.6520 -0.6184 -1.7481
  437MOL0     H57629   1.284   1.173   8.046 -1.1545  1.2506 -0.6803
  437MOL0     H57630   1.169   1.290   8.090  0.6382  0.6675  2.2270
  437MOL0     H57631   1.048   1.111   7.978  2.7312 -1.7312 -0.4615
  437MOL0     H57632   0.999   1.104   8.146 -1.0249 -1.5069 -0.0134
  437MOL0     H57633   1.207   0.916   8.035  0.1260 -6.0543  0.3595
  437MOL0     H57634   1.126   0.899   8.188  1.2521 -0.4658 -1.4182
  437MOL0     H57635   0.990   0.880   7.913 -0.5217  0.1352 -0.1168
  437MOL0     H57636   0.906   0.883   8.073 -0.4880 -2.4290  0.4906
  437MOL0     H57637   1.137   0.681   7.844  0.6695  0.9833  1.5684
  437MOL0     H57638   1.141   0.423   7.767  0.5972 -1.3000 -0.6063
  437MOL0     H57639   1.005   0.332   7.839 -2.2390  1.0470 -1.4799
  437MOL0     H57640   1.139   0.316   8.061  0.0340 -2.9499 -0.7522
  437MOL0     H57641   1.268   0.421   7.990 -1.2538  0.7838  0.6632
  437MOL0     H57642   1.183   0.133   7.918 -2.3869  1.8128 -1.3824
  437MOL0     H57643   1.267   0.241   7.798 -1.4406  0.5332 -0.3405
  437MOL0     H57644   1.456   0.247   7.936  2.2215 -3.2622 -0.8123
  437MOL0     H57645   1.411   0.076   7.933 -2.9651 -1.2779  1.3058
  437MOL0     H57646   1.278   0.167   8.347 -0.4266  0.8198 -1.0129
  437MOL0     H57647   1.158  -0.008   8.475 -0.3482  2.3537  0.1430
  437MOL0     H57648   0.735  -0.383   8.333 -0.1486 -1.0477 -1.6380
  437MOL0     H57649   0.640  -0.581   8.410 -0.6399 -1.1332 -1.5406
  437MOL0     H57650   0.580  -0.752   8.484  1.2603  2.3232 -0.1054
  437MOL0     H57651   0.676  -0.782   8.634  1.2781 -0.9657 -0.1131
  437MOL0     H57652   0.633  -1.026   8.621 -2.8973 -0.1047  2.2241
  437MOL0     H57653   0.590  -1.018   8.453 -1.8575 -2.5881  1.8848
  437MOL0     H57654   0.373  -0.927   8.502 -0.8485  1.8212  0.1813
  437MOL0     H57655   0.407  -0.901   8.675 -1.9733  1.6082 -0.8877
  437MOL0     H57656   0.364  -1.159   8.531 -0.9645  1.9354 -1.6270
  437MOL0     H57657   0.481  -1.147   8.663  1.5602  2.7475  0.0742
  437MOL0     H57658   0.167  -1.100   8.674 -2.0757 -0.6604  2.5213
  437MOL0     H57659   0.288  -1.057   8.801 -0.9952 -0.8009  0.4949
  437MOL0     H57660   0.191  -1.270   8.856 -1.7292 -0.3706 -0.2320
  437MOL0     H57661   0.360  -1.294   8.805 -0.4967 -0.2620  2.3190
  437MOL0     H57662   0.109  -1.367   8.629  0.1552  2.1748  0.3889
  437MOL0     H57663   0.265  -1.334   8.568  0.5713  2.0739  1.5342
  437MOL0     H57664   0.369  -1.503   8.715 -0.0111  2.2386 -3.0304
  437MOL0     H57665   0.232  -1.574   8.610 -3.1984  0.4596  0.4189
  437MOL0     H57666   1.016  -0.774   8.450 -0.9037 -0.1716  0.4784
  437MOL0     H57667   1.127  -0.570   8.364 -1.0441 -0.0831  0.6811
  437MOL0     H57668   1.111  -0.232   8.091  2.7303 -0.1932 -1.2701
  437MOL0     H57669   1.270  -0.076   7.994  0.3145 -3.8515  1.2303
  437MOL0     H57670   1.645   1.561   8.602 -0.6471 -0.1492  0.0831
  437MOL0     H57671   1.791   1.740   8.634 -0.7533 -0.4384  0.3276
  437MOL0     H57672   1.734   2.304   8.480  0.4094  1.8115 -0.7297
  437MOL0     H57673   1.893   2.515   8.444 -3.1830 -0.9573 -2.9767
  437MOL0     H57674   2.346   2.437   8.392 -1.8894 -0.0641  2.4168
  437MOL0     H57675   2.299   2.598   8.341  2.9150 -1.1604 -0.4453
  437MOL0     H57676   2.232   2.334   8.203  0.0667  0.0457  1.0979
  437MOL0     H57677   2.148   2.483   8.163  0.0302 -0.0244 -1.8897
  437MOL0     H57678   2.369   2.589   8.099 -1.5839  0.4562  0.4652
  437MOL0     H57679   2.315   2.449   8.009 -1.3879 -2.7518  1.5389
  437MOL0     H57680   2.555   2.471   8.194 -0.4632  2.3028 -1.7181
  437MOL0     H57681   2.463   2.310   8.184  0.0473 -0.0247 -0.3615
  437MOL0     H57682   2.677   2.298   7.837 -1.5541  0.8055 -1.2267
  437MOL0     H57683   2.216   2.238   8.397 -0.0736  1.7090 -2.3483
  437MOL0     H57684   2.079   2.060   8.420  1.0783  1.3672 -1.1414
  438MOL0     O57685   9.904  11.110   2.517 -0.3721 -0.3113 -0.1407
  438MOL0     C57686   9.816  11.057   2.582 -0.0599 -0.2227 -0.1927
  438MOL0     O57687   9.784  11.078   2.713 -0.0151  0.6311 -0.1297
  438MOL0     C57688   9.825  11.180   2.782  1.0481  0.1042 -0.2510
  438MOL0     C57689   9.957  11.210   2.808  0.1426  0.9573  0.0698
  438MOL0     C57690   9.986  11.302   2.904  0.5759 -1.0512  0.1744
  438MOL0     C57691   9.889  11.385   2.962 -0.3021  0.4018  0.5065
  438MOL0     O57692   9.943  11.486   3.049  0.2539  0.2882  0.3810
  438MOL0     C57693   9.847  11.561   3.126 -0.7634  0.3448 -0.1502
  438MOL0     C57694   9.921  11.628   3.239 -0.1275 -0.3107  0.8282
  438MOL0     C57695   9.807  11.682   3.339  0.4294  0.4197 -1.1951
  438MOL0     C57696   9.765  11.815   3.301  0.3393 -0.2451  0.3617
  438MOL0     C57697   9.688  11.898   3.415  0.7311 -0.0032  1.0912
  438MOL0     C57698   9.786  11.957   3.514  1.3861 -0.5351 -0.6340
  438MOL0     C57699   9.731  12.057   3.605  0.7145 -0.7173  0.0257
  438MOL0     C57700   9.738  12.010   3.749  0.1634 -1.0282  0.4096
  438MOL0     N57701   9.658  11.898   3.780  0.7556  0.4273 -0.0840
  438MOL0     C57702   9.575  11.870   3.887 -0.4456  0.3373 -0.1518
  438MOL0     C57703   9.555  11.738   3.900  1.4023 -0.2569 -0.0480
  438MOL0     C57704   9.458  11.674   3.996  0.0519  0.4678 -0.0878
  438MOL0     C57705   9.322  11.666   3.930 -0.7178  1.3273 -0.1909
  438MOL0     C57706   9.217  11.613   4.026  0.0810  0.4192  0.3958
  438MOL0     C57707   9.082  11.592   3.951  0.4123  0.6742  0.3828
  438MOL0     O57708   8.969  11.549   4.034 -0.5963 -0.3040  0.0113
  438MOL0     C57709   8.849  11.515   3.964  0.2033  0.1233 -0.0940
  438MOL0     C57710   8.771  11.413   4.040  0.0461  0.4995 -0.6543
  438MOL0     C57711   8.652  11.379   3.990  0.5823  0.2212  0.2462
  438MOL0     C57712   8.591  11.442   3.883  0.0453 -0.0272 -0.4781
  438MOL0     C57713   8.448  11.409   3.825 -0.1240  0.3989 -0.8875
  438MOL0     O57714   8.383  11.300   3.873 -0.0913  0.4902 -0.2592
  438MOL0     C57715   8.249  11.285   3.836  0.0145  0.5902  0.0767
  438MOL0     C57716   8.223  11.274   3.697 -0.0632  0.0902 -0.4575
  438MOL0     C57717   8.093  11.238   3.656 -0.4595 -0.6864  0.3681
  438MOL0     C57718   7.995  11.230   3.748  0.4629  0.5075  0.3492
  438MOL0     O57719   7.875  11.193   3.707  0.0059  0.5571  0.2095
  438MOL0     C57720   7.851  11.083   3.619  0.1129  0.5140 -0.8322
  438MOL0     C57721   7.698  11.058   3.610  0.1357 -0.5596  0.8894
  438MOL0     C57722   7.630  11.022   3.741 -0.2705 -0.6066  0.6188
  438MOL0     C57723   7.478  10.992   3.734  0.3162 -0.0673  0.1049
  438MOL0     C57724   7.425  10.979   3.881 -0.4062  0.4416 -0.3423
  438MOL0     C57725   7.298  10.895   3.866  0.6124 -0.8332  0.1484
  438MOL0     C57726   7.176  10.975   3.810  0.7969  0.6070 -0.6396
  438MOL0     C57727   7.040  10.905   3.828  0.9436 -0.3909  0.0224
  438MOL0    Cl57728   7.045  10.761   3.726 -0.1748 -0.1265  0.4663
  438MOL0     C57729   8.018  11.246   3.884  0.3328 -0.3260  0.3234
  438MOL0     C57730   8.141  11.264   3.930  0.0678 -0.4474  0.0015
  438MOL0     O57731   8.414  11.495   3.746  0.2466 -0.3483 -0.1659
  438MOL0     C57732   8.665  11.547   3.821  0.2615 -0.5858  0.8190
  438MOL0     C57733   8.793  11.585   3.858  0.7091 -0.6700  0.2997
  438MOL0     N57734   9.638  11.677   3.806 -0.2265 -0.4759  0.9861
  438MOL0     N57735   9.688  11.768   3.737  0.1696  0.3689  0.2811
  438MOL0     C57736   9.759  11.366   2.923 -0.1186 -1.1276  0.5827
  438MOL0     C57737   9.720  11.260   2.840  0.2740 -0.1564 -0.5571
  438MOL0     C57738   9.745  10.947   2.522 -0.5812 -0.2906 -0.7281
  438MOL0     C57739   9.773  10.913   2.388  0.2333  1.0337 -0.7497
  438MOL0     C57740   9.703  10.803   2.331 -0.6251 -0.4665 -0.2917
  438MOL0     C57741   9.607  10.741   2.400  0.3074  0.0880 -0.4068
  438MOL0     O57742   9.534  10.649   2.329  0.1002 -0.1283  0.1433
  438MOL0     C57743   9.445  10.557   2.410 -0.5371 -0.7403 -0.5018
  438MOL0     C57744   9.362  10.474   2.319  0.4647 -0.3261  0.7150
  438MOL0     C57745   9.400  10.328   2.296  0.1967 -0.9188 -0.7355
  438MOL0     C57746   9.507  10.314   2.192  1.0196 -0.4372 -0.1428
  438MOL0     C57747   9.469  10.208   2.092 -0.1424 -0.0445  0.5801
  438MOL0     C57748   9.438  10.127   2.014 -0.9695  0.3391 -0.8539
  438MOL0     C57749   9.580  10.770   2.535  0.0444 -0.5679  0.0930
  438MOL0     C57750   9.653  10.878   2.594  0.3188  0.4124 -0.6574
  438MOL0     H57751  10.042  11.152   2.772  0.9855  2.6592 -0.8069
  438MOL0     H57752  10.087  11.337   2.924 -0.8254  2.4442  1.9876
  438MOL0     H57753   9.772  11.498   3.176  0.6704 -0.5488  0.9623
  438MOL0     H57754   9.791  11.632   3.065  0.7089 -0.2145 -2.2509
  438MOL0     H57755   9.965  11.716   3.193 -1.7303  0.1702  0.1564
  438MOL0     H57756   9.991  11.556   3.284  0.5778 -0.5743 -0.6456
  438MOL0     H57757   9.853  11.688   3.438 -2.3715  4.1935  0.1024
  438MOL0     H57758   9.717  11.620   3.337  0.8709 -0.2321 -1.1025
  438MOL0     H57759   9.846  11.884   3.274 -1.7226  2.8191  1.4420
  438MOL0     H57760   9.704  11.799   3.212  0.8553  1.8630 -0.4315
  438MOL0     H57761   9.608  11.851   3.472 -1.6349  2.0902 -0.2983
  438MOL0     H57762   9.643  11.983   3.363  1.3038 -0.0985  0.4208
  438MOL0     H57763   9.867  12.003   3.456  1.4923  0.2431  0.1244
  438MOL0     H57764   9.836  11.879   3.572  0.8001  0.1374  0.8166
  438MOL0     H57765   9.777  12.156   3.592 -2.9915  1.1102 -0.6740
  438MOL0     H57766   9.633  12.086   3.567 -0.4326 -1.9427  1.9111
  438MOL0     H57767   9.707  12.091   3.816  0.0655 -0.8428  0.1403
  438MOL0     H57768   9.842  11.984   3.775 -0.0642 -1.5327  0.8441
  438MOL0     H57769   9.514  11.940   3.943  1.3157 -1.5828  4.6801
  438MOL0     H57770   9.450  11.741   4.082  1.4999  2.7527 -1.6219
  438MOL0     H57771   9.504  11.580   4.029  2.9761  1.3767 -1.2285
  438MOL0     H57772   9.321  11.603   3.840 -1.8721  1.5342 -0.3390
  438MOL0     H57773   9.277  11.759   3.893  1.4574  1.4163 -2.9850
  438MOL0     H57774   9.241  11.523   4.084 -0.5413 -0.4674 -0.6950
  438MOL0     H57775   9.189  11.684   4.105  0.6859 -0.0704  1.0754
  438MOL0     H57776   9.093  11.512   3.876 -2.6330 -0.9550  1.5081
  438MOL0     H57777   9.047  11.686   3.908 -1.5033  0.2519  0.9367
  438MOL0     H57778   8.818  11.359   4.122  3.7695  0.7267 -2.4155
  438MOL0     H57779   8.587  11.312   4.045 -1.9641  0.7988 -1.8444
  438MOL0     H57780   8.300  11.280   3.621 -0.0565  0.4367 -0.4238
  438MOL0     H57781   8.067  11.226   3.551 -1.5633  5.3969 -0.3797
  438MOL0     H57782   7.910  10.993   3.638 -0.7974  0.5019  2.6680
  438MOL0     H57783   7.883  11.114   3.519  0.2713 -0.7139 -1.1703
  438MOL0     H57784   7.677  10.994   3.524  0.5936 -1.6500  1.5678
  438MOL0     H57785   7.641  11.148   3.584 -0.8422 -1.2623  0.5495
  438MOL0     H57786   7.656  11.112   3.799  3.2574 -0.9683 -0.1597
  438MOL0     H57787   7.691  10.942   3.784  0.5653  0.3789  1.3466
  438MOL0     H57788   7.421  11.069   3.682  1.0210  0.7596  0.5435
  438MOL0     H57789   7.472  10.894   3.684  0.6257  0.1426 -0.3473
  438MOL0     H57790   7.407  11.077   3.926  0.9961  0.8630 -0.6654
  438MOL0     H57791   7.493  10.917   3.939 -4.0276 -4.5670 -0.7944
  438MOL0     H57792   7.282  10.848   3.964  1.2954  1.2210  1.3079
  438MOL0     H57793   7.328  10.811   3.803  3.2076 -0.9756  1.4550
  438MOL0     H57794   7.167  11.068   3.867  2.1177  0.1049  0.4402
  438MOL0     H57795   7.182  10.988   3.701 -1.8545  0.5210 -0.8626
  438MOL0     H57796   6.959  10.965   3.786  1.1907  0.4338  0.6817
  438MOL0     H57797   7.022  10.888   3.934  1.7985  2.7374  0.7640
  438MOL0     H57798   7.926  11.246   3.942 -1.7648 -0.6933 -2.7758
  438MOL0     H57799   8.169  11.257   4.034  1.4933 -4.0686 -0.5010
  438MOL0     H57800   8.621  11.601   3.737  0.2029  1.6885  2.2125
  438MOL0     H57801   8.845  11.677   3.835  0.0607 -0.2198  0.5902
  438MOL0     H57802   9.687  11.439   2.958  0.0068 -0.0118 -1.3676
  438MOL0     H57803   9.618  11.231   2.820  0.0118  0.1315  0.3220
  438MOL0     H57804   9.856  10.959   2.335  1.7471 -0.0370  0.5874
  438MOL0     H57805   9.723  10.782   2.227 -0.2637  0.7463 -0.4872
  438MOL0     H57806   9.382  10.617   2.477 -0.6998 -0.2394 -1.0941
  438MOL0     H57807   9.505  10.497   2.479 -0.7738  1.6609  1.9883
  438MOL0     H57808   9.261  10.470   2.362  0.5999  2.6564  1.5103
  438MOL0     H57809   9.342  10.522   2.222 -4.4053 -0.7197  1.2700
  438MOL0     H57810   9.315  10.267   2.264 -0.3778  0.2745 -1.5855
  438MOL0     H57811   9.430  10.278   2.389 -1.2956 -1.7991 -0.6934
  438MOL0     H57812   9.523  10.410   2.142 -0.5820  0.2897  0.6653
  438MOL0     H57813   9.608  10.294   2.230  1.4025  2.6958  0.7600
  438MOL0     H57814   9.425  10.058   1.933 -1.7440 -2.1922  1.2744
  438MOL0     H57815   9.501  10.730   2.598  0.7549  1.1971  2.2077
  438MOL0     H57816   9.621  10.895   2.697  3.0051 -3.0184  0.9688
  439MOL0     O57817   1.503   7.666   1.789 -0.1528 -0.1291 -0.5740
  439MOL0     C57818   1.440   7.761   1.739 -1.3370  0.8780 -0.1022
  439MOL0     O57819   1.495   7.871   1.668 -0.1469  0.0039 -0.5792
  439MOL0     C57820   1.625   7.895   1.659 -0.4227  0.1999  0.0333
  439MOL0     C57821   1.672   8.030   1.673 -0.7263 -0.4192  0.1342
  439MOL0     C57822   1.802   8.052   1.642 -0.1831 -0.3724 -0.2171
  439MOL0     C57823   1.900   7.948   1.618  0.5239  0.0955  0.7419
  439MOL0     O57824   2.031   7.961   1.592 -0.8339 -0.4608 -0.4142
  439MOL0     C57825   2.111   8.058   1.670 -0.5750  0.7088  0.3712
  439MOL0     C57826   2.134   8.005   1.813  0.8408  0.1253 -0.1333
  439MOL0     C57827   2.228   8.101   1.886  0.3150 -0.7017  0.5241
  439MOL0     C57828   2.373   8.076   1.840 -0.2877 -0.2592 -0.1155
  439MOL0     C57829   2.466   8.143   1.935 -0.3118 -0.1333  0.0850
  439MOL0     C57830   2.442   8.292   1.939 -0.1480 -0.4759 -0.0508
  439MOL0     C57831   2.565   8.361   2.004  0.1958  0.3465 -0.5024
  439MOL0     C57832   2.562   8.518   1.983  0.4948 -0.2881  0.0983
  439MOL0     N57833   2.458   8.602   2.058  0.4529 -0.7309  0.1353
  439MOL0     C57834   2.461   8.606   2.199 -0.0147 -0.6357  0.0480
  439MOL0     C57835   2.346   8.670   2.227  0.6019  0.1013 -0.8148
  439MOL0     C57836   2.295   8.717   2.364 -0.5226 -0.2960  0.0245
  439MOL0     C57837   2.138   8.701   2.378 -0.7271  0.7727 -0.4508
  439MOL0     C57838   2.106   8.692   2.528 -0.9148 -0.3153  0.1683
  439MOL0     C57839   1.964   8.657   2.561 -0.7677  0.5023 -1.5575
  439MOL0     O57840   1.929   8.525   2.533 -0.8227  0.8977  0.5888
  439MOL0     C57841   1.793   8.497   2.525  0.2305  1.0591 -0.5289
  439MOL0     C57842   1.765   8.357   2.497  0.5824 -0.0305 -0.2477
  439MOL0     C57843   1.642   8.311   2.457  0.4748  0.3165  0.0342
  439MOL0     C57844   1.535   8.399   2.466 -0.0511 -0.5636 -0.3653
  439MOL0     C57845   1.398   8.347   2.449  0.3056  0.4164 -0.5521
  439MOL0     O57846   1.374   8.222   2.496  0.5332 -0.0882  0.5413
  439MOL0     C57847   1.243   8.177   2.505  0.7307 -0.1924  0.1901
  439MOL0     C57848   1.167   8.158   2.390 -0.0592  1.1175  0.4578
  439MOL0     C57849   1.054   8.087   2.404 -0.3143  0.8593  0.8609
  439MOL0     C57850   0.996   8.045   2.528  0.5491 -1.0091 -0.1964
  439MOL0     O57851   0.879   7.974   2.530 -0.3325 -0.0603  1.2012
  439MOL0     C57852   0.771   8.048   2.476 -0.4585 -0.1542  0.1226
  439MOL0     C57853   0.649   8.002   2.549  0.5889 -0.9688  0.8064
  439MOL0     C57854   0.529   8.094   2.504  0.0586 -0.5808 -0.5157
  439MOL0     C57855   0.396   8.038   2.551  0.0667 -0.5324  0.0430
  439MOL0     C57856   0.286   8.083   2.462  0.3114  0.9739  0.8092
  439MOL0     C57857   0.266   7.980   2.354  1.2688  0.3642  0.8223
  439MOL0     C57858   0.167   8.015   2.235 -0.3678 -0.0119  0.0989
  439MOL0     C57859   0.128   7.887   2.166 -0.7037  0.6880 -0.9593
  439MOL0    Cl57860   0.003   7.795   2.253 -0.0237  0.2025  0.1105
  439MOL0     C57861   1.076   8.065   2.640  0.2899 -0.6282 -0.0333
  439MOL0     C57862   1.193   8.128   2.631 -0.7063 -0.1930  0.4052
  439MOL0     O57863   1.306   8.415   2.404  0.2987 -0.2391 -1.4004
  439MOL0     C57864   1.557   8.534   2.489 -0.0549 -0.4606 -0.6831
  439MOL0     C57865   1.684   8.579   2.529 -0.1949  0.4338 -0.0249
  439MOL0     N57866   2.280   8.698   2.100 -0.5885  0.6824 -0.5253
  439MOL0     N57867   2.349   8.657   2.001 -0.9332 -0.0231  0.5121
  439MOL0     C57868   1.849   7.822   1.611  1.1486 -0.1925 -0.5011
  439MOL0     C57869   1.712   7.793   1.634  0.3723  0.6806  0.3933
  439MOL0     C57870   1.298   7.732   1.701  0.4010 -0.1133 -0.3438
  439MOL0     C57871   1.228   7.811   1.606  0.2551 -0.4471  0.6960
  439MOL0     C57872   1.087   7.800   1.584 -0.1016  1.1793 -0.7069
  439MOL0     C57873   1.022   7.696   1.648  0.2262  0.6671  0.2624
  439MOL0     O57874   0.897   7.663   1.626  0.2245 -0.5143 -0.6422
  439MOL0     C57875   0.794   7.759   1.668  0.8657  0.5301  0.4663
  439MOL0     C57876   0.691   7.676   1.745 -0.1645 -0.0520  1.1390
  439MOL0     C57877   0.615   7.579   1.650  0.1893 -0.6487 -0.0289
  439MOL0     C57878   0.517   7.485   1.726  0.2410  0.7364 -0.1300
  439MOL0     C57879   0.440   7.402   1.631 -0.1882 -0.9243  0.1180
  439MOL0     C57880   0.389   7.314   1.558 -0.1581 -1.1952  0.6497
  439MOL0     C57881   1.096   7.612   1.736 -0.0548  0.0886 -0.3049
  439MOL0     C57882   1.235   7.623   1.749  0.3180  0.5165 -0.8149
  439MOL0     H57883   1.601   8.109   1.696 -0.4533 -0.2603  0.4337
  439MOL0     H57884   1.839   8.154   1.637  0.8355 -0.7442 -0.5973
  439MOL0     H57885   2.072   8.157   1.696  1.2450  0.5956  4.3631
  439MOL0     H57886   2.204   8.063   1.612  0.5768 -0.6580  1.9785
  439MOL0     H57887   2.170   7.902   1.820  0.1458 -0.1591 -0.5654
  439MOL0     H57888   2.033   8.001   1.854  0.6354 -3.1862 -0.7317
  439MOL0     H57889   2.228   8.091   1.995 -1.0466 -3.0504  0.3754
  439MOL0     H57890   2.200   8.205   1.867 -0.8764 -1.3327 -1.4441
  439MOL0     H57891   2.385   7.968   1.836  0.3756 -0.1980 -0.0194
  439MOL0     H57892   2.394   8.106   1.737 -1.4527 -0.1771 -0.3401
  439MOL0     H57893   2.564   8.115   1.897 -0.6542  0.0799 -1.0012
  439MOL0     H57894   2.459   8.085   2.028 -1.0698 -1.9731 -1.0391
  439MOL0     H57895   2.354   8.313   2.000 -0.0872  1.9808 -0.7048
  439MOL0     H57896   2.438   8.343   1.842  1.4917 -0.6901 -0.2586
  439MOL0     H57897   2.585   8.341   2.110  2.4338  0.9329 -0.7617
  439MOL0     H57898   2.650   8.320   1.948  0.2582  0.0153 -0.1717
  439MOL0     H57899   2.555   8.541   1.877  1.3784  0.4855  0.2015
  439MOL0     H57900   2.659   8.556   2.015  0.6276  0.0165 -0.6654
  439MOL0     H57901   2.529   8.575   2.278 -1.4442 -2.3000  0.7159
  439MOL0     H57902   2.314   8.825   2.366 -1.1996  0.0892 -4.3688
  439MOL0     H57903   2.359   8.676   2.443  0.9783  4.4000  1.5628
  439MOL0     H57904   2.100   8.605   2.343 -1.6564  0.0997  2.1632
  439MOL0     H57905   2.083   8.786   2.336 -0.6939  0.4423 -1.1646
  439MOL0     H57906   2.181   8.624   2.568  0.1640 -0.7470 -2.4198
  439MOL0     H57907   2.126   8.787   2.580  0.6977 -0.6805  0.2487
  439MOL0     H57908   1.897   8.729   2.514 -1.7280 -0.4355 -1.6538
  439MOL0     H57909   1.954   8.659   2.669  3.0942 -3.6173 -0.8171
  439MOL0     H57910   1.852   8.293   2.496  1.1032  0.6598 -0.3532
  439MOL0     H57911   1.617   8.207   2.440  4.2883 -0.4323 -1.9770
  439MOL0     H57912   1.210   8.176   2.292  0.8578  0.3551  0.7094
  439MOL0     H57913   1.000   8.073   2.310  1.3888 -2.3712  0.2146
  439MOL0     H57914   0.767   8.029   2.369 -2.2134  0.7723 -0.0223
  439MOL0     H57915   0.775   8.157   2.487 -0.1296  0.0811 -1.9950
  439MOL0     H57916   0.678   8.009   2.654 -2.0969  2.6226  1.4758
  439MOL0     H57917   0.612   7.901   2.525 -2.3636  0.2756 -0.3200
  439MOL0     H57918   0.533   8.098   2.395 -0.1385  0.3326 -0.4949
  439MOL0     H57919   0.539   8.196   2.541  0.7034 -1.2473  1.2689
  439MOL0     H57920   0.395   7.929   2.561  0.6482 -0.3402  3.5278
  439MOL0     H57921   0.373   8.069   2.653 -1.5167  1.0479 -0.7476
  439MOL0     H57922   0.315   8.179   2.419  2.3583 -0.6849 -1.8148
  439MOL0     H57923   0.197   8.088   2.526 -0.8269  0.3979 -0.6790
  439MOL0     H57924   0.256   7.880   2.397  2.5988  0.2315  0.8539
  439MOL0     H57925   0.362   7.980   2.301  0.6113  2.6766 -0.5554
  439MOL0     H57926   0.087   8.063   2.293  0.5160  1.9944 -0.2512
  439MOL0     H57927   0.203   8.084   2.159  0.3688  1.0637  1.3688
  439MOL0     H57928   0.217   7.831   2.137 -0.4609  1.2771 -1.3727
  439MOL0     H57929   0.094   7.915   2.066  0.0811 -0.7522 -1.6521
  439MOL0     H57930   1.051   8.023   2.737  3.2978  0.6613  1.4511
  439MOL0     H57931   1.265   8.132   2.712 -2.2759  1.7141  1.7828
  439MOL0     H57932   1.465   8.591   2.479 -0.6775 -1.2785  0.2524
  439MOL0     H57933   1.707   8.683   2.549 -3.2642  0.9075  1.7559
  439MOL0     H57934   1.921   7.743   1.591  1.9593  0.8403 -1.8810
  439MOL0     H57935   1.675   7.691   1.630 -3.6056  1.8781  1.5954
  439MOL0     H57936   1.278   7.898   1.564  1.3190 -2.3181 -2.1856
  439MOL0     H57937   1.024   7.861   1.520 -1.8420  0.6147  0.3807
  439MOL0     H57938   0.752   7.804   1.577  0.7810  0.1060  0.2922
  439MOL0     H57939   0.817   7.842   1.735 -2.2532 -0.3764  2.9212
  439MOL0     H57940   0.749   7.633   1.827  1.8039 -0.5234 -0.4203
  439MOL0     H57941   0.615   7.743   1.786 -0.1181  2.1084 -1.9435
  439MOL0     H57942   0.683   7.506   1.603  0.8753  0.2273 -0.4245
  439MOL0     H57943   0.567   7.633   1.569 -0.7313  0.6413  1.3190
  439MOL0     H57944   0.567   7.417   1.795 -0.1002 -0.4538 -1.0301
  439MOL0     H57945   0.449   7.549   1.783 -1.4935  0.3333 -1.6649
  439MOL0     H57946   0.343   7.251   1.485 -0.1702 -1.3683  0.8038
  439MOL0     H57947   1.056   7.528   1.792 -0.8305  1.0755  0.6854
  439MOL0     H57948   1.286   7.550   1.811  1.6845  1.7318 -0.4434
  440MOL0     O57949   5.095   5.993   3.418  0.3585 -0.5186 -0.3272
  440MOL0     C57950   5.008   5.957   3.346  0.1238  0.3367  1.1450
  440MOL0     O57951   4.885   5.924   3.384 -0.2640  0.3118  0.0922
  440MOL0     C57952   4.857   5.938   3.520  0.3701  0.5650  0.1567
  440MOL0     C57953   4.832   5.821   3.594  0.8663  0.0139 -0.0427
  440MOL0     C57954   4.786   5.823   3.724  0.7313 -0.5203 -0.3585
  440MOL0     C57955   4.755   5.949   3.777 -0.5345  0.3515  0.7361
  440MOL0     O57956   4.695   5.964   3.895  0.1088  0.9407 -0.2563
  440MOL0     C57957   4.694   5.850   3.993  0.0580  0.0644 -0.0232
  440MOL0     C57958   4.567   5.855   4.090 -0.6458 -0.1792  0.6352
  440MOL0     C57959   4.553   5.749   4.198 -0.0422  0.1415  0.2575
  440MOL0     C57960   4.423   5.666   4.184  0.2616 -0.0283  0.0021
  440MOL0     C57961   4.426   5.561   4.293 -0.0508 -0.5466  0.8335
  440MOL0     C57962   4.286   5.496   4.283  0.2216  0.2501  0.1657
  440MOL0     C57963   4.259   5.400   4.396  1.1709  0.2275  0.8953
  440MOL0     C57964   4.123   5.342   4.392 -0.9883 -0.1622 -0.0119
  440MOL0     N57965   4.021   5.452   4.382 -0.0730  0.0406  0.4364
  440MOL0     C57966   3.980   5.529   4.490  0.2442  0.6288  0.8005
  440MOL0     C57967   3.898   5.620   4.438 -0.2418 -0.0123 -0.4770
  440MOL0     C57968   3.831   5.734   4.514  0.2432 -0.6496 -0.0325
  440MOL0     C57969   3.919   5.857   4.497 -0.1209  0.3131  0.0507
  440MOL0     C57970   3.836   5.983   4.533 -0.2054 -0.2145  0.7277
  440MOL0     C57971   3.917   6.113   4.540  0.1010 -1.0310 -0.1150
  440MOL0     O57972   3.998   6.116   4.656 -0.3259 -0.5028 -0.0554
  440MOL0     C57973   4.042   6.239   4.706  0.1891  0.5739  0.2119
  440MOL0     C57974   4.051   6.352   4.620  0.0929  0.4408  0.2610
  440MOL0     C57975   4.087   6.476   4.665 -0.6456  0.5578  0.2427
  440MOL0     C57976   4.135   6.480   4.800  0.1142 -0.0577  0.4811
  440MOL0     C57977   4.179   6.617   4.853  0.5100 -0.0314 -0.4154
  440MOL0     O57978   4.285   6.615   4.942 -0.4340 -1.1189 -0.0877
  440MOL0     C57979   4.342   6.735   4.966 -0.2697  0.6509  0.5095
  440MOL0     C57980   4.411   6.790   4.858  0.2747  0.4996 -0.6614
  440MOL0     C57981   4.502   6.891   4.887 -0.0732 -0.1424 -1.1245
  440MOL0     C57982   4.520   6.944   5.023 -0.8215  0.3407  0.1022
  440MOL0     O57983   4.609   7.039   5.048  0.6319 -0.6002  0.4115
  440MOL0     C57984   4.568   7.159   4.974 -0.4455  0.7109 -0.7214
  440MOL0     C57985   4.639   7.276   5.054  0.7193 -0.1935 -0.1579
  440MOL0     C57986   4.601   7.402   4.958  0.0183  0.5900  0.2673
  440MOL0     C57987   4.689   7.517   4.993  0.0828  0.8193  0.9299
  440MOL0     C57988   4.653   7.594   5.125 -0.5381  0.7018  0.0076
  440MOL0     C57989   4.742   7.716   5.153 -0.3386 -0.1245  0.2886
  440MOL0     C57990   4.897   7.689   5.157 -0.1549 -0.0389  0.9226
  440MOL0     C57991   4.959   7.722   5.021 -0.1056  0.7909 -0.1841
  440MOL0    Cl57992   4.930   7.898   5.002 -0.1927  0.1509 -0.4231
  440MOL0     C57993   4.443   6.887   5.118 -0.1639 -0.2216 -0.8114
  440MOL0     C57994   4.357   6.777   5.098  0.0420 -0.8387  0.5385
  440MOL0     O57995   4.132   6.708   4.799  0.0341  1.0291 -0.1941
  440MOL0     C57996   4.134   6.366   4.887  0.6524 -0.0483  0.3467
  440MOL0     C57997   4.085   6.250   4.835  0.2458 -0.5297  0.3418
  440MOL0     N57998   3.876   5.591   4.306  0.0450  0.1996 -0.2059
  440MOL0     N57999   3.949   5.488   4.268  0.1262 -0.3105  0.6476
  440MOL0     C58000   4.786   6.062   3.710 -0.5120 -0.0985 -0.2897
  440MOL0     C58001   4.834   6.062   3.582 -0.9715  0.0626  0.2793
  440MOL0     C58002   5.030   5.987   3.208 -0.2286 -0.3819  0.1751
  440MOL0     C58003   4.936   5.965   3.104  0.6223 -0.9319 -0.0931
  440MOL0     C58004   4.962   6.001   2.972 -0.5255 -0.4800 -0.0601
  440MOL0     C58005   5.087   6.044   2.931  0.0396 -0.4405 -0.0203
  440MOL0     O58006   5.103   6.074   2.797 -0.3584  0.4560 -0.1604
  440MOL0     C58007   5.232   6.098   2.735 -1.0246 -0.1185  0.0722
  440MOL0     C58008   5.268   6.245   2.763 -0.6782 -0.5233  0.6481
  440MOL0     C58009   5.424   6.271   2.762 -0.3889 -0.3533 -0.6991
  440MOL0     C58010   5.501   6.232   2.892 -0.1748  0.3861 -0.6183
  440MOL0     C58011   5.641   6.271   2.882 -0.0608  0.2834 -0.1850
  440MOL0     C58012   5.762   6.289   2.869  0.6750  0.7389  0.0920
  440MOL0     C58013   5.179   6.062   3.028 -1.3811 -0.0038 -0.2576
  440MOL0     C58014   5.154   6.037   3.166  0.2838  0.2667  0.9964
  440MOL0     H58015   4.868   5.724   3.560  0.6491 -0.1445  0.1816
  440MOL0     H58016   4.756   5.727   3.765  0.8538  0.5574  2.4739
  440MOL0     H58017   4.777   5.853   4.064 -3.3909 -0.3147  4.4719
  440MOL0     H58018   4.702   5.754   3.942 -2.0124 -0.1149 -0.0832
  440MOL0     H58019   4.484   5.857   4.019 -1.5514  0.3071  1.6600
  440MOL0     H58020   4.567   5.947   4.149 -0.9898 -0.9477  1.8878
  440MOL0     H58021   4.564   5.801   4.293  0.4287  2.3475 -0.9440
  440MOL0     H58022   4.632   5.674   4.180 -0.7248 -0.2051 -1.4915
  440MOL0     H58023   4.336   5.731   4.198 -2.0945 -2.6003 -1.7141
  440MOL0     H58024   4.419   5.617   4.087 -1.7540  2.0033 -1.0434
  440MOL0     H58025   4.444   5.605   4.392 -0.0862  2.1237 -0.2734
  440MOL0     H58026   4.501   5.485   4.271  0.7976  0.3792  0.5154
  440MOL0     H58027   4.291   5.452   4.183  2.2921 -0.8238  0.6695
  440MOL0     H58028   4.213   5.577   4.289 -0.4063 -0.1933 -1.1363
  440MOL0     H58029   4.325   5.313   4.396 -1.6460 -2.0811 -0.4179
  440MOL0     H58030   4.262   5.457   4.489  1.7949  1.3224  0.2292
  440MOL0     H58031   4.119   5.307   4.495  1.5402  3.0342  1.3297
  440MOL0     H58032   4.116   5.263   4.316 -1.6297 -1.7341  1.6076
  440MOL0     H58033   4.006   5.511   4.594 -3.0088 -0.7519  1.4835
  440MOL0     H58034   3.830   5.718   4.622 -0.4855 -3.7258 -0.4090
  440MOL0     H58035   3.731   5.752   4.476  0.6949 -0.2300 -1.0513
  440MOL0     H58036   3.969   5.864   4.399  2.3946  1.1987  1.2996
  440MOL0     H58037   4.002   5.853   4.568 -2.8092 -0.6435  3.4021
  440MOL0     H58038   3.754   5.985   4.461  2.7572  2.1429 -3.0108
  440MOL0     H58039   3.796   5.958   4.632  0.2550  1.4728  1.3708
  440MOL0     H58040   3.850   6.199   4.531  3.0905  1.3763 -1.0370
  440MOL0     H58041   3.972   6.128   4.447  0.2185  1.2588  0.2661
  440MOL0     H58042   4.038   6.353   4.512  2.6709  2.3450 -0.1163
  440MOL0     H58043   4.088   6.565   4.603  1.4485  1.6397  1.7030
  440MOL0     H58044   4.393   6.755   4.757 -2.9545 -2.0114  0.6011
  440MOL0     H58045   4.572   6.918   4.808  2.0487  1.1186  1.0477
  440MOL0     H58046   4.461   7.181   4.972 -0.8686 -1.2483 -1.1759
  440MOL0     H58047   4.614   7.154   4.875 -0.6725 -3.4681 -0.7816
  440MOL0     H58048   4.747   7.268   5.069  0.5977  1.8584  2.5333
  440MOL0     H58049   4.588   7.276   5.150 -0.4623 -1.4250 -0.7363
  440MOL0     H58050   4.503   7.447   4.977  0.5721  1.7704  0.3732
  440MOL0     H58051   4.621   7.370   4.855  2.1986  0.2947  0.7311
  440MOL0     H58052   4.794   7.488   4.991 -0.0826  0.2053  0.8740
  440MOL0     H58053   4.677   7.583   4.906  1.0258 -0.2352 -0.0354
  440MOL0     H58054   4.646   7.530   5.213 -1.6554  2.0010  0.9068
  440MOL0     H58055   4.552   7.635   5.118 -1.1834 -0.7550  0.3121
  440MOL0     H58056   4.727   7.753   5.255  2.2100  1.2664  0.2478
  440MOL0     H58057   4.714   7.784   5.073 -0.5616 -1.7301 -1.0516
  440MOL0     H58058   4.934   7.761   5.231 -3.0184  4.3426 -1.4487
  440MOL0     H58059   4.918   7.585   5.183  0.8620 -0.2756 -0.7550
  440MOL0     H58060   4.905   7.676   4.938  0.9496 -0.8005 -0.0167
  440MOL0     H58061   5.062   7.687   5.018 -0.5220 -0.4322 -1.6871
  440MOL0     H58062   4.450   6.914   5.223  2.3368 -2.9514 -0.1325
  440MOL0     H58063   4.309   6.733   5.185 -1.2686 -0.8965 -0.1814
  440MOL0     H58064   4.158   6.376   4.993 -0.8135  1.2818  0.6007
  440MOL0     H58065   4.071   6.155   4.885 -1.4625 -0.5873 -0.1888
  440MOL0     H58066   4.757   6.157   3.754 -2.4219 -1.1823  0.8936
  440MOL0     H58067   4.859   6.153   3.530  2.7836 -0.8386  0.2450
  440MOL0     H58068   4.836   5.928   3.127  0.9363 -0.8221  1.6181
  440MOL0     H58069   4.897   5.999   2.885 -1.4727  2.4514  0.4704
  440MOL0     H58070   5.233   6.087   2.626 -0.4191  1.0034 -0.0527
  440MOL0     H58071   5.304   6.026   2.775  0.1035 -0.7575 -2.8311
  440MOL0     H58072   5.226   6.318   2.693  0.2839 -0.6219 -0.0614
  440MOL0     H58073   5.226   6.279   2.858 -3.1701  1.9957 -1.1902
  440MOL0     H58074   5.437   6.378   2.747 -1.0575 -0.2166 -0.3639
  440MOL0     H58075   5.479   6.222   2.681 -2.7160 -2.0945 -1.3350
  440MOL0     H58076   5.456   6.283   2.978 -2.6155 -1.0266 -0.9838
  440MOL0     H58077   5.488   6.128   2.923  1.7345  0.6775  1.4490
  440MOL0     H58078   5.865   6.292   2.843  1.4981  0.5934  2.9834
  440MOL0     H58079   5.285   6.084   3.014 -1.1087 -0.0829  1.4997
  440MOL0     H58080   5.241   6.056   3.228  2.4702 -1.6086 -1.2346
  441MOL0     O58081   5.155   5.802   2.473 -0.6073  0.1398  0.0987
  441MOL0     C58082   5.171   5.731   2.574  0.6307  0.5973  1.1121
  441MOL0     O58083   5.288   5.668   2.622 -0.0514  0.1043  0.4362
  441MOL0     C58084   5.406   5.676   2.550  0.8205 -0.5866  0.1288
  441MOL0     C58085   5.425   5.626   2.423  0.9144  1.0578 -0.3518
  441MOL0     C58086   5.551   5.634   2.370 -0.3681  0.8780  0.9448
  441MOL0     C58087   5.654   5.691   2.445  0.8561  0.1585  0.6766
  441MOL0     O58088   5.779   5.709   2.387 -0.3219  0.0871 -0.3067
  441MOL0     C58089   5.885   5.756   2.483  0.2969  0.4572  0.4638
  441MOL0     C58090   6.017   5.786   2.405  0.5013  0.7814  0.9516
  441MOL0     C58091   6.089   5.670   2.344 -0.6412  0.1001 -0.4224
  441MOL0     C58092   6.225   5.710   2.275  0.6689 -0.2787  0.8421
  441MOL0     C58093   6.261   5.639   2.140 -0.4453  0.5905 -0.3292
  441MOL0     C58094   6.389   5.697   2.084  0.1844 -0.9699  1.1205
  441MOL0     C58095   6.454   5.595   1.988 -0.0007 -0.4283  0.0586
  441MOL0     C58096   6.605   5.624   1.990  0.3955  0.4201 -0.2523
  441MOL0     N58097   6.681   5.535   1.897  0.5150  0.6293 -0.5198
  441MOL0     C58098   6.696   5.567   1.772 -0.6098 -0.0870  0.1515
  441MOL0     C58099   6.782   5.473   1.730  0.0572 -0.8428  0.1332
  441MOL0     C58100   6.830   5.467   1.583 -1.3676  1.0353  0.7448
  441MOL0     C58101   6.967   5.531   1.558 -0.6791  0.2548  0.6560
  441MOL0     C58102   6.968   5.660   1.480  0.3487 -0.0253 -0.0358
  441MOL0     C58103   7.101   5.737   1.462 -0.0198  0.6933  0.0611
  441MOL0     O58104   7.199   5.659   1.380 -0.7990 -0.3664 -0.4978
  441MOL0     C58105   7.308   5.736   1.344  0.6883  0.4546  0.6729
  441MOL0     C58106   7.343   5.728   1.209 -0.7601  1.4870  0.4936
  441MOL0     C58107   7.444   5.795   1.157 -0.5118  0.2938  0.7381
  441MOL0     C58108   7.509   5.893   1.222 -0.6540  0.9132  0.4447
  441MOL0     C58109   7.615   5.982   1.161 -0.1433 -0.6685 -1.0200
  441MOL0     O58110   7.694   6.056   1.246 -0.3528 -0.0649  0.2361
  441MOL0     C58111   7.808   6.106   1.185 -0.6000 -0.0950 -0.1120
  441MOL0     C58112   7.800   6.233   1.114  1.7158  0.1370  0.5691
  441MOL0     C58113   7.919   6.278   1.055  1.0689  0.1217  0.3981
  441MOL0     C58114   8.036   6.213   1.080  0.8172  0.5919  0.2287
  441MOL0     O58115   8.158   6.276   1.059 -0.2597  0.9684 -0.1584
  441MOL0     C58116   8.176   6.405   1.121  0.1718 -0.4331  0.3389
  441MOL0     C58117   8.223   6.508   1.019 -0.8081  0.0214  0.1726
  441MOL0     C58118   8.371   6.485   0.966 -0.1338 -0.4362 -0.3162
  441MOL0     C58119   8.368   6.532   0.824 -0.5762  0.2799  1.2461
  441MOL0     C58120   8.504   6.512   0.761  0.8168 -0.1112  0.0872
  441MOL0     C58121   8.507   6.549   0.604  1.6406  0.2985 -0.0081
  441MOL0     C58122   8.648   6.536   0.542  0.5561  0.0989 -0.0446
  441MOL0     C58123   8.707   6.392   0.523  0.2672  0.3246  0.7652
  441MOL0    Cl58124   8.634   6.327   0.374  0.2914  0.1078  0.1421
  441MOL0     C58125   8.043   6.087   1.139  0.3938 -0.0729 -0.6209
  441MOL0     C58126   7.927   6.034   1.199 -0.1717 -0.6250  0.5452
  441MOL0     O58127   7.625   5.971   1.039 -1.1384 -0.7399  0.5796
  441MOL0     C58128   7.472   5.907   1.355 -0.5624  0.4614  0.3157
  441MOL0     C58129   7.371   5.830   1.418 -0.3517 -0.8789 -0.4766
  441MOL0     N58130   6.807   5.384   1.831  0.9473  0.2575 -0.1162
  441MOL0     N58131   6.758   5.429   1.930  0.0321  1.1276 -0.2919
  441MOL0     C58132   5.621   5.746   2.569 -0.6379  0.5212 -0.3970
  441MOL0     C58133   5.499   5.741   2.621  0.6545  0.2366  0.6657
  441MOL0     C58134   5.041   5.711   2.642  0.1400 -0.1365  0.7637
  441MOL0     C58135   4.928   5.781   2.596 -0.0786 -0.0618 -1.0092
  441MOL0     C58136   4.815   5.784   2.673  0.4549  0.1974  1.0843
  441MOL0     C58137   4.801   5.702   2.785 -0.6341 -0.3030 -0.0246
  441MOL0     O58138   4.677   5.710   2.854  0.1094 -0.1820  0.0086
  441MOL0     C58139   4.624   5.626   2.958  0.3657 -0.2991  0.3770
  441MOL0     C58140   4.632   5.682   3.098  0.0017 -0.1472  0.6518
  441MOL0     C58141   4.548   5.803   3.123 -0.4217  0.1499  0.5401
  441MOL0     C58142   4.566   5.860   3.268  1.2032  0.4374  0.7892
  441MOL0     C58143   4.540   6.004   3.290  0.4653 -0.2123  0.2714
  441MOL0     C58144   4.502   6.115   3.305  0.7207 -0.1462 -0.6059
  441MOL0     C58145   4.912   5.628   2.825 -0.1296  0.9166  0.2586
  441MOL0     C58146   5.035   5.637   2.757  0.8781  0.2058  0.1136
  441MOL0     H58147   5.344   5.571   2.376  1.6630 -0.5762  0.1912
  441MOL0     H58148   5.576   5.591   2.274  0.4569  2.3572  0.4663
  441MOL0     H58149   5.922   5.682   2.554 -1.4903  0.2228  1.1894
  441MOL0     H58150   5.850   5.849   2.528 -4.3902  0.1471 -1.9716
  441MOL0     H58151   6.077   5.853   2.467  1.0827  0.4121  0.8006
  441MOL0     H58152   5.997   5.842   2.314  0.9260  1.0619  1.0318
  441MOL0     H58153   6.036   5.623   2.260 -0.4385 -0.5233 -0.2123
  441MOL0     H58154   6.095   5.592   2.421 -3.7980  1.1891  1.0828
  441MOL0     H58155   6.227   5.817   2.250  1.5423  0.1348  2.4694
  441MOL0     H58156   6.308   5.702   2.346  0.8504  1.0267  0.8052
  441MOL0     H58157   6.178   5.632   2.070 -1.1967 -2.6931  0.7098
  441MOL0     H58158   6.274   5.534   2.168 -0.6633  0.7936  0.5754
  441MOL0     H58159   6.457   5.734   2.161  2.1644  0.9371 -1.3538
  441MOL0     H58160   6.368   5.793   2.036 -2.7407  0.1995  4.3932
  441MOL0     H58161   6.421   5.492   2.003  1.2222 -1.1501 -1.8758
  441MOL0     H58162   6.422   5.614   1.885  1.2826 -2.3850 -0.7591
  441MOL0     H58163   6.646   5.624   2.092  1.2645  0.1278 -0.5968
  441MOL0     H58164   6.615   5.730   1.963  2.8409  0.4166  0.4348
  441MOL0     H58165   6.670   5.662   1.726  0.9172 -0.7725 -2.3466
  441MOL0     H58166   6.761   5.519   1.516 -0.1169  3.1837  1.0220
  441MOL0     H58167   6.831   5.361   1.557 -1.2632  1.2357 -0.1050
  441MOL0     H58168   7.029   5.464   1.499 -2.5714  1.4688 -2.9930
  441MOL0     H58169   7.000   5.547   1.661 -1.4105 -0.4612  1.0224
  441MOL0     H58170   6.918   5.648   1.383 -1.7890  1.5416  0.7971
  441MOL0     H58171   6.906   5.729   1.538 -3.2553 -1.4573 -1.8732
  441MOL0     H58172   7.137   5.764   1.562 -1.7617  3.0527  0.1514
  441MOL0     H58173   7.077   5.829   1.407  1.0676  0.2365 -1.2318
  441MOL0     H58174   7.283   5.666   1.143  1.6405 -0.2693 -0.1847
  441MOL0     H58175   7.467   5.771   1.054 -2.4984 -1.6709  0.6858
  441MOL0     H58176   7.704   6.284   1.106  1.3998 -0.4196  0.7902
  441MOL0     H58177   7.936   6.369   0.999 -1.5102  2.7687  3.5236
  441MOL0     H58178   8.251   6.388   1.198 -1.6836 -2.8270  1.7504
  441MOL0     H58179   8.079   6.445   1.153  0.0413 -0.7095  0.2854
  441MOL0     H58180   8.234   6.605   1.068 -0.7949  1.6781 -2.8805
  441MOL0     H58181   8.149   6.512   0.939  1.3956  4.7177 -2.0139
  441MOL0     H58182   8.389   6.377   0.971  0.9105 -0.4058 -2.5352
  441MOL0     H58183   8.450   6.533   1.024 -0.1839 -1.1028  0.3276
  441MOL0     H58184   8.303   6.473   0.759 -0.8283  0.3359  1.4490
  441MOL0     H58185   8.335   6.635   0.813  1.6882  0.7605 -4.4006
  441MOL0     H58186   8.520   6.405   0.776 -3.5326 -0.5390  4.2022
  441MOL0     H58187   8.576   6.573   0.815 -0.4191 -0.8138  2.7237
  441MOL0     H58188   8.476   6.653   0.592  0.4813  0.0211  0.4618
  441MOL0     H58189   8.438   6.491   0.543  2.8173 -2.4247  1.0406
  441MOL0     H58190   8.633   6.576   0.441 -3.6495  1.1704  0.8158
  441MOL0     H58191   8.719   6.600   0.596  1.0048  0.0991 -0.6289
  441MOL0     H58192   8.701   6.332   0.614 -0.5876  2.1164  1.9275
  441MOL0     H58193   8.814   6.402   0.501  0.6661  1.4264  2.9827
  441MOL0     H58194   8.140   6.044   1.158 -0.6718 -2.0459  0.6316
  441MOL0     H58195   7.942   5.950   1.267  2.8404  0.1937  1.0228
  441MOL0     H58196   7.524   5.983   1.412  0.4780  1.3635 -1.7414
  441MOL0     H58197   7.344   5.847   1.522  1.4676 -2.5562  0.3554
  441MOL0     H58198   5.698   5.777   2.639  0.2816 -1.8893 -0.2471
  441MOL0     H58199   5.474   5.778   2.720 -0.1672 -0.4949  0.7443
  441MOL0     H58200   4.937   5.854   2.516 -0.8584  1.0916 -0.0788
  441MOL0     H58201   4.739   5.848   2.628  0.5691 -1.7218 -2.1890
  441MOL0     H58202   4.673   5.528   2.956 -0.1041 -0.5300 -0.2937
  441MOL0     H58203   4.516   5.611   2.947 -0.0946  3.1472 -1.1510
  441MOL0     H58204   4.598   5.602   3.164  0.5637 -2.4544 -1.6958
  441MOL0     H58205   4.735   5.707   3.125 -0.4374  1.0089  1.3183
  441MOL0     H58206   4.443   5.780   3.102  0.1806 -2.4375  0.1521
  441MOL0     H58207   4.571   5.891   3.061 -4.4142  1.2535  0.3366
  441MOL0     H58208   4.496   5.799   3.326  0.8603  0.4768  0.4169
  441MOL0     H58209   4.670   5.842   3.295  1.3239  1.4538  1.0481
  441MOL0     H58210   4.486   6.220   3.322  2.3043  0.3624 -1.9957
  441MOL0     H58211   4.885   5.565   2.908  1.3834 -1.5861 -1.0380
  441MOL0     H58212   5.118   5.570   2.778  1.2003  0.4602 -0.3273
  442MOL0     O58213   4.739   1.650   5.875 -0.2656 -0.4030  0.1607
  442MOL0     C58214   4.715   1.528   5.880  0.6508 -0.2235 -0.7649
  442MOL0     O58215   4.592   1.472   5.900 -0.5490 -0.4687 -0.6879
  442MOL0     C58216   4.475   1.543   5.898  0.1553 -0.3108 -0.0385
  442MOL0     C58217   4.365   1.471   5.944 -0.2009  0.0944  0.1076
  442MOL0     C58218   4.241   1.544   5.951 -0.5532  0.2954  0.9213
  442MOL0     C58219   4.235   1.680   5.916 -0.0886 -0.1269 -0.3869
  442MOL0     O58220   4.115   1.753   5.913  0.4331  0.5340 -0.1251
  442MOL0     C58221   4.010   1.711   6.004 -0.0889 -0.0477  0.1425
  442MOL0     C58222   3.894   1.819   6.002  0.0535  0.2996 -0.0017
  442MOL0     C58223   3.771   1.776   6.089  0.6651  0.1284 -0.2158
  442MOL0     C58224   3.695   1.901   6.143 -0.9598 -0.0780  0.8866
  442MOL0     C58225   3.614   1.858   6.271  0.2233 -0.9954  0.6785
  442MOL0     C58226   3.484   1.791   6.239 -0.1967 -0.1230 -0.3379
  442MOL0     C58227   3.392   1.753   6.359 -0.5612  0.8678 -0.2361
  442MOL0     C58228   3.309   1.880   6.409 -1.2161  1.0675  0.0277
  442MOL0     N58229   3.214   1.855   6.519  0.3278  0.3691 -0.0659
  442MOL0     C58230   3.111   1.772   6.527  0.7817  0.3176  0.5306
  442MOL0     C58231   3.041   1.820   6.636 -0.1442  0.8292  0.3924
  442MOL0     C58232   2.910   1.761   6.675 -0.2710  0.3457 -0.6268
  442MOL0     C58233   2.806   1.855   6.750  0.2019 -0.5919  0.6097
  442MOL0     C58234   2.676   1.772   6.770 -0.2591  0.4391 -0.5714
  442MOL0     C58235   2.681   1.671   6.884 -0.5877  0.0409 -0.1403
  442MOL0     O58236   2.680   1.737   7.002  0.0920 -0.7173  0.4365
  442MOL0     C58237   2.738   1.689   7.114  1.1319  0.5877 -0.0677
  442MOL0     C58238   2.760   1.781   7.212  0.5036  0.4059  0.2940
  442MOL0     C58239   2.804   1.744   7.344 -0.0739  0.4686  0.4756
  442MOL0     C58240   2.823   1.607   7.368  0.2542  0.4026 -0.1510
  442MOL0     C58241   2.872   1.552   7.496  0.1408  0.3970 -0.5652
  442MOL0     O58242   2.954   1.449   7.501 -0.6262 -0.2254  0.4431
  442MOL0     C58243   2.965   1.376   7.612  0.8999  1.0553  0.1630
  442MOL0     C58244   2.849   1.298   7.652 -0.3808 -0.1913  0.3086
  442MOL0     C58245   2.860   1.205   7.758 -0.6838  0.0693  0.2998
  442MOL0     C58246   2.988   1.183   7.808  0.1271 -0.5321  0.1745
  442MOL0     O58247   3.005   1.081   7.894  0.3294  0.4541  0.4642
  442MOL0     C58248   3.109   0.980   7.858 -0.0230 -0.5753  0.4292
  442MOL0     C58249   3.182   0.950   7.993  1.1594  0.4222  0.1235
  442MOL0     C58250   3.088   0.895   8.104  0.0554  0.2453 -0.1620
  442MOL0     C58251   3.156   0.851   8.238  0.2211  0.0654  0.4255
  442MOL0     C58252   3.075   0.905   8.355 -0.0176 -0.3603  0.1796
  442MOL0     C58253   3.146   0.866   8.481  0.5604 -0.5817  0.1220
  442MOL0     C58254   3.095   0.945   8.597 -0.5361  1.1110 -0.5583
  442MOL0     C58255   3.181   0.927   8.717  0.8924  0.3659  0.5155
  442MOL0    Cl58256   3.135   0.777   8.808  0.0021 -0.3070 -0.2731
  442MOL0     C58257   3.097   1.272   7.783 -0.0409 -0.5909  0.0195
  442MOL0     C58258   3.083   1.361   7.675 -1.0524  0.0184 -0.7348
  442MOL0     O58259   2.831   1.615   7.592  0.3151 -0.2572 -0.4039
  442MOL0     C58260   2.798   1.515   7.279 -0.0491 -0.2341 -1.0448
  442MOL0     C58261   2.743   1.553   7.155 -0.3523 -0.8924  0.2353
  442MOL0     N58262   3.105   1.929   6.690 -0.2561  0.0695  0.4978
  442MOL0     N58263   3.212   1.950   6.616 -0.0818  0.0360  0.1086
  442MOL0     C58264   4.338   1.738   5.837 -1.3819  0.4777 -0.0646
  442MOL0     C58265   4.453   1.664   5.826 -0.2699 -0.0333 -1.5977
  442MOL0     C58266   4.832   1.436   5.877  0.5031 -0.4842  0.3582
  442MOL0     C58267   4.805   1.296   5.878  0.3900  0.1844  0.3875
  442MOL0     C58268   4.915   1.208   5.886 -0.5842 -0.9138  0.5694
  442MOL0     C58269   5.046   1.257   5.888 -0.3095 -1.1759 -0.3346
  442MOL0     O58270   5.163   1.184   5.916  0.5721  0.2471  0.6752
  442MOL0     C58271   5.148   1.041   5.910 -0.5295 -0.6211 -0.1074
  442MOL0     C58272   5.268   0.957   5.941 -0.1178  0.4632 -0.6818
  442MOL0     C58273   5.394   1.012   5.875 -0.6564  0.3575  0.8078
  442MOL0     C58274   5.519   0.922   5.923 -0.4447  0.0767  0.5029
  442MOL0     C58275   5.644   0.971   5.851 -0.4321  0.0379  0.0017
  442MOL0     C58276   5.748   0.997   5.792 -1.1372 -0.1194  0.0431
  442MOL0     C58277   5.073   1.394   5.876  0.2086 -0.1840 -0.1349
  442MOL0     C58278   4.963   1.484   5.870 -0.6255  0.5240  1.0276
  442MOL0     H58279   4.368   1.367   5.974  3.5855 -0.3353 -1.2748
  442MOL0     H58280   4.153   1.502   5.999 -1.4071  0.6915 -0.2540
  442MOL0     H58281   4.048   1.708   6.106 -3.7680  3.1448  1.8485
  442MOL0     H58282   3.970   1.613   5.978  1.1082 -1.8373  4.3183
  442MOL0     H58283   3.849   1.839   5.904  0.5978  3.9059  0.3648
  442MOL0     H58284   3.935   1.918   6.024 -0.2843  0.4101  0.1423
  442MOL0     H58285   3.809   1.716   6.172 -4.6511 -1.1566  1.7446
  442MOL0     H58286   3.695   1.713   6.042  0.0865  1.3750 -1.0152
  442MOL0     H58287   3.770   1.977   6.167 -0.6123  0.0895 -0.6081
  442MOL0     H58288   3.621   1.934   6.069 -2.0199  1.8693  2.7061
  442MOL0     H58289   3.601   1.953   6.324  0.1272  0.1364 -1.2894
  442MOL0     H58290   3.671   1.806   6.348 -0.9995  0.0865  2.3924
  442MOL0     H58291   3.506   1.700   6.183 -0.7166 -2.2490  2.6587
  442MOL0     H58292   3.421   1.856   6.177  0.1918 -0.7056 -1.3620
  442MOL0     H58293   3.316   1.679   6.331 -1.0978  1.5686 -0.6795
  442MOL0     H58294   3.455   1.722   6.443 -3.2500 -1.7538  1.0175
  442MOL0     H58295   3.260   1.925   6.323  0.0351  0.9209 -0.7876
  442MOL0     H58296   3.385   1.956   6.430 -0.4960 -0.0461  1.7650
  442MOL0     H58297   3.074   1.692   6.464 -0.4885  0.0034  1.6365
  442MOL0     H58298   2.950   1.678   6.734  3.0166  1.6233 -0.8368
  442MOL0     H58299   2.867   1.721   6.583  0.9075  2.1247 -2.0228
  442MOL0     H58300   2.795   1.944   6.688 -0.0959 -0.7224  0.4753
  442MOL0     H58301   2.849   1.879   6.848 -0.3095  0.6374  0.5597
  442MOL0     H58302   2.593   1.841   6.786  0.0094  0.3568  1.5174
  442MOL0     H58303   2.654   1.728   6.672  2.5796  3.6184 -2.9000
  442MOL0     H58304   2.776   1.617   6.871  0.8857  1.5800  3.0636
  442MOL0     H58305   2.596   1.603   6.877 -0.3717 -0.1257 -1.4940
  442MOL0     H58306   2.738   1.885   7.188  0.2316  0.4296  0.6378
  442MOL0     H58307   2.829   1.820   7.416  3.5703 -1.2417  1.2263
  442MOL0     H58308   2.751   1.304   7.606  0.2333 -0.5834 -1.1132
  442MOL0     H58309   2.784   1.148   7.811  1.4527 -1.9002  1.4589
  442MOL0     H58310   3.186   1.008   7.786 -2.5774 -2.1819 -3.2910
  442MOL0     H58311   3.052   0.891   7.829 -0.4747 -0.1123 -0.1464
  442MOL0     H58312   3.230   1.033   8.046  1.1292 -0.0042  0.8372
  442MOL0     H58313   3.265   0.881   7.977 -0.0768 -1.2649  0.7417
  442MOL0     H58314   3.044   0.807   8.056 -4.1626  0.2134  3.2199
  442MOL0     H58315   3.001   0.958   8.123 -0.1844 -0.3149  0.6537
  442MOL0     H58316   3.160   0.742   8.245  3.0049  0.1860  2.9573
  442MOL0     H58317   3.262   0.879   8.241  1.2505 -3.3051  0.0209
  442MOL0     H58318   2.974   0.862   8.351 -0.4714  0.7850 -2.1479
  442MOL0     H58319   3.060   1.013   8.358 -1.3262 -0.5448  1.3837
  442MOL0     H58320   3.252   0.895   8.472  0.3036  0.6792  0.9354
  442MOL0     H58321   3.145   0.759   8.501  2.8544 -1.1611 -2.1398
  442MOL0     H58322   3.094   1.051   8.570 -0.9056  1.5945  1.2228
  442MOL0     H58323   2.998   0.913   8.634  1.0058 -2.2802  0.9749
  442MOL0     H58324   3.155   1.007   8.787  0.3011  0.7583 -0.1415
  442MOL0     H58325   3.287   0.938   8.693  1.2084 -2.0152  0.5208
  442MOL0     H58326   3.194   1.252   7.827 -1.7338 -2.1588  3.4238
  442MOL0     H58327   3.168   1.418   7.639 -1.4608  0.2419 -1.3771
  442MOL0     H58328   2.830   1.414   7.301 -2.0654 -1.0191 -1.4864
  442MOL0     H58329   2.716   1.473   7.087 -0.0744  0.0881 -1.0523
  442MOL0     H58330   4.336   1.836   5.791  3.0923  0.9818  0.3706
  442MOL0     H58331   4.540   1.707   5.778  0.1728 -0.5713 -1.2890
  442MOL0     H58332   4.708   1.249   5.889 -0.4825  1.7872 -0.2114
  442MOL0     H58333   4.895   1.102   5.892  2.7329 -1.5945  2.0676
  442MOL0     H58334   5.102   0.996   5.822 -1.4516 -1.4856  0.7807
  442MOL0     H58335   5.082   1.020   5.995 -5.0190 -0.0938 -3.1378
  442MOL0     H58336   5.287   0.953   6.049  2.0105  2.7769 -0.8860
  442MOL0     H58337   5.248   0.852   5.915  2.9069 -0.3324 -0.1888
  442MOL0     H58338   5.407   1.119   5.890  1.2136  0.7117 -2.3598
  442MOL0     H58339   5.383   1.022   5.766 -2.9139 -0.0767  0.9456
  442MOL0     H58340   5.529   0.917   6.032  0.3781  2.9952  0.6356
  442MOL0     H58341   5.503   0.822   5.881 -0.5687 -0.2464  1.2978
  442MOL0     H58342   5.847   1.015   5.755 -1.6541 -1.2313 -2.1016
  442MOL0     H58343   5.172   1.434   5.894  0.2310 -0.8560  1.4451
  442MOL0     H58344   4.978   1.590   5.853  0.3069  0.5216  1.7819
  443MOL0     O58345  11.364   0.570   9.772  0.0597  0.0736 -0.1097
  443MOL0     C58346  11.290   0.652   9.816  0.9225  0.3075 -0.6143
  443MOL0     O58347  11.270   0.689   9.943 -0.2196 -0.2365  0.5718
  443MOL0     C58348  11.363   0.655  10.035  0.4747  0.4535 -0.4152
  443MOL0     C58349  11.315   0.589  10.159 -0.4390 -0.0386  0.5437
  443MOL0     C58350  11.416   0.550  10.252  1.0098 -0.7168 -0.1585
  443MOL0     C58351  11.548   0.567  10.248  0.0777  0.1363 -0.4129
  443MOL0     O58352  11.624   0.496  10.334 -0.3431  0.1086  0.0424
  443MOL0     C58353  11.772   0.490  10.318  0.1159 -0.9677  0.6939
  443MOL0     C58354  11.827   0.382  10.412  0.1359  1.1931 -0.7118
  443MOL0     C58355  11.848   0.249  10.334  0.1065 -0.6580 -1.1216
  443MOL0     C58356  11.915   0.141  10.425 -0.2626 -0.4501 -0.5484
  443MOL0     C58357  11.906  -0.006  10.362  0.2440 -0.4425 -0.4465
  443MOL0     C58358  11.791  -0.103  10.413  0.3695  0.8646  0.0255
  443MOL0     C58359  11.806  -0.250  10.366  0.9092  0.1521 -1.1240
  443MOL0     C58360  11.821  -0.259  10.216 -0.4775 -0.5032  0.0766
  443MOL0     N58361  11.811  -0.398  10.166 -0.6651 -0.1767 -0.1462
  443MOL0     C58362  11.909  -0.493  10.186 -0.6863  0.2710 -0.0129
  443MOL0     C58363  11.859  -0.605  10.117  0.6338  0.2340  0.6267
  443MOL0     C58364  11.927  -0.741  10.113 -0.3070 -0.0857 -1.2282
  443MOL0     C58365  11.852  -0.823  10.222  0.3627 -0.5191  0.5299
  443MOL0     C58366  11.906  -0.966  10.205 -0.3724  0.0760  0.5145
  443MOL0     C58367  11.850  -1.057  10.325 -0.6056 -0.8900  1.3508
  443MOL0     O58368  11.849  -1.191  10.272  0.5321  0.0212  0.9250
  443MOL0     C58369  11.728  -1.250  10.249  0.6200  0.0951 -0.2459
  443MOL0     C58370  11.655  -1.293  10.361 -0.0486 -1.2177 -0.3002
  443MOL0     C58371  11.531  -1.352  10.335  0.7995 -0.1135  0.5564
  443MOL0     C58372  11.459  -1.353  10.208 -1.0497 -0.6420 -0.0339
  443MOL0     C58373  11.323  -1.409  10.190 -0.0276 -0.2561  0.6462
  443MOL0     O58374  11.243  -1.416  10.305 -0.4617 -0.0977 -0.3591
  443MOL0     C58375  11.121  -1.480  10.319  0.1156  0.5242 -0.3461
  443MOL0     C58376  11.051  -1.521  10.208  0.2176 -0.2226 -0.0002
  443MOL0     C58377  10.941  -1.602  10.209  0.0143 -0.0603  0.4068
  443MOL0     C58378  10.883  -1.633  10.330  0.1840 -0.0764 -0.4061
  443MOL0     O58379  10.767  -1.693  10.350  0.6102  0.5566 -0.7765
  443MOL0     C58380  10.660  -1.702  10.257  0.5072 -0.6284 -0.4097
  443MOL0     C58381  10.634  -1.836  10.190  0.3473 -0.2169  0.0358
  443MOL0     C58382  10.532  -1.919  10.268 -0.4310 -0.7441  0.3737
  443MOL0     C58383  10.483  -2.038  10.195 -0.7360  0.6708  0.3652
  443MOL0     C58384  10.533  -2.167  10.266 -0.0488  0.2689  1.3441
  443MOL0     C58385  10.476  -2.299  10.206  0.0477  0.0342  0.5397
  443MOL0     C58386  10.548  -2.425  10.264  0.5756  0.5897 -0.6302
  443MOL0     C58387  10.470  -2.551  10.259 -0.5372  0.5391  0.3822
  443MOL0    Cl58388  10.576  -2.672  10.318 -0.1060  0.2433 -0.1734
  443MOL0     C58389  10.947  -1.601  10.446 -0.8466 -0.2572  0.2610
  443MOL0     C58390  11.062  -1.520  10.443 -0.2083 -1.3590  0.2383
  443MOL0     O58391  11.294  -1.468  10.088  0.4414 -0.1659  0.2946
  443MOL0     C58392  11.541  -1.304  10.098 -0.2669  0.7158 -0.8266
  443MOL0     C58393  11.670  -1.255  10.125  1.0439 -0.0530 -0.2640
  443MOL0     N58394  11.738  -0.576  10.061 -0.4688  0.5417  0.2541
  443MOL0     N58395  11.710  -0.453  10.091 -0.0760 -0.5222 -0.4180
  443MOL0     C58396  11.585   0.639  10.136  0.0903 -0.2052 -0.2628
  443MOL0     C58397  11.495   0.679  10.036 -0.5944  0.2822  0.7531
  443MOL0     C58398  11.212   0.720   9.713  0.0108  0.7275  0.4045
  443MOL0     C58399  11.081   0.769   9.739 -1.0829  1.3461  0.0682
  443MOL0     C58400  10.995   0.827   9.635 -1.4291 -0.2485 -0.3809
  443MOL0     C58401  11.033   0.815   9.501  0.3106 -0.0424 -0.4120
  443MOL0     O58402  10.966   0.879   9.397 -0.7505 -0.0356  0.0996
  443MOL0     C58403  10.819   0.893   9.402 -0.0931 -0.3137 -0.0570
  443MOL0     C58404  10.772   1.013   9.316  0.1386  0.2451 -0.4603
  443MOL0     C58405  10.821   1.149   9.361 -0.6834 -0.8370 -0.0512
  443MOL0     C58406  10.779   1.259   9.251 -0.0109  0.2232  0.3408
  443MOL0     C58407  10.827   1.395   9.279  0.5253  0.0298  0.0408
  443MOL0     C58408  10.858   1.513   9.273  0.3367 -0.3453  0.9307
  443MOL0     C58409  11.164   0.774   9.473 -0.2248  0.7484 -0.3210
  443MOL0     C58410  11.252   0.729   9.573  0.5296  0.4329 -0.5774
  443MOL0     H58411  11.213   0.574  10.193 -0.4318 -1.6212 -0.0353
  443MOL0     H58412  11.389   0.494  10.341  1.8521 -1.0489 -0.0966
  443MOL0     H58413  11.817   0.583  10.353  1.1312 -1.4953  0.8449
  443MOL0     H58414  11.807   0.473  10.215 -1.3033  0.7731 -0.1310
  443MOL0     H58415  11.762   0.364  10.498  1.2901  3.5763  0.7507
  443MOL0     H58416  11.926   0.415  10.443  0.0259 -0.5977  1.8659
  443MOL0     H58417  11.918   0.267  10.252  1.2269 -0.6022 -0.1790
  443MOL0     H58418  11.745   0.221  10.310 -1.4370  3.9606 -0.8737
  443MOL0     H58419  12.020   0.168  10.441 -0.2478 -0.7268 -0.1444
  443MOL0     H58420  11.871   0.133  10.525  1.6141 -2.5947  0.2136
  443MOL0     H58421  12.002  -0.043  10.399 -0.7413 -2.0185  0.6698
  443MOL0     H58422  11.901   0.002  10.253  1.4499 -2.4824 -0.7197
  443MOL0     H58423  11.694  -0.079  10.370  0.1217  0.1880  0.1831
  443MOL0     H58424  11.793  -0.110  10.522 -1.8482 -5.8452  0.1230
  443MOL0     H58425  11.900  -0.291  10.404  0.5293  0.5170  0.2593
  443MOL0     H58426  11.727  -0.308  10.414 -0.0844  1.4326 -1.1387
  443MOL0     H58427  11.916  -0.221  10.177 -0.7988 -2.2041 -2.6063
  443MOL0     H58428  11.738  -0.202  10.172  0.1157  0.1354 -0.2437
  443MOL0     H58429  12.003  -0.492  10.240 -0.5062 -4.0570  0.0829
  443MOL0     H58430  12.032  -0.728  10.142 -0.2620 -1.2691 -0.7972
  443MOL0     H58431  11.928  -0.785  10.013 -0.5056  0.7685 -1.6138
  443MOL0     H58432  11.746  -0.805  10.203  0.8776  0.0668 -2.3460
  443MOL0     H58433  11.876  -0.781  10.320 -1.1723  1.4104  0.1429
  443MOL0     H58434  11.877  -0.995  10.104  1.1118  1.0397 -0.2296
  443MOL0     H58435  12.015  -0.966  10.208 -0.3841  0.5162  1.1464
  443MOL0     H58436  11.754  -1.021  10.364  0.0131  2.0698  0.3472
  443MOL0     H58437  11.919  -1.051  10.410 -0.6732 -0.4958  1.3772
  443MOL0     H58438  11.690  -1.280  10.463  0.6662  2.4562 -0.8772
  443MOL0     H58439  11.469  -1.383  10.419  1.6015 -0.6020  0.9762
  443MOL0     H58440  11.080  -1.505  10.105  1.1764  1.3645  0.4725
  443MOL0     H58441  10.905  -1.648  10.117  2.3991 -3.0863  0.8141
  443MOL0     H58442  10.683  -1.637  10.172  1.8050 -1.5946 -0.8214
  443MOL0     H58443  10.568  -1.669  10.307  3.3711  2.7106  3.3119
  443MOL0     H58444  10.722  -1.900  10.187 -0.4042 -1.2527 -1.7862
  443MOL0     H58445  10.602  -1.805  10.090  0.7196  1.1837  0.3231
  443MOL0     H58446  10.449  -1.848  10.285  0.6734  0.7015 -0.0491
  443MOL0     H58447  10.569  -1.946  10.368 -1.9392 -1.0421  0.8781
  443MOL0     H58448  10.375  -2.052  10.201 -0.4387 -1.7927  0.7740
  443MOL0     H58449  10.522  -2.030  10.093 -2.4991  4.2442 -0.1865
  443MOL0     H58450  10.502  -2.156  10.371  0.7625  0.3274  1.5878
  443MOL0     H58451  10.642  -2.175  10.262  0.1472  2.6880 -1.2879
  443MOL0     H58452  10.470  -2.296  10.096  0.4652  2.0337  0.5287
  443MOL0     H58453  10.373  -2.308  10.242 -0.9560  0.7172 -1.9464
  443MOL0     H58454  10.639  -2.450  10.207 -0.5920 -2.8947 -1.1981
  443MOL0     H58455  10.573  -2.400  10.367  0.1368 -0.6760 -0.1915
  443MOL0     H58456  10.441  -2.569  10.155  0.9383  1.8788 -0.2917
  443MOL0     H58457  10.372  -2.539  10.306 -1.7672  0.5321 -2.0337
  443MOL0     H58458  10.896  -1.619  10.540 -3.5684  0.6879 -0.9323
  443MOL0     H58459  11.107  -1.468  10.527  0.9401  0.1331 -1.2079
  443MOL0     H58460  11.505  -1.316   9.996 -0.8891 -2.4319 -0.3281
  443MOL0     H58461  11.740  -1.237  10.044  1.0650  1.2612  0.0242
  443MOL0     H58462  11.692   0.654  10.131  0.5070 -2.9445 -0.9108
  443MOL0     H58463  11.533   0.729   9.947  2.0289  1.0491  2.1776
  443MOL0     H58464  11.040   0.771   9.840 -0.0623 -0.7768  0.5688
  443MOL0     H58465  10.908   0.871   9.682  0.8061  0.0192  4.0331
  443MOL0     H58466  10.778   0.912   9.502 -0.7283 -2.9332  0.2544
  443MOL0     H58467  10.776   0.799   9.365  0.6281 -0.2022 -1.2303
  443MOL0     H58468  10.813   0.982   9.219 -2.4711 -2.6722 -0.7798
  443MOL0     H58469  10.664   1.001   9.319  0.3287 -2.5312 -1.5936
  443MOL0     H58470  10.929   1.144   9.377 -0.7293  1.6323  1.4845
  443MOL0     H58471  10.789   1.189   9.458  2.7507 -0.5873  1.1249
  443MOL0     H58472  10.818   1.230   9.153 -2.7835 -0.0236 -0.7867
  443MOL0     H58473  10.670   1.273   9.249  0.0306  0.4644 -0.8231
  443MOL0     H58474  10.893   1.614   9.272 -0.0847 -0.1860  1.5859
  443MOL0     H58475  11.203   0.768   9.372  2.0560 -0.3957  0.5711
  443MOL0     H58476  11.345   0.682   9.541  0.6279 -1.0297  1.5883
  444MOL0     O58477   3.100  11.056   3.508 -0.1248 -0.4124 -0.3299
  444MOL0     C58478   3.040  11.044   3.618 -0.1326  0.5825  0.5457
  444MOL0     O58479   3.089  11.075   3.744 -0.5512 -0.4535  0.5280
  444MOL0     C58480   3.212  11.135   3.744 -0.5957  0.2491 -0.6035
  444MOL0     C58481   3.223  11.271   3.729 -0.5600  0.5593  0.0470
  444MOL0     C58482   3.351  11.329   3.739 -0.6060  0.3527  0.0674
  444MOL0     C58483   3.468  11.256   3.755 -0.6462 -0.4693  0.1711
  444MOL0     O58484   3.586  11.321   3.786 -1.0062  0.0459 -1.8064
  444MOL0     C58485   3.705  11.235   3.796  0.1521 -0.1824 -0.3041
  444MOL0     C58486   3.823  11.318   3.800 -0.4043 -0.2919  0.5924
  444MOL0     C58487   3.951  11.232   3.819  0.2420 -0.2232  0.9605
  444MOL0     C58488   4.064  11.326   3.797  0.4659 -0.4292  1.2568
  444MOL0     C58489   4.196  11.261   3.838  0.9708  0.0315  0.2273
  444MOL0     C58490   4.264  11.201   3.710  0.9163 -0.1067  0.3065
  444MOL0     C58491   4.396  11.138   3.731  0.4612  0.3548  0.1748
  444MOL0     C58492   4.492  11.153   3.612  0.7400 -0.1644 -0.5717
  444MOL0     N58493   4.635  11.124   3.644  1.4816 -1.1403  0.6951
  444MOL0     C58494   4.701  11.023   3.581  0.1866  0.6515  0.1176
  444MOL0     C58495   4.816  11.017   3.646 -0.2533  0.7624 -0.2287
  444MOL0     C58496   4.939  10.924   3.641 -0.0266 -0.8284 -0.7617
  444MOL0     C58497   4.916  10.790   3.571 -0.2780 -0.1915  0.2321
  444MOL0     C58498   4.854  10.683   3.670  0.2811  0.9805  0.1874
  444MOL0     C58499   4.761  10.585   3.582 -0.3197 -0.0948 -0.7791
  444MOL0     O58500   4.844  10.492   3.513 -0.4545 -0.7388  0.1938
  444MOL0     C58501   4.779  10.397   3.448  0.0790  0.2423 -0.1833
  444MOL0     C58502   4.858  10.297   3.396  0.3098  0.7240 -0.4629
  444MOL0     C58503   4.805  10.185   3.334  0.0911  0.2958  0.4377
  444MOL0     C58504   4.658  10.170   3.317  0.8312  0.1588 -0.5084
  444MOL0     C58505   4.602  10.045   3.255 -0.7501  0.3734 -0.3340
  444MOL0     O58506   4.470  10.026   3.262  0.1531 -0.0273 -0.6335
  444MOL0     C58507   4.438   9.894   3.285 -0.1761 -0.6451 -0.3913
  444MOL0     C58508   4.430   9.815   3.172 -0.6007  0.9297 -0.6704
  444MOL0     C58509   4.440   9.672   3.177 -0.0803 -0.2343 -0.4001
  444MOL0     C58510   4.416   9.616   3.301 -0.3551 -0.2766 -0.6219
  444MOL0     O58511   4.420   9.476   3.315  0.5946  0.1366  0.1521
  444MOL0     C58512   4.331   9.416   3.413  0.2579 -1.2585  0.7185
  444MOL0     C58513   4.199   9.373   3.338  0.2480 -0.8819 -0.3003
  444MOL0     C58514   4.104   9.310   3.433  0.2345  0.5497 -0.4692
  444MOL0     C58515   4.035   9.412   3.521 -0.1945  0.5900 -0.2855
  444MOL0     C58516   3.956   9.324   3.625 -0.0432 -0.5113  0.0897
  444MOL0     C58517   3.805   9.360   3.646 -0.1789 -0.1035 -0.4388
  444MOL0     C58518   3.725   9.222   3.674  0.5183  0.8707  0.1633
  444MOL0     C58519   3.578   9.243   3.699 -1.2048  0.1432 -0.1841
  444MOL0    Cl58520   3.493   9.084   3.723  0.1334 -0.0118  0.0601
  444MOL0     C58521   4.422   9.702   3.419 -0.4779 -0.2539 -0.8011
  444MOL0     C58522   4.446   9.840   3.416  0.3066 -0.6790 -0.1486
  444MOL0     O58523   4.678   9.986   3.180 -0.0992  0.0707  0.4522
  444MOL0     C58524   4.575  10.274   3.368 -1.0823 -0.3822 -0.5866
  444MOL0     C58525   4.641  10.379   3.432 -0.5420 -0.4499  0.1841
  444MOL0     N58526   4.823  11.112   3.738 -0.5438 -0.6902  0.3565
  444MOL0     N58527   4.714  11.166   3.740  0.0696  0.3844 -0.0189
  444MOL0     C58528   3.453  11.121   3.772  0.5451  0.0669  0.0379
  444MOL0     C58529   3.326  11.060   3.769  0.1853  0.3531  1.0732
  444MOL0     C58530   2.905  10.979   3.612  0.1162 -1.0385 -0.1561
  444MOL0     C58531   2.885  10.879   3.513  0.0829 -0.2239 -0.4321
  444MOL0     C58532   2.764  10.807   3.508 -0.6375  0.0169 -0.0601
  444MOL0     C58533   2.664  10.832   3.607 -0.0754  0.6674 -0.4480
  444MOL0     O58534   2.547  10.755   3.583  0.1534  0.4878  0.2841
  444MOL0     C58535   2.432  10.771   3.668  0.5596 -0.2060 -0.1623
  444MOL0     C58536   2.327  10.849   3.592 -0.3915 -0.1974 -0.4461
  444MOL0     C58537   2.192  10.870   3.664 -0.1291 -0.4064 -0.2201
  444MOL0     C58538   2.085  10.939   3.571 -0.4993  0.3239  0.3704
  444MOL0     C58539   1.954  10.933   3.637 -0.0405 -0.5208  0.3216
  444MOL0     C58540   1.859  10.920   3.710  0.2578  0.6244 -0.0708
  444MOL0     C58541   2.689  10.923   3.713 -0.1663  0.1950 -0.7380
  444MOL0     C58542   2.802  11.003   3.711 -0.0502 -0.5790 -0.0025
  444MOL0     H58543   3.138  11.336   3.718 -1.1088 -0.1428  0.0503
  444MOL0     H58544   3.356  11.437   3.730  0.8011  0.2692 -0.3634
  444MOL0     H58545   3.711  11.180   3.701 -2.8048 -0.7227 -0.2553
  444MOL0     H58546   3.693  11.171   3.883  0.1817 -0.6809 -0.6607
  444MOL0     H58547   3.824  11.388   3.884 -1.6393  2.3838 -1.4505
  444MOL0     H58548   3.832  11.384   3.713  2.7930  1.6455  2.1905
  444MOL0     H58549   3.948  11.155   3.740 -1.2468  0.6285  0.1304
  444MOL0     H58550   3.943  11.190   3.920 -1.2413 -0.1743  0.8937
  444MOL0     H58551   4.056  11.365   3.695  0.3919 -0.3080  1.3084
  444MOL0     H58552   4.037  11.411   3.861 -2.7790 -1.3305  1.2595
  444MOL0     H58553   4.188  11.193   3.924 -0.4650  0.0819  0.1494
  444MOL0     H58554   4.260  11.342   3.874  0.1116  0.3620  1.0417
  444MOL0     H58555   4.267  11.282   3.636 -0.2428 -1.0732 -0.8593
  444MOL0     H58556   4.190  11.128   3.675  0.6961 -0.3389  1.2364
  444MOL0     H58557   4.457  11.171   3.816  3.1623 -2.6208 -0.4003
  444MOL0     H58558   4.381  11.030   3.740 -1.4643  0.2562 -2.9689
  444MOL0     H58559   4.489  11.253   3.567  1.6186 -0.8657 -2.2789
  444MOL0     H58560   4.457  11.095   3.526  0.2439  0.5365 -0.8533
  444MOL0     H58561   4.658  10.958   3.506 -0.8529  0.5234  0.8107
  444MOL0     H58562   4.975  10.910   3.743 -1.5442 -0.8003 -0.2048
  444MOL0     H58563   5.016  10.981   3.589 -1.5493  1.1099 -0.9783
  444MOL0     H58564   5.015  10.758   3.537 -0.1474  0.6527 -0.2101
  444MOL0     H58565   4.849  10.797   3.485 -1.2349 -0.6314  0.9187
  444MOL0     H58566   4.944  10.631   3.702 -0.1699 -1.0113 -1.5338
  444MOL0     H58567   4.803  10.728   3.756  1.5559  0.7865  1.0650
  444MOL0     H58568   4.699  10.638   3.510 -1.0039 -3.3933 -2.8283
  444MOL0     H58569   4.690  10.541   3.653  0.0439  1.5667  0.7098
  444MOL0     H58570   4.965  10.306   3.409 -0.0770  3.1776  2.1779
  444MOL0     H58571   4.875  10.112   3.293  0.5023  0.8365  0.1601
  444MOL0     H58572   4.435   9.854   3.071  1.2481 -3.0183 -2.3345
  444MOL0     H58573   4.432   9.609   3.090 -0.1230 -1.9606  0.8099
  444MOL0     H58574   4.304   9.481   3.496 -3.5301  0.3264 -1.4999
  444MOL0     H58575   4.387   9.332   3.455  0.5336 -0.6080  1.6879
  444MOL0     H58576   4.211   9.305   3.254 -1.2639  1.3477 -2.4679
  444MOL0     H58577   4.142   9.462   3.308 -0.7144 -1.7945 -1.2252
  444MOL0     H58578   4.152   9.232   3.493  0.8104  1.1234 -0.1646
  444MOL0     H58579   4.030   9.263   3.368 -1.6139  1.9445  0.5201
  444MOL0     H58580   4.104   9.477   3.575 -0.1894  0.8926 -0.6460
  444MOL0     H58581   3.959   9.471   3.468 -1.3468  1.2937  2.0165
  444MOL0     H58582   4.006   9.353   3.718 -1.8324  0.2731  0.8564
  444MOL0     H58583   3.969   9.215   3.622 -1.9309 -0.8618  2.3687
  444MOL0     H58584   3.758   9.396   3.554 -0.4326  2.1232  0.4850
  444MOL0     H58585   3.808   9.432   3.729  0.1511 -0.0119 -0.5306
  444MOL0     H58586   3.744   9.148   3.595  1.1918 -0.6909  1.7383
  444MOL0     H58587   3.768   9.178   3.764  1.6943  0.0687 -0.7611
  444MOL0     H58588   3.528   9.287   3.612 -0.3622 -2.7649 -2.2905
  444MOL0     H58589   3.568   9.299   3.793 -0.8200  0.5110 -0.3624
  444MOL0     H58590   4.428   9.665   3.521  2.1458  0.7926 -0.4934
  444MOL0     H58591   4.458   9.905   3.503  1.7412 -2.5515  1.1470
  444MOL0     H58592   4.468  10.260   3.366 -1.1023 -0.1789 -0.9278
  444MOL0     H58593   4.580  10.444   3.494  0.0287  1.0687 -0.7825
  444MOL0     H58594   3.542  11.061   3.784  1.4905  0.7246 -2.8199
  444MOL0     H58595   3.314  10.952   3.770 -0.7301  0.4541  1.7760
  444MOL0     H58596   2.955  10.846   3.437 -2.8449 -2.5802 -2.3411
  444MOL0     H58597   2.753  10.728   3.435 -0.0255  0.2069 -0.3597
  444MOL0     H58598   2.452  10.821   3.764 -0.8333 -4.3927  2.6213
  444MOL0     H58599   2.395  10.672   3.696 -0.7932 -0.3088 -2.1080
  444MOL0     H58600   2.359  10.943   3.545 -2.6996  1.5849  1.3193
  444MOL0     H58601   2.301  10.787   3.505 -2.0830  0.0414 -0.1483
  444MOL0     H58602   2.203  10.942   3.746 -2.1184 -0.6165  0.2692
  444MOL0     H58603   2.154  10.777   3.706 -0.0947  0.4686  1.8487
  444MOL0     H58604   2.125  11.041   3.560  0.9882 -0.0767  1.7621
  444MOL0     H58605   2.079  10.896   3.470 -1.2390 -1.5035  1.1574
  444MOL0     H58606   1.773  10.925   3.774  1.4201 -0.3552  1.6580
  444MOL0     H58607   2.614  10.950   3.787  0.3479 -2.0948  0.6976
  444MOL0     H58608   2.817  11.081   3.785  1.8249 -0.8449 -0.0582
  445MOL0     O58609   0.049  10.201   7.509 -0.5484  0.5467  0.9278
  445MOL0     C58610   0.079  10.117   7.598  0.0541  1.0532  0.3230
  445MOL0     O58611  -0.005  10.037   7.672  0.4197 -0.8685  0.6443
  445MOL0     C58612  -0.136  10.041   7.630  0.7164 -0.3125 -0.6645
  445MOL0     C58613  -0.220  10.149   7.644 -0.3173 -1.1062 -1.1012
  445MOL0     C58614  -0.359  10.146   7.627 -0.6325 -0.2007 -0.1912
  445MOL0     C58615  -0.419  10.026   7.572 -1.1904  0.2931  0.9824
  445MOL0     O58616  -0.548  10.044   7.529  1.0821 -0.3993  0.6023
  445MOL0     C58617  -0.624   9.924   7.492 -0.1653 -0.2718  0.2567
  445MOL0     C58618  -0.769   9.965   7.460 -0.5233  0.8241  0.5976
  445MOL0     C58619  -0.841  10.003   7.590 -1.0509 -0.2824  0.2937
  445MOL0     C58620  -0.988  10.037   7.561 -0.8480 -0.0480  0.0496
  445MOL0     C58621  -1.054  10.075   7.689  0.1706 -0.7513  0.1557
  445MOL0     C58622  -1.197  10.094   7.655 -0.5360  0.6886 -0.1550
  445MOL0     C58623  -1.263  10.152   7.778 -0.9543 -0.5298  0.7404
  445MOL0     C58624  -1.273  10.057   7.899 -0.6464 -0.0606  0.2935
  445MOL0     N58625  -1.349  10.111   8.017  0.5479 -0.1794  0.7721
  445MOL0     C58626  -1.436  10.049   8.094 -0.2124 -0.2429 -0.0262
  445MOL0     C58627  -1.471  10.145   8.187  0.7701  0.0178  0.1446
  445MOL0     C58628  -1.580  10.118   8.288 -0.3394  0.4802 -1.1710
  445MOL0     C58629  -1.709  10.057   8.232  0.3959  0.5102  0.7045
  445MOL0     C58630  -1.797  10.014   8.343 -0.1307 -0.3919  0.7722
  445MOL0     C58631  -1.934   9.984   8.279 -0.5535  0.0676  0.9876
  445MOL0     O58632  -2.037   9.974   8.375  0.3391 -0.7004 -0.2758
  445MOL0     C58633  -2.171   9.979   8.329  0.2720 -0.7489 -0.1137
  445MOL0     C58634  -2.217  10.086   8.249 -0.1353  0.7574 -0.4578
  445MOL0     C58635  -2.356  10.084   8.219 -0.4974 -0.5684 -0.0503
  445MOL0     C58636  -2.448   9.982   8.268 -1.2556  0.1059 -0.4906
  445MOL0     C58637  -2.591   9.990   8.244 -0.1956  0.5128  0.1328
  445MOL0     O58638  -2.637  10.113   8.198  0.0779  0.1165 -0.3559
  445MOL0     C58639  -2.763  10.127   8.150  0.9716  0.2207  0.2880
  445MOL0     C58640  -2.789  10.198   8.031  0.0867 -0.7224 -0.5560
  445MOL0     C58641  -2.913  10.239   7.979  0.4513 -0.0599 -0.1014
  445MOL0     C58642  -3.020  10.194   8.052  0.3179 -0.4598 -0.4543
  445MOL0     O58643  -3.148  10.217   8.003  0.2371 -0.0412  0.9408
  445MOL0     C58644  -3.255  10.142   8.046 -0.0136 -0.3153 -0.9816
  445MOL0     C58645  -3.388  10.154   7.980 -0.9243  0.7226  1.0682
  445MOL0     C58646  -3.503  10.078   8.060  0.5514  0.9944 -1.1388
  445MOL0     C58647  -3.647  10.108   8.005 -0.4119 -0.2388  0.3283
  445MOL0     C58648  -3.749  10.017   8.063 -0.8554  0.6284 -0.1528
  445MOL0     C58649  -3.869  10.016   7.975  0.2057  0.7910 -0.7413
  445MOL0     C58650  -3.966   9.906   8.027  0.6971  0.2928 -0.6293
  445MOL0     C58651  -4.096   9.913   7.960 -0.6741 -0.5453  0.6456
  445MOL0    Cl58652  -4.188  10.047   8.037  0.4673 -0.0176 -0.0410
  445MOL0     C58653  -3.007  10.130   8.175 -0.5703  1.1246  0.2072
  445MOL0     C58654  -2.879  10.093   8.224 -0.2120  0.6308 -0.8051
  445MOL0     O58655  -2.668   9.896   8.263 -0.8796  0.5472  0.0783
  445MOL0     C58656  -2.396   9.877   8.345 -0.9110  0.1814 -0.3066
  445MOL0     C58657  -2.257   9.877   8.375  1.0710 -0.0853  0.6959
  445MOL0     N58658  -1.400  10.261   8.157 -0.0585  1.3084  0.1927
  445MOL0     N58659  -1.323  10.240   8.060  0.6501 -0.5725  0.0327
  445MOL0     C58660  -0.341   9.905   7.586  0.0428  0.4481  0.2473
  445MOL0     C58661  -0.205   9.918   7.620 -0.3151  0.1154 -0.2173
  445MOL0     C58662   0.226  10.100   7.626  0.8079 -0.4739  0.1801
  445MOL0     C58663   0.318  10.197   7.579  0.6502 -0.3791 -0.4030
  445MOL0     C58664   0.448  10.184   7.624 -1.2432 -0.3520 -0.3019
  445MOL0     C58665   0.500  10.071   7.685 -0.1148 -0.8670 -0.7998
  445MOL0     O58666   0.639  10.068   7.696  0.2244  0.0059 -0.1245
  445MOL0     C58667   0.698   9.946   7.750  0.0039  0.5062  1.2406
  445MOL0     C58668   0.749   9.967   7.888 -0.2769  1.1887 -0.7051
  445MOL0     C58669   0.825   9.844   7.943 -0.5063 -1.0981  0.2122
  445MOL0     C58670   0.837   9.863   8.097  0.2918  0.7430  0.4148
  445MOL0     C58671   0.934   9.760   8.148  0.0227 -0.0511  0.6981
  445MOL0     C58672   1.055   9.636   8.225 -0.2071  0.6869 -0.3065
  445MOL0     C58673   0.406   9.980   7.727 -1.0091 -0.3943  0.5001
  445MOL0     C58674   0.268   9.995   7.708 -0.8492 -0.4050 -1.0996
  445MOL0     H58675  -0.181  10.249   7.661  1.7043 -1.9887 -0.1589
  445MOL0     H58676  -0.403  10.245   7.631 -0.4941 -0.1086 -0.7995
  445MOL0     H58677  -0.619   9.849   7.572  0.0599 -0.6902 -0.1436
  445MOL0     H58678  -0.581   9.880   7.402  1.2726  0.9910  0.2857
  445MOL0     H58679  -0.819   9.878   7.415 -0.0337  0.5859  0.5118
  445MOL0     H58680  -0.769  10.037   7.378  2.1026  1.3034  0.9274
  445MOL0     H58681  -0.791  10.094   7.623 -0.9664 -0.4403  0.6048
  445MOL0     H58682  -0.809   9.931   7.666  1.2384  2.0580  1.6909
  445MOL0     H58683  -0.987  10.121   7.491 -2.2271  0.6628  0.8291
  445MOL0     H58684  -1.034   9.941   7.536  0.8644 -1.4693  2.0259
  445MOL0     H58685  -1.003  10.163   7.730 -0.3619  0.0285 -0.8066
  445MOL0     H58686  -1.038   9.997   7.764  2.8523  1.0567  1.6470
  445MOL0     H58687  -1.244  10.006   7.609  0.3220  0.6481 -0.9938
  445MOL0     H58688  -1.211  10.169   7.576 -1.2204  2.1247  1.2904
  445MOL0     H58689  -1.214  10.246   7.805 -1.4238  0.7188 -2.3973
  445MOL0     H58690  -1.364  10.180   7.748 -0.3230 -3.3521 -5.4585
  445MOL0     H58691  -1.169  10.032   7.922 -0.2154  0.0686 -1.3980
  445MOL0     H58692  -1.337   9.972   7.875 -0.2019 -0.1279 -0.6758
  445MOL0     H58693  -1.475   9.949   8.076  0.3291 -0.0331 -2.8117
  445MOL0     H58694  -1.611  10.221   8.310 -1.6007  0.3309 -2.0932
  445MOL0     H58695  -1.546  10.064   8.376 -0.9493 -0.4689 -1.5044
  445MOL0     H58696  -1.689   9.971   8.168 -2.4368  0.3766 -0.1455
  445MOL0     H58697  -1.761  10.131   8.171  0.4371 -2.1217 -2.7909
  445MOL0     H58698  -1.764   9.927   8.401  0.4250 -0.2662  0.6503
  445MOL0     H58699  -1.821  10.089   8.418 -1.6421 -0.3853  0.3188
  445MOL0     H58700  -1.933   9.886   8.229  5.4307 -2.3670  4.6822
  445MOL0     H58701  -1.958  10.060   8.205 -0.6164  2.2971  3.1830
  445MOL0     H58702  -2.149  10.167   8.224  2.5763 -1.1474  0.3335
  445MOL0     H58703  -2.409  10.169   8.179 -1.9393 -1.3694  0.0797
  445MOL0     H58704  -2.705  10.225   7.968 -0.3274 -0.5849 -1.0556
  445MOL0     H58705  -2.928  10.295   7.887 -0.2804  1.6041  0.9879
  445MOL0     H58706  -3.268  10.159   8.153  1.4308 -0.7464 -0.7138
  445MOL0     H58707  -3.224  10.038   8.032  0.4506 -0.0195 -2.2979
  445MOL0     H58708  -3.377  10.113   7.879 -1.1557 -0.2893  1.4334
  445MOL0     H58709  -3.400  10.262   7.981  3.8335  1.4784  2.9511
  445MOL0     H58710  -3.506  10.120   8.161 -0.5808  0.8710 -1.1052
  445MOL0     H58711  -3.484   9.970   8.057  0.2028  0.9331 -3.6916
  445MOL0     H58712  -3.675  10.207   8.044  1.0488 -0.7216  2.8482
  445MOL0     H58713  -3.646  10.115   7.896  0.1941  1.7332  0.4205
  445MOL0     H58714  -3.759  10.051   8.166 -0.5764 -2.9112  1.2059
  445MOL0     H58715  -3.699   9.920   8.074 -1.7043 -0.0471 -1.7247
  445MOL0     H58716  -3.841   9.997   7.871 -1.3857  1.1112 -1.2592
  445MOL0     H58717  -3.922  10.112   7.982 -0.4955  0.4196 -0.8185
  445MOL0     H58718  -3.928   9.807   8.001 -6.0140 -3.3276  1.2078
  445MOL0     H58719  -3.979   9.913   8.135  1.4679  1.2323 -0.5828
  445MOL0     H58720  -4.145   9.820   7.990 -0.4985 -1.2264 -1.0835
  445MOL0     H58721  -4.086   9.920   7.851  1.0003  1.1502  0.8481
  445MOL0     H58722  -3.098  10.100   8.227 -1.8556  0.9874 -1.9761
  445MOL0     H58723  -2.874  10.047   8.323  1.2594  0.9159 -0.7152
  445MOL0     H58724  -2.456   9.792   8.373 -2.2517  0.5112 -2.0048
  445MOL0     H58725  -2.217   9.790   8.426  1.0931 -0.6512 -0.2587
  445MOL0     H58726  -0.381   9.811   7.552 -0.0863  0.8214 -0.6640
  445MOL0     H58727  -0.156   9.821   7.627 -0.6262 -0.1263 -1.2265
  445MOL0     H58728   0.282  10.276   7.514 -0.8495 -0.4348  0.3275
  445MOL0     H58729   0.517  10.246   7.568  0.1404  0.2665  1.9484
  445MOL0     H58730   0.783   9.920   7.687  0.7862  1.6106  1.8167
  445MOL0     H58731   0.631   9.860   7.743  0.2548  0.3893 -3.9858
  445MOL0     H58732   0.807  10.061   7.889  1.1710  0.3382 -1.3529
  445MOL0     H58733   0.664   9.982   7.955 -1.2254 -0.5049 -1.4994
  445MOL0     H58734   0.928   9.840   7.905 -0.4567 -0.7504  0.3043
  445MOL0     H58735   0.769   9.754   7.919  0.2615 -1.6567  0.4559
  445MOL0     H58736   0.869   9.965   8.122 -0.4768  0.6325  1.9288
  445MOL0     H58737   0.736   9.848   8.136  1.4009 -3.7121  2.1219
  445MOL0     H58738   1.121   9.572   8.281 -3.0824 -0.7585  1.7083
  445MOL0     H58739   0.447   9.902   7.790  3.1164  1.4017  0.3505
  445MOL0     H58740   0.195   9.929   7.756 -0.5660  2.3561  3.7861
  446MOL0     O58741   6.338   9.935   2.815 -0.0891  0.0955 -0.9956
  446MOL0     C58742   6.229   9.971   2.847 -0.6582  0.7844 -0.3131
  446MOL0     O58743   6.190  10.092   2.901  0.9019  0.0074  0.4694
  446MOL0     C58744   6.290  10.190   2.913  0.0575 -0.2839 -0.2359
  446MOL0     C58745   6.365  10.198   3.027 -0.1315  0.4449  0.3193
  446MOL0     C58746   6.470  10.294   3.040  1.0021  0.9885  0.1828
  446MOL0     C58747   6.501  10.381   2.933  0.2927 -0.3884 -0.4634
  446MOL0     O58748   6.600  10.476   2.937 -0.6062 -0.2881  0.3596
  446MOL0     C58749   6.616  10.557   3.060  0.7925 -0.1056 -0.0934
  446MOL0     C58750   6.543  10.695   3.054  0.4049 -0.0502  0.0463
  446MOL0     C58751   6.602  10.778   2.932  0.4106 -0.4849 -0.2149
  446MOL0     C58752   6.481  10.792   2.838 -0.0901 -0.0203 -0.4238
  446MOL0     C58753   6.530  10.842   2.704  0.1312 -0.2706 -0.2915
  446MOL0     C58754   6.397  10.896   2.633  0.4909 -0.0620 -0.1305
  446MOL0     C58755   6.436  10.971   2.497 -0.7019  0.4729  0.3608
  446MOL0     C58756   6.330  11.010   2.411  0.0962  0.4146  0.2544
  446MOL0     N58757   6.260  10.894   2.346 -0.1721  0.1583 -0.2123
  446MOL0     C58758   6.138  10.836   2.379 -0.8660 -0.0400 -1.6433
  446MOL0     C58759   6.123  10.739   2.292  0.1206 -0.5353  0.1846
  446MOL0     C58760   5.998  10.644   2.270 -0.2711 -0.2096 -0.4161
  446MOL0     C58761   5.893  10.700   2.188 -0.6621 -0.2521  0.5891
  446MOL0     C58762   5.945  10.751   2.053  0.3218  0.2429 -0.3489
  446MOL0     C58763   5.843  10.809   1.953 -0.2467  0.6225  0.5984
  446MOL0     O58764   5.745  10.710   1.926  0.1369  0.4518 -0.1184
  446MOL0     C58765   5.623  10.706   1.992 -0.2732 -0.5387  0.4385
  446MOL0     C58766   5.534  10.608   1.948 -0.3198 -0.0229 -0.9184
  446MOL0     C58767   5.400  10.607   1.991  0.0809 -0.4541 -0.7014
  446MOL0     C58768   5.356  10.699   2.087  1.6026 -0.1903 -0.7098
  446MOL0     C58769   5.223  10.703   2.155 -0.0521 -0.2627 -0.9896
  446MOL0     O58770   5.179  10.808   2.229  0.6289 -0.1554  0.3255
  446MOL0     C58771   5.055  10.834   2.274  0.2432  0.0634  0.2319
  446MOL0     C58772   5.026  10.970   2.323  0.1552  0.0426  0.4204
  446MOL0     C58773   4.898  11.004   2.363 -0.1106  0.2169  0.7264
  446MOL0     C58774   4.800  10.915   2.385  0.2027 -0.4285 -0.2636
  446MOL0     O58775   4.685  10.960   2.445 -0.0540 -0.3098 -0.1118
  446MOL0     C58776   4.567  10.886   2.401 -0.0497 -0.8112  0.1319
  446MOL0     C58777   4.442  10.973   2.434  0.2992 -0.0457 -0.4965
  446MOL0     C58778   4.301  10.902   2.403  0.2286  0.1657 -0.6142
  446MOL0     C58779   4.183  10.966   2.482  0.7633  0.0222 -0.3421
  446MOL0     C58780   4.047  10.896   2.486 -0.4742  0.2832  0.3136
  446MOL0     C58781   3.953  10.965   2.582 -0.3821 -0.0715  0.8249
  446MOL0     C58782   3.804  10.922   2.568  0.4530 -0.3546  0.9005
  446MOL0     C58783   3.750  10.900   2.425 -0.6317 -0.5778 -0.3450
  446MOL0    Cl58784   3.569  10.892   2.431 -0.1415 -0.1720 -0.3381
  446MOL0     C58785   4.826  10.775   2.343 -0.1265  0.2638 -0.4525
  446MOL0     C58786   4.949  10.734   2.283  0.2806  0.5367  0.2074
  446MOL0     O58787   5.157  10.608   2.118  0.0642 -0.4139  0.3717
  446MOL0     C58788   5.449  10.797   2.137 -0.0126  0.5518 -0.0752
  446MOL0     C58789   5.580  10.796   2.088 -0.3275 -0.8395 -0.8080
  446MOL0     N58790   6.233  10.738   2.204 -0.5652 -0.1163 -0.0028
  446MOL0     N58791   6.318  10.831   2.236  1.1063  0.9524  0.1529
  446MOL0     C58792   6.419  10.372   2.817 -0.4557 -0.3086 -1.0521
  446MOL0     C58793   6.319  10.278   2.810 -0.7133  0.8876  0.7519
  446MOL0     C58794   6.118   9.881   2.806  0.0290  0.5196 -0.4072
  446MOL0     C58795   6.149   9.744   2.788 -0.2627 -0.0256  0.1089
  446MOL0     C58796   6.056   9.640   2.756 -0.2945 -0.8208 -0.6264
  446MOL0     C58797   5.920   9.675   2.740 -0.7646  0.0952 -0.5623
  446MOL0     O58798   5.836   9.582   2.720  0.9381  0.4609  0.4448
  446MOL0     C58799   5.704   9.614   2.681  0.5054  0.0489 -0.2124
  446MOL0     C58800   5.687   9.663   2.530 -0.1534 -0.2701 -0.7730
  446MOL0     C58801   5.714   9.548   2.443  0.0869  0.8612  0.1670
  446MOL0     C58802   5.591   9.460   2.437  0.3406  0.3285 -0.2326
  446MOL0     C58803   5.572   9.384   2.320  0.4480  0.3093 -0.2655
  446MOL0     C58804   5.561   9.316   2.222  0.1604 -0.1794 -0.3349
  446MOL0     C58805   5.892   9.807   2.764 -0.1832 -0.0828  0.3055
  446MOL0     C58806   5.984   9.910   2.779  0.8021  0.0910 -0.5300
  446MOL0     H58807   6.340  10.121   3.100 -0.2121 -0.6273 -0.7997
  446MOL0     H58808   6.522  10.285   3.135  0.5873  0.2335  0.3541
  446MOL0     H58809   6.722  10.558   3.086  0.6418  2.0425  0.5864
  446MOL0     H58810   6.571  10.506   3.146  1.6478 -2.3032 -0.8889
  446MOL0     H58811   6.575  10.731   3.152  1.2607 -0.3765 -0.1001
  446MOL0     H58812   6.435  10.679   3.055  0.1179  1.6891  0.0189
  446MOL0     H58813   6.693  10.734   2.890  0.6654  1.1748 -1.5011
  446MOL0     H58814   6.622  10.875   2.977  1.2683 -0.1464 -1.2866
  446MOL0     H58815   6.432  10.696   2.822 -1.3950  0.6470 -0.6274
  446MOL0     H58816   6.408  10.847   2.898  2.6414  1.3521  1.8631
  446MOL0     H58817   6.572  10.754   2.655 -0.3901 -1.2054  0.9018
  446MOL0     H58818   6.603  10.923   2.713 -0.0711 -0.3141  2.8945
  446MOL0     H58819   6.334  10.962   2.693  1.9642  1.1213  0.1951
  446MOL0     H58820   6.344  10.805   2.603  2.6816 -0.4558 -3.4296
  446MOL0     H58821   6.497  11.058   2.521 -3.1530  1.5763  3.2097
  446MOL0     H58822   6.491  10.894   2.442 -0.5465 -1.3587  2.9013
  446MOL0     H58823   6.377  11.065   2.328 -0.6373  0.6945  0.0162
  446MOL0     H58824   6.255  11.066   2.467  1.4533  1.5105  1.0477
  446MOL0     H58825   6.071  10.858   2.462 -1.8238  0.5676 -2.5616
  446MOL0     H58826   5.949  10.622   2.365 -2.6385 -1.0486 -1.7529
  446MOL0     H58827   6.038  10.551   2.229  1.0979  0.3295 -0.3727
  446MOL0     H58828   5.848  10.789   2.233 -0.3138  1.2792 -1.8796
  446MOL0     H58829   5.813  10.628   2.171 -0.0949 -0.3278 -2.2582
  446MOL0     H58830   6.023  10.827   2.061 -0.6609  1.6355 -2.8451
  446MOL0     H58831   5.980  10.658   2.008  1.8071 -0.3585  1.8630
  446MOL0     H58832   5.895  10.828   1.859 -1.7394  1.5103 -0.0670
  446MOL0     H58833   5.793  10.903   1.975 -1.8178  0.4013 -1.7325
  446MOL0     H58834   5.567  10.532   1.878 -0.3757 -0.5072 -0.4319
  446MOL0     H58835   5.336  10.525   1.959  2.5680 -1.9816 -2.0289
  446MOL0     H58836   5.096  11.048   2.295  2.7303 -2.8082 -1.8554
  446MOL0     H58837   4.879  11.110   2.372 -0.7883 -0.0591  3.5514
  446MOL0     H58838   4.568  10.793   2.459  0.6404 -0.1765  1.1812
  446MOL0     H58839   4.569  10.872   2.293 -4.2449 -2.4904  0.0943
  446MOL0     H58840   4.451  11.074   2.392 -1.9743  1.1298  1.5751
  446MOL0     H58841   4.443  10.993   2.541 -0.2351  0.3860 -0.5685
  446MOL0     H58842   4.295  10.793   2.408 -0.7189  0.2410  0.1001
  446MOL0     H58843   4.279  10.917   2.297 -0.8649  0.3708 -0.3672
  446MOL0     H58844   4.218  10.973   2.586 -0.3334  0.9639 -0.0148
  446MOL0     H58845   4.170  11.071   2.454 -1.7738 -0.1498 -0.0739
  446MOL0     H58846   4.058  10.792   2.518 -1.8821 -0.0205 -0.1287
  446MOL0     H58847   4.002  10.894   2.386 -2.4492 -1.5516  1.1620
  446MOL0     H58848   3.968  11.071   2.561 -4.3135  0.7580  1.3372
  446MOL0     H58849   3.973  10.948   2.688 -0.8681  3.4558  1.6246
  446MOL0     H58850   3.799  10.828   2.624  6.3108 -3.1165 -2.2820
  446MOL0     H58851   3.745  11.004   2.611 -1.7474 -0.1247 -2.1993
  446MOL0     H58852   3.797  10.807   2.392  3.7951  0.6349  1.7998
  446MOL0     H58853   3.772  10.981   2.355  2.2088  1.0733  2.2122
  446MOL0     H58854   4.750  10.702   2.369  1.2011 -0.1869  2.5693
  446MOL0     H58855   4.976  10.633   2.255  5.3387  1.8638 -0.6519
  446MOL0     H58856   5.419  10.875   2.207  1.3857  1.6005 -0.5793
  446MOL0     H58857   5.651  10.868   2.127 -0.2386 -0.8655 -0.9217
  446MOL0     H58858   6.443  10.431   2.728  0.9929  4.2845  2.0317
  446MOL0     H58859   6.263  10.284   2.717 -1.3836  0.2550  1.1080
  446MOL0     H58860   6.249   9.702   2.796 -1.5546 -3.1834  1.1975
  446MOL0     H58861   6.089   9.539   2.733  0.9970 -0.5331 -0.1455
  446MOL0     H58862   5.651   9.674   2.755 -1.2300  1.7036 -2.6560
  446MOL0     H58863   5.651   9.518   2.680  1.6845 -0.6322 -2.0665
  446MOL0     H58864   5.587   9.704   2.512  0.2344  2.3406  2.2689
  446MOL0     H58865   5.752   9.749   2.514 -1.5139  0.9465 -0.0238
  446MOL0     H58866   5.803   9.489   2.469  0.1982  1.3411  0.9163
  446MOL0     H58867   5.723   9.589   2.342 -0.6867 -0.0127 -0.2629
  446MOL0     H58868   5.590   9.381   2.513  0.9544 -0.4038 -0.9732
  446MOL0     H58869   5.505   9.524   2.456  1.7240  2.6370 -1.3373
  446MOL0     H58870   5.548   9.260   2.132 -0.3033 -1.7941  0.6797
  446MOL0     H58871   5.784   9.819   2.763 -0.0721  1.0037  0.3142
  446MOL0     H58872   5.947  10.012   2.781 -1.3651 -0.6637  1.0611
  447MOL0     O58873   4.455   2.430   9.035  0.9660  0.0553  0.4011
  447MOL0     C58874   4.379   2.515   9.091  0.1272  0.9523  0.7509
  447MOL0     O58875   4.405   2.647   9.107 -0.0957  0.4213  0.3828
  447MOL0     C58876   4.525   2.684   9.052 -1.1155 -0.3006 -0.1626
  447MOL0     C58877   4.647   2.679   9.124  0.4451  0.0449  0.0104
  447MOL0     C58878   4.762   2.727   9.067  0.1390  0.2003  0.7302
  447MOL0     C58879   4.767   2.765   8.936 -0.1775  0.1393 -0.1686
  447MOL0     O58880   4.889   2.801   8.882  0.4551  0.2980 -0.3145
  447MOL0     C58881   4.913   2.844   8.749 -0.2410 -0.0705  0.0197
  447MOL0     C58882   5.002   2.739   8.678 -0.2408 -0.1040  0.1864
  447MOL0     C58883   5.133   2.707   8.751 -0.0256 -0.9130  0.1940
  447MOL0     C58884   5.244   2.798   8.708 -0.3300  1.2443 -0.1638
  447MOL0     C58885   5.373   2.745   8.776 -0.1573 -0.3333  0.3736
  447MOL0     C58886   5.484   2.836   8.718  0.0392 -0.3623 -0.2120
  447MOL0     C58887   5.618   2.794   8.782 -0.3037  0.2382 -0.6679
  447MOL0     C58888   5.730   2.888   8.724  0.0019 -0.0058 -0.2982
  447MOL0     N58889   5.857   2.875   8.798 -0.0130  0.2211  0.4950
  447MOL0     C58890   5.888   2.981   8.875  0.4542 -0.3142 -1.0552
  447MOL0     C58891   5.997   2.941   8.944 -0.1872 -0.3951  0.1854
  447MOL0     C58892   6.070   3.012   9.051  0.1750  0.6788 -0.6542
  447MOL0     C58893   6.091   3.166   9.003 -0.2326  0.4758  0.0021
  447MOL0     C58894   6.185   3.243   9.098 -0.5318 -1.1459  0.1373
  447MOL0     C58895   6.328   3.221   9.059 -0.0201  0.2262  0.2530
  447MOL0     O58896   6.371   3.096   9.116  0.8376 -0.0769  0.9628
  447MOL0     C58897   6.505   3.078   9.126  0.0007 -0.3626 -1.2410
  447MOL0     C58898   6.556   2.946   9.116 -0.2548 -0.0374  0.1223
  447MOL0     C58899   6.685   2.907   9.160 -0.1674 -0.7445  0.0723
  447MOL0     C58900   6.773   3.013   9.199 -0.7525  0.0981  0.2027
  447MOL0     C58901   6.910   2.981   9.250 -0.1762  0.1827  0.4703
  447MOL0     O58902   6.949   2.854   9.240  0.3177 -0.2121  0.2840
  447MOL0     C58903   7.068   2.808   9.295 -0.3219 -0.4797  0.0334
  447MOL0     C58904   7.065   2.704   9.385 -0.1709  0.7610 -0.4589
  447MOL0     C58905   7.184   2.622   9.402 -0.9842  0.6166  0.0242
  447MOL0     C58906   7.306   2.681   9.358  0.4946 -0.7461  0.3158
  447MOL0     O58907   7.429   2.615   9.387 -0.2789  0.6245 -0.4958
  447MOL0     C58908   7.551   2.671   9.344  0.2454  0.4877 -0.0649
  447MOL0     C58909   7.608   2.772   9.440 -0.6758 -0.6984  0.4909
  447MOL0     C58910   7.663   2.729   9.573  0.0981  0.5173 -0.2263
  447MOL0     C58911   7.783   2.622   9.562 -0.2108 -1.1258  0.4402
  447MOL0     C58912   7.836   2.562   9.693 -0.2702 -0.2671  1.0130
  447MOL0     C58913   7.741   2.459   9.763 -0.6033  0.1410  0.6453
  447MOL0     C58914   7.738   2.327   9.679 -0.0146 -0.7228 -0.5883
  447MOL0     C58915   7.633   2.240   9.752 -0.3437 -0.7761 -0.7056
  447MOL0    Cl58916   7.478   2.333   9.772 -0.5376 -0.0787 -0.1900
  447MOL0     C58917   7.305   2.802   9.288  0.4663 -0.0610  0.3221
  447MOL0     C58918   7.184   2.853   9.237 -1.3184 -0.7246  0.2081
  447MOL0     O58919   6.982   3.068   9.296  0.1603 -0.1810  0.0758
  447MOL0     C58920   6.735   3.142   9.201  0.3245 -0.5874 -0.3569
  447MOL0     C58921   6.598   3.177   9.169  0.4700  0.3423  0.1261
  447MOL0     N58922   6.028   2.818   8.895 -0.6072  1.3098  0.4589
  447MOL0     N58923   5.956   2.781   8.797 -0.0761  0.1913 -0.2438
  447MOL0     C58924   4.653   2.763   8.859  0.2505  0.5049 -0.2236
  447MOL0     C58925   4.526   2.731   8.923  0.0376 -0.5275  0.5830
  447MOL0     C58926   4.242   2.469   9.146 -0.5150 -0.3316  0.0042
  447MOL0     C58927   4.154   2.553   9.213  0.0811  0.3729  0.4161
  447MOL0     C58928   4.021   2.505   9.236 -0.1266 -0.1396 -0.7548
  447MOL0     C58929   3.978   2.380   9.213  0.1882  0.2352  0.3513
  447MOL0     O58930   3.857   2.323   9.251 -0.2013  0.5305 -0.2232
  447MOL0     C58931   3.831   2.324   9.390  0.1677 -0.9963 -0.4576
  447MOL0     C58932   3.689   2.368   9.430 -0.2697  0.0843 -0.1014
  447MOL0     C58933   3.581   2.323   9.334  1.2725  0.0855 -0.2461
  447MOL0     C58934   3.450   2.282   9.418 -0.0138  0.8061  0.1222
  447MOL0     C58935   3.388   2.394   9.483  0.6873  0.2180 -0.6256
  447MOL0     C58936   3.334   2.494   9.527  0.4911  0.4509  0.4565
  447MOL0     C58937   4.074   2.293   9.151  0.3279 -0.3706  0.4845
  447MOL0     C58938   4.209   2.335   9.114 -0.4597 -0.0810  0.2541
  447MOL0     H58939   4.647   2.657   9.230 -2.4458  0.5980  0.1921
  447MOL0     H58940   4.856   2.720   9.121 -1.5021 -4.5221  3.6766
  447MOL0     H58941   4.975   2.934   8.746  0.8816 -0.6936  2.2028
  447MOL0     H58942   4.830   2.860   8.679 -0.5599 -0.3400  0.3320
  447MOL0     H58943   5.036   2.772   8.579 -3.3102 -1.1454 -1.3311
  447MOL0     H58944   4.941   2.650   8.662  2.0526 -1.4755 -1.6713
  447MOL0     H58945   5.155   2.605   8.718 -3.0002 -0.7616 -2.8391
  447MOL0     H58946   5.112   2.701   8.859 -2.9874 -1.6555 -0.3285
  447MOL0     H58947   5.264   2.790   8.601  3.4921  0.1027  0.4801
  447MOL0     H58948   5.217   2.897   8.746 -1.1642 -0.8147  5.6475
  447MOL0     H58949   5.399   2.640   8.761 -2.3610 -1.2322  2.2633
  447MOL0     H58950   5.347   2.766   8.880 -2.8516 -1.3879 -0.0173
  447MOL0     H58951   5.463   2.936   8.758 -1.4695  0.7395 -3.4445
  447MOL0     H58952   5.494   2.833   8.609 -0.7901  1.6996 -0.3846
  447MOL0     H58953   5.614   2.809   8.890 -1.2061  1.1044 -0.8031
  447MOL0     H58954   5.642   2.690   8.760 -0.1675  0.1044  0.1009
  447MOL0     H58955   5.683   2.987   8.722 -2.2539 -1.0145 -1.2556
  447MOL0     H58956   5.737   2.856   8.620 -0.5508 -0.2927 -0.2497
  447MOL0     H58957   5.835   3.075   8.886  1.1021 -0.1389  0.8680
  447MOL0     H58958   6.167   2.967   9.071  0.4202  2.0044  1.5056
  447MOL0     H58959   6.009   3.006   9.142  2.3659  0.6410  0.8770
  447MOL0     H58960   5.993   3.214   9.010 -1.6105 -2.2513  0.4943
  447MOL0     H58961   6.127   3.166   8.900  1.3846 -3.1418  0.4143
  447MOL0     H58962   6.159   3.348   9.081  2.5286 -0.2954  0.1262
  447MOL0     H58963   6.163   3.215   9.201 -0.0446  0.1193  0.5967
  447MOL0     H58964   6.393   3.301   9.096  1.3925 -1.6167  1.9977
  447MOL0     H58965   6.343   3.220   8.950 -0.7980  0.5584  0.1407
  447MOL0     H58966   6.482   2.879   9.074  0.1002 -0.2560 -0.1611
  447MOL0     H58967   6.718   2.804   9.160  3.3626  0.1633  3.0022
  447MOL0     H58968   6.965   2.675   9.415  1.1328 -3.6040  0.4522
  447MOL0     H58969   7.173   2.525   9.450 -3.3068  1.2336  0.8402
  447MOL0     H58970   7.549   2.703   9.240 -1.1395  2.0917  0.4146
  447MOL0     H58971   7.624   2.590   9.335  0.7200  0.6558  1.8338
  447MOL0     H58972   7.541   2.857   9.453  2.1218  1.5695  1.2221
  447MOL0     H58973   7.696   2.809   9.386 -2.4116  2.2516 -0.5369
  447MOL0     H58974   7.580   2.684   9.628 -0.9930  2.6759 -0.0287
  447MOL0     H58975   7.707   2.815   9.623  0.1403  0.0743  0.5176
  447MOL0     H58976   7.759   2.543   9.491  0.6405 -1.6946  0.7844
  447MOL0     H58977   7.873   2.670   9.524  1.3801 -2.1995  2.6522
  447MOL0     H58978   7.855   2.649   9.756  0.1922  1.8640 -1.8341
  447MOL0     H58979   7.935   2.519   9.674 -0.0133  0.7923 -0.1919
  447MOL0     H58980   7.641   2.498   9.787 -1.9112 -2.9989  0.7838
  447MOL0     H58981   7.777   2.436   9.864 -0.0679 -1.2118  0.1669
  447MOL0     H58982   7.714   2.349   9.574  1.5962  1.4261 -0.5623
  447MOL0     H58983   7.832   2.270   9.683  0.6540  0.4302  1.5363
  447MOL0     H58984   7.668   2.216   9.853 -3.7100 -0.1306  0.7356
  447MOL0     H58985   7.616   2.155   9.686 -1.6254  0.4901 -2.1072
  447MOL0     H58986   7.396   2.834   9.239  0.5904 -0.7532  0.0866
  447MOL0     H58987   7.196   2.923   9.155  0.2689 -0.3037  0.7627
  447MOL0     H58988   6.794   3.229   9.229  0.0728  0.7994 -3.6827
  447MOL0     H58989   6.576   3.279   9.199 -1.4467 -0.2868  1.0596
  447MOL0     H58990   4.647   2.787   8.754 -4.2957  0.1684 -0.2253
  447MOL0     H58991   4.432   2.734   8.868  0.0278 -2.3417  0.4387
  447MOL0     H58992   4.169   2.653   9.253  0.3397  1.1455 -1.5175
  447MOL0     H58993   3.956   2.582   9.276  0.7654 -0.4384  1.4496
  447MOL0     H58994   3.904   2.381   9.448  0.8219 -1.0633 -1.2109
  447MOL0     H58995   3.859   2.225   9.427 -0.1291 -0.7612  0.4493
  447MOL0     H58996   3.680   2.338   9.534  1.7704  2.8177  0.9717
  447MOL0     H58997   3.689   2.477   9.438 -0.9544 -0.0580  3.9472
  447MOL0     H58998   3.622   2.241   9.275 -0.0407 -0.9145  0.2149
  447MOL0     H58999   3.568   2.402   9.259 -0.4835  0.3374  0.2736
  447MOL0     H59000   3.375   2.246   9.347  1.5581 -0.7507 -0.8625
  447MOL0     H59001   3.474   2.205   9.492 -0.6581  0.0503 -0.4394
  447MOL0     H59002   3.282   2.586   9.546 -2.2366 -1.0300  0.6811
  447MOL0     H59003   4.039   2.193   9.127  1.3542 -0.3163 -1.3559
  447MOL0     H59004   4.265   2.262   9.057 -1.1661 -1.4572  1.2644
  448MOL0     O59005   7.787  10.187  10.764  0.0318  0.0732 -0.4974
  448MOL0     C59006   7.898  10.176  10.709 -0.7789  0.4736 -0.7227
  448MOL0     O59007   7.917  10.167  10.576 -0.1995 -0.0177  0.5514
  448MOL0     C59008   7.821  10.133  10.481 -1.2316  0.8210  0.0995
  448MOL0     C59009   7.736  10.020  10.510 -0.1524 -0.1538  0.6707
  448MOL0     C59010   7.650   9.979  10.407 -0.5896  1.1435  0.1907
  448MOL0     C59011   7.661  10.021  10.274 -0.0835  0.7350 -0.2404
  448MOL0     O59012   7.584   9.944  10.190  0.1741  0.3158 -0.9838
  448MOL0     C59013   7.564  10.002  10.060  0.2185  0.6145  0.3827
  448MOL0     C59014   7.463   9.919   9.977  0.0296  0.6745  0.6717
  448MOL0     C59015   7.470   9.768   9.992 -0.3759  0.7989  0.4751
  448MOL0     C59016   7.599   9.716   9.913  0.5449  0.0879  0.2618
  448MOL0     C59017   7.619   9.567   9.924 -1.4010 -0.0954  0.8185
  448MOL0     C59018   7.748   9.523   9.832 -0.5319  0.0553 -0.4874
  448MOL0     C59019   7.887   9.581   9.861  0.5444 -0.5261 -0.3468
  448MOL0     C59020   7.949   9.542   9.995 -0.7142  0.0635 -0.3644
  448MOL0     N59021   7.964   9.403  10.025 -0.1229  1.0039 -0.8552
  448MOL0     C59022   7.884   9.341  10.122 -0.8894 -0.7139 -0.3945
  448MOL0     C59023   7.926   9.211  10.107 -0.0104 -0.6415 -0.2090
  448MOL0     C59024   7.851   9.098  10.173  0.5312 -0.6026  0.6567
  448MOL0     C59025   7.694   9.095  10.134  0.1811 -0.0650  0.0069
  448MOL0     C59026   7.661   9.114   9.982 -0.1439 -0.2820 -0.2136
  448MOL0     C59027   7.732   9.018   9.894  0.3889 -0.2985 -0.3191
  448MOL0     O59028   7.665   8.972   9.767 -0.1410  0.8433 -0.5083
  448MOL0     C59029   7.733   8.871   9.697  0.4823 -0.2289 -0.4896
  448MOL0     C59030   7.865   8.834   9.719 -0.1119  0.2362 -1.0878
  448MOL0     C59031   7.924   8.730   9.652 -0.3156 -0.3295 -0.8899
  448MOL0     C59032   7.864   8.666   9.544  0.7876  0.1635  0.4802
  448MOL0     C59033   7.933   8.562   9.465 -0.3698  0.0448 -0.1892
  448MOL0     O59034   7.922   8.559   9.335 -0.3707  0.0762 -0.3325
  448MOL0     C59035   7.962   8.437   9.264 -1.1963 -0.6229 -0.0807
  448MOL0     C59036   7.860   8.371   9.197 -0.2951  0.7853  0.5460
  448MOL0     C59037   7.889   8.255   9.113 -0.5816  1.4448 -0.7845
  448MOL0     C59038   8.021   8.203   9.109 -0.5664 -0.1068 -0.2556
  448MOL0     O59039   8.048   8.092   9.035 -0.5923 -0.2916 -0.4892
  448MOL0     C59040   8.127   7.986   9.096  0.7018 -0.1790  0.7253
  448MOL0     C59041   8.128   7.865   9.013 -0.2555  0.5015  0.2110
  448MOL0     C59042   8.253   7.796   9.032 -0.5195  0.4590  0.2348
  448MOL0     C59043   8.225   7.650   8.986  0.0114  0.1256 -0.4958
  448MOL0     C59044   8.339   7.555   9.014  0.4790 -0.8210  0.3383
  448MOL0     C59045   8.311   7.417   8.964  0.0422 -0.0628 -0.0941
  448MOL0     C59046   8.413   7.328   9.036 -0.7188 -1.1568 -0.0481
  448MOL0     C59047   8.450   7.206   8.965  0.5085 -0.5525  0.6041
  448MOL0    Cl59048   8.357   7.066   9.009  0.3023  0.5882 -0.0242
  448MOL0     C59049   8.123   8.276   9.174  0.0979  0.0106 -0.8195
  448MOL0     C59050   8.092   8.394   9.243 -0.1177  0.6597 -0.9005
  448MOL0     O59051   7.980   8.470   9.531  0.2580 -0.6021 -0.3777
  448MOL0     C59052   7.736   8.723   9.505  0.3934  0.3021  0.2096
  448MOL0     C59053   7.673   8.818   9.581 -0.2799  0.0827 -1.6256
  448MOL0     N59054   8.021   9.199  10.008  0.3573  0.2732  0.5529
  448MOL0     N59055   8.033   9.311   9.955  0.0027  0.0121  0.4129
  448MOL0     C59056   7.743  10.133  10.252  0.2838 -0.7263  0.1511
  448MOL0     C59057   7.822  10.184  10.351 -0.6495  0.3154 -0.0148
  448MOL0     C59058   8.018  10.192  10.794  0.3552 -0.1027 -0.1438
  448MOL0     C59059   8.009  10.180  10.940 -0.0826 -0.5620 -0.5797
  448MOL0     C59060   8.122  10.216  11.019 -0.0324 -0.5360  0.3689
  448MOL0     C59061   8.243  10.245  10.963 -0.0376  0.0075 -0.6663
  448MOL0     O59062   8.356  10.243  11.047 -0.1202  0.3432 -0.4440
  448MOL0     C59063   8.354  10.275  11.187 -0.3201 -0.4292 -0.4010
  448MOL0     C59064   8.483  10.343  11.233 -0.5296  0.4503  0.2830
  448MOL0     C59065   8.600  10.253  11.217 -0.5999  0.2787  1.3972
  448MOL0     C59066   8.714  10.281  11.329  0.0922  0.2765  0.1590
  448MOL0     C59067   8.792  10.399  11.335  0.6335  0.6504 -0.0256
  448MOL0     C59068   8.862  10.496  11.331  0.4221 -0.6028  0.7421
  448MOL0     C59069   8.251  10.233  10.816  0.8049  0.0039  0.5583
  448MOL0     C59070   8.137  10.216  10.738  0.7482  0.6305  0.1534
  448MOL0     H59071   7.734   9.958  10.599  1.0418 -1.9043 -0.4710
  448MOL0     H59072   7.589   9.893  10.430  1.8498 -0.0431  2.7519
  448MOL0     H59073   7.667  10.004  10.022 -0.0362 -0.2693 -0.3953
  448MOL0     H59074   7.524  10.103  10.075  0.4564  0.7935 -0.1750
  448MOL0     H59075   7.469   9.940   9.869  0.5080 -1.0239  0.3345
  448MOL0     H59076   7.365   9.962   9.997 -0.4288 -0.9071  1.9691
  448MOL0     H59077   7.380   9.712   9.963  0.3320 -0.0233 -0.1883
  448MOL0     H59078   7.482   9.729  10.093 -1.3186 -0.1784  0.2326
  448MOL0     H59079   7.571   9.736   9.809  0.3832  0.8234  0.4393
  448MOL0     H59080   7.683   9.785   9.923 -1.5224  2.9536 -0.7404
  448MOL0     H59081   7.534   9.505   9.894 -2.0646  0.9453  0.5024
  448MOL0     H59082   7.642   9.534  10.026  3.4516  1.3224  0.4034
  448MOL0     H59083   7.709   9.569   9.740 -1.7383  1.7486  0.7903
  448MOL0     H59084   7.752   9.415   9.820  0.2321 -0.3143  2.3849
  448MOL0     H59085   7.953   9.541   9.783 -0.7385 -3.0726 -0.2433
  448MOL0     H59086   7.880   9.690   9.864  1.0915 -0.5053  1.9530
  448MOL0     H59087   7.898   9.596  10.075 -0.3470 -0.1319  0.0046
  448MOL0     H59088   8.054   9.574   9.994 -0.1299 -1.3009  3.1275
  448MOL0     H59089   7.812   9.384  10.190 -0.9171 -1.7016  0.2196
  448MOL0     H59090   7.868   9.092  10.280  2.8392 -0.9653  0.3096
  448MOL0     H59091   7.900   9.009  10.132 -2.0330 -1.5289 -0.6680
  448MOL0     H59092   7.638   9.167  10.194 -1.3632 -0.0361 -1.4041
  448MOL0     H59093   7.662   8.994  10.163  0.0631 -0.3296 -0.9886
  448MOL0     H59094   7.552   9.106   9.986 -0.2214  0.8532  2.4475
  448MOL0     H59095   7.679   9.217   9.952  1.8596 -1.2470 -2.6111
  448MOL0     H59096   7.765   8.937   9.959  2.2198  2.0313  1.8585
  448MOL0     H59097   7.822   9.066   9.854  2.6393 -1.9059  2.4202
  448MOL0     H59098   7.920   8.889   9.795 -1.6290 -1.1602  1.1330
  448MOL0     H59099   8.024   8.694   9.676 -0.5939 -1.7359 -1.7588
  448MOL0     H59100   7.758   8.401   9.219 -0.9267 -1.0055  0.2511
  448MOL0     H59101   7.813   8.188   9.073  0.6007 -0.4790  0.0418
  448MOL0     H59102   8.083   7.967   9.194  0.2271  1.6552  0.8980
  448MOL0     H59103   8.228   8.011   9.130 -0.1703  0.5062  2.9777
  448MOL0     H59104   8.122   7.892   8.908 -2.0565 -0.2157  0.1043
  448MOL0     H59105   8.050   7.793   9.038  1.0698 -1.6084 -1.3767
  448MOL0     H59106   8.293   7.807   9.133 -0.1645 -0.9176  0.2712
  448MOL0     H59107   8.319   7.836   8.954  1.5062 -2.9351 -0.0314
  448MOL0     H59108   8.143   7.615   9.049  1.3368  1.2024  1.9887
  448MOL0     H59109   8.195   7.655   8.881 -0.0686  2.2706 -0.4190
  448MOL0     H59110   8.361   7.545   9.120  0.9002 -2.6149  0.1090
  448MOL0     H59111   8.432   7.600   8.978 -1.2136  3.0806  0.3622
  448MOL0     H59112   8.316   7.409   8.855  1.1444  1.9478 -0.2433
  448MOL0     H59113   8.209   7.394   8.995 -0.3530  0.7339 -0.7572
  448MOL0     H59114   8.507   7.377   9.061 -1.3630  0.0488  0.0653
  448MOL0     H59115   8.374   7.291   9.131 -1.7340 -3.0965 -1.1554
  448MOL0     H59116   8.556   7.182   8.979 -0.3080 -3.2266  3.1782
  448MOL0     H59117   8.434   7.222   8.858  0.8913  0.1164  0.6370
  448MOL0     H59118   8.228   8.250   9.166  0.3975 -0.3873  2.7704
  448MOL0     H59119   8.178   8.445   9.283  0.1473 -1.4174  1.4363
  448MOL0     H59120   7.672   8.693   9.423  0.4326  2.6239 -0.7613
  448MOL0     H59121   7.569   8.843   9.561 -0.8575  1.2978  2.1528
  448MOL0     H59122   7.738  10.170  10.150  0.7619  0.4896  0.5496
  448MOL0     H59123   7.882  10.274  10.340  0.9453 -0.7222 -0.1389
  448MOL0     H59124   7.912  10.148  10.977 -2.4557  4.1625 -1.9589
  448MOL0     H59125   8.101  10.213  11.125 -1.7358  2.6480  0.2345
  448MOL0     H59126   8.355  10.185  11.249 -1.6566  0.7684  1.4914
  448MOL0     H59127   8.268  10.336  11.216  0.6460 -0.6237  3.3468
  448MOL0     H59128   8.511  10.437  11.184  2.2519 -0.2361  0.4159
  448MOL0     H59129   8.469  10.367  11.339 -0.3632 -0.1984  0.4534
  448MOL0     H59130   8.638  10.269  11.116  1.2483  1.2961  2.2032
  448MOL0     H59131   8.573  10.147  11.216 -0.0668  0.0940 -1.4922
  448MOL0     H59132   8.660  10.277  11.424 -3.3609 -1.6786 -1.6875
  448MOL0     H59133   8.784  10.197  11.327  1.8226  1.6285  1.2157
  448MOL0     H59134   8.937  10.572  11.336  0.8774 -0.3001 -4.8562
  448MOL0     H59135   8.353  10.230  10.779  0.5162 -2.1998 -0.1587
  448MOL0     H59136   8.140  10.213  10.629 -2.2603  0.5369 -0.0072
  449MOL0     O59137   7.826   2.256   0.071 -0.3726 -1.0359 -0.3032
  449MOL0     C59138   7.887   2.337  -0.001 -0.0825  0.6950 -0.0292
  449MOL0     O59139   7.869   2.473   0.003 -0.2689  0.2692 -0.7440
  449MOL0     C59140   7.761   2.535   0.055  0.8385 -0.1457  0.0179
  449MOL0     C59141   7.704   2.629  -0.030 -0.1541 -0.7084  0.4809
  449MOL0     C59142   7.623   2.731   0.026  0.0904 -0.5234  0.5116
  449MOL0     C59143   7.599   2.738   0.164 -0.4253  1.0924 -0.2324
  449MOL0     O59144   7.537   2.841   0.233 -0.2798  0.5103  0.4404
  449MOL0     C59145   7.424   2.903   0.178  0.7422  0.4550  0.5915
  449MOL0     C59146   7.419   3.051   0.190  1.2696 -0.7272  0.1325
  449MOL0     C59147   7.424   3.101   0.337  0.8171  0.7143 -0.4713
  449MOL0     C59148   7.444   3.250   0.340  0.3161 -0.4647 -0.9940
  449MOL0     C59149   7.536   3.302   0.447 -0.3470  0.6662 -1.1460
  449MOL0     C59150   7.684   3.270   0.437 -0.8630  0.6792 -0.0524
  449MOL0     C59151   7.753   3.375   0.346 -0.1452 -0.3204  0.1277
  449MOL0     C59152   7.899   3.363   0.378 -0.4853  0.1039  0.5049
  449MOL0     N59153   7.989   3.455   0.300  0.5098 -0.3283 -0.2269
  449MOL0     C59154   7.974   3.593   0.276 -0.2660 -0.2984  0.1286
  449MOL0     C59155   8.047   3.624   0.161 -0.1028  0.6565 -0.6560
  449MOL0     C59156   8.044   3.760   0.086  0.7975  1.4614  0.1501
  449MOL0     C59157   7.917   3.833   0.088 -0.7696  0.6319 -0.0780
  449MOL0     C59158   7.930   3.955  -0.006  0.0344 -0.3310  0.2432
  449MOL0     C59159   7.800   4.043  -0.008 -0.7094  1.0304  0.4765
  449MOL0     O59160   7.700   3.962  -0.059  0.0659 -0.2098  0.1428
  449MOL0     C59161   7.565   3.992  -0.038 -0.1550 -0.6333  0.9706
  449MOL0     C59162   7.519   4.114   0.013 -0.1296  0.0068  0.9228
  449MOL0     C59163   7.384   4.143   0.035  0.6931  0.3520  0.1588
  449MOL0     C59164   7.283   4.061  -0.005  0.9376 -0.3810 -0.6436
  449MOL0     C59165   7.145   4.088   0.004  0.1747 -0.2974  1.3353
  449MOL0     O59166   7.072   4.026  -0.097  0.8737  0.3116 -0.5153
  449MOL0     C59167   6.936   4.035  -0.085  0.2600  0.2924 -0.3836
  449MOL0     C59168   6.875   3.923  -0.037 -0.1597 -0.1169  0.1216
  449MOL0     C59169   6.739   3.923  -0.010  0.6670  0.6415  0.6105
  449MOL0     C59170   6.657   4.031  -0.028 -0.3302 -0.4775  0.8941
  449MOL0     O59171   6.523   4.025  -0.006  0.6734  0.2043  0.3924
  449MOL0     C59172   6.438   4.142  -0.019  0.2217  0.4393 -0.5835
  449MOL0     C59173   6.290   4.114  -0.028  0.4904  0.0714 -0.0167
  449MOL0     C59174   6.238   4.028   0.087 -0.7559 -0.4031  0.2498
  449MOL0     C59175   6.128   3.920   0.045  0.0086  0.2488 -0.7483
  449MOL0     C59176   6.050   3.879   0.165  0.1408 -0.3045 -1.4288
  449MOL0     C59177   5.912   3.808   0.127  0.3467  0.3291  0.3569
  449MOL0     C59178   5.846   3.753   0.255  1.5637  0.5757  0.1478
  449MOL0     C59179   5.791   3.864   0.344  1.0619 -0.4639 -0.6430
  449MOL0    Cl59180   5.656   3.932   0.260 -0.1522 -0.2197 -0.3128
  449MOL0     C59181   6.724   4.152  -0.077 -0.2965 -0.8609 -0.5844
  449MOL0     C59182   6.863   4.153  -0.102  0.0485 -0.3857  0.2926
  449MOL0     O59183   7.104   4.175   0.077 -0.1082  0.1803 -0.3123
  449MOL0     C59184   7.331   3.928  -0.055 -0.4457 -0.3052  0.5814
  449MOL0     C59185   7.469   3.899  -0.070 -0.9233  1.2567 -0.5495
  449MOL0     N59186   8.111   3.510   0.129 -0.4409 -0.4756  0.2653
  449MOL0     N59187   8.072   3.410   0.205  0.4735 -0.3371  0.0865
  449MOL0     C59188   7.659   2.636   0.245 -0.5764  0.6802 -0.3481
  449MOL0     C59189   7.747   2.533   0.193  0.3648 -0.2858 -0.3470
  449MOL0     C59190   7.990   2.280  -0.094  0.7275  0.9633 -0.4024
  449MOL0     C59191   8.086   2.364  -0.157  0.2053 -0.6140 -0.9127
  449MOL0     C59192   8.176   2.318  -0.248 -0.1545 -0.8007 -0.0560
  449MOL0     C59193   8.176   2.180  -0.274 -0.4789 -0.0752 -0.7739
  449MOL0     O59194   8.260   2.140  -0.374  0.4932 -0.1129 -1.1870
  449MOL0     C59195   8.251   2.012  -0.443  0.4074  0.8209 -0.2399
  449MOL0     C59196   8.283   2.011  -0.596 -0.2876  1.2631  0.0242
  449MOL0     C59197   8.428   2.063  -0.616  1.3104  1.2005 -0.6899
  449MOL0     C59198   8.461   2.077  -0.764  0.0003  0.1387  1.1010
  449MOL0     C59199   8.598   2.096  -0.782  0.8624 -0.8431 -0.5617
  449MOL0     C59200   8.715   2.124  -0.767  0.6789 -0.0052  0.1153
  449MOL0     C59201   8.098   2.098  -0.193  0.3133  0.1319 -0.6647
  449MOL0     C59202   7.997   2.137  -0.109  0.4136 -0.1149  0.1424
  449MOL0     H59203   7.723   2.619  -0.137 -2.3128  0.9605 -0.1366
  449MOL0     H59204   7.589   2.816  -0.031  1.4675 -0.0625  0.3434
  449MOL0     H59205   7.341   2.867   0.239 -0.4759  3.1351  0.6467
  449MOL0     H59206   7.420   2.884   0.070  3.4126  1.0314  0.3199
  449MOL0     H59207   7.332   3.094   0.140  3.0094  1.6076 -1.1029
  449MOL0     H59208   7.508   3.094   0.142 -0.4343  1.9164 -0.8687
  449MOL0     H59209   7.495   3.046   0.399 -2.3925  0.2996  3.2940
  449MOL0     H59210   7.338   3.077   0.400 -1.4769  2.8468 -2.5691
  449MOL0     H59211   7.487   3.281   0.245 -0.9294  0.3894 -1.2984
  449MOL0     H59212   7.353   3.307   0.355  0.2019 -0.8415 -0.1642
  449MOL0     H59213   7.514   3.256   0.544  2.4095  2.0881  0.2466
  449MOL0     H59214   7.523   3.410   0.459  2.4028  1.1847 -2.3060
  449MOL0     H59215   7.710   3.168   0.407  1.7089 -0.3239  4.6941
  449MOL0     H59216   7.733   3.289   0.533  0.1492 -0.7779 -0.2513
  449MOL0     H59217   7.729   3.362   0.240 -0.4369  4.0846 -0.5241
  449MOL0     H59218   7.717   3.476   0.369  1.0516  0.1306  0.0479
  449MOL0     H59219   7.919   3.258   0.354 -4.5496 -1.1743  1.8719
  449MOL0     H59220   7.916   3.381   0.485  1.0583  1.1035  0.1288
  449MOL0     H59221   7.919   3.656   0.346  3.8036  1.0512  2.4145
  449MOL0     H59222   8.088   3.749  -0.014  1.4675 -0.2951  0.5936
  449MOL0     H59223   8.117   3.826   0.134 -0.0542  1.8333  0.9525
  449MOL0     H59224   7.908   3.865   0.193 -2.8025 -1.7001  0.5530
  449MOL0     H59225   7.839   3.769   0.048 -0.5436  1.2865 -1.6521
  449MOL0     H59226   8.002   4.025   0.040 -0.4941 -1.3291  2.7869
  449MOL0     H59227   7.957   3.925  -0.107 -2.8401  1.3818 -1.1437
  449MOL0     H59228   7.813   4.134  -0.067 -0.3904  0.7948  0.1831
  449MOL0     H59229   7.779   4.069   0.096  0.3673 -1.1567  1.3143
  449MOL0     H59230   7.600   4.183   0.033 -0.4442  1.8528 -3.2499
  449MOL0     H59231   7.369   4.245   0.070  2.1523  0.9058 -0.7692
  449MOL0     H59232   6.920   3.825  -0.025 -3.5292 -1.8619 -0.3140
  449MOL0     H59233   6.688   3.832   0.021  0.7745 -0.5435 -2.3813
  449MOL0     H59234   6.469   4.193  -0.111 -0.4537  0.9705 -0.5152
  449MOL0     H59235   6.459   4.205   0.067 -0.8223 -1.3953  1.1089
  449MOL0     H59236   6.283   4.058  -0.122  1.0032  0.1525 -0.1022
  449MOL0     H59237   6.224   4.201  -0.033 -1.5788 -1.3026  1.4944
  449MOL0     H59238   6.205   4.098   0.164 -1.5292 -1.5442  0.9865
  449MOL0     H59239   6.320   3.972   0.134  0.8729 -0.6123 -2.5829
  449MOL0     H59240   6.052   3.960  -0.023 -2.2422 -2.4822 -0.0394
  449MOL0     H59241   6.169   3.826   0.009 -2.0328 -0.8338 -0.3983
  449MOL0     H59242   6.025   3.967   0.225  1.1677 -0.0584 -1.3357
  449MOL0     H59243   6.124   3.814   0.212  2.3898  1.7458 -1.8939
  449MOL0     H59244   5.925   3.726   0.056 -3.8314 -2.3387  2.2531
  449MOL0     H59245   5.857   3.881   0.067  1.1823 -1.5882 -3.0458
  449MOL0     H59246   5.772   3.676   0.232  1.1831  1.4954 -1.9228
  449MOL0     H59247   5.922   3.708   0.320  1.7222  1.5894  0.6875
  449MOL0     H59248   5.858   3.947   0.367  0.6067  0.4630 -2.4759
  449MOL0     H59249   5.766   3.827   0.444  1.8563  1.8055  0.4456
  449MOL0     H59250   6.675   4.248  -0.092  1.2828 -0.3671 -3.2354
  449MOL0     H59251   6.915   4.248  -0.105  0.8877 -0.7674  1.7969
  449MOL0     H59252   7.264   3.851  -0.091 -0.1161 -0.4138  0.2007
  449MOL0     H59253   7.510   3.805  -0.106 -0.6965  1.3624 -0.5734
  449MOL0     H59254   7.625   2.637   0.348  0.9216  0.0433  0.1815
  449MOL0     H59255   7.794   2.445   0.235 -0.0926  0.5213  1.9541
  449MOL0     H59256   8.077   2.470  -0.135 -1.3451 -0.1836 -3.2536
  449MOL0     H59257   8.237   2.388  -0.304 -2.4040  1.5172  0.1839
  449MOL0     H59258   8.148   1.974  -0.436 -0.2736  2.1437 -2.0535
  449MOL0     H59259   8.318   1.939  -0.396 -0.3629  1.1100  1.3771
  449MOL0     H59260   8.279   1.910  -0.638  0.0098  1.8612 -1.5024
  449MOL0     H59261   8.212   2.080  -0.641 -1.0669 -0.4150 -1.4428
  449MOL0     H59262   8.504   1.995  -0.576  1.4783  0.0539 -2.8499
  449MOL0     H59263   8.423   2.164  -0.574  0.5214  1.4465 -1.3493
  449MOL0     H59264   8.431   1.987  -0.818  0.4272  2.0104 -2.6214
  449MOL0     H59265   8.421   2.171  -0.803 -0.1838  0.4460  2.0049
  449MOL0     H59266   8.817   2.156  -0.774  0.6280  1.5128  3.9219
  449MOL0     H59267   8.105   1.990  -0.197  0.9879 -0.0376  2.5642
  449MOL0     H59268   7.929   2.067  -0.063  1.9344 -0.6428  1.6963
  450MOL0     O59269   7.184   8.269   0.303  0.3013 -0.5061  0.8128
  450MOL0     C59270   7.115   8.313   0.393 -0.1306  0.0938 -0.3967
  450MOL0     O59271   7.043   8.423   0.380  0.8033 -0.0299  0.0974
  450MOL0     C59272   7.046   8.507   0.263  0.3145 -0.6423 -1.5406
  450MOL0     C59273   6.926   8.573   0.240 -0.4551  0.8400  0.3022
  450MOL0     C59274   6.924   8.664   0.141  0.5983 -0.4949 -0.5527
  450MOL0     C59275   7.033   8.694   0.066  0.1597  1.1583 -0.1408
  450MOL0     O59276   7.024   8.795  -0.030  0.7049 -0.0158  0.5484
  450MOL0     C59277   7.076   8.777  -0.161 -0.0380 -0.0289  1.2265
  450MOL0     C59278   7.005   8.851  -0.275  0.4438 -0.2544  0.4174
  450MOL0     C59279   7.032   9.001  -0.300 -0.4585  0.0126 -0.5233
  450MOL0     C59280   6.973   9.046  -0.434  0.3492  0.8567  0.9196
  450MOL0     C59281   6.964   9.207  -0.446 -0.5907 -0.5263 -0.0938
  450MOL0     C59282   6.903   9.238  -0.584  0.0419 -0.0932 -0.4397
  450MOL0     C59283   6.974   9.345  -0.655  0.8176  0.3038  0.9062
  450MOL0     C59284   6.952   9.478  -0.595 -0.4133 -0.9984  0.3220
  450MOL0     N59285   6.996   9.584  -0.678 -0.4667  0.2937  0.5279
  450MOL0     C59286   7.118   9.642  -0.688 -0.3908 -0.6269 -0.2664
  450MOL0     C59287   7.094   9.759  -0.757 -0.6985 -0.3362 -0.0116
  450MOL0     C59288   7.192   9.869  -0.788  0.5191  0.1700  0.1803
  450MOL0     C59289   7.294   9.883  -0.671  0.7883 -0.4216  0.3869
  450MOL0     C59290   7.360  10.025  -0.667  0.8115 -0.7964 -0.3593
  450MOL0     C59291   7.468  10.040  -0.566  0.1931 -0.8524  0.5096
  450MOL0     O59292   7.398  10.029  -0.441 -0.3345 -0.4306  0.5568
  450MOL0     C59293   7.456  10.074  -0.324 -0.0300  0.2703 -0.0751
  450MOL0     C59294   7.590  10.125  -0.313 -0.1152 -0.1510  0.6702
  450MOL0     C59295   7.635  10.183  -0.191  0.1879  0.4471 -0.5713
  450MOL0     C59296   7.558  10.193  -0.080 -0.6372  0.8827  0.0721
  450MOL0     C59297   7.607  10.261   0.038 -0.3184  0.5830  0.1815
  450MOL0     O59298   7.539  10.242   0.157  0.1215  0.1001  0.2144
  450MOL0     C59299   7.578  10.324   0.266 -0.5356 -0.6991 -0.2014
  450MOL0     C59300   7.694  10.304   0.337  0.1802  0.4366  0.1822
  450MOL0     C59301   7.729  10.395   0.433  0.1513 -0.2130 -0.1807
  450MOL0     C59302   7.652  10.508   0.477 -0.3614  0.3370 -0.3424
  450MOL0     O59303   7.705  10.585   0.573  0.1081 -0.4347  0.6034
  450MOL0     C59304   7.625  10.693   0.617 -0.3073 -0.2428 -0.5033
  450MOL0     C59305   7.692  10.749   0.745 -0.0933 -0.1813 -1.0145
  450MOL0     C59306   7.579  10.808   0.841 -0.2111  0.0894  0.2396
  450MOL0     C59307   7.621  10.849   0.984 -0.0834 -0.1358  0.0201
  450MOL0     C59308   7.504  10.934   1.053 -0.2308  0.0702  1.1618
  450MOL0     C59309   7.554  11.021   1.169 -0.0698 -0.4330  0.2312
  450MOL0     C59310   7.436  11.069   1.254  0.9879  0.1359  0.1993
  450MOL0     C59311   7.470  11.177   1.352  0.2195  0.2038  0.0670
  450MOL0    Cl59312   7.493  11.321   1.248  0.5519 -0.2353  0.6099
  450MOL0     C59313   7.528  10.524   0.407  0.3641  0.5739 -0.2012
  450MOL0     C59314   7.489  10.428   0.309 -0.4949  0.1573  0.2567
  450MOL0     O59315   7.705  10.332   0.024 -0.4617  0.4789 -0.2741
  450MOL0     C59316   7.437  10.132  -0.079  0.2147 -0.7263 -0.1498
  450MOL0     C59317   7.386  10.077  -0.200  0.2077  0.5000  0.2552
  450MOL0     N59318   6.965   9.757  -0.807  0.0997  0.4040  0.5302
  450MOL0     N59319   6.908   9.656  -0.755 -0.1099  0.3994 -0.1708
  450MOL0     C59320   7.154   8.628   0.095 -0.7504 -0.0869 -0.7636
  450MOL0     C59321   7.163   8.553   0.206 -0.4588 -0.5539  0.6508
  450MOL0     C59322   7.125   8.260   0.531 -0.2037  0.4413  0.6123
  450MOL0     C59323   7.192   8.138   0.561  0.1240 -0.7478  0.4945
  450MOL0     C59324   7.187   8.078   0.687 -0.0847  0.5834  0.0646
  450MOL0     C59325   7.120   8.146   0.790 -0.0404 -0.1057  0.0147
  450MOL0     O59326   7.109   8.102   0.921  0.1043 -0.6063  0.4006
  450MOL0     C59327   7.014   8.004   0.951  0.5534 -0.3218 -0.6664
  450MOL0     C59328   6.886   8.073   0.949  0.1591  0.5450 -0.8970
  450MOL0     C59329   6.766   7.992   1.013  0.0334 -0.9649 -0.3796
  450MOL0     C59330   6.752   8.009   1.165 -0.1906  0.2041 -0.0424
  450MOL0     C59331   6.826   7.895   1.231 -0.0839  1.0957  0.3772
  450MOL0     C59332   6.900   7.811   1.288  0.6517 -1.0010  0.2162
  450MOL0     C59333   7.054   8.263   0.761  0.5863  0.7380  0.2344
  450MOL0     C59334   7.044   8.314   0.627 -0.9294  0.4284 -0.6870
  450MOL0     H59335   6.840   8.552   0.303  0.2827  0.2806  1.1542
  450MOL0     H59336   6.830   8.715   0.122 -1.3846 -1.1641  5.4019
  450MOL0     H59337   7.067   8.670  -0.184 -0.9558  0.3521 -0.3744
  450MOL0     H59338   7.177   8.812  -0.182 -1.4749  4.0945  0.1727
  450MOL0     H59339   6.900   8.829  -0.252  1.0304 -3.1780  0.7884
  450MOL0     H59340   7.023   8.796  -0.368 -2.5652 -1.3887  0.3785
  450MOL0     H59341   7.139   9.023  -0.301 -0.3648  0.1064  2.3448
  450MOL0     H59342   6.989   9.063  -0.221  0.7453 -1.3944  1.3431
  450MOL0     H59343   7.035   9.006  -0.514  2.5887  3.2855  1.3308
  450MOL0     H59344   6.877   8.999  -0.458  1.2831 -1.2759  1.0751
  450MOL0     H59345   7.061   9.256  -0.435 -1.1516  0.6325 -0.1649
  450MOL0     H59346   6.908   9.226  -0.354 -1.7667 -2.2904 -0.3944
  450MOL0     H59347   6.806   9.288  -0.574 -0.9040 -1.3767 -2.6138
  450MOL0     H59348   6.890   9.149  -0.646 -0.5724 -0.5689  0.3534
  450MOL0     H59349   7.081   9.322  -0.662 -0.0752 -3.9700 -2.1024
  450MOL0     H59350   6.937   9.335  -0.757 -2.1525  2.8896  1.5840
  450MOL0     H59351   7.001   9.494  -0.498  0.0514  0.3950 -0.1215
  450MOL0     H59352   6.848   9.498  -0.572 -0.1386 -0.7498  1.4113
  450MOL0     H59353   7.210   9.623  -0.634  0.5304  3.7280  0.0349
  450MOL0     H59354   7.134   9.961  -0.797 -1.1185 -0.5775  2.1081
  450MOL0     H59355   7.240   9.856  -0.885  2.0563  4.1150  0.2100
  450MOL0     H59356   7.369   9.804  -0.680  1.0074 -0.3248  1.2878
  450MOL0     H59357   7.219   9.860  -0.594 -1.9465 -1.0453 -2.2422
  450MOL0     H59358   7.405  10.047  -0.764  1.5444 -0.3631  0.0692
  450MOL0     H59359   7.281  10.097  -0.645  3.6222  1.4438  3.7435
  450MOL0     H59360   7.510  10.140  -0.575  3.3601 -2.1739 -1.1085
  450MOL0     H59361   7.561   9.984  -0.583  0.5751  0.0893 -0.5817
  450MOL0     H59362   7.661  10.121  -0.396 -0.9277 -2.7019  0.0076
  450MOL0     H59363   7.736  10.221  -0.201  0.3731 -0.2884 -1.6396
  450MOL0     H59364   7.750  10.214   0.318 -1.2779 -0.6998  1.0531
  450MOL0     H59365   7.816  10.372   0.494 -1.8141 -1.4956  2.3659
  450MOL0     H59366   7.526  10.650   0.631 -1.2569  1.3784 -1.8812
  450MOL0     H59367   7.623  10.773   0.543  1.6992  1.7851  1.4942
  450MOL0     H59368   7.776  10.816   0.723  0.4820 -1.3626 -2.6385
  450MOL0     H59369   7.728  10.664   0.804  0.5272  2.0603  2.0817
  450MOL0     H59370   7.492  10.741   0.844 -0.2354  0.0971 -0.3128
  450MOL0     H59371   7.539  10.900   0.798  0.8010  0.6931  0.5628
  450MOL0     H59372   7.651  10.767   1.049  1.0186 -1.5548 -2.1900
  450MOL0     H59373   7.706  10.915   0.967 -0.3366  0.2569  0.2537
  450MOL0     H59374   7.442  10.860   1.104  3.0896 -2.4568  1.8197
  450MOL0     H59375   7.446  10.988   0.977  0.8510 -2.9224 -2.0322
  450MOL0     H59376   7.602  11.112   1.129 -2.9737 -0.3316 -3.5424
  450MOL0     H59377   7.627  10.968   1.231  1.4804  0.9915 -0.2798
  450MOL0     H59378   7.353  11.102   1.191 -0.1957 -0.3155  1.4804
  450MOL0     H59379   7.397  10.990   1.319 -1.7049  0.8354 -0.4432
  450MOL0     H59380   7.563  11.140   1.396  0.9263 -2.2662 -3.0688
  450MOL0     H59381   7.388  11.190   1.423  0.7246  1.6254  0.4197
  450MOL0     H59382   7.458  10.607   0.415  0.7270  0.8537  0.0665
  450MOL0     H59383   7.395  10.433   0.255 -2.1109 -0.6237  2.8346
  450MOL0     H59384   7.384  10.116   0.014 -0.0446 -2.8672 -0.6095
  450MOL0     H59385   7.287  10.033  -0.196  0.1517  0.4650 -1.0544
  450MOL0     H59386   7.240   8.662   0.038  0.3380 -0.0355  0.8533
  450MOL0     H59387   7.256   8.509   0.240  2.0072  0.7403 -3.6332
  450MOL0     H59388   7.241   8.087   0.479  0.5891  1.1143 -0.4387
  450MOL0     H59389   7.246   7.989   0.705 -1.0040  0.0731  0.6096
  450MOL0     H59390   7.040   7.962   1.048  0.8422 -0.1784 -0.6803
  450MOL0     H59391   7.019   7.928   0.873  0.0182 -0.0892 -0.9349
  450MOL0     H59392   6.902   8.163   1.010 -0.5564 -0.3585  0.6793
  450MOL0     H59393   6.865   8.096   0.844  2.4137  0.8589 -1.3282
  450MOL0     H59394   6.791   7.890   0.984 -0.7582 -0.5748 -2.7107
  450MOL0     H59395   6.677   8.014   0.953  0.6676 -1.5638 -1.5661
  450MOL0     H59396   6.792   8.107   1.192  2.0638 -1.1715  2.0105
  450MOL0     H59397   6.648   7.997   1.197 -0.2246 -1.3567 -0.6439
  450MOL0     H59398   6.959   7.733   1.331  0.1028 -1.5774 -0.0545
  450MOL0     H59399   6.985   8.311   0.831 -1.4275 -1.1491 -0.3553
  450MOL0     H59400   6.979   8.394   0.594 -0.5813  0.8003 -0.4760
  451MOL0     O59401   3.611   3.511  11.213  0.3507  0.2465  0.5513
  451MOL0     C59402   3.505   3.446  11.186 -0.0822 -0.2549  0.5571
  451MOL0     O59403   3.496   3.311  11.182 -0.1997 -0.0294 -0.4249
  451MOL0     C59404   3.602   3.240  11.232  0.2112 -0.4872  0.0514
  451MOL0     C59405   3.603   3.188  11.354 -0.1034  0.5304 -0.6470
  451MOL0     C59406   3.714   3.115  11.392  0.3523  0.9454 -0.3967
  451MOL0     C59407   3.815   3.071  11.302 -0.5455 -0.5667 -0.0118
  451MOL0     O59408   3.897   2.989  11.361  0.2581 -0.0867 -0.5286
  451MOL0     C59409   4.032   3.016  11.321  0.7878 -0.7051 -0.5610
  451MOL0     C59410   4.126   2.944  11.415  0.0313  0.8787  0.3430
  451MOL0     C59411   4.110   2.794  11.387  0.9380  0.0642  0.5061
  451MOL0     C59412   4.206   2.703  11.450  0.3417  0.7618 -0.1980
  451MOL0     C59413   4.205   2.704  11.600  0.7323 -0.4905  0.4640
  451MOL0     C59414   4.069   2.686  11.666  0.9875  0.1667 -0.4288
  451MOL0     C59415   4.066   2.703  11.819  0.2573  0.1783  0.7686
  451MOL0     C59416   4.135   2.595  11.903  0.9224 -0.2725  1.1051
  451MOL0     N59417   4.278   2.612  11.924  0.0179 -0.0268  0.3764
  451MOL0     C59418   4.347   2.691  12.007 -0.8251  0.8105 -0.6813
  451MOL0     C59419   4.477   2.657  11.997 -0.0578 -0.2132  1.4260
  451MOL0     C59420   4.599   2.712  12.061  0.3465 -0.2185 -0.9556
  451MOL0     C59421   4.620   2.846  11.979 -0.7436  0.1093  0.6218
  451MOL0     C59422   4.681   2.811  11.840 -0.1797  0.3826 -0.6372
  451MOL0     C59423   4.656   2.930  11.743 -0.2086  0.5172 -0.7848
  451MOL0     O59424   4.544   2.906  11.665  0.1794  0.0477 -0.0762
  451MOL0     C59425   4.501   3.014  11.602  0.4643  0.7142  0.6719
  451MOL0     C59426   4.435   3.126  11.647  0.3184  0.9966 -0.2099
  451MOL0     C59427   4.388   3.219  11.555 -0.1416 -0.0495  0.2855
  451MOL0     C59428   4.400   3.198  11.416  0.1307  0.3630  0.0959
  451MOL0     C59429   4.349   3.300  11.319  0.1779 -0.0009 -0.9945
  451MOL0     O59430   4.223   3.347  11.363  0.3169  0.5590  0.6024
  451MOL0     C59431   4.153   3.432  11.285 -0.7921 -0.1000  0.2388
  451MOL0     C59432   4.212   3.540  11.219 -0.5238 -0.7665  0.3530
  451MOL0     C59433   4.129   3.630  11.144 -0.2351  0.8758  0.0757
  451MOL0     C59434   3.985   3.608  11.130  0.7055 -1.0180  0.6586
  451MOL0     O59435   3.904   3.690  11.050  0.4127  0.2773 -0.6575
  451MOL0     C59436   3.960   3.813  11.017 -0.0059 -1.2694  0.3465
  451MOL0     C59437   3.855   3.889  10.932  0.0632  0.1413  0.1719
  451MOL0     C59438   3.903   3.998  10.836  0.2752 -0.1932 -0.1378
  451MOL0     C59439   3.985   4.115  10.892 -0.0190 -0.5522  0.3770
  451MOL0     C59440   3.889   4.213  10.971 -0.0108 -0.5061  0.0359
  451MOL0     C59441   3.915   4.212  11.133  0.1477  0.3903  0.6782
  451MOL0     C59442   3.846   4.338  11.184  0.4071 -0.5527  0.0296
  451MOL0     C59443   3.832   4.337  11.339  0.9735 -0.0349  0.8879
  451MOL0    Cl59444   3.986   4.410  11.404 -0.3018  0.1699  0.1015
  451MOL0     C59445   3.931   3.506  11.203 -0.1451  0.3083 -0.3365
  451MOL0     C59446   4.015   3.414  11.274  0.1216 -0.4467 -0.5574
  451MOL0     O59447   4.406   3.324  11.217 -0.1533  0.3246 -0.2231
  451MOL0     C59448   4.469   3.087  11.371  0.5616  1.1175 -1.0194
  451MOL0     C59449   4.516   2.996  11.468  0.8301  0.8362  0.0437
  451MOL0     N59450   4.486   2.563  11.889 -0.1003  0.6350  0.8354
  451MOL0     N59451   4.360   2.540  11.844 -0.1095 -0.1586  0.1819
  451MOL0     C59452   3.813   3.121  11.166 -0.9741 -0.2712  0.6143
  451MOL0     C59453   3.698   3.198  11.138 -1.0087  0.3571  0.8531
  451MOL0     C59454   3.391   3.523  11.129 -0.1344 -0.6027  0.0538
  451MOL0     C59455   3.299   3.465  11.045  0.3134  1.1550  0.4673
  451MOL0     C59456   3.209   3.539  10.975  0.6302 -0.4429  0.9214
  451MOL0     C59457   3.174   3.671  11.001  0.2583 -0.1714 -0.9235
  451MOL0     O59458   3.065   3.722  10.951 -0.0533 -0.4030  0.1170
  451MOL0     C59459   2.997   3.834  11.014 -0.5327  0.8688 -0.9792
  451MOL0     C59460   2.954   3.803  11.158  0.5893  0.2820  0.7501
  451MOL0     C59461   2.799   3.768  11.170  0.2752  0.1257  0.0243
  451MOL0     C59462   2.704   3.897  11.161 -0.0067  0.8663 -0.4711
  451MOL0     C59463   2.572   3.864  11.109  0.8419 -0.5403 -1.1259
  451MOL0     C59464   2.465   3.842  11.065 -0.0492  0.0274 -0.2256
  451MOL0     C59465   3.253   3.728  11.106  0.0335 -0.4887  0.5593
  451MOL0     C59466   3.359   3.660  11.158 -0.1789  0.4924  0.5732
  451MOL0     H59467   3.525   3.203  11.428  1.9199 -1.9977  2.2511
  451MOL0     H59468   3.719   3.084  11.496 -2.1524  0.1017 -0.4504
  451MOL0     H59469   4.055   3.122  11.333  0.2625 -0.5917 -0.5529
  451MOL0     H59470   4.047   2.995  11.214 -1.2888 -1.6669 -0.7206
  451MOL0     H59471   4.100   2.975  11.517 -1.6810 -2.4111  1.0410
  451MOL0     H59472   4.228   2.968  11.384 -0.5684  0.0106 -2.5722
  451MOL0     H59473   4.106   2.764  11.282  0.4421  0.9262  0.2736
  451MOL0     H59474   4.004   2.783  11.412 -0.0543  2.3233 -2.1526
  451MOL0     H59475   4.192   2.599  11.418 -0.0779  0.1787  1.7451
  451MOL0     H59476   4.305   2.735  11.417 -0.4130  2.9844 -0.4564
  451MOL0     H59477   4.258   2.788  11.646 -1.7355  1.5276 -0.1455
  451MOL0     H59478   4.268   2.617  11.619 -0.7773 -2.2381 -2.0025
  451MOL0     H59479   4.036   2.586  11.637 -1.1417  1.0268 -1.1337
  451MOL0     H59480   4.002   2.759  11.620  0.6077  0.2215  0.2001
  451MOL0     H59481   4.112   2.797  11.850  0.5179 -0.3877  2.1804
  451MOL0     H59482   3.961   2.705  11.850 -0.6266 -3.8704 -1.3113
  451MOL0     H59483   4.117   2.504  11.846 -1.9870  1.6586 -1.3920
  451MOL0     H59484   4.083   2.576  11.997 -4.2124  1.0360 -1.0966
  451MOL0     H59485   4.305   2.771  12.067  2.0130  1.2707  0.8466
  451MOL0     H59486   4.684   2.642  12.057 -0.0228 -0.8322  0.8597
  451MOL0     H59487   4.568   2.737  12.163  0.6519  2.0928 -1.3694
  451MOL0     H59488   4.686   2.914  12.033 -3.3699  3.1416  0.2976
  451MOL0     H59489   4.525   2.898  11.967  0.6260  2.1642 -2.6610
  451MOL0     H59490   4.788   2.811  11.863 -0.3202 -1.1195  0.1200
  451MOL0     H59491   4.640   2.721  11.793  2.1236 -0.0920 -1.9279
  451MOL0     H59492   4.749   2.944  11.686 -0.7917  2.6676 -1.2667
  451MOL0     H59493   4.655   3.029  11.788 -0.5186 -0.4935  1.5409
  451MOL0     H59494   4.411   3.118  11.752 -0.6064 -1.5627 -0.5469
  451MOL0     H59495   4.323   3.300  11.586  0.7260  1.0813 -0.7394
  451MOL0     H59496   4.319   3.560  11.226 -0.8088  0.4020  1.8364
  451MOL0     H59497   4.181   3.711  11.094 -2.4750  2.6204  0.4050
  451MOL0     H59498   4.058   3.805  10.969 -1.2753 -0.4446 -2.6664
  451MOL0     H59499   3.971   3.876  11.105 -1.8795  0.8218 -0.8154
  451MOL0     H59500   3.782   3.926  11.005  2.1629  1.9722  1.4925
  451MOL0     H59501   3.812   3.814  10.865 -2.3218 -1.6662  3.4179
  451MOL0     H59502   3.812   4.027  10.783 -0.6780 -3.4040 -0.4630
  451MOL0     H59503   3.971   3.950  10.766 -0.0542 -0.5509 -0.2170
  451MOL0     H59504   4.064   4.079  10.958  0.7214 -0.0077 -0.1868
  451MOL0     H59505   4.045   4.170  10.818 -3.3982  2.2496 -0.5576
  451MOL0     H59506   3.782   4.199  10.957 -0.7325  0.6877  3.5727
  451MOL0     H59507   3.918   4.309  10.927  0.1682 -1.0275 -1.0352
  451MOL0     H59508   4.022   4.219  11.154 -0.2574 -1.7561  4.2815
  451MOL0     H59509   3.867   4.130  11.187 -0.6504  0.4574  0.0919
  451MOL0     H59510   3.912   4.422  11.161 -1.1970  0.5918 -0.5558
  451MOL0     H59511   3.748   4.362  11.141  0.3029 -2.0544 -0.6349
  451MOL0     H59512   3.830   4.237  11.381  0.2929  0.4357  2.0173
  451MOL0     H59513   3.741   4.391  11.367 -1.4915 -3.3987 -0.0631
  451MOL0     H59514   3.825   3.485  11.192  0.2821 -1.8272 -1.0392
  451MOL0     H59515   3.983   3.331  11.336  1.9056 -1.9044 -1.4812
  451MOL0     H59516   4.487   3.066  11.266 -1.2417 -4.2507 -0.5757
  451MOL0     H59517   4.567   2.908  11.429  1.4493  0.8007  0.8998
  451MOL0     H59518   3.889   3.098  11.092  1.5185  3.8298  1.6096
  451MOL0     H59519   3.693   3.239  11.037  1.0449  4.0596  2.0543
  451MOL0     H59520   3.314   3.359  11.027  0.8291  1.2669  0.2215
  451MOL0     H59521   3.151   3.496  10.895  1.8826  2.6087 -1.8590
  451MOL0     H59522   2.906   3.850  10.957 -1.3171 -3.4781 -1.2854
  451MOL0     H59523   3.065   3.919  11.000 -1.7858  2.2432  0.8699
  451MOL0     H59524   3.011   3.718  11.197 -0.2107 -0.7313 -0.1863
  451MOL0     H59525   2.985   3.890  11.216 -2.0954  0.8335  1.5287
  451MOL0     H59526   2.784   3.723  11.268  0.2011  0.6021  0.2354
  451MOL0     H59527   2.775   3.685  11.102  3.4092 -0.8858 -0.0011
  451MOL0     H59528   2.698   3.951  11.256 -1.1481  0.9676 -0.5860
  451MOL0     H59529   2.734   3.970  11.085 -0.0734  1.7082  0.2931
  451MOL0     H59530   2.371   3.817  11.022  0.3927  1.7021 -2.3069
  451MOL0     H59531   3.226   3.829  11.136 -0.5633  0.2382 -2.1615
  451MOL0     H59532   3.432   3.704  11.225  1.0923 -2.2263  1.1295
  452MOL0     O59533   4.386   9.318   1.576 -0.7302 -0.0206 -0.3248
  452MOL0     C59534   4.306   9.403   1.559  0.5729 -0.4573 -0.6102
  452MOL0     O59535   4.173   9.386   1.526  1.2725  0.0062  0.3030
  452MOL0     C59536   4.110   9.263   1.552 -0.7742 -0.0978 -1.0014
  452MOL0     C59537   4.107   9.218   1.676 -0.5268  0.6109 -0.7688
  452MOL0     C59538   4.023   9.111   1.711  0.4376 -0.0402  0.2152
  452MOL0     C59539   3.948   9.039   1.617 -0.0601  0.5081  0.0484
  452MOL0     O59540   3.869   8.928   1.632 -0.8282  0.5220 -0.2198
  452MOL0     C59541   3.843   8.866   1.759 -0.2550  0.7616  0.2054
  452MOL0     C59542   3.760   8.966   1.850  0.5143 -0.6101  0.2167
  452MOL0     C59543   3.650   9.050   1.776  0.5673  0.2506 -0.4630
  452MOL0     C59544   3.530   8.960   1.748  0.2210  0.3653 -0.0694
  452MOL0     C59545   3.459   8.890   1.870  0.1721 -0.0355  0.5779
  452MOL0     C59546   3.313   8.848   1.826  0.2753 -0.8985 -0.4735
  452MOL0     C59547   3.209   8.810   1.932 -0.1611 -0.5545  0.1267
  452MOL0     C59548   3.125   8.910   2.001 -0.3722  0.1517 -0.7945
  452MOL0     N59549   3.210   8.981   2.100  0.0790  0.0053  0.7719
  452MOL0     C59550   3.267   9.106   2.087  0.4897 -0.4204 -0.5003
  452MOL0     C59551   3.344   9.123   2.198 -0.4733  0.1535  0.4863
  452MOL0     C59552   3.444   9.237   2.210 -0.1939 -0.2787  0.1742
  452MOL0     C59553   3.584   9.181   2.175  0.6963 -0.2619 -0.6207
  452MOL0     C59554   3.687   9.288   2.209  0.5903  0.8293  0.4457
  452MOL0     C59555   3.810   9.259   2.132 -0.5539  0.4304 -0.2395
  452MOL0     O59556   3.775   9.286   1.996 -0.8354 -0.5200  0.2401
  452MOL0     C59557   3.827   9.403   1.942  0.1587 -0.5797  0.4121
  452MOL0     C59558   3.847   9.521   2.019 -0.7676 -0.3062  0.5768
  452MOL0     C59559   3.888   9.634   1.957  0.4628  0.5283 -0.2926
  452MOL0     C59560   3.919   9.639   1.821 -0.3460  0.0232 -0.2246
  452MOL0     C59561   3.983   9.759   1.760 -0.1785  0.3583 -0.1112
  452MOL0     O59562   4.034   9.849   1.851  0.5980 -0.4619 -0.3503
  452MOL0     C59563   4.107   9.955   1.807 -0.3636 -0.1677 -0.7403
  452MOL0     C59564   4.186  10.025   1.906  0.9775  0.0418 -0.3895
  452MOL0     C59565   4.260  10.133   1.876 -0.6819  0.2486 -0.2042
  452MOL0     C59566   4.257  10.189   1.747  0.7787 -0.1719 -1.2626
  452MOL0     O59567   4.338  10.294   1.703 -0.2535 -0.7692 -0.6531
  452MOL0     C59568   4.433  10.349   1.798 -0.1200 -0.1680 -0.1214
  452MOL0     C59569   4.488  10.479   1.734 -0.5640 -0.0953 -0.9309
  452MOL0     C59570   4.594  10.542   1.813  0.1962 -1.0058  0.0045
  452MOL0     C59571   4.684  10.652   1.746  0.1306  0.3561  0.1228
  452MOL0     C59572   4.772  10.719   1.859 -0.3040 -0.8824  0.9659
  452MOL0     C59573   4.855  10.832   1.804  0.0762 -0.1035  0.2531
  452MOL0     C59574   4.930  10.904   1.920 -0.1985  0.3724 -0.4470
  452MOL0     C59575   5.048  10.994   1.882  0.0004  0.1689  1.0167
  452MOL0    Cl59576   4.975  11.149   1.818  0.0999 -0.6361  0.0169
  452MOL0     C59577   4.174  10.130   1.653  0.7780  0.4109 -0.7515
  452MOL0     C59578   4.097  10.019   1.681  0.3501  0.5424  0.2384
  452MOL0     O59579   4.007   9.761   1.642 -0.3873 -0.4118  0.2438
  452MOL0     C59580   3.887   9.529   1.742  0.0134  0.6063 -0.6699
  452MOL0     C59581   3.845   9.411   1.804  0.3298  0.3080 -0.0681
  452MOL0     N59582   3.313   9.016   2.287  0.7471  0.0847  0.2546
  452MOL0     N59583   3.233   8.931   2.226 -0.7692 -0.1301  0.1112
  452MOL0     C59584   3.952   9.091   1.488 -0.1213  0.3626 -0.0712
  452MOL0     C59585   4.035   9.199   1.450 -0.9131  0.6195 -0.3510
  452MOL0     C59586   4.358   9.539   1.581  0.1695  0.1647  0.6056
  452MOL0     C59587   4.278   9.640   1.524 -0.0124 -0.1027  1.1142
  452MOL0     C59588   4.313   9.774   1.554 -0.1798 -0.0871  0.1901
  452MOL0     C59589   4.426   9.801   1.642 -0.0295 -0.2672 -0.1161
  452MOL0     O59590   4.456   9.930   1.668 -0.2519 -0.2230  0.3956
  452MOL0     C59591   4.592   9.973   1.717  0.0767 -0.1842 -1.0712
  452MOL0     C59592   4.659  10.078   1.616  0.3503  0.2390 -0.6334
  452MOL0     C59593   4.798  10.126   1.663  0.8619 -0.2371  0.3594
  452MOL0     C59594   4.785  10.268   1.745 -0.3374  0.4020 -0.3248
  452MOL0     C59595   4.919  10.321   1.790  0.0656 -0.4026 -0.5060
  452MOL0     C59596   5.024  10.365   1.828  0.6914  0.1806 -0.5230
  452MOL0     C59597   4.496   9.700   1.698  0.1115 -0.9616  0.1477
  452MOL0     C59598   4.469   9.565   1.670 -0.2589  0.5026  0.3404
  452MOL0     H59599   4.149   9.279   1.755  1.4115  0.6024 -1.7359
  452MOL0     H59600   4.018   9.085   1.817  2.9714 -2.4277 -0.1471
  452MOL0     H59601   3.935   8.856   1.818  0.3053  3.6608 -0.0162
  452MOL0     H59602   3.789   8.772   1.747 -0.8350  0.9416  1.3004
  452MOL0     H59603   3.832   9.042   1.883  3.3273 -2.1548 -1.8911
  452MOL0     H59604   3.717   8.925   1.942  1.2111  2.2732  1.9589
  452MOL0     H59605   3.686   9.100   1.686  2.8802  0.1434  0.3269
  452MOL0     H59606   3.626   9.140   1.833  1.5098  0.9952 -1.2039
  452MOL0     H59607   3.450   9.009   1.691  0.5410 -1.5252 -2.3071
  452MOL0     H59608   3.559   8.878   1.682  0.3043  2.1396 -2.3890
  452MOL0     H59609   3.443   8.952   1.959  0.1039  1.2700 -0.3072
  452MOL0     H59610   3.519   8.809   1.910  4.0666  1.6052 -1.3495
  452MOL0     H59611   3.321   8.765   1.756 -0.2535 -0.8696 -0.5716
  452MOL0     H59612   3.258   8.927   1.774 -1.2723 -0.2955  1.9355
  452MOL0     H59613   3.134   8.755   1.874  0.6778 -0.8874 -0.6658
  452MOL0     H59614   3.269   8.757   2.007  3.2440  1.6017 -0.8125
  452MOL0     H59615   3.039   8.869   2.055 -0.0434  3.4339  2.7167
  452MOL0     H59616   3.078   8.982   1.933 -0.7355 -0.0031 -0.7099
  452MOL0     H59617   3.251   9.166   1.998  2.3648 -1.6138 -1.7231
  452MOL0     H59618   3.418   9.283   2.306  0.2788  2.6675 -0.9951
  452MOL0     H59619   3.420   9.306   2.128  0.5793  0.2013  0.3485
  452MOL0     H59620   3.578   9.152   2.070 -0.0079 -0.1706 -0.6055
  452MOL0     H59621   3.601   9.089   2.232  0.5148  1.3722  2.2645
  452MOL0     H59622   3.655   9.383   2.166  1.0905  1.4229  1.3548
  452MOL0     H59623   3.695   9.287   2.318  0.3312 -1.8784  0.5003
  452MOL0     H59624   3.835   9.153   2.142  0.0289  0.4100 -1.6623
  452MOL0     H59625   3.894   9.311   2.178 -0.5631 -0.0508  0.3359
  452MOL0     H59626   3.830   9.529   2.126  0.3754  1.5621  0.6688
  452MOL0     H59627   3.909   9.721   2.019  0.9518  0.0888  0.1628
  452MOL0     H59628   4.197   9.991   2.009  3.0083  1.3799 -0.0959
  452MOL0     H59629   4.317  10.177   1.957 -0.4689 -1.2262  0.4802
  452MOL0     H59630   4.512  10.275   1.813  0.1281  0.2218  0.5423
  452MOL0     H59631   4.389  10.382   1.892 -2.2250  0.1310 -1.1476
  452MOL0     H59632   4.400  10.543   1.718 -1.4659 -1.0967 -0.1369
  452MOL0     H59633   4.517  10.458   1.631 -2.4395 -1.1543 -1.2825
  452MOL0     H59634   4.661  10.476   1.869 -1.2294  0.4924  3.8561
  452MOL0     H59635   4.538  10.602   1.885  0.2940  1.4416 -1.8223
  452MOL0     H59636   4.757  10.611   1.676  1.7438  3.8887 -0.5115
  452MOL0     H59637   4.631  10.728   1.688 -2.4712 -0.9646  0.6444
  452MOL0     H59638   4.847  10.648   1.896 -1.8581 -2.8563  0.5552
  452MOL0     H59639   4.705  10.759   1.936  2.1586  1.9672  1.7936
  452MOL0     H59640   4.781  10.902   1.764  0.7256  1.4314  1.6296
  452MOL0     H59641   4.922  10.803   1.723 -2.6158 -2.0742 -1.4303
  452MOL0     H59642   4.869  10.969   1.983 -0.8775 -0.6729  0.0146
  452MOL0     H59643   4.971  10.821   1.979 -1.4322  1.0386  1.4386
  452MOL0     H59644   5.097  10.946   1.797 -0.6597  0.8804  0.1991
  452MOL0     H59645   5.124  11.004   1.959  1.7290  0.9870 -0.7244
  452MOL0     H59646   4.166  10.170   1.552 -1.0169  0.0394 -0.7803
  452MOL0     H59647   4.025   9.972   1.615  0.9575 -5.2946  3.0475
  452MOL0     H59648   3.932   9.515   1.644  2.7500  2.6947  0.1598
  452MOL0     H59649   3.830   9.323   1.741 -1.7063  0.1526  0.5679
  452MOL0     H59650   3.897   9.028   1.419 -1.4870 -1.0379  2.1836
  452MOL0     H59651   4.032   9.229   1.345 -0.0581  0.6564 -0.3718
  452MOL0     H59652   4.189   9.614   1.468  0.8479  0.1964 -0.4337
  452MOL0     H59653   4.263   9.861   1.514 -0.7501 -0.9690 -1.0862
  452MOL0     H59654   4.671   9.898   1.729  0.2532  0.1465 -0.0507
  452MOL0     H59655   4.576  10.022   1.813  0.6203  1.4906 -1.8062
  452MOL0     H59656   4.667  10.037   1.515  0.6602  1.0816 -0.9605
  452MOL0     H59657   4.590  10.162   1.599 -2.0922 -1.1513  1.8080
  452MOL0     H59658   4.863  10.144   1.577  1.0692 -4.8009 -0.7069
  452MOL0     H59659   4.854  10.052   1.721 -1.7291 -1.8924  0.8875
  452MOL0     H59660   4.726  10.338   1.684  0.7237  0.0851 -1.7816
  452MOL0     H59661   4.736  10.251   1.841 -0.3769  1.9354 -0.0397
  452MOL0     H59662   5.111  10.384   1.889 -1.4247  2.0620  2.1597
  452MOL0     H59663   4.561   9.731   1.779 -1.4137  1.0421  0.6738
  452MOL0     H59664   4.514   9.484   1.726  2.3364  2.2863  1.0146
  453MOL0     O59665   9.584  10.158   6.781  0.2483 -0.4837  0.2090
  453MOL0     C59666   9.639  10.048   6.764  0.2399 -0.3376  0.0919
  453MOL0     O59667   9.585   9.946   6.690 -0.8920 -0.8337  0.1246
  453MOL0     C59668   9.477   9.977   6.610 -0.4965 -0.0950  0.0029
  453MOL0     C59669   9.495  10.053   6.498 -0.0092 -0.2135  0.8005
  453MOL0     C59670   9.375  10.095   6.425 -0.5272 -0.5582 -0.1752
  453MOL0     C59671   9.248  10.050   6.465 -1.1988  0.3318  0.0357
  453MOL0     O59672   9.135  10.085   6.405  0.5359 -0.1060  0.5977
  453MOL0     C59673   9.110  10.229   6.397 -0.3250 -0.1942 -0.6738
  453MOL0     C59674   8.975  10.259   6.349 -0.8181 -0.2803 -0.1279
  453MOL0     C59675   8.957  10.410   6.347 -0.4335  0.1187 -0.3282
  453MOL0     C59676   8.823  10.462   6.288  0.2679 -0.1160  0.1062
  453MOL0     C59677   8.817  10.459   6.134  0.3063  0.8035 -0.3327
  453MOL0     C59678   8.675  10.446   6.082  0.4903  0.6721 -0.3090
  453MOL0     C59679   8.662  10.456   5.923  1.0630 -0.1975  0.8973
  453MOL0     C59680   8.518  10.453   5.878  0.4147  0.2514  0.4816
  453MOL0     N59681   8.451  10.327   5.912  0.0625  0.0293 -0.9460
  453MOL0     C59682   8.367  10.310   6.027  0.5904  0.6030 -0.1570
  453MOL0     C59683   8.346  10.180   6.024  1.0257  1.1550  0.6867
  453MOL0     C59684   8.274  10.095   6.131 -0.5682  0.8629  0.1090
  453MOL0     C59685   8.126  10.043   6.099 -0.8279 -0.3927  0.2730
  453MOL0     C59686   8.019  10.146   6.112 -0.2621  0.3955 -0.4415
  453MOL0     C59687   7.907  10.162   6.010  0.0643  0.2896  0.0277
  453MOL0     O59688   7.816  10.049   6.009  0.4911  0.0908 -0.1275
  453MOL0     C59689   7.697  10.074   5.951  0.7065  1.7254  0.5123
  453MOL0     C59690   7.592   9.980   5.987 -0.0732  0.3329  0.4769
  453MOL0     C59691   7.458   9.998   5.952 -0.3989 -0.5826  0.4018
  453MOL0     C59692   7.424  10.099   5.859  0.5710  0.0812  0.0182
  453MOL0     C59693   7.277  10.116   5.825  0.7937  0.0108  0.6239
  453MOL0     O59694   7.243  10.196   5.712  0.6215 -0.5699  0.2187
  453MOL0     C59695   7.111  10.217   5.686 -0.2272  0.5460 -0.2724
  453MOL0     C59696   7.069  10.203   5.556  0.4437 -0.5651  0.8840
  453MOL0     C59697   6.934  10.206   5.514  0.5141 -0.8130  0.8383
  453MOL0     C59698   6.837  10.244   5.606  0.8869  0.4042  0.6762
  453MOL0     O59699   6.702  10.270   5.585  0.1535  0.1318  0.4684
  453MOL0     C59700   6.652  10.297   5.453 -0.0358 -0.2373 -0.5523
  453MOL0     C59701   6.603  10.176   5.381  0.4102 -0.3813  0.5099
  453MOL0     C59702   6.453  10.149   5.415  0.6907  0.4230  0.1002
  453MOL0     C59703   6.404  10.018   5.354 -0.6196  0.9399  0.2043
  453MOL0     C59704   6.440   9.989   5.201 -0.4457  0.5509 -0.8460
  453MOL0     C59705   6.395  10.101   5.110 -0.0602 -0.1618  0.6011
  453MOL0     C59706   6.387  10.047   4.965  0.2569  0.4825 -0.1857
  453MOL0     C59707   6.516  10.005   4.893 -0.6493 -0.9787  0.1792
  453MOL0    Cl59708   6.603  10.130   4.799 -0.4162  0.1299  0.2468
  453MOL0     C59709   6.877  10.263   5.739 -0.2925  0.0884  0.1283
  453MOL0     C59710   7.014  10.253   5.779 -0.4121 -0.0751 -0.0742
  453MOL0     O59711   7.201  10.071   5.913  0.3643 -0.1193 -0.4874
  453MOL0     C59712   7.521  10.184   5.812 -0.2390 -0.2278  0.2879
  453MOL0     C59713   7.652  10.176   5.866 -0.2807  0.0088 -0.4702
  453MOL0     N59714   8.408  10.124   5.905  0.6574  0.3497 -0.0150
  453MOL0     N59715   8.457  10.216   5.832  0.6773  0.3668 -0.7866
  453MOL0     C59716   9.234   9.973   6.581 -0.3734  0.3418  0.6665
  453MOL0     C59717   9.349   9.935   6.652  0.0310 -0.5843  0.7561
  453MOL0     C59718   9.781  10.038   6.815  0.2086  0.0530  0.3926
  453MOL0     C59719   9.836  10.133   6.905  0.4532 -1.2788 -0.6674
  453MOL0     C59720   9.970  10.126   6.939  0.1881 -0.3306  0.6581
  453MOL0     C59721  10.050  10.029   6.888 -0.0351 -0.3124 -0.2093
  453MOL0     O59722  10.171  10.007   6.925 -0.1676 -0.1904  0.0698
  453MOL0     C59723  10.254  10.113   6.977 -0.5981  0.3446  0.2838
  453MOL0     C59724  10.395  10.072   6.939 -0.3977  0.5011 -0.4519
  453MOL0     C59725  10.511  10.143   7.015  0.5398  0.0851 -0.0183
  453MOL0     C59726  10.647  10.119   6.957 -0.2158  0.7768  0.3070
  453MOL0     C59727  10.676   9.975   6.997  0.9989  0.1062  0.8191
  453MOL0     C59728  10.701   9.859   7.025  0.0471 -0.4065 -0.4353
  453MOL0     C59729   9.999   9.932   6.799  0.0029 -0.1309 -0.0649
  453MOL0     C59730   9.863   9.945   6.759 -1.0767  0.8420 -0.3880
  453MOL0     H59731   9.590  10.098   6.472 -1.2082  0.6167 -2.8449
  453MOL0     H59732   9.393  10.158   6.339  3.2735 -2.5084 -1.0057
  453MOL0     H59733   9.177  10.275   6.324  1.6688  2.0047  2.3123
  453MOL0     H59734   9.135  10.266   6.497  0.7100  0.5346 -1.1884
  453MOL0     H59735   8.901  10.204   6.408 -3.1655  0.7876 -1.9295
  453MOL0     H59736   8.969  10.218   6.248 -0.7828  1.8712 -1.0418
  453MOL0     H59737   9.028  10.449   6.275 -1.0597  0.4950 -0.7513
  453MOL0     H59738   8.969  10.448   6.449  2.5506  1.9236 -1.2465
  453MOL0     H59739   8.743  10.405   6.334  1.7594  0.1541  3.3287
  453MOL0     H59740   8.798  10.562   6.327 -0.6590 -0.5536  0.6596
  453MOL0     H59741   8.869  10.369   6.101 -0.6537  0.0559  0.1423
  453MOL0     H59742   8.880  10.545   6.109  4.2897 -0.7173  3.3133
  453MOL0     H59743   8.606  10.523   6.118 -1.2447 -1.0537  0.2447
  453MOL0     H59744   8.623  10.354   6.113 -1.5773  0.7725 -3.0985
  453MOL0     H59745   8.712  10.549   5.892 -1.8098  0.7422 -1.3598
  453MOL0     H59746   8.727  10.380   5.878  0.1372 -0.5850  0.1703
  453MOL0     H59747   8.515  10.468   5.770 -0.9515  2.2176  0.7413
  453MOL0     H59748   8.468  10.535   5.932 -1.0871 -0.5412  0.3322
  453MOL0     H59749   8.343  10.383   6.103 -2.9141 -0.9507  0.4291
  453MOL0     H59750   8.274  10.158   6.220  1.4219  2.4621 -0.9309
  453MOL0     H59751   8.338  10.008   6.151 -0.3784  1.0291  0.2300
  453MOL0     H59752   8.101   9.952   6.154  1.3155 -1.3763 -0.2903
  453MOL0     H59753   8.119  10.006   5.996 -0.0060  2.1791 -0.7864
  453MOL0     H59754   7.982  10.141   6.215 -0.5832 -1.6560 -0.6228
  453MOL0     H59755   8.070  10.242   6.102 -1.7498  1.2994  0.1880
  453MOL0     H59756   7.958  10.175   5.914  3.7609  0.3232  1.7815
  453MOL0     H59757   7.846  10.245   6.045  0.6212  0.3841  0.8258
  453MOL0     H59758   7.613   9.893   6.048 -1.2868  0.2551  0.8048
  453MOL0     H59759   7.385   9.930   5.993 -0.1255 -0.0323  1.8638
  453MOL0     H59760   7.149  10.165   5.493  2.0217  0.1258  2.3794
  453MOL0     H59761   6.904  10.175   5.414  3.6225 -0.9274 -0.1569
  453MOL0     H59762   6.720  10.356   5.391 -0.6665  0.3084 -0.7402
  453MOL0     H59763   6.568  10.365   5.471  0.5914  0.2162  0.8380
  453MOL0     H59764   6.655  10.086   5.415  0.5565 -0.2639  0.5977
  453MOL0     H59765   6.632  10.182   5.275 -2.0408  1.6056 -0.1414
  453MOL0     H59766   6.392  10.227   5.368 -0.7903 -2.0043 -2.3111
  453MOL0     H59767   6.435  10.148   5.523 -1.0887  1.6006 -0.1367
  453MOL0     H59768   6.443   9.932   5.410  1.1854  2.0854  0.7764
  453MOL0     H59769   6.295  10.016   5.353 -0.6109  0.2812 -1.0537
  453MOL0     H59770   6.383   9.899   5.177 -2.5776  2.6241 -4.2520
  453MOL0     H59771   6.547   9.967   5.189 -0.8828 -0.6449 -3.1606
  453MOL0     H59772   6.462  10.187   5.119 -0.6265  0.3875 -0.3164
  453MOL0     H59773   6.295  10.132   5.143  0.4130  2.7103 -0.4099
  453MOL0     H59774   6.321   9.960   4.963  2.4127 -1.2387  0.0986
  453MOL0     H59775   6.330  10.115   4.900  2.6737  2.8121 -0.0355
  453MOL0     H59776   6.481   9.933   4.819 -2.3921  0.2859 -0.3096
  453MOL0     H59777   6.587   9.951   4.956  0.3713  0.5775  0.4234
  453MOL0     H59778   6.816  10.300   5.820  1.1795 -0.8869  1.7614
  453MOL0     H59779   7.037  10.265   5.885 -0.2724  1.3884 -0.2434
  453MOL0     H59780   7.488  10.260   5.742 -1.0687 -1.2898 -0.5195
  453MOL0     H59781   7.721  10.251   5.828  0.2628  1.1383  2.4798
  453MOL0     H59782   9.134   9.941   6.607 -1.3490  2.3275 -0.3658
  453MOL0     H59783   9.337   9.872   6.739 -1.0431 -1.2791  0.1246
  453MOL0     H59784   9.768  10.203   6.952 -0.1008 -1.1207 -1.6835
  453MOL0     H59785  10.002  10.185   7.025 -1.0488 -2.5172  2.7639
  453MOL0     H59786  10.235  10.120   7.084  0.1765 -4.5679  0.9384
  453MOL0     H59787  10.234  10.205   6.920 -0.2307  0.6338  0.6175
  453MOL0     H59788  10.403   9.964   6.954  0.6437  0.4926 -0.9804
  453MOL0     H59789  10.414  10.089   6.832 -1.6333 -1.5638 -1.0430
  453MOL0     H59790  10.513  10.137   7.124  3.5381 -0.0562  0.0046
  453MOL0     H59791  10.495  10.251   7.009  3.0090  0.4872 -0.5050
  453MOL0     H59792  10.649  10.131   6.848 -2.6679 -2.5491 -0.2582
  453MOL0     H59793  10.717  10.187   7.006  1.6786  0.8302 -2.2822
  453MOL0     H59794  10.730   9.756   7.030  0.8830 -0.2166 -1.0828
  453MOL0     H59795  10.057   9.851   6.756  0.3163 -1.5032  2.7310
  453MOL0     H59796   9.827   9.873   6.686 -1.8651  0.7402  0.0854
  454MOL0     O59797   5.841   7.967   3.820  0.6557 -0.1003 -0.3397
  454MOL0     C59798   5.757   7.894   3.764  0.8558  0.5516  1.0627
  454MOL0     O59799   5.776   7.774   3.695  0.0100 -0.0573 -0.2099
  454MOL0     C59800   5.909   7.736   3.679  0.7527  0.0581  0.5087
  454MOL0     C59801   5.959   7.748   3.551 -0.0391 -0.1571 -0.2713
  454MOL0     C59802   6.099   7.748   3.523 -0.9208 -0.1171  0.6323
  454MOL0     C59803   6.194   7.724   3.624  0.1215  0.6719  0.6550
  454MOL0     O59804   6.329   7.705   3.598  0.0043 -0.2674  0.3876
  454MOL0     C59805   6.365   7.650   3.474  0.2797  0.7536  0.9119
  454MOL0     C59806   6.504   7.593   3.477 -0.0436  1.2105 -0.0332
  454MOL0     C59807   6.603   7.701   3.518 -1.0688 -0.4280 -0.4732
  454MOL0     C59808   6.751   7.640   3.523 -0.1992 -1.2464 -0.1761
  454MOL0     C59809   6.850   7.748   3.571  0.4744 -0.0496 -0.2636
  454MOL0     C59810   6.991   7.704   3.576 -0.1045 -0.6956  0.5943
  454MOL0     C59811   7.064   7.806   3.653 -0.5241  0.2403  0.4835
  454MOL0     C59812   7.214   7.774   3.645 -0.5992  0.0882  0.4112
  454MOL0     N59813   7.270   7.819   3.520 -0.0942 -0.3574  0.5720
  454MOL0     C59814   7.287   7.740   3.415  0.1453  0.7781  0.6524
  454MOL0     C59815   7.322   7.834   3.321 -0.1926  0.5757 -0.6327
  454MOL0     C59816   7.349   7.793   3.181  0.9923  0.2313  0.3839
  454MOL0     C59817   7.211   7.810   3.109  0.1693  0.1720 -0.4433
  454MOL0     C59818   7.222   7.787   2.961 -1.0576 -0.6890  0.1561
  454MOL0     C59819   7.094   7.796   2.886  0.3916  0.5823 -0.0032
  454MOL0     O59820   7.006   7.673   2.901 -0.1716 -0.3118  0.4087
  454MOL0     C59821   6.873   7.692   2.944 -0.3026 -0.2200  0.3291
  454MOL0     C59822   6.779   7.602   2.892  0.2154 -0.0263  1.4600
  454MOL0     C59823   6.650   7.612   2.925  0.4816  0.7580  0.1054
  454MOL0     C59824   6.602   7.714   3.013 -0.5647  0.1654  1.1876
  454MOL0     C59825   6.454   7.725   3.055 -1.5811 -0.2713  0.9440
  454MOL0     O59826   6.418   7.841   3.098  0.5902 -0.1587  0.7520
  454MOL0     C59827   6.294   7.870   3.154  0.0536 -0.4878 -0.0138
  454MOL0     C59828   6.174   7.798   3.134 -0.1514  0.4511  0.3070
  454MOL0     C59829   6.047   7.854   3.171 -1.0521 -0.0851  0.0702
  454MOL0     C59830   6.047   7.971   3.256 -0.0934  0.8657  0.6260
  454MOL0     O59831   5.936   8.017   3.312  0.5731  0.7021  0.8007
  454MOL0     C59832   5.807   7.969   3.261 -0.1699 -0.0170 -0.2637
  454MOL0     C59833   5.685   8.061   3.305  0.7327  0.0109 -0.0023
  454MOL0     C59834   5.728   8.211   3.286  0.2257  0.1465  0.6696
  454MOL0     C59835   5.646   8.305   3.369 -0.2513 -0.2500 -0.0116
  454MOL0     C59836   5.668   8.271   3.527 -0.4218  0.1318 -0.4861
  454MOL0     C59837   5.681   8.407   3.598 -0.3442 -0.3297 -0.1000
  454MOL0     C59838   5.688   8.393   3.753  0.3137 -0.0914 -0.1219
  454MOL0     C59839   5.720   8.515   3.835 -1.5060  0.1220 -0.5564
  454MOL0    Cl59840   5.889   8.572   3.796 -0.0983  0.3806 -0.6643
  454MOL0     C59841   6.169   8.029   3.298 -0.6966 -0.5654 -0.1517
  454MOL0     C59842   6.290   7.985   3.237  0.9012 -0.2115  0.6573
  454MOL0     O59843   6.385   7.621   3.049  0.5223 -0.0589 -0.2176
  454MOL0     C59844   6.695   7.796   3.079 -0.6472 -0.2142 -0.1766
  454MOL0     C59845   6.832   7.786   3.048 -0.7717 -0.2960  0.4717
  454MOL0     N59846   7.323   7.961   3.379  0.7281  0.1155  0.0306
  454MOL0     N59847   7.289   7.955   3.506  0.0790  0.5335 -0.7186
  454MOL0     C59848   6.139   7.736   3.751 -0.2116  0.5401  0.4823
  454MOL0     C59849   6.002   7.731   3.783  0.1487 -0.0442  0.2639
  454MOL0     C59850   5.628   7.965   3.732 -1.1213  0.1907 -0.2997
  454MOL0     C59851   5.545   7.931   3.627 -0.1185  0.2074  0.3836
  454MOL0     C59852   5.414   7.985   3.619 -0.5976  0.8863 -0.0933
  454MOL0     C59853   5.366   8.072   3.713  1.2204 -0.3713 -0.5790
  454MOL0     O59854   5.237   8.125   3.695 -0.0816  0.7740  0.1674
  454MOL0     C59855   5.205   8.241   3.774 -0.1754 -0.9032  0.3381
  454MOL0     C59856   5.064   8.300   3.733 -1.0703 -0.0569  0.7814
  454MOL0     C59857   5.060   8.397   3.614  0.4641  0.5928 -0.7653
  454MOL0     C59858   4.917   8.412   3.546  0.4927 -0.5748  0.2320
  454MOL0     C59859   4.883   8.283   3.484 -0.8271  0.2142  1.3240
  454MOL0     C59860   4.862   8.168   3.456 -0.6734 -0.0705 -0.5479
  454MOL0     C59861   5.449   8.109   3.825  0.8394 -0.2007  0.2131
  454MOL0     C59862   5.578   8.058   3.825 -0.0198  0.3259  0.0930
  454MOL0     H59863   5.888   7.765   3.471 -0.6929  3.1828  0.8626
  454MOL0     H59864   6.142   7.748   3.423  1.2626 -2.4007  1.4617
  454MOL0     H59865   6.363   7.728   3.396  0.6222  0.1130  0.2550
  454MOL0     H59866   6.293   7.574   3.442  0.9636  0.2346  0.5771
  454MOL0     H59867   6.520   7.550   3.377 -4.4944  1.0376 -0.8834
  454MOL0     H59868   6.519   7.516   3.553 -2.9543  3.2891  2.9000
  454MOL0     H59869   6.585   7.740   3.619 -0.8514  1.1541 -1.0141
  454MOL0     H59870   6.594   7.780   3.442 -0.9218 -0.9419 -1.0276
  454MOL0     H59871   6.753   7.555   3.592  0.3892  0.3946  1.9374
  454MOL0     H59872   6.779   7.596   3.427 -3.8648 -1.1903 -1.4152
  454MOL0     H59873   6.816   7.766   3.673 -1.9306  0.1780 -1.0317
  454MOL0     H59874   6.845   7.837   3.507 -1.8586 -1.2159 -1.8663
  454MOL0     H59875   7.031   7.714   3.475 -0.7079  1.0940  0.5071
  454MOL0     H59876   7.006   7.605   3.620  1.8642 -0.6083  0.2186
  454MOL0     H59877   7.039   7.908   3.621 -2.0872 -0.9010 -2.2971
  454MOL0     H59878   7.035   7.790   3.757  1.3042 -1.7471  0.7581
  454MOL0     H59879   7.238   7.668   3.662 -0.9231  0.4273  3.7712
  454MOL0     H59880   7.268   7.828   3.723  0.6153  1.7326 -1.4738
  454MOL0     H59881   7.270   7.637   3.386  1.8344  0.1477  1.7956
  454MOL0     H59882   7.381   7.689   3.166 -1.4313 -0.6643  1.0705
  454MOL0     H59883   7.428   7.854   3.135  1.4112 -0.9373 -0.5202
  454MOL0     H59884   7.172   7.909   3.135  1.2707  1.1179 -2.2069
  454MOL0     H59885   7.144   7.733   3.150  0.4921  0.5643  0.8919
  454MOL0     H59886   7.300   7.851   2.920  0.6369 -2.3117  0.7186
  454MOL0     H59887   7.263   7.693   2.924  0.2171  1.5125 -4.8888
  454MOL0     H59888   7.120   7.821   2.783  0.7339  0.4396  0.0492
  454MOL0     H59889   7.039   7.883   2.924 -2.1405 -0.8547 -0.1756
  454MOL0     H59890   6.808   7.520   2.828 -3.0111 -0.8271  0.8407
  454MOL0     H59891   6.586   7.542   2.872 -2.1251  1.9536  1.4796
  454MOL0     H59892   6.168   7.705   3.079 -1.4486 -0.3828  1.7644
  454MOL0     H59893   5.961   7.805   3.128 -0.5889 -0.2017 -0.7390
  454MOL0     H59894   5.794   7.868   3.299  0.7485  0.6136  1.9281
  454MOL0     H59895   5.804   7.972   3.152  0.5318 -0.5541 -0.3054
  454MOL0     H59896   5.663   8.034   3.409 -0.6605  1.2991  0.0758
  454MOL0     H59897   5.597   8.030   3.249  0.7744 -3.7894  1.7354
  454MOL0     H59898   5.727   8.235   3.179  2.3210 -0.3435  0.4992
  454MOL0     H59899   5.833   8.221   3.314  0.1439 -0.8170  1.3631
  454MOL0     H59900   5.683   8.407   3.352  1.0634 -0.6586  0.2471
  454MOL0     H59901   5.538   8.305   3.356 -0.2547 -2.5297 -0.2747
  454MOL0     H59902   5.761   8.214   3.545 -1.9082 -2.0194  0.9266
  454MOL0     H59903   5.588   8.203   3.558 -0.1908  0.4990  1.0055
  454MOL0     H59904   5.585   8.450   3.569 -1.4271 -2.8123 -0.4959
  454MOL0     H59905   5.757   8.471   3.554  0.8976 -0.1892  2.0710
  454MOL0     H59906   5.593   8.348   3.784  0.8671 -1.1133  0.1483
  454MOL0     H59907   5.759   8.316   3.787 -0.6669 -1.2704 -0.6833
  454MOL0     H59908   5.718   8.502   3.943 -1.5916  1.9179 -0.2969
  454MOL0     H59909   5.645   8.587   3.802  0.5598  1.9424 -1.6145
  454MOL0     H59910   6.179   8.116   3.362 -0.2138 -1.6971  1.3769
  454MOL0     H59911   6.387   8.022   3.270  1.9159 -0.8245 -1.4605
  454MOL0     H59912   6.653   7.868   3.148  0.2631 -0.3610  0.5437
  454MOL0     H59913   6.898   7.859   3.094  1.5725 -1.4390 -0.9272
  454MOL0     H59914   6.211   7.743   3.832  0.2449  1.1742  0.0317
  454MOL0     H59915   5.974   7.734   3.888 -0.0737  2.5315  0.1903
  454MOL0     H59916   5.580   7.851   3.562  0.9059  0.9394 -0.0136
  454MOL0     H59917   5.354   7.965   3.531 -1.2543  1.4742  0.2187
  454MOL0     H59918   5.279   8.321   3.771 -1.9094  1.0438  3.6642
  454MOL0     H59919   5.213   8.214   3.880 -0.7137 -2.5077 -0.0015
  454MOL0     H59920   4.990   8.220   3.731  0.8137 -1.8798  0.9306
  454MOL0     H59921   5.039   8.357   3.823  1.3729 -0.0733  1.5453
  454MOL0     H59922   5.127   8.397   3.528  0.2488  3.7885 -1.0754
  454MOL0     H59923   5.088   8.492   3.662  0.4646 -0.2405  0.9518
  454MOL0     H59924   4.841   8.440   3.619  1.3155  1.8398  0.2544
  454MOL0     H59925   4.908   8.492   3.471 -0.8738 -0.9735 -0.0478
  454MOL0     H59926   4.832   8.066   3.444 -1.7508  0.4876 -3.3581
  454MOL0     H59927   5.423   8.175   3.906 -0.0267  1.5063 -1.3760
  454MOL0     H59928   5.644   8.085   3.907 -0.7087  0.8574  0.4833
  455MOL0     O59929   2.042   8.122  10.008  0.2089 -0.0358 -0.1137
  455MOL0     C59930   2.137   8.156   9.940  1.2617 -0.2702 -0.1377
  455MOL0     O59931   2.133   8.157   9.810 -0.1881  0.2296  0.4570
  455MOL0     C59932   2.017   8.164   9.738 -0.0354 -0.2128 -0.7583
  455MOL0     C59933   2.016   8.100   9.612 -0.0622  0.1959  0.3704
  455MOL0     C59934   1.908   8.122   9.520 -0.5188  0.1475 -0.3110
  455MOL0     C59935   1.802   8.200   9.560  1.3826 -0.9638 -0.1882
  455MOL0     O59936   1.676   8.216   9.497 -0.0412 -0.2724 -0.8897
  455MOL0     C59937   1.679   8.197   9.352 -0.7309 -0.0803 -0.4583
  455MOL0     C59938   1.645   8.049   9.316  0.0996  0.2471  0.1899
  455MOL0     C59939   1.509   7.999   9.376  0.2534  0.4583 -0.1395
  455MOL0     C59940   1.443   7.899   9.275 -0.2379  1.0937 -0.3889
  455MOL0     C59941   1.341   7.806   9.341 -0.3074 -1.4565 -0.5313
  455MOL0     C59942   1.245   7.749   9.236  0.0367  0.0356 -0.7616
  455MOL0     C59943   1.153   7.641   9.304  0.7998  0.7705  0.2165
  455MOL0     C59944   1.044   7.571   9.212  0.8235  0.5944  0.2680
  455MOL0     N59945   0.946   7.503   9.297 -0.4420  0.3770 -0.3078
  455MOL0     C59946   0.853   7.566   9.376 -0.4154 -1.3408  0.1191
  455MOL0     C59947   0.790   7.467   9.442 -0.1933  0.6551  0.1419
  455MOL0     C59948   0.695   7.488   9.564 -0.5745  0.1364 -0.3120
  455MOL0     C59949   0.789   7.520   9.683 -0.6324 -0.3140 -0.2561
  455MOL0     C59950   0.726   7.576   9.805  0.2806 -0.3421 -0.0527
  455MOL0     C59951   0.682   7.477   9.908 -0.2168  0.0316 -0.1490
  455MOL0     O59952   0.647   7.543  10.025 -0.2247 -0.7626 -0.5013
  455MOL0     C59953   0.575   7.470  10.114 -0.2853  0.2265 -0.0648
  455MOL0     C59954   0.598   7.341  10.169  0.4905 -0.6789  0.4646
  455MOL0     C59955   0.515   7.281  10.259 -0.6073  0.0584 -0.6241
  455MOL0     C59956   0.401   7.350  10.296 -0.2765  0.1085  0.3766
  455MOL0     C59957   0.305   7.288  10.400  0.1172 -0.0359  0.3105
  455MOL0     O59958   0.355   7.184  10.473 -0.3575  0.1195 -0.7150
  455MOL0     C59959   0.277   7.136  10.579 -0.4960 -0.4035 -0.7745
  455MOL0     C59960   0.231   7.001  10.586  1.0952  0.4148  0.3339
  455MOL0     C59961   0.180   6.946  10.707 -0.2537 -1.1033  0.6906
  455MOL0     C59962   0.167   7.019  10.824 -1.1665  0.5960 -0.5813
  455MOL0     O59963   0.107   6.963  10.934 -0.0064 -0.2500  0.0396
  455MOL0     C59964   0.147   7.022  11.061  0.6713  0.4561 -1.1379
  455MOL0     C59965   0.071   6.944  11.170 -0.1662  0.8664  0.3307
  455MOL0     C59966  -0.077   6.963  11.159 -0.2568 -0.0536 -1.0475
  455MOL0     C59967  -0.154   6.876  11.262  0.7058  1.0013 -0.5949
  455MOL0     C59968  -0.301   6.915  11.252  0.5191 -0.1320  0.9563
  455MOL0     C59969  -0.391   6.825  11.340 -1.1132  0.6306  0.0298
  455MOL0     C59970  -0.398   6.860  11.495  0.4720 -0.1525  0.1452
  455MOL0     C59971  -0.516   6.791  11.562  0.1894 -0.0120 -0.3768
  455MOL0    Cl59972  -0.478   6.616  11.581 -0.3793 -0.0685  0.4971
  455MOL0     C59973   0.205   7.158  10.818  0.2439  0.4653  0.2901
  455MOL0     C59974   0.253   7.214  10.696 -0.0728 -0.3292 -1.0399
  455MOL0     O59975   0.189   7.330  10.396  0.0551 -0.0051  0.7345
  455MOL0     C59976   0.366   7.471  10.238  0.1561 -0.8653 -0.4366
  455MOL0     C59977   0.456   7.532  10.149  0.6215 -0.5476  0.7390
  455MOL0     N59978   0.844   7.348   9.406 -0.1488  0.1929  0.5380
  455MOL0     N59979   0.935   7.364   9.317 -0.3378 -0.4508  0.3554
  455MOL0     C59980   1.805   8.273   9.680 -0.6569  0.8306  0.3320
  455MOL0     C59981   1.900   8.247   9.780 -0.2449  0.2482 -0.3967
  455MOL0     C59982   2.263   8.167  10.008 -0.0227 -0.6049 -0.1925
  455MOL0     C59983   2.290   8.113  10.132  0.0663 -0.5434 -0.3769
  455MOL0     C59984   2.404   8.156  10.206 -0.1895  0.0010 -0.6496
  455MOL0     C59985   2.493   8.255  10.158 -0.5204  0.6045 -0.3412
  455MOL0     O59986   2.599   8.284  10.243 -0.1922  0.0189 -0.2912
  455MOL0     C59987   2.669   8.403  10.243 -1.7764  0.2929  0.4997
  455MOL0     C59988   2.583   8.529  10.234  0.8855 -0.1385 -0.4816
  455MOL0     C59989   2.473   8.522  10.352 -0.3001  0.6248 -0.2639
  455MOL0     C59990   2.388   8.646  10.353  0.8757  0.5484 -0.7303
  455MOL0     C59991   2.252   8.612  10.407 -0.5439  1.0400  0.0425
  455MOL0     C59992   2.148   8.579  10.459 -0.4545  1.3007 -0.6395
  455MOL0     C59993   2.470   8.298  10.029  0.2335 -0.4307 -0.7022
  455MOL0     C59994   2.360   8.253   9.949 -0.9772  0.1741 -0.8500
  455MOL0     H59995   2.103   8.039   9.592 -0.0445  0.0997  0.7331
  455MOL0     H59996   1.918   8.075   9.423 -1.3777 -1.3440  0.2941
  455MOL0     H59997   1.776   8.234   9.317  1.5651 -3.9379  1.1580
  455MOL0     H59998   1.596   8.255   9.311 -1.4233  0.8351  2.0643
  455MOL0     H59999   1.727   7.990   9.359  0.1999 -1.0054 -1.6466
  455MOL0     H60000   1.643   8.037   9.208  1.7209 -0.0072  0.1614
  455MOL0     H60001   1.443   8.085   9.391 -2.8783 -1.8475  0.6025
  455MOL0     H60002   1.510   7.950   9.474 -2.2099  1.4597  0.4571
  455MOL0     H60003   1.398   7.939   9.184 -2.0046 -0.8466 -0.4341
  455MOL0     H60004   1.515   7.833   9.227 -1.9225 -1.2324  0.1110
  455MOL0     H60005   1.281   7.858   9.416 -0.0668  0.6066 -1.6683
  455MOL0     H60006   1.397   7.731   9.397 -0.7696 -0.7758  0.8918
  455MOL0     H60007   1.298   7.691   9.160 -0.1482 -1.7163  0.3861
  455MOL0     H60008   1.169   7.819   9.200 -2.5879 -1.4991  1.3696
  455MOL0     H60009   1.214   7.565   9.354 -1.0058  0.6862  2.4395
  455MOL0     H60010   1.094   7.673   9.391 -0.2854  1.2970 -0.6933
  455MOL0     H60011   1.104   7.504   9.150 -0.5153 -0.0549 -0.3820
  455MOL0     H60012   0.995   7.643   9.146  0.7908 -0.4124 -0.8330
  455MOL0     H60013   0.834   7.671   9.393 -3.5998 -1.1806 -3.2864
  455MOL0     H60014   0.641   7.395   9.581 -0.9572  0.5000  0.5131
  455MOL0     H60015   0.619   7.565   9.544 -0.9195 -0.5458 -1.7587
  455MOL0     H60016   0.862   7.597   9.656 -2.3911  1.4203 -0.2948
  455MOL0     H60017   0.838   7.425   9.710  0.9780  0.7444  0.7432
  455MOL0     H60018   0.786   7.652   9.856 -1.9464  1.8246 -0.4261
  455MOL0     H60019   0.637   7.635   9.778  0.1217  0.2165  1.5748
  455MOL0     H60020   0.762   7.408   9.933  1.9427  1.1296 -3.3897
  455MOL0     H60021   0.590   7.432   9.870  0.7898 -0.1376 -2.5731
  455MOL0     H60022   0.689   7.286  10.145  2.7806  2.8513  0.3425
  455MOL0     H60023   0.530   7.183  10.303  2.4875  1.2530  1.2979
  455MOL0     H60024   0.237   6.942  10.495  0.5715  2.0002 -0.7654
  455MOL0     H60025   0.147   6.843  10.714 -0.0595 -1.0908  2.1860
  455MOL0     H60026   0.112   7.125  11.073  0.9824  0.1965  3.7699
  455MOL0     H60027   0.256   7.017  11.070  0.8510  2.1320 -1.9727
  455MOL0     H60028   0.103   6.977  11.270  1.3052  2.6337 -0.6615
  455MOL0     H60029   0.098   6.838  11.160 -2.1474  0.2115  1.4036
  455MOL0     H60030  -0.091   6.925  11.057  3.4681 -1.3847 -1.2500
  455MOL0     H60031  -0.108   7.068  11.158  0.7268  0.2665 -2.4717
  455MOL0     H60032  -0.139   6.774  11.223 -2.0824 -0.1326  0.9762
  455MOL0     H60033  -0.130   6.888  11.368  0.1176  1.3532 -0.4971
  455MOL0     H60034  -0.327   6.899  11.147  1.9434  1.6404  0.2809
  455MOL0     H60035  -0.318   7.020  11.279 -1.1871 -1.1352  4.2177
  455MOL0     H60036  -0.346   6.725  11.343  0.4958  1.3568  1.1992
  455MOL0     H60037  -0.492   6.810  11.301  0.0601 -0.5724 -2.9339
  455MOL0     H60038  -0.309   6.832  11.552  0.9015 -3.6753 -1.9283
  455MOL0     H60039  -0.422   6.967  11.497 -0.9205 -0.3102 -2.6265
  455MOL0     H60040  -0.612   6.807  11.511 -0.7435  0.1817  1.3417
  455MOL0     H60041  -0.535   6.833  11.661 -2.4822  0.6955 -1.0966
  455MOL0     H60042   0.189   7.225  10.901  1.3545  0.8799  0.1963
  455MOL0     H60043   0.292   7.315  10.688  2.0656 -1.1163 -0.9651
  455MOL0     H60044   0.274   7.524  10.262 -0.4259 -1.7349 -0.6486
  455MOL0     H60045   0.423   7.618  10.093  0.7675  0.3690  2.0266
  455MOL0     H60046   1.720   8.333   9.713 -1.8950 -1.8943  2.4492
  455MOL0     H60047   1.880   8.289   9.878  2.1152 -0.0189  0.2624
  455MOL0     H60048   2.219   8.056  10.192  0.1566  3.3037  3.9146
  455MOL0     H60049   2.427   8.120  10.305  0.3931  0.4372 -0.6207
  455MOL0     H60050   2.738   8.403  10.158 -1.0890  2.0373  0.9959
  455MOL0     H60051   2.721   8.393  10.339 -3.6034 -1.1562  1.3893
  455MOL0     H60052   2.647   8.618  10.244  2.9968 -1.8721  5.4931
  455MOL0     H60053   2.529   8.529  10.139  1.7581  1.1835 -1.0059
  455MOL0     H60054   2.519   8.526  10.452 -3.8002  0.4218  1.5169
  455MOL0     H60055   2.415   8.430  10.339 -0.5737  0.5980  1.0076
  455MOL0     H60056   2.428   8.730  10.410  2.5566  1.0409 -2.5078
  455MOL0     H60057   2.371   8.687  10.253 -1.4933  3.6833  0.7857
  455MOL0     H60058   2.066   8.554  10.523  0.5159  1.2625  0.6272
  455MOL0     H60059   2.545   8.365   9.987  0.2912 -0.0086  0.0497
  455MOL0     H60060   2.369   8.282   9.845  3.1407 -1.4126 -1.1508
  456MOL0     O60061  10.322   4.940  11.155 -0.6470  0.6645 -0.2406
  456MOL0     C60062  10.336   4.910  11.031 -0.0725  0.4166 -0.3461
  456MOL0     O60063  10.434   4.840  10.976  0.1163 -0.2390  0.4632
  456MOL0     C60064  10.514   4.764  11.059  0.1216  0.2040 -0.7088
  456MOL0     C60065  10.602   4.828  11.148 -0.1402 -0.1607 -0.0438
  456MOL0     C60066  10.684   4.753  11.224 -0.0107  0.5393  0.8168
  456MOL0     C60067  10.684   4.616  11.221 -0.2977  0.3519  0.5983
  456MOL0     O60068  10.756   4.533  11.304 -0.1860 -0.0083 -0.3845
  456MOL0     C60069  10.837   4.592  11.407  0.0305  1.0985 -0.3854
  456MOL0     C60070  10.908   4.485  11.488  0.0992  0.3596 -0.7446
  456MOL0     C60071  10.811   4.392  11.555  0.2571  0.0032  0.2617
  456MOL0     C60072  10.758   4.445  11.684 -0.6379  0.4840  0.6672
  456MOL0     C60073  10.653   4.358  11.758  0.6834 -1.1776  0.1958
  456MOL0     C60074  10.712   4.228  11.807  1.1851  0.5205  0.2928
  456MOL0     C60075  10.837   4.225  11.899  0.4183 -0.0338  0.2491
  456MOL0     C60076  10.826   4.284  12.039  0.4806  0.0877 -0.1841
  456MOL0     N60077  10.963   4.292  12.094  0.5446  0.2849 -0.0137
  456MOL0     C60078  11.029   4.177  12.121  0.0345 -0.9710 -0.7750
  456MOL0     C60079  11.141   4.223  12.189 -0.2807 -0.2148  0.8595
  456MOL0     C60080  11.243   4.139  12.262  0.3810  0.4367  0.1435
  456MOL0     C60081  11.274   4.007  12.189 -0.4292  0.7951  0.4027
  456MOL0     C60082  11.407   3.949  12.239 -0.9153  0.2290  0.3197
  456MOL0     C60083  11.474   3.856  12.135  0.5483  0.1092  0.2224
  456MOL0     O60084  11.610   3.821  12.177  0.2959 -0.5169  0.2917
  456MOL0     C60085  11.692   3.747  12.099 -0.8070 -0.2243  0.9336
  456MOL0     C60086  11.832   3.733  12.139  0.4789  0.2495  0.2096
  456MOL0     C60087  11.925   3.658  12.061  0.3774  0.3315  0.0248
  456MOL0     C60088  11.872   3.600  11.943  0.1609 -0.4432  0.3771
  456MOL0     C60089  11.959   3.526  11.852 -0.4210  0.2064  0.6710
  456MOL0     O60090  11.926   3.532  11.712  0.8690 -0.2044  0.0498
  456MOL0     C60091  11.985   3.445  11.624  0.1064 -0.6490 -0.5399
  456MOL0     C60092  11.917   3.372  11.528  0.7704  0.1530 -0.0346
  456MOL0     C60093  11.983   3.297  11.429 -0.4913 -0.2769  1.1629
  456MOL0     C60094  12.120   3.283  11.430  0.0080 -0.3842 -0.1357
  456MOL0     O60095  12.182   3.212  11.338  0.1854  0.1138  1.3116
  456MOL0     C60096  12.257   3.096  11.397  0.1414 -1.4056  0.4660
  456MOL0     C60097  12.342   3.040  11.284  0.6046 -0.0243 -0.1775
  456MOL0     C60098  12.473   3.115  11.236 -0.4919  0.4254  0.4599
  456MOL0     C60099  12.604   3.072  11.312 -0.1131  0.2982 -0.0792
  456MOL0     C60100  12.720   3.140  11.244  1.1077  0.4379 -0.4158
  456MOL0     C60101  12.838   3.130  11.337  0.4375  0.6384  0.8160
  456MOL0     C60102  12.966   3.188  11.287  1.4307 -0.3750 -0.2686
  456MOL0     C60103  13.009   3.126  11.152 -0.1542 -0.1750  0.1436
  456MOL0    Cl60104  13.191   3.157  11.151 -0.7857  0.0283  0.3184
  456MOL0     C60105  12.194   3.349  11.526  0.4941  1.0506  0.2311
  456MOL0     C60106  12.129   3.430  11.620  0.1340  1.2493  0.0139
  456MOL0     O60107  12.053   3.465  11.903  0.2268  0.0758  0.0534
  456MOL0     C60108  11.745   3.625  11.895  0.2946  0.1755  0.0055
  456MOL0     C60109  11.653   3.684  11.983 -1.2344  1.2804  0.0484
  456MOL0     N60110  11.142   4.361  12.196  0.9467 -0.2590  0.1535
  456MOL0     N60111  11.028   4.397  12.140  0.3599  0.1845 -0.0537
  456MOL0     C60112  10.605   4.553  11.119 -0.3613  0.2043  0.0832
  456MOL0     C60113  10.518   4.626  11.041 -0.1613  0.0634 -0.3916
  456MOL0     C60114  10.226   4.958  10.948 -0.2090 -0.1695  0.2969
  456MOL0     C60115  10.240   4.964  10.805 -1.2547  0.8554  0.2597
  456MOL0     C60116  10.128   5.012  10.734  0.3023 -0.2057  0.1212
  456MOL0     C60117  10.007   5.058  10.790  0.7409 -0.1965 -0.5128
  456MOL0     O60118   9.905   5.083  10.710 -0.1446  0.2381  0.1234
  456MOL0     C60119   9.787   5.144  10.763 -0.5986 -0.5081 -0.8982
  456MOL0     C60120   9.672   5.126  10.668  0.2290  0.4764 -1.5945
  456MOL0     C60121   9.622   4.983  10.648 -0.4002  0.0458  0.6652
  456MOL0     C60122   9.557   4.937  10.782 -0.3481  0.2544  1.3943
  456MOL0     C60123   9.429   5.005  10.797  0.1429 -0.2730 -0.4863
  456MOL0     C60124   9.315   5.049  10.805  0.4247  0.5030  0.1285
  456MOL0     C60125  10.005   5.056  10.935  0.3250  0.0818 -0.0885
  456MOL0     C60126  10.108   5.006  11.006  0.1922  0.2130  0.5012
  456MOL0     H60127  10.596   4.936  11.142 -1.4382 -0.2640 -4.1100
  456MOL0     H60128  10.733   4.798  11.309  1.1214  1.6408 -0.3798
  456MOL0     H60129  10.779   4.650  11.480 -1.7247 -2.3844  1.2309
  456MOL0     H60130  10.908   4.656  11.354  0.3631 -0.8471 -2.4474
  456MOL0     H60131  10.994   4.514  11.548 -1.2432  2.7176  0.1682
  456MOL0     H60132  10.944   4.415  11.412 -1.1736 -0.0248 -1.0285
  456MOL0     H60133  10.861   4.297  11.576  0.1668 -0.0623  0.1817
  456MOL0     H60134  10.734   4.364  11.483  2.0399 -0.7597 -1.4490
  456MOL0     H60135  10.840   4.469  11.751  1.1258  0.8673 -1.5051
  456MOL0     H60136  10.716   4.537  11.642  5.9416  2.3754 -3.3260
  456MOL0     H60137  10.574   4.342  11.684  1.2611 -1.8549 -0.2859
  456MOL0     H60138  10.617   4.397  11.854 -1.0098  0.8546 -1.1768
  456MOL0     H60139  10.734   4.171  11.716  1.4927 -2.8124  2.3240
  456MOL0     H60140  10.639   4.174  11.867  1.1484  1.6657  1.3011
  456MOL0     H60141  10.871   4.123  11.916  1.1517  0.0254 -0.7901
  456MOL0     H60142  10.908   4.284  11.840 -1.2429 -0.0988 -1.9836
  456MOL0     H60143  10.767   4.221  12.106 -3.3889  1.1494 -2.2912
  456MOL0     H60144  10.784   4.385  12.033  0.0851 -0.0342  0.4228
  456MOL0     H60145  11.005   4.076  12.090  0.0626 -0.7762 -1.4609
  456MOL0     H60146  11.200   4.131  12.362 -2.3509  1.1400 -0.8676
  456MOL0     H60147  11.339   4.189  12.278  1.4046 -1.0015 -1.1873
  456MOL0     H60148  11.276   4.017  12.080 -1.0060 -1.6219  0.0953
  456MOL0     H60149  11.204   3.924  12.209 -1.2109  1.0212 -1.2030
  456MOL0     H60150  11.477   4.031  12.257 -0.2406 -0.5977  1.6527
  456MOL0     H60151  11.386   3.893  12.331  1.8119  0.2795  1.0484
  456MOL0     H60152  11.471   3.909  12.039 -3.2864  0.9063  0.6357
  456MOL0     H60153  11.402   3.775  12.122 -1.8732  1.9904  1.2237
  456MOL0     H60154  11.862   3.776  12.234  4.6668  1.2930 -1.3580
  456MOL0     H60155  12.025   3.638  12.100  0.1406 -0.3688  0.2752
  456MOL0     H60156  11.810   3.390  11.534  0.9291  0.6711  1.6309
  456MOL0     H60157  11.924   3.259  11.346  0.0695 -1.0729  1.1209
  456MOL0     H60158  12.203   3.007  11.431 -3.4937  0.7456  0.8612
  456MOL0     H60159  12.318   3.132  11.480 -1.5462 -1.0324  1.5993
  456MOL0     H60160  12.275   3.013  11.201  1.7552 -0.7744 -0.8863
  456MOL0     H60161  12.371   2.940  11.317  3.3746  0.7323 -0.1171
  456MOL0     H60162  12.463   3.223  11.238  2.0757  0.7301  0.0660
  456MOL0     H60163  12.474   3.076  11.133 -1.4957 -0.0911  0.6332
  456MOL0     H60164  12.592   3.100  11.417 -0.7969 -2.9746  0.8282
  456MOL0     H60165  12.632   2.967  11.312  0.3378  0.3891  1.7412
  456MOL0     H60166  12.693   3.243  11.223  0.2463  0.3176  0.0803
  456MOL0     H60167  12.746   3.090  11.150 -0.2995  1.1996 -1.2477
  456MOL0     H60168  12.860   3.025  11.353 -0.0413  0.5256  0.7356
  456MOL0     H60169  12.815   3.181  11.431 -0.8776  5.6578 -1.8238
  456MOL0     H60170  12.970   3.297  11.287 -1.8487 -0.1641  0.3794
  456MOL0     H60171  13.036   3.154  11.364 -0.6621 -3.7087  0.3646
  456MOL0     H60172  12.960   3.173  11.066  1.1607 -0.6322 -0.8941
  456MOL0     H60173  12.985   3.020  11.142  0.0289 -0.0751 -1.8465
  456MOL0     H60174  12.302   3.347  11.524  0.6943 -1.5587  3.8807
  456MOL0     H60175  12.193   3.481  11.692  1.8820 -0.6444 -0.1094
  456MOL0     H60176  11.706   3.593  11.798 -0.2359  3.5148 -1.0084
  456MOL0     H60177  11.548   3.674  11.955 -1.6701 -0.4221  2.0040
  456MOL0     H60178  10.618   4.448  11.097  3.0374  0.5942 -0.2369
  456MOL0     H60179  10.454   4.591  10.961  1.9148 -1.6993 -1.3837
  456MOL0     H60180  10.327   4.931  10.750 -1.4718 -2.1689  1.5720
  456MOL0     H60181  10.137   5.034  10.628  1.9417  0.4401  0.3467
  456MOL0     H60182   9.812   5.250  10.761  0.5917 -0.7835 -2.0826
  456MOL0     H60183   9.755   5.102  10.859  2.0771 -1.3527 -0.2749
  456MOL0     H60184   9.593   5.196  10.698  0.5284 -0.3254  1.3878
  456MOL0     H60185   9.710   5.159  10.570 -1.9686 -0.4131 -2.8177
  456MOL0     H60186   9.708   4.919  10.628 -1.6497 -1.1013 -1.4722
  456MOL0     H60187   9.559   4.971  10.559 -2.2663  0.2150  1.9040
  456MOL0     H60188   9.555   4.829  10.769  2.6433  0.3024 -0.5318
  456MOL0     H60189   9.622   4.951  10.869 -0.0295 -2.2802  1.6300
  456MOL0     H60190   9.221   5.099  10.816 -0.7020 -1.5327  0.2435
  456MOL0     H60191   9.916   5.076  10.994 -0.7640 -3.6095 -0.2434
  456MOL0     H60192  10.101   5.001  11.114  3.5258  0.2279  0.8312
  457MOL0     O60193   1.909   3.077   0.613  0.1573  0.6365 -0.5522
  457MOL0     C60194   1.973   3.046   0.716 -0.0549 -0.3677  0.1900
  457MOL0     O60195   1.941   3.094   0.843 -0.6884  0.2403  0.6762
  457MOL0     C60196   1.856   3.195   0.852  0.2792 -0.3552 -0.3914
  457MOL0     C60197   1.713   3.191   0.829 -0.0641 -0.6981 -0.3777
  457MOL0     C60198   1.626   3.290   0.864 -0.2615  0.2839 -0.4178
  457MOL0     C60199   1.674   3.415   0.933 -0.0825 -0.5514  0.4535
  457MOL0     O60200   1.591   3.520   0.966 -0.3728 -0.0487 -0.3168
  457MOL0     C60201   1.468   3.478   1.035  0.3781 -0.1928 -0.4954
  457MOL0     C60202   1.371   3.609   1.029 -0.0867  0.2169  0.1762
  457MOL0     C60203   1.240   3.610   1.111  0.7096  1.0044 -0.3499
  457MOL0     C60204   1.267   3.600   1.258  0.5119 -0.2696  0.7215
  457MOL0     C60205   1.134   3.547   1.315 -0.2818  0.2186 -0.2583
  457MOL0     C60206   1.164   3.527   1.460  0.3683 -0.0847 -0.7621
  457MOL0     C60207   1.037   3.494   1.545 -0.1094 -0.2610  0.1289
  457MOL0     C60208   1.055   3.560   1.690  0.1909  0.4522 -0.0025
  457MOL0     N60209   0.931   3.551   1.767 -0.5125  0.4685 -0.0895
  457MOL0     C60210   0.926   3.521   1.902  0.0349 -1.7002  0.4395
  457MOL0     C60211   0.793   3.526   1.930 -0.2588 -0.0448 -0.3743
  457MOL0     C60212   0.756   3.498   2.073  0.0463  0.2317  0.6322
  457MOL0     C60213   0.636   3.592   2.113 -0.3056 -0.7367  0.0161
  457MOL0     C60214   0.676   3.736   2.136 -0.2434 -1.2032  0.6036
  457MOL0     C60215   0.553   3.822   2.159  0.2254 -0.0135  0.5688
  457MOL0     O60216   0.470   3.750   2.250  0.5497 -0.2707  0.3998
  457MOL0     C60217   0.335   3.782   2.256 -0.0169  0.3918 -0.2386
  457MOL0     C60218   0.273   3.889   2.185  0.8400  0.1061 -0.0185
  457MOL0     C60219   0.128   3.923   2.197 -0.0467  0.6959  0.1083
  457MOL0     C60220   0.045   3.829   2.261 -0.3336 -0.1805 -0.0697
  457MOL0     C60221  -0.101   3.840   2.264  0.4335  0.4999 -0.6700
  457MOL0     O60222  -0.156   3.922   2.173 -0.0457  0.4563 -0.4563
  457MOL0     C60223  -0.297   3.920   2.170  0.2927  0.0092 -0.1269
  457MOL0     C60224  -0.348   3.826   2.084 -0.5982 -0.1480  0.5215
  457MOL0     C60225  -0.490   3.811   2.074 -0.1035 -0.7076  0.1642
  457MOL0     C60226  -0.571   3.903   2.138  0.5977 -0.5968 -0.9247
  457MOL0     O60227  -0.705   3.879   2.106 -0.5952 -0.2885 -1.2353
  457MOL0     C60228  -0.792   3.990   2.101 -0.0190  1.0506 -0.3759
  457MOL0     C60229  -0.753   4.063   1.979 -0.3893 -1.4302 -0.1028
  457MOL0     C60230  -0.847   4.191   1.957  0.2376 -0.1131  0.0117
  457MOL0     C60231  -0.995   4.162   1.943  0.3203 -0.2501  1.2373
  457MOL0     C60232  -1.075   4.288   1.892  0.0701 -0.0200 -0.4423
  457MOL0     C60233  -1.220   4.273   1.908 -0.3206 -0.0950 -0.2610
  457MOL0     C60234  -1.290   4.164   1.824 -0.5537  0.9510 -0.0103
  457MOL0     C60235  -1.423   4.202   1.752  0.3945 -0.2861  0.2072
  457MOL0    Cl60236  -1.391   4.335   1.618  0.0822  0.0543  0.1834
  457MOL0     C60237  -0.514   4.010   2.208  0.0855 -0.4111 -0.8390
  457MOL0     C60238  -0.369   4.014   2.227  1.3623 -0.2503 -0.4770
  457MOL0     O60239  -0.159   3.772   2.345  0.9683 -0.0338  0.1902
  457MOL0     C60240   0.108   3.724   2.329  0.1862 -0.4585  0.1504
  457MOL0     C60241   0.247   3.709   2.333 -0.4832  0.2454  0.9664
  457MOL0     N60242   0.720   3.572   1.825  0.0422  0.4374  0.5605
  457MOL0     N60243   0.803   3.583   1.728 -1.1441 -0.2364 -0.0699
  457MOL0     C60244   1.816   3.426   0.943 -0.0171  0.4181  0.7404
  457MOL0     C60245   1.902   3.319   0.906 -0.7156  0.1090 -0.2298
  457MOL0     C60246   2.095   2.961   0.720  0.3236  0.0700  0.4701
  457MOL0     C60247   2.139   2.896   0.834  0.0953 -0.1736 -0.2651
  457MOL0     C60248   2.259   2.812   0.826  0.3916  0.8511  0.4553
  457MOL0     C60249   2.329   2.798   0.707 -0.8873  0.5393 -0.5519
  457MOL0     O60250   2.428   2.708   0.718 -0.4329 -0.7951 -0.1848
  457MOL0     C60251   2.502   2.653   0.610  0.3552  0.2499 -0.3937
  457MOL0     C60252   2.565   2.513   0.657  0.4209 -0.0088 -0.4439
  457MOL0     C60253   2.626   2.534   0.804 -0.2360  0.6344  0.6265
  457MOL0     C60254   2.713   2.411   0.834 -0.3010  0.2667  0.7556
  457MOL0     C60255   2.783   2.439   0.966  0.0359 -0.8651 -0.2506
  457MOL0     C60256   2.827   2.447   1.079 -0.5146  0.0688  0.0915
  457MOL0     C60257   2.284   2.861   0.598  0.3875 -0.9425  1.3198
  457MOL0     C60258   2.172   2.941   0.602 -0.9085 -0.6284  0.7196
  457MOL0     H60259   1.675   3.101   0.781  1.5456 -0.4389 -2.2747
  457MOL0     H60260   1.525   3.251   0.873  0.2958 -0.6898  2.4178
  457MOL0     H60261   1.475   3.458   1.142 -4.7802  0.8770  0.2969
  457MOL0     H60262   1.421   3.392   0.986 -1.9607  0.3799  0.5940
  457MOL0     H60263   1.356   3.629   0.922  2.3271 -0.4792 -0.3625
  457MOL0     H60264   1.430   3.694   1.065  1.6703  0.1924 -2.3396
  457MOL0     H60265   1.189   3.520   1.076  1.0070  0.3069  0.9457
  457MOL0     H60266   1.177   3.699   1.098 -0.0843  0.4907 -0.0767
  457MOL0     H60267   1.348   3.528   1.274  2.0664  1.6889  2.0539
  457MOL0     H60268   1.297   3.697   1.299  3.7829 -0.4027 -0.9972
  457MOL0     H60269   1.107   3.451   1.271 -1.1713  1.3571 -2.3265
  457MOL0     H60270   1.055   3.622   1.306  0.2871  0.6296 -2.1202
  457MOL0     H60271   1.195   3.624   1.500 -2.9734  0.6126  0.4193
  457MOL0     H60272   1.240   3.451   1.480 -1.2628 -1.4803  0.4258
  457MOL0     H60273   0.942   3.520   1.498 -1.2303 -2.4574  1.0297
  457MOL0     H60274   1.031   3.385   1.550  0.2574 -0.4332 -2.1490
  457MOL0     H60275   1.071   3.667   1.675 -4.1898  0.9456 -2.9522
  457MOL0     H60276   1.133   3.504   1.743  0.4853 -1.6734 -2.4742
  457MOL0     H60277   1.010   3.512   1.970  0.8579 -0.7924 -0.4327
  457MOL0     H60278   0.842   3.514   2.139 -0.1210 -3.1357  1.8354
  457MOL0     H60279   0.721   3.395   2.082  0.0716  0.3258  2.0812
  457MOL0     H60280   0.593   3.552   2.205  1.3534  0.1312  1.2166
  457MOL0     H60281   0.566   3.583   2.029 -0.2151 -1.6722  0.0336
  457MOL0     H60282   0.741   3.738   2.224  0.9906  0.9895 -0.2767
  457MOL0     H60283   0.723   3.774   2.045 -1.9075 -1.4825 -0.4170
  457MOL0     H60284   0.512   3.837   2.059  0.8136  0.7314  0.4275
  457MOL0     H60285   0.578   3.917   2.207  1.7033  0.5180 -1.1500
  457MOL0     H60286   0.329   3.955   2.120  0.2288 -0.9426 -1.6789
  457MOL0     H60287   0.089   4.014   2.152  0.3907  0.3241 -1.0763
  457MOL0     H60288  -0.284   3.759   2.028  1.6549  1.6101  0.8306
  457MOL0     H60289  -0.525   3.733   2.007  2.2634  1.0031 -3.3644
  457MOL0     H60290  -0.787   4.059   2.185  0.6270  0.8769 -0.2723
  457MOL0     H60291  -0.898   3.966   2.086 -0.3201  2.0148  0.0769
  457MOL0     H60292  -0.765   4.005   1.887  2.5831 -1.8535 -0.3261
  457MOL0     H60293  -0.654   4.108   1.988 -0.3270 -1.4568 -0.6373
  457MOL0     H60294  -0.823   4.241   1.863 -1.9656 -1.3221 -1.2942
  457MOL0     H60295  -0.832   4.256   2.044  2.0953 -1.0780  0.4789
  457MOL0     H60296  -1.017   4.082   1.872  1.9165  0.4108 -0.0902
  457MOL0     H60297  -1.044   4.142   2.039  1.1847 -1.5994  1.4149
  457MOL0     H60298  -1.069   4.310   1.785 -3.3481  0.7146 -0.5845
  457MOL0     H60299  -1.041   4.373   1.952  1.5446 -0.5395 -0.4939
  457MOL0     H60300  -1.272   4.369   1.900 -0.2313  0.0133  0.4020
  457MOL0     H60301  -1.246   4.249   2.011 -1.6736 -1.0559 -0.7960
  457MOL0     H60302  -1.220   4.139   1.743  3.1321  2.9287  2.2646
  457MOL0     H60303  -1.287   4.073   1.884  1.5819  0.2236 -1.1039
  457MOL0     H60304  -1.498   4.223   1.829  2.1422 -0.5149  2.0645
  457MOL0     H60305  -1.478   4.128   1.693 -1.7932  2.6496 -1.7153
  457MOL0     H60306  -0.583   4.081   2.251 -1.2818  0.4100 -4.0734
  457MOL0     H60307  -0.329   4.096   2.286 -1.0856  0.2145  0.6820
  457MOL0     H60308   0.052   3.659   2.395  1.8990  0.5758  2.8089
  457MOL0     H60309   0.285   3.635   2.403  0.4718  0.0405  0.2630
  457MOL0     H60310   1.870   3.517   0.968  0.8743  0.7075 -1.8798
  457MOL0     H60311   2.007   3.328   0.932 -1.1090  0.3760  1.3569
  457MOL0     H60312   2.074   2.880   0.919 -1.9358 -0.8506 -1.8361
  457MOL0     H60313   2.276   2.753   0.915  2.5944 -0.1708 -0.5634
  457MOL0     H60314   2.583   2.723   0.587  0.8712 -0.4086 -0.5921
  457MOL0     H60315   2.434   2.645   0.524  0.0815  1.0060 -0.2568
  457MOL0     H60316   2.489   2.434   0.654  1.9997 -1.5476 -1.1102
  457MOL0     H60317   2.641   2.483   0.585  1.5485  0.3311  0.5880
  457MOL0     H60318   2.551   2.547   0.882 -1.9707 -0.0623 -0.8664
  457MOL0     H60319   2.697   2.615   0.783  1.1510 -1.6901 -6.0318
  457MOL0     H60320   2.650   2.322   0.836 -1.1223  0.7123 -1.5607
  457MOL0     H60321   2.789   2.397   0.757  1.2556 -3.5119  2.7327
  457MOL0     H60322   2.866   2.464   1.177  1.7412 -0.8023 -0.5988
  457MOL0     H60323   2.337   2.840   0.506 -1.8840 -1.2400 -0.0185
  457MOL0     H60324   2.146   2.989   0.508  0.6720  1.3477  1.2041
  458MOL0     O60325   0.582   1.729   2.652 -0.2430  0.1388  0.1336
  458MOL0     C60326   0.644   1.803   2.576  0.6321 -0.2658  0.1642
  458MOL0     O60327   0.759   1.866   2.612  0.1024  0.4560  0.1105
  458MOL0     C60328   0.788   1.861   2.745 -0.5454 -0.6024  0.3151
  458MOL0     C60329   0.717   1.933   2.841  0.4885  0.2053 -0.4966
  458MOL0     C60330   0.755   1.931   2.978 -0.4812  0.4254 -1.1576
  458MOL0     C60331   0.882   1.881   3.011  1.4866 -0.3458  0.2207
  458MOL0     O60332   0.916   1.880   3.143 -0.0380  0.4820 -0.5096
  458MOL0     C60333   1.032   1.819   3.199 -0.2430 -0.6658 -0.0772
  458MOL0     C60334   1.002   1.664   3.225 -0.0118 -0.8169 -0.0605
  458MOL0     C60335   0.887   1.642   3.326 -0.4627 -0.9091 -0.2703
  458MOL0     C60336   0.747   1.663   3.268 -0.1052 -0.9820 -0.5926
  458MOL0     C60337   0.640   1.559   3.308 -0.5581 -0.5347 -0.6143
  458MOL0     C60338   0.634   1.536   3.463  0.1693 -0.0681  1.1926
  458MOL0     C60339   0.599   1.670   3.526  0.3926  0.3153  0.0125
  458MOL0     C60340   0.611   1.669   3.677  0.2428 -0.2502 -1.5277
  458MOL0     N60341   0.562   1.796   3.735 -0.1817  0.3920 -0.4593
  458MOL0     C60342   0.431   1.823   3.762  0.3536  0.0732  0.5657
  458MOL0     C60343   0.431   1.925   3.847 -0.8742  0.4075 -0.3037
  458MOL0     C60344   0.309   1.996   3.910  0.3247 -0.1303 -1.1363
  458MOL0     C60345   0.167   1.927   3.885 -0.4038  0.2634  0.7039
  458MOL0     C60346   0.065   2.017   3.944  0.5235  0.0041 -0.0131
  458MOL0     C60347  -0.061   1.942   3.946 -0.4496 -0.2881  0.6103
  458MOL0     O60348  -0.106   1.917   3.814 -0.2261  0.1089 -0.2598
  458MOL0     C60349  -0.238   1.902   3.801  0.8184  0.3629  0.3326
  458MOL0     C60350  -0.280   1.878   3.669 -0.5990  0.6958 -0.0115
  458MOL0     C60351  -0.415   1.844   3.634 -0.4041 -0.4322 -0.6483
  458MOL0     C60352  -0.508   1.846   3.741 -0.4807  0.2547  0.6004
  458MOL0     C60353  -0.649   1.811   3.711 -0.8330 -0.8130 -0.2342
  458MOL0     O60354  -0.750   1.856   3.790  0.2802  0.0215  0.2082
  458MOL0     C60355  -0.885   1.848   3.760 -0.5500 -0.3500  0.7995
  458MOL0     C60356  -0.950   1.736   3.696  0.6154  0.6832 -0.3184
  458MOL0     C60357  -1.084   1.744   3.676 -0.3398  0.4200 -0.9204
  458MOL0     C60358  -1.155   1.861   3.696 -0.5660  0.6338  0.0851
  458MOL0     O60359  -1.287   1.874   3.675 -0.0539 -0.7614  0.0143
  458MOL0     C60360  -1.356   1.771   3.606 -0.2627 -0.2686 -0.2545
  458MOL0     C60361  -1.472   1.843   3.537  0.0213  0.4108 -0.1331
  458MOL0     C60362  -1.606   1.792   3.582 -0.8281  0.4809 -0.2278
  458MOL0     C60363  -1.716   1.869   3.504  0.5164  0.3894  0.4879
  458MOL0     C60364  -1.850   1.836   3.580 -0.3931  0.2940  0.3707
  458MOL0     C60365  -1.977   1.907   3.514 -0.2547  0.0398 -0.0092
  458MOL0     C60366  -2.093   1.885   3.611  0.3275  0.5928 -0.5513
  458MOL0     C60367  -2.219   1.939   3.551 -0.0505 -0.4247  1.1261
  458MOL0    Cl60368  -2.253   1.864   3.390  0.3304 -0.0592 -0.3935
  458MOL0     C60369  -1.095   1.967   3.759  1.0596  0.3989  0.6692
  458MOL0     C60370  -0.961   1.963   3.785  0.4139  0.2378 -0.7793
  458MOL0     O60371  -0.667   1.744   3.610 -0.0063  0.1469 -0.3917
  458MOL0     C60372  -0.465   1.872   3.874  0.2765  0.2847 -0.0246
  458MOL0     C60373  -0.328   1.896   3.908  0.0158  0.7869  1.1894
  458MOL0     N60374   0.559   1.968   3.859  0.8915  0.4701  0.5175
  458MOL0     N60375   0.635   1.898   3.780 -0.4096  0.7057  0.0543
  458MOL0     C60376   0.951   1.813   2.912 -0.0279 -0.4018  0.3891
  458MOL0     C60377   0.907   1.809   2.778 -1.3885  0.2238 -0.4945
  458MOL0     C60378   0.597   1.809   2.439  0.6377  0.5322 -0.0003
  458MOL0     C60379   0.478   1.752   2.392  0.1570 -0.3297  0.1566
  458MOL0     C60380   0.444   1.780   2.257 -0.3968 -0.0147  0.1112
  458MOL0     C60381   0.515   1.874   2.178  1.0959  0.3370  0.1074
  458MOL0     O60382   0.465   1.898   2.046 -0.4591  0.2240  0.1136
  458MOL0     C60383   0.561   1.964   1.954  0.4434 -0.6254 -0.5186
  458MOL0     C60384   0.495   2.015   1.822 -0.0424  0.9750 -0.0007
  458MOL0     C60385   0.594   2.081   1.722  0.2465 -0.7602 -0.1001
  458MOL0     C60386   0.654   1.990   1.619  0.1023  1.7238  0.5339
  458MOL0     C60387   0.731   1.875   1.678  0.5767 -0.5653 -0.6158
  458MOL0     C60388   0.788   1.777   1.715  0.6043 -0.0182  0.5455
  458MOL0     C60389   0.640   1.922   2.227 -0.3878 -0.0536  0.1101
  458MOL0     C60390   0.679   1.881   2.352  0.0384  0.5619 -1.2522
  458MOL0     H60391   0.632   1.997   2.820 -0.6742 -1.2440 -0.2783
  458MOL0     H60392   0.707   1.986   3.057  0.2853  4.9012 -3.4787
  458MOL0     H60393   1.067   1.864   3.293  0.6998 -2.3461  0.4178
  458MOL0     H60394   1.113   1.828   3.126 -2.3262 -1.4459 -2.6134
  458MOL0     H60395   1.098   1.631   3.265  1.3143  1.2202 -1.3426
  458MOL0     H60396   0.988   1.606   3.133  1.4422 -0.9544 -0.2204
  458MOL0     H60397   0.896   1.694   3.422 -0.3355  2.1192 -1.7787
  458MOL0     H60398   0.895   1.538   3.358 -0.2048 -1.1532 -1.0911
  458MOL0     H60399   0.711   1.764   3.292  1.0045 -0.9568  1.1789
  458MOL0     H60400   0.749   1.660   3.159  0.1675  0.5262 -0.6490
  458MOL0     H60401   0.653   1.456   3.274 -0.7657 -2.8345  5.1840
  458MOL0     H60402   0.539   1.588   3.277 -1.5827 -0.6509  2.2858
  458MOL0     H60403   0.733   1.502   3.494  0.8590 -3.0904 -3.2673
  458MOL0     H60404   0.563   1.457   3.489 -1.4393  0.7228 -0.5376
  458MOL0     H60405   0.674   1.745   3.502  0.2770 -0.5608 -3.6496
  458MOL0     H60406   0.498   1.701   3.500 -0.6453 -1.6088  1.4939
  458MOL0     H60407   0.715   1.647   3.705 -0.4168 -2.6588 -0.6820
  458MOL0     H60408   0.545   1.594   3.722  0.1261 -0.3857 -1.9221
  458MOL0     H60409   0.345   1.780   3.712  1.7534 -1.2852 -0.7656
  458MOL0     H60410   0.302   2.100   3.877  2.2791  0.1029 -0.9736
  458MOL0     H60411   0.317   1.999   4.019  0.3606  0.6248 -1.1548
  458MOL0     H60412   0.161   1.823   3.917 -0.4427  0.3210  0.8868
  458MOL0     H60413   0.147   1.943   3.779 -2.2173  1.4738  1.1755
  458MOL0     H60414   0.080   2.046   4.048  0.0504  4.1430 -0.9341
  458MOL0     H60415   0.065   2.112   3.890 -0.4161 -1.0376 -1.9730
  458MOL0     H60416  -0.124   2.011   4.003 -2.6476 -1.5062 -0.2616
  458MOL0     H60417  -0.050   1.845   3.995  0.5856 -0.3799  0.2396
  458MOL0     H60418  -0.202   1.884   3.593  0.3405  0.3732  0.9111
  458MOL0     H60419  -0.445   1.818   3.533  1.7356 -1.2905 -1.1148
  458MOL0     H60420  -0.909   1.638   3.676 -2.0235 -0.1995 -1.9914
  458MOL0     H60421  -1.134   1.655   3.640  1.1725  0.0982 -2.3115
  458MOL0     H60422  -1.385   1.691   3.675  2.8967 -1.0890  0.2756
  458MOL0     H60423  -1.296   1.728   3.525 -2.7311 -7.7020  1.0921
  458MOL0     H60424  -1.473   1.855   3.429 -0.0827 -0.5380 -0.2470
  458MOL0     H60425  -1.463   1.943   3.579  2.4476 -0.8670  2.8112
  458MOL0     H60426  -1.618   1.801   3.691  1.3511  0.7265  0.0525
  458MOL0     H60427  -1.614   1.686   3.556  0.8221  0.3018 -0.1322
  458MOL0     H60428  -1.686   1.972   3.526  2.4021 -0.3586  1.6287
  458MOL0     H60429  -1.716   1.858   3.396  1.5540 -2.9171  0.7274
  458MOL0     H60430  -1.845   1.865   3.685 -1.1163  3.4281 -0.3606
  458MOL0     H60431  -1.865   1.728   3.563  0.4002  0.1097  0.8276
  458MOL0     H60432  -1.978   1.866   3.413  0.6015 -0.3514  0.1300
  458MOL0     H60433  -1.952   2.013   3.504  3.0748 -0.5777  0.4337
  458MOL0     H60434  -2.097   1.780   3.642  1.2173  0.4254 -0.9694
  458MOL0     H60435  -2.068   1.951   3.695  0.5976 -0.1827 -0.0161
  458MOL0     H60436  -2.218   2.048   3.538 -0.9607 -0.7833 -4.0414
  458MOL0     H60437  -2.298   1.907   3.620 -0.4268  2.0844  1.9896
  458MOL0     H60438  -1.161   2.046   3.793 -2.0426 -2.1926  1.2051
  458MOL0     H60439  -0.909   2.041   3.839  2.0547 -0.3741 -1.4050
  458MOL0     H60440  -0.543   1.857   3.947  0.5561  0.8697  0.3962
  458MOL0     H60441  -0.307   1.894   4.015  0.2977 -4.2441  1.2789
  458MOL0     H60442   1.043   1.761   2.936 -0.5550 -1.2520  0.5857
  458MOL0     H60443   0.974   1.752   2.714  0.2985 -0.2940  1.5956
  458MOL0     H60444   0.422   1.690   2.461 -0.7640 -0.9720 -1.1210
  458MOL0     H60445   0.355   1.731   2.217  0.6976 -2.5173  0.5268
  458MOL0     H60446   0.641   1.892   1.935 -0.7555 -2.2819  0.4157
  458MOL0     H60447   0.608   2.054   1.994 -0.3213 -0.0620 -0.8731
  458MOL0     H60448   0.445   1.934   1.768 -2.7719  2.5760 -0.0515
  458MOL0     H60449   0.421   2.085   1.863  0.9858  2.5116 -0.6679
  458MOL0     H60450   0.681   2.134   1.762  1.6388 -2.1115 -1.1977
  458MOL0     H60451   0.533   2.155   1.671 -2.6977 -2.7970  0.2142
  458MOL0     H60452   0.563   1.958   1.567  1.2957 -1.1012 -0.0057
  458MOL0     H60453   0.721   2.039   1.547  2.5080 -2.1485 -0.1361
  458MOL0     H60454   0.839   1.688   1.747 -0.2201 -0.3776  0.8942
  458MOL0     H60455   0.702   1.985   2.163 -3.4018  1.6444 -1.3610
  458MOL0     H60456   0.772   1.927   2.384 -0.5944  0.5998  0.6969
  459MOL0     O60457  11.367   2.892   2.686 -0.0107 -0.3278  1.2513
  459MOL0     C60458  11.474   2.842   2.696 -0.5305  0.6230 -0.3121
  459MOL0     O60459  11.588   2.904   2.739 -0.2459  0.1503  0.7512
  459MOL0     C60460  11.567   3.028   2.809  0.6696  0.9951 -0.4630
  459MOL0     C60461  11.475   3.051   2.909  0.0847 -0.6727 -0.3117
  459MOL0     C60462  11.461   3.182   2.956  0.7424 -0.2056 -0.6568
  459MOL0     C60463  11.549   3.287   2.913  0.1771  0.1453 -0.8969
  459MOL0     O60464  11.547   3.409   2.971  0.9400 -0.7509 -0.4540
  459MOL0     C60465  11.556   3.413   3.111 -1.4211  0.1766 -0.1408
  459MOL0     C60466  11.502   3.543   3.160  0.6337  0.6295  0.3603
  459MOL0     C60467  11.349   3.530   3.154  0.3996  0.5822 -0.5692
  459MOL0     C60468  11.279   3.584   3.024 -1.9175 -0.5258  0.7218
  459MOL0     C60469  11.137   3.538   3.004  0.1523  0.5368  0.1659
  459MOL0     C60470  11.120   3.385   2.995  0.6458  0.1198 -0.4686
  459MOL0     C60471  10.980   3.367   2.959 -0.2699  0.5517  0.8898
  459MOL0     C60472  10.868   3.427   3.053 -0.0540  0.0337  0.2890
  459MOL0     N60473  10.729   3.389   3.022 -0.5516  0.4921 -0.3004
  459MOL0     C60474  10.664   3.397   2.899  0.0204  0.3309  0.2734
  459MOL0     C60475  10.535   3.362   2.925 -1.0361  0.1499 -0.7296
  459MOL0     C60476  10.436   3.372   2.812 -0.3369  0.0948  0.4659
  459MOL0     C60477  10.332   3.481   2.829 -0.1714  0.0108  0.6257
  459MOL0     C60478  10.256   3.450   2.961  0.8018 -0.0879 -0.6950
  459MOL0     C60479  10.142   3.556   2.981 -0.2142 -0.5956  0.3768
  459MOL0     O60480  10.064   3.553   2.864 -0.2475 -0.4740  0.1823
  459MOL0     C60481   9.926   3.583   2.873 -0.0491  0.4570  0.3677
  459MOL0     C60482   9.869   3.699   2.926  0.2813  0.2020 -0.4736
  459MOL0     C60483   9.725   3.715   2.910 -0.3791 -0.0194 -1.0872
  459MOL0     C60484   9.652   3.647   2.820 -0.4708  1.9661 -0.3854
  459MOL0     C60485   9.519   3.696   2.779  0.9232  0.0838  0.2498
  459MOL0     O60486   9.469   3.790   2.863  0.0551  0.2179  0.4997
  459MOL0     C60487   9.333   3.812   2.873  0.6974 -0.8046  0.7443
  459MOL0     C60488   9.239   3.704   2.899 -0.1736 -0.0668 -0.2641
  459MOL0     C60489   9.105   3.744   2.907  0.4225 -0.1267  0.5741
  459MOL0     C60490   9.065   3.874   2.872  0.7543  1.2475  0.0860
  459MOL0     O60491   8.926   3.895   2.883 -0.2489 -1.0929  1.2437
  459MOL0     C60492   8.858   3.986   2.806  0.7761  0.0537 -0.0090
  459MOL0     C60493   8.712   3.945   2.823  0.0580 -0.0687 -0.8503
  459MOL0     C60494   8.621   4.012   2.726  0.5247  0.1974  0.3947
  459MOL0     C60495   8.488   3.955   2.738 -0.3366 -0.3315 -0.6052
  459MOL0     C60496   8.410   4.016   2.621  0.6522  0.7932 -0.0344
  459MOL0     C60497   8.263   3.978   2.620  0.8815  0.5461  0.2064
  459MOL0     C60498   8.174   4.040   2.515  0.2128  0.5242 -0.0374
  459MOL0     C60499   8.211   4.004   2.367  0.3617  0.4632  0.0206
  459MOL0    Cl60500   8.179   3.835   2.329  0.0553 -0.0917 -0.1474
  459MOL0     C60501   9.162   3.967   2.834  0.2279  0.3755  0.0762
  459MOL0     C60502   9.292   3.941   2.842 -0.9994 -0.0665 -0.3988
  459MOL0     O60503   9.461   3.654   2.676 -0.6618 -0.6600  0.1383
  459MOL0     C60504   9.717   3.530   2.764  0.4810  0.8066  0.0783
  459MOL0     C60505   9.846   3.500   2.794 -0.5275  0.1914 -0.2410
  459MOL0     N60506  10.521   3.331   3.056 -0.6869 -0.1726 -0.5773
  459MOL0     N60507  10.644   3.339   3.113  0.2823 -0.2019  0.3993
  459MOL0     C60508  11.636   3.263   2.804 -0.5322  0.4614 -0.0626
  459MOL0     C60509  11.638   3.133   2.750  0.0402  0.0138 -0.4309
  459MOL0     C60510  11.487   2.694   2.670 -0.1274  0.9511  0.1966
  459MOL0     C60511  11.378   2.608   2.686  0.2849  0.5816  0.5613
  459MOL0     C60512  11.375   2.469   2.641 -1.1339  0.4560  0.1555
  459MOL0     C60513  11.496   2.410   2.604  0.5613 -0.3198  0.3285
  459MOL0     O60514  11.499   2.272   2.569 -0.1839 -0.4329 -0.4576
  459MOL0     C60515  11.503   2.244   2.428  0.5900 -0.2149 -0.6596
  459MOL0     C60516  11.648   2.243   2.381  0.4836  0.2979  0.0900
  459MOL0     C60517  11.736   2.144   2.446 -0.1497 -0.7174 -0.0815
  459MOL0     C60518  11.887   2.174   2.416  0.4229 -0.2542  0.2600
  459MOL0     C60519  11.939   2.296   2.470  0.5395  0.4231 -0.1560
  459MOL0     C60520  11.984   2.397   2.515  0.3961  0.5279  0.2313
  459MOL0     C60521  11.615   2.489   2.613 -0.3671  0.4349  0.2808
  459MOL0     C60522  11.614   2.629   2.643  0.5576  1.3962  0.4801
  459MOL0     H60523  11.416   2.964   2.937 -3.6849  1.7249 -0.0964
  459MOL0     H60524  11.392   3.207   3.036  4.2995  0.3246  2.5760
  459MOL0     H60525  11.661   3.406   3.139 -1.8120  0.7893  1.6601
  459MOL0     H60526  11.527   3.318   3.159  3.7928 -1.1619  0.9945
  459MOL0     H60527  11.548   3.620   3.097 -0.7169  0.1634 -1.2611
  459MOL0     H60528  11.520   3.556   3.267 -3.2203  1.4152  1.0539
  459MOL0     H60529  11.315   3.589   3.239  3.6684  2.1842 -0.1906
  459MOL0     H60530  11.325   3.425   3.174 -0.5898  0.5075 -2.0247
  459MOL0     H60531  11.272   3.694   3.024 -1.7279 -0.4370 -2.1378
  459MOL0     H60532  11.331   3.547   2.936  1.6308  1.4592  1.7580
  459MOL0     H60533  11.091   3.582   2.915 -3.0317 -0.2307  1.2931
  459MOL0     H60534  11.090   3.580   3.092 -1.6318 -0.6612 -0.1575
  459MOL0     H60535  11.137   3.334   3.090  0.2121  1.1868  0.2027
  459MOL0     H60536  11.181   3.337   2.917 -1.2767 -0.4368 -1.6833
  459MOL0     H60537  10.963   3.402   2.857  1.3274 -1.0847 -0.0131
  459MOL0     H60538  10.962   3.259   2.956  0.4034  0.3016 -4.6893
  459MOL0     H60539  10.885   3.534   3.040  1.0776  0.1476  2.1604
  459MOL0     H60540  10.886   3.413   3.161  0.7846  0.1786  0.1769
  459MOL0     H60541  10.702   3.425   2.801 -0.9522  2.0460  0.3552
  459MOL0     H60542  10.391   3.273   2.794  0.7227 -0.3789  0.3272
  459MOL0     H60543  10.489   3.389   2.718  1.7531 -3.2537  0.8590
  459MOL0     H60544  10.263   3.482   2.744  1.3078  0.7097 -0.6220
  459MOL0     H60545  10.383   3.578   2.833  0.8854 -0.5294  0.7645
  459MOL0     H60546  10.210   3.350   2.960 -1.6831  0.9586  0.7117
  459MOL0     H60547  10.319   3.468   3.048 -0.0814 -0.9851  0.1668
  459MOL0     H60548  10.179   3.659   2.992  0.3373 -0.4452 -2.2498
  459MOL0     H60549  10.083   3.533   3.070  2.3981 -3.2528  1.6008
  459MOL0     H60550   9.921   3.768   2.991  1.6706  0.7327 -2.0839
  459MOL0     H60551   9.690   3.798   2.971  0.2876 -0.2925 -0.3066
  459MOL0     H60552   9.253   3.598   2.914 -1.2498 -0.5798 -2.4928
  459MOL0     H60553   9.032   3.666   2.928  0.2612  0.3983  2.1024
  459MOL0     H60554   8.892   3.983   2.703 -0.0937 -0.3400 -0.2959
  459MOL0     H60555   8.880   4.089   2.837 -0.5400 -0.4700  3.1148
  459MOL0     H60556   8.678   3.953   2.927 -0.1827 -2.1416 -0.7292
  459MOL0     H60557   8.707   3.838   2.806  1.2396 -0.1978 -0.4723
  459MOL0     H60558   8.649   4.000   2.621 -2.2146 -0.1612 -0.3668
  459MOL0     H60559   8.630   4.121   2.738 -1.4954  0.1753  3.1373
  459MOL0     H60560   8.495   3.845   2.739 -1.1152 -0.4047  0.8129
  459MOL0     H60561   8.452   3.986   2.837  3.2937 -2.0533  1.4722
  459MOL0     H60562   8.449   3.968   2.531 -2.6327 -0.0108 -1.1820
  459MOL0     H60563   8.421   4.124   2.626  1.5231  0.6787  1.0619
  459MOL0     H60564   8.226   4.003   2.720 -1.2761  1.2563 -0.7006
  459MOL0     H60565   8.245   3.871   2.624  0.6663  0.5589 -0.2921
  459MOL0     H60566   8.066   4.020   2.524 -0.3693  2.9935 -0.7082
  459MOL0     H60567   8.181   4.148   2.535 -0.0955 -0.0486  4.1000
  459MOL0     H60568   8.317   4.025   2.348  0.7292  0.0716  1.5285
  459MOL0     H60569   8.149   4.067   2.302 -2.2407  2.0438  3.7145
  459MOL0     H60570   9.135   4.070   2.814  1.5539  0.3929 -1.8512
  459MOL0     H60571   9.380   3.998   2.815 -0.9499  0.4322  0.7528
  459MOL0     H60572   9.658   3.469   2.697 -1.6513 -0.5818  3.0025
  459MOL0     H60573   9.901   3.425   2.739 -0.0188  0.2157  0.2271
  459MOL0     H60574  11.691   3.347   2.764  0.9382 -0.1476  0.6083
  459MOL0     H60575  11.707   3.113   2.669  0.4873  0.3564 -0.1394
  459MOL0     H60576  11.276   2.640   2.707 -0.9151 -1.8477 -1.1333
  459MOL0     H60577  11.281   2.416   2.645 -0.3487 -0.8639  2.1728
  459MOL0     H60578  11.454   2.326   2.377  1.8079  1.5923  0.9418
  459MOL0     H60579  11.445   2.151   2.421  0.0977  0.0088  0.2814
  459MOL0     H60580  11.649   2.209   2.277  0.8304  1.3650 -0.2641
  459MOL0     H60581  11.685   2.346   2.383  1.4979 -0.0444 -0.4408
  459MOL0     H60582  11.707   2.044   2.415 -0.2394 -0.9296  0.6529
  459MOL0     H60583  11.716   2.141   2.554 -4.7370 -0.2871 -0.7498
  459MOL0     H60584  11.947   2.094   2.461 -0.0326 -1.2901 -0.9284
  459MOL0     H60585  11.891   2.174   2.307 -0.3644  0.9146  0.2160
  459MOL0     H60586  12.026   2.480   2.569 -0.5503  1.0035  0.2709
  459MOL0     H60587  11.711   2.441   2.600 -1.7767 -3.3087  2.3127
  459MOL0     H60588  11.704   2.688   2.631  0.9990  0.4526 -1.3749
  460MOL0     O60589   8.142   2.023   5.304 -0.0121 -0.8280 -1.2748
  460MOL0     C60590   8.170   1.937   5.223 -0.7956 -0.5593  0.2188
  460MOL0     O60591   8.138   1.807   5.234  0.0606 -0.3679 -0.0923
  460MOL0     C60592   8.104   1.761   5.361 -0.5965 -0.3279 -0.1114
  460MOL0     C60593   8.020   1.647   5.350  0.1882 -0.3616 -0.4960
  460MOL0     C60594   7.967   1.581   5.473  0.0577 -0.2914  0.3159
  460MOL0     C60595   7.998   1.621   5.596  0.0808  0.1476 -1.2964
  460MOL0     O60596   7.943   1.544   5.701 -0.7867  0.1405 -0.1974
  460MOL0     C60597   7.805   1.553   5.727  1.0424  0.1517  1.1284
  460MOL0     C60598   7.756   1.682   5.784 -0.1315  0.3602  0.4709
  460MOL0     C60599   7.612   1.664   5.826 -1.1482 -0.2889 -0.5139
  460MOL0     C60600   7.552   1.796   5.892 -0.3238  0.3633  0.2730
  460MOL0     C60601   7.432   1.779   5.984 -0.5316  0.2208 -0.2751
  460MOL0     C60602   7.324   1.668   5.934 -0.0248  0.0323 -0.6872
  460MOL0     C60603   7.203   1.651   6.033 -0.0230  0.2836 -0.0175
  460MOL0     C60604   7.116   1.773   6.050 -0.9267 -0.3763  0.1540
  460MOL0     N60605   7.035   1.795   5.931 -0.0697 -0.4422 -0.3083
  460MOL0     C60606   7.042   1.906   5.843  0.1727  0.7156 -0.2297
  460MOL0     C60607   6.945   1.878   5.753 -0.8924  0.0348  1.0946
  460MOL0     C60608   6.897   1.988   5.663  0.5543  0.5922 -0.6694
  460MOL0     C60609   6.825   1.937   5.541  0.1603 -0.0436  0.6266
  460MOL0     C60610   6.837   2.032   5.420  0.3563  0.1714 -0.2316
  460MOL0     C60611   6.754   2.166   5.432  0.9597 -0.3860 -0.1875
  460MOL0     O60612   6.610   2.160   5.409 -0.0597 -0.5542 -0.4443
  460MOL0     C60613   6.548   2.283   5.427  0.6280  0.4524  0.7460
  460MOL0     C60614   6.520   2.341   5.546  0.2986  0.1473  0.3319
  460MOL0     C60615   6.490   2.477   5.559  0.6477 -0.3195  0.2458
  460MOL0     C60616   6.478   2.556   5.435  0.2350 -0.5333  0.6832
  460MOL0     C60617   6.434   2.697   5.443 -0.4083  0.1346 -0.5743
  460MOL0     O60618   6.460   2.766   5.563 -0.3078 -0.3866 -0.8045
  460MOL0     C60619   6.401   2.878   5.602  0.8023 -0.3379  0.3883
  460MOL0     C60620   6.419   2.915   5.741 -0.9460 -0.1588 -0.6757
  460MOL0     C60621   6.363   3.029   5.791  0.0310 -0.4526  0.5397
  460MOL0     C60622   6.283   3.109   5.715 -0.3401 -0.1990 -0.5924
  460MOL0     O60623   6.200   3.198   5.780  0.2755  0.2083 -0.0340
  460MOL0     C60624   6.162   3.325   5.729 -0.0554  0.5877 -0.6565
  460MOL0     C60625   6.076   3.394   5.832  0.5662 -0.4517  0.0859
  460MOL0     C60626   6.017   3.515   5.766  0.6040  0.2475  0.4066
  460MOL0     C60627   5.878   3.551   5.822 -0.6417 -0.7408  0.4313
  460MOL0     C60628   5.774   3.434   5.807  0.3151  0.1048  0.6550
  460MOL0     C60629   5.629   3.479   5.808 -0.3029  0.0411 -0.2577
  460MOL0     C60630   5.579   3.519   5.947  0.6582 -0.2270 -0.4220
  460MOL0     C60631   5.489   3.412   6.015  0.3644 -0.4620  0.9050
  460MOL0    Cl60632   5.407   3.476   6.169  0.1443 -0.0481  0.0317
  460MOL0     C60633   6.280   3.090   5.582  0.4309 -0.9536  0.9512
  460MOL0     C60634   6.330   2.968   5.523  0.3483 -0.2122 -0.2008
  460MOL0     O60635   6.368   2.739   5.354 -0.3801 -0.3769 -0.0293
  460MOL0     C60636   6.490   2.488   5.303 -0.5103 -1.0420 -1.1669
  460MOL0     C60637   6.517   2.350   5.308 -0.0793 -0.1683 -0.0619
  460MOL0     N60638   6.900   1.747   5.771 -0.4748 -0.2898  0.7068
  460MOL0     N60639   6.963   1.696   5.870  0.1464  0.3697 -0.5296
  460MOL0     C60640   8.075   1.737   5.606  1.1039 -0.5642 -0.2192
  460MOL0     C60641   8.133   1.810   5.498  0.0831 -0.1180 -0.6069
  460MOL0     C60642   8.214   1.977   5.088 -0.2758  0.1188 -0.6714
  460MOL0     C60643   8.255   1.898   4.988 -0.1073  1.5549  0.3298
  460MOL0     C60644   8.306   1.931   4.865  0.2657 -0.6261  0.1047
  460MOL0     C60645   8.313   2.067   4.838 -0.1580  0.1736 -0.5080
  460MOL0     O60646   8.338   2.084   4.702  0.4165 -1.1324 -0.1794
  460MOL0     C60647   8.370   2.217   4.654 -0.3578  0.0444 -0.2418
  460MOL0     C60648   8.423   2.216   4.511  0.5680 -0.1249  0.1112
  460MOL0     C60649   8.481   2.356   4.472 -0.7794 -0.9481 -0.2798
  460MOL0     C60650   8.541   2.337   4.335 -0.1817 -0.2503 -0.1532
  460MOL0     C60651   8.430   2.312   4.240 -0.3593  0.3313 -0.8930
  460MOL0     C60652   8.338   2.305   4.163  0.1582 -0.3851 -0.7067
  460MOL0     C60653   8.264   2.159   4.934 -0.3625  0.4612 -0.0904
  460MOL0     C60654   8.211   2.115   5.057  0.2465  0.7587 -0.0450
  460MOL0     H60655   7.993   1.616   5.250 -0.9340  0.1558 -0.3722
  460MOL0     H60656   7.898   1.505   5.439 -1.7011  2.0356 -1.6993
  460MOL0     H60657   7.780   1.472   5.795 -0.0512 -0.8023 -0.3622
  460MOL0     H60658   7.750   1.541   5.633  1.9435 -0.1415  0.6241
  460MOL0     H60659   7.761   1.761   5.709  2.3480  0.0458  0.2431
  460MOL0     H60660   7.802   1.717   5.877 -2.1756  0.9162  1.3383
  460MOL0     H60661   7.620   1.588   5.904 -1.7856 -2.9460 -2.8611
  460MOL0     H60662   7.543   1.627   5.749 -0.6372 -0.9883 -0.6461
  460MOL0     H60663   7.628   1.844   5.954  1.2571 -1.5607 -0.0581
  460MOL0     H60664   7.534   1.857   5.804  1.2273  1.9245  0.9657
  460MOL0     H60665   7.379   1.875   5.985  0.4037  0.7338  0.7132
  460MOL0     H60666   7.465   1.749   6.083 -0.2758  1.2800 -0.0248
  460MOL0     H60667   7.371   1.572   5.956 -1.4657 -0.2218  1.6534
  460MOL0     H60668   7.301   1.672   5.827 -0.6312 -0.3771 -0.5751
  460MOL0     H60669   7.145   1.563   6.005  1.5513 -0.1934 -1.9123
  460MOL0     H60670   7.239   1.629   6.134 -0.8802 -2.7439 -0.2824
  460MOL0     H60671   7.179   1.860   6.070 -0.3118 -1.1843  1.9957
  460MOL0     H60672   7.051   1.761   6.137  0.4858  3.1438  1.8632
  460MOL0     H60673   7.085   2.004   5.858 -0.4764  0.9326  0.2833
  460MOL0     H60674   6.969   2.069   5.647  1.5724  0.0001  0.7725
  460MOL0     H60675   6.816   2.035   5.720  0.1837 -0.3351 -0.4059
  460MOL0     H60676   6.722   1.927   5.577  1.3155 -1.2802  4.0191
  460MOL0     H60677   6.874   1.844   5.512  2.6417  1.4242 -0.2935
  460MOL0     H60678   6.933   2.048   5.371  1.0346 -3.1011 -0.1705
  460MOL0     H60679   6.778   1.986   5.340 -0.6328  4.6078 -2.3845
  460MOL0     H60680   6.802   2.234   5.361  3.8560  0.5403  2.4335
  460MOL0     H60681   6.786   2.217   5.523  2.1006 -2.2362  0.5034
  460MOL0     H60682   6.533   2.274   5.630  1.7912  1.2140  1.0058
  460MOL0     H60683   6.478   2.518   5.658 -2.5979 -0.9231  0.2075
  460MOL0     H60684   6.457   2.839   5.809 -0.7249 -0.6670 -1.3530
  460MOL0     H60685   6.361   3.046   5.898  1.7944 -0.2168  0.5699
  460MOL0     H60686   6.123   3.300   5.630 -0.5817 -0.8831 -0.1075
  460MOL0     H60687   6.249   3.391   5.723  0.1784  0.4524  0.7607
  460MOL0     H60688   6.135   3.427   5.918  3.2106 -4.5940  0.1425
  460MOL0     H60689   5.992   3.326   5.852 -0.4084  0.3232 -1.2011
  460MOL0     H60690   6.004   3.486   5.661  2.0343  2.4074 -0.4336
  460MOL0     H60691   6.085   3.601   5.763  2.4040 -1.0459 -3.6257
  460MOL0     H60692   5.897   3.559   5.929 -0.5764  0.3872  0.3433
  460MOL0     H60693   5.851   3.644   5.772  3.6704  0.5545  0.1350
  460MOL0     H60694   5.787   3.379   5.901  1.3935 -1.1605 -0.1935
  460MOL0     H60695   5.798   3.373   5.719  2.0703  2.0208 -0.2898
  460MOL0     H60696   5.561   3.398   5.779 -3.3537  1.1002  3.2523
  460MOL0     H60697   5.615   3.560   5.735 -0.5980  1.5529  1.4099
  460MOL0     H60698   5.656   3.546   6.019  0.1464 -0.9086  0.4018
  460MOL0     H60699   5.518   3.610   5.939 -1.9054 -1.9451 -1.8766
  460MOL0     H60700   5.558   3.331   6.039  1.4353 -0.4647 -1.8216
  460MOL0     H60701   5.406   3.393   5.946 -3.3709  0.8642  4.5833
  460MOL0     H60702   6.228   3.166   5.524  1.5291 -2.7500 -2.6463
  460MOL0     H60703   6.319   2.950   5.417  0.1537 -3.4244  0.2779
  460MOL0     H60704   6.480   2.542   5.210 -1.3300  2.1498  0.6236
  460MOL0     H60705   6.523   2.291   5.216  0.7256 -0.2573  0.0421
  460MOL0     H60706   8.095   1.781   5.703 -1.6537 -0.1191  0.2405
  460MOL0     H60707   8.206   1.889   5.512  0.6708 -0.9000  1.0294
  460MOL0     H60708   8.254   1.792   5.015  1.3692  1.1678 -0.9652
  460MOL0     H60709   8.339   1.861   4.790  2.0375  1.0568 -0.7932
  460MOL0     H60710   8.437   2.276   4.718 -1.7449  1.1660  0.2390
  460MOL0     H60711   8.278   2.275   4.670  1.3585  3.1201 -0.6940
  460MOL0     H60712   8.501   2.139   4.502  1.5408  0.8819 -0.3903
  460MOL0     H60713   8.342   2.185   4.445  0.2733  0.6196  0.1146
  460MOL0     H60714   8.545   2.399   4.549  3.0217 -1.9062 -2.6469
  460MOL0     H60715   8.405   2.432   4.455 -1.1937 -1.1046  0.7787
  460MOL0     H60716   8.591   2.430   4.304  0.0242  1.0104  3.5249
  460MOL0     H60717   8.609   2.252   4.334 -1.4708 -1.5112  3.5260
  460MOL0     H60718   8.254   2.301   4.096 -0.8970 -1.6822  0.6328
  460MOL0     H60719   8.276   2.265   4.912 -0.4591  0.7018  0.9384
  460MOL0     H60720   8.154   2.184   5.118  2.1542  2.8938 -0.5403
  461MOL0     O60721   9.299   5.147  11.382 -0.4907 -0.6777 -0.5772
  461MOL0     C60722   9.403   5.113  11.333 -0.1253 -0.5860  0.7613
  461MOL0     O60723   9.435   4.993  11.276 -0.4682  0.7667  0.3080
  461MOL0     C60724   9.345   4.894  11.256 -0.2668  0.4068 -0.2616
  461MOL0     C60725   9.294   4.862  11.132 -1.1506  0.1450 -0.5404
  461MOL0     C60726   9.184   4.774  11.127 -0.9520 -0.0243  0.5178
  461MOL0     C60727   9.124   4.709  11.243 -1.0637  0.8658  1.2302
  461MOL0     O60728   9.017   4.614  11.241 -0.2158  0.2052  0.5152
  461MOL0     C60729   9.019   4.525  11.121  0.5748 -0.3958 -0.0255
  461MOL0     C60730   8.926   4.412  11.170  0.4576 -0.8220 -0.2099
  461MOL0     C60731   8.907   4.292  11.071  0.4970 -0.9570  0.3721
  461MOL0     C60732   9.034   4.214  11.033  0.1149 -0.1482  0.1325
  461MOL0     C60733   9.124   4.182  11.146 -0.2069 -0.0099 -0.5034
  461MOL0     C60734   9.245   4.103  11.087 -0.1641  0.0432 -0.8551
  461MOL0     C60735   9.326   4.040  11.198  0.1989 -1.3618 -0.5432
  461MOL0     C60736   9.249   3.916  11.260  0.6433 -0.0113 -0.5116
  461MOL0     N60737   9.333   3.848  11.352 -0.4783 -0.2065 -0.4359
  461MOL0     C60738   9.454   3.786  11.325  0.5609 -0.1572 -0.5211
  461MOL0     C60739   9.502   3.754  11.446  0.1038 -0.3053  0.7011
  461MOL0     C60740   9.623   3.689  11.501  0.1200  0.3876 -0.2346
  461MOL0     C60741   9.611   3.539  11.488 -1.0876  1.0493 -0.1968
  461MOL0     C60742   9.523   3.463  11.598 -0.4142  1.1201  0.6929
  461MOL0     C60743   9.547   3.305  11.596 -0.4139 -0.4970 -0.4861
  461MOL0     O60744   9.490   3.258  11.475 -0.4633 -0.6624 -0.4041
  461MOL0     C60745   9.503   3.125  11.446 -0.6060 -0.1382 -0.9230
  461MOL0     C60746   9.479   3.077  11.318 -0.5824  1.0111  0.5759
  461MOL0     C60747   9.500   2.944  11.279  0.1614 -0.5268  0.3645
  461MOL0     C60748   9.544   2.856  11.373 -0.3995 -0.4095 -0.4031
  461MOL0     C60749   9.573   2.713  11.332 -0.2040 -0.2743 -0.3109
  461MOL0     O60750   9.579   2.691  11.201  0.1586 -0.1517  1.5618
  461MOL0     C60751   9.609   2.551  11.173 -0.7533 -0.2768 -0.2035
  461MOL0     C60752   9.501   2.470  11.173 -0.2622 -0.2559 -0.2025
  461MOL0     C60753   9.517   2.335  11.158  0.5276  0.1087  0.0405
  461MOL0     C60754   9.634   2.287  11.110 -0.7697 -0.1058 -0.1220
  461MOL0     O60755   9.665   2.155  11.073 -0.2376 -0.9749 -0.5663
  461MOL0     C60756   9.575   2.040  11.095  0.1106  0.3194  0.6322
  461MOL0     C60757   9.479   2.012  10.974  0.0451 -0.2827 -0.7128
  461MOL0     C60758   9.453   1.858  10.958  0.2435 -0.1364  0.5418
  461MOL0     C60759   9.576   1.782  10.907  0.6295 -0.5783 -0.5125
  461MOL0     C60760   9.556   1.623  10.888 -0.6374 -0.4481  0.1914
  461MOL0     C60761   9.439   1.562  10.811  0.4203  0.5451 -0.6872
  461MOL0     C60762   9.411   1.619  10.667  1.0585  0.2264 -0.9140
  461MOL0     C60763   9.363   1.509  10.569  0.1059 -1.0643 -0.8158
  461MOL0    Cl60764   9.503   1.404  10.535  0.3412 -0.0956  0.0578
  461MOL0     C60765   9.741   2.371  11.100 -0.5221 -0.8971 -0.6247
  461MOL0     C60766   9.729   2.510  11.140 -0.5716  0.4736  0.1395
  461MOL0     O60767   9.582   2.623  11.424  0.1404 -0.4334  0.4524
  461MOL0     C60768   9.558   2.891  11.508 -0.4710  0.4287 -0.0084
  461MOL0     C60769   9.537   3.024  11.551  0.9279 -0.1664 -0.2681
  461MOL0     N60770   9.411   3.789  11.544 -0.3579  0.0440  0.6374
  461MOL0     N60771   9.309   3.848  11.486 -0.1061  0.7164 -0.6317
  461MOL0     C60772   9.181   4.743  11.372  0.4760 -0.1378  0.0227
  461MOL0     C60773   9.294   4.824  11.368 -0.1434  0.1568 -0.1040
  461MOL0     C60774   9.509   5.204  11.321 -1.4047 -0.7056 -0.1923
  461MOL0     C60775   9.482   5.343  11.345 -0.7056  0.5374 -0.0973
  461MOL0     C60776   9.585   5.440  11.352  0.2516 -0.1621 -0.7038
  461MOL0     C60777   9.716   5.399  11.341  0.1348 -0.0256  0.7050
  461MOL0     O60778   9.808   5.495  11.342  0.6517  0.0807  0.4997
  461MOL0     C60779   9.927   5.473  11.420 -0.4108 -0.8444  0.0496
  461MOL0     C60780  10.009   5.604  11.432  0.6193  0.7385 -1.2979
  461MOL0     C60781  10.094   5.605  11.555  0.2944  0.1231 -0.4270
  461MOL0     C60782  10.190   5.716  11.560  0.3313 -0.2733  1.0220
  461MOL0     C60783  10.122   5.847  11.569  0.0219 -0.3659 -0.2583
  461MOL0     C60784  10.093   5.967  11.579 -0.4656  0.6413  0.8656
  461MOL0     C60785   9.743   5.265  11.328 -0.1604 -0.2987 -0.4335
  461MOL0     C60786   9.647   5.165  11.308 -0.5219 -1.5395 -0.2212
  461MOL0     H60787   9.326   4.915  11.042 -1.4846  0.1333 -0.6679
  461MOL0     H60788   9.141   4.753  11.029  0.3159  1.0190 -0.3077
  461MOL0     H60789   9.111   4.492  11.072 -0.6694  1.7267 -4.3794
  461MOL0     H60790   8.953   4.573  11.048 -2.0569  0.3182  2.6679
  461MOL0     H60791   8.827   4.458  11.173  1.2273  1.3717 -3.4722
  461MOL0     H60792   8.966   4.372  11.264  0.1513 -0.4498  0.0854
  461MOL0     H60793   8.857   4.331  10.982  2.1381 -0.1253 -0.2335
  461MOL0     H60794   8.833   4.227  11.117  0.7016  0.0274  2.1882
  461MOL0     H60795   9.003   4.113  11.004  3.1329 -1.6421  1.6699
  461MOL0     H60796   9.081   4.275  10.955 -1.7279 -0.1172 -1.0118
  461MOL0     H60797   9.079   4.125  11.228  0.2722  0.7981  0.3449
  461MOL0     H60798   9.162   4.272  11.195  2.1731 -0.8674 -0.6472
  461MOL0     H60799   9.304   4.170  11.025  1.0326  0.8329  1.0635
  461MOL0     H60800   9.204   4.015  11.035 -2.4197 -1.8365  3.5519
  461MOL0     H60801   9.419   4.015  11.148  0.8118 -0.6161  0.1977
  461MOL0     H60802   9.360   4.112  11.273  1.9184 -2.6689 -0.0148
  461MOL0     H60803   9.207   3.853  11.182  0.0474 -0.7966  0.4166
  461MOL0     H60804   9.160   3.950  11.315  0.1981 -2.3104  0.3014
  461MOL0     H60805   9.505   3.768  11.231 -0.8058  1.4138 -1.6318
  461MOL0     H60806   9.652   3.718  11.602  1.9351  1.9618 -1.1362
  461MOL0     H60807   9.709   3.721  11.441  0.9598 -0.7622  0.3204
  461MOL0     H60808   9.711   3.497  11.480 -2.5359 -2.8202 -0.2127
  461MOL0     H60809   9.561   3.524  11.392 -0.8753 -0.6841 -0.0617
  461MOL0     H60810   9.550   3.498  11.698 -0.2917  1.6854  0.4624
  461MOL0     H60811   9.418   3.487  11.580  0.2891  3.3540 -0.8507
  461MOL0     H60812   9.517   3.249  11.685  1.6138 -2.0907 -0.7318
  461MOL0     H60813   9.653   3.278  11.591 -0.4240 -0.3460 -3.3751
  461MOL0     H60814   9.446   3.140  11.236  3.0045 -1.1233 -2.8535
  461MOL0     H60815   9.463   2.906  11.183  1.9472 -3.3890  0.6835
  461MOL0     H60816   9.399   2.503  11.192  0.5052  0.1874  4.1774
  461MOL0     H60817   9.434   2.266  11.171  0.5967 -0.5512 -2.5768
  461MOL0     H60818   9.525   2.056  11.191 -0.9968  1.3669 -0.0865
  461MOL0     H60819   9.638   1.951  11.105  0.1859  0.2969 -0.0156
  461MOL0     H60820   9.529   2.053  10.885 -0.0163  0.9893 -0.1841
  461MOL0     H60821   9.388   2.067  10.997  0.1522 -0.4661  0.1960
  461MOL0     H60822   9.363   1.856  10.895  0.3279  2.8184  0.1774
  461MOL0     H60823   9.412   1.816  11.050  1.9071 -4.1417 -0.3431
  461MOL0     H60824   9.592   1.836  10.813 -0.0627 -0.3948 -0.5309
  461MOL0     H60825   9.662   1.800  10.972  1.0845  1.6978 -1.6381
  461MOL0     H60826   9.576   1.571  10.982  2.4943  1.9284  1.0085
  461MOL0     H60827   9.641   1.608  10.820  0.1279  2.0366  0.4826
  461MOL0     H60828   9.350   1.570  10.874  1.0860  1.3045  0.1907
  461MOL0     H60829   9.469   1.457  10.808  2.3772  1.0865 -2.3814
  461MOL0     H60830   9.326   1.686  10.687 -0.4468 -2.0869  1.0900
  461MOL0     H60831   9.495   1.676  10.628  1.5480 -0.2605 -0.5972
  461MOL0     H60832   9.336   1.556  10.474  1.0117  3.5052  0.9782
  461MOL0     H60833   9.279   1.455  10.614 -0.1806 -0.1024 -0.1818
  461MOL0     H60834   9.835   2.329  11.067 -0.7882 -0.7481 -1.6067
  461MOL0     H60835   9.810   2.581  11.127  0.0867 -0.0542  1.2652
  461MOL0     H60836   9.579   2.819  11.587  0.1767 -1.3142 -1.7036
  461MOL0     H60837   9.535   3.038  11.658  2.8995  0.1156 -0.2434
  461MOL0     H60838   9.161   4.701  11.470 -0.1899  2.0923  0.8903
  461MOL0     H60839   9.343   4.848  11.462 -1.7034  1.5425  0.4281
  461MOL0     H60840   9.382   5.373  11.371  0.5835  4.6351  0.7842
  461MOL0     H60841   9.576   5.546  11.369 -1.4073 -0.4268  0.3100
  461MOL0     H60842   9.989   5.396  11.373 -0.0429 -2.0038  2.2986
  461MOL0     H60843   9.894   5.455  11.522 -1.3132  2.8106  0.5649
  461MOL0     H60844  10.074   5.622  11.345  1.3410 -2.0161 -1.4017
  461MOL0     H60845   9.940   5.688  11.444 -1.3075 -0.6928 -1.9220
  461MOL0     H60846  10.155   5.514  11.553 -0.9495 -0.7341 -1.6123
  461MOL0     H60847  10.051   5.592  11.655  4.3160 -1.0777  1.3319
  461MOL0     H60848  10.254   5.694  11.646 -0.0128 -1.9575  0.8828
  461MOL0     H60849  10.251   5.714  11.469 -0.7852 -1.6911  0.2533
  461MOL0     H60850  10.084   6.073  11.573  0.0744  0.6331 -3.8471
  461MOL0     H60851   9.843   5.223  11.318  0.1359  0.0504  0.8409
  461MOL0     H60852   9.682   5.064  11.324 -1.1984 -1.7528 -0.0680
  462MOL0     O60853   5.857   2.590   4.589 -0.1376  0.3826  0.6693
  462MOL0     C60854   5.860   2.603   4.712 -0.4334 -1.2851 -0.5521
  462MOL0     O60855   5.940   2.542   4.799 -0.3834 -0.8123  0.0721
  462MOL0     C60856   6.039   2.466   4.739  0.1758  0.0002 -0.4397
  462MOL0     C60857   6.144   2.533   4.680 -0.1135  0.1805  0.1395
  462MOL0     C60858   6.260   2.468   4.625 -0.3156  0.4801  0.5018
  462MOL0     C60859   6.279   2.324   4.634  0.1699  0.4845  0.2298
  462MOL0     O60860   6.387   2.258   4.591  0.5326 -0.0787 -0.1109
  462MOL0     C60861   6.514   2.328   4.560  0.0061  0.2791  0.1329
  462MOL0     C60862   6.498   2.386   4.419  0.0783 -0.3373 -0.3516
  462MOL0     C60863   6.566   2.515   4.384 -0.0195 -0.0918 -0.8589
  462MOL0     C60864   6.562   2.551   4.237 -1.0688  0.0571 -0.3081
  462MOL0     C60865   6.574   2.713   4.224  0.5551 -0.0062  0.6669
  462MOL0     C60866   6.562   2.753   4.079  0.0511  0.4296 -0.1005
  462MOL0     C60867   6.646   2.880   4.050 -0.5106 -0.4923 -0.4580
  462MOL0     C60868   6.607   3.017   4.117 -0.5037 -0.5757  0.4532
  462MOL0     N60869   6.468   3.064   4.088  0.4968  0.6757  0.0494
  462MOL0     C60870   6.364   2.998   4.138  0.7692  0.0407  0.6190
  462MOL0     C60871   6.263   3.057   4.067  0.6789  0.1615  0.5597
  462MOL0     C60872   6.117   3.028   4.081  0.1342 -0.5420 -0.4285
  462MOL0     C60873   6.052   3.009   3.951 -0.4539 -0.3008  0.9316
  462MOL0     C60874   5.988   2.875   3.946  0.2640 -0.0508  0.2803
  462MOL0     C60875   5.907   2.846   3.823  0.3608 -0.2386  0.3382
  462MOL0     O60876   5.827   2.727   3.852  0.0378  0.0146  0.3819
  462MOL0     C60877   5.696   2.725   3.818  0.2557  0.2277  0.3331
  462MOL0     C60878   5.593   2.662   3.901 -0.3198 -0.3828 -0.3120
  462MOL0     C60879   5.457   2.664   3.869 -0.6711 -0.1914 -0.3990
  462MOL0     C60880   5.417   2.718   3.740  0.0634 -0.0603  0.1673
  462MOL0     C60881   5.275   2.720   3.695  0.6253 -0.3825 -1.7996
  462MOL0     O60882   5.189   2.697   3.802  0.6969 -0.0626  0.0973
  462MOL0     C60883   5.059   2.742   3.782 -0.2280  0.1055 -0.0838
  462MOL0     C60884   4.945   2.666   3.817  1.0640 -0.3694  0.2239
  462MOL0     C60885   4.816   2.720   3.817  0.0429  0.2648 -0.2622
  462MOL0     C60886   4.793   2.849   3.766  0.3153 -0.6057  0.0310
  462MOL0     O60887   4.669   2.901   3.768  0.6562 -0.2661 -0.3926
  462MOL0     C60888   4.563   2.822   3.724  0.9449 -0.0957 -0.0306
  462MOL0     C60889   4.454   2.923   3.721  0.3643 -0.8027 -1.1882
  462MOL0     C60890   4.308   2.868   3.714 -0.2823 -0.8507  0.2783
  462MOL0     C60891   4.206   2.980   3.755  0.6802  0.7876 -0.4674
  462MOL0     C60892   4.051   2.942   3.749 -0.5584 -0.2330 -0.3256
  462MOL0     C60893   3.993   2.950   3.607 -0.3698 -0.0278  0.4514
  462MOL0     C60894   3.949   3.092   3.565 -1.3021 -0.2819  0.9264
  462MOL0     C60895   3.913   3.093   3.411 -0.8341  0.8893 -1.1782
  462MOL0    Cl60896   4.038   3.030   3.294  0.2308  0.4717  0.2651
  462MOL0     C60897   4.908   2.930   3.731  1.4998 -0.0531 -0.2674
  462MOL0     C60898   5.040   2.874   3.735 -0.0433  0.5478  0.2544
  462MOL0     O60899   5.243   2.745   3.579 -0.2734 -0.1121 -0.2082
  462MOL0     C60900   5.518   2.770   3.650 -0.7498  1.0278 -0.5581
  462MOL0     C60901   5.646   2.779   3.699 -0.6807  0.5675  0.2122
  462MOL0     N60902   6.310   3.153   3.981 -0.4431  0.3490 -0.3581
  462MOL0     N60903   6.438   3.160   3.997 -0.3126 -0.0757  0.1352
  462MOL0     C60904   6.170   2.251   4.696  0.0436 -0.3953 -0.4519
  462MOL0     C60905   6.057   2.322   4.750  0.1627  0.2941 -0.1504
  462MOL0     C60906   5.759   2.689   4.771 -0.2060  0.0207  0.0853
  462MOL0     C60907   5.652   2.730   4.688  0.3116 -0.3345  0.6465
  462MOL0     C60908   5.539   2.784   4.729  1.0851 -0.2049 -0.2910
  462MOL0     C60909   5.523   2.808   4.868 -0.0494 -1.2532  0.1281
  462MOL0     O60910   5.412   2.862   4.929  0.0136  0.6825  0.8015
  462MOL0     C60911   5.287   2.866   4.864 -0.0391 -0.6669  0.9348
  462MOL0     C60912   5.285   2.996   4.780  0.8649  0.1027  0.0708
  462MOL0     C60913   5.174   2.997   4.678  0.5589  0.3336 -0.5979
  462MOL0     C60914   5.160   3.130   4.599 -0.7932 -0.5956  0.2074
  462MOL0     C60915   5.042   3.136   4.518  0.8193  0.0604 -0.7447
  462MOL0     C60916   4.951   3.127   4.430 -0.6097  0.6643  0.0267
  462MOL0     C60917   5.619   2.766   4.959  0.7172  0.5994  0.2755
  462MOL0     C60918   5.738   2.712   4.907  0.6255 -0.3093 -0.8213
  462MOL0     H60919   6.127   2.640   4.671 -0.8752 -0.0091 -0.7986
  462MOL0     H60920   6.339   2.526   4.579  2.1824 -3.8417 -1.3294
  462MOL0     H60921   6.596   2.258   4.577 -0.0275  0.2099  0.0065
  462MOL0     H60922   6.525   2.400   4.643 -0.2689 -0.6171  0.9662
  462MOL0     H60923   6.392   2.400   4.393  0.2001 -0.8742 -1.2113
  462MOL0     H60924   6.518   2.307   4.345  0.7964 -1.1753  0.7171
  462MOL0     H60925   6.670   2.504   4.416  0.2661  2.6064 -0.6361
  462MOL0     H60926   6.528   2.599   4.444  1.5661 -0.2870  0.4843
  462MOL0     H60927   6.641   2.490   4.192 -0.3594  1.2572 -0.7398
  462MOL0     H60928   6.468   2.509   4.203 -2.3978  2.2992  0.3600
  462MOL0     H60929   6.676   2.735   4.255  1.1366 -1.7737  0.1472
  462MOL0     H60930   6.498   2.765   4.281  0.2358 -0.9443  1.1183
  462MOL0     H60931   6.458   2.765   4.045  0.2411  0.3690 -0.7193
  462MOL0     H60932   6.605   2.670   4.021 -0.1987  0.1955  0.0469
  462MOL0     H60933   6.754   2.865   4.061  0.0510  1.8819 -1.9160
  462MOL0     H60934   6.648   2.885   3.940 -0.0270 -1.2049 -0.4894
  462MOL0     H60935   6.683   3.088   4.082  0.0018 -1.1800  0.3037
  462MOL0     H60936   6.636   3.007   4.222  0.8052  2.4678  0.4849
  462MOL0     H60937   6.370   2.928   4.220  1.6351 -0.3513  0.2455
  462MOL0     H60938   6.063   3.116   4.119  2.3236  0.4885  0.4484
  462MOL0     H60939   6.102   2.948   4.155  0.1335  1.1701  1.5041
  462MOL0     H60940   6.121   3.022   3.867 -1.8264  0.5756 -0.1039
  462MOL0     H60941   5.977   3.086   3.927 -0.6333 -1.6595 -4.1333
  462MOL0     H60942   6.072   2.810   3.971  0.7221 -0.0239 -1.1315
  462MOL0     H60943   5.919   2.861   4.030  1.2346 -0.3817  1.0442
  462MOL0     H60944   5.980   2.832   3.743  2.2101 -0.0538  1.9117
  462MOL0     H60945   5.844   2.926   3.782 -0.8853 -1.9521 -1.2121
  462MOL0     H60946   5.622   2.611   3.993 -1.5358  2.7532  1.9975
  462MOL0     H60947   5.385   2.605   3.926 -1.0314 -0.6183 -1.2593
  462MOL0     H60948   4.957   2.568   3.862  1.8803 -0.0049  0.8161
  462MOL0     H60949   4.729   2.662   3.846 -0.0942  1.5998  2.2899
  462MOL0     H60950   4.539   2.731   3.782  0.5266 -0.9894 -1.5534
  462MOL0     H60951   4.572   2.785   3.622 -0.3005 -2.3193  0.5936
  462MOL0     H60952   4.480   3.001   3.649  1.0079  1.1123  1.0141
  462MOL0     H60953   4.468   2.957   3.824 -0.0068 -0.3839 -1.2713
  462MOL0     H60954   4.296   2.780   3.778  0.0722 -2.3817 -1.6400
  462MOL0     H60955   4.280   2.822   3.618 -1.4722  0.4088 -0.0073
  462MOL0     H60956   4.226   3.006   3.860 -1.3168 -2.1721  0.8005
  462MOL0     H60957   4.221   3.069   3.694  1.9215  0.3494 -0.8253
  462MOL0     H60958   3.997   3.002   3.823  1.2540 -2.1264  2.7418
  462MOL0     H60959   4.039   2.838   3.778 -1.3168  0.1511  0.7957
  462MOL0     H60960   3.906   2.883   3.601 -1.1205  0.9860 -0.2926
  462MOL0     H60961   4.070   2.921   3.534 -0.2268  1.6439 -0.0952
  462MOL0     H60962   3.860   3.127   3.618 -0.7724  0.0490  1.6069
  462MOL0     H60963   4.012   3.177   3.592  0.9849 -1.7219  0.4261
  462MOL0     H60964   3.900   3.199   3.390 -3.0631  0.8855 -0.0199
  462MOL0     H60965   3.816   3.044   3.402 -2.2565  2.7729  2.1284
  462MOL0     H60966   4.900   3.035   3.707  0.8260 -0.2407 -0.9077
  462MOL0     H60967   5.125   2.934   3.705 -0.4393  1.2481  0.5099
  462MOL0     H60968   5.467   2.820   3.568 -2.3505  3.2659  1.6336
  462MOL0     H60969   5.724   2.830   3.644  0.8769 -1.4266  0.4594
  462MOL0     H60970   6.183   2.144   4.706  5.0703  0.0980  1.2349
  462MOL0     H60971   5.982   2.258   4.795 -1.2317 -0.2451 -3.0175
  462MOL0     H60972   5.665   2.723   4.581  4.0684  1.1163  0.8611
  462MOL0     H60973   5.454   2.805   4.664 -0.3408 -0.4979  1.3918
  462MOL0     H60974   5.205   2.865   4.936  0.0814 -3.6164  1.1389
  462MOL0     H60975   5.277   2.782   4.794 -2.1276 -1.4614  2.0970
  462MOL0     H60976   5.268   3.084   4.842  1.5082  0.0078  0.3932
  462MOL0     H60977   5.378   3.017   4.728  0.4131  1.8261 -0.1038
  462MOL0     H60978   5.077   2.975   4.724 -0.1980  1.9465 -1.3178
  462MOL0     H60979   5.193   2.916   4.607  0.9086 -0.1290  0.0237
  462MOL0     H60980   5.155   3.207   4.676 -2.6245 -1.8095  1.3787
  462MOL0     H60981   5.247   3.138   4.533 -0.9912 -4.7019 -0.8523
  462MOL0     H60982   4.890   3.113   4.343  0.8565  0.3587 -0.9824
  462MOL0     H60983   5.602   2.780   5.065 -3.3567  0.5426 -0.1943
  462MOL0     H60984   5.817   2.686   4.976  0.3680 -0.3923 -0.5572
  463MOL0     O60985   6.109   7.108   2.689  0.1601  0.3307  0.1277
  463MOL0     C60986   6.112   7.057   2.803 -0.2333  0.1536  0.7750
  463MOL0     O60987   6.215   6.988   2.852  0.1072 -0.1324  0.5818
  463MOL0     C60988   6.347   7.025   2.825  0.4517 -0.3908  0.0535
  463MOL0     C60989   6.379   7.154   2.777 -0.6098  0.1079 -0.4035
  463MOL0     C60990   6.516   7.189   2.759  0.3537 -0.3865  0.2591
  463MOL0     C60991   6.618   7.095   2.777 -0.9264  0.8164 -0.1144
  463MOL0     O60992   6.753   7.116   2.743  0.1223 -0.1451  0.0561
  463MOL0     C60993   6.787   7.241   2.673  0.0756 -0.7372 -0.5294
  463MOL0     C60994   6.939   7.276   2.702  0.1803 -0.4743  0.1798
  463MOL0     C60995   6.991   7.400   2.628  0.3295 -0.7080  0.5375
  463MOL0     C60996   7.139   7.424   2.679  0.8581 -0.4391 -0.9927
  463MOL0     C60997   7.189   7.550   2.606 -0.3624  0.1820 -0.5942
  463MOL0     C60998   7.338   7.593   2.635  0.5761  0.6244  0.2217
  463MOL0     C60999   7.375   7.716   2.553  0.3955  0.0580  0.6580
  463MOL0     C61000   7.529   7.726   2.541  0.3469 -0.1935 -0.5416
  463MOL0     N61001   7.606   7.755   2.661  0.3462  0.1458  0.0858
  463MOL0     C61002   7.713   7.683   2.726  0.6487  0.3412  0.8373
  463MOL0     C61003   7.736   7.744   2.843  0.0042 -0.0651  0.6095
  463MOL0     C61004   7.847   7.710   2.939  0.0973 -0.3493 -0.2788
  463MOL0     C61005   7.911   7.823   3.024  0.0356 -0.1403 -0.4240
  463MOL0     C61006   7.999   7.908   2.942  0.9421 -0.8109 -0.2036
  463MOL0     C61007   8.061   8.026   3.023  0.2905  0.0166 -0.2733
  463MOL0     O61008   8.177   7.977   3.090 -0.1980 -0.6599 -0.1938
  463MOL0     C61009   8.293   8.038   3.066 -0.8624  0.0929  0.4088
  463MOL0     C61010   8.352   8.108   3.169 -0.1459  0.0351 -0.4803
  463MOL0     C61011   8.471   8.173   3.147 -0.1616 -0.4149  0.8449
  463MOL0     C61012   8.543   8.165   3.030  0.5552 -0.2259 -0.3025
  463MOL0     C61013   8.663   8.241   3.006  0.0888  0.3026  0.2925
  463MOL0     O61014   8.719   8.207   2.877  0.1354  0.1840 -0.3255
  463MOL0     C61015   8.842   8.251   2.827 -0.4915 -0.2995 -0.3881
  463MOL0     C61016   8.907   8.364   2.884  0.8397 -0.6712  0.4184
  463MOL0     C61017   9.031   8.406   2.831  0.1290 -0.8485 -0.2554
  463MOL0     C61018   9.105   8.341   2.731 -0.0566  0.0276  0.1037
  463MOL0     O61019   9.233   8.368   2.683  0.1909 -0.2691  0.2998
  463MOL0     C61020   9.330   8.339   2.781 -0.0653  0.4942 -0.3855
  463MOL0     C61021   9.475   8.364   2.742  0.4044 -0.1002 -0.2473
  463MOL0     C61022   9.502   8.289   2.612  0.6773  0.1553 -0.6978
  463MOL0     C61023   9.642   8.333   2.561 -0.3399  0.4032  0.2577
  463MOL0     C61024   9.761   8.273   2.640  0.5864  0.2445  0.7310
  463MOL0     C61025   9.900   8.343   2.603  0.6437 -0.3585 -1.1719
  463MOL0     C61026   9.929   8.355   2.457  0.0393 -0.0614  0.3327
  463MOL0     C61027  10.063   8.411   2.425 -0.3926  0.0166 -0.6470
  463MOL0    Cl61028  10.166   8.271   2.387 -0.6602  0.0013 -0.5537
  463MOL0     C61029   9.030   8.239   2.672  0.4000  1.2557 -0.0292
  463MOL0     C61030   8.896   8.198   2.712  0.9952  0.1317  0.5934
  463MOL0     O61031   8.712   8.306   3.098 -0.0949  0.0538  0.3061
  463MOL0     C61032   8.485   8.080   2.921  0.5974  0.8825 -0.4103
  463MOL0     C61033   8.356   8.024   2.934 -0.1323 -0.1539 -1.6938
  463MOL0     N61034   7.656   7.849   2.846 -0.9941  0.5534 -0.0643
  463MOL0     N61035   7.579   7.863   2.740  0.1974 -0.7394  0.4099
  463MOL0     C61036   6.585   6.979   2.831  0.0762 -0.5161 -0.1830
  463MOL0     C61037   6.454   6.944   2.859  0.3969 -0.1536  0.7103
  463MOL0     C61038   5.989   7.070   2.885  0.2458  0.3377 -0.3369
  463MOL0     C61039   5.983   7.000   3.006  0.0478 -0.3605 -0.5596
  463MOL0     C61040   5.867   7.004   3.086  0.4352  0.3894 -0.9426
  463MOL0     C61041   5.750   7.078   3.050 -0.3496 -0.5435 -0.4712
  463MOL0     O61042   5.646   7.112   3.127 -0.0843 -0.1058 -1.0704
  463MOL0     C61043   5.622   7.013   3.229 -0.0951  0.8592  0.4104
  463MOL0     C61044   5.471   7.009   3.275  0.1925  1.0228  0.4665
  463MOL0     C61045   5.453   6.896   3.380 -0.1162  0.4642 -0.1753
  463MOL0     C61046   5.312   6.861   3.423 -0.2335 -0.3229  0.3932
  463MOL0     C61047   5.314   6.789   3.551 -0.6158  0.0112  0.3908
  463MOL0     C61048   5.324   6.722   3.655  0.4563  0.1771 -0.1218
  463MOL0     C61049   5.754   7.137   2.918 -0.0068  0.9454 -0.3528
  463MOL0     C61050   5.873   7.137   2.846  0.3103  0.2234  0.6381
  463MOL0     H61051   6.293   7.216   2.757 -1.2351 -0.2974  0.9823
  463MOL0     H61052   6.540   7.286   2.717  1.6545 -0.8164 -0.0348
  463MOL0     H61053   6.730   7.328   2.706  0.0755 -0.5671 -0.9733
  463MOL0     H61054   6.770   7.231   2.565 -0.1729  1.2460 -0.7038
  463MOL0     H61055   6.998   7.187   2.678  1.7568 -0.3127  2.9252
  463MOL0     H61056   6.953   7.289   2.810 -1.1896 -1.4300  0.4917
  463MOL0     H61057   6.931   7.489   2.646  2.1131 -0.1708  5.4363
  463MOL0     H61058   6.992   7.361   2.526 -0.4507 -2.5531  1.1908
  463MOL0     H61059   7.134   7.442   2.787 -2.4881  0.2306 -1.1502
  463MOL0     H61060   7.188   7.329   2.660 -0.9708 -2.4584  3.0545
  463MOL0     H61061   7.120   7.633   2.627  1.8925  1.7803  1.0038
  463MOL0     H61062   7.180   7.524   2.500 -1.9670 -2.3623  0.0783
  463MOL0     H61063   7.403   7.514   2.596  0.0790  0.0288  0.5934
  463MOL0     H61064   7.357   7.606   2.742  0.0786 -0.1865  0.4189
  463MOL0     H61065   7.334   7.713   2.451  4.2229 -0.5502 -1.0441
  463MOL0     H61066   7.333   7.803   2.604 -0.3485  1.3906 -2.0586
  463MOL0     H61067   7.543   7.806   2.467 -0.0252 -1.8741 -2.5433
  463MOL0     H61068   7.562   7.633   2.494  1.0780 -0.3776  0.3198
  463MOL0     H61069   7.763   7.597   2.681 -1.9939 -0.0927 -1.5556
  463MOL0     H61070   7.926   7.669   2.877  0.4575 -1.3481  0.8053
  463MOL0     H61071   7.819   7.627   3.004 -2.7539 -0.4830 -1.5134
  463MOL0     H61072   7.977   7.785   3.103  2.8187  0.4268 -2.3205
  463MOL0     H61073   7.840   7.887   3.076  0.6893 -0.7257  1.2500
  463MOL0     H61074   8.081   7.851   2.898  0.6524 -0.3837 -1.3274
  463MOL0     H61075   7.940   7.954   2.862 -2.7583 -1.1383  2.0707
  463MOL0     H61076   8.007   8.066   3.109  1.0667 -1.6242  1.0383
  463MOL0     H61077   8.075   8.103   2.946 -1.8340 -1.0019 -1.8102
  463MOL0     H61078   8.304   8.111   3.266  0.0237  0.3626 -0.4024
  463MOL0     H61079   8.519   8.225   3.229 -1.7345  2.6073 -0.0152
  463MOL0     H61080   8.859   8.423   2.961 -0.0958 -3.2588  1.9346
  463MOL0     H61081   9.071   8.487   2.890 -2.9490 -2.2131  4.2377
  463MOL0     H61082   9.319   8.235   2.812  0.7594  0.0828 -1.3958
  463MOL0     H61083   9.300   8.387   2.874 -1.0988 -0.0590 -0.4206
  463MOL0     H61084   9.537   8.321   2.821  0.1644 -0.1853 -0.1064
  463MOL0     H61085   9.501   8.471   2.742  0.9337 -0.2064 -1.8735
  463MOL0     H61086   9.420   8.329   2.553  0.3650  3.0564  1.4407
  463MOL0     H61087   9.498   8.182   2.634  0.2466  0.1546 -0.7810
  463MOL0     H61088   9.644   8.304   2.455  2.3058  1.7436 -0.1384
  463MOL0     H61089   9.652   8.442   2.557  1.1933  0.2792  0.0484
  463MOL0     H61090   9.763   8.167   2.613 -1.2867  0.8551 -2.3496
  463MOL0     H61091   9.748   8.276   2.748  1.3800  0.4024  0.8301
  463MOL0     H61092   9.972   8.288   2.664 -2.3072  0.2126  3.2999
  463MOL0     H61093   9.887   8.445   2.639 -0.5380 -0.6547 -0.7254
  463MOL0     H61094   9.910   8.257   2.413  0.3179 -0.4556  1.0619
  463MOL0     H61095   9.855   8.427   2.421 -2.0556 -2.0895  0.3450
  463MOL0     H61096  10.115   8.460   2.509  1.2606  0.3614 -1.8223
  463MOL0     H61097  10.061   8.479   2.339 -0.7879 -2.0499 -2.3428
  463MOL0     H61098   9.084   8.192   2.590 -2.1722 -0.9473 -0.6016
  463MOL0     H61099   8.832   8.122   2.670  1.6882 -0.0905 -0.0846
  463MOL0     H61100   8.541   8.077   2.828  0.6167  3.2375 -0.5281
  463MOL0     H61101   8.308   7.971   2.851 -3.2082 -1.2926  0.6005
  463MOL0     H61102   6.668   6.911   2.843  0.7765 -0.0677 -2.1694
  463MOL0     H61103   6.432   6.850   2.908  1.7677  0.3320  2.3703
  463MOL0     H61104   6.071   6.944   3.037 -1.0373 -2.9343 -1.8413
  463MOL0     H61105   5.879   6.960   3.185  0.7096 -1.6222 -1.8334
  463MOL0     H61106   5.684   7.023   3.319 -1.4933 -0.3663  1.5630
  463MOL0     H61107   5.653   6.912   3.202 -0.6539  0.7732  0.0751
  463MOL0     H61108   5.420   7.099   3.308 -0.6554  0.8225 -0.2650
  463MOL0     H61109   5.413   6.960   3.196  0.5734  0.2137  0.6689
  463MOL0     H61110   5.513   6.931   3.465  0.4137  2.3237 -1.2458
  463MOL0     H61111   5.497   6.801   3.347 -1.9244 -0.6817  0.5862
  463MOL0     H61112   5.251   6.951   3.438  0.5708  0.6369 -1.6901
  463MOL0     H61113   5.259   6.812   3.341 -0.2307  0.8714 -0.3542
  463MOL0     H61114   5.313   6.656   3.739 -0.5585  0.3334 -0.1213
  463MOL0     H61115   5.666   7.192   2.887 -0.6646 -0.3473 -0.8508
  463MOL0     H61116   5.861   7.179   2.747  1.2861 -1.8111 -0.3932
  464MOL0     O61117   3.513   1.456   9.649 -0.5917 -0.2856  0.0743
  464MOL0     C61118   3.441   1.461   9.749  0.4018 -0.6834 -0.4673
  464MOL0     O61119   3.480   1.407   9.868  0.5481 -0.5711 -0.1573
  464MOL0     C61120   3.606   1.353   9.894  0.2808  0.4748 -0.0731
  464MOL0     C61121   3.676   1.253   9.816 -0.0476 -0.0159  0.2912
  464MOL0     C61122   3.791   1.200   9.860 -0.9985  0.2189 -0.0285
  464MOL0     C61123   3.848   1.226   9.993  0.6136 -0.8646  0.5134
  464MOL0     O61124   3.956   1.173  10.046  1.0661  0.8587  0.1763
  464MOL0     C61125   4.057   1.128   9.956 -1.0622 -0.4609 -0.3119
  464MOL0     C61126   4.182   1.115  10.059  0.0927  0.5522  1.0449
  464MOL0     C61127   4.301   1.082   9.962 -0.4300 -0.8837 -0.2678
  464MOL0     C61128   4.453   1.067  10.015 -0.9752  0.3699  0.2993
  464MOL0     C61129   4.548   1.053   9.904  0.0800 -0.8047  0.1593
  464MOL0     C61130   4.687   0.984   9.948  0.8912 -0.7667  0.6759
  464MOL0     C61131   4.816   1.014   9.863  0.2362 -0.1660  0.4272
  464MOL0     C61132   4.943   0.973   9.936 -0.7148 -1.1741  1.0488
  464MOL0     N61133   5.057   1.003   9.846  0.2305  0.5435  0.2638
  464MOL0     C61134   5.185   0.987   9.895 -1.0224  0.2891  0.8940
  464MOL0     C61135   5.265   0.984   9.781 -0.4849 -0.4961 -0.4574
  464MOL0     C61136   5.417   0.958   9.782  0.1254  0.2328  0.5979
  464MOL0     C61137   5.487   1.087   9.821  0.2775 -0.3020  0.1335
  464MOL0     C61138   5.639   1.056   9.852 -0.1878 -0.2241 -0.0532
  464MOL0     C61139   5.723   1.003   9.741  0.0626 -0.9934 -0.5483
  464MOL0     O61140   5.758   1.117   9.657  0.5250 -0.4099 -0.1977
  464MOL0     C61141   5.842   1.067   9.564 -0.3713  1.2031  0.3016
  464MOL0     C61142   5.976   1.077   9.589 -0.7826  0.1049  0.4492
  464MOL0     C61143   6.073   1.061   9.484  0.3531 -0.3259 -0.4952
  464MOL0     C61144   6.027   1.025   9.357 -0.4226 -0.1031  1.9787
  464MOL0     C61145   6.127   0.989   9.246  0.5292 -0.8957 -0.2153
  464MOL0     O61146   6.080   0.994   9.123 -0.8435  0.6097  0.2110
  464MOL0     C61147   6.165   0.946   9.028  0.2532 -0.0366  0.7225
  464MOL0     C61148   6.187   0.815   8.997  0.8090  0.0165  0.0850
  464MOL0     C61149   6.290   0.774   8.915 -0.9554 -0.4344  0.0973
  464MOL0     C61150   6.392   0.861   8.867 -0.2758  0.0533  0.1155
  464MOL0     O61151   6.501   0.815   8.798 -0.4345  0.1448 -0.2682
  464MOL0     C61152   6.541   0.684   8.793  0.6159  0.1967 -0.0271
  464MOL0     C61153   6.677   0.687   8.719  0.2663 -0.1839 -0.8592
  464MOL0     C61154   6.709   0.540   8.678 -0.2819 -0.2168 -0.2156
  464MOL0     C61155   6.826   0.562   8.582 -0.0913  0.0975  0.1872
  464MOL0     C61156   6.875   0.424   8.531 -0.6969  0.4311 -1.3834
  464MOL0     C61157   6.889   0.324   8.648 -0.9535 -0.2931  0.2134
  464MOL0     C61158   6.971   0.193   8.594  0.3586  0.5979 -0.3534
  464MOL0     C61159   6.961   0.106   8.713  0.1899  0.1930  0.2754
  464MOL0    Cl61160   7.058  -0.042   8.666  0.2219 -0.4864 -0.0545
  464MOL0     C61161   6.370   0.988   8.903  0.0297  0.4272  0.1874
  464MOL0     C61162   6.258   1.032   8.974  0.3685 -0.0259  0.0214
  464MOL0     O61163   6.249   0.955   9.281  0.6070  0.3579 -0.3872
  464MOL0     C61164   5.889   1.023   9.332 -0.2776 -0.3742  0.1235
  464MOL0     C61165   5.800   1.047   9.434 -0.1713 -0.3725  0.8328
  464MOL0     N61166   5.176   1.010   9.668  0.2064  0.2363  1.2210
  464MOL0     N61167   5.061   1.006   9.702 -0.4642  0.4829 -0.6160
  464MOL0     C61168   3.778   1.316  10.078 -0.0491  0.4454  0.1147
  464MOL0     C61169   3.655   1.378  10.028  0.3916 -0.6229 -0.0596
  464MOL0     C61170   3.300   1.498   9.737  0.1314  0.6712 -0.7016
  464MOL0     C61171   3.216   1.452   9.835  1.0192 -1.0683  0.4068
  464MOL0     C61172   3.085   1.491   9.833  0.0712  0.4662 -0.2145
  464MOL0     C61173   3.041   1.586   9.742  0.2061  0.0076 -0.3272
  464MOL0     O61174   2.911   1.640   9.753  0.6982  0.5574 -0.1202
  464MOL0     C61175   2.847   1.686   9.628 -0.7353  0.6040 -0.0030
  464MOL0     C61176   2.697   1.706   9.644 -0.5970  0.0516 -0.6664
  464MOL0     C61177   2.623   1.760   9.529  0.9632 -0.7638 -0.6592
  464MOL0     C61178   2.474   1.791   9.556  0.4762  0.5128 -0.3045
  464MOL0     C61179   2.389   1.773   9.434 -0.0585  0.0565 -0.5702
  464MOL0     C61180   2.342   1.782   9.320 -0.5539  0.2263 -0.6751
  464MOL0     C61181   3.128   1.619   9.637 -0.2391 -0.2190 -0.1483
  464MOL0     C61182   3.258   1.579   9.633 -0.2187  0.2670  0.0401
  464MOL0     H61183   3.637   1.219   9.721 -1.2835 -0.7096  1.0195
  464MOL0     H61184   3.844   1.123   9.806  0.7016  1.2743  0.0843
  464MOL0     H61185   4.086   1.210   9.889 -3.0405 -0.2063 -0.9280
  464MOL0     H61186   4.049   1.032   9.905  2.7714 -1.3627  0.4891
  464MOL0     H61187   4.169   1.037  10.134  0.6285  1.5961  2.2581
  464MOL0     H61188   4.185   1.214  10.105 -1.1718  1.3840 -0.5428
  464MOL0     H61189   4.308   1.164   9.889 -1.4449 -0.9522 -0.4514
  464MOL0     H61190   4.277   0.984   9.919 -0.8241 -1.1012  0.4543
  464MOL0     H61191   4.490   1.151  10.075  0.5546 -0.1322  0.0996
  464MOL0     H61192   4.461   0.981  10.082 -0.2564  0.0213 -0.2158
  464MOL0     H61193   4.561   1.151   9.858 -4.7448 -0.0064 -0.1136
  464MOL0     H61194   4.496   0.988   9.833  0.8216  1.0377 -2.2019
  464MOL0     H61195   4.672   0.876   9.938 -0.4211 -0.4211 -5.3175
  464MOL0     H61196   4.701   1.021  10.050 -2.1705  2.4188  0.1171
  464MOL0     H61197   4.818   0.951   9.774  3.2708  0.8877 -0.3877
  464MOL0     H61198   4.824   1.118   9.830 -1.7208 -0.4036 -0.9766
  464MOL0     H61199   4.944   0.866   9.959  1.1940 -2.1665 -2.7483
  464MOL0     H61200   4.953   1.022  10.033 -2.8633  1.4141  0.1000
  464MOL0     H61201   5.225   0.971   9.995 -1.1044 -3.0832  0.4867
  464MOL0     H61202   5.444   0.919   9.683  0.4691  1.4468  0.1953
  464MOL0     H61203   5.440   0.887   9.861 -3.1892 -0.2585  1.2773
  464MOL0     H61204   5.442   1.145   9.902  1.0339 -1.4144  1.4048
  464MOL0     H61205   5.493   1.152   9.733  0.2674 -0.9658 -0.3678
  464MOL0     H61206   5.683   1.148   9.891 -0.6443 -0.4736  1.0910
  464MOL0     H61207   5.645   0.980   9.931  0.1803  0.8319  0.9573
  464MOL0     H61208   5.669   0.929   9.681 -2.8879  1.1764 -0.8318
  464MOL0     H61209   5.816   0.973   9.790 -1.2963 -2.5043  1.2246
  464MOL0     H61210   6.006   1.107   9.689  0.0958 -1.6908  0.7665
  464MOL0     H61211   6.176   1.077   9.514 -0.3012 -0.5795  2.1927
  464MOL0     H61212   6.119   0.746   9.045  1.5911  0.3677  1.7867
  464MOL0     H61213   6.293   0.666   8.901  1.1748 -0.7576  2.3991
  464MOL0     H61214   6.463   0.647   8.726  2.0944  0.8189 -2.2415
  464MOL0     H61215   6.543   0.630   8.888 -1.0249 -1.1811 -0.7085
  464MOL0     H61216   6.755   0.727   8.784 -0.7148 -0.8436  0.7891
  464MOL0     H61217   6.677   0.746   8.627  0.2375  0.2259 -0.6027
  464MOL0     H61218   6.619   0.513   8.622 -2.2369  2.4242  1.3777
  464MOL0     H61219   6.720   0.474   8.765 -1.5971 -1.8707 -1.2498
  464MOL0     H61220   6.792   0.611   8.491  3.3673 -0.6235 -1.6628
  464MOL0     H61221   6.905   0.626   8.623 -1.2130  3.4233 -2.4107
  464MOL0     H61222   6.968   0.449   8.480 -0.8588  5.0486  0.0628
  464MOL0     H61223   6.807   0.365   8.470  0.9329 -1.9395 -1.0069
  464MOL0     H61224   6.789   0.283   8.668 -1.2205 -0.8104 -1.9415
  464MOL0     H61225   6.932   0.365   8.740 -1.1479  2.7673 -0.9429
  464MOL0     H61226   6.910   0.149   8.515 -0.9121  1.1607  0.2872
  464MOL0     H61227   7.074   0.212   8.563  1.3173 -1.1870  1.4979
  464MOL0     H61228   6.858   0.071   8.727 -0.7937  3.0756  0.8519
  464MOL0     H61229   7.011   0.140   8.803  2.1612 -1.2267 -0.2208
  464MOL0     H61230   6.446   1.062   8.881  1.7547 -1.8594 -2.3080
  464MOL0     H61231   6.238   1.136   9.001 -0.3744  0.7104 -2.9581
  464MOL0     H61232   5.868   1.013   9.226  3.9097  1.7381 -1.1292
  464MOL0     H61233   5.696   1.062   9.406  0.0375 -2.0360 -1.0812
  464MOL0     H61234   3.809   1.334  10.181  3.0824  0.4712 -0.7304
  464MOL0     H61235   3.603   1.443  10.097 -1.6181 -0.5137 -1.5857
  464MOL0     H61236   3.251   1.380   9.909  1.7019 -1.6596 -0.4603
  464MOL0     H61237   3.009   1.467   9.906 -1.6100  3.0628 -0.9333
  464MOL0     H61238   2.868   1.621   9.542  1.3758  1.5145 -0.2321
  464MOL0     H61239   2.889   1.786   9.616  0.4308 -0.0843 -2.2372
  464MOL0     H61240   2.645   1.613   9.670 -0.8442 -0.2119 -2.0384
  464MOL0     H61241   2.688   1.786   9.719  2.2694  2.1781 -2.3606
  464MOL0     H61242   2.639   1.690   9.446  1.8191  0.1755 -1.3199
  464MOL0     H61243   2.670   1.858   9.520  1.9673 -1.1083  0.6651
  464MOL0     H61244   2.428   1.718   9.623 -1.4958  0.6081 -1.4782
  464MOL0     H61245   2.458   1.893   9.594  0.4773 -0.4865  2.6483
  464MOL0     H61246   2.313   1.792   9.217 -2.1801  4.9912 -0.0305
  464MOL0     H61247   3.103   1.698   9.566 -1.3419  0.5002  0.9935
  464MOL0     H61248   3.323   1.616   9.555  1.8008  1.1371  2.0370
  465MOL0     O61249   9.980   3.054   6.760  0.0965 -0.6062  0.1557
  465MOL0     C61250  10.098   3.080   6.782  0.8644 -0.6846  0.4439
  465MOL0     O61251  10.179   3.135   6.693 -0.3352 -0.3061  0.2563
  465MOL0     C61252  10.139   3.151   6.560 -0.5217 -0.7433 -0.1859
  465MOL0     C61253  10.082   3.272   6.528 -0.5967  0.8663  0.0075
  465MOL0     C61254  10.073   3.311   6.394 -0.0502 -0.2112  0.7851
  465MOL0     C61255  10.112   3.225   6.294  0.1803 -0.5802 -0.2542
  465MOL0     O61256  10.098   3.268   6.166  0.5354  0.4510  1.1742
  465MOL0     C61257  10.093   3.173   6.065 -0.0210  0.4577 -0.7986
  465MOL0     C61258  10.079   3.232   5.930 -0.3606 -0.7930  0.3637
  465MOL0     C61259   9.936   3.274   5.905 -0.4954 -0.3430  0.4346
  465MOL0     C61260   9.860   3.153   5.873 -0.1260 -0.5010  0.7650
  465MOL0     C61261   9.702   3.172   5.896 -0.4644  0.1415  0.6250
  465MOL0     C61262   9.647   3.258   5.777 -0.0190 -0.8013 -0.1494
  465MOL0     C61263   9.495   3.290   5.775 -1.1214 -0.5365  0.6765
  465MOL0     C61264   9.401   3.164   5.771 -0.3594 -0.4166 -0.4729
  465MOL0     N61265   9.424   3.095   5.638 -0.0684  0.1331 -0.5387
  465MOL0     C61266   9.503   2.981   5.627  0.0158  0.1312 -0.7383
  465MOL0     C61267   9.506   2.966   5.487 -0.0813 -1.0809 -0.3956
  465MOL0     C61268   9.571   2.869   5.404 -0.8191 -0.0332 -0.7376
  465MOL0     C61269   9.538   2.723   5.444 -0.1975  0.2151  0.0671
  465MOL0     C61270   9.391   2.694   5.421  0.4181 -0.3953  0.0402
  465MOL0     C61271   9.369   2.660   5.266 -0.3230 -1.0765 -1.1044
  465MOL0     O61272   9.230   2.631   5.237  0.4353  0.2815 -0.6851
  465MOL0     C61273   9.191   2.597   5.117  0.6071  0.0875  0.9083
  465MOL0     C61274   9.070   2.656   5.065 -0.2320 -0.3195  0.2577
  465MOL0     C61275   9.004   2.598   4.956  0.2077  1.3250 -0.4358
  465MOL0     C61276   9.056   2.484   4.879  0.0612 -0.8713  0.3935
  465MOL0     C61277   8.988   2.430   4.763  0.6215 -0.9431 -0.2263
  465MOL0     O61278   9.060   2.352   4.689 -0.4255  0.7672  0.4764
  465MOL0     C61279   8.993   2.266   4.595  0.6558  0.0015 -1.3003
  465MOL0     C61280   8.977   2.128   4.617  1.1030 -1.2906  0.0106
  465MOL0     C61281   8.926   2.047   4.521 -0.4147 -0.4212  0.5856
  465MOL0     C61282   8.885   2.092   4.394 -1.0049 -0.8527  0.0874
  465MOL0     O61283   8.845   1.999   4.307 -0.2241  0.2271  0.6765
  465MOL0     C61284   8.830   2.029   4.165  0.0716 -0.2408  0.0365
  465MOL0     C61285   8.766   1.900   4.113 -0.0547 -0.6048  1.0078
  465MOL0     C61286   8.626   1.867   4.177 -0.0313 -0.0393 -0.2709
  465MOL0     C61287   8.559   1.760   4.085 -0.4007 -0.2244  0.5393
  465MOL0     C61288   8.451   1.826   3.998 -0.6830 -0.4706  0.7745
  465MOL0     C61289   8.391   1.715   3.907 -0.8598 -0.0763 -0.3379
  465MOL0     C61290   8.298   1.619   3.976  0.6706 -1.3873 -0.7860
  465MOL0     C61291   8.149   1.683   3.993 -0.2466  0.4899 -0.1426
  465MOL0    Cl61292   8.055   1.569   4.078 -0.2992  0.9465 -0.4748
  465MOL0     C61293   8.893   2.239   4.368  0.1162  0.7235  1.1574
  465MOL0     C61294   8.951   2.318   4.470  0.7280  0.4807 -1.0156
  465MOL0     O61295   8.876   2.469   4.746  0.3391 -0.6137  0.4769
  465MOL0     C61296   9.184   2.448   4.916 -0.9017  0.6537 -1.0126
  465MOL0     C61297   9.252   2.497   5.036  0.5690  0.2439  0.4576
  465MOL0     N61298   9.441   3.076   5.427 -0.3646 -0.1205  0.0075
  465MOL0     N61299   9.391   3.153   5.516  0.6413 -0.7167  0.5534
  465MOL0     C61300  10.154   3.095   6.330  0.0873 -0.0138 -0.8869
  465MOL0     C61301  10.174   3.062   6.466  0.4537 -0.1053 -0.0716
  465MOL0     C61302  10.152   3.047   6.906 -0.9706  0.6776 -1.3456
  465MOL0     C61303  10.080   2.976   7.004  1.2871  0.4188  0.5926
  465MOL0     C61304  10.123   2.944   7.130  0.9212 -1.1678  0.7247
  465MOL0     C61305  10.258   2.960   7.164  1.1888 -0.1130  0.2371
  465MOL0     O61306  10.284   2.937   7.293  0.6414  0.3672  0.5220
  465MOL0     C61307  10.398   2.991   7.361 -0.0882 -0.1189  0.1969
  465MOL0     C61308  10.358   3.126   7.427  0.4388  0.0044 -0.2372
  465MOL0     C61309  10.374   3.255   7.342  0.3729 -0.0908 -0.3841
  465MOL0     C61310  10.243   3.314   7.296  0.9956 -0.0856 -0.2260
  465MOL0     C61311  10.261   3.460   7.243  0.9789  0.5020  0.2458
  465MOL0     C61312  10.293   3.573   7.197  1.3189  0.1027 -0.3488
  465MOL0     C61313  10.347   3.011   7.069  0.3366  0.1344  0.8111
  465MOL0     C61314  10.290   3.056   6.943  0.4036 -1.0902 -0.2639
  465MOL0     H61315  10.063   3.355   6.595  0.3416  1.2630 -0.2011
  465MOL0     H61316  10.030   3.406   6.365 -1.1243 -1.7254 -3.2454
  465MOL0     H61317  10.020   3.094   6.080  0.1389  0.4394 -0.0609
  465MOL0     H61318  10.194   3.131   6.054  0.6509  2.1724 -1.7723
  465MOL0     H61319  10.106   3.162   5.850 -1.6424  0.7476 -1.5188
  465MOL0     H61320  10.150   3.316   5.924  0.7146 -1.5676  1.7463
  465MOL0     H61321   9.935   3.340   5.818  0.8403 -2.6596 -1.4586
  465MOL0     H61322   9.898   3.323   5.995  1.7458  2.5000 -0.0030
  465MOL0     H61323   9.882   3.114   5.773  0.1606 -0.7821  0.9340
  465MOL0     H61324   9.891   3.062   5.925 -1.5951 -2.3106 -1.3388
  465MOL0     H61325   9.670   3.222   5.988  1.1536  0.1678  1.2054
  465MOL0     H61326   9.656   3.074   5.878 -0.2926  0.2303 -0.3258
  465MOL0     H61327   9.664   3.207   5.681 -0.4705 -0.3737 -0.4579
  465MOL0     H61328   9.700   3.353   5.767  0.3251 -0.8877  0.7889
  465MOL0     H61329   9.475   3.337   5.872  1.3106  2.8153 -0.2290
  465MOL0     H61330   9.477   3.362   5.695  2.8225 -0.9241 -0.7737
  465MOL0     H61331   9.296   3.192   5.777 -0.4503 -1.0829  1.6054
  465MOL0     H61332   9.428   3.094   5.850 -1.3753  2.2929  2.4762
  465MOL0     H61333   9.551   2.929   5.710  0.8697 -1.4844 -2.1862
  465MOL0     H61334   9.680   2.867   5.411 -0.8653  0.5153  0.4175
  465MOL0     H61335   9.534   2.883   5.302 -1.9214 -1.7807 -0.6101
  465MOL0     H61336   9.553   2.704   5.551  1.4871  0.0652 -0.1732
  465MOL0     H61337   9.594   2.657   5.377  0.0139 -0.1746  0.6236
  465MOL0     H61338   9.358   2.609   5.483  1.4968 -2.0501 -1.5717
  465MOL0     H61339   9.332   2.782   5.448  0.6888 -1.1703  3.7321
  465MOL0     H61340   9.434   2.576   5.241 -1.8274 -2.6316 -0.0894
  465MOL0     H61341   9.391   2.753   5.214 -1.6003 -1.0836 -1.6920
  465MOL0     H61342   9.020   2.741   5.110 -2.5893 -0.0148 -2.6107
  465MOL0     H61343   8.916   2.646   4.915 -1.9200 -1.6791  0.2327
  465MOL0     H61344   8.986   2.093   4.719  0.2835  1.2520  1.0521
  465MOL0     H61345   8.918   1.941   4.544  0.0896 -0.8034 -0.9224
  465MOL0     H61346   8.927   2.047   4.119  0.5492  0.6018  1.3222
  465MOL0     H61347   8.750   2.101   4.145 -0.7687 -1.0814  0.2710
  465MOL0     H61348   8.829   1.813   4.133 -0.7871 -1.4844 -0.3450
  465MOL0     H61349   8.760   1.923   4.006  5.8001  2.2133  0.8605
  465MOL0     H61350   8.573   1.962   4.191 -0.4673 -0.4466  0.9415
  465MOL0     H61351   8.623   1.839   4.282 -2.2225  6.4388  1.8561
  465MOL0     H61352   8.642   1.710   4.034  0.5933  2.4284 -0.6933
  465MOL0     H61353   8.505   1.685   4.143  2.0153 -2.2379  0.3425
  465MOL0     H61354   8.504   1.902   3.939  3.6972 -3.0422  0.8979
  465MOL0     H61355   8.370   1.874   4.052  0.9568  3.6658 -0.0721
  465MOL0     H61356   8.478   1.658   3.876  1.4542  0.7716  3.7906
  465MOL0     H61357   8.346   1.758   3.817 -0.0994  2.8099  0.5586
  465MOL0     H61358   8.298   1.530   3.913  0.8371 -1.5869 -0.5002
  465MOL0     H61359   8.325   1.610   4.081 -0.7902  2.2114  0.0553
  465MOL0     H61360   8.104   1.706   3.896 -3.4145  2.9510  1.7442
  465MOL0     H61361   8.148   1.776   4.050 -2.6479 -0.2312  1.1367
  465MOL0     H61362   8.861   2.283   4.274 -0.4037  0.4708  1.2107
  465MOL0     H61363   8.953   2.426   4.460 -2.5275  1.2077  3.1071
  465MOL0     H61364   9.255   2.379   4.872  0.8309  0.0417  2.3317
  465MOL0     H61365   9.352   2.463   5.061  0.7817  0.8705  0.4845
  465MOL0     H61366  10.169   3.018   6.254  2.3958 -0.1544 -0.3836
  465MOL0     H61367  10.200   2.957   6.476  0.7154  0.0247  0.7184
  465MOL0     H61368   9.975   2.959   6.984  0.9664  3.0745 -0.4344
  465MOL0     H61369  10.047   2.901   7.194 -2.0129 -0.5911 -2.1109
  465MOL0     H61370  10.490   2.998   7.300 -3.1961  1.3278 -4.9997
  465MOL0     H61371  10.425   2.924   7.443 -0.5196 -1.1795 -0.5057
  465MOL0     H61372  10.257   3.113   7.464  0.3754  2.8998  0.8990
  465MOL0     H61373  10.419   3.126   7.518  2.6343 -0.2255 -1.6273
  465MOL0     H61374  10.421   3.236   7.245  1.3368 -0.3633  0.1216
  465MOL0     H61375  10.432   3.324   7.404 -2.1994 -0.4222  2.6676
  465MOL0     H61376  10.191   3.251   7.224  1.5408 -2.4939  1.3945
  465MOL0     H61377  10.166   3.311   7.373 -2.8667 -1.2990 -3.7710
  465MOL0     H61378  10.313   3.655   7.132  0.0987 -0.9798 -2.1799
  465MOL0     H61379  10.454   2.998   7.085  0.3747  0.5025  0.8515
  465MOL0     H61380  10.359   3.109   6.879 -0.7570 -1.8667 -2.2299
  466MOL0     O61381   9.343   7.608   5.120 -0.7722  0.5673  0.1577
  466MOL0     C61382   9.251   7.527   5.132 -0.1980  1.3701  0.0799
  466MOL0     O61383   9.257   7.395   5.192  0.5196 -0.6231  0.1902
  466MOL0     C61384   9.369   7.376   5.267  0.1004  0.6921  0.1050
  466MOL0     C61385   9.381   7.439   5.396  0.6190 -0.2430  0.8758
  466MOL0     C61386   9.489   7.409   5.478  0.5201  0.7282  0.3689
  466MOL0     C61387   9.587   7.320   5.435 -0.3388  0.0460 -0.0208
  466MOL0     O61388   9.697   7.297   5.509 -0.0526 -0.3251  0.0642
  466MOL0     C61389   9.667   7.293   5.647  0.2970 -0.3692  0.4736
  466MOL0     C61390   9.775   7.229   5.728 -1.0041 -0.0735 -0.4585
  466MOL0     C61391   9.744   7.192   5.874 -0.4299  0.4153  0.6235
  466MOL0     C61392   9.867   7.130   5.939  0.6382 -0.5204 -0.0103
  466MOL0     C61393   9.868   7.163   6.092  0.4368  0.7945 -0.5209
  466MOL0     C61394   9.990   7.121   6.174 -0.7414 -1.1075  0.2561
  466MOL0     C61395  10.019   6.969   6.162  0.4302  0.3046  0.4643
  466MOL0     C61396  10.044   6.889   6.297 -0.4213  0.2116  0.4298
  466MOL0     N61397  10.167   6.918   6.367 -0.0123  0.3180  0.5037
  466MOL0     C61398  10.227   6.844   6.472  0.7563  0.0372  0.7163
  466MOL0     C61399  10.332   6.918   6.500  0.3494  0.0690  0.1265
  466MOL0     C61400  10.430   6.893   6.614  0.6316 -0.2406 -1.0209
  466MOL0     C61401  10.341   6.915   6.737 -0.2758  0.7244 -0.4780
  466MOL0     C61402  10.255   7.042   6.757 -0.1477 -0.6936 -0.3758
  466MOL0     C61403  10.330   7.168   6.722  0.1480  0.0224 -0.4216
  466MOL0     O61404  10.270   7.285   6.775  0.0661 -0.5060  0.3601
  466MOL0     C61405  10.178   7.360   6.703  0.0280 -0.5209  0.2396
  466MOL0     C61406  10.114   7.468   6.753  0.6746 -0.7744 -0.5300
  466MOL0     C61407  10.027   7.560   6.682 -0.5595  0.8564 -0.2317
  466MOL0     C61408  10.006   7.534   6.544  0.3172 -0.2103 -0.5137
  466MOL0     C61409   9.918   7.620   6.462  0.3806  0.3355  0.0982
  466MOL0     O61410   9.886   7.587   6.330 -0.3842  0.6088 -0.0092
  466MOL0     C61411   9.765   7.635   6.285  0.5785  0.2964  0.1667
  466MOL0     C61412   9.771   7.637   6.147 -0.7289 -0.1651 -0.2875
  466MOL0     C61413   9.658   7.668   6.080  0.2273 -0.4695  0.3261
  466MOL0     C61414   9.535   7.702   6.143  0.3029  0.0316 -0.5194
  466MOL0     O61415   9.432   7.744   6.062  0.5814  0.7711  0.2869
  466MOL0     C61416   9.329   7.832   6.114 -0.8764 -0.0138 -1.1129
  466MOL0     C61417   9.206   7.821   6.042 -0.6573 -0.2566 -0.3650
  466MOL0     C61418   9.089   7.897   6.098  0.1480 -0.4021  0.2342
  466MOL0     C61419   8.949   7.822   6.073  0.1305  0.6592 -0.8120
  466MOL0     C61420   8.906   7.813   5.929 -0.3497 -0.8135  0.1953
  466MOL0     C61421   8.830   7.931   5.869 -0.0119 -0.1368 -0.4034
  466MOL0     C61422   8.681   7.907   5.886 -0.9754  0.7670 -0.5696
  466MOL0     C61423   8.604   8.000   5.794  0.0821 -0.6373  0.6836
  466MOL0    Cl61424   8.443   7.924   5.774 -0.0660  0.4652  0.0854
  466MOL0     C61425   9.532   7.695   6.286  0.2781 -0.8522 -0.4106
  466MOL0     C61426   9.647   7.658   6.349  0.8635  0.2060 -0.2117
  466MOL0     O61427   9.864   7.716   6.520 -0.4215  0.2208  0.1016
  466MOL0     C61428  10.067   7.423   6.497 -0.2358  0.4183  0.3186
  466MOL0     C61429  10.141   7.335   6.573 -0.5156  0.4773  0.4399
  466MOL0     N61430  10.351   7.022   6.405 -0.9762 -0.0181 -0.4267
  466MOL0     N61431  10.250   7.014   6.321 -0.4148  0.5917 -0.0280
  466MOL0     C61432   9.568   7.262   5.312 -0.1680 -0.5701  0.4866
  466MOL0     C61433   9.466   7.282   5.231  0.3925  0.5157 -0.3144
  466MOL0     C61434   9.144   7.548   5.040  0.6089  0.3378  0.0199
  466MOL0     C61435   9.157   7.615   4.913 -0.6504 -0.4366  0.3274
  466MOL0     C61436   9.050   7.636   4.834 -0.0467  0.7479  0.0573
  466MOL0     C61437   8.926   7.586   4.870 -0.6240  0.7665  0.2272
  466MOL0     O61438   8.820   7.619   4.787  0.1798  0.3283  0.2403
  466MOL0     C61439   8.800   7.517   4.689 -0.5287  0.0491 -0.8285
  466MOL0     C61440   8.661   7.512   4.643  0.3673 -0.0580  1.2233
  466MOL0     C61441   8.644   7.615   4.523  0.1350 -0.8727 -0.0681
  466MOL0     C61442   8.499   7.613   4.485 -0.5218  0.3674 -0.8553
  466MOL0     C61443   8.458   7.729   4.404 -0.5069  0.1692  0.1382
  466MOL0     C61444   8.425   7.827   4.341 -0.5331 -0.3460 -0.6954
  466MOL0     C61445   8.905   7.518   4.991 -0.6576  0.5174 -0.3115
  466MOL0     C61446   9.013   7.502   5.079 -0.2209  0.1336 -0.0091
  466MOL0     H61447   9.291   7.483   5.437  0.0230  0.9565 -1.5585
  466MOL0     H61448   9.480   7.449   5.578 -4.2075 -3.4677  2.0346
  466MOL0     H61449   9.578   7.230   5.655 -1.4301  1.9342  0.2988
  466MOL0     H61450   9.649   7.389   5.697  2.2047  0.5091 -0.4052
  466MOL0     H61451   9.864   7.294   5.727 -2.1395  1.6361  2.0744
  466MOL0     H61452   9.782   7.136   5.671 -3.6096 -0.3181 -0.4871
  466MOL0     H61453   9.668   7.113   5.874  1.5496 -1.5916  0.5748
  466MOL0     H61454   9.718   7.291   5.913 -0.8887  1.3159 -1.8178
  466MOL0     H61455   9.870   7.023   5.918  1.9244 -0.5948  0.4587
  466MOL0     H61456   9.958   7.166   5.890  0.7170 -2.3998 -1.3653
  466MOL0     H61457   9.788   7.121   6.153  1.2312  1.2635  0.8889
  466MOL0     H61458   9.856   7.272   6.098  0.3553  0.8806 -1.9529
  466MOL0     H61459   9.975   7.156   6.276 -1.9176 -1.6971  0.2988
  466MOL0     H61460  10.068   7.185   6.131 -2.2810  1.5163  1.1527
  466MOL0     H61461   9.931   6.921   6.117  1.6955 -1.5453 -0.1702
  466MOL0     H61462  10.104   6.957   6.095 -2.0106 -0.8251 -2.7076
  466MOL0     H61463  10.056   6.786   6.264  0.1368  0.8005 -1.3661
  466MOL0     H61464   9.956   6.893   6.361 -0.4551  1.4046  0.3314
  466MOL0     H61465  10.183   6.753   6.511 -0.8195  0.8688  0.9412
  466MOL0     H61466  10.508   6.968   6.628  2.0506 -1.8271 -0.0835
  466MOL0     H61467  10.465   6.790   6.617 -3.1538 -1.6504  0.0202
  466MOL0     H61468  10.410   6.912   6.821  1.1006 -4.3492 -1.4885
  466MOL0     H61469  10.275   6.828   6.744  0.4464  0.2083 -0.0960
  466MOL0     H61470  10.167   7.033   6.692  2.0282  0.5093 -3.7815
  466MOL0     H61471  10.222   7.052   6.861 -3.1761  0.8660 -1.3604
  466MOL0     H61472  10.344   7.173   6.613  1.7390 -2.9755 -0.4429
  466MOL0     H61473  10.427   7.158   6.771 -0.9972  1.3787  2.3525
  466MOL0     H61474  10.150   7.487   6.854 -0.1882 -1.0014 -0.1649
  466MOL0     H61475   9.982   7.643   6.735 -0.0785  0.8151  0.2502
  466MOL0     H61476   9.863   7.630   6.090 -2.6921 -0.2613 -3.6592
  466MOL0     H61477   9.669   7.682   5.973 -0.5757  0.2161  0.3242
  466MOL0     H61478   9.380   7.929   6.105 -1.7205  0.4504 -0.9876
  466MOL0     H61479   9.318   7.828   6.222 -3.9095  0.7522 -1.3242
  466MOL0     H61480   9.178   7.716   6.048 -1.5506  0.0173  0.4649
  466MOL0     H61481   9.230   7.850   5.939  0.9871  1.4834  0.4329
  466MOL0     H61482   9.079   8.003   6.071 -1.9890 -0.1014  1.9288
  466MOL0     H61483   9.104   7.897   6.207 -0.9661  0.1927  0.4088
  466MOL0     H61484   8.958   7.722   6.117 -2.4185  0.2058 -1.2089
  466MOL0     H61485   8.870   7.865   6.134  0.7780 -0.2019  0.6923
  466MOL0     H61486   8.850   7.722   5.906  1.3029 -1.6833 -0.5960
  466MOL0     H61487   9.000   7.799   5.875  0.3986  1.0468  0.9311
  466MOL0     H61488   8.855   7.928   5.763  0.6802 -0.0303 -0.2531
  466MOL0     H61489   8.864   8.026   5.912  2.9797 -1.9210  1.5568
  466MOL0     H61490   8.657   7.803   5.864 -2.8144  0.4537  2.3495
  466MOL0     H61491   8.663   7.920   5.993 -0.5614 -1.0202 -0.2570
  466MOL0     H61492   8.655   7.997   5.697  0.9153 -0.3286  1.1077
  466MOL0     H61493   8.585   8.099   5.836 -3.0060 -0.6494 -0.4068
  466MOL0     H61494   9.452   7.734   6.347 -1.1528  1.0442 -3.2528
  466MOL0     H61495   9.649   7.655   6.458 -2.2762  1.6829  0.0010
  466MOL0     H61496  10.063   7.405   6.390  1.7125  2.2189 -0.1271
  466MOL0     H61497  10.174   7.250   6.513 -1.7145  0.3555 -0.0755
  466MOL0     H61498   9.652   7.195   5.293  0.2546 -0.7243  2.6029
  466MOL0     H61499   9.472   7.228   5.138  5.8390 -3.0372  1.6047
  466MOL0     H61500   9.258   7.648   4.893  0.1663 -3.1518 -0.5246
  466MOL0     H61501   9.058   7.697   4.744  0.0063 -0.7340 -0.9807
  466MOL0     H61502   8.826   7.424   4.740 -1.1944 -0.8885 -2.1524
  466MOL0     H61503   8.875   7.547   4.616 -1.4318  2.3978 -0.8967
  466MOL0     H61504   8.623   7.413   4.617 -1.9019  1.2489 -0.9647
  466MOL0     H61505   8.606   7.556   4.727  3.2874  0.2467  3.1254
  466MOL0     H61506   8.699   7.590   4.432  0.0542  2.0352 -1.0053
  466MOL0     H61507   8.671   7.718   4.550 -1.6172  0.2001 -2.1136
  466MOL0     H61508   8.498   7.523   4.423  0.4094  0.7024 -1.3789
  466MOL0     H61509   8.429   7.612   4.568  0.7476  0.9269  0.2540
  466MOL0     H61510   8.404   7.914   4.282 -0.1959  1.1663  1.2830
  466MOL0     H61511   8.800   7.495   5.010 -0.1847  0.4381  2.8094
  466MOL0     H61512   9.008   7.450   5.174 -0.5632  0.4330  0.1368
  467MOL0     O61513  10.039   6.858   4.124  0.4989  0.5177 -0.6367
  467MOL0     C61514  10.154   6.856   4.092 -0.6456 -0.2482  0.1311
  467MOL0     O61515  10.214   6.942   4.006 -0.1142 -0.3174 -0.4518
  467MOL0     C61516  10.139   7.042   3.938 -0.0980  0.6941  1.1072
  467MOL0     C61517  10.160   7.047   3.800 -0.5547 -0.0815 -0.3572
  467MOL0     C61518  10.079   7.133   3.730  0.0912  0.5032 -0.5364
  467MOL0     C61519   9.993   7.217   3.794 -0.0020  0.1198 -0.1030
  467MOL0     O61520   9.906   7.296   3.727 -0.2287  0.3762 -0.2606
  467MOL0     C61521   9.831   7.245   3.624  0.3474  0.3337 -0.3522
  467MOL0     C61522   9.705   7.325   3.601  0.2614  0.6316 -0.6926
  467MOL0     C61523   9.618   7.279   3.487 -0.1371  0.2344  0.0903
  467MOL0     C61524   9.538   7.161   3.532 -0.0558 -0.1780  0.2299
  467MOL0     C61525   9.467   7.117   3.406 -0.3587  0.0719 -0.4799
  467MOL0     C61526   9.325   7.175   3.411 -1.3691 -0.5367  0.4739
  467MOL0     C61527   9.257   7.156   3.277 -0.2065 -0.9051  0.7931
  467MOL0     C61528   9.230   7.015   3.237 -0.2384  0.4864  0.4060
  467MOL0     N61529   9.166   6.994   3.100 -0.5072  1.3088 -0.0704
  467MOL0     C61530   9.244   6.991   2.986 -0.6342  0.1271 -0.7892
  467MOL0     C61531   9.163   6.986   2.882 -1.1791 -0.5224 -0.2202
  467MOL0     C61532   9.213   6.994   2.743 -0.1674 -0.6124 -0.5543
  467MOL0     C61533   9.264   6.857   2.693  0.0331 -0.4757 -1.4774
  467MOL0     C61534   9.321   6.849   2.553  0.1006 -0.3516 -0.2544
  467MOL0     C61535   9.206   6.842   2.460  0.2215  0.3781 -0.5135
  467MOL0     O61536   9.259   6.843   2.322  0.0162 -0.0047  0.4395
  467MOL0     C61537   9.172   6.857   2.215 -1.2015 -0.9174 -0.3009
  467MOL0     C61538   9.037   6.840   2.236 -0.0436 -0.9648 -0.1871
  467MOL0     C61539   8.944   6.853   2.128 -0.1631 -0.3548  0.3675
  467MOL0     C61540   8.994   6.899   1.998  0.2042  0.4865 -0.7985
  467MOL0     C61541   8.895   6.928   1.886 -0.4260 -0.5310  1.0146
  467MOL0     O61542   8.770   6.900   1.916 -0.6638  0.8747 -0.3804
  467MOL0     C61543   8.660   6.926   1.846 -0.4370  1.1387 -0.4221
  467MOL0     C61544   8.650   6.982   1.716  0.0557 -0.2618 -0.5011
  467MOL0     C61545   8.529   7.014   1.649 -0.2230 -0.0528  0.6636
  467MOL0     C61546   8.411   6.979   1.713  0.1441 -0.0137  0.2225
  467MOL0     O61547   8.281   7.004   1.674  0.5641  0.3494  0.2988
  467MOL0     C61548   8.272   7.057   1.540 -0.4909  0.1271  0.1809
  467MOL0     C61549   8.120   7.084   1.507  0.9727 -1.2173  1.2002
  467MOL0     C61550   8.069   7.203   1.598 -1.2292 -0.0910 -0.6769
  467MOL0     C61551   7.943   7.276   1.535  0.3189 -0.8351  0.4713
  467MOL0     C61552   7.809   7.209   1.573  0.0095 -0.1550  0.4326
  467MOL0     C61553   7.679   7.279   1.518  0.5544  0.1793 -0.2769
  467MOL0     C61554   7.557   7.189   1.538  0.4364 -1.1014 -0.2369
  467MOL0     C61555   7.423   7.260   1.539  0.8284  0.0546 -0.0095
  467MOL0    Cl61556   7.342   7.222   1.390  0.4914  0.0503 -0.1929
  467MOL0     C61557   8.417   6.926   1.845  0.3731 -0.2157  0.1905
  467MOL0     C61558   8.538   6.908   1.905  0.8903  0.7563 -0.6252
  467MOL0     O61559   8.942   6.970   1.777  0.9659  0.4917 -0.6293
  467MOL0     C61560   9.133   6.905   1.981  0.4799 -0.1975  0.5748
  467MOL0     C61561   9.217   6.883   2.087  0.4894 -0.7418  1.1409
  467MOL0     N61562   9.032   6.969   2.927  0.3256  0.1497 -0.4711
  467MOL0     N61563   9.039   6.989   3.057 -0.3376 -0.7915 -0.3086
  467MOL0     C61564   9.992   7.229   3.936 -0.1252  0.6293 -0.0338
  467MOL0     C61565  10.065   7.135   4.007 -0.5076  0.3978  0.0948
  467MOL0     C61566  10.251   6.750   4.146 -0.0408 -0.5553 -0.4298
  467MOL0     C61567  10.391   6.757   4.128  0.6835 -0.4975  0.4173
  467MOL0     C61568  10.474   6.653   4.173 -0.7535  0.9629 -0.0133
  467MOL0     C61569  10.425   6.546   4.248  1.1084  0.3469 -0.1825
  467MOL0     O61570  10.525   6.456   4.280  0.6520  0.4720 -0.7936
  467MOL0     C61571  10.494   6.349   4.371  0.4933 -0.2151 -0.0270
  467MOL0     C61572  10.617   6.273   4.426  1.1291  0.0395  0.4978
  467MOL0     C61573  10.728   6.353   4.491 -1.3513  0.8186 -0.3371
  467MOL0     C61574  10.842   6.240   4.508 -0.5262  0.4269  0.3536
  467MOL0     C61575  10.903   6.200   4.385  0.7336  0.5351  0.2482
  467MOL0     C61576  10.942   6.136   4.290 -0.6186 -1.1013  0.2826
  467MOL0     C61577  10.283   6.540   4.271 -1.1450  0.5751 -0.3996
  467MOL0     C61578  10.203   6.640   4.217  0.1534  0.4142  0.5042
  467MOL0     H61579  10.227   6.985   3.742 -0.6548 -0.5568  0.0374
  467MOL0     H61580  10.097   7.135   3.623  0.3627  2.2575 -0.4918
  467MOL0     H61581   9.800   7.147   3.659 -4.8439  2.0659  0.7857
  467MOL0     H61582   9.885   7.247   3.528  1.2786  1.0361  0.1711
  467MOL0     H61583   9.730   7.428   3.573  2.8026 -0.0246 -1.0894
  467MOL0     H61584   9.651   7.334   3.696  0.5204  1.0182 -0.5775
  467MOL0     H61585   9.687   7.253   3.406 -1.5195 -1.8965 -0.4919
  467MOL0     H61586   9.563   7.364   3.444 -1.1993 -1.0857 -1.2919
  467MOL0     H61587   9.602   7.088   3.582 -0.3744 -1.5818 -1.3161
  467MOL0     H61588   9.465   7.191   3.608 -1.5399 -2.7957 -0.0278
  467MOL0     H61589   9.466   7.008   3.399 -2.3621  0.0726 -0.7765
  467MOL0     H61590   9.522   7.140   3.314  2.0849  0.4292  0.9607
  467MOL0     H61591   9.328   7.282   3.435  2.5415 -0.8584  2.2127
  467MOL0     H61592   9.266   7.129   3.490  1.0613 -1.1182  2.0507
  467MOL0     H61593   9.154   7.190   3.293  0.5678  1.6031  0.9394
  467MOL0     H61594   9.315   7.209   3.201  0.0246  0.1823  1.7029
  467MOL0     H61595   9.189   6.954   3.318  0.1983  0.9752  0.9945
  467MOL0     H61596   9.332   6.980   3.219  0.0252  1.2630  0.3535
  467MOL0     H61597   9.346   7.025   2.976 -0.8947  2.4771  2.7356
  467MOL0     H61598   9.297   7.064   2.739 -1.5934  1.1325 -1.9947
  467MOL0     H61599   9.128   7.027   2.682 -1.6976 -1.6625  0.9075
  467MOL0     H61600   9.193   6.776   2.710  2.0609 -2.4422 -1.8591
  467MOL0     H61601   9.350   6.820   2.750  1.6061 -0.9996 -4.0052
  467MOL0     H61602   9.380   6.937   2.529 -0.1921  0.4033  1.6324
  467MOL0     H61603   9.377   6.756   2.537 -0.3710 -0.6341 -0.3179
  467MOL0     H61604   9.132   6.923   2.466  2.0217  2.0397  0.1046
  467MOL0     H61605   9.149   6.750   2.480  2.9320 -1.8992 -2.5472
  467MOL0     H61606   9.003   6.802   2.332  2.3005  0.6268  1.3918
  467MOL0     H61607   8.838   6.833   2.133  0.0375 -2.4944 -1.8938
  467MOL0     H61608   8.736   7.033   1.674 -2.0784  3.0311 -1.3217
  467MOL0     H61609   8.537   7.061   1.551 -0.4481 -0.2899  0.5307
  467MOL0     H61610   8.318   6.994   1.464  1.5840  0.5330  1.0303
  467MOL0     H61611   8.323   7.154   1.530 -0.2399 -0.0327 -0.0896
  467MOL0     H61612   8.070   6.987   1.512  1.3053 -1.5259 -0.7223
  467MOL0     H61613   8.106   7.122   1.406  1.4609 -0.3608  1.4455
  467MOL0     H61614   8.146   7.280   1.608 -0.9823  0.1090 -3.4781
  467MOL0     H61615   8.040   7.156   1.693 -0.3333 -0.3902 -0.5383
  467MOL0     H61616   7.939   7.382   1.564 -1.9584 -0.5342 -0.7441
  467MOL0     H61617   7.943   7.276   1.426 -0.8946 -1.6856  0.4601
  467MOL0     H61618   7.803   7.203   1.682 -0.2299 -1.4958  0.3645
  467MOL0     H61619   7.816   7.108   1.533  1.8916  0.2665 -0.4495
  467MOL0     H61620   7.680   7.280   1.409  1.9949 -4.8323 -0.5742
  467MOL0     H61621   7.662   7.381   1.555  0.5444  0.2837 -0.5683
  467MOL0     H61622   7.560   7.121   1.452  2.3688  3.0889 -3.9026
  467MOL0     H61623   7.568   7.140   1.635  2.8444  2.4054  1.4877
  467MOL0     H61624   7.426   7.368   1.557 -1.8884 -0.2881  3.5489
  467MOL0     H61625   7.361   7.234   1.625  2.2837  1.3349  1.5006
  467MOL0     H61626   8.320   6.910   1.891 -1.8838  2.2230 -3.2532
  467MOL0     H61627   8.540   6.872   2.008 -1.7817 -1.6809 -1.3160
  467MOL0     H61628   9.168   6.953   1.890  0.5017  2.6677  1.9820
  467MOL0     H61629   9.325   6.889   2.073  0.4149 -0.8174  0.5344
  467MOL0     H61630   9.935   7.310   3.981 -0.0215  0.5962  0.1583
  467MOL0     H61631  10.052   7.117   4.114 -3.1328  1.0838 -0.0307
  467MOL0     H61632  10.447   6.835   4.076  0.5822  1.6847  3.3132
  467MOL0     H61633  10.579   6.664   4.145  0.1075 -2.4154  1.4752
  467MOL0     H61634  10.426   6.274   4.329  1.2614 -1.4025  0.7673
  467MOL0     H61635  10.439   6.400   4.451 -0.0736 -0.8063 -0.0272
  467MOL0     H61636  10.583   6.206   4.506  0.2715 -0.6544 -0.4334
  467MOL0     H61637  10.646   6.211   4.341 -0.9683 -1.3673  0.7403
  467MOL0     H61638  10.695   6.391   4.588  1.7688  3.2085 -0.0706
  467MOL0     H61639  10.782   6.426   4.430  0.1890  1.1519  1.3415
  467MOL0     H61640  10.918   6.274   4.579  2.0680 -0.8583 -1.6610
  467MOL0     H61641  10.807   6.152   4.564 -0.7171 -1.0198 -1.9355
  467MOL0     H61642  10.969   6.094   4.195  0.1498 -1.7683  0.7829
  467MOL0     H61643  10.248   6.461   4.335 -0.0313 -0.6123 -1.2034
  467MOL0     H61644  10.096   6.622   4.228 -0.3251  1.3725 -1.8247
  468MOL0     O61645   7.232   5.957   3.571 -0.0652  0.4839  0.2495
  468MOL0     C61646   7.127   5.916   3.623 -1.4040 -0.8043 -0.0131
  468MOL0     O61647   7.107   5.784   3.656  0.0386 -0.0722 -0.7054
  468MOL0     C61648   7.205   5.689   3.634 -0.6508  0.2452  0.1206
  468MOL0     C61649   7.245   5.619   3.753  0.4098  0.1047  0.1282
  468MOL0     C61650   7.343   5.519   3.743  0.4297 -0.0636 -0.4580
  468MOL0     C61651   7.400   5.499   3.620 -0.7674  0.3886  0.1741
  468MOL0     O61652   7.473   5.384   3.611 -0.6512 -0.4889 -0.3811
  468MOL0     C61653   7.549   5.371   3.498  0.5601  0.2550 -0.0149
  468MOL0     C61654   7.668   5.478   3.468  0.6922 -0.4653 -0.1709
  468MOL0     C61655   7.729   5.449   3.339  0.0393 -0.1637  0.5565
  468MOL0     C61656   7.628   5.459   3.223  0.5007  0.2819  1.3862
  468MOL0     C61657   7.708   5.457   3.088 -0.3809  0.5422  0.4126
  468MOL0     C61658   7.633   5.520   2.968  0.1423 -0.0136 -0.9208
  468MOL0     C61659   7.734   5.519   2.852  0.7068  0.1948 -0.0846
  468MOL0     C61660   7.671   5.568   2.724 -0.6795 -0.4060 -0.4339
  468MOL0     N61661   7.782   5.571   2.626  0.3835  0.2657  0.6198
  468MOL0     C61662   7.893   5.652   2.633  0.4732 -0.7663 -0.1299
  468MOL0     C61663   7.964   5.612   2.529 -0.4531  0.5602  0.2209
  468MOL0     C61664   8.106   5.658   2.500  1.0658  0.7743 -0.2515
  468MOL0     C61665   8.091   5.785   2.417 -0.2331  0.3823 -0.0693
  468MOL0     C61666   8.012   5.785   2.277  0.2670 -0.1068 -1.3103
  468MOL0     C61667   8.050   5.684   2.172 -0.5689  0.9317  0.9518
  468MOL0     O61668   8.015   5.717   2.039  0.8716 -0.3623 -0.7021
  468MOL0     C61669   7.884   5.739   2.003  0.1526 -0.6604  0.3628
  468MOL0     C61670   7.767   5.683   2.063  0.9301 -0.9446 -0.1060
  468MOL0     C61671   7.638   5.715   2.022  0.7090  0.1773 -1.0497
  468MOL0     C61672   7.624   5.788   1.897  0.4889 -0.0198  0.3498
  468MOL0     C61673   7.487   5.797   1.841 -0.5223  0.1690 -1.0871
  468MOL0     O61674   7.386   5.794   1.936  0.4419  0.1813  0.5653
  468MOL0     C61675   7.255   5.803   1.879 -0.5724  0.4174 -0.9380
  468MOL0     C61676   7.146   5.715   1.918 -0.0907 -1.0846 -0.2909
  468MOL0     C61677   7.013   5.752   1.893 -0.0489 -0.1951  1.1470
  468MOL0     C61678   6.980   5.874   1.818 -0.6267  0.1149  0.2032
  468MOL0     O61679   6.848   5.907   1.795  0.5672  0.8135  0.2071
  468MOL0     C61680   6.825   6.036   1.753 -0.2819 -0.6580  0.7443
  468MOL0     C61681   6.673   6.064   1.749  0.4165  0.2965  0.9991
  468MOL0     C61682   6.589   5.970   1.654  0.8835 -0.1848 -0.6471
  468MOL0     C61683   6.574   6.023   1.508 -0.2179 -0.2009  0.5140
  468MOL0     C61684   6.532   5.925   1.394 -0.1684 -0.1727  0.0954
  468MOL0     C61685   6.611   5.796   1.379  0.0916 -0.1711  0.0721
  468MOL0     C61686   6.577   5.736   1.238  0.5561  0.2265 -0.7401
  468MOL0     C61687   6.612   5.589   1.257  0.0060 -0.2877  0.4317
  468MOL0    Cl61688   6.589   5.479   1.115 -0.1463 -0.0717  0.1283
  468MOL0     C61689   7.090   5.959   1.789  0.2556 -0.1767 -0.8098
  468MOL0     C61690   7.219   5.930   1.824 -0.6352  0.0372  0.1788
  468MOL0     O61691   7.467   5.808   1.723  0.0842  0.9957 -0.3252
  468MOL0     C61692   7.735   5.840   1.837  0.0833  0.1652  0.2390
  468MOL0     C61693   7.865   5.813   1.885  0.8680  0.1466  0.6363
  468MOL0     N61694   7.900   5.511   2.452 -0.3377  0.0688  0.2789
  468MOL0     N61695   7.784   5.487   2.512 -0.0033 -0.2861  0.0369
  468MOL0     C61696   7.357   5.564   3.503 -0.7879  0.2430 -0.6088
  468MOL0     C61697   7.262   5.665   3.504  0.0667  0.0674  0.6298
  468MOL0     C61698   7.028   6.006   3.674 -0.1360 -0.6913  0.7157
  468MOL0     C61699   6.905   5.961   3.711 -0.0548  0.2774  0.1173
  468MOL0     C61700   6.809   6.055   3.759  0.7426  0.1417 -0.5315
  468MOL0     C61701   6.833   6.194   3.753 -0.0046  0.2741 -0.6032
  468MOL0     O61702   6.741   6.296   3.785 -0.4465  0.1924  0.6079
  468MOL0     C61703   6.617   6.256   3.840 -0.7405  0.3298  0.1830
  468MOL0     C61704   6.508   6.366   3.830 -1.4111  0.5477 -0.1858
  468MOL0     C61705   6.405   6.344   3.935  0.5693 -0.7449 -0.0916
  468MOL0     C61706   6.332   6.206   3.929 -0.0107  0.1203  0.2221
  468MOL0     C61707   6.222   6.205   4.029  0.6193  0.0813 -0.3779
  468MOL0     C61708   6.127   6.189   4.100 -0.0771  0.1716 -1.1373
  468MOL0     C61709   6.954   6.239   3.708  0.3740 -0.4277  0.1011
  468MOL0     C61710   7.055   6.144   3.671  0.2222 -0.7092 -0.4432
  468MOL0     H61711   7.192   5.641   3.845 -2.8018 -2.1821 -0.9982
  468MOL0     H61712   7.371   5.468   3.834 -0.1161 -0.7683 -0.6713
  468MOL0     H61713   7.485   5.356   3.411 -0.6148 -2.7618  1.2217
  468MOL0     H61714   7.586   5.270   3.521  0.7639  0.7559  2.0576
  468MOL0     H61715   7.736   5.465   3.553 -0.7080 -2.0974  0.7762
  468MOL0     H61716   7.635   5.582   3.478  0.0661 -0.7059  0.3803
  468MOL0     H61717   7.753   5.343   3.329 -3.4271 -0.9310 -1.0567
  468MOL0     H61718   7.811   5.520   3.324 -0.5048  0.3681  0.0601
  468MOL0     H61719   7.562   5.373   3.216 -2.5011  2.5104 -0.0872
  468MOL0     H61720   7.558   5.543   3.233 -0.4519  0.0277 -2.0438
  468MOL0     H61721   7.731   5.353   3.063  1.1556  0.5584  1.6296
  468MOL0     H61722   7.804   5.507   3.101 -0.3400  0.4120  0.6080
  468MOL0     H61723   7.599   5.618   3.003 -0.3787 -1.0537  1.6747
  468MOL0     H61724   7.552   5.451   2.944  3.6079 -3.8982 -2.8243
  468MOL0     H61725   7.808   5.593   2.886  1.3928 -1.1871  1.5739
  468MOL0     H61726   7.769   5.416   2.843 -2.5087 -0.9533 -0.6797
  468MOL0     H61727   7.616   5.661   2.741 -1.5701 -1.1325  0.8470
  468MOL0     H61728   7.595   5.495   2.691 -0.7913 -0.5224  0.0778
  468MOL0     H61729   7.914   5.721   2.714  0.7764  1.7089 -2.1898
  468MOL0     H61730   8.155   5.583   2.437  0.1570  0.8777 -1.1019
  468MOL0     H61731   8.163   5.677   2.591 -0.1213 -0.7866  0.8452
  468MOL0     H61732   8.196   5.810   2.396  0.3623 -0.7085  1.4003
  468MOL0     H61733   8.043   5.856   2.485  0.8220  0.4337  0.6539
  468MOL0     H61734   7.904   5.781   2.293  0.2584 -3.2108 -1.5398
  468MOL0     H61735   8.029   5.890   2.249 -0.6053  0.3845 -0.0782
  468MOL0     H61736   8.008   5.590   2.210  0.9336  0.5198  1.6817
  468MOL0     H61737   8.157   5.666   2.160 -0.7279  1.8304 -3.2081
  468MOL0     H61738   7.782   5.622   2.151  1.7512 -0.7372 -0.0898
  468MOL0     H61739   7.557   5.662   2.071  1.6423 -1.6692 -1.4148
  468MOL0     H61740   7.172   5.623   1.969  0.0520 -0.7486  0.2496
  468MOL0     H61741   6.919   5.705   1.922  0.6819 -2.8432 -0.3984
  468MOL0     H61742   6.859   6.049   1.650 -0.6662  1.9770  0.8908
  468MOL0     H61743   6.869   6.113   1.816  1.3241  3.1208 -4.3390
  468MOL0     H61744   6.659   6.170   1.723  0.6920  0.5780  1.9529
  468MOL0     H61745   6.643   6.045   1.853 -1.8941 -0.1879  0.3075
  468MOL0     H61746   6.491   5.956   1.699  0.0372 -3.0414 -3.0059
  468MOL0     H61747   6.641   5.873   1.660  0.9976 -0.2951 -2.6896
  468MOL0     H61748   6.498   6.102   1.510 -0.1618 -0.1499  2.5803
  468MOL0     H61749   6.668   6.077   1.493 -0.3601 -0.0132  0.2704
  468MOL0     H61750   6.537   5.974   1.296 -3.3016  0.8144  0.3216
  468MOL0     H61751   6.426   5.902   1.402 -0.0154 -0.3025  2.4815
  468MOL0     H61752   6.580   5.731   1.461 -3.6744  1.6952  0.3507
  468MOL0     H61753   6.718   5.816   1.386  0.3578 -1.9424  2.3831
  468MOL0     H61754   6.474   5.744   1.202  0.5565 -1.7261 -1.2734
  468MOL0     H61755   6.638   5.784   1.161  3.2467 -2.0789 -0.1980
  468MOL0     H61756   6.562   5.534   1.338 -1.1750 -0.9805 -0.7327
  468MOL0     H61757   6.719   5.599   1.275  0.0056  0.6920 -0.0595
  468MOL0     H61758   7.072   6.058   1.749 -0.7061 -0.6410 -1.5690
  468MOL0     H61759   7.297   5.994   1.785 -1.9816  0.4821 -1.9515
  468MOL0     H61760   7.735   5.885   1.739  1.3053 -0.7012 -0.1832
  468MOL0     H61761   7.954   5.850   1.836  0.0092 -0.1352 -1.2217
  468MOL0     H61762   7.392   5.534   3.405 -1.2973  0.1807 -0.7742
  468MOL0     H61763   7.221   5.719   3.419 -2.2059 -2.8831 -0.3513
  468MOL0     H61764   6.868   5.861   3.690  0.0245  0.3751 -0.5206
  468MOL0     H61765   6.710   6.032   3.795  0.1263 -0.4261 -2.4478
  468MOL0     H61766   6.639   6.210   3.937  3.6189 -1.7873 -1.5282
  468MOL0     H61767   6.579   6.176   3.775  1.6600  0.2788 -1.2812
  468MOL0     H61768   6.549   6.463   3.857  2.0299 -0.4336 -1.3827
  468MOL0     H61769   6.464   6.386   3.731 -0.2389  3.3293 -0.2159
  468MOL0     H61770   6.326   6.419   3.926  1.2751 -0.1297 -1.5424
  468MOL0     H61771   6.443   6.355   4.037 -3.8011 -1.2568  1.8019
  468MOL0     H61772   6.302   6.187   3.826  1.3047  0.7700 -0.2946
  468MOL0     H61773   6.406   6.132   3.960  2.2117  0.9017 -2.8220
  468MOL0     H61774   6.042   6.215   4.161  0.9050  0.7786  0.0194
  468MOL0     H61775   6.956   6.345   3.687 -1.9977 -0.8482 -3.0571
  468MOL0     H61776   7.151   6.182   3.636  0.8559 -2.7133 -1.0509
  469MOL0     O61777   3.191   9.597  10.042 -0.3227 -0.3879 -0.1486
  469MOL0     C61778   3.095   9.542  10.093  0.0494  0.2567 -0.3269
  469MOL0     O61779   3.036   9.587  10.207 -0.0802 -0.1041  0.1242
  469MOL0     C61780   3.061   9.712  10.270  0.8221 -0.1372  0.0119
  469MOL0     C61781   3.119   9.832  10.220 -1.1196  0.0165  0.1350
  469MOL0     C61782   3.137   9.939  10.298  0.7721 -0.8333 -0.4349
  469MOL0     C61783   3.085   9.942  10.432 -0.1657 -0.4641 -0.9390
  469MOL0     O61784   3.130  10.051  10.499 -0.8768 -0.0886  0.0277
  469MOL0     C61785   3.044  10.103  10.602  0.4608 -0.3809  0.1089
  469MOL0     C61786   3.085  10.247  10.643 -0.3117  0.0711  0.1615
  469MOL0     C61787   3.046  10.334  10.517 -1.1403  0.4024  1.2568
  469MOL0     C61788   3.047  10.484  10.538  0.3385  0.4896 -0.0478
  469MOL0     C61789   3.004  10.550  10.409 -0.3443  1.0674 -0.1401
  469MOL0     C61790   2.963  10.695  10.426 -0.6962  0.1842 -0.0250
  469MOL0     C61791   3.066  10.776  10.510  0.0532 -0.0941  0.2110
  469MOL0     C61792   3.024  10.921  10.506 -0.3126  0.1468  0.0500
  469MOL0     N61793   3.084  10.984  10.379 -0.0894  0.1245 -1.2278
  469MOL0     C61794   3.223  10.985  10.344  0.2560  0.2434 -0.4007
  469MOL0     C61795   3.229  11.066  10.240  0.9339 -0.9487  1.2633
  469MOL0     C61796   3.362  11.113  10.183 -0.3458 -1.2430 -0.5919
  469MOL0     C61797   3.425  11.022  10.089  0.2257 -0.2516 -0.0980
  469MOL0     C61798   3.445  10.876  10.147  0.3375 -0.1070 -0.5099
  469MOL0     C61799   3.525  10.787  10.042 -0.0799 -0.8612  0.2024
  469MOL0     O61800   3.445  10.752   9.923  1.2217  0.1548 -0.1381
  469MOL0     C61801   3.337  10.669   9.938  0.8084 -0.0734  0.6091
  469MOL0     C61802   3.256  10.652   9.827  0.0065  0.1587  0.7197
  469MOL0     C61803   3.150  10.554   9.836  0.4500 -0.6910  0.4155
  469MOL0     C61804   3.119  10.478   9.953  0.6571  0.2266  0.2267
  469MOL0     C61805   3.016  10.372   9.960  0.9230 -0.2886 -0.0273
  469MOL0     O61806   2.960  10.349  10.085  0.5023 -0.0459  0.0911
  469MOL0     C61807   2.871  10.248  10.098  0.4507 -0.6541  0.1737
  469MOL0     C61808   2.739  10.263  10.040  0.9094 -0.9011  0.2567
  469MOL0     C61809   2.645  10.170  10.083 -0.0755 -0.3436  0.0256
  469MOL0     C61810   2.682  10.055  10.157 -0.3544 -1.0854 -0.0331
  469MOL0     O61811   2.579   9.963  10.165  1.1117  0.6000 -0.3784
  469MOL0     C61812   2.633   9.827  10.189  0.0454 -0.6863 -0.4387
  469MOL0     C61813   2.537   9.711  10.183  0.1508  0.3435 -0.8590
  469MOL0     C61814   2.600   9.584  10.235 -0.4830  0.1375 -0.2673
  469MOL0     C61815   2.703   9.526  10.142 -0.6693 -1.0379  0.1926
  469MOL0     C61816   2.626   9.463  10.021  0.3287  0.5065  0.8488
  469MOL0     C61817   2.707   9.366   9.938 -0.0809  0.3574  1.0686
  469MOL0     C61818   2.615   9.277   9.846  0.0656 -0.7746  0.4607
  469MOL0     C61819   2.552   9.349   9.722 -0.2297  0.4818 -0.0470
  469MOL0    Cl61820   2.411   9.459   9.752  0.0733 -0.1040 -0.1321
  469MOL0     C61821   2.818  10.044  10.198 -0.2125 -0.3263 -0.3947
  469MOL0     C61822   2.907  10.141  10.177  0.3615 -0.8066  0.6940
  469MOL0     O61823   2.995  10.308   9.862 -0.2727 -1.1346 -0.3361
  469MOL0     C61824   3.193  10.512  10.060 -0.0097 -0.0278 -0.3934
  469MOL0     C61825   3.299  10.604  10.059 -0.7632  0.7310  0.0749
  469MOL0     N61826   3.097  11.113  10.203 -0.3541  0.7841 -0.7241
  469MOL0     N61827   3.012  11.045  10.286 -0.0045  1.3441  0.4732
  469MOL0     C61828   3.017   9.830  10.481 -0.3924 -0.2802  0.1453
  469MOL0     C61829   3.016   9.716  10.401 -0.4548  0.7592 -0.3266
  469MOL0     C61830   3.060   9.399  10.040  0.0246 -0.4020 -0.5714
  469MOL0     C61831   3.008   9.309  10.126  0.7093  0.1852  0.8213
  469MOL0     C61832   2.978   9.178  10.075  0.0662 -0.2006  0.1342
  469MOL0     C61833   3.005   9.141   9.949  0.6877 -0.4500  0.4578
  469MOL0     O61834   2.972   9.012   9.920  0.3771  0.2586  0.0251
  469MOL0     C61835   3.000   8.954   9.795 -0.4560 -0.1349  0.8558
  469MOL0     C61836   2.901   8.990   9.680  0.3067 -0.4806  0.6764
  469MOL0     C61837   2.753   8.943   9.707  0.3715 -0.6968 -0.0209
  469MOL0     C61838   2.670   8.951   9.575 -0.2030  0.2610 -0.6369
  469MOL0     C61839   2.699   8.835   9.486  0.6930  0.4804 -0.8369
  469MOL0     C61840   2.702   8.741   9.413  0.0785 -0.5051 -0.0048
  469MOL0     C61841   3.060   9.239   9.858  0.3125  0.1005 -0.0687
  469MOL0     C61842   3.087   9.365   9.907  0.0945  0.3372 -0.3239
  469MOL0     H61843   3.146   9.837  10.115  0.5890  0.0649  0.5585
  469MOL0     H61844   3.199  10.015  10.252 -1.8299 -0.9721 -4.7648
  469MOL0     H61845   3.032  10.031  10.684  0.6140  0.9929  1.3798
  469MOL0     H61846   2.944  10.106  10.559  0.0572 -0.9460  0.9681
  469MOL0     H61847   3.190  10.250  10.672 -0.5367 -0.8816  1.1494
  469MOL0     H61848   3.037  10.279  10.736  0.4032 -0.8811  0.8647
  469MOL0     H61849   2.946  10.309  10.479 -1.7608  4.1277  0.0538
  469MOL0     H61850   3.109  10.309  10.431 -2.2728  0.7659  0.2914
  469MOL0     H61851   2.977  10.509  10.618 -0.7149 -1.9883 -0.1326
  469MOL0     H61852   3.148  10.514  10.569  0.1955 -0.3845  1.3546
  469MOL0     H61853   2.922  10.491  10.367  0.0352  0.4532 -0.0332
  469MOL0     H61854   3.087  10.542  10.338 -0.3019 -2.9311  0.0918
  469MOL0     H61855   2.865  10.700  10.473  0.2303 -2.8411  2.5740
  469MOL0     H61856   2.956  10.729  10.322 -1.2140 -4.4867 -1.7546
  469MOL0     H61857   3.067  10.745  10.615  1.5099 -2.7189 -0.5081
  469MOL0     H61858   3.173  10.773  10.490 -0.1731  0.4100 -1.1872
  469MOL0     H61859   3.066  10.967  10.596 -0.3401 -1.6916  1.0624
  469MOL0     H61860   2.915  10.927  10.516 -0.5273 -1.4046 -1.0312
  469MOL0     H61861   3.305  10.932  10.392  0.6384  0.9010 -0.3246
  469MOL0     H61862   3.423  11.129  10.272 -0.0882  0.5385 -1.0446
  469MOL0     H61863   3.363  11.218  10.150  2.8134 -1.1008 -0.3346
  469MOL0     H61864   3.530  11.054  10.083 -0.4598  2.3524  0.2495
  469MOL0     H61865   3.375  11.029   9.991  1.7364 -2.8460 -1.1532
  469MOL0     H61866   3.497  10.877  10.243 -1.0701  0.1267  0.2877
  469MOL0     H61867   3.347  10.830  10.168  0.3724  0.8299  2.0185
  469MOL0     H61868   3.553  10.696  10.097 -2.0160 -2.2773 -1.0287
  469MOL0     H61869   3.612  10.843  10.005 -0.7015  0.6724  0.9948
  469MOL0     H61870   3.272  10.708   9.736 -1.3578 -0.1755  0.2584
  469MOL0     H61871   3.096  10.522   9.747  0.0013 -2.0114  1.1316
  469MOL0     H61872   2.712  10.349   9.980 -3.4383 -2.5700 -0.5117
  469MOL0     H61873   2.544  10.167  10.044 -0.4879 -0.1467  1.0406
  469MOL0     H61874   2.672   9.825  10.291 -0.9500  2.7113  0.1286
  469MOL0     H61875   2.711   9.812  10.114  0.3693  0.2035 -0.2767
  469MOL0     H61876   2.488   9.708  10.086 -0.6016  1.2945 -0.5291
  469MOL0     H61877   2.460   9.735  10.257  1.5014 -1.5991  1.3472
  469MOL0     H61878   2.517   9.513  10.244  0.0019 -1.1157 -3.8942
  469MOL0     H61879   2.636   9.587  10.338 -0.1193 -3.8534 -0.1370
  469MOL0     H61880   2.766   9.607  10.103 -0.1623 -2.2420 -1.6413
  469MOL0     H61881   2.760   9.446  10.191  0.1536  0.1339  1.2016
  469MOL0     H61882   2.587   9.537   9.952  2.1065 -0.6907 -1.5985
  469MOL0     H61883   2.533   9.413  10.046  0.9869 -1.7226 -0.8712
  469MOL0     H61884   2.768   9.302  10.002 -0.5684  0.1267  1.3053
  469MOL0     H61885   2.769   9.421   9.867 -0.5444  0.3309  0.6403
  469MOL0     H61886   2.690   9.209   9.806  0.9255  1.7731 -2.7053
  469MOL0     H61887   2.536   9.224   9.900 -1.2636  0.6787  0.0581
  469MOL0     H61888   2.511   9.269   9.660  1.0475  0.8371 -1.4012
  469MOL0     H61889   2.634   9.405   9.676  4.5135 -2.6655  3.5050
  469MOL0     H61890   2.845   9.961  10.263 -0.1827  0.4219  0.5635
  469MOL0     H61891   2.997  10.142  10.237  0.4996  2.4158  0.5996
  469MOL0     H61892   3.180  10.456  10.152  0.3877  0.8357  0.1986
  469MOL0     H61893   3.361  10.590  10.147  0.1465 -0.5207 -0.7251
  469MOL0     H61894   2.974   9.841  10.580  4.7698  2.3502  2.4794
  469MOL0     H61895   2.979   9.631  10.457  0.4379  0.6783  0.1640
  469MOL0     H61896   2.976   9.332  10.227  1.5372  1.4251  0.8285
  469MOL0     H61897   2.937   9.109  10.148 -0.6803  0.4127  0.3199
  469MOL0     H61898   3.000   8.845   9.798  0.5122 -0.1279  2.0107
  469MOL0     H61899   3.101   8.986   9.765 -0.0653 -2.0735 -0.0461
  469MOL0     H61900   2.893   9.096   9.657  1.6585 -0.7114 -1.0439
  469MOL0     H61901   2.931   8.936   9.590 -3.0238 -4.0903  1.4456
  469MOL0     H61902   2.705   8.996   9.790 -2.4628 -0.2359 -1.8259
  469MOL0     H61903   2.741   8.839   9.741  1.8878 -0.7291  0.4889
  469MOL0     H61904   2.565   8.950   9.605 -0.0520  2.1567  0.1241
  469MOL0     H61905   2.697   9.044   9.524  4.3210 -0.6937 -0.4649
  469MOL0     H61906   2.697   8.654   9.350  1.7824  0.1116 -1.0627
  469MOL0     H61907   3.090   9.222   9.755 -1.9288  0.6690 -0.8824
  469MOL0     H61908   3.131   9.444   9.846 -0.2064  1.1050  0.4383
  470MOL0     O61909   1.859   6.773   0.564 -0.5466 -0.3865 -0.3235
  470MOL0     C61910   1.779   6.847   0.624 -0.8954  0.2616 -0.7613
  470MOL0     O61911   1.661   6.821   0.690 -0.1929  0.1709 -0.2514
  470MOL0     C61912   1.599   6.702   0.668  0.0327  0.1811 -0.0626
  470MOL0     C61913   1.656   6.573   0.694  0.4546 -0.8856  0.1627
  470MOL0     C61914   1.566   6.458   0.697 -1.6401  0.4310 -0.1902
  470MOL0     C61915   1.425   6.475   0.676  0.1798 -0.2798 -0.5493
  470MOL0     O61916   1.331   6.370   0.684 -0.4321  0.2191 -0.2746
  470MOL0     C61917   1.367   6.230   0.675 -1.2398 -1.1947 -0.6229
  470MOL0     C61918   1.242   6.155   0.635  1.1436  0.6249 -0.0058
  470MOL0     C61919   1.286   6.017   0.600 -0.0360  0.1201 -0.0607
  470MOL0     C61920   1.159   5.926   0.559  0.3101  0.8898 -0.1189
  470MOL0     C61921   1.119   5.930   0.410 -0.1686 -0.1669 -0.5878
  470MOL0     C61922   0.999   5.842   0.376 -0.2173 -0.2860 -0.1475
  470MOL0     C61923   0.962   5.858   0.226  0.0346  0.9684 -0.3713
  470MOL0     C61924   0.914   5.999   0.193  0.3973 -0.4448  0.2277
  470MOL0     N61925   0.781   6.026   0.268 -0.2594  0.2318  0.3904
  470MOL0     C61926   0.754   6.073   0.399 -0.8792  0.2512  0.0573
  470MOL0     C61927   0.623   6.068   0.407 -0.4576 -0.2216  0.1087
  470MOL0     C61928   0.554   6.127   0.521  0.5838 -0.4943  0.4012
  470MOL0     C61929   0.444   6.041   0.574  0.0388 -1.0500 -0.3562
  470MOL0     C61930   0.307   6.012   0.508 -0.0507 -0.3807 -0.0006
  470MOL0     C61931   0.252   6.140   0.457 -0.0952 -0.8404  0.1971
  470MOL0     O61932   0.112   6.138   0.456 -0.0550 -0.6050  0.6749
  470MOL0     C61933   0.049   6.134   0.579 -0.9191 -0.2648  0.5739
  470MOL0     C61934   0.093   6.208   0.693  0.9684  0.4237  0.7159
  470MOL0     C61935   0.012   6.216   0.801 -0.3712  0.1417 -0.4658
  470MOL0     C61936  -0.117   6.168   0.804 -0.4322  0.6166  0.0803
  470MOL0     C61937  -0.204   6.198   0.926 -0.2927 -0.1694  0.3411
  470MOL0     O61938  -0.317   6.140   0.935  0.7339 -0.0038 -0.0853
  470MOL0     C61939  -0.403   6.192   1.035 -0.4418  0.5352 -0.1809
  470MOL0     C61940  -0.381   6.183   1.172  0.3557  0.3131  0.6374
  470MOL0     C61941  -0.473   6.235   1.267  0.2987  0.0549 -0.2314
  470MOL0     C61942  -0.585   6.302   1.231  0.3955 -0.0063 -0.1879
  470MOL0     O61943  -0.666   6.342   1.328 -0.2764 -0.3680  0.0968
  470MOL0     C61944  -0.611   6.448   1.410 -0.4108  0.0581  0.2392
  470MOL0     C61945  -0.733   6.537   1.465  0.8160  0.2386  1.0780
  470MOL0     C61946  -0.710   6.598   1.605 -0.4038 -0.6846 -0.6193
  470MOL0     C61947  -0.837   6.673   1.658 -0.6066 -0.2758  1.1819
  470MOL0     C61948  -0.957   6.588   1.698  0.0554  0.6119  0.2445
  470MOL0     C61949  -1.063   6.667   1.773  0.1277  0.1633  0.1893
  470MOL0     C61950  -1.203   6.617   1.740 -0.8049 -0.6855  0.0930
  470MOL0     C61951  -1.283   6.659   1.860  0.3307 -0.0244 -0.9496
  470MOL0    Cl61952  -1.458   6.610   1.828  0.3214 -0.2094  0.3915
  470MOL0     C61953  -0.611   6.313   1.094  0.0142 -0.9013 -0.1691
  470MOL0     C61954  -0.517   6.259   0.995  0.8596  0.5616  0.1460
  470MOL0     O61955  -0.164   6.294   0.993  0.0081 -0.1156  0.1322
  470MOL0     C61956  -0.158   6.090   0.691 -0.5694 -0.0519  0.2472
  470MOL0     C61957  -0.076   6.075   0.579  0.1669 -1.3438  0.6471
  470MOL0     N61958   0.563   6.008   0.293  0.0092  0.2140  1.1287
  470MOL0     N61959   0.664   5.988   0.208  0.1806  0.7345  0.1942
  470MOL0     C61960   1.372   6.603   0.660  0.4413 -0.9055  0.4348
  470MOL0     C61961   1.460   6.716   0.662  0.2842 -0.5968  0.6958
  470MOL0     C61962   1.843   6.980   0.642  0.2659 -0.1393 -0.8691
  470MOL0     C61963   1.972   7.016   0.589  0.5988  1.4872 -0.2011
  470MOL0     C61964   2.030   7.139   0.618 -0.1040  0.5323  0.0029
  470MOL0     C61965   1.975   7.224   0.712  0.2705  0.3076  0.2478
  470MOL0     O61966   2.008   7.352   0.729 -1.0294  0.1091 -0.1671
  470MOL0     C61967   1.968   7.456   0.636 -0.0255 -0.0792 -0.5234
  470MOL0     C61968   2.026   7.601   0.667  0.0969  0.1824  0.0286
  470MOL0     C61969   2.175   7.604   0.653  0.2997 -0.0365 -0.2967
  470MOL0     C61970   2.244   7.736   0.701 -0.6202 -0.8064  0.5965
  470MOL0     C61971   2.228   7.835   0.597  1.2234 -0.1017  0.1571
  470MOL0     C61972   2.182   7.917   0.513  0.3894 -0.7338 -0.0435
  470MOL0     C61973   1.859   7.179   0.782 -0.1142 -0.0044  0.5606
  470MOL0     C61974   1.793   7.061   0.738  0.5870  0.3813 -1.2354
  470MOL0     H61975   1.764   6.573   0.702  0.6729  3.1126 -0.7285
  470MOL0     H61976   1.617   6.367   0.727  0.5683  1.4309 -0.6874
  470MOL0     H61977   1.397   6.189   0.772 -0.0789 -0.5488 -0.6974
  470MOL0     H61978   1.451   6.219   0.606 -0.3682  1.7670 -0.1676
  470MOL0     H61979   1.185   6.189   0.548 -0.4053 -5.1245 -1.6351
  470MOL0     H61980   1.179   6.148   0.724 -0.2848 -3.8782 -1.1135
  470MOL0     H61981   1.321   5.962   0.687  1.9543  0.4701 -0.5935
  470MOL0     H61982   1.362   6.017   0.520 -0.6041  1.1900 -0.6202
  470MOL0     H61983   1.174   5.822   0.589 -0.9926  1.4772  2.9234
  470MOL0     H61984   1.073   5.962   0.617 -0.4637 -1.2351  0.1134
  470MOL0     H61985   1.205   5.900   0.349 -2.0103 -0.6487 -3.1086
  470MOL0     H61986   1.077   6.029   0.390 -2.2585 -0.8417  0.2391
  470MOL0     H61987   0.922   5.885   0.441  1.9487  1.8235  1.1665
  470MOL0     H61988   1.013   5.741   0.416 -1.7810  0.0411  1.3305
  470MOL0     H61989   1.046   5.828   0.164 -0.4376  1.4963 -1.2983
  470MOL0     H61990   0.891   5.779   0.200  0.7659 -0.5984  2.0886
  470MOL0     H61991   0.896   5.992   0.085 -0.0710 -2.0411  0.3760
  470MOL0     H61992   0.988   6.077   0.212 -0.8181  0.6702  0.5145
  470MOL0     H61993   0.818   6.113   0.477 -0.7410 -1.6330  0.9842
  470MOL0     H61994   0.517   6.226   0.493  0.9811 -0.0905  1.2601
  470MOL0     H61995   0.626   6.149   0.600  1.1408  0.4531 -0.3473
  470MOL0     H61996   0.424   6.100   0.664  4.1352  1.8678 -1.1021
  470MOL0     H61997   0.491   5.946   0.601 -1.3163 -1.7143 -0.2564
  470MOL0     H61998   0.304   5.934   0.431 -0.9417  0.1838 -0.5661
  470MOL0     H61999   0.242   5.966   0.583 -3.1760 -0.6770 -2.6194
  470MOL0     H62000   0.286   6.168   0.357 -0.0414 -0.0300  0.4306
  470MOL0     H62001   0.281   6.225   0.520  0.2847 -0.3613 -0.6104
  470MOL0     H62002   0.192   6.249   0.714  1.1676  0.2889  0.0715
  470MOL0     H62003   0.063   6.277   0.875  1.0096  0.4104 -1.5893
  470MOL0     H62004  -0.283   6.160   1.211  1.3717  1.7487 -0.9173
  470MOL0     H62005  -0.472   6.224   1.375  2.2134  0.3814 -0.1810
  470MOL0     H62006  -0.542   6.509   1.351  1.1816 -2.4804 -0.6924
  470MOL0     H62007  -0.558   6.394   1.490  1.1852  0.4263 -0.5197
  470MOL0     H62008  -0.822   6.474   1.466 -0.5019  2.0161  0.4904
  470MOL0     H62009  -0.748   6.615   1.390 -0.1540 -0.2718  0.7344
  470MOL0     H62010  -0.622   6.663   1.603 -0.5507 -0.5009 -1.2409
  470MOL0     H62011  -0.700   6.508   1.668 -0.5924 -0.9729 -1.0015
  470MOL0     H62012  -0.799   6.725   1.747  4.8647  0.6461 -1.2916
  470MOL0     H62013  -0.857   6.748   1.581  1.3575 -0.1938  0.6943
  470MOL0     H62014  -0.943   6.501   1.763 -4.7303  2.4421  4.3177
  470MOL0     H62015  -1.006   6.555   1.606  2.1083 -1.3847 -0.2340
  470MOL0     H62016  -1.053   6.776   1.763  1.8521  0.7587  5.3521
  470MOL0     H62017  -1.040   6.655   1.879  0.6374  2.4636  0.3834
  470MOL0     H62018  -1.233   6.669   1.648 -1.6930 -0.0583  0.7229
  470MOL0     H62019  -1.186   6.510   1.725 -0.2057 -0.7545  1.1072
  470MOL0     H62020  -1.283   6.769   1.858 -3.1370  0.0662 -1.6257
  470MOL0     H62021  -1.249   6.625   1.958  1.5184  2.4506 -0.4205
  470MOL0     H62022  -0.689   6.382   1.061 -1.8132 -3.2531 -1.0691
  470MOL0     H62023  -0.546   6.269   0.891 -0.8549 -0.0647  0.5341
  470MOL0     H62024  -0.249   6.032   0.700 -1.8341  2.1077  2.9491
  470MOL0     H62025  -0.111   6.027   0.488 -0.4438 -2.9101  1.6665
  470MOL0     H62026   1.274   6.633   0.624  0.9811 -1.0231 -1.2225
  470MOL0     H62027   1.426   6.816   0.635  1.2635  0.2125  2.2907
  470MOL0     H62028   2.032   6.954   0.523  0.5799  1.7962 -0.5153
  470MOL0     H62029   2.123   7.158   0.564  0.1302 -0.3935  0.0554
  470MOL0     H62030   1.860   7.473   0.640 -0.0135 -0.2290  0.7242
  470MOL0     H62031   2.009   7.433   0.537 -0.4078  1.0212 -0.9531
  470MOL0     H62032   1.991   7.674   0.593 -2.4326  0.3199  1.2645
  470MOL0     H62033   1.984   7.621   0.766 -0.3245  0.0294 -0.1148
  470MOL0     H62034   2.207   7.577   0.552  1.6211 -0.5063  0.2266
  470MOL0     H62035   2.221   7.530   0.720 -3.3758 -2.7488 -0.4564
  470MOL0     H62036   2.201   7.784   0.789 -0.2518  1.3451 -0.3352
  470MOL0     H62037   2.350   7.720   0.721  0.3012  1.9413 -1.4683
  470MOL0     H62038   2.142   7.991   0.446  4.8064 -1.5773 -4.2010
  470MOL0     H62039   1.813   7.237   0.861 -0.7164 -1.6453  1.4484
  470MOL0     H62040   1.702   7.033   0.789  2.0728 -0.9340  0.8248
  471MOL0     O62041   6.103   0.731   1.437  0.2745  0.5568 -0.1118
  471MOL0     C62042   6.099   0.651   1.343  0.3178  0.7044  0.6161
  471MOL0     O62043   6.036   0.672   1.223 -0.7023 -0.0830  0.2691
  471MOL0     C62044   5.971   0.791   1.196 -0.3753 -0.0018 -0.0168
  471MOL0     C62045   6.008   0.869   1.085 -0.0643  0.5995 -0.5115
  471MOL0     C62046   5.933   0.991   1.061 -1.4007  1.3861 -0.4384
  471MOL0     C62047   5.813   1.021   1.128 -0.8547  0.4297 -0.1591
  471MOL0     O62048   5.750   1.126   1.080 -0.3753 -0.0865 -0.1657
  471MOL0     C62049   5.633   1.114   0.990  0.0571  0.3681 -0.2088
  471MOL0     C62050   5.590   1.259   0.964 -0.0324  0.0378  1.0154
  471MOL0     C62051   5.510   1.270   0.836 -0.7953 -0.0276 -0.8943
  471MOL0     C62052   5.370   1.203   0.835  0.2886 -0.5447  0.7031
  471MOL0     C62053   5.288   1.247   0.713  0.4753 -0.3086  0.3942
  471MOL0     C62054   5.343   1.206   0.570 -0.4329  0.3921  0.2305
  471MOL0     C62055   5.257   1.268   0.452  0.0010  1.0258  0.2699
  471MOL0     C62056   5.110   1.214   0.430  0.4124 -0.2012 -0.2451
  471MOL0     N62057   5.096   1.077   0.374 -0.0090 -0.1512 -0.4430
  471MOL0     C62058   5.046   1.053   0.244 -0.0219  0.4400  0.6715
  471MOL0     C62059   5.040   0.917   0.232 -0.0890 -0.2556 -0.6122
  471MOL0     C62060   5.017   0.848   0.106  1.0728  0.7891  0.3422
  471MOL0     C62061   4.869   0.841   0.066  0.6430 -0.2631 -0.5082
  471MOL0     C62062   4.831   0.760  -0.057  1.0442  0.4684 -0.9435
  471MOL0     C62063   4.676   0.788  -0.084 -0.0104  0.1814 -0.2885
  471MOL0     O62064   4.586   0.740   0.018  0.1393  0.1553  0.0612
  471MOL0     C62065   4.495   0.655  -0.022  0.5000 -0.4608  0.0712
  471MOL0     C62066   4.389   0.694  -0.111  0.3879 -0.8206  0.8767
  471MOL0     C62067   4.292   0.601  -0.148 -0.4254  0.7443  0.3711
  471MOL0     C62068   4.308   0.466  -0.122 -0.2555 -0.1165 -0.4190
  471MOL0     C62069   4.224   0.359  -0.181  1.1016 -0.0601 -0.1690
  471MOL0     O62070   4.228   0.238  -0.121  0.4414  0.1990 -0.2920
  471MOL0     C62071   4.120   0.157  -0.143 -0.3070  0.2959 -0.3947
  471MOL0     C62072   4.131   0.041  -0.222 -0.3292 -0.4706 -0.5621
  471MOL0     C62073   4.026  -0.042  -0.255 -0.7137 -0.0945 -0.5113
  471MOL0     C62074   3.899  -0.019  -0.205  0.4413 -0.6004 -0.0826
  471MOL0     O62075   3.806  -0.103  -0.245 -0.1549 -0.5125 -0.2812
  471MOL0     C62076   3.669  -0.058  -0.240  0.0232 -0.1939  1.1685
  471MOL0     C62077   3.563  -0.165  -0.275 -0.0022  0.5655  0.0420
  471MOL0     C62078   3.419  -0.103  -0.302 -0.3229 -0.1885  0.6587
  471MOL0     C62079   3.328  -0.225  -0.332  0.8707  1.2153  0.4946
  471MOL0     C62080   3.183  -0.185  -0.319 -0.5179 -0.0163 -0.3914
  471MOL0     C62081   3.085  -0.304  -0.346  0.4174  1.6104 -0.0747
  471MOL0     C62082   2.937  -0.277  -0.315 -0.3291  0.3401 -0.2743
  471MOL0     C62083   2.857  -0.406  -0.349  0.3415  0.1051  0.8591
  471MOL0    Cl62084   2.866  -0.453  -0.528 -0.2704  0.1766  0.0278
  471MOL0     C62085   3.886   0.099  -0.132  0.3462  0.6549 -0.5061
  471MOL0     C62086   3.990   0.184  -0.096 -0.6754  0.6552  0.1852
  471MOL0     O62087   4.143   0.398  -0.262  1.0649 -0.2022 -0.1256
  471MOL0     C62088   4.414   0.426  -0.036  0.3804  0.4348 -0.6235
  471MOL0     C62089   4.497   0.519   0.015 -1.0249 -0.3598 -0.0196
  471MOL0     N62090   5.090   0.870   0.346 -0.8300 -0.1764 -0.4264
  471MOL0     N62091   5.123   0.963   0.433  0.0841  0.0006  0.6007
  471MOL0     C62092   5.773   0.944   1.233  1.2522 -0.1181  0.2759
  471MOL0     C62093   5.857   0.831   1.272  0.0008 -0.3477  0.3969
  471MOL0     C62094   6.182   0.527   1.361  1.0209 -0.3610 -0.0599
  471MOL0     C62095   6.301   0.512   1.426  0.0534 -0.5294 -0.2583
  471MOL0     C62096   6.365   0.389   1.449  0.4772  0.9216  0.5443
  471MOL0     C62097   6.310   0.265   1.406 -0.5651 -0.2073  1.0931
  471MOL0     O62098   6.361   0.138   1.416 -0.0835  0.3119 -0.2435
  471MOL0     C62099   6.494   0.119   1.455 -0.5747  0.8149  0.7518
  471MOL0     C62100   6.508   0.097   1.593 -0.9343  0.2686  0.3169
  471MOL0     C62101   6.658   0.119   1.633  0.5254  0.2593  0.9838
  471MOL0     C62102   6.680   0.086   1.778  0.6977 -0.6477  0.1516
  471MOL0     C62103   6.821   0.055   1.817 -0.1623 -0.6232  1.0093
  471MOL0     C62104   6.931   0.045   1.852  0.6551  0.8369  0.0918
  471MOL0     C62105   6.195   0.279   1.329  0.5387 -0.3387  0.1007
  471MOL0     C62106   6.133   0.407   1.303 -0.4632 -0.1522 -0.0046
  471MOL0     H62107   6.083   0.844   1.010 -2.8087 -1.7995 -2.7214
  471MOL0     H62108   5.965   1.057   0.981 -1.8476  0.9758 -0.9626
  471MOL0     H62109   5.546   1.060   1.027  0.5605  0.2238  0.8066
  471MOL0     H62110   5.657   1.049   0.905 -0.3430  0.5380 -0.4537
  471MOL0     H62111   5.680   1.320   0.959  0.1532 -0.2975  0.1705
  471MOL0     H62112   5.530   1.290   1.050 -0.2249  1.0063  0.5388
  471MOL0     H62113   5.573   1.219   0.763 -0.0439 -0.9418  0.3537
  471MOL0     H62114   5.494   1.374   0.807  1.1743  1.1356  1.7579
  471MOL0     H62115   5.376   1.094   0.824 -2.3583 -0.5337 -2.6053
  471MOL0     H62116   5.310   1.227   0.923  1.2380 -1.6407  1.6860
  471MOL0     H62117   5.277   1.355   0.723  1.2036 -0.3212  1.4971
  471MOL0     H62118   5.191   1.198   0.724 -0.7729  1.1713 -2.7319
  471MOL0     H62119   5.346   1.098   0.558  2.6654  0.2554  1.2642
  471MOL0     H62120   5.443   1.252   0.564 -0.7342  1.5186  2.5319
  471MOL0     H62121   5.252   1.377   0.448 -3.0661  0.9809  0.7445
  471MOL0     H62122   5.305   1.236   0.359 -1.6647 -1.8683  0.2923
  471MOL0     H62123   5.061   1.286   0.364  1.3564  0.1039 -0.6244
  471MOL0     H62124   5.052   1.221   0.523 -0.8619  1.5660 -1.1094
  471MOL0     H62125   5.013   1.135   0.182 -2.0375 -0.9777 -0.2361
  471MOL0     H62126   5.057   0.746   0.106  1.6076  0.9638 -1.1507
  471MOL0     H62127   5.074   0.894   0.024  0.8163 -0.2870 -0.4546
  471MOL0     H62128   4.819   0.938   0.063  1.1561 -0.0069 -0.7868
  471MOL0     H62129   4.827   0.797   0.157  2.6539 -0.7307  0.2422
  471MOL0     H62130   4.897   0.780  -0.143 -0.8012  0.6498 -2.3910
  471MOL0     H62131   4.839   0.654  -0.031 -1.0303  0.1923 -1.2943
  471MOL0     H62132   4.664   0.749  -0.185 -0.8116  3.4822 -1.5896
  471MOL0     H62133   4.667   0.897  -0.088  1.6374  0.3198 -2.4279
  471MOL0     H62134   4.387   0.798  -0.142  2.0767 -0.0402  3.1467
  471MOL0     H62135   4.205   0.637  -0.202 -0.5300  1.2841  0.8837
  471MOL0     H62136   4.233   0.024  -0.255 -0.1041  0.1643 -0.2166
  471MOL0     H62137   4.037  -0.132  -0.316 -1.1729  0.0349 -0.7887
  471MOL0     H62138   3.653   0.021  -0.314  1.3718 -0.5178  0.5017
  471MOL0     H62139   3.654  -0.011  -0.142  1.3040 -0.2296  1.3979
  471MOL0     H62140   3.553  -0.236  -0.193  0.2448  1.7127  1.1022
  471MOL0     H62141   3.591  -0.232  -0.357 -0.0071 -0.2792  0.7173
  471MOL0     H62142   3.407  -0.037  -0.388 -0.9987  3.8030  3.5542
  471MOL0     H62143   3.394  -0.046  -0.213  0.2934  0.7972  0.2225
  471MOL0     H62144   3.344  -0.259  -0.434 -1.8979 -1.7193  0.8778
  471MOL0     H62145   3.354  -0.308  -0.266 -2.9901 -1.6374 -1.1730
  471MOL0     H62146   3.177  -0.113  -0.401 -0.3722 -1.2419 -1.5064
  471MOL0     H62147   3.171  -0.133  -0.223 -1.4208  0.1419 -0.5830
  471MOL0     H62148   3.124  -0.388  -0.288 -0.5571  2.0301  1.2253
  471MOL0     H62149   3.098  -0.334  -0.451  3.6730 -1.7900  1.0825
  471MOL0     H62150   2.917  -0.257  -0.210  2.5687  2.2532  0.0265
  471MOL0     H62151   2.896  -0.197  -0.378  0.0750 -0.9094 -2.2215
  471MOL0     H62152   2.750  -0.391  -0.327  0.2448  0.8691 -0.0628
  471MOL0     H62153   2.895  -0.486  -0.286  1.6205  0.2711  0.3169
  471MOL0     H62154   3.791   0.132  -0.091  1.2680 -0.7196  3.1607
  471MOL0     H62155   3.969   0.271  -0.033 -0.8503  0.8350 -0.1197
  471MOL0     H62156   4.437   0.323  -0.014  3.8054  1.1753 -0.1558
  471MOL0     H62157   4.576   0.494   0.085 -1.9824 -0.9430  0.8666
  471MOL0     H62158   5.690   0.972   1.296  0.5322  0.7195 -0.9980
  471MOL0     H62159   5.824   0.759   1.346 -0.6780 -2.3926 -1.7531
  471MOL0     H62160   6.345   0.600   1.474  5.0703 -3.1191  0.5481
  471MOL0     H62161   6.454   0.401   1.510 -0.0230 -1.4887  1.8606
  471MOL0     H62162   6.555   0.204   1.423  1.2544 -1.6359 -3.2308
  471MOL0     H62163   6.533   0.026   1.410  0.2571  1.3718  0.2844
  471MOL0     H62164   6.456   0.172   1.653  1.6620  0.7859  2.0641
  471MOL0     H62165   6.471  -0.002   1.621 -0.3198 -0.4944 -1.4367
  471MOL0     H62166   6.689   0.221   1.611  0.0077 -0.0330 -1.3117
  471MOL0     H62167   6.704   0.043   1.568  1.2619  1.4661  0.0516
  471MOL0     H62168   6.652   0.180   1.826  3.8191  0.1715  0.5521
  471MOL0     H62169   6.623  -0.001   1.813  0.8893 -1.2908 -1.0936
  471MOL0     H62170   7.035   0.024   1.865  0.7802  2.2295  1.7552
  471MOL0     H62171   6.146   0.191   1.288 -1.6862  0.3465  1.1354
  471MOL0     H62172   6.053   0.413   1.230  0.0958 -2.3075 -0.8901
  472MOL0     O62173   9.979   4.256  10.935 -1.1970  0.2784  0.1066
  472MOL0     C62174   9.929   4.272  11.049  0.3714 -1.0730  1.1431
  472MOL0     O62175   9.804   4.237  11.076 -0.5927  0.9212 -0.2547
  472MOL0     C62176   9.749   4.143  10.996  0.1712  0.3273  0.2939
  472MOL0     C62177   9.713   4.019  11.057 -0.4203  0.1548  0.3452
  472MOL0     C62178   9.651   3.920  10.981  0.1637 -0.3011  0.5750
  472MOL0     C62179   9.634   3.943  10.842  0.3408  0.2325 -0.4338
  472MOL0     O62180   9.579   3.839  10.775  1.0115  0.7452 -0.4361
  472MOL0     C62181   9.614   3.812  10.634  0.7224  0.4305 -1.3183
  472MOL0     C62182   9.727   3.713  10.619  0.1676 -0.6890  0.3618
  472MOL0     C62183   9.781   3.704  10.474 -0.4545  0.3574 -0.2311
  472MOL0     C62184   9.702   3.601  10.393 -0.4884 -0.2755  0.1218
  472MOL0     C62185   9.726   3.617  10.236  0.1022  1.0953  0.1060
  472MOL0     C62186   9.658   3.493  10.171 -0.1086  0.8201  0.0181
  472MOL0     C62187   9.690   3.498  10.020  0.0387  0.5557  0.2118
  472MOL0     C62188   9.613   3.390   9.938  0.6077  1.0142 -0.3486
  472MOL0     N62189   9.659   3.385   9.796  0.6309 -0.3868 -0.9739
  472MOL0     C62190   9.793   3.368   9.766  0.5129  0.5163  0.8368
  472MOL0     C62191   9.803   3.389   9.632  1.5790  0.7809 -0.3689
  472MOL0     C62192   9.927   3.364   9.546 -0.0713  0.0545  1.1970
  472MOL0     C62193  10.026   3.262   9.600  0.7999  0.3897 -1.1016
  472MOL0     C62194  10.170   3.263   9.565 -1.0535  0.8327  1.0508
  472MOL0     C62195  10.257   3.386   9.588 -0.3388 -0.2417  0.0772
  472MOL0     O62196  10.259   3.423   9.720 -0.0936  0.4805  0.0414
  472MOL0     C62197  10.291   3.544   9.758 -1.4189 -0.3131 -0.4942
  472MOL0     C62198  10.386   3.625   9.699  0.3595 -0.8950 -0.8002
  472MOL0     C62199  10.398   3.761   9.749  0.4038 -0.6665 -0.6232
  472MOL0     C62200  10.318   3.805   9.860 -0.5573 -0.0212 -0.6057
  472MOL0     C62201  10.345   3.943   9.907  0.6654  0.3314 -0.1338
  472MOL0     O62202  10.399   4.039   9.819 -0.2228  0.0935 -0.5836
  472MOL0     C62203  10.410   4.165   9.871  0.6881  0.6443  0.2676
  472MOL0     C62204  10.542   4.207   9.909  0.6058  0.0325 -0.2789
  472MOL0     C62205  10.550   4.331   9.968  0.2828  0.1569 -0.2533
  472MOL0     C62206  10.443   4.407   9.990 -0.1259 -0.1145 -0.1841
  472MOL0     O62207  10.452   4.537  10.041  0.9663 -0.5560 -0.0515
  472MOL0     C62208  10.575   4.606  10.002 -1.0608  0.0495  0.2674
  472MOL0     C62209  10.555   4.758  10.030  0.2508 -0.2063 -0.1639
  472MOL0     C62210  10.543   4.829   9.893  0.8508  0.4337 -0.2037
  472MOL0     C62211  10.532   4.977   9.918  0.0993 -0.4530  0.3335
  472MOL0     C62212  10.485   5.055   9.787 -0.3961  0.1713 -0.7562
  472MOL0     C62213  10.336   5.072   9.784  0.7461 -0.2390 -1.0407
  472MOL0     C62214  10.256   4.948   9.732 -0.1278  0.4847  0.4303
  472MOL0     C62215  10.115   4.978   9.702 -0.1834 -0.9290  0.4975
  472MOL0    Cl62216  10.113   5.097   9.558  0.0715  0.0477 -0.1360
  472MOL0     C62217  10.313   4.355   9.975  0.5995  0.1842  0.2360
  472MOL0     C62218  10.291   4.236   9.898 -0.3795 -0.8001 -0.1938
  472MOL0     O62219  10.308   3.965  10.017  0.0219  0.5860  0.3051
  472MOL0     C62220  10.242   3.707   9.925  0.3752 -0.3167 -0.2497
  472MOL0     C62221  10.226   3.578   9.869  0.2406  0.6281  0.4633
  472MOL0     N62222   9.670   3.405   9.585  0.0232 -0.0407 -1.1045
  472MOL0     N62223   9.593   3.407   9.686  0.2149  0.4855  0.6337
  472MOL0     C62224   9.656   4.069  10.784  0.1870  0.3209 -0.5551
  472MOL0     C62225   9.711   4.174  10.870 -0.8663 -0.4858  0.6179
  472MOL0     C62226  10.002   4.350  11.155 -0.0392  0.0789  0.5511
  472MOL0     C62227  10.133   4.397  11.130  0.9685 -1.1174 -0.4130
  472MOL0     C62228  10.205   4.480  11.228 -0.1092  0.5628  0.1476
  472MOL0     C62229  10.143   4.502  11.345  0.0373  1.2039  0.1335
  472MOL0     O62230  10.188   4.589  11.437 -0.0480 -0.5991 -0.1460
  472MOL0     C62231  10.299   4.669  11.404  0.6149  0.1211 -0.2151
  472MOL0     C62232  10.337   4.735  11.542  0.2978  0.3265 -0.1332
  472MOL0     C62233  10.449   4.836  11.508  0.3256  0.2764 -0.1575
  472MOL0     C62234  10.507   4.904  11.640 -0.5095 -0.3436  0.7133
  472MOL0     C62235  10.592   4.809  11.724  0.2220 -0.4072 -0.3490
  472MOL0     C62236  10.673   4.752  11.793  0.3606 -0.8775 -0.6693
  472MOL0     C62237  10.014   4.449  11.372 -0.1770  0.2762 -0.7165
  472MOL0     C62238   9.943   4.371  11.281 -0.7135  1.2193  0.3657
  472MOL0     H62239   9.730   3.999  11.163 -3.9276 -0.3944  0.9108
  472MOL0     H62240   9.616   3.823  11.016 -0.8263 -1.4641 -3.1710
  472MOL0     H62241   9.624   3.907  10.580 -0.9712  1.3803 -0.0832
  472MOL0     H62242   9.520   3.767  10.600  1.3245 -2.3630  0.3980
  472MOL0     H62243   9.683   3.617  10.649 -0.9260  0.1804  1.6865
  472MOL0     H62244   9.806   3.739  10.690  0.9028  2.2476 -1.3390
  472MOL0     H62245   9.888   3.681  10.473  0.1226  2.7780 -0.1181
  472MOL0     H62246   9.764   3.800  10.425  0.5739  0.8663  0.3701
  472MOL0     H62247   9.725   3.502  10.434 -2.1716 -0.4121  0.8248
  472MOL0     H62248   9.596   3.620  10.412 -0.6964 -0.6423 -0.6402
  472MOL0     H62249   9.830   3.614  10.203 -1.2871  0.2811 -5.1225
  472MOL0     H62250   9.684   3.706  10.188  0.0925  2.7071  2.9210
  472MOL0     H62251   9.550   3.497  10.185 -0.0350 -0.6600  1.3105
  472MOL0     H62252   9.683   3.394  10.211  2.7701  0.3570 -2.5470
  472MOL0     H62253   9.659   3.593   9.976  0.3475 -0.6003 -2.7642
  472MOL0     H62254   9.797   3.488  10.001  0.1364 -0.8831  1.2907
  472MOL0     H62255   9.509   3.425   9.934  1.1772  2.7223 -1.8834
  472MOL0     H62256   9.625   3.289   9.977 -2.5676 -0.8848 -3.6326
  472MOL0     H62257   9.871   3.332   9.833  0.2677 -1.5286  0.0873
  472MOL0     H62258   9.969   3.465   9.539 -3.4455  1.5949  1.1231
  472MOL0     H62259   9.908   3.346   9.440  3.2768  1.4050  0.2227
  472MOL0     H62260   9.997   3.162   9.568  0.7215  0.5882 -1.6543
  472MOL0     H62261  10.016   3.264   9.709  0.3337  3.6241 -1.1150
  472MOL0     H62262  10.213   3.177   9.618 -1.5482 -0.2490 -0.2480
  472MOL0     H62263  10.183   3.248   9.457 -0.8509  1.2258  1.0195
  472MOL0     H62264  10.221   3.468   9.525 -0.3011  1.0637  1.6794
  472MOL0     H62265  10.349   3.347   9.543 -0.5486 -0.5382 -0.0957
  472MOL0     H62266  10.451   3.587   9.621  2.5102 -2.6110  1.6736
  472MOL0     H62267  10.466   3.826   9.695 -0.5379 -2.3304 -4.0453
  472MOL0     H62268  10.630   4.148   9.884  1.1582  0.0679  1.4979
  472MOL0     H62269  10.655   4.353   9.983  1.3540 -2.3591 -3.1113
  472MOL0     H62270  10.597   4.577   9.899  0.9185 -4.0796  1.6320
  472MOL0     H62271  10.662   4.574  10.059 -0.6785  2.8566  1.4004
  472MOL0     H62272  10.642   4.786  10.091  0.9902  3.7649 -2.6672
  472MOL0     H62273  10.464   4.778  10.087 -0.3791 -1.8056 -0.5610
  472MOL0     H62274  10.455   4.794   9.838 -0.0350  1.6320  0.4050
  472MOL0     H62275  10.632   4.811   9.832 -0.9523  0.6258 -3.1071
  472MOL0     H62276  10.460   4.989   9.999  0.7093  0.7147  0.7315
  472MOL0     H62277  10.625   5.027   9.949  1.7581 -2.7925 -0.5766
  472MOL0     H62278  10.526   5.015   9.694  2.5420  2.1916 -0.4584
  472MOL0     H62279  10.534   5.152   9.786 -0.1258  0.0557  0.0994
  472MOL0     H62280  10.325   5.158   9.717  4.9619  2.3044  1.0523
  472MOL0     H62281  10.311   5.099   9.887 -2.7560 -3.4110 -0.8721
  472MOL0     H62282  10.301   4.905   9.643 -0.8321 -0.4877  0.5337
  472MOL0     H62283  10.249   4.865   9.803 -3.3031 -0.1436 -0.4672
  472MOL0     H62284  10.065   5.016   9.792  1.2955 -0.8618  1.3192
  472MOL0     H62285  10.061   4.887   9.675 -0.1647 -0.7417 -0.1821
  472MOL0     H62286  10.228   4.412  10.012 -0.3230 -0.9763 -0.0288
  472MOL0     H62287  10.192   4.193   9.883 -1.5439  1.4073  0.7406
  472MOL0     H62288  10.173   3.731  10.006  0.2984 -3.2084  0.6642
  472MOL0     H62289  10.167   3.500   9.916  0.4516 -0.6192 -1.2677
  472MOL0     H62290   9.626   4.097  10.684 -0.9077 -2.0357 -0.9503
  472MOL0     H62291   9.732   4.272  10.828  1.2745 -1.5342 -0.9500
  472MOL0     H62292  10.174   4.359  11.037  1.8031 -3.1590  0.7310
  472MOL0     H62293  10.307   4.513  11.209  1.2352 -3.9822 -1.8047
  472MOL0     H62294  10.268   4.746  11.333  0.9328 -0.6092 -1.1627
  472MOL0     H62295  10.387   4.620  11.362  1.4443  1.1152  0.2964
  472MOL0     H62296  10.263   4.806  11.582 -0.1474 -0.0701 -0.2365
  472MOL0     H62297  10.371   4.659  11.612 -0.4770 -2.1389 -2.2778
  472MOL0     H62298  10.398   4.907  11.442  0.5080  0.6529  0.1017
  472MOL0     H62299  10.520   4.790  11.438 -1.7928 -3.1655 -0.2819
  472MOL0     H62300  10.569   4.993  11.622 -2.4616  1.3898  2.0999
  472MOL0     H62301  10.417   4.927  11.698 -0.7866  2.7176 -0.7518
  472MOL0     H62302  10.747   4.714  11.861  0.6535  0.0149 -0.4764
  472MOL0     H62303   9.975   4.487  11.466  0.4602 -1.2424  0.1909
  472MOL0     H62304   9.842   4.334  11.297 -0.0332 -0.6859  0.4721
  473MOL0     O62305   9.934   1.614   6.361  0.8233  0.8248  0.1807
  473MOL0     C62306   9.903   1.558   6.466  0.4400 -0.1136  0.1775
  473MOL0     O62307   9.791   1.476   6.494 -0.4661  1.1908  0.6426
  473MOL0     C62308   9.698   1.475   6.396 -0.4618  0.2714  0.5413
  473MOL0     C62309   9.640   1.589   6.332 -0.3066  0.6023 -0.3479
  473MOL0     C62310   9.526   1.577   6.255 -0.0806 -0.2514 -0.1226
  473MOL0     C62311   9.467   1.449   6.237 -0.1842  0.0851  1.1546
  473MOL0     O62312   9.338   1.434   6.188  0.0494  0.3196  0.6419
  473MOL0     C62313   9.305   1.323   6.110  0.6896 -0.3876  0.6167
  473MOL0     C62314   9.147   1.332   6.088  0.0863 -0.8537 -0.3683
  473MOL0     C62315   9.106   1.459   6.027 -0.3380 -0.3516  0.0138
  473MOL0     C62316   8.953   1.460   6.023  0.0478  0.1306 -0.0862
  473MOL0     C62317   8.896   1.591   5.978 -0.4288  0.0334  0.0754
  473MOL0     C62318   8.746   1.593   5.983  0.6055  1.0917  0.5253
  473MOL0     C62319   8.699   1.733   5.960 -0.8656 -0.3263  0.3868
  473MOL0     C62320   8.540   1.743   5.984 -0.1459  0.1175 -0.7116
  473MOL0     N62321   8.473   1.848   5.910 -0.1726 -0.4484 -0.8167
  473MOL0     C62322   8.501   1.980   5.907 -0.4702  0.5747  0.9246
  473MOL0     C62323   8.402   2.027   5.825 -0.0743  0.0303 -0.2395
  473MOL0     C62324   8.348   2.173   5.817 -0.8273 -0.3130 -0.1910
  473MOL0     C62325   8.301   2.215   5.679  0.1747 -0.2552 -0.9472
  473MOL0     C62326   8.420   2.287   5.610  0.8610 -0.0055  0.2915
  473MOL0     C62327   8.386   2.336   5.468  0.9459 -0.8814 -0.4992
  473MOL0     O62328   8.266   2.411   5.469 -0.5605 -0.5463 -0.2942
  473MOL0     C62329   8.223   2.462   5.345  0.3084  0.8727  0.3506
  473MOL0     C62330   8.103   2.413   5.296 -0.1764 -0.5907  1.8121
  473MOL0     C62331   8.061   2.450   5.165 -0.2450  1.1079 -0.3197
  473MOL0     C62332   8.143   2.548   5.089  0.8984  0.0085  0.5588
  473MOL0     C62333   8.110   2.593   4.953 -0.3003 -0.6025  0.7664
  473MOL0     O62334   8.195   2.686   4.885 -0.1445 -0.5601 -0.2505
  473MOL0     C62335   8.199   2.690   4.749  1.0241  1.0127  0.4778
  473MOL0     C62336   8.192   2.578   4.663 -0.6962 -0.1633 -0.1119
  473MOL0     C62337   8.222   2.594   4.532 -0.3684 -0.1117  0.1967
  473MOL0     C62338   8.257   2.713   4.471  0.1433  0.2614 -0.3309
  473MOL0     O62339   8.282   2.723   4.336 -1.1068 -0.6707  0.2442
  473MOL0     C62340   8.342   2.847   4.288 -0.1150  0.3404  0.1129
  473MOL0     C62341   8.358   2.837   4.140  0.3708  0.4353  1.2611
  473MOL0     C62342   8.471   2.736   4.104  1.1776 -0.0476  0.1557
  473MOL0     C62343   8.484   2.721   3.956  0.5819  0.3858 -0.2271
  473MOL0     C62344   8.617   2.648   3.913 -0.3068  0.5394  0.1281
  473MOL0     C62345   8.645   2.656   3.763  0.5943 -0.8043  0.2892
  473MOL0     C62346   8.647   2.515   3.701 -0.1088  0.8459  0.1547
  473MOL0     C62347   8.632   2.512   3.550 -0.8950 -0.3074 -1.0863
  473MOL0    Cl62348   8.456   2.564   3.502  0.4382  0.2750 -0.0661
  473MOL0     C62349   8.263   2.825   4.560  0.3956 -0.0933  0.3343
  473MOL0     C62350   8.231   2.814   4.697 -0.5653  0.6176 -0.5685
  473MOL0     O62351   8.025   2.530   4.897  0.3076  0.4420 -0.9542
  473MOL0     C62352   8.268   2.585   5.139  1.0470  0.4446  0.3855
  473MOL0     C62353   8.306   2.545   5.269  0.4542 -0.1244  0.6252
  473MOL0     N62354   8.320   1.921   5.778 -0.6961 -0.5640 -0.3855
  473MOL0     N62355   8.375   1.823   5.824 -0.0911  0.2275 -0.0758
  473MOL0     C62356   9.536   1.337   6.291  0.2436  0.4252  0.5443
  473MOL0     C62357   9.644   1.350   6.377 -0.3844  0.8138  1.5090
  473MOL0     C62358  10.010   1.578   6.574 -1.0616  0.4604 -0.0540
  473MOL0     C62359  10.010   1.512   6.701  0.6572  0.0821 -1.0712
  473MOL0     C62360  10.096   1.546   6.808  0.2448 -0.3834  0.1530
  473MOL0     C62361  10.206   1.636   6.784 -0.0556 -0.4611  0.0421
  473MOL0     O62362  10.305   1.674   6.866 -0.2266  0.2839 -0.2248
  473MOL0     C62363  10.279   1.650   7.004  0.5789  0.1498  0.3777
  473MOL0     C62364  10.353   1.738   7.105  0.1308  0.3985  0.3949
  473MOL0     C62365  10.507   1.732   7.077  0.2756  0.1665  0.1098
  473MOL0     C62366  10.590   1.791   7.195 -0.8325  0.4168 -0.8882
  473MOL0     C62367  10.731   1.772   7.159 -0.4411  0.0258  0.0058
  473MOL0     C62368  10.834   1.767   7.092 -0.2712  0.5476 -0.2232
  473MOL0     C62369  10.216   1.702   6.658 -0.5275 -0.2945  0.1261
  473MOL0     C62370  10.117   1.676   6.563  0.6247  0.4844  1.0027
  473MOL0     H62371   9.674   1.688   6.361 -0.4945  0.3282  0.8439
  473MOL0     H62372   9.481   1.664   6.208  1.7016  1.8710  1.7933
  473MOL0     H62373   9.330   1.231   6.164  1.7128 -1.1270 -1.0216
  473MOL0     H62374   9.377   1.329   6.028  1.3409  1.0436  1.2410
  473MOL0     H62375   9.100   1.316   6.186  1.3222 -3.3128 -0.0846
  473MOL0     H62376   9.112   1.252   6.022 -2.4264  3.1619 -4.4197
  473MOL0     H62377   9.143   1.466   5.924 -1.0693  1.4206 -0.1594
  473MOL0     H62378   9.155   1.542   6.079  2.6911  0.1132 -3.1467
  473MOL0     H62379   8.915   1.371   5.972  1.0478 -2.6129  3.5467
  473MOL0     H62380   8.911   1.446   6.122 -3.2253  0.1529 -1.3703
  473MOL0     H62381   8.938   1.612   5.879 -0.9442 -0.9781 -0.3763
  473MOL0     H62382   8.931   1.670   6.044  2.1668 -0.1192 -0.9835
  473MOL0     H62383   8.704   1.546   6.073  1.4859  2.2041  1.5570
  473MOL0     H62384   8.716   1.525   5.903  3.6924  0.0412  0.1402
  473MOL0     H62385   8.743   1.806   6.028 -1.4112 -0.2799  0.6965
  473MOL0     H62386   8.725   1.768   5.859  0.5830  1.7769  1.4095
  473MOL0     H62387   8.522   1.751   6.091 -3.7143  1.6156 -1.2800
  473MOL0     H62388   8.484   1.650   5.969 -0.1230 -0.3170  1.5324
  473MOL0     H62389   8.582   2.039   5.947  0.0200  0.4606  0.1060
  473MOL0     H62390   8.422   2.247   5.849  0.5348 -1.4515 -0.6332
  473MOL0     H62391   8.270   2.177   5.895 -0.1668  0.0325  0.4621
  473MOL0     H62392   8.211   2.276   5.683 -0.2427 -0.6671 -2.8866
  473MOL0     H62393   8.275   2.124   5.624  0.7932  0.5010 -2.5874
  473MOL0     H62394   8.461   2.373   5.663 -0.5085  0.5734  0.4391
  473MOL0     H62395   8.495   2.209   5.590 -0.4488 -1.0642 -0.6958
  473MOL0     H62396   8.374   2.242   5.413  0.0416 -1.5381  0.7907
  473MOL0     H62397   8.460   2.402   5.420  2.7974 -3.3226 -1.1943
  473MOL0     H62398   8.057   2.337   5.358  1.9468 -2.1706  1.5365
  473MOL0     H62399   7.981   2.400   5.111 -1.0766 -1.0843  2.6147
  473MOL0     H62400   8.163   2.478   4.692 -2.5949  0.4777  0.3641
  473MOL0     H62401   8.229   2.506   4.469 -0.0624  0.6906 -0.9020
  473MOL0     H62402   8.438   2.863   4.338 -0.5310 -0.5301  1.2287
  473MOL0     H62403   8.281   2.937   4.300 -1.9597 -0.6707 -1.2576
  473MOL0     H62404   8.388   2.935   4.101 -1.6518 -0.3614 -2.8309
  473MOL0     H62405   8.265   2.823   4.086  0.3173  0.2381  1.4017
  473MOL0     H62406   8.445   2.640   4.149 -2.4191  1.9776  2.9149
  473MOL0     H62407   8.565   2.772   4.146  1.9108  0.1194 -1.5153
  473MOL0     H62408   8.404   2.663   3.909  2.1516 -0.7147 -1.6518
  473MOL0     H62409   8.482   2.822   3.913 -1.5773  1.5036  2.2488
  473MOL0     H62410   8.621   2.543   3.943  0.7766 -0.5228 -3.1843
  473MOL0     H62411   8.704   2.689   3.965 -0.5007 -1.2419  1.9532
  473MOL0     H62412   8.742   2.706   3.758 -1.1047  2.6737 -0.7534
  473MOL0     H62413   8.571   2.703   3.697 -0.2838 -2.3776  0.0928
  473MOL0     H62414   8.741   2.477   3.741 -0.2725  0.6257  0.3386
  473MOL0     H62415   8.572   2.445   3.740 -0.2186  0.4129 -0.7830
  473MOL0     H62416   8.663   2.412   3.518  2.5658  0.6583 -1.1179
  473MOL0     H62417   8.709   2.575   3.504  3.4831 -1.4190  3.7215
  473MOL0     H62418   8.299   2.921   4.524  2.3104 -0.5363  0.9231
  473MOL0     H62419   8.242   2.902   4.760  0.2543 -0.2220  0.4836
  473MOL0     H62420   8.332   2.659   5.094 -0.0800  2.4023  1.8330
  473MOL0     H62421   8.399   2.579   5.313  1.3224  0.7838 -1.7610
  473MOL0     H62422   9.502   1.236   6.272 -0.1530  0.7315 -0.4145
  473MOL0     H62423   9.692   1.267   6.428  0.2007 -0.7046 -1.2674
  473MOL0     H62424   9.937   1.436   6.726  0.8405  0.7782  2.0380
  473MOL0     H62425  10.069   1.497   6.901  0.9608  1.4446  1.3960
  473MOL0     H62426  10.298   1.544   7.022  1.8324 -0.6000 -4.1409
  473MOL0     H62427  10.171   1.654   7.024  0.4740  2.0935 -0.3663
  473MOL0     H62428  10.320   1.842   7.094  2.8543  1.4266  1.2454
  473MOL0     H62429  10.327   1.696   7.203 -1.8620 -0.2817 -0.3702
  473MOL0     H62430  10.525   1.790   6.986  1.3699 -1.4210 -0.7174
  473MOL0     H62431  10.535   1.628   7.059 -0.3730 -0.1449  0.8692
  473MOL0     H62432  10.552   1.892   7.215 -1.3173  0.1984 -0.6932
  473MOL0     H62433  10.573   1.725   7.281  0.8252  1.3042  0.1908
  473MOL0     H62434  10.925   1.769   7.036  0.8975 -0.9436  1.5129
  473MOL0     H62435  10.284   1.785   6.642  0.0140 -0.9442 -1.1384
  473MOL0     H62436  10.109   1.740   6.476  1.2348 -0.6512  0.0871
  474MOL0     O62437   1.983   1.223   2.831  0.0996 -0.7956 -0.3083
  474MOL0     C62438   1.893   1.145   2.853 -0.9787  0.4760  0.3673
  474MOL0     O62439   1.763   1.155   2.817 -0.7959 -0.1964 -0.6676
  474MOL0     C62440   1.742   1.277   2.752  0.6281  0.2686  0.7269
  474MOL0     C62441   1.706   1.399   2.821  0.7790  0.7516 -0.6018
  474MOL0     C62442   1.691   1.516   2.737  0.7761 -0.0460 -0.2832
  474MOL0     C62443   1.693   1.508   2.596 -0.1503  1.0035 -0.5221
  474MOL0     O62444   1.646   1.609   2.516 -0.7958  0.2659  0.2568
  474MOL0     C62445   1.676   1.618   2.379 -0.0292  1.0958  0.5977
  474MOL0     C62446   1.830   1.628   2.339  0.2340  0.3831 -0.0760
  474MOL0     C62447   1.899   1.755   2.389  0.2421 -0.7650  0.8543
  474MOL0     C62448   1.897   1.760   2.538  0.0502  0.1992 -0.8223
  474MOL0     C62449   2.010   1.836   2.609  0.3799  0.2124 -0.2130
  474MOL0     C62450   1.990   1.821   2.761  0.5496  0.1895 -0.4316
  474MOL0     C62451   2.123   1.837   2.829 -0.2849  0.1472  0.3016
  474MOL0     C62452   2.115   1.830   2.985  0.8396 -0.1775 -0.7507
  474MOL0     N62453   2.077   1.698   3.014 -0.0966  0.1930  0.1131
  474MOL0     C62454   2.172   1.590   3.016  0.0676  0.2233  0.5462
  474MOL0     C62455   2.101   1.486   3.067 -0.4040  0.2190  0.7509
  474MOL0     C62456   2.143   1.349   3.087 -0.5862  0.6563 -0.6975
  474MOL0     C62457   2.241   1.322   3.195 -1.4829 -0.2303  0.4034
  474MOL0     C62458   2.348   1.240   3.126 -0.0723  0.0920  0.0683
  474MOL0     C62459   2.468   1.229   3.228  1.1988 -0.4304  0.6373
  474MOL0     O62460   2.569   1.333   3.212  0.0132 -0.8741  0.0268
  474MOL0     C62461   2.546   1.459   3.258 -0.3587  0.0968  0.2638
  474MOL0     C62462   2.526   1.483   3.400  0.5040  0.2879  1.0573
  474MOL0     C62463   2.478   1.606   3.440  0.5558 -0.0731  0.4208
  474MOL0     C62464   2.441   1.705   3.354 -0.3933  0.1225  1.0020
  474MOL0     C62465   2.369   1.824   3.397 -0.7086  0.8000 -0.2015
  474MOL0     O62466   2.280   1.870   3.309  1.3236 -0.3130 -0.9510
  474MOL0     C62467   2.204   1.987   3.334 -0.6622 -0.6997  0.2063
  474MOL0     C62468   2.122   2.021   3.449 -0.8805  0.6716 -0.8448
  474MOL0     C62469   2.068   2.146   3.466  1.1290 -0.7247 -0.0268
  474MOL0     C62470   2.084   2.250   3.362  0.0944  0.7278 -0.1554
  474MOL0     O62471   2.031   2.377   3.369  0.2466 -0.1967 -0.9509
  474MOL0     C62472   1.932   2.398   3.466 -0.5659 -0.3287 -0.3796
  474MOL0     C62473   1.842   2.507   3.417 -0.7549 -0.0328 -0.6843
  474MOL0     C62474   1.725   2.520   3.524 -0.5756  0.1948  0.6616
  474MOL0     C62475   1.613   2.621   3.488  0.1841  0.3277 -0.0225
  474MOL0     C62476   1.532   2.644   3.614  0.2108  0.1142 -0.0664
  474MOL0     C62477   1.398   2.728   3.602 -0.3633 -0.8049  0.0782
  474MOL0     C62478   1.431   2.856   3.521  1.0240 -0.5451  0.3979
  474MOL0     C62479   1.301   2.935   3.503 -1.0144  0.9630  1.3808
  474MOL0    Cl62480   1.157   2.848   3.433 -0.3541 -0.3981  0.0818
  474MOL0     C62481   2.145   2.210   3.249 -0.0196  0.8463  0.0051
  474MOL0     C62482   2.212   2.085   3.231  0.3817  0.7305 -0.8001
  474MOL0     O62483   2.377   1.862   3.509  0.5005  0.3989  0.0512
  474MOL0     C62484   2.457   1.677   3.216 -0.6140  0.4011  0.1907
  474MOL0     C62485   2.515   1.556   3.169 -0.4235 -0.6845 -0.0816
  474MOL0     N62486   1.972   1.533   3.100  0.4521  0.1485  0.2666
  474MOL0     N62487   1.964   1.656   3.067 -0.2134  0.6806 -0.7939
  474MOL0     C62488   1.713   1.381   2.531 -0.8069 -0.2927  0.0608
  474MOL0     C62489   1.741   1.269   2.615  0.2090  0.8161 -0.1938
  474MOL0     C62490   1.945   1.015   2.901  0.6030 -0.4581  0.4614
  474MOL0     C62491   1.855   0.904   2.891  0.1371  0.8703 -0.5992
  474MOL0     C62492   1.899   0.775   2.926 -0.1634 -0.6687 -0.2831
  474MOL0     C62493   2.029   0.754   2.963  0.6115 -0.4324  0.3084
  474MOL0     O62494   2.079   0.624   2.990 -0.2259 -1.1953 -0.1123
  474MOL0     C62495   2.208   0.612   3.053  0.4264 -0.5731  0.8148
  474MOL0     C62496   2.224   0.478   3.125  0.5159 -0.0198  0.0599
  474MOL0     C62497   2.205   0.355   3.033  0.1764 -0.1014 -0.4438
  474MOL0     C62498   2.201   0.230   3.108  0.1893 -0.7213  0.1234
  474MOL0     C62499   2.347   0.216   3.137 -0.2135 -0.2626  0.2027
  474MOL0     C62500   2.469   0.215   3.147 -0.0598 -0.0728 -0.1244
  474MOL0     C62501   2.112   0.866   2.970 -0.3587  0.5554  0.0842
  474MOL0     C62502   2.073   0.988   2.942 -0.0481  0.4086  0.2916
  474MOL0     H62503   1.708   1.427   2.926  0.5219  1.6566 -0.8271
  474MOL0     H62504   1.670   1.602   2.799  3.9470 -0.1042  1.0348
  474MOL0     H62505   1.623   1.705   2.340 -3.3130 -1.8106 -2.0829
  474MOL0     H62506   1.645   1.530   2.322  0.1263 -0.4896  2.7977
  474MOL0     H62507   1.837   1.645   2.232 -2.0063  0.4088 -0.2608
  474MOL0     H62508   1.896   1.546   2.371  0.2752  0.4924  0.1199
  474MOL0     H62509   1.846   1.833   2.333  1.4078 -2.0139 -2.2049
  474MOL0     H62510   2.006   1.750   2.367  1.0489  1.3301  3.7548
  474MOL0     H62511   1.795   1.791   2.566 -1.1929 -1.5819 -3.0219
  474MOL0     H62512   1.927   1.663   2.580  2.4367  0.6149 -1.4665
  474MOL0     H62513   2.010   1.944   2.587  1.5036  0.2708  0.0242
  474MOL0     H62514   2.102   1.786   2.577  0.2411  1.8646 -3.5746
  474MOL0     H62515   1.941   1.728   2.791 -0.2628  1.3963  2.2479
  474MOL0     H62516   1.923   1.893   2.810 -0.5394 -2.4415  2.2482
  474MOL0     H62517   2.196   1.766   2.788 -1.3195 -1.0388  0.4793
  474MOL0     H62518   2.179   1.928   2.803  2.5442 -0.4528  3.5532
  474MOL0     H62519   2.043   1.908   3.011  2.7074  1.8418 -1.3876
  474MOL0     H62520   2.213   1.857   3.027  1.9964 -0.9591 -2.8185
  474MOL0     H62521   2.272   1.575   2.976 -0.3720  1.0841 -0.9821
  474MOL0     H62522   2.172   1.308   2.990  1.9438 -1.4779  0.8300
  474MOL0     H62523   2.051   1.294   3.108  1.2921 -2.2347  0.5586
  474MOL0     H62524   2.191   1.250   3.261 -1.1594 -0.4487  0.4182
  474MOL0     H62525   2.276   1.413   3.244 -0.0313 -0.5179 -0.0303
  474MOL0     H62526   2.314   1.144   3.087 -1.7127  0.0351  1.5032
  474MOL0     H62527   2.404   1.296   3.051 -0.2926  0.2589  0.0260
  474MOL0     H62528   2.521   1.137   3.201  1.1210  0.0563 -1.2958
  474MOL0     H62529   2.428   1.227   3.330  0.8102 -0.4826  0.4858
  474MOL0     H62530   2.541   1.402   3.471 -2.6395 -2.6451 -1.2841
  474MOL0     H62531   2.456   1.619   3.546  0.8209 -3.3997  1.0045
  474MOL0     H62532   2.107   1.944   3.524 -1.0056  0.9201 -0.6118
  474MOL0     H62533   2.020   2.161   3.563 -1.1477  1.1133 -1.3266
  474MOL0     H62534   1.979   2.424   3.561 -1.2988 -0.2062 -0.0446
  474MOL0     H62535   1.865   2.312   3.474  1.1554 -1.4846  3.9611
  474MOL0     H62536   1.802   2.481   3.319  0.1753  1.5627 -1.5232
  474MOL0     H62537   1.888   2.605   3.405  1.2069 -0.8697 -0.2987
  474MOL0     H62538   1.772   2.549   3.618 -0.2236  1.3756  0.1431
  474MOL0     H62539   1.673   2.425   3.532 -1.3320  0.5783  0.3723
  474MOL0     H62540   1.652   2.713   3.442 -0.5375 -0.0791 -1.5353
  474MOL0     H62541   1.549   2.576   3.410  1.2269  0.9875 -1.3047
  474MOL0     H62542   1.581   2.699   3.694 -0.7710 -0.7187  1.1416
  474MOL0     H62543   1.507   2.549   3.663  1.8721 -1.1383 -1.4945
  474MOL0     H62544   1.358   2.767   3.696  1.1000 -0.3383  0.5389
  474MOL0     H62545   1.324   2.666   3.552 -1.8890 -0.7257  2.1213
  474MOL0     H62546   1.513   2.908   3.571  1.1563 -1.4969  1.1895
  474MOL0     H62547   1.457   2.820   3.421 -2.3427  0.1601 -0.8834
  474MOL0     H62548   1.310   3.029   3.448  0.3442  1.0371  1.7053
  474MOL0     H62549   1.282   2.987   3.598  0.8255  3.3465  0.5315
  474MOL0     H62550   2.148   2.291   3.178  0.3728  1.4542  0.7033
  474MOL0     H62551   2.273   2.078   3.141  0.7992  1.6958 -0.6093
  474MOL0     H62552   2.414   1.752   3.150 -0.9405  1.1600  1.2445
  474MOL0     H62553   2.524   1.541   3.061 -1.5650  1.2411 -0.4823
  474MOL0     H62554   1.709   1.360   2.425 -3.4738 -0.5562  0.1506
  474MOL0     H62555   1.753   1.171   2.571  1.0886  1.9947 -2.7880
  474MOL0     H62556   1.752   0.917   2.862 -0.3208 -0.6312  0.2482
  474MOL0     H62557   1.835   0.688   2.916 -3.1447  1.2255  0.9191
  474MOL0     H62558   2.220   0.683   3.135 -1.2062  0.6631  0.0329
  474MOL0     H62559   2.290   0.617   2.981 -0.0459 -0.3586  0.2824
  474MOL0     H62560   2.326   0.474   3.162  0.2084 -1.0320  0.8535
  474MOL0     H62561   2.158   0.482   3.212 -0.1635  0.3241 -0.4591
  474MOL0     H62562   2.281   0.348   2.955  0.3911 -3.4244 -0.0696
  474MOL0     H62563   2.105   0.352   2.988 -1.1996 -1.3185  2.4161
  474MOL0     H62564   2.146   0.227   3.202 -0.5111 -2.4596 -0.2951
  474MOL0     H62565   2.169   0.144   3.047 -0.9583  0.2717 -0.7197
  474MOL0     H62566   2.572   0.238   3.165 -0.9622  2.2123  2.9264
  474MOL0     H62567   2.215   0.850   3.000 -0.2638  1.1781  0.1037
  474MOL0     H62568   2.149   1.064   2.957 -1.2839  1.5041  1.2879
  475MOL0     O62569   6.803   5.798  10.818  0.7732  0.3210 -0.5428
  475MOL0     C62570   6.779   5.795  10.696 -0.1933  0.0867 -0.6988
  475MOL0     O62571   6.656   5.790  10.633  0.4867 -0.4120 -0.5962
  475MOL0     C62572   6.539   5.789  10.708  0.8506  1.0267  1.0866
  475MOL0     C62573   6.420   5.718  10.665 -1.2112  0.7731  0.2636
  475MOL0     C62574   6.301   5.748  10.727 -0.7506  0.4833 -0.5790
  475MOL0     C62575   6.292   5.837  10.844 -0.1729 -0.3793  0.0770
  475MOL0     O62576   6.174   5.854  10.909  0.2666  0.0549 -0.3355
  475MOL0     C62577   6.155   5.976  10.976 -0.2455  1.0884  0.2610
  475MOL0     C62578   6.005   6.007  11.006 -0.2167 -0.0534  0.4932
  475MOL0     C62579   5.908   5.961  10.902  0.0301  0.2927  0.5611
  475MOL0     C62580   5.773   5.944  10.948 -0.3101 -0.4379 -0.0415
  475MOL0     C62581   5.663   5.950  10.842  0.5103 -0.3042  0.3100
  475MOL0     C62582   5.535   5.879  10.880  0.1164  0.3628 -0.1397
  475MOL0     C62583   5.412   5.916  10.795  0.8889  0.9432  1.1843
  475MOL0     C62584   5.439   5.923  10.643 -0.3469 -0.4147  0.9124
  475MOL0     N62585   5.339   5.976  10.545 -0.8917  0.3147 -0.2004
  475MOL0     C62586   5.202   5.970  10.556  0.7168 -0.3849  0.5912
  475MOL0     C62587   5.161   6.038  10.453  0.9794 -0.3958  0.8043
  475MOL0     C62588   5.017   6.083  10.437 -0.5950 -0.2326 -0.4189
  475MOL0     C62589   4.986   6.185  10.553  0.8780  0.7186  0.3083
  475MOL0     C62590   4.853   6.257  10.532  0.3522 -0.6995  0.1237
  475MOL0     C62591   4.807   6.335  10.651 -0.6966  0.2378  0.2069
  475MOL0     O62592   4.909   6.435  10.667 -0.3103 -0.1597 -0.1598
  475MOL0     C62593   4.883   6.565  10.621 -0.8205 -0.5069  0.4716
  475MOL0     C62594   4.778   6.608  10.525 -0.5181  0.9487 -0.2858
  475MOL0     C62595   4.766   6.746  10.503  0.0162  0.5919  0.3227
  475MOL0     C62596   4.840   6.846  10.573  1.5790 -0.7244 -0.6235
  475MOL0     C62597   4.794   6.985  10.567 -0.3149  0.4068 -0.7801
  475MOL0     O62598   4.880   7.065  10.635 -0.0754 -0.3476  0.2885
  475MOL0     C62599   4.848   7.195  10.659 -0.2776  0.2755 -0.0483
  475MOL0     C62600   4.927   7.299  10.631  0.6075 -0.1897  0.2698
  475MOL0     C62601   4.909   7.433  10.669  0.4945  0.7685 -1.0431
  475MOL0     C62602   4.801   7.465  10.751  0.2301 -0.9129 -0.3502
  475MOL0     O62603   4.779   7.588  10.813 -0.4535  0.6128 -0.3359
  475MOL0     C62604   4.885   7.679  10.842  0.5127  1.0160 -0.3418
  475MOL0     C62605   4.853   7.826  10.879  0.1596 -0.1941 -0.4595
  475MOL0     C62606   4.840   7.907  10.751  0.8188  0.5818  1.3840
  475MOL0     C62607   4.822   8.058  10.776  0.0557  0.3763  0.1442
  475MOL0     C62608   4.695   8.107  10.862  0.4658 -0.2938 -0.4301
  475MOL0     C62609   4.660   8.255  10.840  0.2005  0.6661 -0.6392
  475MOL0     C62610   4.521   8.277  10.913  0.6599  0.0864 -0.4387
  475MOL0     C62611   4.472   8.413  10.922 -0.4256 -0.0128  0.4974
  475MOL0    Cl62612   4.472   8.489  10.761  0.3099  0.2006 -0.1996
  475MOL0     C62613   4.712   7.368  10.784  0.5917 -0.1736 -0.1583
  475MOL0     C62614   4.727   7.236  10.737 -0.7459 -0.2280  0.7091
  475MOL0     O62615   4.688   7.026  10.519 -0.2346  0.0193 -0.4656
  475MOL0     C62616   4.934   6.807  10.664 -0.5649  0.6017 -0.5478
  475MOL0     C62617   4.956   6.674  10.687 -0.1785 -0.5480 -0.4450
  475MOL0     N62618   5.266   6.083  10.373 -0.3139 -0.2586  0.0336
  475MOL0     N62619   5.372   6.037  10.431  0.0158 -1.1565  0.3287
  475MOL0     C62620   6.410   5.903  10.873 -0.1174 -0.0324 -0.9640
  475MOL0     C62621   6.528   5.876  10.809 -0.1531  0.3204  0.0925
  475MOL0     C62622   6.892   5.814  10.608  0.2051  0.3473  0.5943
  475MOL0     C62623   7.019   5.853  10.651  0.4909  0.4927  0.3051
  475MOL0     C62624   7.118   5.899  10.567  0.5464 -0.8430 -0.4186
  475MOL0     C62625   7.102   5.879  10.428 -0.1703  0.1907  0.8369
  475MOL0     O62626   7.197   5.905  10.338 -0.1351 -0.2342  0.8798
  475MOL0     C62627   7.218   5.797  10.243 -0.2564  0.1938  0.2546
  475MOL0     C62628   7.364   5.788  10.202  0.4638  0.1396  0.3012
  475MOL0     C62629   7.423   5.925  10.176 -0.2167  0.7114  0.3208
  475MOL0     C62630   7.580   5.906  10.175  0.0195  0.5562 -0.3824
  475MOL0     C62631   7.635   6.034  10.128 -0.1795 -0.4103  0.5038
  475MOL0     C62632   7.689   6.128  10.074 -0.6378  1.0247  0.1270
  475MOL0     C62633   6.977   5.842  10.382  0.1688  0.2796  0.1299
  475MOL0     C62634   6.875   5.798  10.466  0.4666  0.5975 -0.2068
  475MOL0     H62635   6.431   5.659  10.574 -2.5264 -0.3945  0.8278
  475MOL0     H62636   6.204   5.706  10.705  0.0780 -0.7665 -2.1178
  475MOL0     H62637   6.190   6.055  10.908  0.1663  1.1504  0.5431
  475MOL0     H62638   6.203   5.972  11.074  0.2406 -1.0737 -0.0272
  475MOL0     H62639   5.995   6.114  11.027  2.2437  1.1084 -3.2454
  475MOL0     H62640   5.980   5.946  11.093  1.0686 -2.1030 -0.4943
  475MOL0     H62641   5.945   5.865  10.864 -2.4015 -1.5622  2.5418
  475MOL0     H62642   5.912   6.028  10.816 -1.0173 -1.0795 -0.6036
  475MOL0     H62643   5.768   5.852  11.006  3.2592 -1.2066 -0.7278
  475MOL0     H62644   5.737   6.021  11.017 -2.1970 -0.8402 -0.5219
  475MOL0     H62645   5.712   5.906  10.755 -1.7285 -0.6804 -0.8364
  475MOL0     H62646   5.635   6.055  10.830  0.1702 -0.6048 -1.9008
  475MOL0     H62647   5.497   5.899  10.981  1.7039 -2.3330  1.0951
  475MOL0     H62648   5.559   5.774  10.862  0.1659  0.1702  0.9928
  475MOL0     H62649   5.342   5.834  10.814  0.1784  0.6516 -1.9852
  475MOL0     H62650   5.370   6.010  10.832 -4.3774 -0.0719 -1.3077
  475MOL0     H62651   5.483   5.829  10.609  1.0743  0.8340 -0.9287
  475MOL0     H62652   5.519   5.995  10.622 -0.0307 -1.0194 -0.0560
  475MOL0     H62653   5.143   5.926  10.636  0.1719  3.1154  2.3393
  475MOL0     H62654   4.939   6.006  10.437  0.6625 -1.5487  0.1894
  475MOL0     H62655   5.016   6.137  10.341  2.6421 -2.6726 -2.0224
  475MOL0     H62656   5.066   6.260  10.552  2.5981 -1.0299 -0.0914
  475MOL0     H62657   4.982   6.124  10.644 -0.8799  2.9052  1.8104
  475MOL0     H62658   4.875   6.333  10.456 -1.5284  0.5137  0.7349
  475MOL0     H62659   4.769   6.196  10.496 -1.5164  1.7398  0.1394
  475MOL0     H62660   4.787   6.278  10.742 -0.7876  1.7812  1.2062
  475MOL0     H62661   4.713   6.385  10.623 -0.5031  0.7378  0.4337
  475MOL0     H62662   4.704   6.543  10.479  0.4981  1.1859 -2.4002
  475MOL0     H62663   4.683   6.776  10.440 -2.0802  4.6039  4.3629
  475MOL0     H62664   5.017   7.281  10.573  1.2412  0.5061  1.0095
  475MOL0     H62665   4.991   7.503  10.654  2.0468  0.3461  3.8862
  475MOL0     H62666   4.958   7.689  10.762 -1.7835  0.4631 -2.6650
  475MOL0     H62667   4.940   7.634  10.924  1.1467  2.4318  0.0389
  475MOL0     H62668   4.929   7.874  10.941 -2.0656  0.1669  2.1877
  475MOL0     H62669   4.760   7.810  10.934 -0.7651  0.1506 -1.8629
  475MOL0     H62670   4.751   7.866  10.701  1.4892  0.9137 -0.1227
  475MOL0     H62671   4.924   7.891  10.683  0.7683  0.4104  1.3611
  475MOL0     H62672   4.918   8.094  10.813  0.6114 -1.2970  0.4230
  475MOL0     H62673   4.810   8.109  10.680 -1.6292 -1.0052 -0.4508
  475MOL0     H62674   4.706   8.105  10.971  0.0669  1.5761 -0.3217
  475MOL0     H62675   4.609   8.049  10.829  2.0846 -2.1372 -1.6255
  475MOL0     H62676   4.653   8.267  10.732 -0.3486  1.1409 -0.5560
  475MOL0     H62677   4.741   8.318  10.877 -0.6758  1.8974 -0.7448
  475MOL0     H62678   4.441   8.213  10.874  0.2735  1.9239 -2.9114
  475MOL0     H62679   4.531   8.244  11.017 -2.5663 -0.7116 -0.2639
  475MOL0     H62680   4.541   8.469  10.984 -2.8466  0.2908  3.1292
  475MOL0     H62681   4.374   8.417  10.971 -1.1690  5.1110 -0.8151
  475MOL0     H62682   4.634   7.392  10.856  0.9484  0.7289 -0.0603
  475MOL0     H62683   4.646   7.171  10.769 -0.0203 -0.2827  2.5755
  475MOL0     H62684   4.989   6.869  10.735 -2.4606  2.1057 -0.3168
  475MOL0     H62685   5.028   6.632  10.757 -3.3190 -1.6882  2.3695
  475MOL0     H62686   6.411   5.965  10.962  2.4671  1.1512 -1.7374
  475MOL0     H62687   6.617   5.938  10.818  2.7224 -2.7481 -3.5471
  475MOL0     H62688   7.034   5.863  10.758  1.3403  2.6444  0.0375
  475MOL0     H62689   7.208   5.945  10.606 -0.0524 -0.4406  0.5301
  475MOL0     H62690   7.154   5.815  10.156 -2.0680  2.6270  1.9499
  475MOL0     H62691   7.187   5.700  10.283  4.0725 -0.7271  1.8864
  475MOL0     H62692   7.423   5.735  10.278  1.5131 -0.0849 -0.6291
  475MOL0     H62693   7.372   5.743  10.103 -0.6424 -0.6218  0.5414
  475MOL0     H62694   7.398   6.000  10.252  0.9901  4.2071 -2.4611
  475MOL0     H62695   7.379   5.958  10.081 -2.7693 -2.2763  0.2789
  475MOL0     H62696   7.615   5.891  10.278 -0.6731  2.1736  0.1201
  475MOL0     H62697   7.609   5.823  10.111  0.2370 -1.5762  2.3150
  475MOL0     H62698   7.743   6.212  10.038  2.3888 -0.9815 -0.3720
  475MOL0     H62699   6.948   5.822  10.279  0.2292 -3.0796  0.6508
  475MOL0     H62700   6.781   5.766  10.422  0.4217 -0.0593  0.3461
  476MOL0     O62701   5.949   1.266   2.223 -0.5820  0.4373 -0.1161
  476MOL0     C62702   5.898   1.336   2.311  0.2536  0.2031 -0.0762
  476MOL0     O62703   5.911   1.477   2.325 -0.2280  0.9819  0.2677
  476MOL0     C62704   5.935   1.537   2.210  0.3409  0.5528  0.4904
  476MOL0     C62705   6.065   1.550   2.148  0.0889  0.9197 -0.4635
  476MOL0     C62706   6.069   1.609   2.018  1.0880 -0.2820  0.4928
  476MOL0     C62707   5.956   1.660   1.952  0.2534  0.6376 -0.8440
  476MOL0     O62708   5.949   1.717   1.826 -0.3977  0.3255  0.0772
  476MOL0     C62709   6.075   1.765   1.768 -0.7099  0.3829 -0.5493
  476MOL0     C62710   6.067   1.854   1.644  0.2896  0.0494  0.7207
  476MOL0     C62711   5.984   1.977   1.686 -0.5749 -0.2875  0.3496
  476MOL0     C62712   5.966   2.067   1.560  0.7146 -0.2874  0.0895
  476MOL0     C62713   5.871   2.007   1.456 -0.0667  0.6154  0.4474
  476MOL0     C62714   5.829   2.112   1.354  0.9780  0.0284  0.6624
  476MOL0     C62715   5.734   2.055   1.232 -1.7588  0.1390  0.2709
  476MOL0     C62716   5.587   2.072   1.262 -0.3138  0.5373 -0.4151
  476MOL0     N62717   5.536   2.204   1.232 -0.5176  0.6791  0.1399
  476MOL0     C62718   5.554   2.269   1.114  0.8517 -0.1749  0.3013
  476MOL0     C62719   5.496   2.390   1.141 -0.0047  0.1961 -0.0394
  476MOL0     C62720   5.524   2.502   1.037  0.3125 -0.3359 -0.4277
  476MOL0     C62721   5.667   2.560   1.038 -0.0388 -1.0912  0.6917
  476MOL0     C62722   5.685   2.652   0.916 -0.1356  0.5408  0.0688
  476MOL0     C62723   5.831   2.685   0.885 -0.5930 -0.7133 -0.2643
  476MOL0     O62724   5.890   2.752   0.999  0.2989  0.4929 -0.5730
  476MOL0     C62725   6.018   2.757   1.030 -0.4410  0.1976  0.4999
  476MOL0     C62726   6.124   2.678   0.973  0.4452 -0.1902 -1.2329
  476MOL0     C62727   6.247   2.680   1.029  0.1900  0.7392 -0.1730
  476MOL0     C62728   6.275   2.766   1.144 -0.0735 -0.1773  0.3039
  476MOL0     C62729   6.406   2.769   1.214  0.0996 -0.9333 -0.5394
  476MOL0     O62730   6.474   2.649   1.213 -0.2514 -0.4365 -0.8094
  476MOL0     C62731   6.591   2.635   1.278 -0.7013  0.6864  1.3626
  476MOL0     C62732   6.714   2.626   1.217 -0.7813 -0.7857  0.7012
  476MOL0     C62733   6.838   2.624   1.285 -0.7042 -0.2590  0.2659
  476MOL0     C62734   6.837   2.606   1.430 -0.8232  0.2961 -0.3508
  476MOL0     O62735   6.960   2.602   1.508  0.1843 -0.4821  0.0287
  476MOL0     C62736   7.082   2.641   1.447 -0.3246  0.1935 -0.4566
  476MOL0     C62737   7.192   2.585   1.533  0.5717  0.5638 -0.1086
  476MOL0     C62738   7.338   2.619   1.484 -0.0607  0.2992 -0.1681
  476MOL0     C62739   7.458   2.559   1.574 -0.2997 -0.9461 -0.4198
  476MOL0     C62740   7.586   2.591   1.501 -0.6713  0.3216 -0.1577
  476MOL0     C62741   7.711   2.582   1.580  0.8484 -1.1312  0.8487
  476MOL0     C62742   7.839   2.561   1.481 -0.3480 -0.4494 -1.0242
  476MOL0     C62743   7.968   2.552   1.568 -0.2712  0.0991 -0.0847
  476MOL0    Cl62744   8.100   2.553   1.437  0.3079 -0.1799 -0.5193
  476MOL0     C62745   6.713   2.599   1.489  0.7479  1.0644  0.3805
  476MOL0     C62746   6.590   2.612   1.414 -0.8785 -0.1740 -0.4389
  476MOL0     O62747   6.449   2.875   1.262 -0.6053 -0.1543 -0.0983
  476MOL0     C62748   6.175   2.848   1.194  0.1809  0.0429  0.3769
  476MOL0     C62749   6.046   2.840   1.146 -0.3604 -0.1340  0.6475
  476MOL0     N62750   5.445   2.393   1.264  0.7353 -0.0361 -0.2014
  476MOL0     N62751   5.454   2.274   1.313 -0.1435  0.6082  0.5702
  476MOL0     C62752   5.839   1.651   2.012  0.6418  0.2403  0.6099
  476MOL0     C62753   5.823   1.596   2.145 -0.0454 -0.8663  1.0082
  476MOL0     C62754   5.845   1.263   2.430  0.6177 -0.7666  1.1434
  476MOL0     C62755   5.753   1.339   2.505 -0.5252  0.2112  0.4436
  476MOL0     C62756   5.688   1.287   2.617 -0.5030  0.1596 -1.1506
  476MOL0     C62757   5.712   1.161   2.652  0.8654  0.8213 -0.0006
  476MOL0     O62758   5.644   1.099   2.758 -0.3043  0.7053  1.0488
  476MOL0     C62759   5.524   1.027   2.719 -0.3962 -0.2548 -0.5225
  476MOL0     C62760   5.424   1.029   2.836  0.2011 -0.5051  0.2380
  476MOL0     C62761   5.297   0.951   2.787  0.8177  0.4691 -0.0284
  476MOL0     C62762   5.185   0.933   2.884 -0.0555  0.0407  0.2876
  476MOL0     C62763   5.071   0.858   2.824  0.2617  1.1140 -1.4922
  476MOL0     C62764   4.980   0.810   2.761  0.6334 -0.3400 -0.5936
  476MOL0     C62765   5.808   1.087   2.587 -0.1236 -0.7163 -0.3117
  476MOL0     C62766   5.869   1.134   2.475  0.4690 -0.6297 -0.1392
  476MOL0     H62767   6.160   1.504   2.174 -0.0901 -0.1645 -1.6073
  476MOL0     H62768   6.163   1.602   1.964  0.4780  3.7997 -1.4819
  476MOL0     H62769   6.140   1.678   1.758  2.0222  1.9888  1.6904
  476MOL0     H62770   6.130   1.833   1.835  1.3315 -3.6023  2.2678
  476MOL0     H62771   6.023   1.793   1.564  2.7183  0.5674 -1.1330
  476MOL0     H62772   6.167   1.871   1.602 -0.6181 -2.7355 -3.1496
  476MOL0     H62773   6.039   2.034   1.762 -2.1870 -0.0678  1.3886
  476MOL0     H62774   5.884   1.955   1.724 -1.2426  3.6901  1.3789
  476MOL0     H62775   5.944   2.167   1.599  1.2393 -0.4793  0.9118
  476MOL0     H62776   6.059   2.078   1.503  0.4721  0.0025 -0.2512
  476MOL0     H62777   5.784   1.961   1.504  1.8643 -2.3680  1.3531
  476MOL0     H62778   5.929   1.930   1.405 -1.4778  1.7209 -3.1070
  476MOL0     H62779   5.916   2.167   1.317 -0.7037  2.5103  0.2172
  476MOL0     H62780   5.771   2.192   1.400  0.9060  0.7483 -0.6343
  476MOL0     H62781   5.751   2.093   1.130 -0.5208 -2.0390 -0.4037
  476MOL0     H62782   5.757   1.949   1.217 -3.1409 -0.7482  3.6230
  476MOL0     H62783   5.565   2.053   1.368 -1.3499  0.9199 -0.5546
  476MOL0     H62784   5.532   2.000   1.202 -0.1323  0.6148 -0.6755
  476MOL0     H62785   5.617   2.259   1.027  3.6389  2.5920  1.7886
  476MOL0     H62786   5.453   2.585   1.043 -0.7647 -1.2667  0.1588
  476MOL0     H62787   5.507   2.458   0.938 -1.2905 -0.0630 -0.2946
  476MOL0     H62788   5.741   2.479   1.041  0.0594 -0.9765  1.7208
  476MOL0     H62789   5.691   2.624   1.123 -0.8141  1.1724 -0.7164
  476MOL0     H62790   5.637   2.613   0.826  0.1624  1.8305 -0.6722
  476MOL0     H62791   5.635   2.748   0.933  0.0625  0.6349  0.1331
  476MOL0     H62792   5.849   2.740   0.792  0.9283 -0.4848  0.1212
  476MOL0     H62793   5.874   2.586   0.865 -4.3075 -2.1645 -1.8643
  476MOL0     H62794   6.091   2.632   0.880 -0.8750  1.4812 -1.6543
  476MOL0     H62795   6.330   2.619   0.995 -1.8065  0.0872 -4.5370
  476MOL0     H62796   6.716   2.636   1.109  0.8361 -0.5578  0.7253
  476MOL0     H62797   6.927   2.649   1.228  0.0677 -0.6444  1.2830
  476MOL0     H62798   7.090   2.749   1.456 -1.1774  0.0801  3.9957
  476MOL0     H62799   7.095   2.617   1.341 -0.3044  1.4691 -0.7586
  476MOL0     H62800   7.176   2.476   1.538  0.8704  0.5552  2.7384
  476MOL0     H62801   7.178   2.622   1.635 -0.3007 -3.2320  1.3239
  476MOL0     H62802   7.340   2.728   1.496 -2.0893  0.7149 -2.7383
  476MOL0     H62803   7.355   2.600   1.378 -3.3205  0.0534 -0.7337
  476MOL0     H62804   7.458   2.614   1.669 -3.0240 -0.5891 -0.5468
  476MOL0     H62805   7.440   2.454   1.597 -0.1861 -0.7972  0.3986
  476MOL0     H62806   7.576   2.691   1.458  0.1699 -1.0769 -3.9999
  476MOL0     H62807   7.582   2.514   1.424  0.7797 -0.3546  0.4041
  476MOL0     H62808   7.721   2.491   1.640  2.1487 -0.2365  2.0811
  476MOL0     H62809   7.727   2.668   1.646  1.8485  1.3764 -2.4017
  476MOL0     H62810   7.832   2.476   1.414 -0.7106 -1.4459  0.2403
  476MOL0     H62811   7.858   2.650   1.420 -0.4109  0.4067  0.1546
  476MOL0     H62812   7.978   2.457   1.621  0.2912 -0.3869 -1.0318
  476MOL0     H62813   7.971   2.641   1.630 -0.8838  0.9484 -1.2349
  476MOL0     H62814   6.712   2.566   1.593  2.5645  0.6501  0.3032
  476MOL0     H62815   6.491   2.605   1.458  0.0558 -2.1412  1.6106
  476MOL0     H62816   6.199   2.915   1.277  1.4720 -1.4319  1.2543
  476MOL0     H62817   5.972   2.909   1.185  0.2564 -0.0761  1.7511
  476MOL0     H62818   5.747   1.672   1.959  0.2058 -1.7695  0.4660
  476MOL0     H62819   5.720   1.592   2.177 -1.3529  2.1920 -2.1688
  476MOL0     H62820   5.722   1.439   2.475  1.4753  0.3775 -1.3475
  476MOL0     H62821   5.614   1.333   2.682  0.7261  0.6363 -0.0275
  476MOL0     H62822   5.554   0.925   2.692 -0.7777  0.1332 -2.5762
  476MOL0     H62823   5.473   1.073   2.635 -2.1658 -1.2365 -0.0283
  476MOL0     H62824   5.470   0.976   2.920  2.0538  0.5167 -0.0699
  476MOL0     H62825   5.414   1.128   2.880  2.9492  0.4077 -0.9840
  476MOL0     H62826   5.330   0.850   2.764  1.2156  0.7765 -0.8407
  476MOL0     H62827   5.259   0.991   2.693 -1.9793 -3.2851 -0.6808
  476MOL0     H62828   5.219   0.888   2.977 -1.6305 -2.5281 -0.2720
  476MOL0     H62829   5.141   1.028   2.917 -1.1253 -0.6380  0.8810
  476MOL0     H62830   4.898   0.773   2.703 -0.9887 -0.5894  1.7342
  476MOL0     H62831   5.844   0.997   2.636  1.2621  0.8845  1.8017
  476MOL0     H62832   5.942   1.069   2.427  0.0048  0.2223 -2.0690
  477MOL0     O62833   9.443   8.836   3.862  0.9086 -0.0314  0.3093
  477MOL0     C62834   9.426   8.845   3.981  0.0054 -0.5407 -0.6278
  477MOL0     O62835   9.482   8.940   4.059  0.8520 -0.7403  0.2079
  477MOL0     C62836   9.583   9.022   4.012  0.2076 -0.0859  1.2769
  477MOL0     C62837   9.553   9.151   3.962 -0.3339  0.3430  0.5612
  477MOL0     C62838   9.659   9.232   3.917 -0.6974  0.4309 -0.2775
  477MOL0     C62839   9.793   9.191   3.929 -0.5754  0.2888 -0.1656
  477MOL0     O62840   9.896   9.275   3.897  0.2089 -0.7156  0.1570
  477MOL0     C62841  10.029   9.261   3.936  0.5245 -0.3729 -0.4371
  477MOL0     C62842  10.115   9.345   3.846  0.5216 -0.0924  0.5529
  477MOL0     C62843  10.256   9.372   3.882 -0.9429 -0.2901  0.6092
  477MOL0     C62844  10.268   9.466   4.003 -0.3225 -0.3739 -0.2132
  477MOL0     C62845  10.414   9.484   4.055  0.4139  0.2241 -0.3430
  477MOL0     C62846  10.402   9.544   4.193 -0.2927  0.0722 -1.2478
  477MOL0     C62847  10.537   9.592   4.244  0.6248  0.7655 -0.5135
  477MOL0     C62848  10.527   9.624   4.394 -0.0560  0.2714  0.7229
  477MOL0     N62849  10.452   9.751   4.403 -0.3601  0.4492 -0.0894
  477MOL0     C62850  10.507   9.868   4.363 -0.5830  0.0221 -0.0655
  477MOL0     C62851  10.408   9.960   4.381 -0.7848 -0.2707 -0.6654
  477MOL0     C62852  10.419  10.106   4.341 -0.6422  0.4416 -0.3080
  477MOL0     C62853  10.399  10.197   4.457  0.3213  0.4193 -0.0319
  477MOL0     C62854  10.535  10.216   4.529  0.1548  0.3300 -1.0938
  477MOL0     C62855  10.524  10.263   4.671  1.3877 -0.2661 -0.1686
  477MOL0     O62856  10.453  10.384   4.650  0.3267  0.1869 -0.2396
  477MOL0     C62857  10.456  10.467   4.758 -0.4905  0.5867 -0.3410
  477MOL0     C62858  10.387  10.588   4.733 -0.1720  0.6022  0.4418
  477MOL0     C62859  10.392  10.693   4.826 -0.2704 -0.7804 -0.0375
  477MOL0     C62860  10.462  10.673   4.948  0.6718  0.4563 -0.1736
  477MOL0     C62861  10.466  10.786   5.051 -0.1482  0.4186  1.6525
  477MOL0     O62862  10.417  10.907   5.018 -1.1297  0.0438  0.8111
  477MOL0     C62863  10.456  11.008   5.098  0.4038  0.0025 -0.8913
  477MOL0     C62864  10.522  11.113   5.036  0.0939 -0.2654  1.1175
  477MOL0     C62865  10.557  11.235   5.107  0.4891  0.2708  0.6077
  477MOL0     C62866  10.541  11.230   5.249  0.1894  0.6319 -0.0788
  477MOL0     O62867  10.593  11.332   5.315 -0.0683 -0.0217  0.3125
  477MOL0     C62868  10.489  11.408   5.381 -0.0858 -0.3268 -0.4487
  477MOL0     C62869  10.545  11.518   5.466  0.8267 -1.2196 -0.4121
  477MOL0     C62870  10.616  11.462   5.581  0.7728  0.1349 -0.4054
  477MOL0     C62871  10.539  11.438   5.713 -0.0803 -0.4370  0.9880
  477MOL0     C62872  10.618  11.359   5.817  0.3917  0.1484  0.0028
  477MOL0     C62873  10.640  11.207   5.786 -0.3233  0.2597 -0.9694
  477MOL0     C62874  10.705  11.136   5.902 -0.2014 -0.3156 -0.4620
  477MOL0     C62875  10.716  10.984   5.892  0.3413 -0.2381 -0.7447
  477MOL0    Cl62876  10.808  10.927   5.754  0.2297  0.3190 -0.1341
  477MOL0     C62877  10.470  11.125   5.309 -0.3986  0.3134 -0.2605
  477MOL0     C62878  10.432  11.009   5.235 -0.4330 -0.0749 -0.3079
  477MOL0     O62879  10.534  10.765   5.150 -0.2765  0.1801  0.3617
  477MOL0     C62880  10.515  10.548   4.980  0.2468 -0.8908  1.0853
  477MOL0     C62881  10.517  10.448   4.886 -0.3719  0.7245  0.2366
  477MOL0     N62882  10.293   9.896   4.418 -0.8715  0.5769 -0.6296
  477MOL0     N62883  10.319   9.768   4.429  0.1518 -0.3457 -0.6467
  477MOL0     C62884   9.809   9.056   3.971 -0.4632  0.3407  0.8707
  477MOL0     C62885   9.708   8.973   4.009 -0.2466  0.0674 -0.5147
  477MOL0     C62886   9.350   8.737   4.041 -1.0097  0.8542 -0.6464
  477MOL0     C62887   9.277   8.648   3.961 -0.0942 -0.7997 -0.2952
  477MOL0     C62888   9.194   8.556   4.017  0.1295  0.3982 -0.0337
  477MOL0     C62889   9.185   8.533   4.155  0.3827  0.5771  0.5990
  477MOL0     O62890   9.121   8.434   4.227  0.0261 -0.6863 -0.6920
  477MOL0     C62891   8.996   8.400   4.169 -0.6033 -0.0172 -0.4789
  477MOL0     C62892   8.955   8.258   4.214 -0.3781  0.2696  0.5175
  477MOL0     C62893   9.044   8.146   4.151  0.9861 -0.5773 -0.1405
  477MOL0     C62894   9.063   8.165   3.997  0.8850  0.2537 -1.1389
  477MOL0     C62895   9.134   8.043   3.963 -0.2782 -0.5552  0.4062
  477MOL0     C62896   9.207   7.946   3.951  0.6760  0.6176  0.2519
  477MOL0     C62897   9.255   8.621   4.226  0.1093  0.2743  0.0835
  477MOL0     C62898   9.341   8.726   4.178 -0.1990 -1.2039 -0.9352
  477MOL0     H62899   9.452   9.190   3.960 -0.4553  0.0234 -0.9649
  477MOL0     H62900   9.638   9.329   3.875 -1.5257  0.6178  0.5418
  477MOL0     H62901  10.062   9.157   3.944  4.3407  0.5271 -2.4400
  477MOL0     H62902  10.044   9.306   4.035  0.1060  1.3701 -1.1200
  477MOL0     H62903  10.056   9.429   3.808 -0.8435 -1.6280 -0.9067
  477MOL0     H62904  10.123   9.282   3.756 -0.2505 -0.4240  0.7025
  477MOL0     H62905  10.294   9.424   3.794 -1.7094  0.8840  0.9491
  477MOL0     H62906  10.315   9.283   3.907  0.3372  0.0828 -0.9724
  477MOL0     H62907  10.222   9.561   3.977  1.3754  0.8248  0.9651
  477MOL0     H62908  10.204   9.423   4.081 -2.8166 -0.5397 -2.2569
  477MOL0     H62909  10.479   9.538   3.985  1.9793  0.5304  1.2825
  477MOL0     H62910  10.453   9.383   4.066 -1.7148 -0.7325 -1.0781
  477MOL0     H62911  10.362   9.469   4.262  1.1513  0.3412 -0.0551
  477MOL0     H62912  10.327   9.623   4.197  0.1568  0.6686 -3.4794
  477MOL0     H62913  10.599   9.502   4.237 -1.6071 -0.6814 -3.7827
  477MOL0     H62914  10.573   9.685   4.199 -1.1877  2.3963  1.2075
  477MOL0     H62915  10.628   9.636   4.434  0.4112 -4.4931  1.5310
  477MOL0     H62916  10.479   9.546   4.452  0.5874 -1.4342 -0.9302
  477MOL0     H62917  10.601   9.890   4.313  0.9750 -3.9576  0.7478
  477MOL0     H62918  10.339  10.119   4.268 -3.3713 -2.8953  1.7814
  477MOL0     H62919  10.517  10.118   4.293  0.2707 -0.6542  1.2067
  477MOL0     H62920  10.316  10.151   4.512  0.2909  1.0584  0.4688
  477MOL0     H62921  10.373  10.292   4.410  2.5896  0.6527 -0.9434
  477MOL0     H62922  10.606  10.132   4.527  0.9861  1.0316 -1.4418
  477MOL0     H62923  10.592  10.281   4.462  1.9665 -0.4879 -0.4201
  477MOL0     H62924  10.625  10.279   4.711  1.3523 -0.8306  0.1548
  477MOL0     H62925  10.479  10.187   4.734  1.8792 -0.7633 -0.4062
  477MOL0     H62926  10.342  10.623   4.641  0.3440 -0.5457 -0.2644
  477MOL0     H62927  10.346  10.786   4.796 -0.1818  0.2187  2.6484
  477MOL0     H62928  10.557  11.108   4.934  2.3781 -0.7234  1.8682
  477MOL0     H62929  10.618  11.312   5.061  3.3397 -2.4420 -0.5068
  477MOL0     H62930  10.429  11.347   5.449  3.1095  1.3925  4.4712
  477MOL0     H62931  10.418  11.445   5.307 -0.3498  0.5548  0.2278
  477MOL0     H62932  10.464  11.579   5.507  0.7862 -1.3307 -0.3225
  477MOL0     H62933  10.599  11.590   5.404 -3.4970  1.4480 -1.4988
  477MOL0     H62934  10.691  11.535   5.613 -0.0960 -0.0296  2.2720
  477MOL0     H62935  10.672  11.372   5.556 -0.4704 -1.0991  1.0479
  477MOL0     H62936  10.516  11.538   5.751  1.2682  0.3708 -0.1848
  477MOL0     H62937  10.447  11.383   5.695 -0.4098  1.2217 -4.2267
  477MOL0     H62938  10.556  11.367   5.906  0.9440 -0.5216  0.4573
  477MOL0     H62939  10.706  11.419   5.840  0.5366  0.6942 -1.7790
  477MOL0     H62940  10.707  11.211   5.699 -1.5640  0.0635 -1.9542
  477MOL0     H62941  10.557  11.148   5.746 -1.3740  2.8821 -2.9448
  477MOL0     H62942  10.809  11.166   5.916 -0.1262  0.4240 -2.2563
  477MOL0     H62943  10.663  11.168   5.998  1.1329 -1.8901  0.6955
  477MOL0     H62944  10.618  10.938   5.877  0.3503 -0.5179  0.0323
  477MOL0     H62945  10.765  10.947   5.983 -1.9385  1.1694  1.1543
  477MOL0     H62946  10.448  11.121   5.415 -0.3251 -1.0894 -0.2760
  477MOL0     H62947  10.391  10.927   5.293  1.4925 -1.1598 -0.3762
  477MOL0     H62948  10.584  10.532   5.063  1.8222  1.7196  0.3923
  477MOL0     H62949  10.580  10.365   4.916 -1.0294 -0.2719 -1.0255
  477MOL0     H62950   9.909   9.015   3.985 -1.3457 -2.0046  0.7058
  477MOL0     H62951   9.715   8.869   4.039  0.6552  0.7461  1.8663
  477MOL0     H62952   9.281   8.651   3.852  0.7843 -1.9182 -0.3080
  477MOL0     H62953   9.147   8.497   3.940 -1.5826  1.8478 -0.1740
  477MOL0     H62954   8.991   8.420   4.062  0.2402  3.3891 -0.0103
  477MOL0     H62955   8.920   8.474   4.197 -1.6982 -1.0395 -0.6705
  477MOL0     H62956   8.944   8.258   4.322  1.2517 -1.8152  0.7453
  477MOL0     H62957   8.851   8.244   4.183  1.0956 -2.2977 -4.4745
  477MOL0     H62958   8.970   8.066   4.166  0.1230  0.3142  0.5028
  477MOL0     H62959   9.136   8.135   4.208  1.1273 -0.8102 -0.4145
  477MOL0     H62960   8.966   8.172   3.947  0.2500  0.7531  0.1140
  477MOL0     H62961   9.117   8.259   3.977  0.3016  1.1825  1.3550
  477MOL0     H62962   9.252   7.849   3.953  0.3760  0.4695 -0.0629
  477MOL0     H62963   9.260   8.607   4.333  1.9706  1.5669  0.2072
  477MOL0     H62964   9.393   8.783   4.255 -1.9028  0.9768 -1.3168
  478MOL0     O62965   9.461   5.217   0.311  0.2155  0.5928 -0.2274
  478MOL0     C62966   9.508   5.101   0.320 -0.5418  0.6033  0.2530
  478MOL0     O62967   9.641   5.068   0.327  0.4916  0.5769  0.2411
  478MOL0     C62968   9.736   5.157   0.365 -0.2750  0.7942 -0.3496
  478MOL0     C62969   9.723   5.270   0.451  0.6511 -0.2839  0.2090
  478MOL0     C62970   9.827   5.359   0.474 -1.6977 -0.1424 -0.1181
  478MOL0     C62971   9.956   5.327   0.435 -0.6813 -0.9834  0.2758
  478MOL0     O62972  10.066   5.392   0.465  0.2311 -0.6005 -0.2767
  478MOL0     C62973  10.058   5.481   0.581  0.4898 -0.2208 -0.1304
  478MOL0     C62974  10.196   5.517   0.637  0.1979 -0.4954  0.0025
  478MOL0     C62975  10.271   5.616   0.543 -0.2773 -0.3347 -0.0094
  478MOL0     C62976  10.222   5.769   0.567 -0.1246  0.5253  0.1248
  478MOL0     C62977  10.308   5.873   0.500 -0.5927 -0.0301 -0.0698
  478MOL0     C62978  10.445   5.892   0.582 -0.8157  0.4030 -1.2114
  478MOL0     C62979  10.545   5.986   0.528  0.5253 -0.3336  0.0003
  478MOL0     C62980  10.616   5.930   0.405 -0.0969 -0.3499  0.3897
  478MOL0     N62981  10.723   5.842   0.439 -0.1717 -0.3701 -0.0601
  478MOL0     C62982  10.848   5.888   0.480 -0.5372  0.2128  0.6011
  478MOL0     C62983  10.923   5.781   0.494  0.7453  1.1682  0.4406
  478MOL0     C62984  11.070   5.768   0.522  0.6178 -0.2333 -0.0346
  478MOL0     C62985  11.111   5.685   0.644 -0.5353  0.0091  0.1471
  478MOL0     C62986  11.266   5.663   0.632  0.0718  0.1543  0.0882
  478MOL0     C62987  11.323   5.599   0.762 -0.1413 -0.3766  0.5108
  478MOL0     O62988  11.456   5.561   0.746  0.1725  0.6920 -0.2353
  478MOL0     C62989  11.548   5.655   0.782 -0.8961  0.3491 -0.1282
  478MOL0     C62990  11.680   5.611   0.795  0.4212  0.0930 -0.7541
  478MOL0     C62991  11.782   5.693   0.845 -0.6688  0.3185 -0.0920
  478MOL0     C62992  11.759   5.827   0.872 -0.6458 -0.3217 -0.5543
  478MOL0     C62993  11.862   5.914   0.911  1.0597  0.2038 -0.0049
  478MOL0     O62994  11.963   5.848   0.977  0.4644 -0.4937  0.3807
  478MOL0     C62995  12.087   5.899   0.998 -0.6117 -0.4852  0.5536
  478MOL0     C62996  12.165   5.960   0.900 -1.4105  0.3289 -0.3494
  478MOL0     C62997  12.302   6.002   0.931  0.6771  0.1771 -0.4965
  478MOL0     C62998  12.352   5.983   1.067 -0.3538  0.2251  0.4993
  478MOL0     O62999  12.477   6.029   1.099 -0.4103  0.3027 -0.1107
  478MOL0     C63000  12.491   6.111   1.217 -0.2019  0.9954  0.4598
  478MOL0     C63001  12.605   6.216   1.208 -0.2269  0.2739  0.3578
  478MOL0     C63002  12.734   6.162   1.134 -0.4485 -0.3029  0.1646
  478MOL0     C63003  12.844   6.267   1.130  0.2268 -0.5405  0.6508
  478MOL0     C63004  12.955   6.195   1.058 -0.1545  0.1469  0.9562
  478MOL0     C63005  13.081   6.285   1.066  0.2096 -0.3127 -0.0785
  478MOL0     C63006  13.197   6.218   0.990  0.0322  0.0293  0.2130
  478MOL0     C63007  13.306   6.328   0.956  0.0725  0.3084  0.6950
  478MOL0    Cl63008  13.459   6.250   0.901  0.1725 -0.1122 -0.2003
  478MOL0     C63009  12.273   5.924   1.157  0.5577  0.1083  0.7079
  478MOL0     C63010  12.142   5.875   1.124 -0.2534  0.4201  0.8031
  478MOL0     O63011  11.850   6.038   0.906 -0.3198  0.0153 -0.1561
  478MOL0     C63012  11.631   5.870   0.846  0.5264 -0.1142 -0.0902
  478MOL0     C63013  11.523   5.792   0.806 -0.0616 -0.1377 -0.1353
  478MOL0     N63014  10.848   5.675   0.448 -0.4921  0.3088  0.0041
  478MOL0     N63015  10.735   5.705   0.428 -0.6057 -0.1231  0.3530
  478MOL0     C63016   9.980   5.211   0.356  0.5703  0.1924 -0.4352
  478MOL0     C63017   9.871   5.126   0.322 -0.8252  0.4835 -0.7841
  478MOL0     C63018   9.413   4.992   0.343 -0.4303 -0.0442  0.4492
  478MOL0     C63019   9.281   4.999   0.301 -0.6345 -0.0365 -0.1293
  478MOL0     C63020   9.188   4.890   0.322  0.1900  0.3682  0.0666
  478MOL0     C63021   9.228   4.780   0.399  0.4811  0.7633  0.2591
  478MOL0     O63022   9.139   4.681   0.414 -0.0855 -0.0354 -0.0374
  478MOL0     C63023   9.185   4.542   0.413 -0.0642 -0.0232 -0.4029
  478MOL0     C63024   9.259   4.503   0.283  0.7142  0.2173 -0.8337
  478MOL0     C63025   9.306   4.361   0.260 -0.0457 -0.1310  1.0489
  478MOL0     C63026   9.224   4.306   0.137  0.2433  0.7040  0.8921
  478MOL0     C63027   9.101   4.242   0.181  0.1418  0.1375  0.7569
  478MOL0     C63028   8.990   4.183   0.195 -0.3457  0.2106 -0.0659
  478MOL0     C63029   9.366   4.775   0.439  0.6607  0.1437 -0.1433
  478MOL0     C63030   9.455   4.880   0.411  0.3800 -0.0143  0.0785
  478MOL0     H63031   9.622   5.295   0.482  0.4322 -0.9004  0.0044
  478MOL0     H63032   9.798   5.451   0.524 -1.8906 -0.7819  0.9804
  478MOL0     H63033  10.016   5.420   0.661  0.5327 -0.3017 -0.1688
  478MOL0     H63034  10.004   5.573   0.562 -0.8923 -1.3856 -2.1705
  478MOL0     H63035  10.250   5.422   0.646  1.4272  0.2033  0.3515
  478MOL0     H63036  10.197   5.565   0.736  1.0569  0.1884 -0.3199
  478MOL0     H63037  10.269   5.591   0.437 -2.0532 -0.3782  0.0015
  478MOL0     H63038  10.371   5.610   0.586 -0.4855  1.5062  0.8063
  478MOL0     H63039  10.119   5.783   0.532 -0.2272  3.3060  1.3132
  478MOL0     H63040  10.226   5.792   0.674  1.3799 -1.7984  0.6519
  478MOL0     H63041  10.271   5.976   0.501  0.9156  0.5319  0.0163
  478MOL0     H63042  10.326   5.855   0.394  1.7645 -0.8539  0.4215
  478MOL0     H63043  10.490   5.795   0.604 -3.7020 -1.0625 -1.2676
  478MOL0     H63044  10.405   5.918   0.680  2.0128  1.1190 -0.1572
  478MOL0     H63045  10.491   6.078   0.504  1.1316  0.9254  3.0025
  478MOL0     H63046  10.615   6.006   0.610  1.5670 -1.4677 -0.5677
  478MOL0     H63047  10.662   6.006   0.342  0.8170 -2.4577 -1.6282
  478MOL0     H63048  10.542   5.864   0.359 -0.9463  1.6194 -1.1900
  478MOL0     H63049  10.885   5.983   0.517  0.7715 -0.3002  0.6820
  478MOL0     H63050  11.104   5.872   0.530  2.1006 -0.4803 -2.2759
  478MOL0     H63051  11.128   5.729   0.438  1.6159 -0.4592  0.7406
  478MOL0     H63052  11.052   5.594   0.640 -0.1682 -0.2231 -0.1061
  478MOL0     H63053  11.092   5.737   0.738  2.3733 -0.2412  0.9943
  478MOL0     H63054  11.290   5.580   0.565  1.3492 -3.0166  4.0450
  478MOL0     H63055  11.317   5.757   0.612  1.0703 -0.5331 -0.6912
  478MOL0     H63056  11.259   5.514   0.791  1.2902 -1.9063 -0.6443
  478MOL0     H63057  11.302   5.674   0.838  2.3094 -0.1006  0.9900
  478MOL0     H63058  11.705   5.509   0.765  1.6619  0.4089 -0.8395
  478MOL0     H63059  11.876   5.643   0.866  0.1114  1.8247  0.0950
  478MOL0     H63060  12.118   5.970   0.802  1.2497  0.6726 -1.6905
  478MOL0     H63061  12.369   6.056   0.864  0.0934  2.9268  0.9701
  478MOL0     H63062  12.525   6.045   1.298 -1.2583 -0.6383 -0.3673
  478MOL0     H63063  12.396   6.156   1.248 -1.6461 -2.2059  1.0805
  478MOL0     H63064  12.627   6.255   1.307 -3.5597  2.5180  0.3532
  478MOL0     H63065  12.566   6.306   1.159  2.4308  0.5507 -1.4724
  478MOL0     H63066  12.720   6.136   1.028 -1.2106  1.3487 -0.1640
  478MOL0     H63067  12.780   6.076   1.184  1.4453  0.8129  0.4414
  478MOL0     H63068  12.806   6.357   1.082  0.1595  0.4116  2.4165
  478MOL0     H63069  12.880   6.293   1.229  1.0498 -1.1523  0.5255
  478MOL0     H63070  12.929   6.179   0.953 -2.1468 -1.3464  1.6147
  478MOL0     H63071  12.974   6.100   1.108  1.8137  0.2723  0.5025
  478MOL0     H63072  13.104   6.301   1.172 -2.1553  0.6334  0.3402
  478MOL0     H63073  13.062   6.380   1.015 -0.6848 -1.0643 -1.2079
  478MOL0     H63074  13.241   6.154   1.066 -0.3611  2.7335  2.8790
  478MOL0     H63075  13.156   6.148   0.916  0.5453 -1.2038  1.0796
  478MOL0     H63076  13.333   6.372   1.052  2.3076 -4.4027  2.5505
  478MOL0     H63077  13.272   6.407   0.887 -0.1279 -1.5925 -1.5121
  478MOL0     H63078  12.312   5.905   1.257  3.4017  3.2445  0.3944
  478MOL0     H63079  12.081   5.835   1.205 -1.0414 -1.9831 -0.8702
  478MOL0     H63080  11.592   5.970   0.861  0.4560 -0.0430 -0.7410
  478MOL0     H63081  11.424   5.834   0.791 -0.4222 -0.5220  0.9901
  478MOL0     H63082  10.079   5.188   0.315 -0.6180 -4.1531 -1.4164
  478MOL0     H63083   9.875   5.050   0.245 -2.5570 -0.4044 -0.0612
  478MOL0     H63084   9.260   5.081   0.232 -0.4818  0.7461  0.7316
  478MOL0     H63085   9.089   4.903   0.282  1.1989 -0.4138 -2.9801
  478MOL0     H63086   9.096   4.480   0.429 -0.8303  1.5790  2.2670
  478MOL0     H63087   9.245   4.528   0.503 -0.2929  0.1885 -0.2128
  478MOL0     H63088   9.184   4.529   0.208  0.0703  0.2719 -0.1845
  478MOL0     H63089   9.343   4.568   0.257  0.8289 -0.8459 -3.2832
  478MOL0     H63090   9.292   4.311   0.356  1.7713 -3.3723 -0.2479
  478MOL0     H63091   9.410   4.355   0.229  0.6841 -1.2665  3.4900
  478MOL0     H63092   9.208   4.387   0.065  3.9805 -1.5136 -2.8744
  478MOL0     H63093   9.283   4.229   0.088  1.8034  2.3700  0.0449
  478MOL0     H63094   8.904   4.119   0.200  3.0630 -5.1955 -1.7177
  478MOL0     H63095   9.413   4.694   0.494 -1.2375 -0.8398  0.1481
  478MOL0     H63096   9.558   4.874   0.445  0.9108  0.2695 -1.3715
  479MOL0     O63097   3.835   6.141   1.894 -0.5806  0.3627 -0.7585
  479MOL0     C63098   3.771   6.108   1.995 -0.4403 -0.2355  0.2847
  479MOL0     O63099   3.635   6.108   2.011  1.0176  0.1550 -0.7743
  479MOL0     C63100   3.550   6.150   1.916 -0.1539 -0.1279  0.1416
  479MOL0     C63101   3.585   6.257   1.826  0.7095  0.4265  0.5155
  479MOL0     C63102   3.477   6.314   1.740  0.4119  1.2527  0.5103
  479MOL0     C63103   3.353   6.252   1.740  0.8307 -0.8200  0.3290
  479MOL0     O63104   3.257   6.325   1.671  0.3662  0.0211 -0.0605
  479MOL0     C63105   3.242   6.267   1.539  0.1211  0.6929  0.7599
  479MOL0     C63106   3.102   6.321   1.488 -1.2916  0.1136 -0.6816
  479MOL0     C63107   3.084   6.271   1.339  0.6076 -0.5155 -0.5040
  479MOL0     C63108   2.948   6.323   1.283  0.1216  0.2797  0.1782
  479MOL0     C63109   2.942   6.296   1.133  0.0267  0.5040  0.4118
  479MOL0     C63110   2.790   6.284   1.083  0.6773  0.2784  0.4725
  479MOL0     C63111   2.774   6.230   0.931 -0.0990 -0.1172 -0.1046
  479MOL0     C63112   2.621   6.185   0.900  0.5728  0.1854 -0.4185
  479MOL0     N63113   2.597   6.057   0.967  0.0749 -0.0350  1.2088
  479MOL0     C63114   2.610   5.937   0.905 -0.2196 -0.0834  0.6512
  479MOL0     C63115   2.593   5.837   0.989  0.3315 -0.8054  0.8141
  479MOL0     C63116   2.605   5.684   0.969 -0.2910  0.0059 -0.3401
  479MOL0     C63117   2.507   5.657   0.853  0.6773  0.1426 -0.4848
  479MOL0     C63118   2.516   5.504   0.815 -0.1878  0.8907 -0.4005
  479MOL0     C63119   2.654   5.452   0.772  0.7870 -0.1675 -1.0197
  479MOL0     O63120   2.683   5.498   0.637  0.7275 -0.2455 -0.2951
  479MOL0     C63121   2.802   5.474   0.579  0.2654 -0.3664 -0.5856
  479MOL0     C63122   2.912   5.417   0.644  0.8563 -0.2836  0.1274
  479MOL0     C63123   3.023   5.371   0.575  0.3658 -0.4601  0.2025
  479MOL0     C63124   3.038   5.397   0.437  0.3124 -0.1355 -0.6410
  479MOL0     C63125   3.169   5.365   0.358  0.8770  0.0549 -1.1449
  479MOL0     O63126   3.178   5.388   0.230  0.2433 -0.4518 -0.4377
  479MOL0     C63127   3.283   5.333   0.151  0.0775 -0.0836  0.0361
  479MOL0     C63128   3.252   5.290   0.018  0.0026  0.5111 -0.3941
  479MOL0     C63129   3.348   5.243  -0.070 -0.3064 -0.3130  0.0866
  479MOL0     C63130   3.480   5.237  -0.032 -0.4147 -0.1345 -0.7258
  479MOL0     O63131   3.573   5.189  -0.117 -0.1396  0.6528  0.2444
  479MOL0     C63132   3.717   5.218  -0.115 -0.3897  0.6256 -0.0153
  479MOL0     C63133   3.804   5.147  -0.214 -0.4154 -0.1182 -0.1069
  479MOL0     C63134   3.945   5.129  -0.162 -0.3655  0.8338  0.0272
  479MOL0     C63135   3.947   5.023  -0.045  0.1417  0.4194 -0.0177
  479MOL0     C63136   4.009   5.082   0.079 -0.5250  0.5595 -0.8268
  479MOL0     C63137   4.058   4.973   0.182 -0.2123 -0.7417  0.5341
  479MOL0     C63138   4.159   5.038   0.280 -0.5496 -0.8319  0.1143
  479MOL0     C63139   4.115   5.174   0.353 -0.2600  0.6853  0.4805
  479MOL0    Cl63140   4.145   5.334   0.265 -0.1267  0.4876 -0.3008
  479MOL0     C63141   3.515   5.271   0.102  0.5645  0.9107 -0.6306
  479MOL0     C63142   3.414   5.323   0.188  0.0976 -0.7871  0.1734
  479MOL0     O63143   3.250   5.295   0.422 -1.0831  0.2546 -0.8474
  479MOL0     C63144   2.935   5.468   0.375  0.1476  0.2693 -0.5582
  479MOL0     C63145   2.820   5.510   0.439 -0.7019 -0.6410 -0.5916
  479MOL0     N63146   2.562   5.905   1.108  0.1000 -0.4744 -0.1021
  479MOL0     N63147   2.552   6.039   1.092 -0.7334 -0.5832 -0.3871
  479MOL0     C63148   3.336   6.136   1.809  0.4173 -0.4569 -0.8054
  479MOL0     C63149   3.429   6.086   1.885 -1.4841 -0.0768 -0.3905
  479MOL0     C63150   3.856   6.058   2.098 -0.6836  0.0193  1.4834
  479MOL0     C63151   3.800   5.985   2.194  0.0927 -0.7955 -0.3139
  479MOL0     C63152   3.877   5.914   2.288  0.3357  0.2510 -0.2194
  479MOL0     C63153   4.013   5.918   2.282  0.1357  0.3484 -0.3741
  479MOL0     O63154   4.076   5.845   2.376 -0.2799  1.1056 -0.2302
  479MOL0     C63155   4.136   5.926   2.477  0.1802  0.2803  0.1936
  479MOL0     C63156   4.035   5.996   2.561  0.4798  0.1647  0.3254
  479MOL0     C63157   4.089   6.076   2.683  0.5583 -0.2585  0.2591
  479MOL0     C63158   4.102   5.975   2.805  0.8430 -0.3231 -0.4105
  479MOL0     C63159   4.134   6.051   2.937  0.2738 -0.3769  0.2124
  479MOL0     C63160   4.166   6.129   3.024  1.0428 -0.1006 -1.1801
  479MOL0     C63161   4.069   6.014   2.193 -0.0478 -0.5139  0.7169
  479MOL0     C63162   3.996   6.083   2.097 -0.5422 -0.0296  0.6653
  479MOL0     H63163   3.680   6.308   1.821  0.6280  0.5015 -1.1318
  479MOL0     H63164   3.494   6.406   1.684  2.4799 -0.6598 -2.3078
  479MOL0     H63165   3.231   6.158   1.548  1.0645  0.7430  3.2894
  479MOL0     H63166   3.325   6.290   1.472 -0.3245 -0.5793 -0.2801
  479MOL0     H63167   3.104   6.430   1.503 -1.2979  0.0048  0.1563
  479MOL0     H63168   3.024   6.283   1.554  0.1382 -0.1425  0.9358
  479MOL0     H63169   3.105   6.166   1.314  2.2241 -0.4521  0.4701
  479MOL0     H63170   3.155   6.314   1.269 -1.0207 -1.9595 -3.2110
  479MOL0     H63171   2.867   6.267   1.329 -0.1438  1.6759  1.4802
  479MOL0     H63172   2.931   6.431   1.291  0.1141  0.2780  0.1803
  479MOL0     H63173   2.997   6.203   1.112 -1.5438 -0.0632 -1.4705
  479MOL0     H63174   2.994   6.372   1.074  1.6390 -1.3220 -0.6591
  479MOL0     H63175   2.742   6.382   1.093 -1.1686 -0.4553 -0.6003
  479MOL0     H63176   2.733   6.217   1.148 -4.7374  2.9414 -0.8931
  479MOL0     H63177   2.801   6.319   0.875  0.1288 -0.3510 -0.3713
  479MOL0     H63178   2.846   6.150   0.910  0.5667  0.7612 -1.2950
  479MOL0     H63179   2.623   6.177   0.791  3.0322  2.2596 -0.6203
  479MOL0     H63180   2.546   6.253   0.940  0.8435 -0.3553  1.0732
  479MOL0     H63181   2.647   5.938   0.803 -0.1538  3.3734  0.6031
  479MOL0     H63182   2.589   5.623   1.058 -0.2187 -1.0582 -1.0360
  479MOL0     H63183   2.708   5.658   0.942  0.0628 -1.3879  2.0636
  479MOL0     H63184   2.533   5.716   0.764 -0.9711  2.7415  0.6381
  479MOL0     H63185   2.404   5.681   0.880  0.5075 -0.6972 -0.3671
  479MOL0     H63186   2.492   5.436   0.897 -0.4519 -1.8900 -2.6407
  479MOL0     H63187   2.445   5.473   0.737  1.4831 -4.0215 -0.2956
  479MOL0     H63188   2.650   5.343   0.776 -1.8115 -0.1530 -1.5211
  479MOL0     H63189   2.728   5.485   0.846  0.1426  1.2929 -0.9913
  479MOL0     H63190   2.895   5.406   0.751 -0.6607  1.1816  0.0608
  479MOL0     H63191   3.108   5.319   0.617  1.4550 -1.4474 -2.9890
  479MOL0     H63192   3.151   5.288  -0.022 -0.0650 -2.6173 -0.3768
  479MOL0     H63193   3.318   5.207  -0.168 -0.2288 -2.1024  0.6794
  479MOL0     H63194   3.757   5.201  -0.014  1.1972  1.3320 -0.4846
  479MOL0     H63195   3.733   5.324  -0.137  1.7716 -0.1729 -2.8747
  479MOL0     H63196   3.812   5.211  -0.302  1.2748  2.0868  1.5228
  479MOL0     H63197   3.762   5.049  -0.238 -0.0318 -0.0027 -1.3239
  479MOL0     H63198   3.994   5.222  -0.134  0.8378 -0.0050  0.7969
  479MOL0     H63199   3.998   5.078  -0.243 -0.3291 -0.1707  0.6627
  479MOL0     H63200   3.851   4.975  -0.024  0.6875 -1.0163 -0.6126
  479MOL0     H63201   4.004   4.935  -0.078 -1.6057 -1.1623  0.9716
  479MOL0     H63202   3.936   5.151   0.122 -1.2299 -0.2426 -0.7145
  479MOL0     H63203   4.093   5.137   0.035  2.6390 -3.1620 -0.0141
  479MOL0     H63204   4.115   4.895   0.130  2.3379  0.4287  1.4210
  479MOL0     H63205   3.972   4.922   0.226 -0.7302 -1.2735 -1.0205
  479MOL0     H63206   4.199   4.971   0.356  0.9424  1.3940  1.4131
  479MOL0     H63207   4.234   5.064   0.205 -0.7951  3.0470  0.9911
  479MOL0     H63208   4.175   5.167   0.444 -1.2019 -0.6143  1.0243
  479MOL0     H63209   4.011   5.174   0.385  0.4684 -1.1935  3.1777
  479MOL0     H63210   3.614   5.266   0.147  0.1467 -2.9277  0.2094
  479MOL0     H63211   3.439   5.358   0.287  0.6496 -0.6983  0.0031
  479MOL0     H63212   2.938   5.497   0.270 -0.8120 -1.5401 -1.1311
  479MOL0     H63213   2.748   5.573   0.388  0.9697  1.8016 -0.1515
  479MOL0     H63214   3.240   6.084   1.812  0.6833 -0.9308  1.7871
  479MOL0     H63215   3.409   5.987   1.924 -2.1899  0.9624  2.0301
  479MOL0     H63216   3.692   6.000   2.197  0.3333  2.8833 -2.6598
  479MOL0     H63217   3.839   5.838   2.357  1.8396  0.0353  0.4151
  479MOL0     H63218   4.207   5.998   2.435  1.0111 -0.1363  0.8576
  479MOL0     H63219   4.204   5.859   2.531  2.6591  2.2723 -0.2468
  479MOL0     H63220   3.993   6.076   2.500  1.4336  1.0734  0.8182
  479MOL0     H63221   3.944   5.943   2.590  1.4544 -0.7929  1.7804
  479MOL0     H63222   4.009   6.144   2.715 -1.2779 -2.8339  1.5019
  479MOL0     H63223   4.165   6.147   2.651  0.8637  0.5757  2.5758
  479MOL0     H63224   4.012   5.915   2.818  2.4473 -3.0386 -0.9291
  479MOL0     H63225   4.178   5.897   2.790  1.4993  0.3089 -0.4359
  479MOL0     H63226   4.200   6.210   3.085 -1.0369  0.3986 -0.6264
  479MOL0     H63227   4.175   6.032   2.208  0.3777 -2.3666  0.2105
  479MOL0     H63228   4.048   6.151   2.030 -1.7951  1.5501  1.2144
  480MOL0     O63229   8.097   3.356   2.819  0.0914  0.2466  0.3434
  480MOL0     C63230   8.133   3.382   2.706  1.5090  1.0445 -0.1958
  480MOL0     O63231   8.114   3.498   2.638  1.0336 -0.5876 -0.6974
  480MOL0     C63232   8.107   3.610   2.720 -0.1630  0.4219 -0.3552
  480MOL0     C63233   8.003   3.699   2.705  0.4068 -0.0885 -0.4332
  480MOL0     C63234   7.981   3.801   2.802  0.6393 -0.0697 -0.0237
  480MOL0     C63235   8.083   3.815   2.899 -0.6674  0.0015 -0.4166
  480MOL0     O63236   8.099   3.917   2.989  0.1474 -0.1389  0.0212
  480MOL0     C63237   7.976   3.973   3.042  0.2612  0.4751 -0.0172
  480MOL0     C63238   8.020   4.061   3.151  0.6197 -0.2050 -0.1990
  480MOL0     C63239   7.898   4.128   3.212  0.3940  0.8821 -0.1564
  480MOL0     C63240   7.937   4.241   3.315 -0.8863 -0.3134  0.1487
  480MOL0     C63241   7.825   4.290   3.402 -0.0251  0.0126  0.4228
  480MOL0     C63242   7.856   4.301   3.553  0.2880  0.1876  0.6232
  480MOL0     C63243   7.958   4.407   3.584 -1.1030 -0.0341 -0.2570
  480MOL0     C63244   7.904   4.548   3.610  0.2774  0.1241 -0.3567
  480MOL0     N63245   8.008   4.647   3.618 -0.7186 -0.4012  0.3266
  480MOL0     C63246   8.104   4.673   3.522  0.2290 -0.2160  0.1060
  480MOL0     C63247   8.178   4.769   3.571 -0.4281  0.8373 -0.0145
  480MOL0     C63248   8.282   4.842   3.491 -0.0218  0.2699 -0.2353
  480MOL0     C63249   8.420   4.828   3.549 -0.0024  0.4907 -0.3657
  480MOL0     C63250   8.518   4.937   3.525 -0.0542 -0.2774 -0.4647
  480MOL0     C63251   8.631   4.910   3.619  0.1115 -1.0492 -0.0828
  480MOL0     O63252   8.729   5.011   3.622 -0.3058  0.6168  0.0588
  480MOL0     C63253   8.696   5.116   3.704 -0.0195  0.5741 -0.3264
  480MOL0     C63254   8.642   5.224   3.642  0.4051 -0.4088  1.2869
  480MOL0     C63255   8.604   5.341   3.709  0.0098 -1.2019  0.2131
  480MOL0     C63256   8.620   5.350   3.851  0.1671 -0.1500  0.5590
  480MOL0     C63257   8.577   5.459   3.935  0.0224  0.0147 -0.2189
  480MOL0     O63258   8.587   5.448   4.072 -0.3658  0.0141  0.0796
  480MOL0     C63259   8.557   5.548   4.161 -0.9429  0.1851 -0.9583
  480MOL0     C63260   8.574   5.505   4.296 -0.9918  0.2586  0.1460
  480MOL0     C63261   8.546   5.585   4.399  0.2683 -1.0817 -0.0263
  480MOL0     C63262   8.518   5.719   4.376 -0.8281  0.4445  1.3014
  480MOL0     O63263   8.508   5.814   4.473  0.1894  1.1562  0.4901
  480MOL0     C63264   8.526   5.774   4.610  0.1261  0.2103  0.8166
  480MOL0     C63265   8.398   5.702   4.671 -0.0617  0.0015  0.0526
  480MOL0     C63266   8.412   5.677   4.813  0.5613 -0.1163 -0.2111
  480MOL0     C63267   8.283   5.615   4.876 -0.1256  0.3936 -0.2962
  480MOL0     C63268   8.294   5.594   5.027 -0.0571  0.0883  0.1012
  480MOL0     C63269   8.167   5.527   5.078  0.8502 -0.9547 -0.9555
  480MOL0     C63270   8.185   5.481   5.225  0.2745 -0.0223 -1.4332
  480MOL0     C63271   8.051   5.434   5.292 -0.9780  1.1443  0.4775
  480MOL0    Cl63272   7.930   5.566   5.291  0.0007 -0.0847 -0.1081
  480MOL0     C63273   8.481   5.759   4.247  0.0772  0.1703  0.0976
  480MOL0     C63274   8.511   5.679   4.136 -0.6472  0.3270 -0.0465
  480MOL0     O63275   8.538   5.554   3.879  0.4101  0.8948  0.2083
  480MOL0     C63276   8.666   5.230   3.917  0.3839 -0.2159  0.2803
  480MOL0     C63277   8.705   5.117   3.845 -0.2318  1.1851  0.5406
  480MOL0     N63278   8.150   4.772   3.707  0.5521 -0.4651  0.5699
  480MOL0     N63279   8.039   4.713   3.736  0.4437 -0.5905  0.5722
  480MOL0     C63280   8.191   3.728   2.910  0.0858 -0.0094  0.1396
  480MOL0     C63281   8.201   3.618   2.825 -0.5438 -0.4025  0.0803
  480MOL0     C63282   8.185   3.273   2.634 -0.1026  0.4619 -0.7305
  480MOL0     C63283   8.197   3.142   2.689  1.2166 -0.2146  1.0518
  480MOL0     C63284   8.281   3.059   2.630  1.4532  0.0419  0.5338
  480MOL0     C63285   8.331   3.077   2.500 -0.5070 -0.1748 -0.0981
  480MOL0     O63286   8.389   2.982   2.423 -0.3507  0.6358  0.1206
  480MOL0     C63287   8.423   2.850   2.464  0.2650 -0.5772  0.1852
  480MOL0     C63288   8.545   2.830   2.552 -0.3928 -0.2092 -0.6599
  480MOL0     C63289   8.666   2.824   2.456  0.5862 -0.5865  0.8087
  480MOL0     C63290   8.788   2.898   2.519  0.7473 -0.0284  0.2329
  480MOL0     C63291   8.866   2.821   2.615 -1.2448 -0.3323 -0.3654
  480MOL0     C63292   8.917   2.757   2.708 -0.0292  0.5435  0.3152
  480MOL0     C63293   8.323   3.204   2.452  0.2228  0.1554  0.1905
  480MOL0     C63294   8.253   3.301   2.519  0.4377  0.6285  0.3012
  480MOL0     H63295   7.934   3.666   2.628 -0.0276 -0.9851  0.3163
  480MOL0     H63296   7.903   3.875   2.792  0.5943 -0.3125 -1.7900
  480MOL0     H63297   7.918   3.896   3.094  1.1162  0.1095  0.4047
  480MOL0     H63298   7.922   4.030   2.966 -1.1138  1.5110  1.6597
  480MOL0     H63299   8.086   4.138   3.110  0.8932 -0.5237 -0.3572
  480MOL0     H63300   8.069   4.005   3.231 -2.6342 -4.0087 -0.5746
  480MOL0     H63301   7.835   4.054   3.261  2.5184  0.1837  1.6819
  480MOL0     H63302   7.834   4.186   3.144 -1.3125  1.2441  1.6518
  480MOL0     H63303   8.028   4.218   3.372 -0.6615 -1.2252 -0.5505
  480MOL0     H63304   7.971   4.330   3.261 -2.4294  1.5142  2.0533
  480MOL0     H63305   7.742   4.218   3.395  0.3839 -0.3389 -1.0475
  480MOL0     H63306   7.793   4.387   3.365  1.8368 -0.3794 -2.5273
  480MOL0     H63307   7.889   4.202   3.584  0.2311 -0.5944 -1.6480
  480MOL0     H63308   7.761   4.326   3.602  0.1269 -1.7896  1.4191
  480MOL0     H63309   8.005   4.368   3.675  0.3703 -1.2197 -1.4745
  480MOL0     H63310   8.039   4.409   3.511  0.5302 -1.0398  1.4353
  480MOL0     H63311   7.841   4.543   3.699 -2.1211  1.2418 -1.8923
  480MOL0     H63312   7.838   4.565   3.525  2.6789  1.0241 -2.1441
  480MOL0     H63313   8.102   4.640   3.418  0.8205 -0.5344  0.1927
  480MOL0     H63314   8.269   4.949   3.478  0.6129  0.4401  0.4571
  480MOL0     H63315   8.280   4.800   3.390 -1.7827  0.4476 -0.2908
  480MOL0     H63316   8.459   4.736   3.505  1.1698 -0.1472  1.8527
  480MOL0     H63317   8.412   4.797   3.653  0.3465 -0.7516 -0.6955
  480MOL0     H63318   8.554   4.930   3.422  0.4068  2.8504 -0.5837
  480MOL0     H63319   8.478   5.037   3.540  2.1160  0.2904  2.3534
  480MOL0     H63320   8.677   4.819   3.580  0.2145 -0.6848 -0.8212
  480MOL0     H63321   8.593   4.890   3.720  1.0015  0.7106  0.6513
  480MOL0     H63322   8.618   5.215   3.537  1.8040 -1.3420  1.0162
  480MOL0     H63323   8.542   5.415   3.660 -0.3543 -3.4320 -3.0412
  480MOL0     H63324   8.604   5.402   4.311  2.6253  1.0895 -0.4030
  480MOL0     H63325   8.569   5.531   4.490  0.1183 -0.2528  0.5089
  480MOL0     H63326   8.544   5.873   4.653  2.5372  0.2078 -0.0454
  480MOL0     H63327   8.621   5.721   4.619 -0.0243 -0.0268  1.0238
  480MOL0     H63328   8.376   5.602   4.632  2.4417 -0.4196 -0.4730
  480MOL0     H63329   8.313   5.767   4.651 -1.2901 -1.3088  0.8246
  480MOL0     H63330   8.427   5.772   4.864 -4.9144  1.0864 -0.1932
  480MOL0     H63331   8.502   5.620   4.837  0.0964 -0.0731  1.7780
  480MOL0     H63332   8.211   5.695   4.859 -1.4954 -1.3277 -3.4864
  480MOL0     H63333   8.252   5.527   4.819 -0.2131 -0.7857  1.4996
  480MOL0     H63334   8.296   5.692   5.074  0.7688 -0.6871  1.7565
  480MOL0     H63335   8.379   5.532   5.059 -0.9447 -1.2593 -0.0638
  480MOL0     H63336   8.143   5.438   5.020 -0.2109 -0.9686 -0.5192
  480MOL0     H63337   8.084   5.598   5.071 -1.1010 -2.6280  2.5136
  480MOL0     H63338   8.260   5.401   5.228  2.3698  1.8559 -0.7657
  480MOL0     H63339   8.223   5.562   5.289 -1.4883 -0.0661 -0.2500
  480MOL0     H63340   8.078   5.400   5.393  0.2646 -0.3321 -0.2954
  480MOL0     H63341   8.014   5.345   5.239  0.6075  1.0566 -0.5403
  480MOL0     H63342   8.442   5.859   4.232  3.3969  1.2695 -2.9161
  480MOL0     H63343   8.493   5.718   4.036 -1.7825  0.9918  0.3995
  480MOL0     H63344   8.671   5.238   4.026  0.7681  0.6903  0.2047
  480MOL0     H63345   8.749   5.024   3.880 -1.6466  0.6432  0.9469
  480MOL0     H63346   8.280   3.736   2.971  0.9335 -2.0595 -0.7322
  480MOL0     H63347   8.281   3.548   2.843 -0.1007  0.7067  3.0173
  480MOL0     H63348   8.155   3.130   2.788  3.6587 -0.6164  2.1142
  480MOL0     H63349   8.302   2.963   2.677  0.8021  1.2605  3.5484
  480MOL0     H63350   8.419   2.781   2.379 -0.3951  1.6994 -1.7602
  480MOL0     H63351   8.339   2.822   2.529  1.3996  1.4973  2.7240
  480MOL0     H63352   8.559   2.919   2.614 -2.2260  0.9685 -1.8421
  480MOL0     H63353   8.538   2.738   2.611 -0.4608  0.7464  0.8592
  480MOL0     H63354   8.636   2.870   2.362  1.7237 -0.8663  0.2907
  480MOL0     H63355   8.689   2.720   2.429 -0.1710 -0.0581 -2.1708
  480MOL0     H63356   8.858   2.926   2.439 -2.3609 -0.9870 -3.1104
  480MOL0     H63357   8.750   2.985   2.572 -2.1648 -0.3387 -1.1649
  480MOL0     H63358   8.938   2.678   2.778  0.3715 -0.0347 -0.4485
  480MOL0     H63359   8.364   3.227   2.354 -0.4958 -2.0302 -0.6669
  480MOL0     H63360   8.253   3.393   2.461  2.6581 -0.7002 -1.9961
  481MOL0     O63361   2.269   8.862   7.431 -0.2996 -0.5524  0.3417
  481MOL0     C63362   2.338   8.784   7.359 -0.7011  0.7238 -0.5032
  481MOL0     O63363   2.297   8.693   7.268  0.3301 -0.2451 -0.4404
  481MOL0     C63364   2.159   8.697   7.239  0.1895 -0.5521  0.0361
  481MOL0     C63365   2.072   8.639   7.330  0.8834  0.5973 -0.6899
  481MOL0     C63366   1.936   8.632   7.307 -0.1928  0.6438  1.3074
  481MOL0     C63367   1.880   8.684   7.190  0.1305  0.6858 -0.1890
  481MOL0     O63368   1.755   8.661   7.154  0.3358  0.5584  0.3453
  481MOL0     C63369   1.735   8.565   7.054  0.2470  0.7045  0.2533
  481MOL0     C63370   1.616   8.483   7.103 -0.1712  0.2628  0.2142
  481MOL0     C63371   1.489   8.565   7.103 -0.1813  0.3011 -0.4108
  481MOL0     C63372   1.377   8.475   7.149 -0.9880  0.6963 -0.7857
  481MOL0     C63373   1.254   8.558   7.161 -0.3000 -0.6643  0.6075
  481MOL0     C63374   1.140   8.497   7.243  1.4384  0.7720 -0.0638
  481MOL0     C63375   1.170   8.526   7.396  0.1781  0.3876  0.3207
  481MOL0     C63376   1.034   8.514   7.477 -0.2153  0.0506 -0.3250
  481MOL0     N63377   0.963   8.386   7.485 -1.5743 -0.3451  0.7219
  481MOL0     C63378   0.908   8.319   7.380  0.3572  0.6391  1.2689
  481MOL0     C63379   0.866   8.207   7.431  0.2925  0.9441  0.2158
  481MOL0     C63380   0.773   8.102   7.372 -0.5236 -0.2543  0.1142
  481MOL0     C63381   0.627   8.121   7.408  0.3017  0.0058  0.8354
  481MOL0     C63382   0.570   7.978   7.401 -0.6358 -0.9837 -0.1669
  481MOL0     C63383   0.426   7.961   7.444 -0.0291  0.2615 -0.5658
  481MOL0     O63384   0.376   7.827   7.417 -0.3354 -0.3173  0.3189
  481MOL0     C63385   0.264   7.779   7.483  0.4819 -1.1416 -0.1485
  481MOL0     C63386   0.181   7.858   7.566 -0.1498 -0.4279  0.3068
  481MOL0     C63387   0.081   7.794   7.639  0.5517  0.3387  0.4423
  481MOL0     C63388   0.040   7.661   7.608  0.5756  0.1711 -0.2868
  481MOL0     C63389  -0.076   7.605   7.680 -0.6837 -0.1051  0.1801
  481MOL0     O63390  -0.123   7.492   7.625 -0.0644  0.4900 -0.1036
  481MOL0     C63391  -0.224   7.425   7.677 -0.0527 -0.0632 -0.4109
  481MOL0     C63392  -0.222   7.284   7.684 -0.6909 -0.5785 -1.6573
  481MOL0     C63393  -0.324   7.217   7.750  1.1290 -0.5242 -0.2360
  481MOL0     C63394  -0.429   7.289   7.817 -0.1132  0.4944  0.6401
  481MOL0     O63395  -0.540   7.233   7.870 -0.1640 -0.4562 -0.1098
  481MOL0     C63396  -0.562   7.260   8.013 -0.7304 -0.3493  0.5231
  481MOL0     C63397  -0.667   7.169   8.053  0.2877 -0.3115 -0.1809
  481MOL0     C63398  -0.658   7.103   8.193 -0.5868  0.3729 -0.2560
  481MOL0     C63399  -0.654   7.220   8.298 -0.2389  0.8943  0.7799
  481MOL0     C63400  -0.662   7.173   8.443  0.5605 -1.5032  0.2818
  481MOL0     C63401  -0.549   7.082   8.492 -0.6080 -0.8554 -0.8748
  481MOL0     C63402  -0.545   7.059   8.646  0.3879 -0.3578  0.4501
  481MOL0     C63403  -0.411   6.988   8.694  0.0141  0.6390 -0.1023
  481MOL0    Cl63404  -0.407   6.983   8.879 -0.2954 -0.4740  0.2682
  481MOL0     C63405  -0.432   7.421   7.798 -1.1939  0.4247 -0.3185
  481MOL0     C63406  -0.335   7.492   7.734  0.2478  0.2988  1.1745
  481MOL0     O63407  -0.111   7.666   7.784 -0.5009  0.4145 -0.5174
  481MOL0     C63408   0.113   7.589   7.510 -0.6763 -0.5592  0.4440
  481MOL0     C63409   0.226   7.647   7.461  0.1582  0.1270 -0.0209
  481MOL0     N63410   0.922   8.196   7.559 -0.5662  0.2608 -0.7194
  481MOL0     N63411   0.982   8.303   7.593 -0.4591  0.3687 -0.0980
  481MOL0     C63412   1.972   8.746   7.099  0.3533 -0.1596  0.2033
  481MOL0     C63413   2.109   8.752   7.122  0.7191  1.3332 -0.5114
  481MOL0     C63414   2.488   8.795   7.378 -0.0250  0.0728  0.2064
  481MOL0     C63415   2.571   8.715   7.302 -0.8763 -0.0238  0.1257
  481MOL0     C63416   2.714   8.710   7.319 -0.5211  0.1261 -0.1827
  481MOL0     C63417   2.771   8.786   7.420  0.3121  0.0951  1.0681
  481MOL0     O63418   2.904   8.775   7.449 -0.4717 -0.1752 -1.0958
  481MOL0     C63419   3.007   8.812   7.355  1.2837  0.0735  0.2575
  481MOL0     C63420   3.097   8.919   7.390  0.2683 -0.5757 -0.9431
  481MOL0     C63421   3.158   8.890   7.525  0.3817 -0.6204 -0.9097
  481MOL0     C63422   3.267   8.989   7.543  0.0472 -0.6599 -1.2966
  481MOL0     C63423   3.333   8.980   7.679  0.8228 -0.7691  0.1355
  481MOL0     C63424   3.376   8.983   7.792 -0.1631 -0.0514 -0.0164
  481MOL0     C63425   2.678   8.870   7.493 -0.7502  0.1756 -0.3911
  481MOL0     C63426   2.547   8.879   7.471  0.8092 -0.3730 -0.2444
  481MOL0     H63427   2.114   8.606   7.425  2.4700 -1.0630 -1.9146
  481MOL0     H63428   1.863   8.591   7.376 -0.2391  2.0208  2.1071
  481MOL0     H63429   1.825   8.507   7.034  0.8898  0.5784  3.0621
  481MOL0     H63430   1.714   8.617   6.959 -0.3063 -0.2377 -0.1548
  481MOL0     H63431   1.622   8.434   7.201 -0.3322 -0.9125 -0.3399
  481MOL0     H63432   1.587   8.410   7.026 -0.3731  0.5993 -0.0297
  481MOL0     H63433   1.461   8.608   7.006  1.2168 -0.8591 -1.3935
  481MOL0     H63434   1.509   8.651   7.167  0.3114  1.7061 -2.3728
  481MOL0     H63435   1.367   8.397   7.073  0.4437  0.5243 -0.8385
  481MOL0     H63436   1.407   8.423   7.241 -2.2478  1.5114  0.1136
  481MOL0     H63437   1.208   8.588   7.067 -0.3859  1.4780  1.2758
  481MOL0     H63438   1.290   8.654   7.201  0.1336 -0.7059  0.3275
  481MOL0     H63439   1.133   8.391   7.220  0.2681  1.0328 -0.9760
  481MOL0     H63440   1.048   8.544   7.207  0.5692 -0.2928  0.7269
  481MOL0     H63441   1.237   8.448   7.430  2.0235  1.3803 -0.8966
  481MOL0     H63442   1.215   8.626   7.405  1.3997 -0.1980  0.9731
  481MOL0     H63443   0.972   8.596   7.441 -2.1877 -0.2431  2.1535
  481MOL0     H63444   1.045   8.540   7.583 -0.0745 -1.0673 -0.0494
  481MOL0     H63445   0.885   8.353   7.279 -0.9330 -0.9269  0.9912
  481MOL0     H63446   0.813   8.006   7.408 -2.8797 -0.1115  3.6464
  481MOL0     H63447   0.790   8.118   7.265  1.1141  5.0435  0.8744
  481MOL0     H63448   0.577   8.182   7.333 -0.9575 -0.0321  1.6146
  481MOL0     H63449   0.614   8.152   7.512  1.3177  0.8264  0.7260
  481MOL0     H63450   0.575   7.966   7.292 -0.9315  2.7526 -0.7418
  481MOL0     H63451   0.637   7.913   7.458  1.6340 -0.0673 -1.6751
  481MOL0     H63452   0.364   8.030   7.385 -0.6991  0.3162  0.1852
  481MOL0     H63453   0.412   7.982   7.550  0.4312 -0.8348 -0.2718
  481MOL0     H63454   0.186   7.964   7.590 -2.2625  0.0384 -0.9817
  481MOL0     H63455   0.018   7.845   7.711 -1.7363  2.5305 -2.8065
  481MOL0     H63456  -0.141   7.222   7.647 -0.7081 -3.0533  1.9028
  481MOL0     H63457  -0.324   7.109   7.736  2.7689 -0.9147  2.1100
  481MOL0     H63458  -0.597   7.362   8.032 -4.8999 -2.0415  3.2430
  481MOL0     H63459  -0.468   7.248   8.067  1.0099 -2.6431 -2.6138
  481MOL0     H63460  -0.656   7.082   7.987 -1.1800  1.5618 -3.1249
  481MOL0     H63461  -0.768   7.205   8.032  0.5886  0.0103 -1.1297
  481MOL0     H63462  -0.567   7.043   8.197 -3.3997 -4.3559  0.1983
  481MOL0     H63463  -0.735   7.029   8.219  0.5140 -0.1797  1.6558
  481MOL0     H63464  -0.566   7.284   8.286  1.0528 -0.8191  0.5742
  481MOL0     H63465  -0.745   7.280   8.293  0.0071  1.2566  0.5725
  481MOL0     H63466  -0.747   7.107   8.462  0.9957 -1.6642  1.7710
  481MOL0     H63467  -0.668   7.266   8.501  1.8746 -1.0737 -0.2239
  481MOL0     H63468  -0.461   7.133   8.454  0.4360 -3.0784 -1.6190
  481MOL0     H63469  -0.550   6.985   8.440 -1.5535 -0.6275 -1.2966
  481MOL0     H63470  -0.559   7.155   8.696  2.7618 -1.7266  4.2078
  481MOL0     H63471  -0.624   6.989   8.677  1.0757 -0.6039  1.7002
  481MOL0     H63472  -0.331   7.056   8.664 -1.9352  2.8208 -0.6741
  481MOL0     H63473  -0.400   6.884   8.660 -0.7489  0.2924  0.6940
  481MOL0     H63474  -0.509   7.476   7.852 -1.3764 -1.8370  1.8961
  481MOL0     H63475  -0.339   7.600   7.743  0.6955  0.3614  0.6994
  481MOL0     H63476   0.106   7.482   7.495  1.9043 -0.7967  0.4544
  481MOL0     H63477   0.282   7.588   7.389 -2.4597 -0.8461 -1.4227
  481MOL0     H63478   1.935   8.791   7.007 -2.1953 -0.9662  0.7570
  481MOL0     H63479   2.171   8.809   7.053  1.5554  1.2449  0.1507
  481MOL0     H63480   2.547   8.640   7.226  3.4120 -2.1304  0.5435
  481MOL0     H63481   2.774   8.632   7.274 -0.5983 -0.3783  0.5709
  481MOL0     H63482   2.965   8.826   7.255  0.9674  1.7704  0.6107
  481MOL0     H63483   3.060   8.718   7.337  1.9747  0.5074 -0.0315
  481MOL0     H63484   3.176   8.940   7.318 -0.2871 -0.8647 -1.6450
  481MOL0     H63485   3.043   9.013   7.384 -0.0091 -0.5093  1.4516
  481MOL0     H63486   3.196   8.787   7.524 -1.2863 -1.3400  1.3529
  481MOL0     H63487   3.093   8.900   7.613  0.9888 -2.6601 -0.1519
  481MOL0     H63488   3.350   8.974   7.474  0.9426 -0.8701 -0.2089
  481MOL0     H63489   3.226   9.087   7.519  1.0435 -0.2152 -1.2468
  481MOL0     H63490   3.425   8.983   7.887  0.1419 -0.5036 -0.1691
  481MOL0     H63491   2.711   8.927   7.578  0.6008 -0.1642 -0.6715
  481MOL0     H63492   2.492   8.933   7.547 -1.3233 -1.8176 -0.6521
  482MOL0     O63493   9.378   9.599  11.344  0.0826  0.2302 -0.4848
  482MOL0     C63494   9.468   9.575  11.266  0.6670  0.6311 -0.7431
  482MOL0     O63495   9.546   9.456  11.273  0.6722 -1.0413 -0.2018
  482MOL0     C63496   9.536   9.364  11.367  0.0043  0.1457 -0.1223
  482MOL0     C63497   9.521   9.239  11.313  0.7078  0.1801  0.0175
  482MOL0     C63498   9.499   9.123  11.397  1.0288  0.4567  0.0651
  482MOL0     C63499   9.494   9.136  11.538 -0.4200 -0.9197 -0.1149
  482MOL0     O63500   9.479   9.025  11.611  0.0895  0.0675 -0.9012
  482MOL0     C63501   9.602   8.949  11.627 -0.3403  0.1518 -0.5286
  482MOL0     C63502   9.578   8.846  11.738 -0.4631  0.2642  0.0589
  482MOL0     C63503   9.705   8.766  11.752  0.1350 -0.7532  0.1252
  482MOL0     C63504   9.687   8.677  11.878  0.6531  0.0702  0.9380
  482MOL0     C63505   9.750   8.537  11.872  0.5847  0.0668  0.3644
  482MOL0     C63506   9.898   8.547  11.853  0.8362 -0.5602 -0.9022
  482MOL0     C63507   9.948   8.406  11.813  0.1151  0.8633 -0.4168
  482MOL0     C63508  10.097   8.403  11.809 -0.3846 -0.0292  0.2756
  482MOL0     N63509  10.155   8.274  11.762 -0.1552  0.3855  0.3446
  482MOL0     C63510  10.291   8.262  11.734  1.1665 -0.7858 -0.4998
  482MOL0     C63511  10.295   8.127  11.709 -1.3614 -0.3075 -0.4288
  482MOL0     C63512  10.425   8.046  11.701 -0.5415 -0.6383  0.2871
  482MOL0     C63513  10.498   8.066  11.565 -0.8707 -0.1164 -0.1135
  482MOL0     C63514  10.507   8.205  11.502  0.3207  0.9661 -0.1151
  482MOL0     C63515  10.571   8.209  11.366 -0.5020 -0.2903 -0.4893
  482MOL0     O63516  10.522   8.108  11.276 -0.7628 -0.1342 -0.6938
  482MOL0     C63517  10.503   8.150  11.152  0.1347 -0.4572  0.1118
  482MOL0     C63518  10.392   8.226  11.119 -0.1552  0.5283 -0.4085
  482MOL0     C63519  10.370   8.266  10.993  0.2391 -0.2940  0.1862
  482MOL0     C63520  10.455   8.228  10.890  0.2080  0.7021  0.4928
  482MOL0     C63521  10.427   8.276  10.750  0.0739  0.5936  0.1293
  482MOL0     O63522  10.499   8.216  10.647 -0.0329 -0.0294 -0.1553
  482MOL0     C63523  10.461   8.247  10.513 -0.1972  0.3579 -0.1128
  482MOL0     C63524  10.545   8.300  10.420 -1.3205 -0.4498  0.7167
  482MOL0     C63525  10.511   8.334  10.288 -0.8433  1.0782  1.0119
  482MOL0     C63526  10.386   8.308  10.235 -0.6244  0.2804  0.6228
  482MOL0     O63527  10.355   8.331  10.107  0.8012 -0.4197 -0.0811
  482MOL0     C63528  10.219   8.313  10.070 -0.4022 -0.9900  0.3103
  482MOL0     C63529  10.210   8.330   9.923  0.0708 -0.6797  0.3856
  482MOL0     C63530  10.077   8.264   9.869 -0.6177 -0.2712 -0.3982
  482MOL0     C63531  10.039   8.304   9.731  0.9176 -0.4290  0.0927
  482MOL0     C63532   9.902   8.369   9.730 -0.0744 -0.8024 -0.1148
  482MOL0     C63533   9.852   8.429   9.601  0.4210 -0.3754 -0.1952
  482MOL0     C63534   9.828   8.343   9.487 -0.5407  0.0379  0.5258
  482MOL0     C63535   9.805   8.417   9.353 -0.0635  0.5914  0.1318
  482MOL0    Cl63536   9.785   8.272   9.240  0.3846 -0.2055  0.3680
  482MOL0     C63537  10.296   8.254  10.334  0.7127 -1.1367  0.4410
  482MOL0     C63538  10.335   8.218  10.469  0.1380  0.4250  0.4805
  482MOL0     O63539  10.332   8.354  10.729  0.6427 -0.8693  0.3621
  482MOL0     C63540  10.572   8.179  10.916 -0.8642 -0.0509 -0.0078
  482MOL0     C63541  10.593   8.130  11.051 -0.3072 -0.4984 -0.0933
  482MOL0     N63542  10.177   8.076  11.690  0.5369  0.5759 -0.6282
  482MOL0     N63543  10.094   8.157  11.738  0.5472 -0.4816  0.2672
  482MOL0     C63544   9.518   9.260  11.592  0.5506 -0.6352  1.3221
  482MOL0     C63545   9.542   9.368  11.508 -0.4788 -0.5684  0.2789
  482MOL0     C63546   9.481   9.654  11.148  0.0167  0.0858  0.5147
  482MOL0     C63547   9.592   9.639  11.064 -0.6961 -0.2387 -0.4313
  482MOL0     C63548   9.613   9.724  10.948  0.5268  0.8686 -0.2514
  482MOL0     C63549   9.518   9.813  10.919 -0.1582  0.1311  1.2052
  482MOL0     O63550   9.533   9.896  10.804 -1.0499  0.6956  0.0224
  482MOL0     C63551   9.454  10.013  10.785  0.6447 -0.0706  0.7548
  482MOL0     C63552   9.508  10.085  10.662  0.1174  0.4120  1.0907
  482MOL0     C63553   9.633  10.161  10.661  0.2950 -0.4282  0.4062
  482MOL0     C63554   9.644  10.235  10.790  0.0277 -0.2445  0.1444
  482MOL0     C63555   9.752  10.330  10.782 -0.4612 -0.6112 -0.4210
  482MOL0     C63556   9.833  10.426  10.778 -0.4793  0.5015  0.3629
  482MOL0     C63557   9.401   9.823  11.002 -1.0043 -0.4657  0.4869
  482MOL0     C63558   9.375   9.740  11.111 -0.0773 -0.8934 -0.0507
  482MOL0     H63559   9.535   9.241  11.205  1.4234 -2.0907  0.0044
  482MOL0     H63560   9.471   9.036  11.339  2.0836  1.5000 -2.1072
  482MOL0     H63561   9.692   9.007  11.645  0.4497 -0.5684 -2.0021
  482MOL0     H63562   9.630   8.898  11.535  1.8294  2.6842 -1.3990
  482MOL0     H63563   9.494   8.783  11.707  0.5909 -1.4746  0.5265
  482MOL0     H63564   9.540   8.881  11.833 -0.6999 -0.4518  0.2342
  482MOL0     H63565   9.784   8.840  11.767 -0.4330 -0.1836  0.3445
  482MOL0     H63566   9.725   8.707  11.662  0.2630  2.5969 -2.2696
  482MOL0     H63567   9.720   8.723  11.971  2.2799  0.8257  0.0477
  482MOL0     H63568   9.582   8.652  11.895  0.7831  0.7521  2.9968
  482MOL0     H63569   9.707   8.480  11.790  1.8593  2.6119 -2.2387
  482MOL0     H63570   9.728   8.484  11.965  2.3218  1.6126  1.7388
  482MOL0     H63571   9.946   8.576  11.946 -1.9170  0.5739  0.2934
  482MOL0     H63572   9.919   8.615  11.770  0.6524 -0.7343 -1.0930
  482MOL0     H63573   9.909   8.332  11.885  1.2656  1.0661  0.4342
  482MOL0     H63574   9.910   8.386  11.712 -3.2130 -1.4956  1.0997
  482MOL0     H63575  10.141   8.418  11.908 -1.9676 -2.7661  1.5129
  482MOL0     H63576  10.133   8.481  11.741  1.0071  0.7328  1.8251
  482MOL0     H63577  10.379   8.322  11.753 -0.0304  1.3585 -1.3022
  482MOL0     H63578  10.399   7.941  11.717  1.8420 -1.9458 -3.1795
  482MOL0     H63579  10.490   8.079  11.782  1.0715 -3.4629  0.2561
  482MOL0     H63580  10.469   7.992  11.490  1.2611 -1.9696  0.8038
  482MOL0     H63581  10.599   8.030  11.586 -0.2075  1.8344  0.2001
  482MOL0     H63582  10.407   8.242  11.480  0.7559  0.9385 -2.3938
  482MOL0     H63583  10.551   8.273  11.576 -0.1413  1.2760 -0.1257
  482MOL0     H63584  10.677   8.194  11.389 -0.8209 -0.2545  1.1198
  482MOL0     H63585  10.554   8.308  11.325  1.9651 -0.0808 -1.1747
  482MOL0     H63586  10.323   8.251  11.199  1.3796  0.0275  1.1220
  482MOL0     H63587  10.280   8.315  10.955 -0.1916 -1.1299  0.1150
  482MOL0     H63588  10.649   8.310  10.451 -1.0007 -1.5167  0.0304
  482MOL0     H63589  10.590   8.352  10.215 -0.5321 -0.2508  0.9866
  482MOL0     H63590  10.164   8.384  10.132  0.9119  2.1748 -1.9017
  482MOL0     H63591  10.187   8.212  10.095  0.7278 -1.1248  1.3313
  482MOL0     H63592  10.295   8.282   9.873 -1.3039 -1.1152 -1.6117
  482MOL0     H63593  10.215   8.438   9.907  1.6462 -1.1319 -2.9065
  482MOL0     H63594   9.991   8.286   9.933 -0.0190  1.3228 -0.1217
  482MOL0     H63595  10.085   8.154   9.871 -0.5127 -0.3581 -2.7705
  482MOL0     H63596  10.111   8.365   9.677 -0.3252  1.8466  0.8715
  482MOL0     H63597  10.025   8.211   9.675  0.9596 -1.3537  1.5742
  482MOL0     H63598   9.901   8.444   9.810 -0.1410 -0.0810 -0.7860
  482MOL0     H63599   9.829   8.295   9.764  0.2591 -0.2038  2.0927
  482MOL0     H63600   9.932   8.498   9.573  0.6486 -1.4923 -2.5380
  482MOL0     H63601   9.758   8.483   9.619  1.5581  1.1330  1.6141
  482MOL0     H63602   9.924   8.291   9.478  0.0258  1.0310  0.7615
  482MOL0     H63603   9.737   8.283   9.502 -1.5259  2.1110  3.6888
  482MOL0     H63604   9.891   8.479   9.328 -1.7995  3.0729 -0.0377
  482MOL0     H63605   9.719   8.484   9.349  0.5675  1.3973 -2.8303
  482MOL0     H63606  10.190   8.250  10.311 -0.1982  2.8684  2.9574
  482MOL0     H63607  10.258   8.172  10.530  1.0315 -2.4811 -0.4193
  482MOL0     H63608  10.649   8.154  10.843  2.3760  1.9621  2.4638
  482MOL0     H63609  10.691   8.090  11.075 -2.0047 -3.3407  2.8616
  482MOL0     H63610   9.517   9.289  11.697  1.1386 -2.4787  1.8718
  482MOL0     H63611   9.551   9.461  11.564 -0.4713  0.6355 -1.6334
  482MOL0     H63612   9.657   9.553  11.081  0.0560  0.2803 -0.6059
  482MOL0     H63613   9.685   9.704  10.869  0.0142  0.2810 -0.5767
  482MOL0     H63614   9.448  10.079  10.873 -1.4750  0.3176  0.3854
  482MOL0     H63615   9.348   9.995  10.768 -0.0991  2.9120  1.5058
  482MOL0     H63616   9.528  10.014  10.582  1.2031  2.9544 -1.0409
  482MOL0     H63617   9.425  10.151  10.638 -1.1672 -2.3574 -3.2343
  482MOL0     H63618   9.638  10.227  10.574 -0.2753 -1.8493 -0.7426
  482MOL0     H63619   9.714  10.092  10.634 -0.7147 -1.8064  0.7937
  482MOL0     H63620   9.554  10.289  10.821  2.1848  2.6409  2.0002
  482MOL0     H63621   9.677  10.155  10.856  3.2007 -0.7849 -1.8757
  482MOL0     H63622   9.902  10.508  10.785 -2.0816  1.7984  2.7557
  482MOL0     H63623   9.333   9.906  10.990  2.5197  2.5720 -0.6161
  482MOL0     H63624   9.286   9.743  11.173 -0.2318 -0.0916 -0.3057
  483MOL0     O63625   3.479   8.271   8.066 -0.2931  0.6197  0.3653
  483MOL0     C63626   3.403   8.191   8.004 -0.1933  0.1047  0.0629
  483MOL0     O63627   3.290   8.133   8.060 -0.1252 -0.7440  0.0909
  483MOL0     C63628   3.259   8.168   8.190 -0.8902  0.5012 -0.2229
  483MOL0     C63629   3.248   8.064   8.275 -0.7683  0.3016  0.6008
  483MOL0     C63630   3.205   8.076   8.411  0.3138 -0.8674  0.3046
  483MOL0     C63631   3.176   8.213   8.452  0.0462 -0.5595  0.2503
  483MOL0     O63632   3.104   8.235   8.573  0.2807  0.6236  0.2223
  483MOL0     C63633   3.055   8.120   8.647  0.2571  0.2147  0.5746
  483MOL0     C63634   2.947   8.167   8.740 -0.4154  0.8014 -0.1344
  483MOL0     C63635   2.828   8.259   8.673  0.5031  0.0991 -0.1600
  483MOL0     C63636   2.734   8.186   8.584  1.2989  0.0258 -0.3522
  483MOL0     C63637   2.588   8.235   8.578  1.2339 -0.7264  0.7052
  483MOL0     C63638   2.564   8.382   8.523 -0.6405 -0.5688 -0.1866
  483MOL0     C63639   2.421   8.420   8.510  0.3898  0.0996  0.5827
  483MOL0     C63640   2.339   8.426   8.637 -0.3195  0.3406  0.0463
  483MOL0     N63641   2.193   8.412   8.603 -0.8678 -0.2995  0.3572
  483MOL0     C63642   2.096   8.510   8.586  0.3028 -0.0438 -0.6911
  483MOL0     C63643   1.980   8.442   8.549  0.1658 -0.1552  0.4505
  483MOL0     C63644   1.839   8.504   8.513  0.2690  0.1423  0.3837
  483MOL0     C63645   1.752   8.526   8.642 -0.8521 -0.6060  0.2523
  483MOL0     C63646   1.700   8.400   8.708 -0.0665 -1.1493  0.3345
  483MOL0     C63647   1.614   8.313   8.613 -0.1836 -1.2754 -0.1702
  483MOL0     O63648   1.484   8.370   8.610  0.1799  0.3507  0.5380
  483MOL0     C63649   1.375   8.281   8.625 -0.5284 -0.3745 -0.1965
  483MOL0     C63650   1.382   8.149   8.584  0.1648 -0.6263 -0.2989
  483MOL0     C63651   1.266   8.071   8.577 -0.4122  0.0321 -0.5880
  483MOL0     C63652   1.145   8.124   8.626  0.9726  0.0655  0.0450
  483MOL0     C63653   1.025   8.044   8.614  0.6397  0.9727  0.5929
  483MOL0     O63654   0.932   8.079   8.715  0.3144  0.6074  0.4321
  483MOL0     C63655   0.802   8.033   8.720 -0.4282 -0.0437 -0.9843
  483MOL0     C63656   0.748   8.015   8.851  0.4671 -0.3551  0.2085
  483MOL0     C63657   0.615   7.962   8.859 -0.1781 -0.5645 -1.0677
  483MOL0     C63658   0.552   7.916   8.751  0.3792 -0.0236 -0.1952
  483MOL0     O63659   0.428   7.869   8.783 -0.0378 -0.6215 -0.7100
  483MOL0     C63660   0.356   7.793   8.687 -0.0646  1.1335 -0.4984
  483MOL0     C63661   0.223   7.749   8.742 -0.3061  1.1161  0.8947
  483MOL0     C63662   0.236   7.641   8.857 -0.3626 -0.6966  0.4895
  483MOL0     C63663   0.107   7.570   8.891  0.2811 -0.5890 -0.9220
  483MOL0     C63664   0.144   7.421   8.946  0.6662  0.3471  0.4823
  483MOL0     C63665   0.016   7.346   8.962 -0.1491  0.1343  0.2956
  483MOL0     C63666   0.031   7.220   9.046  0.2828 -1.0617  0.1505
  483MOL0     C63667  -0.103   7.155   9.086 -0.7507  0.3288 -0.8460
  483MOL0    Cl63668  -0.070   7.039   9.216 -0.1972  0.1515 -0.1032
  483MOL0     C63669   0.598   7.942   8.620  0.7490  0.3496 -0.7468
  483MOL0     C63670   0.721   8.000   8.609 -0.3606  0.1774  0.1017
  483MOL0     O63671   1.008   7.976   8.518  0.2489  0.3161 -0.0073
  483MOL0     C63672   1.140   8.255   8.679  0.1351 -0.6058  1.3170
  483MOL0     C63673   1.258   8.332   8.671  0.1967  0.2380  0.4619
  483MOL0     N63674   2.010   8.311   8.566 -0.6536  0.2157  0.0434
  483MOL0     N63675   2.135   8.290   8.596  0.3757  0.5128 -0.2848
  483MOL0     C63676   3.189   8.321   8.362 -0.5168 -0.7834  0.6141
  483MOL0     C63677   3.237   8.298   8.234  0.4800 -0.7519 -0.0788
  483MOL0     C63678   3.433   8.163   7.867  0.4954  0.2831 -0.0425
  483MOL0     C63679   3.557   8.184   7.793 -0.6288 -0.3082 -1.0662
  483MOL0     C63680   3.572   8.148   7.664  0.7024  0.2654  0.2287
  483MOL0     C63681   3.462   8.102   7.586  0.2268 -0.0063 -0.5779
  483MOL0     O63682   3.478   8.069   7.450  0.0345 -0.2123 -0.7211
  483MOL0     C63683   3.377   8.015   7.371  0.3795  0.1561 -0.1483
  483MOL0     C63684   3.381   7.863   7.383  0.2822 -0.5981 -1.1346
  483MOL0     C63685   3.292   7.796   7.285 -0.0376 -0.1423  0.0703
  483MOL0     C63686   3.149   7.808   7.325  0.5939 -0.4785 -0.3911
  483MOL0     C63687   3.075   7.697   7.266 -0.2686  0.5482 -0.0965
  483MOL0     C63688   3.022   7.608   7.204  0.2085 -0.5919 -0.2069
  483MOL0     C63689   3.343   8.087   7.654 -0.5880  0.1497 -0.4153
  483MOL0     C63690   3.325   8.115   7.790 -0.1324  1.0128 -0.3650
  483MOL0     H63691   3.267   7.970   8.226  2.5333  1.6118 -0.9540
  483MOL0     H63692   3.183   7.992   8.476  0.0068 -0.6894  0.4345
  483MOL0     H63693   3.140   8.071   8.696  2.7605  0.9477 -2.6536
  483MOL0     H63694   2.997   8.058   8.579  3.0223 -3.1457  1.0166
  483MOL0     H63695   3.000   8.225   8.816 -2.1380  1.3355  0.7157
  483MOL0     H63696   2.909   8.085   8.801  1.9120 -0.0555  0.2784
  483MOL0     H63697   2.868   8.344   8.618  0.8743  0.7014  1.0111
  483MOL0     H63698   2.768   8.306   8.751 -1.8426  0.2444 -1.9201
  483MOL0     H63699   2.772   8.180   8.481  1.0104 -2.8261 -0.3714
  483MOL0     H63700   2.723   8.089   8.634 -0.3538  1.4451  2.2327
  483MOL0     H63701   2.536   8.239   8.674 -1.0155 -2.0407 -0.3645
  483MOL0     H63702   2.532   8.164   8.516 -0.6646  0.9002  0.4664
  483MOL0     H63703   2.614   8.393   8.427  0.2027  1.1948  0.4043
  483MOL0     H63704   2.609   8.464   8.580 -0.0680 -0.6350 -0.5358
  483MOL0     H63705   2.421   8.505   8.441  1.4303 -0.9733 -0.8123
  483MOL0     H63706   2.376   8.348   8.441  1.0287  1.2955 -1.1632
  483MOL0     H63707   2.351   8.523   8.687 -0.5746  0.6566 -0.4885
  483MOL0     H63708   2.356   8.345   8.708 -1.2551  1.0928  1.1791
  483MOL0     H63709   2.102   8.618   8.598  0.9914 -0.1570  0.1202
  483MOL0     H63710   1.789   8.437   8.442  0.5087  1.3813 -0.9904
  483MOL0     H63711   1.855   8.600   8.464  1.0757  0.5514  1.4043
  483MOL0     H63712   1.671   8.594   8.613 -0.3867 -0.4656 -0.7854
  483MOL0     H63713   1.811   8.585   8.712  0.4254 -3.5491  1.8517
  483MOL0     H63714   1.796   8.350   8.727 -0.7737 -2.0745  1.5775
  483MOL0     H63715   1.656   8.416   8.807 -2.8993 -0.8427 -0.8783
  483MOL0     H63716   1.616   8.211   8.652  0.4801 -1.4295 -0.5895
  483MOL0     H63717   1.665   8.294   8.518 -0.9958  2.4240 -1.5064
  483MOL0     H63718   1.469   8.111   8.532  1.1973  1.7192 -0.3821
  483MOL0     H63719   1.271   7.971   8.534  1.1985 -0.3306  0.3609
  483MOL0     H63720   0.796   8.060   8.937 -0.5814  1.7729 -0.2769
  483MOL0     H63721   0.566   7.938   8.952  0.8063 -2.9672 -1.1119
  483MOL0     H63722   0.420   7.706   8.668 -0.1457  0.3391  2.3903
  483MOL0     H63723   0.340   7.851   8.595 -2.7336  3.1586  1.1068
  483MOL0     H63724   0.173   7.694   8.662 -0.2784  0.5130  1.2809
  483MOL0     H63725   0.164   7.838   8.765 -2.2177  0.8903 -2.5640
  483MOL0     H63726   0.286   7.688   8.942 -0.9425 -0.5673  0.7653
  483MOL0     H63727   0.307   7.574   8.808 -0.7426  0.8100 -2.3607
  483MOL0     H63728   0.051   7.631   8.962  0.2953  0.0160 -1.4292
  483MOL0     H63729   0.048   7.565   8.800  0.7883  2.1144 -1.4627
  483MOL0     H63730   0.199   7.428   9.040  2.7966 -1.1606 -0.5810
  483MOL0     H63731   0.208   7.371   8.874  0.3024 -1.2516  1.2352
  483MOL0     H63732  -0.023   7.322   8.863  0.4458  2.1063 -0.4637
  483MOL0     H63733  -0.063   7.409   9.003  1.5902  4.5464 -2.4721
  483MOL0     H63734   0.081   7.148   8.981  1.2464 -0.2681 -0.0022
  483MOL0     H63735   0.087   7.256   9.132 -2.8215  1.5884  1.2950
  483MOL0     H63736  -0.146   7.113   8.995 -1.2043  0.6458 -0.7846
  483MOL0     H63737  -0.180   7.221   9.127 -2.2497  0.1483 -3.1863
  483MOL0     H63738   0.554   7.920   8.523 -1.4164 -3.3620  0.8857
  483MOL0     H63739   0.762   8.023   8.511 -1.1184  1.6223  0.0997
  483MOL0     H63740   1.057   8.321   8.703 -0.4270 -0.5077 -0.6678
  483MOL0     H63741   1.246   8.433   8.708 -0.4787  1.1139 -1.9312
  483MOL0     H63742   3.156   8.420   8.389 -0.4435 -0.5826 -0.0015
  483MOL0     H63743   3.243   8.377   8.160 -2.4228  0.6203  0.9817
  483MOL0     H63744   3.635   8.237   7.848 -2.3244  0.6840  0.5263
  483MOL0     H63745   3.669   8.172   7.621  0.0156  0.2428 -1.4309
  483MOL0     H63746   3.397   8.044   7.268 -0.2150  0.3417 -0.2178
  483MOL0     H63747   3.275   8.054   7.383  0.2961 -0.5828  2.2446
  483MOL0     H63748   3.484   7.831   7.366  0.1663 -1.6083 -0.1029
  483MOL0     H63749   3.344   7.840   7.484  0.1779  3.8993  0.1014
  483MOL0     H63750   3.326   7.694   7.262  2.9331  0.9426 -0.7444
  483MOL0     H63751   3.313   7.837   7.186  2.0639  0.5228  0.7546
  483MOL0     H63752   3.131   7.804   7.433 -1.3112  0.1890 -0.6458
  483MOL0     H63753   3.105   7.902   7.291 -2.9070 -0.4789  3.3891
  483MOL0     H63754   2.982   7.523   7.154 -0.1835 -0.8548  0.5304
  483MOL0     H63755   3.260   8.038   7.605 -1.1441 -0.3469  0.9610
  483MOL0     H63756   3.226   8.133   7.830 -0.0362  2.0008 -0.5513
  484MOL0     O63757   9.108   3.260   0.345  0.6705 -0.4652 -0.2679
  484MOL0     C63758   9.162   3.266   0.460 -0.5592 -0.3524 -0.5992
  484MOL0     O63759   9.180   3.384   0.524  0.1716  0.2398  0.3180
  484MOL0     C63760   9.104   3.491   0.469 -0.2555  0.2571 -0.2455
  484MOL0     C63761   9.160   3.574   0.372 -0.0327  0.1630  0.0663
  484MOL0     C63762   9.081   3.670   0.311 -0.9741  0.1062 -0.1623
  484MOL0     C63763   8.950   3.682   0.348  0.3400 -0.1792 -0.5985
  484MOL0     O63764   8.880   3.790   0.289  0.3067 -0.0350 -0.0127
  484MOL0     C63765   8.796   3.873   0.378 -0.4148  0.0735 -0.3884
  484MOL0     C63766   8.648   3.841   0.374  0.0867  0.8935 -0.4784
  484MOL0     C63767   8.572   3.876   0.497  0.0169  0.5176 -0.5632
  484MOL0     C63768   8.426   3.916   0.477  0.0323  0.2466  0.1833
  484MOL0     C63769   8.337   3.799   0.442 -0.3543 -0.4674  0.1255
  484MOL0     C63770   8.335   3.682   0.534 -0.8448  0.4736 -0.1201
  484MOL0     C63771   8.250   3.574   0.464 -1.0225 -0.3351 -0.2002
  484MOL0     C63772   8.262   3.435   0.539  0.0131 -1.1329 -0.8696
  484MOL0     N63773   8.180   3.434   0.673  0.3367  0.0434 -0.0390
  484MOL0     C63774   8.234   3.468   0.789 -0.4259 -0.0231 -0.5674
  484MOL0     C63775   8.132   3.467   0.870  0.0223  0.9816 -0.2884
  484MOL0     C63776   8.133   3.494   1.011 -0.4732 -0.3472 -0.5434
  484MOL0     C63777   7.997   3.517   1.074  0.6921  0.4608  0.1743
  484MOL0     C63778   7.995   3.530   1.230  0.5830 -1.0006 -0.1301
  484MOL0     C63779   8.113   3.594   1.301  0.7368  0.1579  0.0753
  484MOL0     O63780   8.070   3.648   1.428 -0.4791 -0.4635  0.7582
  484MOL0     C63781   8.158   3.724   1.501 -0.6892  0.4043  0.1332
  484MOL0     C63782   8.293   3.743   1.455  0.2972  0.0311 -0.0537
  484MOL0     C63783   8.378   3.798   1.555 -0.3857  0.1413  1.1339
  484MOL0     C63784   8.332   3.852   1.681 -0.6850  0.3026  0.0340
  484MOL0     C63785   8.435   3.892   1.781  0.6326  0.8030  0.4935
  484MOL0     O63786   8.565   3.900   1.743  0.5072 -0.0533 -0.5501
  484MOL0     C63787   8.665   3.955   1.825  0.2461 -0.1020  0.3350
  484MOL0     C63788   8.791   3.906   1.815 -0.0186 -0.7494 -0.3753
  484MOL0     C63789   8.890   3.974   1.877  0.3384  0.3529 -0.7492
  484MOL0     C63790   8.871   4.083   1.961 -1.0514 -0.2354  0.6541
  484MOL0     O63791   8.968   4.144   2.032 -0.8038 -0.3433 -0.1338
  484MOL0     C63792   9.074   4.066   2.092 -0.3194 -0.3471 -0.5421
  484MOL0     C63793   9.168   4.159   2.174  0.0043  0.0739  0.4226
  484MOL0     C63794   9.231   4.261   2.084 -0.3647  0.2302 -0.5430
  484MOL0     C63795   9.298   4.387   2.172 -0.2036  0.4807 -0.0259
  484MOL0     C63796   9.343   4.344   2.319  1.5030  0.6252  0.2373
  484MOL0     C63797   9.440   4.449   2.384  1.2845  0.8099  1.0424
  484MOL0     C63798   9.371   4.586   2.411 -0.0177  0.5141  0.8721
  484MOL0     C63799   9.468   4.695   2.445 -0.7615  0.8810 -0.3433
  484MOL0    Cl63800   9.494   4.649   2.618 -0.3784  0.3439  0.4821
  484MOL0     C63801   8.742   4.138   1.962 -0.3274  0.3349 -0.1416
  484MOL0     C63802   8.644   4.082   1.889 -1.1062 -0.4360 -0.0147
  484MOL0     O63803   8.393   3.916   1.898 -0.6180  0.3655 -0.2832
  484MOL0     C63804   8.193   3.845   1.704  0.0218 -1.0451 -0.2713
  484MOL0     C63805   8.112   3.768   1.621  0.0048 -0.6060 -0.6857
  484MOL0     N63806   8.020   3.416   0.805 -0.5451 -0.0684 -0.0584
  484MOL0     N63807   8.055   3.387   0.688 -0.3829 -0.1280  0.3082
  484MOL0     C63808   8.901   3.612   0.463  0.1181  0.9553  0.1714
  484MOL0     C63809   8.974   3.508   0.522 -0.2581 -0.1769 -1.0561
  484MOL0     C63810   9.210   3.140   0.524  0.6330 -0.4836  1.4531
  484MOL0     C63811   9.292   3.142   0.639  0.1077  0.0934 -0.3849
  484MOL0     C63812   9.329   3.019   0.696 -0.0671  0.4262  0.4273
  484MOL0     C63813   9.293   2.886   0.641  0.3055 -0.6540 -0.1069
  484MOL0     O63814   9.302   2.772   0.709 -0.3907 -0.0223  0.2683
  484MOL0     C63815   9.430   2.743   0.760  0.1274 -0.4934 -1.2266
  484MOL0     C63816   9.413   2.603   0.829  0.2966 -0.3984  0.5792
  484MOL0     C63817   9.547   2.537   0.851 -1.2815  0.4115 -0.3034
  484MOL0     C63818   9.537   2.380   0.865 -0.1495  0.0119 -0.5709
  484MOL0     C63819   9.617   2.331   0.980  0.7926  0.1495 -0.3860
  484MOL0     C63820   9.671   2.299   1.083 -0.1765  0.3599  0.0438
  484MOL0     C63821   9.213   2.890   0.535  0.5183  0.9512  0.4011
  484MOL0     C63822   9.165   3.012   0.475 -0.5176 -0.0501  0.4083
  484MOL0     H63823   9.258   3.550   0.332 -0.8064 -1.1988 -1.1078
  484MOL0     H63824   9.124   3.728   0.230  0.4562 -0.9627 -0.2099
  484MOL0     H63825   8.809   3.969   0.327 -0.9617 -0.8255 -2.3422
  484MOL0     H63826   8.835   3.880   0.480  1.2578  2.1748 -1.1123
  484MOL0     H63827   8.638   3.733   0.370  2.1428  0.6329  0.1737
  484MOL0     H63828   8.595   3.891   0.292 -2.2041 -0.5753  0.0169
  484MOL0     H63829   8.623   3.957   0.550  1.4634 -1.6185  1.5708
  484MOL0     H63830   8.581   3.793   0.569 -1.7694 -0.0374 -0.9276
  484MOL0     H63831   8.388   3.971   0.564 -0.0741 -0.6540  0.7204
  484MOL0     H63832   8.419   3.985   0.393  2.4668  0.6397  0.2394
  484MOL0     H63833   8.364   3.768   0.340  2.0714  0.6968  0.3476
  484MOL0     H63834   8.234   3.835   0.439 -0.4898 -0.8501  0.0043
  484MOL0     H63835   8.280   3.699   0.628 -3.4963 -2.3934 -0.9794
  484MOL0     H63836   8.431   3.640   0.563 -0.8474  1.2184  1.0402
  484MOL0     H63837   8.150   3.617   0.477 -0.1093  1.8310  0.0531
  484MOL0     H63838   8.282   3.571   0.359 -0.7808  1.5691 -0.2195
  484MOL0     H63839   8.368   3.421   0.565 -0.4821  1.5520  3.6197
  484MOL0     H63840   8.230   3.355   0.472 -1.5002 -3.5833  2.4853
  484MOL0     H63841   8.335   3.493   0.820 -1.4671 -0.9650  4.6105
  484MOL0     H63842   8.197   3.581   1.032  0.0561 -1.1241  1.3018
  484MOL0     H63843   8.188   3.405   1.043  2.2759  1.2749 -0.3917
  484MOL0     H63844   7.932   3.434   1.046  1.2870 -0.8153  2.3775
  484MOL0     H63845   7.948   3.601   1.024 -1.2308 -0.8457 -0.2069
  484MOL0     H63846   7.901   3.577   1.262  1.6839  0.1366  1.6094
  484MOL0     H63847   7.981   3.428   1.268 -1.2763 -0.7880 -0.1595
  484MOL0     H63848   8.147   3.675   1.236 -0.1535  0.6105  0.1591
  484MOL0     H63849   8.196   3.524   1.309  0.6376 -0.3090 -2.2196
  484MOL0     H63850   8.333   3.696   1.365 -1.0915 -1.0954 -0.1256
  484MOL0     H63851   8.485   3.788   1.541 -0.8375 -0.5284 -2.9468
  484MOL0     H63852   8.817   3.814   1.764  1.7131  0.8002 -2.5466
  484MOL0     H63853   8.989   3.932   1.866 -0.0813 -2.2157  3.2064
  484MOL0     H63854   9.133   4.015   2.015  0.7241 -0.5650  0.3702
  484MOL0     H63855   9.033   3.982   2.149  1.8947 -0.6896  0.6971
  484MOL0     H63856   9.240   4.105   2.237 -2.1552 -0.5483  2.4987
  484MOL0     H63857   9.096   4.210   2.238 -0.5931 -1.1854  0.7914
  484MOL0     H63858   9.162   4.307   2.013 -1.1357  0.0027  0.0313
  484MOL0     H63859   9.304   4.205   2.026 -1.3138 -0.0177 -1.5422
  484MOL0     H63860   9.384   4.435   2.125 -0.2383  3.6125  2.6924
  484MOL0     H63861   9.219   4.462   2.185  1.7469  2.6681 -0.0667
  484MOL0     H63862   9.403   4.253   2.310 -1.3320 -1.3488  0.2577
  484MOL0     H63863   9.266   4.327   2.395 -1.3692  1.8331 -2.1939
  484MOL0     H63864   9.530   4.453   2.322  0.2514 -1.6874 -0.7811
  484MOL0     H63865   9.482   4.413   2.478  3.0237  0.4674  0.1644
  484MOL0     H63866   9.324   4.602   2.314  1.9568  1.4155  0.0143
  484MOL0     H63867   9.294   4.575   2.489  1.4102  1.3691  2.4732
  484MOL0     H63868   9.435   4.799   2.446  0.8905  1.4315 -0.2359
  484MOL0     H63869   9.563   4.679   2.392  0.5551  1.1256  1.8072
  484MOL0     H63870   8.717   4.228   2.018  0.9278 -0.2050  1.3480
  484MOL0     H63871   8.540   4.112   1.894 -1.4225 -1.6131  1.2488
  484MOL0     H63872   8.143   3.883   1.792 -1.0942 -1.0313 -0.8886
  484MOL0     H63873   8.009   3.757   1.655  0.6684 -1.3770  1.2094
  484MOL0     H63874   8.805   3.620   0.514  1.1160 -0.9618  2.5319
  484MOL0     H63875   8.951   3.439   0.602  3.1708  1.2738  1.4535
  484MOL0     H63876   9.299   3.237   0.691 -3.0596  0.1352  0.1869
  484MOL0     H63877   9.399   3.020   0.779  1.3959 -1.4105 -0.7069
  484MOL0     H63878   9.463   2.818   0.832 -0.9472  1.7130 -2.9198
  484MOL0     H63879   9.514   2.751   0.691  0.7880 -0.6184 -0.4529
  484MOL0     H63880   9.366   2.621   0.926  0.5580 -0.8695  0.7929
  484MOL0     H63881   9.341   2.540   0.776  2.3770 -1.0971 -1.6453
  484MOL0     H63882   9.589   2.579   0.943  3.5455 -1.1660 -1.5022
  484MOL0     H63883   9.620   2.564   0.774  1.3430 -1.7707  1.2322
  484MOL0     H63884   9.433   2.348   0.878 -0.4258 -0.6776 -3.7234
  484MOL0     H63885   9.582   2.328   0.780  1.0910  1.1184 -0.6160
  484MOL0     H63886   9.731   2.263   1.164 -0.6532 -3.4756 -1.1229
  484MOL0     H63887   9.175   2.792   0.509  1.7799  0.0124  1.9430
  484MOL0     H63888   9.087   3.004   0.400 -1.1909  1.8285  0.8640
  485MOL0     O63889  10.342   1.637   2.751 -0.2050 -0.1265 -0.8378
  485MOL0     C63890  10.301   1.614   2.638 -0.0096 -0.3116 -0.7619
  485MOL0     O63891  10.220   1.704   2.573 -0.1604  0.4839 -0.5146
  485MOL0     C63892  10.148   1.802   2.636 -1.3178  0.6536  0.1153
  485MOL0     C63893  10.161   1.935   2.599  0.1995  0.4846  0.3438
  485MOL0     C63894  10.086   2.038   2.657  0.7540 -0.5869  0.6398
  485MOL0     C63895   9.988   2.008   2.748 -0.2661  0.2950 -0.3883
  485MOL0     O63896   9.908   2.103   2.815 -0.6470 -0.4241 -0.5762
  485MOL0     C63897   9.917   2.238   2.765 -0.0270 -0.4224 -0.3095
  485MOL0     C63898   9.805   2.321   2.825  0.0063 -0.6148 -0.3412
  485MOL0     C63899   9.660   2.291   2.774 -1.2277  0.1684 -0.1080
  485MOL0     C63900   9.568   2.407   2.798  0.9606  0.0641  0.4533
  485MOL0     C63901   9.433   2.380   2.731 -0.7151  0.7339 -0.0798
  485MOL0     C63902   9.325   2.462   2.799 -0.7538 -0.0763 -0.2269
  485MOL0     C63903   9.191   2.427   2.749 -0.3798 -0.5838  0.7794
  485MOL0     C63904   9.136   2.301   2.814  0.5690  0.0595 -0.2613
  485MOL0     N63905   8.999   2.282   2.774  0.4804  0.4676 -0.7078
  485MOL0     C63906   8.881   2.310   2.841 -0.5518  0.7214 -0.0043
  485MOL0     C63907   8.780   2.265   2.765  0.1093 -0.7770  0.0787
  485MOL0     C63908   8.645   2.293   2.813  0.9958  0.3200 -1.1740
  485MOL0     C63909   8.593   2.435   2.765  0.4379 -0.0199  0.5778
  485MOL0     C63910   8.471   2.486   2.831  0.3619 -0.3261 -0.8383
  485MOL0     C63911   8.357   2.389   2.831  0.3697  1.0502  0.9424
  485MOL0     O63912   8.242   2.446   2.892 -1.1430 -0.0362  0.2137
  485MOL0     C63913   8.128   2.369   2.900 -0.0800  0.6637 -0.2251
  485MOL0     C63914   8.032   2.424   2.990 -1.0049  0.9658  1.1477
  485MOL0     C63915   7.907   2.369   3.023  0.1961 -0.1065 -0.5836
  485MOL0     C63916   7.873   2.253   2.957 -0.4861 -0.8878  0.4223
  485MOL0     C63917   7.740   2.196   2.974 -1.0232  0.4291 -0.9306
  485MOL0     O63918   7.734   2.058   2.966 -0.3861 -0.5480  0.4143
  485MOL0     C63919   7.606   2.012   2.976  0.0598 -0.2206 -0.9085
  485MOL0     C63920   7.500   2.043   2.887 -0.1670  0.0278 -0.5374
  485MOL0     C63921   7.374   1.986   2.901  0.5352 -0.2211  0.0448
  485MOL0     C63922   7.349   1.901   3.007  0.9478 -0.3699 -0.8946
  485MOL0     O63923   7.228   1.829   3.003  0.1819  0.4519 -0.8316
  485MOL0     C63924   7.198   1.724   2.905  0.2829 -0.9538 -0.2367
  485MOL0     C63925   7.279   1.600   2.930 -0.7780 -0.3032 -0.3164
  485MOL0     C63926   7.223   1.473   2.867  0.1487  0.0134 -0.5547
  485MOL0     C63927   7.261   1.358   2.954 -1.0728  1.0944  0.4874
  485MOL0     C63928   7.409   1.294   2.937  0.6858 -0.8563  0.5260
  485MOL0     C63929   7.441   1.265   2.787  0.4370 -0.3979 -0.3034
  485MOL0     C63930   7.536   1.143   2.765  1.2414 -0.2740 -0.7558
  485MOL0     C63931   7.572   1.113   2.616  0.5224  0.1003 -0.7031
  485MOL0    Cl63932   7.652   1.237   2.531  0.3507  0.0029  0.0102
  485MOL0     C63933   7.449   1.872   3.099  0.2778 -0.5075 -0.6664
  485MOL0     C63934   7.575   1.935   3.085 -0.0357 -0.0770  0.5952
  485MOL0     O63935   7.644   2.268   3.000 -0.0183 -0.2115 -0.1273
  485MOL0     C63936   7.965   2.186   2.876 -0.4133  0.4135  0.5871
  485MOL0     C63937   8.093   2.249   2.848  0.0283  1.0360 -0.1662
  485MOL0     N63938   8.823   2.187   2.658 -0.3399 -0.2570  0.1838
  485MOL0     N63939   8.952   2.199   2.664 -0.8576  0.4453 -0.1964
  485MOL0     C63940   9.969   1.873   2.786 -0.8316 -0.0194 -0.1523
  485MOL0     C63941  10.046   1.771   2.733 -0.5034 -0.1890  0.3700
  485MOL0     C63942  10.354   1.491   2.572 -0.0880 -0.2651  0.0741
  485MOL0     C63943  10.292   1.445   2.452 -0.2577 -0.2402 -0.7898
  485MOL0     C63944  10.349   1.324   2.393  0.5445 -1.1050  0.1143
  485MOL0     C63945  10.466   1.271   2.431  0.0025  0.2013 -0.0248
  485MOL0     O63946  10.513   1.150   2.378 -0.5461 -0.4117  0.3384
  485MOL0     C63947  10.489   1.142   2.232  0.4475 -0.4835 -0.6276
  485MOL0     C63948  10.560   1.019   2.184  0.3247  0.9725  0.6478
  485MOL0     C63949  10.491   0.878   2.216 -0.5168 -0.3925 -0.4950
  485MOL0     C63950  10.438   0.807   2.098  0.4405  0.2144  0.3398
  485MOL0     C63951  10.332   0.884   2.031 -1.0684  0.1532  0.7218
  485MOL0     C63952  10.248   0.939   1.957  0.0417 -0.1548 -0.1242
  485MOL0     C63953  10.519   1.318   2.557 -0.6510  0.4827  0.0931
  485MOL0     C63954  10.465   1.422   2.626  0.7015  0.4927  0.1497
  485MOL0     H63955  10.246   1.950   2.534 -0.0186 -0.7562 -0.2724
  485MOL0     H63956  10.107   2.136   2.615  0.1115 -1.8838 -3.0517
  485MOL0     H63957   9.896   2.236   2.658 -0.7120 -1.2923 -0.1687
  485MOL0     H63958  10.014   2.286   2.776 -0.8484  2.1970 -3.1660
  485MOL0     H63959   9.836   2.421   2.794  1.4702 -1.3039 -1.2383
  485MOL0     H63960   9.820   2.305   2.933 -0.1273  0.9397 -0.0805
  485MOL0     H63961   9.623   2.200   2.824 -0.6808  0.6508  1.2307
  485MOL0     H63962   9.674   2.270   2.668 -0.7337  1.7330 -0.3715
  485MOL0     H63963   9.553   2.414   2.906  0.7569 -2.4135  0.6391
  485MOL0     H63964   9.604   2.504   2.763  1.8613 -0.1333  0.8094
  485MOL0     H63965   9.419   2.272   2.737 -0.2620  0.7347  2.0915
  485MOL0     H63966   9.441   2.394   2.623 -2.4415  0.6246 -0.2458
  485MOL0     H63967   9.365   2.562   2.778  1.7421 -0.9922 -0.1829
  485MOL0     H63968   9.334   2.459   2.908 -2.2009  3.8837  0.1756
  485MOL0     H63969   9.136   2.516   2.781 -0.0730 -0.8997  2.2683
  485MOL0     H63970   9.184   2.406   2.642 -1.3356  2.0378  0.2373
  485MOL0     H63971   9.157   2.294   2.921 -1.0150 -0.4130  0.0417
  485MOL0     H63972   9.189   2.215   2.773 -0.1374  0.0402 -1.1625
  485MOL0     H63973   8.873   2.358   2.938  2.5194  2.1113 -0.3251
  485MOL0     H63974   8.627   2.283   2.921  0.9105  1.0231 -1.1130
  485MOL0     H63975   8.584   2.220   2.760  1.9547 -0.4850 -1.1900
  485MOL0     H63976   8.559   2.424   2.661 -0.0200 -1.7677  0.8785
  485MOL0     H63977   8.674   2.509   2.759 -0.3273  0.7781 -0.2383
  485MOL0     H63978   8.504   2.516   2.931 -2.3762  1.4959 -0.3751
  485MOL0     H63979   8.444   2.575   2.774 -0.2603  0.7348  1.0354
  485MOL0     H63980   8.376   2.307   2.902 -3.1950  0.0873  0.9742
  485MOL0     H63981   8.335   2.349   2.732 -1.0293  1.2617  1.1480
  485MOL0     H63982   8.072   2.515   3.033  0.6110  0.5776  0.5380
  485MOL0     H63983   7.849   2.437   3.084  0.9943 -0.4732  0.6159
  485MOL0     H63984   7.509   2.115   2.806  0.4660 -1.7969 -2.1759
  485MOL0     H63985   7.286   2.008   2.842  2.1416  1.1160 -2.0019
  485MOL0     H63986   7.225   1.752   2.803  1.6716 -1.0935  0.0705
  485MOL0     H63987   7.093   1.693   2.909  0.8102 -3.1538 -1.7684
  485MOL0     H63988   7.288   1.596   3.039  0.4197 -1.6186 -0.4367
  485MOL0     H63989   7.375   1.616   2.880 -1.7483  0.1616 -2.1272
  485MOL0     H63990   7.267   1.471   2.767  0.1874  0.8679 -0.5619
  485MOL0     H63991   7.115   1.488   2.859  0.1838 -0.8352 -4.4748
  485MOL0     H63992   7.255   1.381   3.061 -1.1888 -0.2785  0.7920
  485MOL0     H63993   7.195   1.276   2.925  1.0108 -0.9754  1.3170
  485MOL0     H63994   7.412   1.204   2.998 -1.7812 -0.8114  0.8139
  485MOL0     H63995   7.480   1.360   2.988 -2.1974  1.6183  1.6525
  485MOL0     H63996   7.478   1.361   2.749 -2.0749  2.0233  2.7883
  485MOL0     H63997   7.353   1.236   2.729  0.8090 -1.6763 -0.2531
  485MOL0     H63998   7.627   1.165   2.821 -0.0817  1.2088  0.9349
  485MOL0     H63999   7.479   1.056   2.799  0.2169 -0.0820 -1.8996
  485MOL0     H64000   7.500   1.057   2.556  2.8589 -2.7815 -1.0227
  485MOL0     H64001   7.650   1.036   2.614  0.8406  0.4255 -2.1038
  485MOL0     H64002   7.443   1.796   3.176  1.4880  2.1298  2.2407
  485MOL0     H64003   7.655   1.903   3.150  2.2832 -0.8169 -2.3946
  485MOL0     H64004   7.938   2.097   2.820  0.8661 -0.3696  1.1686
  485MOL0     H64005   8.173   2.196   2.796 -0.8661 -0.5797  0.0612
  485MOL0     H64006   9.884   1.863   2.852 -1.2321 -0.9649 -0.7893
  485MOL0     H64007  10.040   1.668   2.767 -0.1993  0.6313  3.0817
  485MOL0     H64008  10.202   1.487   2.408 -0.3313 -1.3340 -1.7463
  485MOL0     H64009  10.286   1.287   2.313  0.5042  0.9467 -0.8846
  485MOL0     H64010  10.512   1.234   2.178 -1.0187  1.7455  2.3475
  485MOL0     H64011  10.382   1.121   2.221  0.1865  1.3510 -2.0999
  485MOL0     H64012  10.575   1.024   2.076  0.0465 -2.4896  0.3334
  485MOL0     H64013  10.664   1.024   2.219  0.5523 -1.2624  0.4085
  485MOL0     H64014  10.401   0.889   2.277  0.3730 -3.2928  1.5689
  485MOL0     H64015  10.566   0.825   2.274  1.0319  2.9907  0.8973
  485MOL0     H64016  10.517   0.783   2.025 -0.6430 -3.6642  0.2430
  485MOL0     H64017  10.398   0.707   2.119 -0.0985  0.7767  2.1657
  485MOL0     H64018  10.171   0.987   1.900  2.7180  2.4713 -1.8494
  485MOL0     H64019  10.605   1.266   2.599 -1.2959 -1.1261 -0.4820
  485MOL0     H64020  10.506   1.457   2.720 -0.3793 -0.8011  1.1449
  486MOL0     O64021  10.848   0.107   2.262  0.3704 -0.0100 -0.4408
  486MOL0     C64022  10.823   0.093   2.384 -0.7211 -0.0130  0.5472
  486MOL0     O64023  10.719   0.035   2.447  0.5324 -0.1955  0.1871
  486MOL0     C64024  10.606   0.014   2.379  1.0655 -0.0871  0.2143
  486MOL0     C64025  10.482   0.052   2.435 -0.6529 -0.7503  0.4863
  486MOL0     C64026  10.364   0.039   2.369  0.3556  0.2588  0.3305
  486MOL0     C64027  10.365  -0.027   2.246  0.9129 -0.6342  1.0931
  486MOL0     O64028  10.251  -0.053   2.171  0.0822  0.9894 -0.2895
  486MOL0     C64029  10.130  -0.050   2.240  0.7780  0.0354  0.5552
  486MOL0     C64030  10.048  -0.158   2.169  0.2303  0.5852  0.6908
  486MOL0     C64031   9.897  -0.135   2.188 -0.2807  0.3825 -0.4111
  486MOL0     C64032   9.824  -0.248   2.110 -0.3346  0.2358  0.0311
  486MOL0     C64033   9.680  -0.239   2.146 -0.3137 -0.3696  0.4043
  486MOL0     C64034   9.596  -0.344   2.068 -0.7740  0.1755 -0.6459
  486MOL0     C64035   9.449  -0.349   2.106  0.0678  0.6287 -0.3495
  486MOL0     C64036   9.367  -0.447   2.014  0.2413  0.3207 -0.1777
  486MOL0     N64037   9.256  -0.508   2.080  0.8395  0.3329  0.3997
  486MOL0     C64038   9.128  -0.473   2.083 -0.2295 -0.1224  0.2105
  486MOL0     C64039   9.065  -0.558   2.161 -0.7911  0.4302 -0.4037
  486MOL0     C64040   8.919  -0.559   2.201  0.5811  0.4969 -0.5578
  486MOL0     C64041   8.837  -0.439   2.164  0.1706  0.7437  0.7737
  486MOL0     C64042   8.869  -0.315   2.241 -0.4855 -0.1138 -1.1145
  486MOL0     C64043   8.863  -0.178   2.165  0.0309  0.7826 -0.3310
  486MOL0     O64044   8.966  -0.177   2.063 -0.0960  0.4932 -0.4239
  486MOL0     C64045   8.983  -0.063   1.991 -0.1982 -0.0101 -0.9615
  486MOL0     C64046   9.063  -0.065   1.871 -0.0296  0.1845  0.1706
  486MOL0     C64047   9.071   0.050   1.793  0.6378  0.2979 -0.1114
  486MOL0     C64048   9.007   0.169   1.827  0.8013  0.2877 -0.1879
  486MOL0     C64049   9.016   0.276   1.735  0.5798 -1.1256 -0.2936
  486MOL0     O64050   8.945   0.392   1.760  0.4644  0.7413 -0.4410
  486MOL0     C64051   8.961   0.515   1.704 -0.2651 -0.0729 -0.5416
  486MOL0     C64052   8.858   0.609   1.722 -1.2018  0.0345 -0.2515
  486MOL0     C64053   8.872   0.732   1.657  0.2052  0.0422  0.1379
  486MOL0     C64054   8.989   0.766   1.578  0.0090 -0.8522 -0.1907
  486MOL0     O64055   8.991   0.886   1.508 -0.7309 -0.5552  0.6463
  486MOL0     C64056   9.102   0.971   1.542 -0.4657  0.7691  0.3785
  486MOL0     C64057   9.066   1.115   1.501  0.4943  0.5356  0.7441
  486MOL0     C64058   9.075   1.126   1.340 -0.2156 -0.4967  0.0516
  486MOL0     C64059   9.049   1.275   1.298  0.0355  0.5775 -0.1290
  486MOL0     C64060   9.037   1.304   1.154  0.7655  0.6206  0.2971
  486MOL0     C64061   9.015   1.441   1.119 -0.1641  0.0003  0.0900
  486MOL0     C64062   8.987   1.478   0.980 -0.2617 -0.8149 -0.4598
  486MOL0     C64063   8.856   1.440   0.919 -0.0791 -0.4004  1.2755
  486MOL0    Cl64064   8.720   1.534   0.984 -0.0909  0.2758  0.0242
  486MOL0     C64065   9.097   0.679   1.580  0.5116  0.5252  0.0716
  486MOL0     C64066   9.086   0.553   1.643  0.0633 -0.5817 -0.2932
  486MOL0     O64067   9.092   0.260   1.640 -0.1960 -0.0585 -0.1166
  486MOL0     C64068   8.924   0.170   1.947  0.4351 -0.2435  0.3902
  486MOL0     C64069   8.916   0.057   2.025 -0.2541  0.8209 -0.1896
  486MOL0     N64070   9.158  -0.646   2.212 -0.1182  0.2923  0.5223
  486MOL0     N64071   9.270  -0.616   2.156 -0.6637  0.3074 -0.2590
  486MOL0     C64072  10.487  -0.077   2.185 -0.0972 -0.0787 -1.5104
  486MOL0     C64073  10.605  -0.050   2.253  0.1821  0.2506 -1.0503
  486MOL0     C64074  10.933   0.147   2.472 -0.1954  1.0636  0.5289
  486MOL0     C64075  10.944   0.105   2.602  0.0108  0.1977 -0.4978
  486MOL0     C64076  11.035   0.166   2.687  0.0608  0.7812 -1.1109
  486MOL0     C64077  11.128   0.259   2.642  0.2212 -0.0277 -0.0563
  486MOL0     O64078  11.236   0.289   2.720 -0.2400  0.1987 -1.0139
  486MOL0     C64079  11.210   0.369   2.837 -0.6421  0.4266  0.4655
  486MOL0     C64080  11.230   0.303   2.979 -0.1077  0.5440 -0.8280
  486MOL0     C64081  11.225   0.406   3.095 -0.4031  0.2314  0.1898
  486MOL0     C64082  11.224   0.354   3.234  0.7339  1.0452  0.7981
  486MOL0     C64083  11.255   0.463   3.334  0.0444 -0.4107 -0.0343
  486MOL0     C64084  11.287   0.551   3.407  0.8369  0.4026 -0.3386
  486MOL0     C64085  11.134   0.294   2.508  0.2088  0.2481 -0.1928
  486MOL0     C64086  11.018   0.253   2.427  0.8123 -0.0463  0.5340
  486MOL0     H64087  10.478   0.073   2.542  0.9697 -1.8779  0.8102
  486MOL0     H64088  10.274   0.062   2.425  0.2657 -0.0726  0.3248
  486MOL0     H64089  10.076   0.045   2.232 -2.0061 -1.3666  1.6102
  486MOL0     H64090  10.137  -0.068   2.348  0.0539 -0.8258  0.4660
  486MOL0     H64091  10.064  -0.253   2.222  0.1759  1.3770  2.1899
  486MOL0     H64092  10.071  -0.161   2.062 -1.6595 -0.3163  0.2641
  486MOL0     H64093   9.860  -0.044   2.140  2.3675  1.6701 -0.1769
  486MOL0     H64094   9.865  -0.138   2.293  1.4562  0.3590  0.1423
  486MOL0     H64095   9.835  -0.230   2.003 -1.5744  1.7032  0.1129
  486MOL0     H64096   9.857  -0.350   2.133 -0.0659  0.5653  1.1495
  486MOL0     H64097   9.632  -0.142   2.131  0.5901 -0.2482 -2.2520
  486MOL0     H64098   9.670  -0.249   2.254 -0.0689 -1.6890  0.3266
  486MOL0     H64099   9.645  -0.438   2.095  0.5680  0.8217 -0.7449
  486MOL0     H64100   9.619  -0.328   1.962  0.1015  0.6569 -0.3973
  486MOL0     H64101   9.442  -0.372   2.213  1.5246  0.9709 -0.1641
  486MOL0     H64102   9.413  -0.246   2.103 -0.1699  1.0797  5.6313
  486MOL0     H64103   9.439  -0.526   1.991 -1.1072 -0.3036 -2.6414
  486MOL0     H64104   9.327  -0.404   1.922 -3.9112 -1.9920  0.3164
  486MOL0     H64105   9.085  -0.395   2.021  2.0777  2.2553  1.4084
  486MOL0     H64106   8.915  -0.579   2.308 -2.1388 -0.8069 -0.8211
  486MOL0     H64107   8.866  -0.643   2.154 -0.8122 -0.7172  2.8678
  486MOL0     H64108   8.728  -0.452   2.167 -0.1794  3.2025  1.6165
  486MOL0     H64109   8.859  -0.421   2.058 -1.7780  0.5988  0.3082
  486MOL0     H64110   8.817  -0.300   2.336  1.1493  4.4426 -0.6812
  486MOL0     H64111   8.974  -0.325   2.271 -0.6628  1.9756  0.4862
  486MOL0     H64112   8.890  -0.100   2.236  0.2983  2.8138 -2.5418
  486MOL0     H64113   8.762  -0.162   2.126 -1.1531 -3.2187  0.6446
  486MOL0     H64114   9.113  -0.157   1.842 -2.4974 -1.6484  1.3612
  486MOL0     H64115   9.141   0.043   1.711 -0.9339 -2.0085 -1.3947
  486MOL0     H64116   8.766   0.577   1.772 -1.2962 -0.6267 -0.8201
  486MOL0     H64117   8.789   0.802   1.652  1.4598  1.9216  3.1174
  486MOL0     H64118   9.192   0.938   1.489 -1.4299 -0.9862 -0.2601
  486MOL0     H64119   9.113   0.961   1.650 -2.0597 -0.8982  0.4389
  486MOL0     H64120   9.144   1.174   1.550  1.6546 -0.0764 -0.2783
  486MOL0     H64121   8.968   1.152   1.531 -0.0497  1.5518 -2.0077
  486MOL0     H64122   9.011   1.052   1.291 -0.3622 -1.1157  1.1473
  486MOL0     H64123   9.180   1.106   1.318  1.1937  2.1833  3.2992
  486MOL0     H64124   8.964   1.303   1.360  0.2696 -2.9359  2.0704
  486MOL0     H64125   9.140   1.329   1.326  1.8674 -1.3245 -2.0190
  486MOL0     H64126   8.948   1.251   1.120  0.5064  1.0048  0.3659
  486MOL0     H64127   9.127   1.269   1.101 -0.4999  1.1880 -2.4208
  486MOL0     H64128   9.099   1.504   1.150  0.3410 -1.0661  0.9590
  486MOL0     H64129   8.936   1.477   1.185  1.4577  0.1429  2.0587
  486MOL0     H64130   8.996   1.587   0.982 -1.9672 -0.6585  1.8307
  486MOL0     H64131   9.067   1.426   0.926  0.4295  0.0290 -0.2668
  486MOL0     H64132   8.836   1.334   0.936 -0.1839 -0.6731 -0.4153
  486MOL0     H64133   8.862   1.457   0.811  3.8433 -0.2269  1.3795
  486MOL0     H64134   9.193   0.716   1.545 -1.0022  3.7300 -1.0875
  486MOL0     H64135   9.169   0.483   1.635  1.9394  1.4936  0.2317
  486MOL0     H64136   8.868   0.261   1.968  0.6549 -0.0159 -0.0259
  486MOL0     H64137   8.845   0.071   2.106  1.7114  3.4980  1.2557
  486MOL0     H64138  10.493  -0.140   2.097  0.1535  0.1753 -1.6765
  486MOL0     H64139  10.701  -0.084   2.214  1.3627  2.5489 -0.2905
  486MOL0     H64140  10.884   0.030   2.654  1.4283 -0.1737  0.6558
  486MOL0     H64141  11.030   0.148   2.794  1.5688  0.7329 -1.0322
  486MOL0     H64142  11.114   0.419   2.823 -0.7449  0.1918  0.3201
  486MOL0     H64143  11.287   0.446   2.829 -0.3813  0.1995  0.7810
  486MOL0     H64144  11.151   0.231   3.000  1.4531 -1.0720 -0.1734
  486MOL0     H64145  11.327   0.252   2.988  1.2666  3.1378  0.3201
  486MOL0     H64146  11.128   0.454   3.085 -0.1706  0.6560 -0.0430
  486MOL0     H64147  11.316   0.466   3.087 -0.3171  0.6668  3.2109
  486MOL0     H64148  11.121   0.319   3.251  0.8008  0.5415  0.1798
  486MOL0     H64149  11.288   0.266   3.224 -0.2046  0.5818 -2.0673
  486MOL0     H64150  11.302   0.635   3.471  3.4610  0.5623 -1.0621
  486MOL0     H64151  11.209   0.358   2.464 -1.4281  1.3182 -1.6006
  486MOL0     H64152  11.010   0.290   2.326  0.8474 -4.4605 -1.2832
  487MOL0     O64153   3.545   6.656   3.649 -0.0835  0.4114  0.2454
  487MOL0     C64154   3.586   6.557   3.704  0.0426  0.1906  0.2368
  487MOL0     O64155   3.516   6.443   3.718 -0.5855 -0.1197 -0.1932
  487MOL0     C64156   3.401   6.429   3.640  0.2787  0.5984 -1.4202
  487MOL0     C64157   3.285   6.390   3.712 -0.0620  0.0876  0.3037
  487MOL0     C64158   3.162   6.380   3.645  0.1271  0.3595 -0.1793
  487MOL0     C64159   3.158   6.376   3.505  0.4192  0.0931  0.7120
  487MOL0     O64160   3.037   6.351   3.454  0.4135 -0.0564  0.5469
  487MOL0     C64161   2.998   6.404   3.329 -0.7067 -0.1649 -0.2840
  487MOL0     C64162   2.876   6.324   3.282 -0.5237 -0.0349 -0.4201
  487MOL0     C64163   2.917   6.202   3.194  0.4495  0.0742 -0.4087
  487MOL0     C64164   2.794   6.118   3.138  0.4238  0.7359  0.0492
  487MOL0     C64165   2.824   5.983   3.074  0.7266 -0.3024  0.5057
  487MOL0     C64166   2.697   5.915   3.001 -0.5521  0.4726 -0.1200
  487MOL0     C64167   2.729   5.783   2.928  0.5715  0.0144  0.8471
  487MOL0     C64168   2.600   5.743   2.851 -0.2346 -0.6671  0.5019
  487MOL0     N64169   2.608   5.593   2.827 -0.1397  0.2705 -0.3444
  487MOL0     C64170   2.504   5.496   2.850 -0.2446  0.1893 -0.4804
  487MOL0     C64171   2.533   5.383   2.770 -0.5114  0.7172 -0.4204
  487MOL0     C64172   2.462   5.250   2.769 -0.3471  0.3568  0.0873
  487MOL0     C64173   2.521   5.161   2.875  0.2590  0.2050  0.5753
  487MOL0     C64174   2.472   5.176   3.022  0.0267  0.3784  0.5428
  487MOL0     C64175   2.562   5.109   3.127 -0.6370  0.1174 -0.1921
  487MOL0     O64176   2.701   5.153   3.117 -0.5106 -0.6682  0.1273
  487MOL0     C64177   2.785   5.121   3.224  0.6520 -0.0405  0.9158
  487MOL0     C64178   2.912   5.168   3.216  0.6162 -0.9516  0.6170
  487MOL0     C64179   3.016   5.140   3.310  0.9575  1.1638 -0.3332
  487MOL0     C64180   2.983   5.048   3.413 -0.0617 -0.7036 -0.5217
  487MOL0     C64181   3.086   5.005   3.514  0.1349 -0.5134 -0.7669
  487MOL0     O64182   3.080   4.882   3.558 -0.0823 -1.0365 -0.7877
  487MOL0     C64183   3.192   4.837   3.618  0.6627  0.5652  0.1144
  487MOL0     C64184   3.178   4.798   3.752 -0.0611  0.1550  0.0668
  487MOL0     C64185   3.298   4.757   3.816 -0.3466 -0.7553  0.0189
  487MOL0     C64186   3.418   4.748   3.749  0.2833 -0.1475 -0.7493
  487MOL0     O64187   3.516   4.693   3.818  0.3020 -0.1076 -0.6998
  487MOL0     C64188   3.641   4.677   3.762 -0.2008 -0.1245 -0.1737
  487MOL0     C64189   3.711   4.593   3.868 -0.3258  0.5811  0.4842
  487MOL0     C64190   3.862   4.611   3.843 -0.3317  0.7428 -0.0948
  487MOL0     C64191   3.950   4.556   3.953  0.2727  0.3356 -0.2640
  487MOL0     C64192   4.094   4.543   3.913  0.3527  0.2020  0.2383
  487MOL0     C64193   4.169   4.473   4.015  0.5472 -0.7411 -0.1419
  487MOL0     C64194   4.157   4.321   4.014 -0.4342 -1.4366  0.0844
  487MOL0     C64195   4.199   4.255   4.145 -0.1864  0.4330  0.8089
  487MOL0    Cl64196   4.077   4.244   4.268  0.0626 -0.4161  0.3006
  487MOL0     C64197   3.423   4.783   3.619 -0.8757  0.0301  0.0875
  487MOL0     C64198   3.310   4.828   3.556 -0.3293 -0.8138  0.2729
  487MOL0     O64199   3.178   5.087   3.537 -0.1894 -0.8219  0.0644
  487MOL0     C64200   2.855   4.993   3.423  0.3908  0.2880  0.2599
  487MOL0     C64201   2.760   5.027   3.325 -0.4547  0.7124 -0.1124
  487MOL0     N64202   2.651   5.422   2.706  0.7128 -0.6111  0.0774
  487MOL0     N64203   2.693   5.539   2.733 -0.5676 -0.3745 -0.5858
  487MOL0     C64204   3.272   6.399   3.436 -0.5906 -0.8105  0.0652
  487MOL0     C64205   3.395   6.410   3.501 -0.5868  0.1526 -0.6248
  487MOL0     C64206   3.723   6.562   3.754  1.4911  0.0246 -0.2649
  487MOL0     C64207   3.808   6.663   3.712  0.1726 -0.0490 -0.0591
  487MOL0     C64208   3.934   6.678   3.772 -0.2395  0.2421  0.2715
  487MOL0     C64209   3.988   6.591   3.869  0.1595  0.9453  0.4616
  487MOL0     O64210   4.116   6.586   3.917 -0.1230 -0.6047  0.9894
  487MOL0     C64211   4.232   6.634   3.848  0.1697 -0.0629 -0.3812
  487MOL0     C64212   4.256   6.565   3.709 -0.1927  0.6732  0.0694
  487MOL0     C64213   4.254   6.413   3.713 -0.6931 -0.4675 -0.2739
  487MOL0     C64214   4.362   6.373   3.814 -0.1605  0.0345 -0.2120
  487MOL0     C64215   4.389   6.232   3.804 -0.3945  0.6292  0.2350
  487MOL0     C64216   4.431   6.117   3.805 -1.3340  0.9169 -0.1781
  487MOL0     C64217   3.895   6.487   3.902 -0.1205 -0.1016 -0.5175
  487MOL0     C64218   3.767   6.472   3.857  0.7259 -1.2216  1.2083
  487MOL0     H64219   3.296   6.376   3.819  0.5961  1.9114  0.5151
  487MOL0     H64220   3.072   6.365   3.704  0.4910  0.8988  0.5276
  487MOL0     H64221   3.085   6.388   3.265  0.6058  0.3306  1.2904
  487MOL0     H64222   2.997   6.513   3.342  2.8770 -0.2029  1.8550
  487MOL0     H64223   2.826   6.393   3.213 -1.4643 -0.2273  0.0598
  487MOL0     H64224   2.822   6.305   3.375  2.2256 -0.0059  1.2837
  487MOL0     H64225   2.988   6.152   3.261 -0.8677  2.8997  3.3950
  487MOL0     H64226   2.980   6.243   3.115  3.0146  0.9227  1.9100
  487MOL0     H64227   2.730   6.100   3.225 -1.8815 -2.1088 -2.0245
  487MOL0     H64228   2.750   6.183   3.062 -0.3539 -1.0042 -1.0340
  487MOL0     H64229   2.853   5.915   3.155  0.4372 -0.4104  0.5194
  487MOL0     H64230   2.913   5.979   3.010 -0.0559  1.1051 -0.7087
  487MOL0     H64231   2.645   5.987   2.936 -0.8362 -0.6135 -1.1220
  487MOL0     H64232   2.612   5.895   3.067 -0.1086 -1.9273 -0.2129
  487MOL0     H64233   2.818   5.799   2.867  1.7525 -0.6171  2.3521
  487MOL0     H64234   2.740   5.707   3.006  0.9066 -0.5387  0.2634
  487MOL0     H64235   2.595   5.802   2.759  2.1193 -0.7961  0.2274
  487MOL0     H64236   2.506   5.771   2.900 -1.8026 -2.1322 -1.4913
  487MOL0     H64237   2.424   5.501   2.924 -0.9378 -0.9721 -1.1157
  487MOL0     H64238   2.466   5.208   2.668 -1.0678  0.8953 -0.1793
  487MOL0     H64239   2.358   5.278   2.789 -0.3582  0.5797 -0.2728
  487MOL0     H64240   2.629   5.180   2.868  0.5975 -1.3335  1.2923
  487MOL0     H64241   2.510   5.059   2.839  1.8428  0.0653  0.4055
  487MOL0     H64242   2.467   5.283   3.042  3.0432  0.3855  1.8572
  487MOL0     H64243   2.374   5.129   3.028 -0.0942 -0.0947 -3.1732
  487MOL0     H64244   2.541   5.003   3.110  0.2908  0.3317 -3.2912
  487MOL0     H64245   2.526   5.128   3.229  1.5610  0.5432  0.5572
  487MOL0     H64246   2.934   5.240   3.138 -1.2390  0.3057  1.1987
  487MOL0     H64247   3.116   5.181   3.296  1.7570 -0.9135 -1.0551
  487MOL0     H64248   3.080   4.814   3.794 -0.3736 -0.1076 -0.5500
  487MOL0     H64249   3.276   4.725   3.918 -2.0908 -1.9414 -0.6753
  487MOL0     H64250   3.690   4.774   3.748  1.9255 -0.9088  1.4020
  487MOL0     H64251   3.629   4.621   3.669 -1.7884  0.4931 -0.3727
  487MOL0     H64252   3.680   4.488   3.861 -0.2609  0.4181  2.2653
  487MOL0     H64253   3.687   4.628   3.968 -0.5120 -0.0965  0.6827
  487MOL0     H64254   3.886   4.718   3.851 -2.2518  1.1954  0.3348
  487MOL0     H64255   3.900   4.560   3.755  2.6407  1.0859  0.8956
  487MOL0     H64256   3.951   4.631   4.032  4.2850 -0.0096  0.2368
  487MOL0     H64257   3.903   4.465   3.991  0.9466 -0.1801 -0.6293
  487MOL0     H64258   4.126   4.644   3.888  0.0165 -0.3210 -2.7013
  487MOL0     H64259   4.098   4.489   3.818  1.3813 -0.6653  0.7631
  487MOL0     H64260   4.155   4.511   4.117  0.5619 -0.8820 -0.0861
  487MOL0     H64261   4.271   4.506   3.993  0.9411 -1.6666  0.2254
  487MOL0     H64262   4.051   4.302   3.995 -0.4529 -0.5176 -0.8129
  487MOL0     H64263   4.210   4.278   3.929  0.3025 -1.9724  0.8071
  487MOL0     H64264   4.273   4.328   4.178 -1.7532  2.4901  0.0213
  487MOL0     H64265   4.232   4.151   4.137 -4.9660 -1.2523 -0.7188
  487MOL0     H64266   3.513   4.796   3.559 -1.3025  2.1393 -0.1823
  487MOL0     H64267   3.325   4.867   3.456 -0.4866  0.4741  0.7338
  487MOL0     H64268   2.817   4.922   3.497 -1.8014 -2.4279 -3.1371
  487MOL0     H64269   2.671   4.966   3.307  1.3554 -1.7608 -1.2696
  487MOL0     H64270   3.260   6.397   3.329 -1.2825  0.1778  0.1128
  487MOL0     H64271   3.493   6.403   3.455  0.5871 -0.1367  1.7551
  487MOL0     H64272   3.773   6.732   3.636 -0.6618 -0.4126 -0.0214
  487MOL0     H64273   3.991   6.766   3.744 -1.0274  0.1238 -1.9476
  487MOL0     H64274   4.325   6.629   3.905  0.4000 -0.7484 -0.8066
  487MOL0     H64275   4.212   6.738   3.822 -2.9232 -1.1726 -3.1794
  487MOL0     H64276   4.179   6.593   3.637  0.6452  0.1230 -1.0620
  487MOL0     H64277   4.351   6.597   3.665 -0.3125  3.8579  1.8197
  487MOL0     H64278   4.286   6.378   3.615  0.5319 -3.1321  0.9832
  487MOL0     H64279   4.163   6.361   3.744 -0.1282 -3.9725 -3.7693
  487MOL0     H64280   4.455   6.420   3.782  0.6066 -2.6333 -2.2475
  487MOL0     H64281   4.319   6.394   3.912 -0.3838 -2.4618  0.2993
  487MOL0     H64282   4.468   6.017   3.807  1.6081  1.8831 -1.4517
  487MOL0     H64283   3.932   6.407   3.966  0.2708  0.5538  0.0903
  487MOL0     H64284   3.705   6.384   3.866  1.3379 -1.6773  1.0166
  488MOL0     O64285  10.139   5.823   4.603  1.7767  0.1530 -0.3998
  488MOL0     C64286  10.125   5.764   4.711  0.0632 -0.1733 -0.2438
  488MOL0     O64287  10.062   5.823   4.819 -0.3438  0.3688 -0.0511
  488MOL0     C64288   9.997   5.943   4.807 -0.5102 -0.2943 -0.4983
  488MOL0     C64289  10.068   6.054   4.841 -0.1478 -0.9041  0.3725
  488MOL0     C64290  10.012   6.183   4.818 -0.7483  0.4887  0.0545
  488MOL0     C64291   9.880   6.194   4.787  0.1583 -0.0199  0.6964
  488MOL0     O64292   9.838   6.326   4.774 -0.1221 -1.2145  0.2359
  488MOL0     C64293   9.689   6.347   4.770  0.4850 -0.3773 -0.6397
  488MOL0     C64294   9.642   6.480   4.831 -1.0246 -0.3226  0.5022
  488MOL0     C64295   9.612   6.450   4.973 -1.1453  0.3170  0.2079
  488MOL0     C64296   9.575   6.570   5.062 -0.2973  0.6570 -0.2215
  488MOL0     C64297   9.536   6.525   5.213 -0.1183 -0.7277 -0.4823
  488MOL0     C64298   9.622   6.415   5.273  0.1783  0.2957  1.0423
  488MOL0     C64299   9.596   6.372   5.406 -0.3789  0.4497  1.0076
  488MOL0     C64300   9.647   6.457   5.516 -0.3026  0.2169 -0.4905
  488MOL0     N64301   9.624   6.397   5.650 -0.5541 -0.0717 -0.1380
  488MOL0     C64302   9.732   6.362   5.728  0.3083 -0.0431  0.6886
  488MOL0     C64303   9.670   6.303   5.835  0.3022  0.2917  1.4102
  488MOL0     C64304   9.748   6.255   5.950 -0.7766 -0.8125 -0.3638
  488MOL0     C64305   9.682   6.141   6.014  0.1121 -0.1809  0.1852
  488MOL0     C64306   9.776   6.058   6.107 -0.3448 -0.3561  0.7710
  488MOL0     C64307   9.769   6.094   6.254  0.6745  0.0526  0.1869
  488MOL0     O64308   9.860   6.027   6.327 -0.6834  0.8645 -0.9775
  488MOL0     C64309   9.880   6.066   6.458  0.5759  0.3695 -0.9819
  488MOL0     C64310   9.964   5.985   6.535 -0.6368  0.5322  0.5157
  488MOL0     C64311   9.987   6.022   6.669 -0.3200 -0.1455 -0.5963
  488MOL0     C64312   9.921   6.129   6.728 -0.6549 -0.3779 -2.0160
  488MOL0     C64313   9.943   6.169   6.879 -0.5537 -0.8629 -0.2850
  488MOL0     O64314  10.040   6.104   6.962  0.9453 -0.2581  0.6719
  488MOL0     C64315  10.074   6.168   7.082  0.2814  0.0062 -0.3242
  488MOL0     C64316  10.206   6.180   7.106  0.3405  0.3604  0.1886
  488MOL0     C64317  10.256   6.218   7.229 -0.1991  0.7994  0.2826
  488MOL0     C64318  10.165   6.254   7.335  0.3986  0.2906 -0.7613
  488MOL0     O64319  10.203   6.287   7.465  0.1389  0.8981 -0.4447
  488MOL0     C64320  10.344   6.314   7.496  0.1638 -0.2596 -0.6057
  488MOL0     C64321  10.414   6.428   7.418 -0.4316  0.1878 -0.5436
  488MOL0     C64322  10.546   6.466   7.483 -0.3443  0.4600 -0.3926
  488MOL0     C64323  10.591   6.583   7.417  0.6950  0.0917 -0.0381
  488MOL0     C64324  10.731   6.609   7.446 -0.0621 -0.1537 -0.4153
  488MOL0     C64325  10.775   6.738   7.371  0.3557 -0.0578  0.1115
  488MOL0     C64326  10.926   6.750   7.382  0.0783 -0.3244 -1.3300
  488MOL0     C64327  10.977   6.874   7.327  0.0901 -0.4767  0.3855
  488MOL0    Cl64328  11.152   6.876   7.354  0.3076 -0.3984  0.1286
  488MOL0     C64329  10.024   6.264   7.300 -0.3239  0.8235 -0.6855
  488MOL0     C64330   9.979   6.211   7.173 -0.8391  0.2714  0.3067
  488MOL0     O64331   9.866   6.252   6.915  0.5637  0.6911  0.3151
  488MOL0     C64332   9.839   6.209   6.653  0.5351 -0.0443 -0.3046
  488MOL0     C64333   9.818   6.178   6.517 -0.1453 -0.7199  0.8401
  488MOL0     N64334   9.534   6.326   5.824  0.8411  0.1498 -0.2599
  488MOL0     N64335   9.509   6.384   5.716  1.2256  0.7558 -0.5874
  488MOL0     C64336   9.808   6.080   4.756 -0.1274  0.0928  0.2892
  488MOL0     C64337   9.865   5.951   4.758 -0.2945 -0.6253  0.6459
  488MOL0     C64338  10.182   5.629   4.740  0.3322  0.3987 -0.0032
  488MOL0     C64339  10.279   5.563   4.656  0.6359 -0.7364  0.2734
  488MOL0     C64340  10.309   5.431   4.685 -0.9391 -0.0314  0.1401
  488MOL0     C64341  10.245   5.362   4.788  1.4422  0.5043 -0.0387
  488MOL0     O64342  10.261   5.226   4.802  0.1166  0.3648  0.5138
  488MOL0     C64343  10.314   5.146   4.694 -0.7306 -0.0498 -0.1991
  488MOL0     C64344  10.472   5.127   4.723  0.3378  0.6273  0.6289
  488MOL0     C64345  10.513   4.984   4.769  0.1558 -0.4629 -1.0359
  488MOL0     C64346  10.558   4.879   4.679 -0.4864  0.6294  0.5081
  488MOL0     C64347  10.476   4.861   4.554  0.0588  0.9130  0.6269
  488MOL0     C64348  10.405   4.860   4.463 -0.3903 -0.6441 -0.1038
  488MOL0     C64349  10.156   5.428   4.870 -0.3697  0.6268 -0.4462
  488MOL0     C64350  10.119   5.555   4.841 -0.4684  0.0509 -0.2492
  488MOL0     H64351  10.171   6.056   4.873 -0.4326  2.6842  1.5021
  488MOL0     H64352  10.067   6.274   4.840 -0.1032 -0.0688  0.8070
  488MOL0     H64353   9.639   6.266   4.824  1.7139  0.0754  1.2650
  488MOL0     H64354   9.659   6.356   4.665  0.4262 -0.2476 -0.6112
  488MOL0     H64355   9.560   6.529   4.777  0.7830  1.4827 -0.7538
  488MOL0     H64356   9.726   6.550   4.836 -0.1185 -1.4424  1.3523
  488MOL0     H64357   9.700   6.403   5.017 -1.2675 -0.4878 -0.3825
  488MOL0     H64358   9.531   6.377   4.967 -1.0656  0.2989 -0.7003
  488MOL0     H64359   9.661   6.637   5.065  0.2212 -0.0120  0.2556
  488MOL0     H64360   9.495   6.622   5.008 -2.1946 -0.3841  1.4625
  488MOL0     H64361   9.429   6.506   5.216 -0.4104  0.8711 -0.0086
  488MOL0     H64362   9.551   6.614   5.275  1.4850 -0.8707 -0.6093
  488MOL0     H64363   9.726   6.448   5.265  0.8032 -1.5153  1.1081
  488MOL0     H64364   9.593   6.320   5.227 -2.3828  1.1150  0.8013
  488MOL0     H64365   9.489   6.361   5.422 -0.7482 -0.6610 -1.6236
  488MOL0     H64366   9.653   6.278   5.410  0.7253  0.9130 -1.6202
  488MOL0     H64367   9.586   6.548   5.517 -2.9192 -1.3993  1.6215
  488MOL0     H64368   9.753   6.477   5.499 -0.2446  1.6088  1.2340
  488MOL0     H64369   9.838   6.384   5.721 -0.3284  2.8942 -1.6218
  488MOL0     H64370   9.732   6.330   6.028 -0.1088  0.6913 -1.6137
  488MOL0     H64371   9.853   6.236   5.925 -0.6564 -1.1606  0.3656
  488MOL0     H64372   9.651   6.076   5.931  2.6683 -1.8530  0.4297
  488MOL0     H64373   9.586   6.162   6.063 -1.6181  0.2109 -3.0293
  488MOL0     H64374   9.755   5.951   6.106 -1.3498 -0.1762  1.6345
  488MOL0     H64375   9.878   6.071   6.069 -1.6137 -1.8650 -3.9200
  488MOL0     H64376   9.664   6.080   6.279  0.3452 -1.7033 -1.8932
  488MOL0     H64377   9.798   6.200   6.251 -1.9931  0.8233 -1.3371
  488MOL0     H64378  10.013   5.891   6.512 -3.5264 -1.1889  0.9866
  488MOL0     H64379  10.051   5.959   6.730 -1.3306  2.1518  3.1819
  488MOL0     H64380  10.272   6.145   7.028 -0.2428 -2.9302  1.0092
  488MOL0     H64381  10.362   6.201   7.244 -0.8709 -4.6178  1.0312
  488MOL0     H64382  10.410   6.227   7.495  1.3363  0.5793 -2.5588
  488MOL0     H64383  10.342   6.352   7.599  0.3730 -4.9093  1.3787
  488MOL0     H64384  10.351   6.517   7.429 -2.2135 -1.2304  1.5235
  488MOL0     H64385  10.436   6.397   7.316  0.4229  1.8065 -0.8957
  488MOL0     H64386  10.603   6.374   7.468 -1.7177 -0.0247 -3.6476
  488MOL0     H64387  10.531   6.483   7.590 -0.2816 -1.9535  0.0584
  488MOL0     H64388  10.577   6.563   7.311 -2.8234  0.3926  0.2345
  488MOL0     H64389  10.532   6.670   7.446 -1.0175 -0.3082 -2.0405
  488MOL0     H64390  10.786   6.520   7.413 -2.2582 -0.9286 -2.2750
  488MOL0     H64391  10.752   6.620   7.553 -0.3301  0.0401 -0.3822
  488MOL0     H64392  10.716   6.820   7.413 -0.6543 -1.4303  1.4258
  488MOL0     H64393  10.751   6.722   7.266  0.8151 -2.4417  0.3173
  488MOL0     H64394  10.957   6.756   7.487 -1.8059 -1.4378 -0.6676
  488MOL0     H64395  10.968   6.656   7.344 -0.7558 -1.8802  1.2939
  488MOL0     H64396  10.925   6.956   7.378 -1.7933 -0.5198 -1.3412
  488MOL0     H64397  10.964   6.876   7.218  2.3731 -2.7251 -0.0192
  488MOL0     H64398   9.949   6.288   7.376  2.0970  0.8836  1.8330
  488MOL0     H64399   9.872   6.192   7.167 -0.6810 -0.6604  0.3600
  488MOL0     H64400   9.792   6.297   6.694  2.8273  1.3057 -0.3928
  488MOL0     H64401   9.760   6.253   6.466 -0.6639 -1.4914  0.2759
  488MOL0     H64402   9.708   6.105   4.723  0.3458  1.7515 -0.0194
  488MOL0     H64403   9.812   5.865   4.717 -0.5803  0.5817 -1.6696
  488MOL0     H64404  10.318   5.618   4.571 -0.8416  0.7673  0.5227
  488MOL0     H64405  10.383   5.380   4.623 -3.5139 -1.0000 -2.3890
  488MOL0     H64406  10.305   5.189   4.594  2.0733  0.8651 -0.1470
  488MOL0     H64407  10.269   5.046   4.705 -1.3727  0.2826  0.2195
  488MOL0     H64408  10.529   5.150   4.633  1.2616 -1.3660  0.6626
  488MOL0     H64409  10.485   5.207   4.797  1.4301  1.4020 -0.3549
  488MOL0     H64410  10.430   4.943   4.827  1.2678  0.2946  1.2197
  488MOL0     H64411  10.587   5.008   4.846 -2.8331  0.6915  1.7267
  488MOL0     H64412  10.661   4.900   4.647  0.3348 -1.1479  1.7836
  488MOL0     H64413  10.552   4.791   4.744 -3.9360  0.0723 -0.3444
  488MOL0     H64414  10.329   4.850   4.388 -1.9336  2.2657  0.9128
  488MOL0     H64415  10.097   5.373   4.942 -0.8460  0.3150 -1.0618
  488MOL0     H64416  10.032   5.596   4.892 -2.3695 -1.9935 -1.6417
  489MOL0     O64417   4.201   8.877   9.780  0.5270 -0.4110 -0.7970
  489MOL0     C64418   4.309   8.836   9.823  0.0703  0.5070 -0.2747
  489MOL0     O64419   4.380   8.874   9.937  0.1398  0.2421 -0.0478
  489MOL0     C64420   4.325   8.970  10.023  0.3905  0.0284  0.2709
  489MOL0     C64421   4.187   8.947  10.059  0.0527 -0.6777 -0.1728
  489MOL0     C64422   4.132   9.030  10.159 -0.2719  0.2023  0.2342
  489MOL0     C64423   4.207   9.135  10.220 -0.2988  0.0788  0.2074
  489MOL0     O64424   4.161   9.231  10.309 -0.5643 -0.7642 -0.2985
  489MOL0     C64425   4.019   9.214  10.343 -0.0361  0.2126  0.0807
  489MOL0     C64426   3.993   9.327  10.447 -1.1197 -0.4557  0.6710
  489MOL0     C64427   3.857   9.345  10.509 -0.1790 -0.4697  1.0302
  489MOL0     C64428   3.800   9.210  10.562 -0.7435  0.1170 -0.1815
  489MOL0     C64429   3.672   9.222  10.649  0.9075  1.2309 -0.2204
  489MOL0     C64430   3.674   9.346  10.735 -0.1298 -0.4576  0.4092
  489MOL0     C64431   3.563   9.339  10.846 -0.3678 -0.0426  0.3014
  489MOL0     C64432   3.553   9.474  10.910  0.0479  0.0631 -0.7514
  489MOL0     N64433   3.465   9.457  11.028 -0.4901 -0.2513 -0.6737
  489MOL0     C64434   3.328   9.467  11.025  0.0096 -0.3201  0.3264
  489MOL0     C64435   3.289   9.443  11.157  0.3684 -0.9067  0.0278
  489MOL0     C64436   3.148   9.454  11.219 -0.2018 -1.0073  0.2754
  489MOL0     C64437   3.124   9.599  11.278 -0.9023 -0.4843  0.2631
  489MOL0     C64438   3.017   9.591  11.389 -0.1409  0.1630 -0.0831
  489MOL0     C64439   2.988   9.728  11.459 -1.7827 -1.1367  0.8343
  489MOL0     O64440   2.877   9.734  11.548  0.0143  0.9792 -0.4065
  489MOL0     C64441   2.797   9.846  11.539 -0.0596  0.2651  0.1807
  489MOL0     C64442   2.852   9.971  11.576 -0.2402  0.6144  0.1311
  489MOL0     C64443   2.762  10.070  11.596  0.3272 -0.1292  0.3631
  489MOL0     C64444   2.622  10.057  11.587  0.6196  0.0186 -0.6045
  489MOL0     C64445   2.529  10.160  11.610  0.2563  0.1819  0.4880
  489MOL0     O64446   2.440  10.173  11.505  0.0752  0.3990 -0.3519
  489MOL0     C64447   2.348  10.275  11.490  0.4855  0.1688 -1.0624
  489MOL0     C64448   2.259  10.263  11.387  0.1096  0.6100  0.0567
  489MOL0     C64449   2.175  10.365  11.346  0.0065  0.0453  0.5908
  489MOL0     C64450   2.175  10.490  11.418 -0.3650 -0.4968 -0.3291
  489MOL0     O64451   2.074  10.569  11.385 -0.0497 -0.1363  0.0485
  489MOL0     C64452   2.086  10.709  11.416 -0.2463  0.0503  0.1523
  489MOL0     C64453   1.989  10.777  11.315  0.1895  0.1463  0.4775
  489MOL0     C64454   1.853  10.798  11.375  0.1342  0.2025  0.0549
  489MOL0     C64455   1.761  10.879  11.275  0.0427 -0.5426 -0.3825
  489MOL0     C64456   1.614  10.880  11.324  0.1830 -0.6673 -0.0226
  489MOL0     C64457   1.517  10.922  11.204  0.4086  0.2850  0.5926
  489MOL0     C64458   1.503  11.071  11.207 -0.8597  0.1929 -0.9025
  489MOL0     C64459   1.382  11.128  11.141  0.1091  0.2128 -0.1860
  489MOL0    Cl64460   1.223  11.082  11.216  0.5349 -0.4304  0.2315
  489MOL0     C64461   2.261  10.511  11.527 -0.1915 -0.1752  0.1012
  489MOL0     C64462   2.360  10.404  11.556  0.1906 -0.2199  1.3645
  489MOL0     O64463   2.543  10.235  11.705 -0.4200  0.5614 -0.3216
  489MOL0     C64464   2.578   9.932  11.553 -0.0524 -0.4802  0.2776
  489MOL0     C64465   2.665   9.828  11.543 -0.1292 -0.2345  0.3612
  489MOL0     N64466   3.404   9.409  11.228  0.4970  0.5705  0.2056
  489MOL0     N64467   3.507   9.420  11.156 -0.0547 -0.2522  0.5658
  489MOL0     C64468   4.342   9.141  10.186  0.2142  0.1840  0.6436
  489MOL0     C64469   4.402   9.063  10.090 -0.8006 -0.8920  0.0033
  489MOL0     C64470   4.384   8.747   9.731 -0.1281 -0.1090 -0.7429
  489MOL0     C64471   4.317   8.681   9.628 -0.1762  0.4348 -0.1012
  489MOL0     C64472   4.393   8.605   9.539 -0.0584 -0.1375  0.2418
  489MOL0     C64473   4.534   8.604   9.538  0.3592  0.0932  0.5402
  489MOL0     O64474   4.592   8.516   9.446  0.6299 -0.1892  0.5680
  489MOL0     C64475   4.731   8.487   9.476  0.3889 -0.1621  0.3039
  489MOL0     C64476   4.799   8.425   9.362 -0.3023 -0.2580  0.5133
  489MOL0     C64477   4.822   8.515   9.241 -0.6277  0.2612  0.7570
  489MOL0     C64478   4.891   8.433   9.136  0.1925  0.3827  1.0090
  489MOL0     C64479   4.899   8.509   9.012 -0.5846  1.1301 -0.9124
  489MOL0     C64480   4.893   8.548   8.901 -0.3075 -0.3920 -0.0469
  489MOL0     C64481   4.605   8.681   9.635 -0.3290  0.2080 -0.0938
  489MOL0     C64482   4.524   8.744   9.735 -0.5258 -0.2883  0.7702
  489MOL0     H64483   4.123   8.867  10.025  1.6964 -1.7106 -0.9892
  489MOL0     H64484   4.030   9.012  10.191  0.0563  0.9570  1.8317
  489MOL0     H64485   3.991   9.120  10.391 -2.4291 -1.3897 -3.9966
  489MOL0     H64486   3.948   9.232  10.262  0.0711 -0.8925 -0.2692
  489MOL0     H64487   4.018   9.424  10.402  1.8188 -0.0389  2.8880
  489MOL0     H64488   4.061   9.311  10.530 -3.1775  3.3181  3.3919
  489MOL0     H64489   3.783   9.389  10.440  3.9486  2.3639 -2.1042
  489MOL0     H64490   3.877   9.422  10.583  4.6072  0.3078 -0.7359
  489MOL0     H64491   3.773   9.156  10.471  2.0643 -1.9195  0.0580
  489MOL0     H64492   3.882   9.171  10.622 -0.5153  1.7646  0.6407
  489MOL0     H64493   3.656   9.131  10.707  0.8435  2.1703  1.2644
  489MOL0     H64494   3.586   9.231  10.582 -0.6194  1.5215  1.6898
  489MOL0     H64495   3.647   9.425  10.665 -0.5092 -0.8140  0.1489
  489MOL0     H64496   3.770   9.367  10.785  0.8284 -1.8678 -0.7283
  489MOL0     H64497   3.469   9.315  10.795  0.5667 -1.7539 -0.7066
  489MOL0     H64498   3.589   9.264  10.921 -1.5005 -0.1689  0.5822
  489MOL0     H64499   3.511   9.543  10.836 -1.8223 -3.2316 -3.0519
  489MOL0     H64500   3.647   9.514  10.949 -0.2524 -0.2369  0.2979
  489MOL0     H64501   3.257   9.485  10.945 -0.0578 -1.0938  0.2040
  489MOL0     H64502   3.153   9.391  11.309  0.6539  0.9956  1.6846
  489MOL0     H64503   3.060   9.425  11.160 -1.5950  3.0184  0.0998
  489MOL0     H64504   3.089   9.653  11.189 -0.3263  1.1352  0.9768
  489MOL0     H64505   3.213   9.639  11.329  0.5053 -1.2137 -1.4869
  489MOL0     H64506   2.925   9.546  11.350  0.4951 -0.7532 -0.5871
  489MOL0     H64507   3.051   9.530  11.474 -1.7921 -0.1958  0.3502
  489MOL0     H64508   2.993   9.820  11.401  0.1651 -0.2549  2.2894
  489MOL0     H64509   3.077   9.733  11.521 -3.0247 -0.1014  2.6272
  489MOL0     H64510   2.959   9.983  11.590 -0.5964  2.8657  1.3169
  489MOL0     H64511   2.798  10.170  11.618 -0.6199  0.1870  0.5197
  489MOL0     H64512   2.242  10.175  11.325 -0.1537  1.9609 -1.8673
  489MOL0     H64513   2.099  10.354  11.269  2.2743 -0.3652 -1.7210
  489MOL0     H64514   2.184  10.753  11.393  0.1725 -0.2386  1.3252
  489MOL0     H64515   2.051  10.723  11.519  0.4543 -0.3440  0.4544
  489MOL0     H64516   1.973  10.716  11.226 -1.5166 -1.6335  1.9166
  489MOL0     H64517   2.029  10.875  11.286  2.8293 -0.9120  0.2362
  489MOL0     H64518   1.850  10.852  11.470 -1.1272 -1.4805  1.0444
  489MOL0     H64519   1.805  10.703  11.402  0.8078  0.1229  1.0138
  489MOL0     H64520   1.803  10.979  11.256 -0.2136 -0.2353  0.5915
  489MOL0     H64521   1.761  10.817  11.185 -1.0840  0.3360 -1.0226
  489MOL0     H64522   1.595  10.948  11.407  1.0770  1.0227 -1.1219
  489MOL0     H64523   1.593  10.782  11.366  0.7009 -0.3597  0.9798
  489MOL0     H64524   1.420  10.879  11.230 -0.5809 -0.0057 -2.9603
  489MOL0     H64525   1.540  10.891  11.101 -2.1134 -0.1401  0.0891
  489MOL0     H64526   1.506  11.111  11.308 -0.0323  1.2586 -1.3217
  489MOL0     H64527   1.584  11.109  11.143 -1.3287  1.2698 -0.8664
  489MOL0     H64528   1.376  11.068  11.049  2.5607 -1.2017  0.4723
  489MOL0     H64529   1.386  11.237  11.127  0.2710  0.5225  2.0000
  489MOL0     H64530   2.274  10.592  11.599 -1.9464  0.1842  0.0615
  489MOL0     H64531   2.431  10.429  11.634 -1.3823  3.4542  1.8031
  489MOL0     H64532   2.472   9.913  11.543 -0.1447  0.1543 -0.0075
  489MOL0     H64533   2.630   9.726  11.543 -2.3816  0.4690  1.1925
  489MOL0     H64534   4.393   9.219  10.243 -1.9756  1.1218  1.4233
  489MOL0     H64535   4.502   9.086  10.056 -1.0719  1.1291  0.4233
  489MOL0     H64536   4.209   8.681   9.620 -0.1177  1.1816 -1.1677
  489MOL0     H64537   4.354   8.532   9.469 -1.6559  2.4607 -1.7546
  489MOL0     H64538   4.749   8.426   9.565  4.0890  0.5518  0.2154
  489MOL0     H64539   4.790   8.577   9.498  2.5707 -1.4841  0.1298
  489MOL0     H64540   4.898   8.391   9.396  0.5554  0.4545 -1.1731
  489MOL0     H64541   4.742   8.336   9.334 -0.6802 -0.4559  1.8388
  489MOL0     H64542   4.877   8.608   9.256  1.8411  0.1381 -4.9696
  489MOL0     H64543   4.723   8.542   9.200 -0.1694 -0.2623 -0.7529
  489MOL0     H64544   4.993   8.404   9.161  0.6340 -1.6314 -2.4970
  489MOL0     H64545   4.837   8.338   9.131  1.4798 -0.5699  3.5730
  489MOL0     H64546   4.888   8.588   8.801 -1.6754 -4.4085 -1.8089
  489MOL0     H64547   4.714   8.680   9.640 -0.3893 -1.0980  2.1849
  489MOL0     H64548   4.572   8.812   9.805 -1.1349  3.8826 -2.4794
  490MOL0     O64549  10.491   4.963   7.575  0.2864  0.4642 -0.2084
  490MOL0     C64550  10.517   4.888   7.481 -0.6249 -0.2444  0.9286
  490MOL0     O64551  10.442   4.775   7.439 -0.5537  0.4419 -0.5333
  490MOL0     C64552  10.337   4.733   7.518 -0.3487  0.9968 -0.1623
  490MOL0     C64553  10.209   4.731   7.463  0.4966 -0.4990  0.0116
  490MOL0     C64554  10.088   4.690   7.540  0.3227 -0.0672  0.3569
  490MOL0     C64555  10.106   4.657   7.678 -0.5263  0.7429  0.3119
  490MOL0     O64556  10.001   4.602   7.755  0.3714  0.2195  0.5379
  490MOL0     C64557   9.862   4.611   7.723 -0.5007  0.1498 -0.4596
  490MOL0     C64558   9.794   4.568   7.852 -0.5364  0.0460  0.8006
  490MOL0     C64559   9.728   4.689   7.922 -0.0284  0.4967  0.4240
  490MOL0     C64560   9.834   4.780   7.973  0.3768 -0.6887  0.3617
  490MOL0     C64561   9.787   4.904   8.057  0.0056 -0.0122  0.2194
  490MOL0     C64562   9.867   5.029   8.032 -0.8275 -0.0994  0.0104
  490MOL0     C64563   9.804   5.147   8.107  0.6383 -0.0153 -0.1767
  490MOL0     C64564   9.772   5.121   8.256 -0.0352 -0.4005 -0.7118
  490MOL0     N64565   9.629   5.098   8.274 -0.3738 -1.1674 -0.7670
  490MOL0     C64566   9.551   5.204   8.327  0.5100  0.7602 -0.5531
  490MOL0     C64567   9.434   5.131   8.361  0.9807 -0.1177  0.0155
  490MOL0     C64568   9.324   5.193   8.428  0.7538  0.1765 -0.6856
  490MOL0     C64569   9.199   5.122   8.477 -0.5513  0.0968  0.0398
  490MOL0     C64570   9.120   5.040   8.379 -0.1267  0.3680 -1.3148
  490MOL0     C64571   8.976   5.026   8.429 -0.3910 -0.7472  1.0782
  490MOL0     O64572   8.907   5.146   8.434 -0.3020  0.0524 -0.2850
  490MOL0     C64573   8.772   5.126   8.456 -0.0561  0.5183 -0.3276
  490MOL0     C64574   8.689   5.100   8.353  0.2979  0.9896  0.6590
  490MOL0     C64575   8.548   5.111   8.366  0.8517 -0.1040  0.1386
  490MOL0     C64576   8.487   5.129   8.484  0.8732  0.0040  0.6283
  490MOL0     C64577   8.340   5.149   8.493  1.3580  0.7186 -0.2375
  490MOL0     O64578   8.261   5.179   8.379 -0.7550 -0.2894 -0.6360
  490MOL0     C64579   8.129   5.217   8.401  0.2943  1.3894 -0.4732
  490MOL0     C64580   8.038   5.152   8.314 -0.8154  0.2612 -0.0113
  490MOL0     C64581   7.902   5.172   8.318  1.0579 -0.1636 -1.1373
  490MOL0     C64582   7.857   5.268   8.405  0.0084 -0.7803  0.2808
  490MOL0     O64583   7.729   5.285   8.383 -0.0561  0.2388 -0.6052
  490MOL0     C64584   7.676   5.418   8.396  0.6107 -0.2597 -0.4267
  490MOL0     C64585   7.731   5.539   8.305  0.9341  0.0844  0.6366
  490MOL0     C64586   7.783   5.494   8.168  0.3878 -0.0841 -0.2169
  490MOL0     C64587   7.839   5.608   8.088  0.2371  0.0290  0.2150
  490MOL0     C64588   7.740   5.702   8.016  0.2678 -0.3254  0.8624
  490MOL0     C64589   7.635   5.639   7.931  0.8633  0.7104  0.1802
  490MOL0     C64590   7.568   5.749   7.851  0.8122 -0.1815  0.1887
  490MOL0     C64591   7.491   5.701   7.732 -0.0531  0.7415  0.0573
  490MOL0    Cl64592   7.587   5.591   7.623  0.5576 -0.3743  0.3054
  490MOL0     C64593   7.941   5.324   8.502 -0.5144 -0.0883  0.4136
  490MOL0     C64594   8.079   5.307   8.492 -0.5134  0.1315  0.5450
  490MOL0     O64595   8.295   5.117   8.606  0.6615  0.6374 -0.9300
  490MOL0     C64596   8.572   5.127   8.590 -0.0338  0.5122 -0.8929
  490MOL0     C64597   8.713   5.130   8.575  0.0590  0.0918  0.3177
  490MOL0     N64598   9.453   4.991   8.339 -0.5603  0.2792  0.3881
  490MOL0     N64599   9.567   4.981   8.286 -0.9584 -0.4533  0.5061
  490MOL0     C64600  10.235   4.657   7.722  0.5872 -0.2083  0.8759
  490MOL0     C64601  10.343   4.701   7.654  0.2457 -0.0084 -0.0160
  490MOL0     C64602  10.656   4.892   7.419  0.6129 -0.6586 -0.6769
  490MOL0     C64603  10.700   4.794   7.335  0.5873 -0.1471 -0.0435
  490MOL0     C64604  10.831   4.793   7.283 -0.5031 -0.0931 -0.6322
  490MOL0     C64605  10.927   4.897   7.323 -0.1421  1.0695  0.7366
  490MOL0     O64606  11.052   4.921   7.258  0.0550 -0.5598  0.1021
  490MOL0     C64607  11.088   4.843   7.144 -0.4331  0.4012 -0.3219
  490MOL0     C64608  10.991   4.860   7.028 -0.8045  0.4528  0.3014
  490MOL0     C64609  11.050   4.791   6.907 -0.0699  0.1192  0.0191
  490MOL0     C64610  11.069   4.637   6.930 -0.9612  0.2558  0.6146
  490MOL0     C64611  11.108   4.590   6.799 -0.4521  0.5570 -0.3555
  490MOL0     C64612  11.138   4.585   6.685  0.1749  0.2525 -0.1461
  490MOL0     C64613  10.880   4.999   7.405  0.3775 -0.2939  0.1479
  490MOL0     C64614  10.749   4.994   7.455  0.7449  0.3292  0.4349
  490MOL0     H64615  10.211   4.765   7.360 -0.7448  3.3855  1.1074
  490MOL0     H64616   9.988   4.685   7.499  0.1861  1.0800  0.5106
  490MOL0     H64617   9.839   4.536   7.647 -2.1078  0.2083 -0.0661
  490MOL0     H64618   9.832   4.708   7.682 -0.1806 -0.5553 -2.4845
  490MOL0     H64619   9.874   4.529   7.916 -0.6438  0.4837  1.2042
  490MOL0     H64620   9.720   4.491   7.829 -1.0617  1.0751 -1.1854
  490MOL0     H64621   9.680   4.652   8.013  1.6287  2.3538  2.1624
  490MOL0     H64622   9.666   4.741   7.848  0.4367  4.1020  2.3069
  490MOL0     H64623   9.910   4.720   8.022 -1.4769 -1.5074  2.4232
  490MOL0     H64624   9.890   4.828   7.892  1.2114 -0.3120  1.1549
  490MOL0     H64625   9.779   4.876   8.163  1.9490 -0.0113  0.3963
  490MOL0     H64626   9.684   4.931   8.030 -0.2605  0.0965  1.2761
  490MOL0     H64627   9.879   5.048   7.925 -0.4857  0.8058  0.2048
  490MOL0     H64628   9.967   5.007   8.071 -0.9499 -3.2061 -1.1767
  490MOL0     H64629   9.885   5.221   8.107  0.3836  0.2715 -0.6740
  490MOL0     H64630   9.717   5.187   8.054 -0.9307 -1.3646  1.2647
  490MOL0     H64631   9.808   5.202   8.319  1.8235 -1.4605 -0.3139
  490MOL0     H64632   9.824   5.029   8.285  0.9723 -0.2396 -1.9066
  490MOL0     H64633   9.573   5.309   8.341 -1.5262  1.4593 -2.0513
  490MOL0     H64634   9.284   5.270   8.361  0.2146  1.3106  0.8598
  490MOL0     H64635   9.350   5.251   8.518 -3.1486 -0.5789  1.1696
  490MOL0     H64636   9.132   5.199   8.516  1.3884  0.8864  2.0619
  490MOL0     H64637   9.223   5.062   8.566 -2.9059  3.4150  3.2357
  490MOL0     H64638   9.119   5.093   8.283 -1.0666  0.4133 -1.2943
  490MOL0     H64639   9.169   4.942   8.376  2.8162  1.6790 -0.1327
  490MOL0     H64640   8.968   4.985   8.530  2.2041  0.8592  2.0616
  490MOL0     H64641   8.928   4.957   8.360  1.5667 -0.6822 -0.4474
  490MOL0     H64642   8.728   5.100   8.252 -0.6916 -1.8435  0.2115
  490MOL0     H64643   8.501   5.115   8.268  2.4474  2.6896 -0.6261
  490MOL0     H64644   8.065   5.071   8.247 -1.0383  0.3552 -0.2172
  490MOL0     H64645   7.840   5.119   8.247 -0.8356 -1.6042  1.4051
  490MOL0     H64646   7.668   5.459   8.497 -0.0390  0.6431 -0.8272
  490MOL0     H64647   7.570   5.400   8.375  1.0062 -0.9450 -1.9417
  490MOL0     H64648   7.812   5.587   8.362 -0.0008  1.3150  0.9741
  490MOL0     H64649   7.651   5.612   8.294  0.0900 -1.1194 -2.3898
  490MOL0     H64650   7.703   5.443   8.114 -0.0909 -2.3860  2.4552
  490MOL0     H64651   7.874   5.438   8.192  1.0686  1.1177  0.1397
  490MOL0     H64652   7.886   5.679   8.157 -3.2449  1.5121  1.2809
  490MOL0     H64653   7.907   5.566   8.013  0.1527  2.5506 -1.4262
  490MOL0     H64654   7.798   5.769   7.951  0.3473  1.8620  3.0395
  490MOL0     H64655   7.700   5.766   8.095  0.0584 -0.3993  0.8158
  490MOL0     H64656   7.562   5.585   7.992 -0.0556 -0.3000 -1.7292
  490MOL0     H64657   7.667   5.571   7.851 -0.8043  0.8342 -0.6245
  490MOL0     H64658   7.496   5.804   7.912 -1.4135 -1.7284 -0.8954
  490MOL0     H64659   7.637   5.826   7.817  0.0796 -0.1878 -1.4113
  490MOL0     H64660   7.451   5.782   7.670 -3.8071  1.0326  2.5302
  490MOL0     H64661   7.407   5.640   7.766 -0.2832  1.5481  0.9705
  490MOL0     H64662   7.905   5.385   8.584 -0.4645  0.0702  0.3191
  490MOL0     H64663   8.143   5.363   8.559  2.4744 -3.8801  1.4335
  490MOL0     H64664   8.540   5.121   8.693  1.5077 -0.0538 -0.4139
  490MOL0     H64665   8.780   5.146   8.659 -1.0405 -1.2542  1.5073
  490MOL0     H64666  10.254   4.623   7.823  1.9480  0.2860  0.8103
  490MOL0     H64667  10.439   4.699   7.704 -1.2564 -0.4699  3.0695
  490MOL0     H64668  10.639   4.706   7.318  2.6346 -1.3948 -1.4759
  490MOL0     H64669  10.880   4.725   7.214  3.1922  0.2806  1.3668
  490MOL0     H64670  11.097   4.738   7.174 -0.5554  1.4188  3.9405
  490MOL0     H64671  11.192   4.869   7.122  0.1028  1.7958  3.1540
  490MOL0     H64672  10.887   4.831   7.047 -0.8543 -1.6725 -2.5192
  490MOL0     H64673  10.996   4.966   7.001 -0.6012  0.9286  2.0786
  490MOL0     H64674  11.144   4.838   6.879  1.0098 -1.8884  0.0660
  490MOL0     H64675  10.976   4.809   6.828 -0.3407 -0.8214  0.0355
  490MOL0     H64676  11.145   4.601   7.000 -0.5608 -0.1548 -0.0248
  490MOL0     H64677  10.970   4.595   6.953 -2.0301  0.1205 -3.4037
  490MOL0     H64678  11.172   4.562   6.586 -2.1012 -3.8427 -0.1636
  490MOL0     H64679  10.953   5.072   7.437  4.7004 -3.1059 -2.2012
  490MOL0     H64680  10.721   5.060   7.537  3.4218  2.8780 -0.5170
  491MOL0     O64681   9.640   0.890   9.789 -0.0503  0.4653 -0.7232
  491MOL0     C64682   9.609   0.879   9.905  0.6074  0.5050 -0.4565
  491MOL0     O64683   9.539   0.966   9.976  0.9133  0.0317  0.5845
  491MOL0     C64684   9.476   1.071   9.918  0.4074  0.3136  0.2828
  491MOL0     C64685   9.415   1.071   9.797  0.7051  0.3058  0.3829
  491MOL0     C64686   9.339   1.182   9.748  0.1962  0.6808 -0.3012
  491MOL0     C64687   9.336   1.300   9.829  0.6562 -0.6743  0.9960
  491MOL0     O64688   9.247   1.404   9.792  0.3758 -0.5141 -0.7425
  491MOL0     C64689   9.254   1.532   9.859 -0.1896 -0.3416  0.0163
  491MOL0     C64690   9.146   1.622   9.791 -0.2678  0.0995 -0.0724
  491MOL0     C64691   9.204   1.758   9.754  0.3948  0.0518 -0.1622
  491MOL0     C64692   9.091   1.856   9.735 -0.6129  0.4379  0.1371
  491MOL0     C64693   9.117   1.928   9.601  0.7223  0.1978  0.3360
  491MOL0     C64694   9.020   2.049   9.581  0.2012 -0.4236 -0.1072
  491MOL0     C64695   8.912   2.031   9.471  0.2312 -0.9859  0.1640
  491MOL0     C64696   8.821   2.155   9.473 -0.3328 -0.4450  0.3278
  491MOL0     N64697   8.691   2.154   9.396 -0.5859  0.2784 -1.9165
  491MOL0     C64698   8.671   2.134   9.263 -0.0499  0.2351  0.6755
  491MOL0     C64699   8.534   2.142   9.251  0.8293 -0.1811 -0.1880
  491MOL0     C64700   8.451   2.114   9.128  0.2915  0.0098 -0.1095
  491MOL0     C64701   8.387   1.978   9.124  0.6217  0.0283 -0.5531
  491MOL0     C64702   8.381   1.930   8.982  0.2580  0.8868 -0.1081
  491MOL0     C64703   8.309   1.784   8.972 -1.0275 -0.6161 -0.7815
  491MOL0     O64704   8.173   1.824   8.983  0.8147  0.4577 -0.3045
  491MOL0     C64705   8.071   1.757   8.917 -0.6327  0.6728  0.4437
  491MOL0     C64706   8.082   1.632   8.853 -0.0975 -0.7121 -0.1111
  491MOL0     C64707   7.971   1.581   8.791  0.3500  0.7463 -1.3649
  491MOL0     C64708   7.850   1.640   8.788  0.0505  0.4197  0.3126
  491MOL0     C64709   7.741   1.569   8.717  0.1789 -0.0567 -0.4207
  491MOL0     O64710   7.621   1.630   8.720 -0.1193 -0.4669  0.4877
  491MOL0     C64711   7.512   1.562   8.675  0.4381 -0.0695  0.3006
  491MOL0     C64712   7.402   1.544   8.753 -0.4377  0.2629  0.0086
  491MOL0     C64713   7.275   1.497   8.714 -0.1558 -0.3412  0.9302
  491MOL0     C64714   7.257   1.449   8.579  0.5487 -1.1653 -0.5626
  491MOL0     O64715   7.142   1.385   8.538  0.6830 -0.5447 -0.4498
  491MOL0     C64716   7.020   1.446   8.595 -0.8997  0.2740 -0.0007
  491MOL0     C64717   6.899   1.408   8.506  0.4518  0.0333 -0.3929
  491MOL0     C64718   6.915   1.392   8.353  0.2619  1.0067  0.6486
  491MOL0     C64719   6.980   1.502   8.278 -1.0343 -1.0668  0.1135
  491MOL0     C64720   7.003   1.480   8.132 -1.4186 -0.8492 -0.2839
  491MOL0     C64721   7.085   1.594   8.067  0.5973  0.9760  0.5634
  491MOL0     C64722   7.132   1.565   7.919  0.0615  0.7318 -0.7696
  491MOL0     C64723   7.211   1.695   7.866 -0.4710 -0.4134 -0.5233
  491MOL0    Cl64724   7.178   1.728   7.694  0.1594 -0.0372  0.1271
  491MOL0     C64725   7.372   1.470   8.490  0.1914 -0.2246 -0.6656
  491MOL0     C64726   7.494   1.529   8.539  0.3905 -0.2227  0.7343
  491MOL0     O64727   7.761   1.465   8.660  0.1877  0.6726  0.6193
  491MOL0     C64728   7.834   1.763   8.858  0.9606  0.1030 -0.5482
  491MOL0     C64729   7.944   1.814   8.927  0.7206 -0.2245  0.1861
  491MOL0     N64730   8.482   2.161   9.372  0.1812  0.5745 -0.4674
  491MOL0     N64731   8.573   2.164   9.462  0.1756 -0.0229  0.0994
  491MOL0     C64732   9.399   1.295   9.951 -0.9356  0.2028  0.2115
  491MOL0     C64733   9.476   1.190  10.000  0.2345  0.2644  0.3618
  491MOL0     C64734   9.655   0.765   9.978 -0.9418 -0.2931  0.5727
  491MOL0     C64735   9.644   0.766  10.118 -0.2701 -0.7863  0.7653
  491MOL0     C64736   9.694   0.663  10.191 -0.4502 -0.3492 -0.3538
  491MOL0     C64737   9.758   0.559  10.125 -1.4701 -0.8675  0.5691
  491MOL0     O64738   9.823   0.458  10.183 -0.1865  0.3912 -0.5401
  491MOL0     C64739   9.770   0.395  10.305  0.5594 -0.8372  0.5925
  491MOL0     C64740   9.652   0.293  10.284  0.6487  0.1606  0.4422
  491MOL0     C64741   9.552   0.336  10.168  0.2748  0.1198  0.2790
  491MOL0     C64742   9.444   0.440  10.208  0.8083  0.6355 -0.1091
  491MOL0     C64743   9.329   0.363  10.270  0.6882 -1.1416 -0.1348
  491MOL0     C64744   9.230   0.316  10.319  0.2024  0.3197 -0.2204
  491MOL0     C64745   9.775   0.556   9.988 -0.6907 -0.3521  0.0465
  491MOL0     C64746   9.722   0.660   9.908  0.6945 -0.1902  0.1935
  491MOL0     H64747   9.433   0.988   9.730 -3.9496 -0.1601 -0.6627
  491MOL0     H64748   9.298   1.175   9.648  0.8571  0.6994 -0.5736
  491MOL0     H64749   9.352   1.577   9.843 -0.1005 -0.5084  0.0934
  491MOL0     H64750   9.230   1.518   9.965 -2.2778 -2.7462 -0.6672
  491MOL0     H64751   9.064   1.636   9.862 -0.1348 -1.0993  0.3376
  491MOL0     H64752   9.107   1.569   9.704 -1.5783  1.0805 -0.1092
  491MOL0     H64753   9.275   1.759   9.670 -0.5959  0.7127 -1.0136
  491MOL0     H64754   9.265   1.798   9.836 -1.4203 -2.1495  2.4237
  491MOL0     H64755   8.994   1.805   9.741 -0.9253  0.8541 -1.1090
  491MOL0     H64756   9.090   1.920   9.824 -0.6608 -0.2507  0.6350
  491MOL0     H64757   9.106   1.861   9.515  4.0471 -1.0880  0.7731
  491MOL0     H64758   9.223   1.954   9.596  0.3947  1.4030 -3.0846
  491MOL0     H64759   9.071   2.139   9.546  0.7784  0.1419  2.0373
  491MOL0     H64760   8.969   2.066   9.676 -0.2885 -0.0600 -0.4298
  491MOL0     H64761   8.958   2.030   9.373 -1.1051 -2.2957 -0.4809
  491MOL0     H64762   8.852   1.944   9.500 -0.2277  0.1077  2.8237
  491MOL0     H64763   8.865   2.247   9.433 -3.3180  1.3771  0.8980
  491MOL0     H64764   8.792   2.170   9.577 -0.2122 -2.0424  0.6113
  491MOL0     H64765   8.747   2.118   9.187  0.8400  1.4268  1.2748
  491MOL0     H64766   8.524   2.133   9.048 -0.7953  0.9920 -0.9116
  491MOL0     H64767   8.374   2.192   9.119 -1.1460 -1.4001 -0.5198
  491MOL0     H64768   8.287   1.984   9.167 -0.3440  1.2732 -2.7743
  491MOL0     H64769   8.449   1.907   9.178  0.9182  0.9246  0.3048
  491MOL0     H64770   8.331   2.001   8.916  0.1613  1.8278  0.9601
  491MOL0     H64771   8.482   1.923   8.940  1.0909  1.5947  1.6655
  491MOL0     H64772   8.337   1.715   9.052 -2.7378  2.5312  2.8450
  491MOL0     H64773   8.338   1.741   8.875  4.3238 -1.2222  0.7278
  491MOL0     H64774   8.173   1.572   8.847  0.7701  0.3877  1.3474
  491MOL0     H64775   7.974   1.479   8.755 -1.3516  0.3409 -0.4703
  491MOL0     H64776   7.411   1.579   8.855 -0.7048 -0.1157  0.1628
  491MOL0     H64777   7.194   1.505   8.785 -3.1734  0.7641 -2.3605
  491MOL0     H64778   7.020   1.555   8.591  0.3084  0.2507 -1.9285
  491MOL0     H64779   7.005   1.407   8.696  1.6543 -1.4489 -0.1942
  491MOL0     H64780   6.824   1.487   8.515 -0.8739 -0.9837 -1.8941
  491MOL0     H64781   6.855   1.318   8.552 -0.2205 -1.0557 -2.9982
  491MOL0     H64782   6.818   1.372   8.306  0.2984  0.0417  0.9476
  491MOL0     H64783   6.976   1.302   8.347 -0.3098  0.3625  3.2251
  491MOL0     H64784   6.918   1.591   8.294 -1.7632 -1.8473  1.9024
  491MOL0     H64785   7.074   1.516   8.332 -1.5808 -0.3723  0.9053
  491MOL0     H64786   6.902   1.472   8.090 -1.0720 -1.3765 -1.0378
  491MOL0     H64787   7.051   1.384   8.109 -0.3726  0.1082 -2.4378
  491MOL0     H64788   7.174   1.623   8.124  1.1686 -2.1959  1.4577
  491MOL0     H64789   7.025   1.686   8.064  1.4549  1.5332 -1.1327
  491MOL0     H64790   7.204   1.483   7.915  0.3825  0.9847 -0.3433
  491MOL0     H64791   7.042   1.534   7.866  0.8876  0.4012 -2.0272
  491MOL0     H64792   7.320   1.686   7.873 -0.2944  1.1432 -0.8816
  491MOL0     H64793   7.202   1.782   7.933  0.7133  0.3910 -1.3751
  491MOL0     H64794   7.343   1.438   8.390 -5.6176  1.2654  0.2058
  491MOL0     H64795   7.572   1.550   8.466  0.8253  0.2351  1.3245
  491MOL0     H64796   7.744   1.822   8.875 -1.0540 -2.4018 -1.6462
  491MOL0     H64797   7.932   1.911   8.976 -2.3033 -0.0807 -0.6382
  491MOL0     H64798   9.399   1.375  10.025 -5.1783  1.8221 -1.2567
  491MOL0     H64799   9.517   1.203  10.100 -0.7934 -0.3758  0.8905
  491MOL0     H64800   9.602   0.849  10.173  2.5318  1.2719  0.0560
  491MOL0     H64801   9.676   0.657  10.298  0.7632  0.9402 -0.0568
  491MOL0     H64802   9.745   0.471  10.379  0.1804 -0.7710  0.3984
  491MOL0     H64803   9.855   0.346  10.353  2.0209 -0.6234 -1.5996
  491MOL0     H64804   9.686   0.189  10.274 -1.2341 -0.4055 -0.6090
  491MOL0     H64805   9.575   0.295  10.362 -3.0369 -0.2496 -2.8512
  491MOL0     H64806   9.511   0.241  10.132  2.9505 -0.1246 -2.5049
  491MOL0     H64807   9.609   0.367  10.080  1.7685 -0.3229  1.0610
  491MOL0     H64808   9.494   0.502  10.283 -0.5927  2.8887 -0.9432
  491MOL0     H64809   9.409   0.503  10.126 -1.1022 -0.1760  0.0451
  491MOL0     H64810   9.145   0.261  10.354  2.7516 -2.4067  2.2670
  491MOL0     H64811   9.830   0.484   9.929  2.1169 -0.9610  3.0657
  491MOL0     H64812   9.745   0.670   9.802 -0.7146  3.1452  0.0782
  492MOL0     O64813   4.783   6.635   5.410  0.2964 -0.8323  0.3685
  492MOL0     C64814   4.785   6.516   5.391 -0.3427  0.4731  0.1824
  492MOL0     O64815   4.833   6.420   5.478 -0.2633 -0.0370  0.0244
  492MOL0     C64816   4.936   6.474   5.562  0.7187 -0.7375 -0.5393
  492MOL0     C64817   5.050   6.510   5.503  0.4130  0.1765 -0.9449
  492MOL0     C64818   5.143   6.574   5.580 -0.5895 -0.4776 -0.4819
  492MOL0     C64819   5.122   6.605   5.717  0.3724  0.8968  1.0004
  492MOL0     O64820   5.226   6.656   5.787  0.0790  0.2642 -0.2127
  492MOL0     C64821   5.266   6.585   5.908  0.0887  0.1347 -0.1681
  492MOL0     C64822   5.417   6.558   5.916  0.0069 -0.2274 -0.4200
  492MOL0     C64823   5.458   6.465   6.037 -0.7812 -0.1240 -0.1870
  492MOL0     C64824   5.429   6.528   6.177 -1.4756 -0.2794 -0.2914
  492MOL0     C64825   5.470   6.458   6.314 -0.7556  0.0211 -0.0416
  492MOL0     C64826   5.562   6.538   6.399  0.5067  0.2003 -0.4661
  492MOL0     C64827   5.571   6.488   6.547 -0.5920  1.0200  0.1993
  492MOL0     C64828   5.672   6.572   6.615 -0.5531  0.4260 -0.1039
  492MOL0     N64829   5.604   6.683   6.661  0.2195 -0.3357  0.6590
  492MOL0     C64830   5.508   6.690   6.765 -1.1579 -0.4738  0.5136
  492MOL0     C64831   5.483   6.819   6.784  0.1204  0.5888 -0.7621
  492MOL0     C64832   5.408   6.878   6.902 -0.4551 -0.0940  0.3742
  492MOL0     C64833   5.468   6.836   7.039  0.9235 -0.2126  0.9729
  492MOL0     C64834   5.618   6.890   7.054 -0.4673 -0.1774  0.1237
  492MOL0     C64835   5.690   6.786   7.145 -0.0696 -0.5895 -0.4305
  492MOL0     O64836   5.712   6.671   7.065 -0.0547 -0.2019  0.5615
  492MOL0     C64837   5.797   6.590   7.116 -0.0197  0.4102 -0.3515
  492MOL0     C64838   5.798   6.549   7.255 -0.0700 -0.0700  0.2724
  492MOL0     C64839   5.882   6.442   7.297  0.7617  0.2151 -0.0177
  492MOL0     C64840   5.984   6.393   7.216 -0.0685 -0.4908  0.7873
  492MOL0     C64841   6.087   6.290   7.261  0.1332  0.6257 -0.9095
  492MOL0     O64842   6.080   6.249   7.392  0.0912  0.6180  0.0914
  492MOL0     C64843   6.172   6.162   7.442  0.4812 -0.3302 -0.8021
  492MOL0     C64844   6.203   6.039   7.393  0.2115 -0.2134 -0.0496
  492MOL0     C64845   6.284   5.948   7.459 -0.2970  0.1296  0.1424
  492MOL0     C64846   6.349   5.988   7.580 -0.8177 -0.0327  0.2530
  492MOL0     O64847   6.431   5.912   7.654 -0.6470  0.7347  0.1120
  492MOL0     C64848   6.515   5.814   7.591  0.2512  0.0835  0.6165
  492MOL0     C64849   6.643   5.798   7.674  0.0545 -1.0240  0.2250
  492MOL0     C64850   6.618   5.714   7.801 -0.3457 -0.7084 -0.3577
  492MOL0     C64851   6.762   5.691   7.865 -0.3815  0.3125  0.0391
  492MOL0     C64852   6.770   5.608   7.994 -0.2453 -0.6328 -0.3281
  492MOL0     C64853   6.901   5.625   8.064 -0.1883 -0.6086 -0.5740
  492MOL0     C64854   6.920   5.524   8.174  0.1375  0.8545  0.3235
  492MOL0     C64855   6.989   5.398   8.112 -0.7569 -0.0584  0.3618
  492MOL0    Cl64856   7.170   5.439   8.101  0.0113 -0.3591 -0.6313
  492MOL0     C64857   6.327   6.114   7.631 -0.2129  0.2413 -0.4568
  492MOL0     C64858   6.239   6.201   7.562 -1.0936 -0.5459  1.0131
  492MOL0     O64859   6.173   6.254   7.182 -0.3719  0.8464  0.0297
  492MOL0     C64860   5.959   6.425   7.080 -0.9788 -0.1499  0.4490
  492MOL0     C64861   5.870   6.519   7.035  0.0762  0.2742 -0.3507
  492MOL0     N64862   5.550   6.885   6.683 -0.7245 -0.5560  0.0763
  492MOL0     N64863   5.628   6.807   6.625 -0.1727 -0.1110  0.0772
  492MOL0     C64864   5.003   6.566   5.778 -0.8977  0.1763 -0.5627
  492MOL0     C64865   4.914   6.492   5.701  0.1642 -0.5943 -1.4855
  492MOL0     C64866   4.732   6.473   5.267  0.8342 -0.0423  0.1577
  492MOL0     C64867   4.756   6.348   5.213  0.7785  0.0831  0.4129
  492MOL0     C64868   4.693   6.306   5.096  0.1093  0.1476  0.3214
  492MOL0     C64869   4.613   6.387   5.017  0.0501  0.1549  0.3584
  492MOL0     O64870   4.536   6.356   4.905 -1.1295  0.4144 -0.5223
  492MOL0     C64871   4.604   6.262   4.818  0.7157 -0.3014 -0.2930
  492MOL0     C64872   4.527   6.237   4.683 -0.0921 -0.9217  0.1486
  492MOL0     C64873   4.534   6.358   4.592  0.2003 -0.1664  0.6063
  492MOL0     C64874   4.448   6.479   4.637  0.5983 -0.5507 -0.4976
  492MOL0     C64875   4.463   6.587   4.542 -0.3592  1.0487 -1.3454
  492MOL0     C64876   4.448   6.648   4.442 -0.3483  0.0380 -0.1518
  492MOL0     C64877   4.596   6.521   5.065  0.0319  0.5350  0.5094
  492MOL0     C64878   4.649   6.561   5.191 -0.4637 -0.7086  1.9125
  492MOL0     H64879   5.056   6.484   5.398  0.0159 -1.2006 -0.6551
  492MOL0     H64880   5.231   6.611   5.528 -1.8782  2.0102 -1.0487
  492MOL0     H64881   5.212   6.490   5.906 -3.3435  1.9180 -2.4891
  492MOL0     H64882   5.246   6.643   5.999  1.6731 -1.8955  1.5915
  492MOL0     H64883   5.481   6.647   5.921 -0.3506 -0.0110  0.4623
  492MOL0     H64884   5.444   6.515   5.819 -0.1369 -1.0576 -0.0930
  492MOL0     H64885   5.567   6.462   6.026 -0.4014  0.4154  2.5657
  492MOL0     H64886   5.402   6.372   6.027 -1.5427  0.3710 -0.6407
  492MOL0     H64887   5.476   6.627   6.186 -1.2070 -0.5454  1.6952
  492MOL0     H64888   5.323   6.553   6.174 -1.4347 -0.2307 -2.1799
  492MOL0     H64889   5.529   6.370   6.288  2.2673  2.6158 -2.7543
  492MOL0     H64890   5.381   6.426   6.369  0.0812 -0.1647  1.2364
  492MOL0     H64891   5.516   6.638   6.401 -1.1877 -0.5186 -1.2217
  492MOL0     H64892   5.663   6.540   6.358  0.7491 -0.1125  0.1095
  492MOL0     H64893   5.471   6.498   6.591 -1.7082  1.9409 -2.3915
  492MOL0     H64894   5.607   6.385   6.537  2.8180  2.0902  0.2460
  492MOL0     H64895   5.755   6.600   6.549  0.5269 -0.3001  0.8852
  492MOL0     H64896   5.720   6.523   6.701 -0.2654  2.2111  0.7870
  492MOL0     H64897   5.469   6.608   6.824 -0.8796 -0.5929  0.5336
  492MOL0     H64898   5.309   6.832   6.908 -2.3709  3.3907 -1.3256
  492MOL0     H64899   5.399   6.984   6.877  0.1699 -0.5159 -1.8847
  492MOL0     H64900   5.465   6.727   7.030 -2.5850 -0.0312 -2.2318
  492MOL0     H64901   5.410   6.882   7.119  2.7850  4.7351 -0.1546
  492MOL0     H64902   5.655   6.907   6.952  0.3553 -0.7050  0.3242
  492MOL0     H64903   5.632   6.982   7.111  2.0280 -1.2766  1.4422
  492MOL0     H64904   5.628   6.761   7.232 -0.7875  0.2043 -0.7047
  492MOL0     H64905   5.786   6.828   7.176  0.5513 -0.0917 -2.8315
  492MOL0     H64906   5.732   6.593   7.329 -0.7800 -2.0420  0.8834
  492MOL0     H64907   5.878   6.417   7.402  1.5883  2.2885  0.5735
  492MOL0     H64908   6.149   6.009   7.304  1.6946  1.3409 -1.5456
  492MOL0     H64909   6.317   5.854   7.416  1.8642  1.0940 -0.4016
  492MOL0     H64910   6.546   5.837   7.488 -0.2406 -0.2292  0.3933
  492MOL0     H64911   6.459   5.720   7.580  0.3806  0.1157 -0.5033
  492MOL0     H64912   6.689   5.894   7.698  1.4188 -1.3934 -0.8274
  492MOL0     H64913   6.715   5.747   7.610 -1.2712 -5.4498  1.8204
  492MOL0     H64914   6.565   5.622   7.776  1.3861 -1.5093 -1.3201
  492MOL0     H64915   6.556   5.766   7.874  1.8974 -0.4777  1.5088
  492MOL0     H64916   6.827   5.648   7.788  1.3446 -1.5415  2.3665
  492MOL0     H64917   6.802   5.792   7.880  1.1797  0.8674 -5.4776
  492MOL0     H64918   6.759   5.500   7.980  3.3530 -1.1768  0.0902
  492MOL0     H64919   6.688   5.630   8.062  1.6163  1.0843  1.4848
  492MOL0     H64920   6.890   5.728   8.101 -2.7552 -1.2589  0.6919
  492MOL0     H64921   6.980   5.631   7.988  0.6623  3.1119  0.3556
  492MOL0     H64922   6.986   5.569   8.249  0.1071  0.1300  0.7993
  492MOL0     H64923   6.828   5.498   8.227  1.4075 -0.3411  2.0615
  492MOL0     H64924   6.952   5.382   8.010 -1.6491 -0.1151  0.6841
  492MOL0     H64925   6.970   5.302   8.162 -1.8625  0.2805  0.6280
  492MOL0     H64926   6.387   6.158   7.709  0.0331  2.2854 -1.7440
  492MOL0     H64927   6.234   6.302   7.602  0.3514 -0.7005  1.6701
  492MOL0     H64928   6.003   6.355   7.010  0.0320 -0.2573  1.1640
  492MOL0     H64929   5.879   6.542   6.930 -4.3563  0.5105 -0.8664
  492MOL0     H64930   4.980   6.591   5.881  0.0673 -1.0616 -0.0200
  492MOL0     H64931   4.827   6.459   5.757  0.4503  1.6180  0.4268
  492MOL0     H64932   4.816   6.279   5.271  0.3760  0.7297  1.6356
  492MOL0     H64933   4.690   6.205   5.057 -0.7442 -0.4412  1.8438
  492MOL0     H64934   4.623   6.170   4.874  2.9954  0.7092  0.7508
  492MOL0     H64935   4.701   6.304   4.787  1.8532 -1.9774  0.8097
  492MOL0     H64936   4.583   6.160   4.629 -1.0507 -2.0321  0.6934
  492MOL0     H64937   4.426   6.207   4.713 -0.2303  0.3307  1.0238
  492MOL0     H64938   4.507   6.330   4.489  1.7813 -0.3300  0.2131
  492MOL0     H64939   4.639   6.387   4.582  1.1663 -3.3629  0.2086
  492MOL0     H64940   4.343   6.449   4.643  0.9974 -1.8661  0.2968
  492MOL0     H64941   4.472   6.516   4.737  0.9603  0.3336 -0.8937
  492MOL0     H64942   4.418   6.709   4.359  0.2334 -0.1966 -0.5401
  492MOL0     H64943   4.554   6.596   4.999  1.2611  2.0587  1.4027
  492MOL0     H64944   4.627   6.664   5.219 -2.2816  0.1057 -1.8720
  493MOL0     O64945   5.995   4.527   5.831  1.1188 -0.7309  0.0874
  493MOL0     C64946   6.070   4.455   5.896  0.1710  0.0500 -0.8737
  493MOL0     O64947   6.098   4.476   6.029 -0.0550  0.2006  0.5966
  493MOL0     C64948   6.020   4.560   6.102 -0.2970  1.0631 -0.3775
  493MOL0     C64949   5.880   4.552   6.090  0.3381 -0.8132 -0.4627
  493MOL0     C64950   5.810   4.644   6.165  0.6658 -0.8244  0.4931
  493MOL0     C64951   5.872   4.721   6.266 -0.4368  0.2200 -0.3450
  493MOL0     O64952   5.809   4.806   6.352 -1.1140  0.2950 -0.0741
  493MOL0     C64953   5.741   4.925   6.298 -0.1230  0.4147 -0.4404
  493MOL0     C64954   5.612   4.945   6.380 -0.6296 -1.3737 -0.4832
  493MOL0     C64955   5.654   5.014   6.519 -0.9893  0.9409 -0.5923
  493MOL0     C64956   5.691   5.160   6.497  0.3437  0.6766  0.3070
  493MOL0     C64957   5.672   5.231   6.626 -0.4986 -0.0059  0.1698
  493MOL0     C64958   5.535   5.292   6.617  0.5778 -0.1785  0.6458
  493MOL0     C64959   5.490   5.349   6.750  0.4502  0.1757 -0.1781
  493MOL0     C64960   5.451   5.259   6.870 -0.1931  0.1792 -0.3513
  493MOL0     N64961   5.320   5.197   6.861  0.1491  0.3818 -0.2825
  493MOL0     C64962   5.194   5.234   6.912 -1.4073  0.0231 -0.7232
  493MOL0     C64963   5.110   5.139   6.860  0.0846 -0.0169 -0.7425
  493MOL0     C64964   4.968   5.104   6.899  0.2491 -0.2340 -0.4888
  493MOL0     C64965   4.957   5.125   7.054  0.9191 -0.5536 -0.8504
  493MOL0     C64966   4.828   5.057   7.105 -0.5365 -0.1689  0.4746
  493MOL0     C64967   4.700   5.118   7.048 -0.3862  0.6148 -0.7165
  493MOL0     O64968   4.688   5.248   7.117  0.1096  0.3972  0.3610
  493MOL0     C64969   4.603   5.336   7.056  0.2968 -0.3725 -0.1271
  493MOL0     C64970   4.502   5.300   6.970  1.1405 -0.7874  0.2551
  493MOL0     C64971   4.408   5.394   6.930  0.9202 -0.6561 -1.0764
  493MOL0     C64972   4.399   5.522   6.989 -0.6321 -0.1543 -0.0189
  493MOL0     C64973   4.280   5.615   6.970 -0.0271  0.0375 -0.3781
  493MOL0     O64974   4.170   5.559   6.916  0.5200  0.5464  0.5585
  493MOL0     C64975   4.049   5.636   6.923 -0.3700 -0.6258  0.6991
  493MOL0     C64976   3.986   5.659   6.800 -0.7128  0.3628 -0.2211
  493MOL0     C64977   3.861   5.720   6.792 -0.4348 -0.1352  0.1336
  493MOL0     C64978   3.794   5.755   6.905  0.7972 -0.0768 -0.0222
  493MOL0     O64979   3.678   5.808   6.913 -0.3309  0.6109  0.0919
  493MOL0     C64980   3.665   5.933   6.846  0.9690  0.2127 -0.1305
  493MOL0     C64981   3.518   5.992   6.874  0.5014 -0.8607  0.0978
  493MOL0     C64982   3.439   6.025   6.750  0.5631 -0.1482  0.9446
  493MOL0     C64983   3.481   6.158   6.685  0.1464 -0.6659 -0.2729
  493MOL0     C64984   3.375   6.217   6.585 -0.4033 -0.2103  0.1564
  493MOL0     C64985   3.349   6.116   6.474  0.2230 -0.6599 -0.0780
  493MOL0     C64986   3.470   6.087   6.381  0.3927  0.2307 -0.3794
  493MOL0     C64987   3.490   6.176   6.258 -0.9291  0.7124 -0.7213
  493MOL0    Cl64988   3.629   6.117   6.157  0.0498 -0.0388  0.3458
  493MOL0     C64989   3.870   5.738   7.028 -0.0487 -0.3381 -0.9895
  493MOL0     C64990   3.998   5.687   7.034  0.2767 -0.7177 -0.7135
  493MOL0     O64991   4.292   5.726   7.014  0.6562 -0.6684  0.6691
  493MOL0     C64992   4.501   5.553   7.093  0.1886  0.3573  0.6126
  493MOL0     C64993   4.609   5.461   7.115  0.2690  0.0284 -0.4381
  493MOL0     N64994   5.191   5.058   6.779  0.6262  0.0267  0.0721
  493MOL0     N64995   5.309   5.085   6.788 -0.4925 -0.5723  0.2748
  493MOL0     C64996   6.011   4.714   6.279  0.0692  0.0121  0.1423
  493MOL0     C64997   6.087   4.634   6.196 -1.1815  0.3365  0.3017
  493MOL0     C64998   6.121   4.334   5.821  0.0155 -1.0938 -0.3295
  493MOL0     C64999   6.148   4.217   5.895 -0.1135 -0.8989 -0.3199
  493MOL0     C65000   6.182   4.094   5.838 -0.4326 -0.2802 -0.2738
  493MOL0     C65001   6.186   4.081   5.701 -0.3896 -0.4860 -0.6807
  493MOL0     O65002   6.230   3.974   5.622  0.0197 -0.0341  0.0104
  493MOL0     C65003   6.246   3.835   5.672  0.6667 -0.3839  0.2213
  493MOL0     C65004   6.327   3.765   5.567  0.1656 -0.4375 -0.5799
  493MOL0     C65005   6.400   3.652   5.641 -0.6822  1.3664  1.0106
  493MOL0     C65006   6.448   3.544   5.545  0.5950  0.4379 -0.7042
  493MOL0     C65007   6.513   3.437   5.621 -0.4391 -0.3367  0.0464
  493MOL0     C65008   6.552   3.335   5.676 -0.5107 -0.8554  0.6127
  493MOL0     C65009   6.170   4.198   5.627  0.6641 -0.3025  0.2963
  493MOL0     C65010   6.137   4.324   5.686 -0.2842 -0.4879 -0.0887
  493MOL0     H65011   5.833   4.468   6.041  0.3479 -0.3748 -1.2368
  493MOL0     H65012   5.701   4.644   6.161  0.6223  2.4371 -0.7159
  493MOL0     H65013   5.721   4.927   6.191  2.7729  0.0300 -1.0587
  493MOL0     H65014   5.815   5.005   6.306 -1.0401  1.2406  0.0537
  493MOL0     H65015   5.550   4.856   6.396 -1.0930 -1.2248 -1.3853
  493MOL0     H65016   5.539   5.011   6.332 -0.8251 -0.1135  1.4351
  493MOL0     H65017   5.738   4.960   6.564 -0.3308  1.0429 -1.6506
  493MOL0     H65018   5.571   5.005   6.589 -1.3088 -1.8295 -1.2313
  493MOL0     H65019   5.795   5.165   6.464 -0.2881  1.6664 -1.7279
  493MOL0     H65020   5.641   5.214   6.416  1.4180  2.5028  0.8001
  493MOL0     H65021   5.749   5.309   6.625  1.4430 -1.7521  2.0078
  493MOL0     H65022   5.685   5.171   6.716 -0.6950 -2.8532 -1.5757
  493MOL0     H65023   5.458   5.221   6.586  0.8410 -0.8689  1.5178
  493MOL0     H65024   5.529   5.367   6.538  0.3522 -0.6722  0.1908
  493MOL0     H65025   5.575   5.413   6.773  0.4199 -0.1830  0.9904
  493MOL0     H65026   5.419   5.430   6.733 -0.4712 -0.5216  0.2841
  493MOL0     H65027   5.462   5.313   6.965  2.4502 -0.4142 -0.2347
  493MOL0     H65028   5.531   5.184   6.877 -0.2389  0.2665  1.5805
  493MOL0     H65029   5.176   5.302   6.995 -1.4275 -1.2679  0.3583
  493MOL0     H65030   4.945   5.001   6.870  3.0249 -1.4377  1.2140
  493MOL0     H65031   4.896   5.160   6.838 -0.0630  0.4068  0.4565
  493MOL0     H65032   4.960   5.231   7.081 -0.6910 -0.2802 -1.6438
  493MOL0     H65033   5.043   5.068   7.090 -0.4734 -1.2928  1.5615
  493MOL0     H65034   4.835   4.951   7.080  4.5970  0.3056 -1.2676
  493MOL0     H65035   4.813   5.059   7.214 -2.4089 -3.5399  0.3983
  493MOL0     H65036   4.613   5.058   7.077 -0.3916 -0.7577 -3.2862
  493MOL0     H65037   4.711   5.121   6.939 -1.1959 -2.8241 -1.0013
  493MOL0     H65038   4.499   5.198   6.935  1.5550 -0.5663 -0.4283
  493MOL0     H65039   4.335   5.364   6.856 -0.8962 -0.6281  0.6211
  493MOL0     H65040   4.036   5.624   6.711 -2.1682 -1.9046 -0.2197
  493MOL0     H65041   3.813   5.744   6.698  0.1582  4.4991  0.7856
  493MOL0     H65042   3.651   5.917   6.739 -4.5373 -2.4584  0.6046
  493MOL0     H65043   3.740   6.007   6.871  0.8981  0.4728 -0.6788
  493MOL0     H65044   3.517   6.081   6.938 -2.0736 -0.3894 -0.5047
  493MOL0     H65045   3.458   5.911   6.918 -2.4015  0.2742 -1.5185
  493MOL0     H65046   3.332   6.037   6.769  0.4609  1.2038 -0.2576
  493MOL0     H65047   3.443   5.940   6.682  3.0837  0.3252  0.3934
  493MOL0     H65048   3.501   6.248   6.744 -0.1503  1.6187 -3.3678
  493MOL0     H65049   3.576   6.140   6.634 -0.0470 -1.6029 -0.3106
  493MOL0     H65050   3.412   6.308   6.536  1.1117 -1.2415 -0.7326
  493MOL0     H65051   3.278   6.233   6.632 -0.5328 -1.4332  0.3582
  493MOL0     H65052   3.263   6.145   6.412  1.6651 -1.6620 -2.7465
  493MOL0     H65053   3.322   6.025   6.528 -0.7210 -2.3393 -3.0882
  493MOL0     H65054   3.556   6.097   6.448  0.4831 -3.2051  0.2035
  493MOL0     H65055   3.481   5.981   6.356  4.3434  0.1266  0.9640
  493MOL0     H65056   3.515   6.278   6.290 -2.0489  0.5897  0.6733
  493MOL0     H65057   3.398   6.174   6.199  1.2540  0.9123 -4.3923
  493MOL0     H65058   3.828   5.773   7.122 -0.3387 -0.8965 -0.9079
  493MOL0     H65059   4.051   5.667   7.127  0.0042 -1.3161 -0.6790
  493MOL0     H65060   4.500   5.641   7.156  0.2935  1.7856 -1.2894
  493MOL0     H65061   4.692   5.481   7.183  0.9959  3.4334 -2.0923
  493MOL0     H65062   6.061   4.762   6.363  0.0516 -3.0315  2.0322
  493MOL0     H65063   6.195   4.639   6.204 -1.1990  1.2898  0.0744
  493MOL0     H65064   6.150   4.226   6.003 -1.9590  2.5689 -0.4300
  493MOL0     H65065   6.219   4.017   5.905  3.5257  1.7831  0.2584
  493MOL0     H65066   6.146   3.792   5.672  0.8102 -0.7242 -0.4320
  493MOL0     H65067   6.296   3.843   5.770  1.2688  3.8130 -0.2542
  493MOL0     H65068   6.260   3.722   5.493 -0.6649 -1.6204  0.8280
  493MOL0     H65069   6.399   3.839   5.528  1.5576 -0.0200  2.5119
  493MOL0     H65070   6.336   3.605   5.716 -1.4555 -2.0800 -1.5257
  493MOL0     H65071   6.494   3.678   5.689 -1.1886  0.2970  2.6822
  493MOL0     H65072   6.361   3.499   5.497  1.5712  0.5622 -2.6779
  493MOL0     H65073   6.507   3.597   5.470  1.6855  1.0164  0.5227
  493MOL0     H65074   6.588   3.249   5.729  0.2032  0.7905  2.9712
  493MOL0     H65075   6.170   4.185   5.520 -0.8540  0.2388  0.2086
  493MOL0     H65076   6.137   4.409   5.618  0.4044 -1.1177 -0.8980
  494MOL0     O65077   1.829  10.377   1.218 -0.5393  0.6321 -0.0524
  494MOL0     C65078   1.709  10.402   1.203  0.3088  0.3017  0.0905
  494MOL0     O65079   1.654  10.492   1.126  0.1029  0.0301  0.5506
  494MOL0     C65080   1.736  10.572   1.048 -0.3351 -0.0453 -0.1130
  494MOL0     C65081   1.811  10.512   0.948 -0.0152 -0.2248 -0.5524
  494MOL0     C65082   1.907  10.592   0.874  0.5637 -0.7187 -0.8474
  494MOL0     C65083   1.930  10.725   0.912 -0.6390 -0.0644  0.3635
  494MOL0     O65084   2.006  10.817   0.834  0.5979  0.3573 -0.0105
  494MOL0     C65085   1.981  10.824   0.692 -0.9866  0.2979  0.1183
  494MOL0     C65086   2.073  10.731   0.604  1.0029  0.5669 -0.6079
  494MOL0     C65087   2.215  10.724   0.661 -0.6071  0.3656 -0.0323
  494MOL0     C65088   2.300  10.661   0.555  0.5398 -0.1105 -0.5268
  494MOL0     C65089   2.433  10.609   0.607 -0.3344  0.2540  0.0255
  494MOL0     C65090   2.503  10.514   0.511  0.1189  0.3294  0.0510
  494MOL0     C65091   2.633  10.462   0.572 -0.6017  0.1384  0.2490
  494MOL0     C65092   2.614  10.394   0.707  0.4142 -0.3778 -0.9144
  494MOL0     N65093   2.735  10.342   0.758 -0.5357 -0.1584 -0.0380
  494MOL0     C65094   2.759  10.216   0.808 -0.4344  0.3349  0.6072
  494MOL0     C65095   2.890  10.206   0.844 -0.0700 -0.3259 -0.0412
  494MOL0     C65096   2.956  10.091   0.919 -0.5508  0.6293 -0.7160
  494MOL0     C65097   3.085  10.050   0.857 -0.0351  0.5056  0.0448
  494MOL0     C65098   3.068  10.021   0.706  0.3443 -0.7372  0.0420
  494MOL0     C65099   2.958   9.932   0.668 -0.0519  0.0004  0.1378
  494MOL0     O65100   2.974   9.797   0.729 -0.2125  0.1675  0.3121
  494MOL0     C65101   2.866   9.729   0.773  0.6498 -0.2255  0.0544
  494MOL0     C65102   2.884   9.669   0.897  0.5659  0.6248 -0.2914
  494MOL0     C65103   2.775   9.598   0.958  0.0197 -0.6496 -1.0046
  494MOL0     C65104   2.650   9.595   0.893  0.6419 -0.0472 -0.1780
  494MOL0     C65105   2.537   9.519   0.954 -0.1869  0.5630 -0.8932
  494MOL0     O65106   2.434   9.503   0.863 -0.4082 -0.2547  0.7926
  494MOL0     C65107   2.316   9.443   0.902  0.1973 -0.9504  0.4658
  494MOL0     C65108   2.237   9.384   0.799 -0.5049 -0.0959  0.0488
  494MOL0     C65109   2.125   9.304   0.822 -0.5322 -0.8401 -0.3647
  494MOL0     C65110   2.079   9.280   0.949 -0.4947  0.1300 -1.0793
  494MOL0     O65111   1.967   9.203   0.973  0.7032 -0.3676 -0.2757
  494MOL0     C65112   1.895   9.152   0.859 -0.0468 -0.1620  1.0781
  494MOL0     C65113   1.764   9.075   0.904  0.3662 -0.3042 -0.1874
  494MOL0     C65114   1.694   9.015   0.784 -0.6653  0.5622  0.6853
  494MOL0     C65115   1.573   8.938   0.845  0.1866 -0.9711 -0.1289
  494MOL0     C65116   1.501   8.865   0.723  0.1926 -0.3256 -0.6731
  494MOL0     C65117   1.561   8.734   0.699  0.9050  0.3035  0.5156
  494MOL0     C65118   1.509   8.661   0.576  0.0537  0.1562 -0.3594
  494MOL0     C65119   1.542   8.513   0.586 -1.1102  0.2943 -0.1150
  494MOL0    Cl65120   1.461   8.431   0.727  0.2564 -0.0717 -0.2485
  494MOL0     C65121   2.143   9.346   1.057 -0.3006  1.3366  0.1263
  494MOL0     C65122   2.251   9.433   1.034 -1.2626  0.6518 -0.6033
  494MOL0     O65123   2.546   9.481   1.070  0.2380 -0.5176 -0.0792
  494MOL0     C65124   2.639   9.655   0.770  1.0041 -0.7386  0.4216
  494MOL0     C65125   2.740   9.725   0.711  0.8604 -0.0748  0.9089
  494MOL0     N65126   2.952  10.326   0.824  0.4232 -0.7092 -0.4385
  494MOL0     N65127   2.860  10.409   0.786 -0.4214  0.0477  0.3467
  494MOL0     C65128   1.862  10.775   1.022 -0.4062 -0.1606 -0.3359
  494MOL0     C65129   1.760  10.707   1.081 -0.0055  0.5852 -0.0230
  494MOL0     C65130   1.619  10.320   1.295 -0.3025 -0.1823  0.1135
  494MOL0     C65131   1.480  10.346   1.306  0.3446  0.4746  0.1406
  494MOL0     C65132   1.395  10.268   1.383  0.4428  0.3624  0.0699
  494MOL0     C65133   1.439  10.155   1.455  0.4424 -0.3693 -0.0321
  494MOL0     O65134   1.355  10.068   1.518 -0.8734 -0.0605 -0.6840
  494MOL0     C65135   1.318   9.943   1.451  0.3286 -1.1707 -0.0388
  494MOL0     C65136   1.327   9.830   1.547  0.7911  0.9326  0.3013
  494MOL0     C65137   1.253   9.713   1.503  0.2304  0.1267  0.1856
  494MOL0     C65138   1.215   9.612   1.599  0.3675  0.0851  0.3984
  494MOL0     C65139   1.147   9.509   1.514 -0.0476 -0.9627 -1.2555
  494MOL0     C65140   1.104   9.419   1.445 -0.0111 -0.2533  0.3147
  494MOL0     C65141   1.579  10.132   1.446 -0.3834  0.3850 -0.7506
  494MOL0     C65142   1.668  10.209   1.369 -1.0167 -0.4012 -0.3843
  494MOL0     H65143   1.796  10.407   0.923 -3.1761  0.2018 -0.7937
  494MOL0     H65144   1.963  10.551   0.791 -0.2037 -0.7039 -1.3721
  494MOL0     H65145   2.014  10.926   0.673  0.0175  0.2155  1.3490
  494MOL0     H65146   1.873  10.819   0.673 -1.3302  1.9883  1.4059
  494MOL0     H65147   2.084  10.768   0.502  0.9922  1.7797 -0.1847
  494MOL0     H65148   2.024  10.635   0.585 -1.4856  2.0094 -1.9982
  494MOL0     H65149   2.220  10.664   0.752 -2.6871 -1.7175 -1.1970
  494MOL0     H65150   2.247  10.828   0.680  0.6376 -0.3038  1.8319
  494MOL0     H65151   2.250  10.574   0.512 -0.2165 -0.1998  0.4990
  494MOL0     H65152   2.315  10.722   0.465 -5.2633  0.6155 -1.3987
  494MOL0     H65153   2.411  10.559   0.702 -3.3839 -3.1791 -2.2264
  494MOL0     H65154   2.502  10.692   0.627 -1.4167  1.6257 -1.6980
  494MOL0     H65155   2.535  10.569   0.422 -1.0559 -0.0405 -0.6302
  494MOL0     H65156   2.434  10.432   0.486  1.6133 -0.5021 -1.5240
  494MOL0     H65157   2.660  10.380   0.504 -2.9033  1.3554 -2.3243
  494MOL0     H65158   2.714  10.533   0.556 -1.1424  0.8917  0.8301
  494MOL0     H65159   2.538  10.317   0.691 -0.4621  0.7061 -2.1747
  494MOL0     H65160   2.572  10.464   0.780 -0.3202  0.6378 -2.2669
  494MOL0     H65161   2.683  10.143   0.835 -0.7353  0.3588 -0.1486
  494MOL0     H65162   2.885  10.009   0.916  1.0154 -0.8162  0.0484
  494MOL0     H65163   2.970  10.120   1.023 -1.9473 -1.3243  0.0631
  494MOL0     H65164   3.134   9.975   0.920 -1.8287  1.3282  2.6019
  494MOL0     H65165   3.152  10.136   0.867  0.7837 -0.1453  0.3120
  494MOL0     H65166   3.060  10.110   0.643 -1.7982 -0.2709  0.8699
  494MOL0     H65167   3.162   9.973   0.678  1.3272  0.7869  0.6448
  494MOL0     H65168   2.964   9.924   0.559 -1.0104 -0.2592  0.0969
  494MOL0     H65169   2.860   9.969   0.698  0.2918  0.1120  1.1406
  494MOL0     H65170   2.981   9.681   0.944 -0.4012  1.1420  1.6606
  494MOL0     H65171   2.794   9.548   1.052  1.5341 -1.3685 -1.6607
  494MOL0     H65172   2.261   9.402   0.694 -2.6522 -0.4245 -0.5429
  494MOL0     H65173   2.079   9.266   0.732  1.3722  0.7643 -2.1046
  494MOL0     H65174   1.961   9.092   0.796 -0.3136  1.6102 -0.9854
  494MOL0     H65175   1.853   9.232   0.797 -0.7736 -1.0432  0.3994
  494MOL0     H65176   1.700   9.142   0.962 -1.0228 -1.0309 -0.8226
  494MOL0     H65177   1.793   8.986   0.961  0.2178  0.0406  0.4355
  494MOL0     H65178   1.763   8.955   0.725  0.1375  1.8988  0.2229
  494MOL0     H65179   1.658   9.091   0.713 -0.5854  0.3580  0.4241
  494MOL0     H65180   1.593   8.867   0.926  2.7520 -2.6344 -2.0616
  494MOL0     H65181   1.492   9.008   0.870 -2.2656 -2.1777 -3.8268
  494MOL0     H65182   1.529   8.918   0.631 -1.0484 -1.3510 -1.6739
  494MOL0     H65183   1.392   8.867   0.722  0.1978 -0.1688 -1.5745
  494MOL0     H65184   1.539   8.669   0.784 -1.1025  0.0337 -0.1483
  494MOL0     H65185   1.668   8.756   0.692  0.4209  2.7204 -0.5479
  494MOL0     H65186   1.399   8.662   0.570  0.1037 -0.2118 -1.5479
  494MOL0     H65187   1.559   8.707   0.490  1.6477  2.1665  1.5201
  494MOL0     H65188   1.650   8.494   0.593 -1.1892 -0.1189  0.0419
  494MOL0     H65189   1.524   8.465   0.490  1.6371 -1.7283  0.2294
  494MOL0     H65190   2.109   9.331   1.159  1.0550  2.3635  0.7734
  494MOL0     H65191   2.295   9.499   1.108 -0.4886 -0.4738 -0.0216
  494MOL0     H65192   2.543   9.645   0.720 -0.0291  2.9630  1.3502
  494MOL0     H65193   2.746   9.765   0.611  0.0300  0.4183  1.0431
  494MOL0     H65194   1.875  10.878   1.055  0.2270  0.7594 -3.1429
  494MOL0     H65195   1.723  10.766   1.163  1.3877  0.7203  0.5309
  494MOL0     H65196   1.424  10.414   1.242  1.5999  0.4089 -1.0707
  494MOL0     H65197   1.289  10.286   1.398  0.1450 -1.7231  0.8633
  494MOL0     H65198   1.380   9.935   1.361 -0.4071  2.0557 -0.9883
  494MOL0     H65199   1.211   9.946   1.428 -0.3915 -1.2832  2.9456
  494MOL0     H65200   1.432   9.803   1.560  0.9575  1.6247  0.4591
  494MOL0     H65201   1.280   9.855   1.642  0.2088 -0.8567  0.5236
  494MOL0     H65202   1.303   9.670   1.415  1.1189 -3.2872  2.1815
  494MOL0     H65203   1.161   9.760   1.468  1.0437 -0.5893 -3.3472
  494MOL0     H65204   1.298   9.562   1.650 -0.1917  0.2634  1.5051
  494MOL0     H65205   1.140   9.645   1.672 -1.4718 -1.2675 -0.8002
  494MOL0     H65206   1.064   9.344   1.380 -2.3018  1.9278 -0.9854
  494MOL0     H65207   1.611  10.042   1.496 -1.8804 -0.4441 -1.2110
  494MOL0     H65208   1.772  10.184   1.354 -0.6920  1.1014 -0.7935
  495MOL0     O65209   6.668   3.721   6.387  0.5890 -0.4063 -0.0628
  495MOL0     C65210   6.656   3.727   6.263 -0.0391  0.6122 -0.6240
  495MOL0     O65211   6.631   3.838   6.198 -0.9559  0.0726 -0.3073
  495MOL0     C65212   6.585   3.946   6.268 -0.1526 -0.1542  0.6031
  495MOL0     C65213   6.569   4.057   6.186 -0.3220  0.4720 -0.3799
  495MOL0     C65214   6.498   4.175   6.231  0.0354 -0.7900  0.3194
  495MOL0     C65215   6.479   4.202   6.366 -0.5781  0.3893 -0.0064
  495MOL0     O65216   6.438   4.327   6.408 -0.6335 -0.1296 -0.0429
  495MOL0     C65217   6.513   4.398   6.515  0.6045  1.0510  0.2531
  495MOL0     C65218   6.492   4.547   6.494 -0.3545 -0.5879  0.3612
  495MOL0     C65219   6.353   4.606   6.506 -0.1411  0.5547 -0.0025
  495MOL0     C65220   6.305   4.635   6.645  0.1587  0.5966  0.0648
  495MOL0     C65221   6.187   4.732   6.663  0.3987  0.7226  0.2017
  495MOL0     C65222   6.237   4.864   6.605 -0.7281 -0.2387 -0.2383
  495MOL0     C65223   6.168   4.966   6.687 -0.1883  0.2146 -0.0077
  495MOL0     C65224   6.023   4.981   6.664  0.2477  0.4510 -0.1934
  495MOL0     N65225   5.958   5.030   6.789 -0.1711  0.0249 -0.4267
  495MOL0     C65226   5.880   4.961   6.875  0.1855  0.5669  0.4000
  495MOL0     C65227   5.830   5.051   6.970 -0.8235  0.4369 -0.8858
  495MOL0     C65228   5.737   5.013   7.083 -0.0309  0.1144 -0.1735
  495MOL0     C65229   5.718   5.116   7.193 -0.1119 -0.2242 -0.2226
  495MOL0     C65230   5.666   5.043   7.331 -0.6124 -0.6260  0.7242
  495MOL0     C65231   5.669   5.139   7.449 -0.7710  0.2155  0.8351
  495MOL0     O65232   5.587   5.077   7.549  0.1817  0.5989  0.0833
  495MOL0     C65233   5.474   5.131   7.596  0.6274  0.7666  0.9242
  495MOL0     C65234   5.408   5.237   7.541  0.7337 -0.9722  0.7973
  495MOL0     C65235   5.288   5.285   7.601 -0.0281  0.0723 -0.0160
  495MOL0     C65236   5.234   5.217   7.713 -0.0336 -1.0333 -1.8000
  495MOL0     C65237   5.105   5.268   7.767  0.8702 -1.1162 -0.0659
  495MOL0     O65238   5.020   5.345   7.691  0.0810 -0.0690  0.0792
  495MOL0     C65239   4.902   5.385   7.745 -0.7818 -0.6093  0.1733
  495MOL0     C65240   4.783   5.309   7.741 -0.3670  0.0975  0.3579
  495MOL0     C65241   4.672   5.347   7.797 -0.4396  0.2326 -0.5991
  495MOL0     C65242   4.663   5.467   7.861  0.7863 -0.1973 -0.7143
  495MOL0     O65243   4.538   5.496   7.911  0.5217 -0.5718 -0.0866
  495MOL0     C65244   4.533   5.597   8.021 -0.3020 -0.0459  0.0806
  495MOL0     C65245   4.395   5.658   8.031  0.2818  0.4556 -0.9961
  495MOL0     C65246   4.338   5.695   7.890  0.1170  0.3354 -0.0642
  495MOL0     C65247   4.200   5.763   7.893 -0.1401  0.2826 -0.0249
  495MOL0     C65248   4.094   5.662   7.936  0.6388 -0.3237  0.2028
  495MOL0     C65249   4.017   5.719   8.055 -0.1831 -0.6484 -0.4372
  495MOL0     C65250   3.920   5.838   8.019  0.2603  0.0296 -0.2788
  495MOL0     C65251   3.913   5.932   8.133 -1.0057 -0.0177 -0.5683
  495MOL0    Cl65252   4.056   6.050   8.136  0.4921  0.2136  0.2309
  495MOL0     C65253   4.776   5.548   7.857 -0.2756 -0.1388  0.0741
  495MOL0     C65254   4.903   5.513   7.805  0.1838 -0.0218  0.2640
  495MOL0     O65255   5.079   5.222   7.882  0.8183  0.4836  0.1849
  495MOL0     C65256   5.298   5.102   7.768 -0.9358 -0.1425  0.7647
  495MOL0     C65257   5.423   5.063   7.712 -0.6924 -0.3882 -0.0084
  495MOL0     N65258   5.886   5.170   6.940  0.3283 -0.0034 -0.3785
  495MOL0     N65259   5.960   5.158   6.832 -0.2749 -1.6755 -0.1911
  495MOL0     C65260   6.511   4.089   6.450 -0.2183 -0.5167 -0.6412
  495MOL0     C65261   6.558   3.969   6.400 -0.0492 -0.1373  0.1257
  495MOL0     C65262   6.694   3.608   6.191 -0.3016 -0.0827 -0.0219
  495MOL0     C65263   6.707   3.603   6.053  0.3151 -0.5686  0.0977
  495MOL0     C65264   6.735   3.488   5.981 -0.3455 -1.1816  0.4715
  495MOL0     C65265   6.753   3.367   6.056  0.0190  0.2308  0.5355
  495MOL0     O65266   6.786   3.248   5.985  0.0768 -0.0432 -0.0925
  495MOL0     C65267   6.830   3.127   6.053  0.6272  0.7121 -0.1947
  495MOL0     C65268   6.895   3.033   5.950  0.5617  0.2010 -0.5694
  495MOL0     C65269   6.799   3.015   5.830  0.5856 -0.3993 -0.0590
  495MOL0     C65270   6.803   2.867   5.777 -0.6056 -0.9106 -0.9234
  495MOL0     C65271   6.931   2.812   5.729  0.0550 -0.0212  0.6601
  495MOL0     C65272   7.029   2.757   5.678  1.3354 -0.3397 -0.7055
  495MOL0     C65273   6.729   3.371   6.195 -0.0218 -0.8351 -0.3144
  495MOL0     C65274   6.700   3.493   6.266  0.1171 -0.2876  0.5779
  495MOL0     H65275   6.597   4.049   6.082  2.3703  1.6148  0.1628
  495MOL0     H65276   6.461   4.254   6.166 -3.9446 -0.6686  2.4006
  495MOL0     H65277   6.619   4.372   6.516  0.8601  1.9554 -0.8928
  495MOL0     H65278   6.460   4.367   6.605 -0.6483  1.5620 -0.2763
  495MOL0     H65279   6.535   4.582   6.399  0.4672  1.9995  1.5850
  495MOL0     H65280   6.553   4.600   6.568 -1.1035  0.2996  0.3516
  495MOL0     H65281   6.289   4.536   6.452 -0.0693 -0.6660  1.4592
  495MOL0     H65282   6.362   4.694   6.441 -0.4891 -1.1573 -2.5306
  495MOL0     H65283   6.284   4.540   6.696 -1.2054  0.9546  0.2067
  495MOL0     H65284   6.389   4.670   6.706 -0.0592  1.2715 -0.0180
  495MOL0     H65285   6.165   4.746   6.769  0.8381 -0.9750  0.5535
  495MOL0     H65286   6.094   4.696   6.619 -0.2978  1.3933  1.1024
  495MOL0     H65287   6.210   4.868   6.499 -0.3485  3.3094 -0.3033
  495MOL0     H65288   6.345   4.876   6.618 -1.0999  0.8335  2.5397
  495MOL0     H65289   6.195   4.958   6.793 -0.8645 -0.0940  0.1486
  495MOL0     H65290   6.220   5.057   6.655  2.2053 -2.0188 -3.0548
  495MOL0     H65291   5.976   4.892   6.621 -2.0117  3.1005 -3.7395
  495MOL0     H65292   6.003   5.053   6.584 -1.0099  1.7317  1.1857
  495MOL0     H65293   5.858   4.855   6.868  3.0645 -0.0130 -2.6325
  495MOL0     H65294   5.778   4.919   7.121 -0.6691 -0.0473  0.1233
  495MOL0     H65295   5.639   4.992   7.040 -0.1364  0.2759 -0.0078
  495MOL0     H65296   5.643   5.192   7.173 -0.0072  0.0141  0.2678
  495MOL0     H65297   5.807   5.177   7.209 -2.0645  2.4535  1.3286
  495MOL0     H65298   5.568   4.996   7.319 -0.6553  0.0641 -2.9338
  495MOL0     H65299   5.724   4.954   7.356 -1.8769 -1.3089  1.3232
  495MOL0     H65300   5.638   5.238   7.413  1.3135 -0.1627 -2.3890
  495MOL0     H65301   5.772   5.161   7.479 -0.0156  3.0480 -3.0347
  495MOL0     H65302   5.451   5.292   7.457 -0.5814 -0.2060  0.6102
  495MOL0     H65303   5.247   5.379   7.565  0.6200 -0.0448 -1.1036
  495MOL0     H65304   4.794   5.208   7.702 -1.7858 -0.2084  0.6950
  495MOL0     H65305   4.576   5.296   7.794 -1.5402  2.2085 -0.2918
  495MOL0     H65306   4.596   5.684   7.999 -1.8895  1.4262  1.1065
  495MOL0     H65307   4.572   5.555   8.114 -0.1841  0.4756  0.2692
  495MOL0     H65308   4.386   5.747   8.094 -2.2217  0.5320 -1.3489
  495MOL0     H65309   4.322   5.595   8.084 -0.1471  1.7156 -0.0399
  495MOL0     H65310   4.330   5.603   7.831 -0.3888 -0.2453  0.8934
  495MOL0     H65311   4.411   5.763   7.844  0.2177  1.0428  1.1166
  495MOL0     H65312   4.217   5.850   7.956 -0.4269  2.0389 -2.2382
  495MOL0     H65313   4.161   5.795   7.796  0.4417 -0.3415 -0.4782
  495MOL0     H65314   4.133   5.562   7.959  0.7801 -0.4815 -0.6836
  495MOL0     H65315   4.029   5.658   7.849 -1.6614  4.6453  1.3404
  495MOL0     H65316   4.093   5.744   8.129  0.7189 -1.4614 -1.0560
  495MOL0     H65317   3.948   5.643   8.093  1.6785 -2.2363 -0.0429
  495MOL0     H65318   3.966   5.888   7.933  2.9615 -0.0132  1.0123
  495MOL0     H65319   3.819   5.804   7.997 -1.5523  4.8633 -0.6415
  495MOL0     H65320   3.914   5.869   8.222 -0.2176  1.8061  0.7670
  495MOL0     H65321   3.815   5.979   8.134 -1.4747 -0.8536  2.3443
  495MOL0     H65322   4.787   5.647   7.901 -0.7650 -0.2827  0.5378
  495MOL0     H65323   4.992   5.570   7.830  0.5038 -0.7669  0.8555
  495MOL0     H65324   5.261   5.046   7.853  3.1916 -1.0362  2.2173
  495MOL0     H65325   5.481   4.988   7.765 -2.3746 -1.0875  0.9526
  495MOL0     H65326   6.486   4.097   6.555  2.4176 -2.6792  0.2615
  495MOL0     H65327   6.571   3.898   6.481  0.6684  1.4029  1.4060
  495MOL0     H65328   6.689   3.696   6.000  0.0748  0.6753  2.2491
  495MOL0     H65329   6.734   3.481   5.873  0.3661  2.2930  0.1087
  495MOL0     H65330   6.744   3.077   6.099  0.1823 -0.1303 -1.8324
  495MOL0     H65331   6.913   3.151   6.120  1.0903 -0.7038 -0.2233
  495MOL0     H65332   6.989   3.069   5.908  1.3917 -1.2010  0.0114
  495MOL0     H65333   6.914   2.934   5.993  1.7279 -0.1213 -1.7779
  495MOL0     H65334   6.825   3.086   5.750  2.7342  1.0516  1.7986
  495MOL0     H65335   6.694   3.030   5.855  0.0565 -4.3287  0.7007
  495MOL0     H65336   6.759   2.801   5.852  1.1270 -2.6942 -1.3672
  495MOL0     H65337   6.735   2.868   5.691 -1.6983  1.6464 -0.1206
  495MOL0     H65338   7.120   2.713   5.642  2.0811  1.9299 -1.7860
  495MOL0     H65339   6.728   3.270   6.236  0.2164 -1.5479 -1.9696
  495MOL0     H65340   6.677   3.474   6.371 -2.4811  2.4682  0.6494
  496MOL0     O65341   1.064   5.385   5.289  0.2135 -0.2088 -0.9212
  496MOL0     C65342   1.165   5.393   5.355 -0.7755  0.5980  0.7835
  496MOL0     O65343   1.210   5.497   5.415  0.3630  0.0164  0.0290
  496MOL0     C65344   1.114   5.586   5.449 -0.4543  0.1521 -0.1128
  496MOL0     C65345   1.089   5.693   5.365 -0.5687  0.6134  0.4557
  496MOL0     C65346   0.996   5.793   5.398  0.1072  0.2112 -0.0523
  496MOL0     C65347   0.918   5.773   5.514 -0.7273 -0.5015  0.2835
  496MOL0     O65348   0.818   5.856   5.552 -0.3222  0.5478 -0.2646
  496MOL0     C65349   0.769   5.955   5.463  0.1393 -0.0423 -0.4099
  496MOL0     C65350   0.673   6.040   5.549  0.0721 -1.3753 -0.1196
  496MOL0     C65351   0.733   6.138   5.653 -0.3537 -1.2324 -0.0305
  496MOL0     C65352   0.718   6.289   5.599 -0.6118 -0.6908 -0.1349
  496MOL0     C65353   0.792   6.388   5.685  0.2327 -0.4192 -0.4391
  496MOL0     C65354   0.778   6.529   5.636  0.1627  0.5705  0.8349
  496MOL0     C65355   0.852   6.627   5.718 -0.8055  0.2583 -0.9682
  496MOL0     C65356   0.850   6.764   5.647 -0.5292  0.7805 -0.0150
  496MOL0     N65357   0.734   6.841   5.689  0.5338  0.1384  0.5744
  496MOL0     C65358   0.747   6.931   5.790 -0.1867  0.3952 -0.6699
  496MOL0     C65359   0.620   6.962   5.825 -0.0511 -0.0890  0.2669
  496MOL0     C65360   0.592   7.067   5.924 -0.9959 -0.0567 -0.1112
  496MOL0     C65361   0.441   7.112   5.928  1.0270  0.8006  0.0772
  496MOL0     C65362   0.371   7.027   6.039 -0.0257 -0.0550  0.4553
  496MOL0     C65363   0.220   7.059   6.056 -0.1698  0.2433 -0.3956
  496MOL0     O65364   0.216   7.171   6.143 -0.5937 -0.1557 -0.6487
  496MOL0     C65365   0.112   7.254   6.152 -0.4002  0.9051  0.0201
  496MOL0     C65366  -0.019   7.215   6.103 -0.1143 -1.3532  0.4506
  496MOL0     C65367  -0.124   7.306   6.125 -0.0027 -0.5209  0.5622
  496MOL0     C65368  -0.108   7.427   6.188  0.3730 -0.2589  0.3578
  496MOL0     C65369  -0.215   7.525   6.224  0.9401 -0.5029 -0.0145
  496MOL0     O65370  -0.316   7.545   6.129  0.1416 -0.7549 -0.4334
  496MOL0     C65371  -0.408   7.639   6.154 -1.2730 -1.0230  0.6789
  496MOL0     C65372  -0.371   7.772   6.195 -0.1872  0.4626 -0.2830
  496MOL0     C65373  -0.470   7.868   6.223 -0.6016 -0.4784  0.4643
  496MOL0     C65374  -0.606   7.833   6.191 -0.4990  0.0254  0.2385
  496MOL0     O65375  -0.698   7.930   6.215  0.5910  0.3615  0.8837
  496MOL0     C65376  -0.834   7.908   6.169  0.2754  0.3955  0.1575
  496MOL0     C65377  -0.919   8.030   6.194  0.7976  0.9621 -1.2496
  496MOL0     C65378  -1.060   8.024   6.139 -0.3581 -0.1880  0.2044
  496MOL0     C65379  -1.137   7.891   6.158 -0.8685 -0.2428 -0.5769
  496MOL0     C65380  -1.287   7.899   6.142  0.4233  0.5608 -0.9444
  496MOL0     C65381  -1.356   7.966   6.252 -0.3925 -0.4619  0.2649
  496MOL0     C65382  -1.294   7.960   6.396  0.3179 -0.1372  0.5310
  496MOL0     C65383  -1.395   8.009   6.500 -0.4656  0.0330  0.5786
  496MOL0    Cl65384  -1.409   8.189   6.504 -0.2187 -0.3262 -0.4079
  496MOL0     C65385  -0.629   7.701   6.140  0.6834  0.0109 -0.7818
  496MOL0     C65386  -0.530   7.612   6.114 -0.0139  0.6479  0.3612
  496MOL0     O65387  -0.221   7.563   6.336  0.2658 -0.1660 -0.4290
  496MOL0     C65388   0.018   7.459   6.249 -0.0588 -0.0918  0.0261
  496MOL0     C65389   0.127   7.369   6.230 -0.0535 -0.0775 -0.9217
  496MOL0     N65390   0.538   6.896   5.728 -0.5493 -0.3669 -0.0102
  496MOL0     N65391   0.606   6.829   5.646  0.2816 -0.1051 -0.1859
  496MOL0     C65392   0.946   5.671   5.605  0.3347  0.2544  1.1415
  496MOL0     C65393   1.040   5.577   5.570 -0.0810 -0.5832  0.4907
  496MOL0     C65394   1.247   5.274   5.349  0.4610 -0.0958  0.4928
  496MOL0     C65395   1.382   5.282   5.366 -0.0650  0.7044  0.0882
  496MOL0     C65396   1.463   5.168   5.336 -0.6517 -0.5044  1.1197
  496MOL0     C65397   1.411   5.040   5.312  0.6161  0.2100 -0.6754
  496MOL0     O65398   1.497   4.939   5.301 -0.0524 -0.2718  0.0010
  496MOL0     C65399   1.495   4.870   5.168  0.2262 -0.5291 -0.7414
  496MOL0     C65400   1.558   4.727   5.191  0.0357 -0.7760 -0.2392
  496MOL0     C65401   1.505   4.661   5.321 -0.6922 -0.5483  0.1710
  496MOL0     C65402   1.470   4.521   5.294 -0.1425 -1.1282 -0.0134
  496MOL0     C65403   1.586   4.430   5.276  0.5214  0.0192 -0.4565
  496MOL0     C65404   1.675   4.352   5.275  0.0024  0.1904  0.4295
  496MOL0     C65405   1.276   5.023   5.309  0.0909  0.2105  0.0901
  496MOL0     C65406   1.191   5.138   5.337  0.5046 -0.1572  0.7619
  496MOL0     H65407   1.166   5.702   5.289  1.6958  2.2365  2.7983
  496MOL0     H65408   0.987   5.876   5.329  1.8576  0.1892 -0.3393
  496MOL0     H65409   0.726   5.905   5.375  0.2394 -1.8701  0.5366
  496MOL0     H65410   0.847   6.021   5.424  0.9796 -0.5119  0.4465
  496MOL0     H65411   0.591   5.986   5.598  0.7727 -2.0095  0.3842
  496MOL0     H65412   0.626   6.091   5.465 -1.4079  1.1606  2.0952
  496MOL0     H65413   0.842   6.128   5.657 -0.1912  0.0980 -0.4820
  496MOL0     H65414   0.683   6.111   5.746  0.4220 -1.1019  0.4352
  496MOL0     H65415   0.753   6.291   5.496 -1.4316  3.0062 -0.4688
  496MOL0     H65416   0.614   6.322   5.608  0.3370  2.3979  0.7427
  496MOL0     H65417   0.898   6.361   5.677  0.2460 -0.8869  0.9401
  496MOL0     H65418   0.764   6.380   5.790  1.9215 -0.4290  0.0503
  496MOL0     H65419   0.673   6.560   5.636  0.7454  2.7245  1.0527
  496MOL0     H65420   0.793   6.534   5.527 -2.0756 -1.5695  0.3392
  496MOL0     H65421   0.826   6.636   5.824  1.9647 -0.4662 -0.1373
  496MOL0     H65422   0.959   6.606   5.713 -0.3830  0.7473  2.8189
  496MOL0     H65423   0.853   6.747   5.539 -0.2732  1.4488 -0.1160
  496MOL0     H65424   0.948   6.807   5.668  1.1052 -1.7411 -1.8226
  496MOL0     H65425   0.837   6.966   5.841 -0.7607 -1.7407  1.9797
  496MOL0     H65426   0.659   7.153   5.910  0.1987 -0.2441  3.5859
  496MOL0     H65427   0.626   7.024   6.018  3.4697 -0.0093 -1.4755
  496MOL0     H65428   0.387   7.112   5.833 -0.6542 -0.4454  0.9772
  496MOL0     H65429   0.432   7.212   5.971  0.7431 -0.0568  2.1150
  496MOL0     H65430   0.367   6.922   6.011 -3.0747  0.0285  0.2859
  496MOL0     H65431   0.416   7.054   6.135 -1.3405  1.4996  0.6830
  496MOL0     H65432   0.172   6.969   6.096  2.2951 -1.2460 -0.5684
  496MOL0     H65433   0.163   7.070   5.963 -3.3784  0.5950  1.4688
  496MOL0     H65434  -0.048   7.118   6.062 -1.9544 -0.7696  0.2896
  496MOL0     H65435  -0.222   7.269   6.099 -0.4698  0.5751  0.6963
  496MOL0     H65436  -0.265   7.796   6.201  0.3418 -1.0458 -2.4007
  496MOL0     H65437  -0.433   7.967   6.246  5.4290 -2.1340 -0.5909
  496MOL0     H65438  -0.881   7.826   6.223 -0.5638  1.9045  1.8393
  496MOL0     H65439  -0.833   7.872   6.066 -3.5950 -2.1619  0.8133
  496MOL0     H65440  -0.870   8.117   6.150 -2.5609  2.3523 -2.5742
  496MOL0     H65441  -0.933   8.058   6.299 -1.5214  3.1147 -2.0398
  496MOL0     H65442  -1.061   8.049   6.033  1.4905  2.4003  0.6970
  496MOL0     H65443  -1.102   8.116   6.179  1.1669  1.0044 -0.8209
  496MOL0     H65444  -1.106   7.827   6.075 -1.8043 -0.7031 -0.5864
  496MOL0     H65445  -1.108   7.834   6.247  0.7542 -1.3962 -1.7858
  496MOL0     H65446  -1.329   7.798   6.130  0.2324  0.6322 -0.8852
  496MOL0     H65447  -1.313   7.960   6.055 -0.0456  0.0373 -1.1822
  496MOL0     H65448  -1.456   7.921   6.256 -0.8883  0.6411  0.9909
  496MOL0     H65449  -1.359   8.073   6.227  2.7207 -0.4469 -0.3593
  496MOL0     H65450  -1.276   7.857   6.428  1.1771 -0.0364  0.3921
  496MOL0     H65451  -1.209   8.027   6.407  0.2894  0.4992 -2.2280
  496MOL0     H65452  -1.350   7.977   6.594  0.9911  0.3779  0.0418
  496MOL0     H65453  -1.491   7.958   6.492  0.3527 -1.5051  0.2379
  496MOL0     H65454  -0.731   7.672   6.115  0.0929  2.2190 -1.0751
  496MOL0     H65455  -0.556   7.516   6.072  0.9020  0.6440 -0.2441
  496MOL0     H65456   0.034   7.556   6.294  1.8868 -0.3544 -0.0319
  496MOL0     H65457   0.217   7.379   6.290  0.1423 -2.5536 -0.6988
  496MOL0     H65458   0.887   5.647   5.693  0.3177 -1.6464  0.6498
  496MOL0     H65459   1.067   5.498   5.639  3.7507  0.7774  0.7640
  496MOL0     H65460   1.426   5.379   5.388 -2.2678  1.6600  0.4956
  496MOL0     H65461   1.571   5.179   5.336 -0.6090 -0.7509 -0.3402
  496MOL0     H65462   1.559   4.926   5.098  0.6968  1.7967  1.3813
  496MOL0     H65463   1.396   4.855   5.125  0.0764 -0.8064 -0.2946
  496MOL0     H65464   1.527   4.677   5.099  4.9641 -1.9831 -1.4932
  496MOL0     H65465   1.667   4.729   5.185  0.0134 -2.8994 -3.9523
  496MOL0     H65466   1.408   4.696   5.357 -1.8177 -1.2046 -2.0529
  496MOL0     H65467   1.576   4.670   5.403  0.5749 -2.6739 -0.6218
  496MOL0     H65468   1.424   4.479   5.383 -0.0907  0.0608  0.5976
  496MOL0     H65469   1.395   4.520   5.214  0.9448 -0.9333 -1.0773
  496MOL0     H65470   1.762   4.292   5.257 -0.6330 -0.8034  0.5894
  496MOL0     H65471   1.240   4.921   5.297 -0.4129  0.4878 -0.8922
  496MOL0     H65472   1.084   5.128   5.322  1.0051 -1.6000 -2.7864
  497MOL0     O65473   7.613   6.953   1.838 -0.3323 -0.2221  0.0487
  497MOL0     C65474   7.715   6.891   1.801  0.3369  0.4541  0.2890
  497MOL0     O65475   7.744   6.851   1.673 -0.1369 -0.3640 -0.0152
  497MOL0     C65476   7.659   6.866   1.566 -0.0224  0.0323  1.4015
  497MOL0     C65477   7.724   6.886   1.443 -0.0739 -0.1114 -0.3397
  497MOL0     C65478   7.651   6.859   1.328 -0.3191 -0.1213  0.7635
  497MOL0     C65479   7.511   6.846   1.328 -1.0792 -0.2340  0.2470
  497MOL0     O65480   7.441   6.836   1.214 -0.2838  0.2210 -0.4892
  497MOL0     C65481   7.470   6.710   1.145 -0.7734 -0.4398 -0.0205
  497MOL0     C65482   7.371   6.670   1.035  0.2191 -0.9577  0.2225
  497MOL0     C65483   7.305   6.527   1.041 -0.3725  0.8486 -0.3902
  497MOL0     C65484   7.201   6.515   0.926  0.3821  0.7388 -0.5121
  497MOL0     C65485   7.255   6.436   0.796  0.3101  0.3786  0.1940
  497MOL0     C65486   7.228   6.281   0.810 -0.0685 -0.8193 -0.5971
  497MOL0     C65487   7.288   6.199   0.699  0.0901  0.0217 -0.1222
  497MOL0     C65488   7.439   6.194   0.698 -0.0474 -0.5535  0.1117
  497MOL0     N65489   7.497   6.134   0.578 -0.2233  1.0244 -0.7763
  497MOL0     C65490   7.517   5.998   0.548 -0.2375 -0.6544  0.3677
  497MOL0     C65491   7.582   6.005   0.423 -0.3182  0.0350 -0.0309
  497MOL0     C65492   7.622   5.892   0.342 -0.1233 -0.1100 -1.6536
  497MOL0     C65493   7.514   5.823   0.276  0.3861 -0.8789  0.9610
  497MOL0     C65494   7.437   5.916   0.174 -0.0581  0.1711  0.1813
  497MOL0     C65495   7.512   5.956   0.053  0.3845 -0.7621  0.3171
  497MOL0     O65496   7.525   5.851  -0.039  0.0016  1.4295  0.6012
  497MOL0     C65497   7.630   5.862  -0.129 -1.0020 -0.3765 -1.1883
  497MOL0     C65498   7.703   5.746  -0.145 -0.6504  0.1095  0.1323
  497MOL0     C65499   7.811   5.746  -0.236  0.1692 -0.1112  0.4503
  497MOL0     C65500   7.864   5.859  -0.305  0.3230 -0.7139 -0.3781
  497MOL0     C65501   7.989   5.861  -0.390  0.1540  0.5578  0.6309
  497MOL0     O65502   8.012   5.960  -0.482  0.1094 -0.0817  0.2881
  497MOL0     C65503   8.129   5.955  -0.552 -0.2963 -0.0918  1.1798
  497MOL0     C65504   8.168   5.841  -0.625  0.4627  1.1082  0.4809
  497MOL0     C65505   8.288   5.831  -0.689  0.1773 -0.1978 -0.4570
  497MOL0     C65506   8.375   5.941  -0.695  0.0092  0.1707  0.1253
  497MOL0     O65507   8.489   5.935  -0.766 -0.0685 -0.2002  0.4982
  497MOL0     C65508   8.587   6.038  -0.775 -0.5243  0.0791  0.0258
  497MOL0     C65509   8.679   6.012  -0.898 -0.9139 -0.0106  0.4073
  497MOL0     C65510   8.783   6.124  -0.915  0.0428  0.1049  0.5013
  497MOL0     C65511   8.830   6.129  -1.065 -0.2207 -0.1246  0.8650
  497MOL0     C65512   8.942   6.221  -1.096 -0.3516 -0.0694  0.0635
  497MOL0     C65513   8.991   6.222  -1.238 -1.4784 -0.5031  0.9206
  497MOL0     C65514   9.123   6.301  -1.258  0.6001  0.0809  0.0774
  497MOL0     C65515   9.116   6.447  -1.206  0.8775 -0.7552 -0.7254
  497MOL0    Cl65516   8.980   6.542  -1.270  0.1695 -0.2505 -0.2210
  497MOL0     C65517   8.339   6.066  -0.631 -0.6923  0.1875  0.5333
  497MOL0     C65518   8.214   6.065  -0.562  0.2552 -0.5674  0.5257
  497MOL0     O65519   8.061   5.763  -0.372 -0.4313 -0.1592 -1.0653
  497MOL0     C65520   7.776   5.971  -0.284 -0.3259 -0.4522 -0.7850
  497MOL0     C65521   7.669   5.967  -0.205  0.2536  0.2063 -0.5364
  497MOL0     N65522   7.601   6.137   0.383 -0.3060  0.4197 -0.0284
  497MOL0     N65523   7.538   6.208   0.466 -1.2943 -0.4636 -0.5154
  497MOL0     C65524   7.442   6.839   1.448  0.1797 -0.0176  0.0289
  497MOL0     C65525   7.518   6.839   1.562 -0.3732  0.1557  0.1378
  497MOL0     C65526   7.812   6.837   1.907 -0.5301 -0.4118  0.1109
  497MOL0     C65527   7.780   6.841   2.049 -0.2144 -0.4343  0.8146
  497MOL0     C65528   7.862   6.777   2.141  0.5223 -0.5523  0.0939
  497MOL0     C65529   7.974   6.714   2.095 -0.5135  1.1918 -0.3990
  497MOL0     O65530   8.062   6.640   2.172 -0.7207 -0.0627  0.5264
  497MOL0     C65531   8.062   6.643   2.316 -0.7379  0.1313  0.9661
  497MOL0     C65532   7.952   6.550   2.367 -0.0701 -0.1874  0.4435
  497MOL0     C65533   7.930   6.418   2.288 -0.8895 -0.8457  0.5664
  497MOL0     C65534   7.839   6.321   2.367 -0.0322 -0.3545 -0.2262
  497MOL0     C65535   7.826   6.202   2.286  0.7018 -0.5306  0.2861
  497MOL0     C65536   7.808   6.111   2.203 -0.5367 -0.0275  0.3037
  497MOL0     C65537   8.016   6.712   1.964  0.2917  0.3301 -0.2582
  497MOL0     C65538   7.938   6.777   1.874  0.1769  0.1565  0.1101
  497MOL0     H65539   7.825   6.926   1.441 -0.3953  0.6742 -1.4845
  497MOL0     H65540   7.695   6.867   1.229 -1.1160 -1.2709  0.3007
  497MOL0     H65541   7.464   6.622   1.210  0.3971 -1.4377 -1.2238
  497MOL0     H65542   7.572   6.699   1.110 -1.4248 -3.8758 -1.2319
  497MOL0     H65543   7.409   6.694   0.936  3.3211 -1.6284  1.1320
  497MOL0     H65544   7.285   6.737   1.044  0.7644 -0.2237  0.0866
  497MOL0     H65545   7.264   6.531   1.142 -1.8420  3.3660 -0.9866
  497MOL0     H65546   7.385   6.454   1.031  0.6452  2.2280 -3.8787
  497MOL0     H65547   7.099   6.490   0.957  0.6389  2.1136  1.6179
  497MOL0     H65548   7.181   6.617   0.892 -2.4714  1.0719  1.8098
  497MOL0     H65549   7.358   6.466   0.775  0.4574 -0.6667 -0.6672
  497MOL0     H65550   7.195   6.465   0.710 -0.5800 -0.2045  0.5955
  497MOL0     H65551   7.121   6.260   0.815  0.0704 -1.2624  0.9835
  497MOL0     H65552   7.257   6.244   0.909  0.0404  1.6320  0.3612
  497MOL0     H65553   7.245   6.100   0.714 -0.3860  0.2978  0.3637
  497MOL0     H65554   7.256   6.245   0.605 -3.2012  1.8520  1.6936
  497MOL0     H65555   7.467   6.136   0.786  0.7069  0.9899  0.9254
  497MOL0     H65556   7.476   6.297   0.706 -3.4400  1.3011 -4.0472
  497MOL0     H65557   7.467   5.920   0.604 -0.9057  1.7727  3.4153
  497MOL0     H65558   7.656   5.813   0.410 -1.9036  0.3633 -0.1419
  497MOL0     H65559   7.708   5.920   0.281  2.4600 -0.4929  1.5659
  497MOL0     H65560   7.438   5.789   0.348 -2.6202  0.0558 -1.5453
  497MOL0     H65561   7.539   5.733   0.219  0.8522 -0.9344  1.2518
  497MOL0     H65562   7.349   5.861   0.142 -0.7537  1.1584  0.3569
  497MOL0     H65563   7.409   6.010   0.222  2.3053  0.3799  1.3113
  497MOL0     H65564   7.612   5.991   0.082  1.1198 -1.8725 -0.7704
  497MOL0     H65565   7.468   6.045   0.005 -2.3872 -0.5818  2.8895
  497MOL0     H65566   7.672   5.648  -0.110 -1.7100  0.3813  0.0005
  497MOL0     H65567   7.854   5.647  -0.243  0.9527  0.1370  1.5967
  497MOL0     H65568   8.124   5.743  -0.610  1.7251  0.0665 -1.9905
  497MOL0     H65569   8.326   5.743  -0.739 -1.6010  0.2748 -2.8416
  497MOL0     H65570   8.643   6.038  -0.681 -0.3472  0.3720 -0.0789
  497MOL0     H65571   8.539   6.136  -0.786 -1.2437 -0.0343  1.8106
  497MOL0     H65572   8.615   6.016  -0.987  1.8115  0.4428 -1.6624
  497MOL0     H65573   8.731   5.917  -0.887  3.2195  2.0286  0.2369
  497MOL0     H65574   8.867   6.110  -0.847 -1.9046 -0.3512  2.9690
  497MOL0     H65575   8.733   6.221  -0.902  1.2007  0.8721 -0.5962
  497MOL0     H65576   8.862   6.028  -1.094 -0.8251  0.4522 -2.2400
  497MOL0     H65577   8.750   6.157  -1.136 -0.6626 -0.6336  1.1532
  497MOL0     H65578   9.029   6.187  -1.041 -0.7697 -0.3588  0.5506
  497MOL0     H65579   8.908   6.320  -1.064 -0.9023 -0.5071  0.8679
  497MOL0     H65580   8.918   6.256  -1.312  1.8566 -0.0118 -2.4380
  497MOL0     H65581   9.015   6.118  -1.261 -2.2051 -0.2163 -1.3983
  497MOL0     H65582   9.208   6.250  -1.212 -0.4340 -2.2533 -0.4499
  497MOL0     H65583   9.138   6.304  -1.366 -2.2591  1.0311 -0.3642
  497MOL0     H65584   9.209   6.493  -1.242  0.4438 -0.4570 -1.4741
  497MOL0     H65585   9.111   6.456  -1.097 -1.9199 -1.6333 -0.6991
  497MOL0     H65586   8.404   6.153  -0.627  3.5038 -2.3599 -2.7827
  497MOL0     H65587   8.183   6.160  -0.520  0.3140  0.4204 -1.5571
  497MOL0     H65588   7.790   6.068  -0.331 -1.9007  0.3963  0.3839
  497MOL0     H65589   7.601   6.050  -0.221 -0.1289 -0.2041 -1.0628
  497MOL0     H65590   7.334   6.836   1.448  0.1627  0.5082  0.9115
  497MOL0     H65591   7.462   6.802   1.648 -0.1177 -1.2360 -0.2806
  497MOL0     H65592   7.683   6.879   2.076 -1.6365 -2.4761 -1.0644
  497MOL0     H65593   7.840   6.792   2.246  1.0905 -0.1852  0.1634
  497MOL0     H65594   8.042   6.742   2.357 -4.5170 -0.6445  1.3537
  497MOL0     H65595   8.162   6.614   2.352  0.8319 -1.1535 -3.7481
  497MOL0     H65596   7.967   6.538   2.475 -2.2430  0.4059  0.8529
  497MOL0     H65597   7.863   6.612   2.370 -2.0866 -2.9128  1.6986
  497MOL0     H65598   8.022   6.364   2.266  0.1309  0.3427  1.7424
  497MOL0     H65599   7.882   6.442   2.193 -1.5326  4.1275  1.8766
  497MOL0     H65600   7.874   6.293   2.467 -0.0972  0.0552 -0.0895
  497MOL0     H65601   7.748   6.376   2.391  1.3965  2.3255 -0.5318
  497MOL0     H65602   7.779   6.029   2.141  0.1269 -1.1080  1.3839
  497MOL0     H65603   8.105   6.652   1.943 -0.7115 -1.3450  0.0605
  497MOL0     H65604   7.970   6.780   1.771  2.2327 -3.0481  0.5009
  498MOL0     O65605   6.221   3.540   4.669 -0.7069 -0.0487 -0.2657
  498MOL0     C65606   6.266   3.468   4.758 -0.1057 -0.1008 -0.0627
  498MOL0     O65607   6.197   3.430   4.872  0.0734  0.7821  0.5395
  498MOL0     C65608   6.057   3.447   4.869 -0.2215 -0.1581  0.6776
  498MOL0     C65609   5.978   3.382   4.771 -0.2744  0.6806  0.9624
  498MOL0     C65610   5.839   3.400   4.771  0.5460 -0.8037  0.2170
  498MOL0     C65611   5.776   3.491   4.854 -0.0489  0.1195 -0.8146
  498MOL0     O65612   5.639   3.492   4.845 -0.2185  1.0006 -0.3364
  498MOL0     C65613   5.571   3.602   4.901 -0.5972  1.0030  0.8164
  498MOL0     C65614   5.430   3.596   4.844 -0.3498  0.0154 -0.5395
  498MOL0     C65615   5.411   3.644   4.701  0.2594 -0.4856 -0.2733
  498MOL0     C65616   5.456   3.796   4.694  0.2992 -0.0287  0.3604
  498MOL0     C65617   5.437   3.849   4.549 -0.4458  0.4668 -0.7949
  498MOL0     C65618   5.423   3.998   4.546  0.6151 -0.3446 -0.8853
  498MOL0     C65619   5.346   4.043   4.424  0.2687  0.1085 -0.2073
  498MOL0     C65620   5.343   4.195   4.428  0.0027  1.0920  0.3935
  498MOL0     N65621   5.262   4.256   4.321  0.2643  1.5454  0.1247
  498MOL0     C65622   5.304   4.335   4.223 -0.4694 -0.5662 -0.0168
  498MOL0     C65623   5.199   4.335   4.136  0.2057  0.2712  0.3863
  498MOL0     C65624   5.183   4.415   4.007  0.2939 -0.2210  0.0358
  498MOL0     C65625   5.247   4.330   3.892 -0.4055  0.8201 -0.2453
  498MOL0     C65626   5.403   4.341   3.892 -0.6681 -0.9642  0.6108
  498MOL0     C65627   5.451   4.334   3.751  0.0001  0.3038  0.2506
  498MOL0     O65628   5.435   4.200   3.698  0.2646 -0.2071 -0.8842
  498MOL0     C65629   5.325   4.166   3.612 -0.4677  0.0950 -0.8055
  498MOL0     C65630   5.316   4.032   3.578  0.6208  0.7311  0.3205
  498MOL0     C65631   5.213   3.997   3.493 -1.3626  0.6776 -0.1190
  498MOL0     C65632   5.121   4.090   3.447  0.3189 -0.6523  0.5298
  498MOL0     C65633   5.011   4.049   3.360 -0.9855 -0.0071  0.3854
  498MOL0     O65634   4.968   4.151   3.289  0.3670  0.1727 -0.4961
  498MOL0     C65635   4.849   4.160   3.210 -0.2556 -0.3233  0.9338
  498MOL0     C65636   4.774   4.055   3.165  0.2030 -0.2622 -0.2105
  498MOL0     C65637   4.666   4.068   3.072  0.0767  0.4457 -1.3076
  498MOL0     C65638   4.620   4.188   3.033  0.0586  0.0412  0.7536
  498MOL0     O65639   4.515   4.207   2.948 -0.0215 -0.7493  0.4621
  498MOL0     C65640   4.442   4.095   2.895  0.0784  0.5571 -0.1267
  498MOL0     C65641   4.321   4.150   2.809 -0.1638  0.2830  0.1730
  498MOL0     C65642   4.247   4.042   2.733 -0.1240 -0.5012  0.1437
  498MOL0     C65643   4.141   4.096   2.637 -0.2656 -0.7174 -0.4320
  498MOL0     C65644   4.086   3.985   2.565  0.4166 -0.6828  0.8511
  498MOL0     C65645   3.966   4.029   2.482 -0.0817 -0.1781 -0.7533
  498MOL0     C65646   3.976   4.132   2.373 -0.5893  0.1976  0.2860
  498MOL0     C65647   3.868   4.131   2.276 -0.2711 -0.8636  0.0958
  498MOL0    Cl65648   3.938   4.207   2.122 -0.0920 -0.1451 -0.3834
  498MOL0     C65649   4.704   4.295   3.071 -0.1635  0.0644  0.1898
  498MOL0     C65650   4.819   4.280   3.150  0.3150  0.2892  0.3681
  498MOL0     O65651   4.976   3.935   3.351  1.1459  0.3389 -0.9340
  498MOL0     C65652   5.142   4.220   3.477 -0.0926 -0.7139  0.6761
  498MOL0     C65653   5.245   4.267   3.557 -0.4514 -1.0602  1.2471
  498MOL0     N65654   5.096   4.254   4.187 -1.3947 -0.1237  0.5653
  498MOL0     N65655   5.125   4.221   4.309  0.1689 -1.1596  0.0661
  498MOL0     C65656   5.854   3.553   4.953  0.5956 -0.2341  0.0235
  498MOL0     C65657   5.992   3.536   4.956  0.8393  0.4459 -0.9486
  498MOL0     C65658   6.406   3.419   4.738 -0.3880 -0.8212 -0.7082
  498MOL0     C65659   6.470   3.358   4.855  0.1987 -1.5455  0.6778
  498MOL0     C65660   6.596   3.311   4.841  0.2522 -0.2854 -0.3496
  498MOL0     C65661   6.664   3.313   4.713  0.5671 -0.7142 -0.7170
  498MOL0     O65662   6.797   3.277   4.720  0.0969  0.5405 -0.0938
  498MOL0     C65663   6.848   3.251   4.595  0.5124  0.1171 -0.0387
  498MOL0     C65664   6.978   3.167   4.624  0.5044  0.7687  0.6374
  498MOL0     C65665   7.043   3.123   4.485 -0.5496 -0.3793 -0.0483
  498MOL0     C65666   6.954   3.048   4.389 -0.8015  0.0306  0.3388
  498MOL0     C65667   6.919   2.913   4.424  0.2274  1.2595 -0.2237
  498MOL0     C65668   6.900   2.794   4.433  0.0371  0.0207 -0.8136
  498MOL0     C65669   6.604   3.377   4.609  0.7801 -0.7783 -0.6919
  498MOL0     C65670   6.476   3.435   4.624 -0.4687  0.3954  0.5440
  498MOL0     H65671   6.028   3.315   4.701 -1.4390 -2.2332  2.7171
  498MOL0     H65672   5.768   3.353   4.704 -1.3165 -0.2908  1.7499
  498MOL0     H65673   5.614   3.697   4.870 -0.5188 -0.4277 -4.2497
  498MOL0     H65674   5.565   3.580   5.008  1.0290  1.2453  0.9746
  498MOL0     H65675   5.368   3.664   4.903  0.1850  0.0324  0.0100
  498MOL0     H65676   5.404   3.489   4.847 -3.8654  0.7607  0.0117
  498MOL0     H65677   5.311   3.624   4.660  0.6322 -1.1186 -0.9063
  498MOL0     H65678   5.482   3.591   4.636 -0.3128 -1.0648 -0.4347
  498MOL0     H65679   5.388   3.862   4.750  1.0371  0.9283  0.1599
  498MOL0     H65680   5.560   3.804   4.726  1.5925 -2.0114 -2.8688
  498MOL0     H65681   5.342   3.809   4.513 -0.7575  0.0222  0.4765
  498MOL0     H65682   5.516   3.812   4.483 -2.0532 -3.2380 -0.8892
  498MOL0     H65683   5.524   4.036   4.527  1.5083 -1.1201  1.8432
  498MOL0     H65684   5.381   4.050   4.633  1.5210  1.2533 -1.3532
  498MOL0     H65685   5.403   3.998   4.342  1.0031  0.8870 -0.1410
  498MOL0     H65686   5.248   3.995   4.422 -0.2325  0.9946  1.3560
  498MOL0     H65687   5.441   4.242   4.416 -0.3892  2.5342  2.5026
  498MOL0     H65688   5.303   4.221   4.526 -2.3566 -1.3158  0.2031
  498MOL0     H65689   5.392   4.398   4.225  0.3871 -1.7442  1.4356
  498MOL0     H65690   5.224   4.517   4.012 -2.0767  0.7916  0.5412
  498MOL0     H65691   5.076   4.431   3.989  0.7278  2.3709 -0.6543
  498MOL0     H65692   5.210   4.378   3.801  0.5674 -0.6877 -1.4877
  498MOL0     H65693   5.217   4.226   3.903  1.9169 -0.2133 -2.4427
  498MOL0     H65694   5.421   4.440   3.937 -1.3519 -0.8710  0.6885
  498MOL0     H65695   5.451   4.270   3.960  1.4409  0.0786  0.3113
  498MOL0     H65696   5.560   4.342   3.760  0.1484 -2.6980  2.5320
  498MOL0     H65697   5.413   4.416   3.690 -1.8357 -1.4068 -1.0068
  498MOL0     H65698   5.388   3.957   3.609 -1.6389 -1.4846  0.5736
  498MOL0     H65699   5.216   3.900   3.446  0.2261  2.2570 -3.6745
  498MOL0     H65700   4.790   3.955   3.204  0.9096  0.3886  1.2564
  498MOL0     H65701   4.615   3.973   3.058 -1.3808  0.2589  3.4805
  498MOL0     H65702   4.406   4.036   2.980  0.6661 -1.0524 -0.9461
  498MOL0     H65703   4.508   4.034   2.833  1.7222  0.0007  2.0424
  498MOL0     H65704   4.345   4.235   2.744 -2.2656 -0.0494 -1.1048
  498MOL0     H65705   4.253   4.185   2.887  1.1569 -0.0897  1.5565
  498MOL0     H65706   4.187   3.982   2.802  0.5558  1.0027  2.1410
  498MOL0     H65707   4.323   3.993   2.671 -1.2750 -1.6619 -0.3935
  498MOL0     H65708   4.068   4.153   2.695  0.1959 -0.1228 -0.4236
  498MOL0     H65709   4.185   4.174   2.574  1.6802 -0.6517  0.8978
  498MOL0     H65710   4.045   3.908   2.631  0.7946 -0.7553  1.0063
  498MOL0     H65711   4.161   3.951   2.493  0.4439  0.0315  0.5328
  498MOL0     H65712   3.888   4.068   2.548  1.0046  5.2380 -2.1930
  498MOL0     H65713   3.926   3.938   2.436 -0.4618  0.5575 -1.9275
  498MOL0     H65714   4.002   4.229   2.416  2.3931 -0.8569  1.0940
  498MOL0     H65715   4.062   4.118   2.307  0.3091  1.9892  0.9959
  498MOL0     H65716   3.786   4.195   2.309  0.3784 -1.7059  3.8176
  498MOL0     H65717   3.831   4.028   2.265 -1.1014 -0.4546 -1.1506
  498MOL0     H65718   4.677   4.391   3.027  0.3965  0.6167  1.0206
  498MOL0     H65719   4.880   4.363   3.185  1.3003 -0.7290  1.1251
  498MOL0     H65720   5.082   4.295   3.428  0.7573 -1.1052 -1.0621
  498MOL0     H65721   5.261   4.374   3.567  2.4921 -1.1748 -0.9506
  498MOL0     H65722   5.803   3.608   5.031 -2.0730  0.5217 -2.1082
  498MOL0     H65723   6.046   3.593   5.031 -2.1737  0.1611  1.6560
  498MOL0     H65724   6.412   3.365   4.947 -1.0929 -0.9752 -0.1631
  498MOL0     H65725   6.643   3.276   4.932  1.1003  2.6549  0.4528
  498MOL0     H65726   6.869   3.342   4.537 -1.9694 -0.2029 -1.6082
  498MOL0     H65727   6.775   3.192   4.540 -0.4028  1.0338  0.1615
  498MOL0     H65728   7.044   3.233   4.681 -2.2629  3.8090  0.6432
  498MOL0     H65729   6.961   3.083   4.692  0.5592 -0.0479 -0.3304
  498MOL0     H65730   7.131   3.062   4.507 -0.8421 -0.7374  0.1473
  498MOL0     H65731   7.075   3.217   4.441 -0.9578  0.8016  2.0297
  498MOL0     H65732   6.863   3.104   4.368  0.4482  1.4760 -1.6736
  498MOL0     H65733   7.018   3.056   4.300  2.3688  2.7870  2.6111
  498MOL0     H65734   6.895   2.696   4.475 -2.6274  0.5381  0.2774
  498MOL0     H65735   6.650   3.383   4.511 -1.5678  0.7800 -1.8069
  498MOL0     H65736   6.416   3.468   4.540 -1.2799  0.4419  1.1294
  499MOL0     O65737   9.048   8.411  10.141 -0.3809  0.3158 -0.0596
  499MOL0     C65738   9.074   8.294  10.189 -0.2609 -0.4696 -0.0279
  499MOL0     O65739   9.173   8.271  10.285 -0.2649  0.2976 -0.3827
  499MOL0     C65740   9.240   8.383  10.321  0.0432  0.4024 -0.0361
  499MOL0     C65741   9.198   8.477  10.413  0.4612  0.3893 -0.3049
  499MOL0     C65742   9.274   8.583  10.462  0.1505  0.2736  0.0571
  499MOL0     C65743   9.401   8.599  10.403 -0.6202 -0.5371  0.2351
  499MOL0     O65744   9.502   8.687  10.443  0.1366  0.1139 -0.0245
  499MOL0     C65745   9.460   8.803  10.513  1.0500  0.3037  0.1100
  499MOL0     C65746   9.576   8.892  10.548 -0.0516 -0.1866 -0.6724
  499MOL0     C65747   9.689   8.810  10.621  0.4040 -0.1702  0.1832
  499MOL0     C65748   9.649   8.799  10.767  0.3753  0.4678  0.0576
  499MOL0     C65749   9.672   8.927  10.857 -0.4698  0.3412  0.0871
  499MOL0     C65750   9.821   8.987  10.877  0.5681 -0.0112  0.3504
  499MOL0     C65751   9.825   9.109  10.965  0.4281  0.4804  0.3971
  499MOL0     C65752   9.771   9.233  10.888 -1.3006  0.2325 -0.0490
  499MOL0     N65753   9.868   9.273  10.784  0.3648 -0.0204 -0.4176
  499MOL0     C65754  10.006   9.299  10.813  0.4795  0.2195 -0.2189
  499MOL0     C65755  10.062   9.307  10.696  0.4517  0.6377 -0.0250
  499MOL0     C65756  10.201   9.343  10.655 -0.6847 -0.6667  0.1553
  499MOL0     C65757  10.299   9.217  10.671  0.3662  0.1166 -0.0381
  499MOL0     C65758  10.249   9.092  10.597  1.1875 -0.3830  0.4875
  499MOL0     C65759  10.346   8.979  10.623  0.8633 -0.3668  0.5947
  499MOL0     O65760  10.300   8.863  10.547  0.4314 -0.6691 -0.8672
  499MOL0     C65761  10.222   8.762  10.600 -0.2673 -0.2081  0.6087
  499MOL0     C65762  10.156   8.770  10.723 -0.1769 -0.0744  0.5141
  499MOL0     C65763  10.077   8.662  10.770 -0.8732  0.5828 -0.1709
  499MOL0     C65764  10.070   8.544  10.691  0.3189  0.5870 -0.1004
  499MOL0     C65765   9.994   8.421  10.739 -0.3563 -0.8890  0.1589
  499MOL0     O65766   9.993   8.315  10.660  0.6168 -0.2059 -0.7623
  499MOL0     C65767   9.947   8.202  10.708 -0.0423  1.2479 -1.7548
  499MOL0     C65768   9.814   8.180  10.739  0.0809  0.3984 -0.0058
  499MOL0     C65769   9.771   8.047  10.783 -0.0368 -0.7921  0.5979
  499MOL0     C65770   9.867   7.953  10.816  0.2680 -0.0870 -0.1816
  499MOL0     O65771   9.830   7.828  10.871  0.4176  0.1238 -0.4792
  499MOL0     C65772   9.685   7.798  10.865  0.2281  0.6037 -0.1838
  499MOL0     C65773   9.675   7.651  10.907 -0.3652 -0.2545  0.1724
  499MOL0     C65774   9.537   7.634  10.957 -0.0064 -0.0806  0.0227
  499MOL0     C65775   9.517   7.483  10.976  0.2634 -0.2700  0.3502
  499MOL0     C65776   9.377   7.462  11.031 -0.3248  0.6119  0.4141
  499MOL0     C65777   9.351   7.311  11.054 -0.9136  0.0184  0.2402
  499MOL0     C65778   9.226   7.297  11.149  0.3124 -0.1694  0.3525
  499MOL0     C65779   9.172   7.158  11.158 -0.4087  0.1942 -0.0481
  499MOL0    Cl65780   9.027   7.162  11.255  0.0748  0.2304  0.6290
  499MOL0     C65781  10.010   7.981  10.797 -0.2145 -0.0693  0.2394
  499MOL0     C65782  10.050   8.104  10.745 -0.0413  0.4057  0.2321
  499MOL0     O65783   9.942   8.434  10.850  1.4332 -1.0974 -0.2815
  499MOL0     C65784  10.151   8.535  10.576 -0.1090 -0.3215  0.4849
  499MOL0     C65785  10.228   8.644  10.535 -0.0202  0.5847  0.1520
  499MOL0     N65786   9.971   9.271  10.598  0.7512  0.6071  0.5403
  499MOL0     N65787   9.853   9.255  10.654  0.0676  0.3213  0.3878
  499MOL0     C65788   9.439   8.513  10.299 -0.3822 -0.6511  1.1718
  499MOL0     C65789   9.358   8.405  10.255 -0.1395 -0.6382 -0.4493
  499MOL0     C65790   8.998   8.179  10.131  0.1140  0.3579 -0.2071
  499MOL0     C65791   8.874   8.198  10.062 -1.0151  0.3687  1.1139
  499MOL0     C65792   8.819   8.080   9.999 -0.7733 -0.1855 -0.5946
  499MOL0     C65793   8.873   7.952  10.011 -0.3914 -0.4041  0.4678
  499MOL0     O65794   8.809   7.845   9.953 -0.4504 -0.8683 -0.0391
  499MOL0     C65795   8.817   7.718  10.009  0.6619 -0.0189 -0.4161
  499MOL0     C65796   8.693   7.638   9.960  1.0045  0.2990  0.4773
  499MOL0     C65797   8.708   7.595   9.816  0.3168  0.4275 -0.6804
  499MOL0     C65798   8.575   7.550   9.754  1.2295 -0.2829  0.8095
  499MOL0     C65799   8.465   7.647   9.746 -0.7510 -0.5227 -0.6974
  499MOL0     C65800   8.366   7.711   9.736 -0.2307  0.8931 -0.4837
  499MOL0     C65801   9.001   7.937  10.076 -0.4113 -0.3288  0.0582
  499MOL0     C65802   9.063   8.051  10.134  0.3244 -0.2166 -0.8273
  499MOL0     H65803   9.093   8.469  10.441  0.9858 -2.5333  1.2440
  499MOL0     H65804   9.244   8.661  10.531  1.2133  2.5394 -1.9301
  499MOL0     H65805   9.410   8.766  10.602 -0.2825 -0.8510 -1.0691
  499MOL0     H65806   9.389   8.857  10.450  1.7226 -1.6553 -2.5246
  499MOL0     H65807   9.544   8.972  10.616  1.4792  0.3591 -0.5604
  499MOL0     H65808   9.614   8.938  10.457  1.9489 -0.5159 -0.0510
  499MOL0     H65809   9.780   8.869  10.604 -0.9263  1.6916 -0.9821
  499MOL0     H65810   9.701   8.711  10.577 -1.1775 -0.9298  1.3848
  499MOL0     H65811   9.546   8.765  10.767  1.0661 -2.1210 -2.9817
  499MOL0     H65812   9.720   8.721  10.796 -1.4690 -0.6962  1.6546
  499MOL0     H65813   9.632   8.891  10.952 -2.2511  0.1193 -0.6975
  499MOL0     H65814   9.604   9.005  10.821 -1.1821  1.1003  2.8446
  499MOL0     H65815   9.870   9.018  10.784  1.1569  0.5652  0.8464
  499MOL0     H65816   9.886   8.907  10.915 -1.5859 -1.0813  2.0622
  499MOL0     H65817   9.756   9.086  11.046 -0.6623  0.8114 -0.4157
  499MOL0     H65818   9.929   9.119  10.997  1.4763 -0.5760 -2.3385
  499MOL0     H65819   9.752   9.314  10.959  2.1247  0.7857  0.3997
  499MOL0     H65820   9.678   9.202  10.838 -0.9939 -1.7389  0.5001
  499MOL0     H65821  10.050   9.314  10.911  0.4037  0.4978 -0.2264
  499MOL0     H65822  10.230   9.433  10.711 -0.9989 -1.1188  1.0661
  499MOL0     H65823  10.195   9.374  10.550 -0.5086 -2.0766 -0.2918
  499MOL0     H65824  10.296   9.189  10.777 -4.3965 -2.6104 -0.6150
  499MOL0     H65825  10.399   9.259  10.654  0.6481 -0.5717 -0.1173
  499MOL0     H65826  10.149   9.073  10.637  0.9470  1.5288  0.9142
  499MOL0     H65827  10.249   9.116  10.490  2.6570 -0.0919  0.5379
  499MOL0     H65828  10.353   8.941  10.725 -0.4098 -0.2714  0.7254
  499MOL0     H65829  10.440   9.021  10.585  1.7495 -2.8263 -0.1500
  499MOL0     H65830  10.141   8.862  10.777 -1.2682 -0.2781  0.5901
  499MOL0     H65831  10.031   8.666  10.869  1.1526 -0.1110  0.8496
  499MOL0     H65832   9.732   8.249  10.724 -0.0032  0.0619 -1.2664
  499MOL0     H65833   9.666   8.032  10.806  0.0247 -1.2845  0.5723
  499MOL0     H65834   9.649   7.812  10.763 -0.1739  0.5968 -0.0473
  499MOL0     H65835   9.627   7.865  10.929  0.0690  0.2362  0.0622
  499MOL0     H65836   9.747   7.623  10.984 -3.7199 -0.0732  3.6390
  499MOL0     H65837   9.695   7.597  10.814  1.8093  1.9889 -0.7807
  499MOL0     H65838   9.466   7.678  10.888  1.4083  0.7288 -0.9623
  499MOL0     H65839   9.538   7.682  11.056 -0.1219 -4.3498  2.3717
  499MOL0     H65840   9.511   7.438  10.876 -1.9687 -0.1574  0.3831
  499MOL0     H65841   9.597   7.430  11.028 -0.4605  0.1396  1.9308
  499MOL0     H65842   9.307   7.513  10.964  1.0475 -0.2843 -1.8099
  499MOL0     H65843   9.378   7.515  11.128  5.5853  2.7248 -0.4085
  499MOL0     H65844   9.439   7.262  11.097  2.3955  2.6193 -2.9463
  499MOL0     H65845   9.320   7.270  10.957 -0.3007  1.3795 -0.5607
  499MOL0     H65846   9.248   7.325  11.253 -2.7912  0.4649  0.9235
  499MOL0     H65847   9.145   7.356  11.106 -0.0150  1.5177  3.0159
  499MOL0     H65848   9.248   7.094  11.202 -1.7559 -0.7416  1.0151
  499MOL0     H65849   9.137   7.120  11.061 -0.2801  1.1638 -0.4824
  499MOL0     H65850  10.090   7.915  10.829 -0.1813  0.5926  1.5695
  499MOL0     H65851  10.155   8.115  10.722 -0.7911  1.4230 -3.2293
  499MOL0     H65852  10.160   8.445  10.516 -1.0575 -0.0069 -0.1487
  499MOL0     H65853  10.289   8.632  10.446 -1.8396 -0.8576 -0.9803
  499MOL0     H65854   9.529   8.536  10.243 -1.4765  1.3067  0.1474
  499MOL0     H65855   9.383   8.334  10.177 -2.2363 -2.3847  0.3688
  499MOL0     H65856   8.818   8.291  10.050 -1.1951  0.3231  1.5642
  499MOL0     H65857   8.722   8.102   9.954  0.4591  3.8916 -1.7426
  499MOL0     H65858   8.820   7.743  10.115 -0.6723  0.1735 -0.4065
  499MOL0     H65859   8.912   7.671   9.981  1.6023  0.3684  1.8884
  499MOL0     H65860   8.704   7.547  10.020  0.7752 -1.2398 -1.6949
  499MOL0     H65861   8.595   7.682   9.977 -1.2893 -4.0931  0.0393
  499MOL0     H65862   8.783   7.519   9.792  0.6566  0.3984  0.4149
  499MOL0     H65863   8.738   7.684   9.760 -0.2918  1.7071  0.9426
  499MOL0     H65864   8.611   7.527   9.653 -1.1250  2.5538 -0.8287
  499MOL0     H65865   8.535   7.457   9.795 -0.6446  0.9782  2.0012
  499MOL0     H65866   8.271   7.760   9.728 -2.2495 -2.7752 -1.2225
  499MOL0     H65867   9.050   7.840  10.077  1.7832  0.7033 -0.0182
  499MOL0     H65868   9.164   8.034  10.170 -0.1197 -1.2079  0.0105
  500MOL0     O65869   7.582  10.113   8.811  0.1225  0.1199  0.0640
  500MOL0     C65870   7.545  10.049   8.712  0.0377  0.3647  0.4434
  500MOL0     O65871   7.570   9.911   8.690 -0.4294  0.4483  0.0216
  500MOL0     C65872   7.649   9.837   8.775  1.1243  0.3811  0.8535
  500MOL0     C65873   7.773   9.890   8.812  0.5283  0.6345  0.5858
  500MOL0     C65874   7.867   9.817   8.876 -0.9384 -0.7254  0.6143
  500MOL0     C65875   7.838   9.692   8.924 -1.3475 -0.4315  0.6151
  500MOL0     O65876   7.928   9.628   9.006  0.2391  0.1868  0.5636
  500MOL0     C65877   8.071   9.656   8.991  0.6188  0.0084 -0.7005
  500MOL0     C65878   8.134   9.580   9.102  1.1452  0.4238 -0.5521
  500MOL0     C65879   8.278   9.535   9.090 -0.0538 -0.2055 -0.2616
  500MOL0     C65880   8.306   9.454   8.969  0.4533  0.8230 -0.3315
  500MOL0     C65881   8.458   9.429   8.960  0.3134  0.5480  0.5971
  500MOL0     C65882   8.521   9.331   9.054  0.6858  0.5397  0.9403
  500MOL0     C65883   8.579   9.198   9.005 -0.4602 -0.0462  0.4524
  500MOL0     C65884   8.625   9.102   9.118 -0.6883 -0.3650 -0.9988
  500MOL0     N65885   8.675   8.974   9.070 -0.2557  0.9960 -0.1393
  500MOL0     C65886   8.807   8.934   9.083  0.2465  0.8992  0.0933
  500MOL0     C65887   8.799   8.805   9.036 -0.6780 -0.2314  0.2909
  500MOL0     C65888   8.917   8.716   9.055 -0.2185 -0.0491 -0.3255
  500MOL0     C65889   8.904   8.641   9.186 -0.1007 -0.1064 -0.7347
  500MOL0     C65890   9.007   8.527   9.202 -0.3993 -0.0796 -0.7454
  500MOL0     C65891   9.119   8.570   9.289  0.5468  1.1238  0.2311
  500MOL0     O65892   9.168   8.698   9.250 -0.4037 -0.8692 -0.4870
  500MOL0     C65893   9.296   8.721   9.282 -0.3222 -0.8088  0.0407
  500MOL0     C65894   9.370   8.672   9.394  0.6693  0.3746 -0.0780
  500MOL0     C65895   9.499   8.689   9.409  0.1312  0.8344 -0.7145
  500MOL0     C65896   9.571   8.784   9.330  0.3759 -1.0137  0.4531
  500MOL0     C65897   9.720   8.795   9.339 -0.9472 -0.0331 -0.4152
  500MOL0     O65898   9.778   8.889   9.265 -0.2569 -2.2314  0.1449
  500MOL0     C65899   9.907   8.899   9.281  0.7070  0.3417  0.6014
  500MOL0     C65900   9.984   9.000   9.341 -0.2482 -0.3715 -0.4550
  500MOL0     C65901  10.119   8.993   9.357 -0.2013  0.3511 -0.1872
  500MOL0     C65902  10.192   8.885   9.309  1.2379 -0.5655  0.1978
  500MOL0     O65903  10.326   8.895   9.350  0.4267  0.4822  0.7192
  500MOL0     C65904  10.402   8.779   9.322 -0.4813  0.3841 -0.0718
  500MOL0     C65905  10.542   8.822   9.358  0.7302  0.2166 -0.1784
  500MOL0     C65906  10.627   8.707   9.406  0.0329 -0.0621  0.5673
  500MOL0     C65907  10.763   8.746   9.459  0.5514 -0.1368 -0.2224
  500MOL0     C65908  10.831   8.624   9.522  0.2233  0.2208  0.6361
  500MOL0     C65909  10.883   8.536   9.412  0.3073  0.3132  0.3420
  500MOL0     C65910  10.933   8.403   9.464 -0.4896 -0.5421 -0.9256
  500MOL0     C65911  10.992   8.325   9.345  0.3727  0.4175  0.0340
  500MOL0    Cl65912  11.113   8.400   9.245 -0.6919  0.1009  0.3122
  500MOL0     C65913  10.114   8.784   9.231 -0.1061 -0.3564 -1.7132
  500MOL0     C65914   9.978   8.802   9.208  0.1452 -0.0084  0.1098
  500MOL0     O65915   9.774   8.722   9.425 -0.4287  0.1928  0.1853
  500MOL0     C65916   9.494   8.852   9.228  0.1641  0.2284  0.7665
  500MOL0     C65917   9.363   8.812   9.201  0.7115  0.5266  0.2536
  500MOL0     N65918   8.671   8.773   8.985  0.1335  0.6724 -0.5864
  500MOL0     N65919   8.598   8.869   9.010  0.8090 -0.3658  0.1900
  500MOL0     C65920   7.716   9.634   8.876 -0.4646 -1.2255 -0.3632
  500MOL0     C65921   7.624   9.704   8.803 -0.0623  0.5476 -0.1643
  500MOL0     C65922   7.453  10.124   8.616 -0.3237  0.3270  0.1659
  500MOL0     C65923   7.402  10.260   8.642  0.1084  0.3131 -0.8303
  500MOL0     C65924   7.304  10.314   8.564  1.4826  0.1697 -0.0910
  500MOL0     C65925   7.252  10.245   8.458 -0.3770 -0.2204 -0.2773
  500MOL0     O65926   7.167  10.302   8.374 -0.5136  0.3218 -0.5071
  500MOL0     C65927   7.026  10.313   8.412  0.1727  0.4348  0.4643
  500MOL0     C65928   6.944  10.175   8.430 -1.0471 -0.4760  0.1361
  500MOL0     C65929   6.926  10.099   8.301  0.8267  0.1074  0.0550
  500MOL0     C65930   6.848   9.969   8.314  1.2263  0.7475  0.6600
  500MOL0     C65931   6.712   9.984   8.373  0.3559 -0.6112 -1.0317
  500MOL0     C65932   6.613  10.008   8.440 -0.1057  0.1654  0.3674
  500MOL0     C65933   7.306  10.119   8.428 -0.1979 -0.3797  0.0093
  500MOL0     C65934   7.406  10.061   8.503 -0.9542  0.8143 -0.4714
  500MOL0     H65935   7.796   9.993   8.788 -0.2378  0.8710  0.8332
  500MOL0     H65936   7.957   9.874   8.896 -1.8204  0.1543  2.2626
  500MOL0     H65937   8.092   9.763   9.002 -1.1458  0.1496  2.3683
  500MOL0     H65938   8.101   9.615   8.894  0.4323 -0.1289 -0.6995
  500MOL0     H65939   8.076   9.489   9.119 -0.3809  1.2766 -1.0718
  500MOL0     H65940   8.130   9.644   9.190 -0.8710 -2.7321  1.9012
  500MOL0     H65941   8.303   9.476   9.180  2.8131  3.1767  1.4251
  500MOL0     H65942   8.344   9.622   9.097  0.9347 -1.0381  3.2867
  500MOL0     H65943   8.252   9.358   8.962  2.9364 -0.6673 -0.2103
  500MOL0     H65944   8.294   9.517   8.880 -0.4616 -0.6579 -1.3130
  500MOL0     H65945   8.508   9.526   8.969  1.2867  0.0920  0.2746
  500MOL0     H65946   8.487   9.395   8.860  1.3969  1.6207  0.5189
  500MOL0     H65947   8.447   9.313   9.132  0.2997  1.0738  0.7063
  500MOL0     H65948   8.609   9.374   9.103  1.0828  2.6167 -1.3599
  500MOL0     H65949   8.506   9.152   8.938  1.2500 -3.0475  0.4217
  500MOL0     H65950   8.666   9.237   8.952  0.1230 -0.0175  1.4129
  500MOL0     H65951   8.537   9.071   9.175 -0.1061 -0.5374 -0.1778
  500MOL0     H65952   8.698   9.148   9.187 -0.6802 -1.1727 -0.4584
  500MOL0     H65953   8.897   8.970   9.132  1.5144  0.4521 -1.7588
  500MOL0     H65954   9.010   8.773   9.045  1.8549 -2.5403  2.7918
  500MOL0     H65955   8.910   8.635   8.981 -1.8622 -1.0968  0.9197
  500MOL0     H65956   8.807   8.591   9.189  0.4973 -1.2652  0.0520
  500MOL0     H65957   8.909   8.703   9.276  1.2863 -1.4337  0.1571
  500MOL0     H65958   8.952   8.436   9.229  0.4405  0.2511  2.4241
  500MOL0     H65959   9.057   8.499   9.108  2.0555  0.5919  0.2689
  500MOL0     H65960   9.203   8.500   9.278  1.7755  2.8456 -2.6217
  500MOL0     H65961   9.107   8.574   9.397  1.2021 -1.7916  0.5130
  500MOL0     H65962   9.319   8.601   9.457 -2.1690  1.7456 -0.6808
  500MOL0     H65963   9.553   8.635   9.486 -0.0116  4.0847  1.8587
  500MOL0     H65964   9.935   9.081   9.395 -1.0701 -1.3848  0.3673
  500MOL0     H65965  10.179   9.069   9.407 -1.8106 -0.0546  2.5293
  500MOL0     H65966  10.403   8.754   9.215 -0.1934  3.6085 -0.9306
  500MOL0     H65967  10.362   8.694   9.378 -1.7445 -0.4613 -2.1149
  500MOL0     H65968  10.547   8.894   9.441 -1.3729 -0.7434  0.8470
  500MOL0     H65969  10.581   8.867   9.267  0.3995  0.9071  0.0132
  500MOL0     H65970  10.646   8.649   9.315  0.0941  3.7646 -2.0816
  500MOL0     H65971  10.576   8.648   9.482 -2.8354 -0.6011 -1.6169
  500MOL0     H65972  10.836   8.781   9.385  1.0215 -0.5688  0.0335
  500MOL0     H65973  10.739   8.828   9.528  2.2977  0.8268 -0.6931
  500MOL0     H65974  10.774   8.570   9.599  0.8413 -0.2845  0.7482
  500MOL0     H65975  10.916   8.659   9.582  2.1029 -1.3848 -0.9814
  500MOL0     H65976  10.958   8.587   9.351  1.7796 -0.7497  1.2062
  500MOL0     H65977  10.801   8.516   9.342  1.8180 -0.4430 -1.2908
  500MOL0     H65978  11.022   8.406   9.528  0.1591 -1.7999 -1.7494
  500MOL0     H65979  10.859   8.349   9.523  1.0104 -3.8050 -1.8228
  500MOL0     H65980  10.905   8.299   9.285 -0.1803  2.8693 -0.3458
  500MOL0     H65981  11.023   8.226   9.377  0.7187  0.5841  0.2286
  500MOL0     H65982  10.173   8.715   9.172  0.2890 -1.8139  0.2787
  500MOL0     H65983   9.927   8.744   9.132  1.5743 -2.2291  0.7151
  500MOL0     H65984   9.538   8.922   9.157  1.8207 -1.4877  0.0252
  500MOL0     H65985   9.319   8.857   9.112 -1.3379 -1.0337  0.4211
  500MOL0     H65986   7.703   9.527   8.887 -1.5965 -0.9242  1.8063
  500MOL0     H65987   7.544   9.638   8.770  0.8687 -2.2310  2.7307
  500MOL0     H65988   7.435  10.298   8.738  0.8333 -0.9919 -0.5355
  500MOL0     H65989   7.258  10.407   8.596  1.6255  0.1583  0.1536
  500MOL0     H65990   6.975  10.364   8.330 -0.9424  0.8236  1.3799
  500MOL0     H65991   7.008  10.366   8.506  2.1133 -1.3230  1.9023
  500MOL0     H65992   7.008  10.119   8.499  1.9350  3.1049  0.5656
  500MOL0     H65993   6.846  10.200   8.472 -0.0497  0.5459  2.0397
  500MOL0     H65994   7.018  10.078   8.246  0.1603 -0.3674 -0.8967
  500MOL0     H65995   6.860  10.157   8.237  1.4358 -1.8548 -2.5164
  500MOL0     H65996   6.842   9.924   8.214 -1.4976 -1.2861  1.6153
  500MOL0     H65997   6.912   9.896   8.365 -0.5912 -2.1295 -0.8471
  500MOL0     H65998   6.527  10.019   8.503 -0.8986 -3.8542  0.2474
  500MOL0     H65999   7.266  10.083   8.334  2.1633  3.2023 -2.6659
  500MOL0     H66000   7.447   9.962   8.485 -0.7043  0.0846  3.2962
  501MOL0     O66001   8.872   3.472   4.688  0.0047 -0.1945  0.4412
  501MOL0     C66002   8.962   3.438   4.612 -1.0535  0.1313 -0.9385
  501MOL0     O66003   8.989   3.307   4.578 -0.0681  0.6675  0.4169
  501MOL0     C66004   8.885   3.223   4.605 -0.1399 -0.5918  0.2736
  501MOL0     C66005   8.867   3.179   4.736  0.7464  0.0138 -0.1059
  501MOL0     C66006   8.770   3.082   4.770  0.1000 -0.1862  0.3833
  501MOL0     C66007   8.689   3.019   4.675 -0.3667 -0.9586  0.3095
  501MOL0     O66008   8.581   2.940   4.710 -0.2367 -0.2874 -0.3075
  501MOL0     C66009   8.535   2.954   4.850 -0.8775  0.2409  1.4782
  501MOL0     C66010   8.619   2.862   4.936  0.5730 -0.1108 -0.5367
  501MOL0     C66011   8.575   2.711   4.938 -0.0535 -0.1231 -0.8595
  501MOL0     C66012   8.644   2.640   5.052  0.6623 -0.1445  0.4190
  501MOL0     C66013   8.641   2.495   5.014  0.2100 -0.3915  0.0471
  501MOL0     C66014   8.731   2.416   5.110  0.0467 -0.7649  0.2556
  501MOL0     C66015   8.734   2.266   5.080  0.4551  0.5050 -0.3551
  501MOL0     C66016   8.802   2.227   4.945  0.1408 -0.3199  0.6728
  501MOL0     N66017   8.786   2.085   4.900  0.1391 -0.1722  0.4626
  501MOL0     C66018   8.686   2.032   4.822  0.0182 -0.2459 -0.3759
  501MOL0     C66019   8.708   1.901   4.807 -0.1386 -0.0029 -0.8461
  501MOL0     C66020   8.633   1.796   4.738 -0.0290  0.2355  0.6800
  501MOL0     C66021   8.593   1.825   4.596 -0.2645  0.2176 -1.0966
  501MOL0     C66022   8.513   1.704   4.535  0.4361  0.2832 -0.1757
  501MOL0     C66023   8.376   1.738   4.495 -0.5311  0.1628 -1.6062
  501MOL0     O66024   8.355   1.858   4.419  0.0690  0.3774  0.3153
  501MOL0     C66025   8.230   1.890   4.375  0.2969 -0.1994  0.0623
  501MOL0     C66026   8.112   1.827   4.411  0.9209 -0.0370  0.1851
  501MOL0     C66027   7.996   1.862   4.336  0.4547  0.1539  1.0514
  501MOL0     C66028   7.996   1.948   4.224  0.4059 -0.4106 -0.2322
  501MOL0     C66029   7.871   1.989   4.156 -0.0122  0.2140 -0.8860
  501MOL0     O66030   7.767   1.902   4.166 -0.0120  0.0866 -0.2819
  501MOL0     C66031   7.647   1.939   4.106  0.2918  1.4780 -0.9444
  501MOL0     C66032   7.606   1.867   3.985 -0.7093 -0.4120 -0.3926
  501MOL0     C66033   7.501   1.913   3.906  0.4713  0.9582 -0.0636
  501MOL0     C66034   7.429   2.025   3.940 -0.5000  0.1673 -0.3621
  501MOL0     O66035   7.311   2.056   3.892 -0.1642 -0.7054  0.5821
  501MOL0     C66036   7.264   2.040   3.748 -0.8413  0.3360 -0.5069
  501MOL0     C66037   7.135   1.982   3.767  0.1230 -0.6421  0.6612
  501MOL0     C66038   7.065   1.956   3.628  0.2059  0.3528 -0.2580
  501MOL0     C66039   6.906   1.937   3.645  0.5353 -1.1329 -0.1930
  501MOL0     C66040   6.834   1.915   3.516 -0.3648 -0.3479  0.2452
  501MOL0     C66041   6.685   1.932   3.535  0.3352  0.8953  1.2510
  501MOL0     C66042   6.611   1.917   3.400 -0.0055 -0.9925  0.9416
  501MOL0     C66043   6.466   1.937   3.421  0.0032 -0.7546 -0.0275
  501MOL0    Cl66044   6.408   1.782   3.478 -0.2551 -0.1310 -0.1422
  501MOL0     C66045   7.458   2.098   4.059  0.8590  0.3186 -0.5404
  501MOL0     C66046   7.569   2.060   4.138 -0.6964 -0.1271  1.0332
  501MOL0     O66047   7.871   2.102   4.109  0.1264  0.2645 -0.3544
  501MOL0     C66048   8.118   2.005   4.200  0.7831 -0.4268  0.8384
  501MOL0     C66049   8.234   1.977   4.271 -0.6901  0.1448  0.0409
  501MOL0     N66050   8.823   1.869   4.874 -0.0228  0.1674 -0.4950
  501MOL0     N66051   8.868   1.974   4.931  0.0592 -0.4343 -0.3139
  501MOL0     C66052   8.710   3.063   4.536  0.0264  0.9208 -0.5134
  501MOL0     C66053   8.805   3.161   4.506 -0.6606  0.3369 -0.8578
  501MOL0     C66054   9.057   3.541   4.573 -0.4217 -0.7482  1.0332
  501MOL0     C66055   9.174   3.500   4.507 -0.2323 -0.2386  0.2365
  501MOL0     C66056   9.255   3.589   4.450  0.0519 -0.7609 -0.5005
  501MOL0     C66057   9.230   3.730   4.459 -0.0018  0.6699 -0.1694
  501MOL0     O66058   9.322   3.813   4.398  0.8752 -0.3866  0.9398
  501MOL0     C66059   9.349   3.943   4.458  0.1813  0.2369 -0.2714
  501MOL0     C66060   9.392   3.949   4.604 -0.5334 -0.3604  0.3964
  501MOL0     C66061   9.507   3.856   4.650 -0.8203 -0.5198 -0.2724
  501MOL0     C66062   9.514   3.864   4.801 -0.0503  0.6417 -0.1604
  501MOL0     C66063   9.542   3.996   4.855  0.9269  0.2115  0.4138
  501MOL0     C66064   9.563   4.103   4.903  0.0212 -0.3860  0.8389
  501MOL0     C66065   9.121   3.770   4.532 -1.0580  0.5478 -0.7352
  501MOL0     C66066   9.045   3.675   4.603  0.0029  0.8193 -0.3188
  501MOL0     H66067   8.933   3.214   4.814 -0.2433 -0.6963  1.0769
  501MOL0     H66068   8.758   3.068   4.877 -2.0174 -0.0036  0.2105
  501MOL0     H66069   8.431   2.922   4.840 -1.3323  2.1831 -1.4336
  501MOL0     H66070   8.549   3.060   4.876 -1.3874  1.3032 -1.9996
  501MOL0     H66071   8.621   2.900   5.038 -2.0999  0.1309 -0.5008
  501MOL0     H66072   8.719   2.855   4.892 -0.0356 -0.0498 -1.9971
  501MOL0     H66073   8.611   2.667   4.845  1.4397 -3.1549  0.9822
  501MOL0     H66074   8.466   2.711   4.940 -0.1528  2.1649 -2.4503
  501MOL0     H66075   8.750   2.664   5.062  1.2380 -1.7364 -1.2588
  501MOL0     H66076   8.596   2.670   5.146 -0.7654  2.1107 -0.9433
  501MOL0     H66077   8.681   2.480   4.914 -1.2086  0.4848 -0.6956
  501MOL0     H66078   8.541   2.450   5.021 -0.0976  0.2644 -0.0409
  501MOL0     H66079   8.699   2.438   5.212  0.1894  1.9976 -0.2081
  501MOL0     H66080   8.832   2.456   5.096 -0.3674  0.5579  0.8511
  501MOL0     H66081   8.784   2.224   5.168 -0.0941  1.3576  0.3822
  501MOL0     H66082   8.631   2.230   5.082 -0.4629  2.9392 -0.0732
  501MOL0     H66083   8.908   2.255   4.951  0.9809 -2.0683 -3.0950
  501MOL0     H66084   8.771   2.298   4.868 -2.3996 -0.5465  1.3800
  501MOL0     H66085   8.596   2.090   4.801 -2.1242 -1.8735  3.3236
  501MOL0     H66086   8.546   1.774   4.800  0.0727 -3.2643 -0.1916
  501MOL0     H66087   8.684   1.700   4.752 -0.1445  0.4475  2.8992
  501MOL0     H66088   8.674   1.846   4.526  1.1682 -0.8189  0.1880
  501MOL0     H66089   8.520   1.906   4.600 -2.1961 -1.4391 -1.0996
  501MOL0     H66090   8.563   1.670   4.443  1.6540 -1.0817  0.9500
  501MOL0     H66091   8.513   1.618   4.602 -2.1131  1.5144  1.5678
  501MOL0     H66092   8.337   1.754   4.596  2.3649 -0.9547 -0.1831
  501MOL0     H66093   8.348   1.643   4.448  1.7392 -1.9467  0.9249
  501MOL0     H66094   8.102   1.752   4.488  1.8632  0.8991  1.2394
  501MOL0     H66095   7.904   1.808   4.356  0.7818 -0.1052  1.9085
  501MOL0     H66096   7.673   1.787   3.955 -1.1772 -0.7412 -0.5709
  501MOL0     H66097   7.488   1.854   3.816 -0.2472 -1.3713  1.4823
  501MOL0     H66098   7.329   1.974   3.691  0.3006  1.4196 -0.4830
  501MOL0     H66099   7.255   2.141   3.707  1.3766  0.8847  0.2590
  501MOL0     H66100   7.074   2.055   3.822 -0.5148  0.0039 -0.8398
  501MOL0     H66101   7.134   1.888   3.822 -3.4974 -0.8831  0.4662
  501MOL0     H66102   7.103   1.867   3.578 -1.6429 -1.4377  1.3632
  501MOL0     H66103   7.081   2.045   3.565 -0.0695 -0.6913 -1.8679
  501MOL0     H66104   6.873   1.858   3.713  0.7281 -1.5034 -0.5234
  501MOL0     H66105   6.876   2.029   3.696  1.1347 -2.2804  2.3701
  501MOL0     H66106   6.836   1.809   3.489 -0.0425 -0.2368 -0.1714
  501MOL0     H66107   6.872   1.970   3.429  1.6725  0.6018  1.6859
  501MOL0     H66108   6.670   2.034   3.570 -0.0100  0.7211  1.6211
  501MOL0     H66109   6.662   1.846   3.599  0.4194 -1.3263 -1.5156
  501MOL0     H66110   6.653   1.988   3.328  2.2096 -2.1098  1.0545
  501MOL0     H66111   6.626   1.822   3.348 -1.1880 -1.1854  0.9165
  501MOL0     H66112   6.422   1.978   3.329  2.4492  2.3974  0.0292
  501MOL0     H66113   6.462   2.018   3.494  4.9190 -0.5729  0.3621
  501MOL0     H66114   7.386   2.174   4.087  1.9299  0.9401  0.6024
  501MOL0     H66115   7.587   2.115   4.230  2.3144 -1.3365  1.2637
  501MOL0     H66116   8.121   2.072   4.114  0.5553 -0.8672  0.4841
  501MOL0     H66117   8.329   2.017   4.239 -0.7294 -0.1674 -0.4750
  501MOL0     H66118   8.647   3.031   4.454 -2.3809  2.8476  0.4601
  501MOL0     H66119   8.823   3.197   4.405 -1.5909  0.7224 -0.9011
  501MOL0     H66120   9.200   3.397   4.486 -0.6962 -0.6917  1.7274
  501MOL0     H66121   9.341   3.559   4.390  2.1104  2.0456  0.8419
  501MOL0     H66122   9.269   4.016   4.442 -0.2341 -0.2919 -0.6368
  501MOL0     H66123   9.431   3.983   4.397 -0.7388  1.1797 -0.9220
  501MOL0     H66124   9.413   4.056   4.614 -1.2690  0.2454 -3.1769
  501MOL0     H66125   9.309   3.921   4.669 -0.9589  0.4017  0.1946
  501MOL0     H66126   9.600   3.891   4.604 -1.5923 -1.4058 -2.6380
  501MOL0     H66127   9.491   3.753   4.618  3.4320 -1.0514 -1.2166
  501MOL0     H66128   9.418   3.822   4.834  1.3452 -1.4886  1.5193
  501MOL0     H66129   9.598   3.804   4.837  0.2323  2.0653  1.7072
  501MOL0     H66130   9.565   4.203   4.941  0.3928 -0.5798  1.3535
  501MOL0     H66131   9.099   3.876   4.538 -1.8348  0.3157  0.8185
  501MOL0     H66132   8.960   3.712   4.660 -0.1919 -0.4408  0.2326
  502MOL0     O66133   6.621   8.829  11.324 -0.3915 -0.4287  0.6960
  502MOL0     C66134   6.622   8.791  11.207 -0.1568  0.3451  0.0137
  502MOL0     O66135   6.652   8.656  11.160  0.2955 -0.0575 -0.7125
  502MOL0     C66136   6.656   8.551  11.247 -0.3182  0.0017  0.6337
  502MOL0     C66137   6.773   8.465  11.252  0.5333 -1.0288 -0.6569
  502MOL0     C66138   6.767   8.351  11.330  0.4860 -0.0707 -0.0928
  502MOL0     C66139   6.657   8.328  11.411 -1.3426 -0.2735  0.0670
  502MOL0     O66140   6.643   8.219  11.484  0.6937  0.2485 -0.1870
  502MOL0     C66141   6.731   8.108  11.497  0.4540 -0.8737  0.0830
  502MOL0     C66142   6.823   8.139  11.615 -0.1080  1.6372 -0.9763
  502MOL0     C66143   6.918   8.012  11.644  0.8279 -0.0591  0.4372
  502MOL0     C66144   7.022   8.016  11.532  0.5893 -0.5399  0.4483
  502MOL0     C66145   7.140   7.926  11.555  0.3173 -0.8235  0.7170
  502MOL0     C66146   7.267   7.954  11.459 -0.2267 -0.6290 -0.5614
  502MOL0     C66147   7.366   7.833  11.465 -0.5753 -1.5805  0.5933
  502MOL0     C66148   7.442   7.810  11.598  0.2838 -0.1036  0.2162
  502MOL0     N66149   7.528   7.927  11.635 -0.1279  0.3232 -0.2301
  502MOL0     C66150   7.642   7.961  11.571 -0.6071  0.0023 -0.0997
  502MOL0     C66151   7.700   8.050  11.653 -0.6739 -0.3822  0.3649
  502MOL0     C66152   7.830   8.118  11.637 -0.3606  0.2400 -0.7990
  502MOL0     C66153   7.899   8.176  11.764 -0.3927  0.5633 -0.7468
  502MOL0     C66154   8.013   8.275  11.722  0.2618 -0.4479  0.4326
  502MOL0     C66155   8.024   8.381  11.848  0.7150  0.6719 -0.1209
  502MOL0     O66156   8.069   8.312  11.965 -0.1200  0.0799  0.4643
  502MOL0     C66157   8.204   8.275  11.972 -0.7702 -0.2546  1.5296
  502MOL0     C66158   8.246   8.162  12.050  0.6406  0.0010  0.6558
  502MOL0     C66159   8.384   8.123  12.054 -0.3524  0.2264 -0.5146
  502MOL0     C66160   8.482   8.199  11.991 -1.1746 -0.3355  0.3956
  502MOL0     C66161   8.621   8.151  11.963 -0.0542  0.7539 -1.3217
  502MOL0     O66162   8.649   8.032  12.020 -0.2878 -0.0594 -0.6830
  502MOL0     C66163   8.772   7.967  12.024  0.3847  0.2628  0.2591
  502MOL0     C66164   8.764   7.832  12.058  1.2682 -0.5707  0.7186
  502MOL0     C66165   8.883   7.760  12.083 -0.1155 -0.1493  0.1577
  502MOL0     C66166   9.006   7.816  12.060  0.6923 -0.1294 -0.6748
  502MOL0     O66167   9.114   7.737  12.082  0.3705 -0.0519 -0.1255
  502MOL0     C66168   9.240   7.792  12.058 -0.2714 -0.5031 -0.2629
  502MOL0     C66169   9.342   7.697  12.121  1.4756 -0.2504  0.0911
  502MOL0     C66170   9.340   7.563  12.040  0.2906 -0.0288  0.1856
  502MOL0     C66171   9.476   7.498  12.063 -0.5741 -0.9110  0.1813
  502MOL0     C66172   9.497   7.376  11.985  0.0284 -0.4281 -0.0870
  502MOL0     C66173   9.438   7.253  12.052 -1.2802 -0.1550 -0.4483
  502MOL0     C66174   9.294   7.238  12.020  0.1319  0.5654  0.2443
  502MOL0     C66175   9.254   7.091  12.034  0.4493 -0.3601 -0.4792
  502MOL0    Cl66176   9.266   7.009  11.884  0.4965 -0.0256 -0.2809
  502MOL0     C66177   9.017   7.942  11.998  0.3582  0.1058  0.0780
  502MOL0     C66178   8.904   8.021  11.997 -0.0250 -0.4604  0.1236
  502MOL0     O66179   8.690   8.212  11.892 -0.3667 -0.4311 -0.3072
  502MOL0     C66180   8.439   8.313  11.927 -0.1037 -0.3588 -0.7106
  502MOL0     C66181   8.306   8.350  11.917 -0.4870 -0.7237 -0.6846
  502MOL0     N66182   7.613   8.083  11.760 -0.0721  0.1535 -0.0369
  502MOL0     N66183   7.510   8.001  11.746 -0.3866 -0.1044 -0.2566
  502MOL0     C66184   6.544   8.407  11.395  0.2753 -0.1100 -0.4619
  502MOL0     C66185   6.539   8.522  11.318  0.7163  0.0813 -0.2052
  502MOL0     C66186   6.589   8.884  11.106  0.4488 -0.2508  0.3106
  502MOL0     C66187   6.546   8.841  10.977 -0.4950 -0.4139  0.2876
  502MOL0     C66188   6.508   8.933  10.888 -0.2077 -0.5009 -0.3216
  502MOL0     C66189   6.517   9.072  10.898  0.4000  0.2364 -0.3786
  502MOL0     O66190   6.476   9.154  10.792 -0.6648 -0.7798 -0.5350
  502MOL0     C66191   6.488   9.294  10.810 -0.5070 -0.2535 -0.2143
  502MOL0     C66192   6.399   9.365  10.696  0.4579  0.7817 -0.5707
  502MOL0     C66193   6.255   9.382  10.751 -0.1574 -0.3457  0.1485
  502MOL0     C66194   6.181   9.491  10.668  0.1608 -0.4044 -1.3451
  502MOL0     C66195   6.158   9.436  10.535 -0.6714 -0.2236 -0.1742
  502MOL0     C66196   6.157   9.383  10.422 -0.4777  0.0412 -0.0024
  502MOL0     C66197   6.548   9.107  11.032  0.0180 -0.2290 -0.1116
  502MOL0     C66198   6.576   9.015  11.136  0.7395  0.0316 -0.1222
  502MOL0     H66199   6.862   8.492  11.196  1.4858 -1.2316  0.7153
  502MOL0     H66200   6.853   8.287  11.350 -2.3711 -3.3641  2.9257
  502MOL0     H66201   6.789   8.103  11.404  3.2160 -0.6237  1.6817
  502MOL0     H66202   6.687   8.008  11.497  1.0343 -1.2945  4.2135
  502MOL0     H66203   6.766   8.155  11.708  3.2846  0.0678  1.5833
  502MOL0     H66204   6.873   8.236  11.623  1.6205  0.6360  2.0942
  502MOL0     H66205   6.861   7.919  11.657  0.2173  0.2424 -0.0218
  502MOL0     H66206   6.962   8.020  11.744 -0.9172  2.1386  1.1260
  502MOL0     H66207   6.976   7.991  11.436  1.7585  0.1705 -0.3270
  502MOL0     H66208   7.071   8.114  11.524  0.5514 -0.5970 -0.6968
  502MOL0     H66209   7.105   7.823  11.546 -3.2664  0.3784 -1.2317
  502MOL0     H66210   7.166   7.953  11.658  0.3543 -0.7804  0.6965
  502MOL0     H66211   7.316   8.047  11.487 -2.4348 -0.4511  3.5288
  502MOL0     H66212   7.237   7.961  11.354  1.7577  0.0462 -1.1299
  502MOL0     H66213   7.314   7.741  11.435 -1.9282 -0.5621 -0.2978
  502MOL0     H66214   7.438   7.865  11.389  0.1405  0.3300  2.0139
  502MOL0     H66215   7.498   7.717  11.585 -0.6783 -0.7640  0.7456
  502MOL0     H66216   7.361   7.793  11.669 -0.3799 -1.3629 -0.8049
  502MOL0     H66217   7.691   7.915  11.485  1.0927  0.3798  0.6278
  502MOL0     H66218   7.815   8.197  11.562 -1.6880 -0.1950 -1.0173
  502MOL0     H66219   7.909   8.053  11.597  0.1257  0.3599 -0.0513
  502MOL0     H66220   7.949   8.098  11.822  0.6660  1.3403 -0.5804
  502MOL0     H66221   7.816   8.212  11.826  0.7000 -1.9808  2.4941
  502MOL0     H66222   8.104   8.218  11.701  2.8024  3.2121  0.4087
  502MOL0     H66223   7.985   8.342  11.640 -3.6757  2.5891  3.8327
  502MOL0     H66224   7.926   8.420  11.878  1.7631  2.0406  1.8021
  502MOL0     H66225   8.080   8.474  11.830 -0.9148  2.8812  4.5312
  502MOL0     H66226   8.177   8.104  12.110  2.0459 -1.8296  0.5857
  502MOL0     H66227   8.407   8.032  12.108 -1.1113 -0.0364 -0.6278
  502MOL0     H66228   8.665   7.804  12.092  0.5786  0.8964  0.0481
  502MOL0     H66229   8.873   7.660  12.125  1.0317  0.2685  1.5281
  502MOL0     H66230   9.248   7.893  12.100  0.7622  0.3506 -2.3301
  502MOL0     H66231   9.261   7.805  11.951 -1.0623 -0.7794 -0.4562
  502MOL0     H66232   9.311   7.664  12.220 -1.0966  1.7625  0.0638
  502MOL0     H66233   9.439   7.746  12.115  1.5946 -0.4682  0.1997
  502MOL0     H66234   9.332   7.588  11.933 -4.4899  2.2687  0.8154
  502MOL0     H66235   9.262   7.488  12.056  1.4152 -1.4385 -0.6888
  502MOL0     H66236   9.553   7.560  12.016 -1.6338  0.5242  0.2748
  502MOL0     H66237   9.507   7.508  12.168 -0.6878  1.9249  0.0247
  502MOL0     H66238   9.604   7.358  11.989  0.3545  1.2496  4.5336
  502MOL0     H66239   9.458   7.387  11.883 -0.6719  0.9901  0.3099
  502MOL0     H66240   9.457   7.252  12.160  0.4616  2.6490 -0.6266
  502MOL0     H66241   9.491   7.171  12.003 -1.4716 -2.3190  2.6531
  502MOL0     H66242   9.239   7.286  12.102  0.0600  0.0982  0.4691
  502MOL0     H66243   9.264   7.277  11.922  0.3223  0.0981 -0.0014
  502MOL0     H66244   9.152   7.076  12.072  0.8015  0.6100  0.9408
  502MOL0     H66245   9.313   7.035  12.107 -1.6139  0.0625  1.6412
  502MOL0     H66246   9.109   7.983  11.959  1.3462 -0.1761  2.0039
  502MOL0     H66247   8.906   8.128  11.979  1.7221 -0.1331  1.9188
  502MOL0     H66248   8.518   8.374  11.884 -0.2160 -0.4751 -1.0856
  502MOL0     H66249   8.275   8.445  11.875 -0.7784 -0.9326 -0.9499
  502MOL0     H66250   6.450   8.384  11.443 -0.3159  1.4560 -0.7892
  502MOL0     H66251   6.459   8.594  11.331 -1.4308 -2.4851  2.1470
  502MOL0     H66252   6.528   8.738  10.948 -1.9916 -0.0288 -0.2457
  502MOL0     H66253   6.470   8.892  10.795  1.0300  4.4049 -3.3454
  502MOL0     H66254   6.586   9.333  10.780 -1.6863  2.4058 -0.9534
  502MOL0     H66255   6.458   9.329  10.909 -0.6415  4.4583 -1.6332
  502MOL0     H66256   6.428   9.463  10.656 -3.3454  0.8819 -3.7234
  502MOL0     H66257   6.394   9.300  10.608  0.6322  1.8192 -1.3665
  502MOL0     H66258   6.261   9.424  10.852  1.0523 -0.0961 -0.0160
  502MOL0     H66259   6.196   9.290  10.759 -0.4450 -0.4031 -2.1113
  502MOL0     H66260   6.095   9.534  10.720  2.4830  4.4571 -0.9816
  502MOL0     H66261   6.250   9.576  10.671 -1.5772  1.0543  0.1849
  502MOL0     H66262   6.174   9.334  10.328  0.6047 -1.4792  0.9288
  502MOL0     H66263   6.540   9.208  11.069  3.1747  0.5247 -1.1248
  502MOL0     H66264   6.595   9.061  11.233  2.8211 -0.0183 -0.4575
  503MOL0     O66265   1.109   5.629   9.646 -0.5787 -0.0619  0.4857
  503MOL0     C66266   1.169   5.522   9.640 -0.2668 -1.1937  0.6694
  503MOL0     O66267   1.117   5.419   9.567 -0.1108  0.0679 -0.6891
  503MOL0     C66268   1.002   5.403   9.505  0.6632 -0.3455  0.5444
  503MOL0     C66269   0.884   5.443   9.563  0.1895 -0.3854 -0.1179
  503MOL0     C66270   0.760   5.434   9.501 -0.5256  0.5994 -0.1143
  503MOL0     C66271   0.756   5.364   9.376 -0.4374 -0.3214  0.6163
  503MOL0     O66272   0.648   5.351   9.293  0.3140  0.2889  0.0124
  503MOL0     C66273   0.534   5.434   9.321  0.1036  0.4557 -0.1870
  503MOL0     C66274   0.423   5.420   9.221 -0.2200  0.3988 -0.0727
  503MOL0     C66275   0.392   5.277   9.182  0.3283  0.3830  0.7082
  503MOL0     C66276   0.382   5.193   9.306  0.3127  0.4065 -0.2187
  503MOL0     C66277   0.301   5.059   9.290 -0.7239 -0.2424  0.1737
  503MOL0     C66278   0.368   4.956   9.189 -0.2783  0.1690  0.8016
  503MOL0     C66279   0.303   4.823   9.203  0.2095  0.2207 -0.3186
  503MOL0     C66280   0.386   4.701   9.147 -0.7726 -0.9078  0.5500
  503MOL0     N66281   0.525   4.678   9.192  1.4282 -0.0747 -0.4320
  503MOL0     C66282   0.545   4.676   9.329  0.1396  0.3151 -0.5306
  503MOL0     C66283   0.679   4.644   9.341  0.5114  0.5973  0.4035
  503MOL0     C66284   0.756   4.622   9.468 -0.7934 -0.6866 -0.1461
  503MOL0     C66285   0.848   4.498   9.439 -0.1754  0.2163 -0.9437
  503MOL0     C66286   0.904   4.426   9.563 -0.7985  0.8595  0.5862
  503MOL0     C66287   0.802   4.410   9.679  0.8622  1.2590 -0.6427
  503MOL0     O66288   0.682   4.350   9.631  0.0768 -0.8272 -0.3831
  503MOL0     C66289   0.645   4.226   9.680 -0.5851 -0.2742  0.4512
  503MOL0     C66290   0.603   4.203   9.816 -0.8731  0.1516 -0.4459
  503MOL0     C66291   0.556   4.074   9.854  0.3799 -0.1306 -0.5132
  503MOL0     C66292   0.547   3.964   9.762  0.7008 -0.4338 -0.1325
  503MOL0     C66293   0.518   3.827   9.800  0.8771 -0.5986  0.2308
  503MOL0     O66294   0.516   3.729   9.704  0.0821 -0.0247 -0.6847
  503MOL0     C66295   0.498   3.597   9.736  0.0036  0.1878  0.6563
  503MOL0     C66296   0.604   3.513   9.705  0.5997  0.1560 -0.2661
  503MOL0     C66297   0.583   3.372   9.706 -0.4329  0.1454  0.3112
  503MOL0     C66298   0.450   3.323   9.725  0.0539 -0.0036 -0.1158
  503MOL0     O66299   0.417   3.193   9.692 -0.1565 -0.2766 -1.0448
  503MOL0     C66300   0.495   3.100   9.773 -0.7994  0.3270 -0.1549
  503MOL0     C66301   0.429   2.964   9.811  0.3110  0.5800  0.0471
  503MOL0     C66302   0.381   2.873   9.696 -0.0861  0.4038  0.3818
  503MOL0     C66303   0.363   2.738   9.749  0.3532  0.0366  0.3641
  503MOL0     C66304   0.322   2.643   9.634  0.4562 -0.6108 -0.1752
  503MOL0     C66305   0.303   2.502   9.684  0.2850  0.5156  0.5891
  503MOL0     C66306   0.182   2.468   9.776 -0.1627  0.1405 -0.3493
  503MOL0     C66307   0.212   2.339   9.858  0.9097 -0.3018 -0.3165
  503MOL0    Cl66308   0.217   2.209   9.736 -0.5529 -0.2625 -0.0774
  503MOL0     C66309   0.343   3.414   9.755 -0.0686 -0.4643  0.2605
  503MOL0     C66310   0.368   3.553   9.761 -0.2596 -0.4681  0.5184
  503MOL0     O66311   0.494   3.808   9.921 -0.2367 -0.0604 -0.4620
  503MOL0     C66312   0.612   3.992   9.637 -0.2374 -0.2393 -0.7979
  503MOL0     C66313   0.655   4.117   9.594 -0.1999  0.0586  0.0252
  503MOL0     N66314   0.730   4.649   9.210 -0.3341  0.5717 -0.5734
  503MOL0     N66315   0.637   4.673   9.124 -0.5373  0.5883 -0.7461
  503MOL0     C66316   0.879   5.316   9.316 -0.0429 -0.3635  0.1055
  503MOL0     C66317   1.001   5.335   9.381 -0.8521  0.3334 -0.1321
  503MOL0     C66318   1.301   5.501   9.705  0.2664  0.3256 -0.3430
  503MOL0     C66319   1.359   5.377   9.692 -0.0653 -0.1121  0.0447
  503MOL0     C66320   1.471   5.343   9.755 -0.1471  0.6451 -0.8785
  503MOL0     C66321   1.554   5.433   9.817  0.7736  0.0987 -0.0187
  503MOL0     O66322   1.675   5.397   9.881  0.0785  0.2335  0.9206
  503MOL0     C66323   1.711   5.261   9.892 -0.1613 -0.3006  1.3520
  503MOL0     C66324   1.838   5.232   9.971 -0.6429  0.0119  0.5473
  503MOL0     C66325   1.960   5.283   9.895 -0.7435  0.5139 -0.2239
  503MOL0     C66326   2.095   5.229   9.952  0.9891 -0.1140 -0.3103
  503MOL0     C66327   2.132   5.268  10.090  0.1548 -0.3464  0.6213
  503MOL0     C66328   2.184   5.306  10.191 -1.4423 -0.1642 -0.7846
  503MOL0     C66329   1.501   5.559   9.833  0.9808 -1.0055  1.1527
  503MOL0     C66330   1.379   5.594   9.776 -0.7038  0.0981 -0.1296
  503MOL0     H66331   0.882   5.493   9.659 -0.6488  2.4077 -1.4834
  503MOL0     H66332   0.672   5.469   9.554 -0.7549 -0.1657  0.0336
  503MOL0     H66333   0.557   5.541   9.324 -1.8612  0.8926  0.6673
  503MOL0     H66334   0.501   5.406   9.421 -2.3205  3.4534 -0.0159
  503MOL0     H66335   0.451   5.473   9.130 -3.4917 -0.2545 -1.5872
  503MOL0     H66336   0.341   5.470   9.274 -1.2457 -1.9451  0.6941
  503MOL0     H66337   0.473   5.236   9.120  1.0099  1.2998  0.9631
  503MOL0     H66338   0.310   5.272   9.110  0.8831 -1.6032  0.1456
  503MOL0     H66339   0.482   5.165   9.339  1.2408  0.5827 -2.6708
  503MOL0     H66340   0.323   5.259   9.371 -0.5886 -0.4150 -0.1798
  503MOL0     H66341   0.201   5.097   9.265 -0.2217  2.8106  2.3047
  503MOL0     H66342   0.305   5.026   9.394 -3.0732  0.1586  0.4394
  503MOL0     H66343   0.474   4.950   9.216 -0.2848 -0.0233  0.7801
  503MOL0     H66344   0.364   4.984   9.084 -1.0312 -0.9989  0.5000
  503MOL0     H66345   0.276   4.804   9.308 -3.0049  0.4136 -0.9958
  503MOL0     H66346   0.212   4.823   9.142  0.5867 -0.1696 -0.8922
  503MOL0     H66347   0.394   4.731   9.042  2.7077  1.9936  1.4151
  503MOL0     H66348   0.326   4.611   9.154  3.0978 -3.7407  0.6874
  503MOL0     H66349   0.468   4.687   9.406  1.4090 -0.6054  0.9350
  503MOL0     H66350   0.687   4.604   9.551  0.3655  0.9111  1.2410
  503MOL0     H66351   0.826   4.702   9.493  0.1021 -1.0249 -1.5053
  503MOL0     H66352   0.927   4.531   9.370 -1.5046  2.1963 -1.5820
  503MOL0     H66353   0.780   4.435   9.381 -2.3875  1.8492 -0.2440
  503MOL0     H66354   0.932   4.323   9.537 -3.5686 -0.4799  2.4818
  503MOL0     H66355   0.995   4.479   9.593  0.4888 -1.0383  0.2154
  503MOL0     H66356   0.772   4.510   9.713 -3.7630  0.2591 -1.0962
  503MOL0     H66357   0.843   4.358   9.766 -1.4110 -1.0329 -0.8196
  503MOL0     H66358   0.605   4.280   9.893 -1.3610 -0.4421  0.1664
  503MOL0     H66359   0.531   4.065   9.960  0.3656  0.4693 -0.4617
  503MOL0     H66360   0.703   3.553   9.685 -0.1645  2.6688  0.6222
  503MOL0     H66361   0.663   3.303   9.683  0.2667  0.0581  2.7418
  503MOL0     H66362   0.517   3.152   9.866 -0.0076  0.8211 -0.6092
  503MOL0     H66363   0.585   3.078   9.715 -0.7620 -1.6991  0.5952
  503MOL0     H66364   0.343   2.982   9.876  1.7588 -0.9007  2.5428
  503MOL0     H66365   0.496   2.904   9.873 -0.8525 -1.7566 -0.8403
  503MOL0     H66366   0.451   2.872   9.612 -2.5786  4.6072 -2.0838
  503MOL0     H66367   0.287   2.912   9.658 -2.2792 -2.9122  1.9429
  503MOL0     H66368   0.456   2.695   9.787  2.3115  0.8540 -3.0463
  503MOL0     H66369   0.282   2.743   9.822  1.5495  0.2621  1.7218
  503MOL0     H66370   0.399   2.647   9.557  1.4879 -1.0990  0.8024
  503MOL0     H66371   0.234   2.682   9.583  1.8865  2.2416 -0.6652
  503MOL0     H66372   0.387   2.468   9.744 -1.8027 -5.3978  0.8111
  503MOL0     H66373   0.306   2.434   9.599  0.6874 -0.5845  1.4562
  503MOL0     H66374   0.183   2.550   9.848  0.5485  0.0545 -0.2491
  503MOL0     H66375   0.092   2.465   9.714 -0.1546 -0.6726 -0.3431
  503MOL0     H66376   0.143   2.329   9.943 -0.3823  1.0041 -1.1752
  503MOL0     H66377   0.311   2.344   9.905  0.2380  1.9874  0.9936
  503MOL0     H66378   0.246   3.367   9.768 -0.8778  0.1862 -2.8097
  503MOL0     H66379   0.287   3.625   9.768  1.4166  1.5281  0.1902
  503MOL0     H66380   0.623   3.899   9.582 -3.4735 -1.9169  1.0375
  503MOL0     H66381   0.701   4.118   9.495 -1.3255 -0.5273 -0.5272
  503MOL0     H66382   0.885   5.278   9.214  1.3796 -2.0221  0.7573
  503MOL0     H66383   1.099   5.301   9.348 -1.2629 -1.0195 -0.0417
  503MOL0     H66384   1.302   5.296   9.646 -0.5601  0.9366 -1.2484
  503MOL0     H66385   1.491   5.236   9.762 -2.3266  0.3179  2.6116
  503MOL0     H66386   1.720   5.233   9.787  1.1650  0.8421  1.1273
  503MOL0     H66387   1.632   5.205   9.941  1.1190  0.6829  4.8438
  503MOL0     H66388   1.837   5.272  10.073 -0.8758 -3.3310  1.9580
  503MOL0     H66389   1.845   5.124   9.981  1.4825  0.0166 -0.3987
  503MOL0     H66390   1.956   5.392   9.887 -0.5244  0.7269  1.8770
  503MOL0     H66391   1.949   5.236   9.797 -0.6199 -1.1822  0.5491
  503MOL0     H66392   2.102   5.120   9.942 -0.4459 -0.6175  3.0607
  503MOL0     H66393   2.179   5.264   9.891  0.0786  0.2992 -1.3657
  503MOL0     H66394   2.234   5.338  10.280 -1.5018 -1.4149 -0.2755
  503MOL0     H66395   1.560   5.631   9.890  1.2766  0.7034 -1.1794
  503MOL0     H66396   1.349   5.697   9.789 -3.5219 -0.8144  1.4774
  504MOL0     O66397   6.418   9.188   0.756 -0.2110 -0.2848 -0.8512
  504MOL0     C66398   6.310   9.252   0.777 -0.9908  0.2190  0.5869
  504MOL0     O66399   6.283   9.337   0.880  0.3810  0.8502 -0.2674
  504MOL0     C66400   6.376   9.375   0.979  1.3021  0.1378  0.2001
  504MOL0     C66401   6.508   9.423   0.954 -0.0231  0.3483 -0.2076
  504MOL0     C66402   6.575   9.463   1.074  1.1149  0.4848 -0.4063
  504MOL0     C66403   6.522   9.472   1.204 -0.1536 -0.2659 -0.3319
  504MOL0     O66404   6.586   9.520   1.318 -0.3984 -0.0986  0.2418
  504MOL0     C66405   6.722   9.509   1.333  0.0203 -0.7798 -0.8441
  504MOL0     C66406   6.746   9.593   1.453  0.6392  0.3657  0.0562
  504MOL0     C66407   6.891   9.607   1.509 -0.7353  0.0434  0.5900
  504MOL0     C66408   6.889   9.660   1.653 -0.3192  0.4929  0.2543
  504MOL0     C66409   7.036   9.686   1.689  0.0161 -1.2885  1.1990
  504MOL0     C66410   7.067   9.726   1.837  0.1151  0.0212  1.0118
  504MOL0     C66411   7.093   9.614   1.931  0.4568  0.1541  0.6842
  504MOL0     C66412   7.086   9.663   2.072  0.3494  0.1988  0.4657
  504MOL0     N66413   7.067   9.548   2.169 -0.3353  1.0721  0.6627
  504MOL0     C66414   7.142   9.438   2.185  2.0652 -0.3967 -0.2146
  504MOL0     C66415   7.077   9.339   2.258 -0.4296 -0.5721  1.3360
  504MOL0     C66416   7.135   9.205   2.290 -0.2226  0.1945  0.3864
  504MOL0     C66417   7.131   9.099   2.178 -0.3743  0.4431  0.6513
  504MOL0     C66418   7.221   8.977   2.201 -0.6039 -0.5248  0.5388
  504MOL0     C66419   7.181   8.886   2.314 -1.0203 -0.3517 -0.6079
  504MOL0     O66420   7.233   8.757   2.308 -0.3113  0.4725  0.2663
  504MOL0     C66421   7.266   8.693   2.426 -0.3166  0.5329  0.4491
  504MOL0     C66422   7.241   8.744   2.557 -0.4196 -0.5104 -0.0683
  504MOL0     C66423   7.279   8.679   2.671 -0.5698 -0.6770 -0.9081
  504MOL0     C66424   7.336   8.552   2.672 -0.2345  0.4139 -0.0091
  504MOL0     C66425   7.374   8.477   2.796  0.4193 -0.2883  0.4538
  504MOL0     O66426   7.438   8.356   2.779 -0.8059  0.5012 -0.3936
  504MOL0     C66427   7.500   8.306   2.885  0.1706 -0.9542 -0.2985
  504MOL0     C66428   7.442   8.198   2.952 -0.6933  0.0720 -0.2191
  504MOL0     C66429   7.515   8.150   3.061 -0.1400 -0.0576  0.1495
  504MOL0     C66430   7.636   8.199   3.101 -0.4222  0.5545  0.4114
  504MOL0     O66431   7.714   8.141   3.200 -0.8175  0.9030 -0.1732
  504MOL0     C66432   7.666   8.027   3.271 -0.5358  0.5858  0.0759
  504MOL0     C66433   7.782   7.970   3.361  0.3637 -0.0695 -0.0717
  504MOL0     C66434   7.733   7.848   3.448  0.3103  0.0957 -0.2333
  504MOL0     C66435   7.674   7.722   3.370 -0.1185  0.5846 -0.5612
  504MOL0     C66436   7.624   7.609   3.460  0.6753 -0.1282 -0.4075
  504MOL0     C66437   7.582   7.486   3.374 -0.2405  0.0657  0.1983
  504MOL0     C66438   7.511   7.379   3.467 -0.3366 -0.1926 -0.2638
  504MOL0     C66439   7.413   7.285   3.403  0.9549  0.0532 -0.4217
  504MOL0    Cl66440   7.272   7.373   3.340 -0.2679 -0.1004 -0.0875
  504MOL0     C66441   7.695   8.317   3.040 -0.4364  1.1676  0.3104
  504MOL0     C66442   7.626   8.363   2.927  0.0897 -0.4238 -0.3521
  504MOL0     O66443   7.341   8.533   2.908 -0.1660  0.2746  0.6446
  504MOL0     C66444   7.376   8.500   2.541 -0.5291  0.3029  0.5057
  504MOL0     C66445   7.342   8.574   2.421 -0.1613 -0.0797 -0.5375
  504MOL0     N66446   6.966   9.398   2.294 -0.3569 -0.3876  0.7737
  504MOL0     N66447   6.960   9.521   2.243 -0.3160 -0.3539 -1.2711
  504MOL0     C66448   6.394   9.419   1.220  0.2134  0.3240  0.4289
  504MOL0     C66449   6.329   9.371   1.112  0.3063  0.0514 -0.3744
  504MOL0     C66450   6.196   9.241   0.680  0.2942 -0.6836 -0.3008
  504MOL0     C66451   6.211   9.169   0.556 -0.0508 -0.0934  0.2106
  504MOL0     C66452   6.101   9.163   0.465  0.6825 -0.5441 -0.1752
  504MOL0     C66453   5.979   9.222   0.507 -0.3775 -0.1484  0.1975
  504MOL0     O66454   5.862   9.197   0.433 -0.0290 -0.6223 -0.2620
  504MOL0     C66455   5.854   9.264   0.309  0.0669  0.0159 -0.1885
  504MOL0     C66456   5.784   9.176   0.212  0.9881 -0.7156  0.0958
  504MOL0     C66457   5.746   9.258   0.088  0.3065 -0.2310  0.3551
  504MOL0     C66458   5.680   9.195  -0.024  0.0548  0.6887 -0.8061
  504MOL0     C66459   5.548   9.144   0.007  0.1131 -0.4093  0.3001
  504MOL0     C66460   5.429   9.127   0.028 -0.3644 -0.3190  0.8484
  504MOL0     C66461   5.971   9.277   0.630  0.2200  0.9797 -1.2057
  504MOL0     C66462   6.069   9.294   0.717 -0.0345  0.3203  0.1391
  504MOL0     H66463   6.560   9.427   0.859  0.9662 -1.3905  0.2206
  504MOL0     H66464   6.678   9.496   1.070  1.9106 -1.7399  0.0307
  504MOL0     H66465   6.785   9.550   1.254 -0.2580  0.4915 -0.4240
  504MOL0     H66466   6.754   9.406   1.352  0.5276 -0.1803  1.9629
  504MOL0     H66467   6.693   9.545   1.536  1.2651  1.2694  1.0031
  504MOL0     H66468   6.700   9.692   1.444  1.0912  0.5528 -0.2444
  504MOL0     H66469   6.943   9.678   1.444  0.5160 -0.6156  0.8541
  504MOL0     H66470   6.948   9.514   1.521 -0.2783  0.3459  0.8034
  504MOL0     H66471   6.824   9.746   1.668  0.4585  0.9429  1.1449
  504MOL0     H66472   6.856   9.579   1.719 -2.3822 -0.5003 -1.8518
  504MOL0     H66473   7.069   9.775   1.633  1.6215 -0.4109  3.3870
  504MOL0     H66474   7.112   9.609   1.668  5.2612  2.3210  4.4135
  504MOL0     H66475   6.986   9.790   1.871  0.8596  1.9273 -0.6018
  504MOL0     H66476   7.159   9.786   1.831 -2.5070  5.1658  4.6406
  504MOL0     H66477   7.019   9.537   1.908 -0.2384  0.3747  2.0262
  504MOL0     H66478   7.196   9.582   1.913  1.1806 -0.1958  4.4997
  504MOL0     H66479   7.003   9.733   2.084 -1.2187 -0.9987 -2.3466
  504MOL0     H66480   7.176   9.722   2.088 -0.1287  1.1219 -0.1533
  504MOL0     H66481   7.239   9.429   2.136  3.1951  1.5357  1.5222
  504MOL0     H66482   7.101   9.160   2.383  0.2952  1.3892  1.1861
  504MOL0     H66483   7.241   9.223   2.308  0.1088 -0.8188 -0.4881
  504MOL0     H66484   7.170   9.152   2.090  3.5337 -0.5278  1.6183
  504MOL0     H66485   7.029   9.060   2.178 -1.7174  3.2512 -3.0637
  504MOL0     H66486   7.219   8.923   2.105 -1.5482  0.5434 -0.0734
  504MOL0     H66487   7.318   9.022   2.224 -0.4332  0.3592 -1.6754
  504MOL0     H66488   7.073   8.874   2.330 -2.1087 -0.9963 -6.3077
  504MOL0     H66489   7.222   8.936   2.402 -0.2156  1.4200 -1.9241
  504MOL0     H66490   7.190   8.837   2.580  1.2113 -0.0046  1.7712
  504MOL0     H66491   7.264   8.733   2.764 -0.0253 -0.4612 -0.9434
  504MOL0     H66492   7.345   8.168   2.915 -0.7496 -1.0876  0.7873
  504MOL0     H66493   7.479   8.070   3.126  2.2887 -1.8350 -0.5575
  504MOL0     H66494   7.633   7.950   3.201 -1.3669 -1.7240  2.7897
  504MOL0     H66495   7.587   8.057   3.340  0.5239  3.8204  0.0172
  504MOL0     H66496   7.813   8.044   3.434  0.6529  0.5291 -0.7855
  504MOL0     H66497   7.868   7.943   3.299  1.9004 -1.4183  2.4708
  504MOL0     H66498   7.660   7.895   3.514  2.3267  1.8228  0.8641
  504MOL0     H66499   7.816   7.810   3.507 -0.8340 -0.5197  1.0186
  504MOL0     H66500   7.593   7.737   3.299 -1.0153 -4.2864 -0.8842
  504MOL0     H66501   7.760   7.683   3.315  0.2153 -1.2989  1.1978
  504MOL0     H66502   7.531   7.642   3.509  2.0879 -2.6611  4.7222
  504MOL0     H66503   7.679   7.596   3.554 -1.0749  4.3420  1.5693
  504MOL0     H66504   7.669   7.452   3.317 -1.0020 -2.0292  0.1869
  504MOL0     H66505   7.507   7.527   3.305  1.1305  1.7860 -0.3526
  504MOL0     H66506   7.593   7.319   3.506 -1.9797 -1.3329  1.6478
  504MOL0     H66507   7.466   7.418   3.559 -0.4554 -1.8639  0.4147
  504MOL0     H66508   7.375   7.220   3.482  2.8058 -3.7511 -2.3861
  504MOL0     H66509   7.454   7.211   3.334  2.2957 -3.0322  3.3767
  504MOL0     H66510   7.793   8.354   3.066  0.6197 -0.4741 -1.0812
  504MOL0     H66511   7.662   8.440   2.859  0.9214 -1.2566 -0.8647
  504MOL0     H66512   7.441   8.416   2.522 -2.5390 -1.0062 -0.9543
  504MOL0     H66513   7.371   8.539   2.322  2.0241  1.1488 -0.3937
  504MOL0     H66514   6.349   9.418   1.319  0.4210  0.2594  0.5248
  504MOL0     H66515   6.229   9.332   1.123  0.6358 -1.0086 -1.0038
  504MOL0     H66516   6.305   9.114   0.548 -0.9219 -1.3435 -4.0199
  504MOL0     H66517   6.108   9.117   0.367  1.7878 -1.3343  0.2476
  504MOL0     H66518   5.949   9.277   0.257 -0.5600 -0.0888 -1.3942
  504MOL0     H66519   5.801   9.359   0.312  2.3479  1.4407 -2.0934
  504MOL0     H66520   5.839   9.084   0.193  1.2396 -1.5033  3.8621
  504MOL0     H66521   5.697   9.134   0.263 -0.3001  0.9705 -0.5908
  504MOL0     H66522   5.837   9.294   0.041 -0.8394  0.0111 -1.8170
  504MOL0     H66523   5.694   9.351   0.113  1.3858  1.3737 -2.8876
  504MOL0     H66524   5.675   9.251  -0.117  0.4953  1.1228 -0.5701
  504MOL0     H66525   5.736   9.104  -0.046  0.5321  0.5450  0.8650
  504MOL0     H66526   5.323   9.128   0.045 -0.3288 -0.5143  1.0892
  504MOL0     H66527   5.874   9.311   0.663  0.5419 -0.0205  0.9785
  504MOL0     H66528   6.045   9.324   0.818 -1.0872 -2.6722  0.8677
  505MOL0     O66529  10.392   4.667   4.966  0.3890 -0.2230 -0.3509
  505MOL0     C66530  10.487   4.712   5.027  0.2533 -1.1800 -0.5442
  505MOL0     O66531  10.496   4.829   5.086  0.1782 -0.6392 -0.4748
  505MOL0     C66532  10.374   4.888   5.111 -0.5040  0.9799  0.2114
  505MOL0     C66533  10.281   4.823   5.195  0.3023 -0.3578  0.6265
  505MOL0     C66534  10.154   4.880   5.204 -0.2534 -0.1733 -0.7860
  505MOL0     C66535  10.138   5.008   5.161  0.4544  0.0610 -0.4200
  505MOL0     O66536  10.023   5.075   5.168  0.7426  0.8146  0.2649
  505MOL0     C66537   9.901   5.017   5.117 -0.6229  0.2455 -0.2673
  505MOL0     C66538   9.802   5.127   5.082  0.1718 -0.0426 -0.0928
  505MOL0     C66539   9.680   5.055   5.036  0.1171  0.4777 -0.2753
  505MOL0     C66540   9.569   5.161   5.018 -0.1304 -0.3124 -0.8930
  505MOL0     C66541   9.442   5.095   4.968  0.1269 -0.2836 -0.2164
  505MOL0     C66542   9.333   5.175   4.907  0.7498  0.5824  0.3803
  505MOL0     C66543   9.211   5.076   4.859 -0.2476  0.3580  0.7028
  505MOL0     C66544   9.124   5.149   4.747 -0.7673 -0.7138 -0.0035
  505MOL0     N66545   9.182   5.172   4.612 -0.4173 -0.6174 -0.3676
  505MOL0     C66546   9.209   5.293   4.550  0.6888  0.8959  0.3927
  505MOL0     C66547   9.296   5.249   4.452  0.1619 -0.2400  0.1051
  505MOL0     C66548   9.364   5.352   4.347 -0.0279  0.6953  0.4171
  505MOL0     C66549   9.259   5.410   4.252  0.3820 -0.4154 -1.0617
  505MOL0     C66550   9.289   5.533   4.162 -0.7471  0.6706  0.3710
  505MOL0     C66551   9.276   5.670   4.237 -0.4493 -0.8154 -0.1849
  505MOL0     O66552   9.265   5.780   4.148 -0.1570 -0.6475  0.3308
  505MOL0     C66553   9.295   5.902   4.208 -0.7725 -0.7343  0.1364
  505MOL0     C66554   9.320   5.923   4.345 -0.4422 -0.2593  0.1820
  505MOL0     C66555   9.359   6.045   4.397 -0.0819  0.4284 -0.4180
  505MOL0     C66556   9.365   6.170   4.321 -0.4886  0.5017 -1.1656
  505MOL0     C66557   9.404   6.301   4.390  0.5238  1.3407 -0.3413
  505MOL0     O66558   9.455   6.401   4.309  0.2957 -0.2720 -0.5280
  505MOL0     C66559   9.485   6.527   4.350  0.2058 -0.4422 -0.4105
  505MOL0     C66560   9.550   6.605   4.256 -1.1367 -0.9991 -0.6439
  505MOL0     C66561   9.570   6.747   4.281  0.7060 -0.2117  1.0979
  505MOL0     C66562   9.529   6.807   4.408 -0.3177  0.6278  0.7504
  505MOL0     O66563   9.550   6.939   4.418 -0.1725  0.2252  0.1122
  505MOL0     C66564   9.610   6.985   4.544  0.5061  0.2000  0.4692
  505MOL0     C66565   9.600   7.136   4.548  0.7282 -0.3501  0.1354
  505MOL0     C66566   9.697   7.208   4.449 -0.1499 -0.3722 -0.0797
  505MOL0     C66567   9.679   7.360   4.450 -0.5698 -0.5336 -0.3001
  505MOL0     C66568   9.789   7.435   4.366  0.6181 -1.6353  0.4694
  505MOL0     C66569   9.926   7.444   4.434  1.0144 -0.0755 -0.1496
  505MOL0     C66570  10.034   7.472   4.336 -0.5575  0.4946 -0.3833
  505MOL0     C66571  10.164   7.496   4.409  0.4145  0.0357  0.3408
  505MOL0    Cl66572  10.294   7.525   4.290  0.2272 -0.6818 -0.3807
  505MOL0     C66573   9.451   6.733   4.498 -0.5777 -0.5029  0.3832
  505MOL0     C66574   9.435   6.593   4.469  1.0329  0.5103  0.3230
  505MOL0     O66575   9.399   6.305   4.511 -0.6676 -0.5605 -0.4951
  505MOL0     C66576   9.336   6.153   4.185 -0.3212  0.4404 -0.3577
  505MOL0     C66577   9.303   6.026   4.129  0.7581  0.0688 -0.4760
  505MOL0     N66578   9.325   5.111   4.448  0.8521 -0.4000 -0.9576
  505MOL0     N66579   9.254   5.071   4.556 -0.0627  1.0727 -0.8410
  505MOL0     C66580  10.234   5.081   5.097  0.0717 -0.5639 -0.1253
  505MOL0     C66581  10.358   5.021   5.078  0.0294  0.7859  0.0780
  505MOL0     C66582  10.627   4.657   5.007  0.1379 -0.4538  0.6789
  505MOL0     C66583  10.660   4.582   4.897 -0.3205  1.0496 -0.4643
  505MOL0     C66584  10.785   4.518   4.883  0.5658 -0.0093 -0.4617
  505MOL0     C66585  10.878   4.535   4.985 -0.3503  0.1122 -0.0667
  505MOL0     O66586  10.992   4.465   4.964 -0.5575  0.1021  0.7738
  505MOL0     C66587  11.040   4.407   5.087 -0.5125  0.2356  0.9562
  505MOL0     C66588  11.189   4.450   5.100  0.0690 -0.3250 -0.3251
  505MOL0     C66589  11.284   4.361   5.031  0.2401  0.8561  0.3724
  505MOL0     C66590  11.325   4.243   5.121  0.9979  0.5285 -0.4589
  505MOL0     C66591  11.463   4.212   5.113 -1.1259 -0.9523  0.2396
  505MOL0     C66592  11.586   4.200   5.113 -0.3097  0.5334 -0.5474
  505MOL0     C66593  10.854   4.629   5.081 -1.3806  0.1863 -0.1185
  505MOL0     C66594  10.728   4.677   5.102  0.2858 -0.4051 -0.1809
  505MOL0     H66595  10.318   4.730   5.237  1.0691 -0.8492 -1.0754
  505MOL0     H66596  10.068   4.835   5.252  0.2382 -0.4481 -0.1466
  505MOL0     H66597   9.853   4.940   5.177  0.1466 -1.9190 -2.2805
  505MOL0     H66598   9.930   4.972   5.022  2.1809 -1.4873  1.2486
  505MOL0     H66599   9.842   5.201   5.011  0.2288  0.0315  0.0174
  505MOL0     H66600   9.779   5.175   5.177 -2.7521 -0.8632 -0.2937
  505MOL0     H66601   9.645   4.989   5.116  4.2423  1.2448  2.4884
  505MOL0     H66602   9.700   4.999   4.944 -1.0613 -1.4166  0.5507
  505MOL0     H66603   9.559   5.208   5.116  4.7338 -1.1160  0.2403
  505MOL0     H66604   9.600   5.222   4.932 -4.3090 -0.5458 -2.7773
  505MOL0     H66605   9.391   5.048   5.053 -0.6929  0.5022 -0.2649
  505MOL0     H66606   9.467   5.014   4.899  1.8881  1.0266 -1.1919
  505MOL0     H66607   9.370   5.229   4.819  1.4218 -1.8098 -0.9094
  505MOL0     H66608   9.298   5.249   4.978 -1.8957  1.2717 -1.4698
  505MOL0     H66609   9.240   4.975   4.826 -0.4999  0.2081  0.9331
  505MOL0     H66610   9.155   5.066   4.952  4.4691 -3.6348  3.6839
  505MOL0     H66611   9.091   5.237   4.803  1.1701 -1.1887  2.0503
  505MOL0     H66612   9.039   5.083   4.729 -0.9502 -1.3565  2.7317
  505MOL0     H66613   9.172   5.392   4.575  2.2474  1.6121 -0.0194
  505MOL0     H66614   9.436   5.306   4.278 -0.9175 -2.0804  1.2049
  505MOL0     H66615   9.416   5.424   4.410  1.1594 -2.4597  3.3246
  505MOL0     H66616   9.166   5.434   4.305  1.1886  2.4576 -0.7841
  505MOL0     H66617   9.223   5.333   4.182 -2.1722  0.3615 -0.7357
  505MOL0     H66618   9.386   5.524   4.112 -1.2792  1.2323 -0.7994
  505MOL0     H66619   9.208   5.520   4.089 -0.7201  0.9449  0.2922
  505MOL0     H66620   9.366   5.686   4.297 -0.3283  1.7169 -0.9411
  505MOL0     H66621   9.194   5.675   4.309  1.2225  0.6058  1.7478
  505MOL0     H66622   9.303   5.839   4.412  0.1837  0.6138  1.4866
  505MOL0     H66623   9.389   6.050   4.502  1.5730 -0.1729 -0.8362
  505MOL0     H66624   9.584   6.575   4.157 -0.9904  0.3704 -1.0269
  505MOL0     H66625   9.627   6.797   4.203  0.9183  0.3143  1.5819
  505MOL0     H66626   9.712   6.949   4.564  0.0916  0.0382  2.4498
  505MOL0     H66627   9.543   6.955   4.625 -3.4219 -1.3057 -2.9826
  505MOL0     H66628   9.624   7.170   4.649 -1.0644  1.2351  0.0813
  505MOL0     H66629   9.497   7.169   4.532  0.6663 -0.7018 -0.2094
  505MOL0     H66630   9.676   7.177   4.346  1.9064 -1.6863 -0.1591
  505MOL0     H66631   9.801   7.181   4.471 -0.0276 -1.7470 -2.0616
  505MOL0     H66632   9.583   7.395   4.410 -1.4848 -1.2801  1.1418
  505MOL0     H66633   9.683   7.399   4.552  1.8547 -0.0559 -0.5338
  505MOL0     H66634   9.767   7.542   4.363  2.9243 -1.0840  0.9397
  505MOL0     H66635   9.779   7.408   4.260  1.8745 -1.0845  0.1876
  505MOL0     H66636   9.939   7.345   4.479 -0.3678 -0.0493  0.3477
  505MOL0     H66637   9.923   7.524   4.508  1.7420 -0.2542  0.0830
  505MOL0     H66638  10.047   7.386   4.270 -0.1446  0.5486 -0.3754
  505MOL0     H66639  10.009   7.572   4.298 -0.5133  1.4131  1.8281
  505MOL0     H66640  10.185   7.406   4.467  0.3767 -0.3427 -0.2327
  505MOL0     H66641  10.157   7.579   4.480  3.5509  0.1611  0.6484
  505MOL0     H66642   9.401   6.766   4.588 -0.3860  2.2787 -0.4099
  505MOL0     H66643   9.393   6.532   4.549 -1.3188 -0.8965 -1.8317
  505MOL0     H66644   9.358   6.239   4.123 -0.7202  1.9299  1.4730
  505MOL0     H66645   9.275   6.016   4.025 -1.4639  2.1891 -0.1700
  505MOL0     H66646  10.209   5.181   5.062 -0.4879 -0.8976 -0.6988
  505MOL0     H66647  10.434   5.074   5.022  0.0037 -1.1733 -1.9072
  505MOL0     H66648  10.592   4.554   4.817  1.3507 -0.2331 -1.5262
  505MOL0     H66649  10.804   4.453   4.797  1.0456 -1.8691  0.9716
  505MOL0     H66650  11.039   4.298   5.099  1.1207  0.1335  0.3681
  505MOL0     H66651  10.974   4.436   5.169  0.8023 -1.5835  2.7638
  505MOL0     H66652  11.209   4.544   5.049  0.2114  0.2260  0.7292
  505MOL0     H66653  11.217   4.451   5.206 -1.6933 -2.5515  0.2601
  505MOL0     H66654  11.369   4.429   5.020  0.4568  0.5961  0.4510
  505MOL0     H66655  11.261   4.337   4.927  1.9137  0.3771  0.0783
  505MOL0     H66656  11.298   4.264   5.225 -0.8248  1.3848 -1.0676
  505MOL0     H66657  11.260   4.158   5.095 -0.2476  1.1785  0.3874
  505MOL0     H66658  11.690   4.180   5.125 -0.5622  0.7865  2.9850
  505MOL0     H66659  10.924   4.658   5.158 -2.6369 -0.9174  1.5305
  505MOL0     H66660  10.694   4.727   5.192  1.3584 -0.9621  0.5591
  506MOL0     O66661   2.852   2.919   1.604 -0.0226 -0.2022 -0.4588
  506MOL0     C66662   2.812   2.975   1.507  0.2695  0.5055  0.4131
  506MOL0     O66663   2.875   2.983   1.379  0.3113  0.4667 -0.2490
  506MOL0     C66664   2.993   2.915   1.384  0.7810 -0.8430  0.2730
  506MOL0     C66665   3.006   2.783   1.360 -1.1342  0.2044 -0.3239
  506MOL0     C66666   3.136   2.719   1.364 -0.1225 -0.0657 -0.8251
  506MOL0     C66667   3.253   2.794   1.394 -0.5526 -0.0093 -0.8577
  506MOL0     O66668   3.383   2.738   1.416  0.3220  0.4650  0.0461
  506MOL0     C66669   3.415   2.612   1.351  0.1858  0.3238 -0.0142
  506MOL0     C66670   3.548   2.652   1.286  0.6985 -0.3104 -0.5337
  506MOL0     C66671   3.585   2.570   1.174 -0.9387  0.4640 -0.5304
  506MOL0     C66672   3.726   2.610   1.122 -0.2284 -0.1717  1.0170
  506MOL0     C66673   3.752   2.533   0.986 -0.3655 -0.0391 -0.3156
  506MOL0     C66674   3.672   2.588   0.860  0.6445  1.0327 -0.7578
  506MOL0     C66675   3.741   2.522   0.738  0.1769 -0.5301 -0.6884
  506MOL0     C66676   3.677   2.589   0.620 -0.5825  1.6251  0.3336
  506MOL0     N66677   3.529   2.575   0.601 -0.4074 -0.7346 -0.4915
  506MOL0     C66678   3.465   2.454   0.606  0.1482  0.2707 -0.9350
  506MOL0     C66679   3.331   2.477   0.595  0.3093 -0.5319 -0.2049
  506MOL0     C66680   3.236   2.367   0.577 -0.7708 -0.1685 -0.1966
  506MOL0     C66681   3.130   2.393   0.478 -0.4451 -0.2097  0.0235
  506MOL0     C66682   3.029   2.497   0.526  0.3630  0.0501  0.5670
  506MOL0     C66683   2.908   2.525   0.428  0.8574  0.3681  0.0757
  506MOL0     O66684   2.930   2.634   0.341  0.8851 -0.5213 -0.2568
  506MOL0     C66685   2.838   2.731   0.349  0.0892  0.6411  0.2961
  506MOL0     C66686   2.832   2.816   0.458 -0.0031 -0.1252 -0.2108
  506MOL0     C66687   2.746   2.921   0.467 -0.7391 -0.2282  0.6024
  506MOL0     C66688   2.651   2.939   0.372 -0.4071  1.1400  0.7117
  506MOL0     C66689   2.559   3.055   0.377  0.5996 -0.2044  0.2757
  506MOL0     O66690   2.570   3.130   0.490  0.0459 -0.7019 -0.1816
  506MOL0     C66691   2.471   3.219   0.523  0.0003  0.3624 -0.8398
  506MOL0     C66692   2.459   3.324   0.438  0.1339 -0.5806  1.1215
  506MOL0     C66693   2.354   3.408   0.457  0.0831 -1.1080 -0.5109
  506MOL0     C66694   2.264   3.403   0.568 -0.3728  1.0205 -1.2121
  506MOL0     O66695   2.163   3.496   0.601 -0.9644  0.1096 -0.0686
  506MOL0     C66696   2.106   3.570   0.496  0.0760  0.0938 -0.0211
  506MOL0     C66697   2.000   3.658   0.562  0.0129  0.2166  0.5857
  506MOL0     C66698   1.894   3.563   0.609  0.4596 -0.3726 -0.0016
  506MOL0     C66699   1.774   3.623   0.689 -0.1783 -0.3612  1.0961
  506MOL0     C66700   1.689   3.712   0.591  0.6166 -0.4049 -0.0042
  506MOL0     C66701   1.560   3.735   0.663  1.5570  0.0334 -0.0318
  506MOL0     C66702   1.474   3.860   0.617  0.1710 -0.9278  0.0118
  506MOL0     C66703   1.333   3.858   0.664 -0.1011 -0.7534  0.4107
  506MOL0    Cl66704   1.258   4.008   0.615  0.4179  0.0932  0.2617
  506MOL0     C66705   2.282   3.293   0.665  0.0819  0.2401 -0.0415
  506MOL0     C66706   2.386   3.202   0.634 -0.2061 -0.4580 -0.6586
  506MOL0     O66707   2.485   3.075   0.273 -0.1487  0.4301 -0.0129
  506MOL0     C66708   2.662   2.856   0.257 -0.1314 -0.7923  0.2482
  506MOL0     C66709   2.756   2.761   0.241  0.3528 -0.1853 -0.2683
  506MOL0     N66710   3.315   2.610   0.576 -0.2305  0.0590  0.0860
  506MOL0     N66711   3.434   2.667   0.569 -0.1711 -0.9162 -0.0064
  506MOL0     C66712   3.240   2.927   1.409 -1.0886 -0.3073  0.7787
  506MOL0     C66713   3.113   2.995   1.398  0.0237 -1.0715 -0.1134
  506MOL0     C66714   2.688   3.054   1.520 -0.0122  0.0693  0.5693
  506MOL0     C66715   2.607   3.047   1.632  0.5101  0.9071 -0.0167
  506MOL0     C66716   2.490   3.120   1.649  0.6270  0.6194 -0.0969
  506MOL0     C66717   2.433   3.187   1.541 -0.0650  0.9854 -0.1024
  506MOL0     O66718   2.317   3.250   1.539 -0.0368 -0.7672  0.9155
  506MOL0     C66719   2.229   3.254   1.647  0.0261  0.2777  0.3204
  506MOL0     C66720   2.133   3.131   1.639  0.2278 -0.3975  0.0745
  506MOL0     C66721   2.036   3.141   1.519 -0.6358  0.1753  0.3565
  506MOL0     C66722   1.912   3.039   1.532  0.0746 -0.3064  0.1775
  506MOL0     C66723   1.949   2.899   1.521  0.8286 -0.1199  0.8144
  506MOL0     C66724   1.979   2.785   1.517  0.4632  0.3106 -0.8900
  506MOL0     C66725   2.506   3.200   1.421 -0.3681 -0.2491 -0.1722
  506MOL0     C66726   2.639   3.141   1.416 -0.0261 -0.1717 -0.5333
  506MOL0     H66727   2.917   2.725   1.335  0.8518 -3.4423  0.4087
  506MOL0     H66728   3.146   2.612   1.348  2.0440  0.5708 -5.4289
  506MOL0     H66729   3.341   2.581   1.276  2.9152  0.0701 -2.7979
  506MOL0     H66730   3.420   2.530   1.423 -1.1549 -0.1523 -0.4269
  506MOL0     H66731   3.624   2.651   1.365  2.2707 -0.7918 -1.9896
  506MOL0     H66732   3.538   2.757   1.258 -0.8961 -1.0052 -2.8546
  506MOL0     H66733   3.514   2.582   1.092 -0.7426 -1.2813 -1.0000
  506MOL0     H66734   3.584   2.462   1.190 -1.2286 -0.2890 -4.6437
  506MOL0     H66735   3.730   2.715   1.093 -0.2898 -0.5716 -0.5418
  506MOL0     H66736   3.800   2.577   1.195 -0.4236 -2.4207  0.2920
  506MOL0     H66737   3.745   2.424   1.000  3.0059 -0.1163  2.0880
  506MOL0     H66738   3.858   2.549   0.963  0.3898 -1.3598  1.9363
  506MOL0     H66739   3.679   2.697   0.857  1.0898  1.2085  2.6297
  506MOL0     H66740   3.567   2.559   0.859  0.7856  0.4727 -0.4235
  506MOL0     H66741   3.848   2.542   0.738 -0.1665  1.8011  0.9363
  506MOL0     H66742   3.728   2.414   0.728  1.4364 -0.5316 -2.6570
  506MOL0     H66743   3.738   2.546   0.540  2.7900 -0.7074  3.7749
  506MOL0     H66744   3.703   2.695   0.619  2.7308  0.9156 -1.4999
  506MOL0     H66745   3.515   2.358   0.614 -4.2374 -2.0944  3.9500
  506MOL0     H66746   3.191   2.335   0.671  0.7597  3.8774  2.1305
  506MOL0     H66747   3.283   2.277   0.534 -0.3900  0.5191 -1.2585
  506MOL0     H66748   3.084   2.294   0.478  1.0709 -0.9779  2.1388
  506MOL0     H66749   3.178   2.419   0.383  1.1137 -1.3976  0.4530
  506MOL0     H66750   2.982   2.473   0.622  0.1791 -2.6433 -0.1394
  506MOL0     H66751   3.074   2.597   0.536 -0.2393  0.2219  1.6559
  506MOL0     H66752   2.819   2.536   0.491  1.3298  0.9408  0.6517
  506MOL0     H66753   2.890   2.439   0.364  2.6655  0.9621 -1.3074
  506MOL0     H66754   2.908   2.804   0.534  1.0082 -1.0110 -1.3131
  506MOL0     H66755   2.758   2.981   0.557 -1.3449  0.9266 -0.0584
  506MOL0     H66756   2.522   3.325   0.349 -2.5449 -2.8224 -0.9608
  506MOL0     H66757   2.340   3.485   0.382 -0.3716 -0.0945  0.5956
  506MOL0     H66758   2.058   3.503   0.424  0.2443  0.0260 -0.0719
  506MOL0     H66759   2.185   3.633   0.454 -0.9614  0.9063 -0.7971
  506MOL0     H66760   1.964   3.727   0.485  0.7659 -1.4709 -1.3846
  506MOL0     H66761   2.055   3.715   0.638 -0.9400  0.6649  0.9650
  506MOL0     H66762   1.943   3.495   0.680  2.0249  1.4105  0.6957
  506MOL0     H66763   1.853   3.530   0.513 -0.9881 -0.6057  0.6756
  506MOL0     H66764   1.712   3.536   0.711 -1.8943  0.5384  0.0171
  506MOL0     H66765   1.802   3.679   0.779 -0.0928  0.5234  0.5368
  506MOL0     H66766   1.684   3.684   0.485  0.2864  1.4791 -0.5201
  506MOL0     H66767   1.738   3.810   0.594 -1.4258  0.7046 -1.0730
  506MOL0     H66768   1.569   3.748   0.771  0.7858 -0.6599  0.1315
  506MOL0     H66769   1.497   3.645   0.656 -0.7196  1.5300 -0.0069
  506MOL0     H66770   1.512   3.955   0.656 -2.4130 -0.1414  0.8522
  506MOL0     H66771   1.486   3.856   0.509  0.3988  0.9119 -0.0594
  506MOL0     H66772   1.339   3.849   0.773  1.1759 -2.3987  0.2375
  506MOL0     H66773   1.270   3.774   0.632  0.1254 -0.0155 -2.1293
  506MOL0     H66774   2.240   3.308   0.764  0.5874  1.0044  0.0678
  506MOL0     H66775   2.411   3.124   0.706 -0.8830  0.7441  0.9344
  506MOL0     H66776   2.592   2.863   0.175 -0.5300 -0.3415  0.6252
  506MOL0     H66777   2.758   2.704   0.148  1.4028 -1.3066  0.4170
  506MOL0     H66778   3.328   2.988   1.431 -1.1079  0.0422 -0.0756
  506MOL0     H66779   3.110   3.103   1.408  3.2249 -0.8666 -0.5179
  506MOL0     H66780   2.633   2.971   1.705 -0.7128  0.0854 -0.3948
  506MOL0     H66781   2.423   3.100   1.732 -1.3731 -1.0307 -1.9880
  506MOL0     H66782   2.175   3.346   1.622 -0.0252 -0.3176 -2.0299
  506MOL0     H66783   2.281   3.266   1.742  0.4116  0.5259  0.0812
  506MOL0     H66784   2.185   3.035   1.652  1.4634  0.5197  2.6503
  506MOL0     H66785   2.068   3.142   1.726  0.8450  2.6793  0.2541
  506MOL0     H66786   2.100   3.119   1.433 -0.7311 -1.6662  0.7012
  506MOL0     H66787   1.995   3.241   1.503 -0.7037 -0.2096 -2.1922
  506MOL0     H66788   1.881   3.049   1.636  1.8973  0.9069  0.6603
  506MOL0     H66789   1.827   3.064   1.467 -0.1428 -0.3075  0.4586
  506MOL0     H66790   2.003   2.682   1.537  0.3980  0.3136 -0.7955
  506MOL0     H66791   2.463   3.250   1.335  0.6510  0.1755 -0.4559
  506MOL0     H66792   2.700   3.174   1.333 -0.8695  0.5978 -0.8586
  507MOL0     O66793   0.852   9.513  11.381 -0.2771  0.7933  0.1287
  507MOL0     C66794   0.919   9.426  11.429  0.1667  0.4845 -0.3103
  507MOL0     O66795   1.039   9.392  11.399 -0.0136 -0.9285 -0.2862
  507MOL0     C66796   1.106   9.445  11.287 -0.1158  0.0414 -0.1682
  507MOL0     C66797   1.161   9.575  11.281 -0.4038 -0.2491  0.6651
  507MOL0     C66798   1.252   9.619  11.182  0.3598  0.2678 -0.0557
  507MOL0     C66799   1.279   9.528  11.076  0.1827 -0.5475 -1.1655
  507MOL0     O66800   1.359   9.579  10.988  0.0565 -0.4671  0.3111
  507MOL0     C66801   1.390   9.498  10.881 -0.9441  0.7611  0.6071
  507MOL0     C66802   1.470   9.580  10.790 -0.9101 -0.4367  0.0696
  507MOL0     C66803   1.523   9.523  10.663 -0.3303  0.5798 -0.3140
  507MOL0     C66804   1.631   9.416  10.690  0.7238 -0.0485  0.9172
  507MOL0     C66805   1.712   9.370  10.562 -0.0893 -0.4999 -0.4883
  507MOL0     C66806   1.632   9.293  10.463 -0.6761 -0.6838  0.8045
  507MOL0     C66807   1.706   9.233  10.349  0.2519 -1.2986 -0.2077
  507MOL0     C66808   1.620   9.160  10.256  0.2721  0.6320  0.5835
  507MOL0     N66809   1.704   9.083  10.165  0.6415 -0.8986  0.8252
  507MOL0     C66810   1.755   8.956  10.181 -0.9676 -0.6735 -0.1925
  507MOL0     C66811   1.821   8.930  10.059 -0.0574 -0.5036  0.2061
  507MOL0     C66812   1.900   8.799  10.026 -0.3001 -0.2866  0.5904
  507MOL0     C66813   2.038   8.813   9.966  0.2065 -0.9317 -0.5283
  507MOL0     C66814   2.098   8.691   9.907  0.2395 -0.7828 -0.5918
  507MOL0     C66815   2.103   8.570   9.993  0.3114  1.0563 -0.0324
  507MOL0     O66816   1.973   8.530  10.019 -0.0738  0.0506  0.1789
  507MOL0     C66817   1.939   8.443  10.116 -0.4254  0.2436 -0.3109
  507MOL0     C66818   2.024   8.369  10.201 -0.8480 -0.7408  0.0711
  507MOL0     C66819   1.980   8.280  10.302  0.0282 -0.8613  0.0564
  507MOL0     C66820   1.846   8.256  10.323  0.2739  0.5161  0.2599
  507MOL0     C66821   1.787   8.154  10.416 -0.1990  0.3554  0.2346
  507MOL0     O66822   1.656   8.117  10.396  0.5133  1.0447  0.4858
  507MOL0     C66823   1.570   8.070  10.494  0.7680  0.0246 -0.0413
  507MOL0     C66824   1.444   8.035  10.458  0.3153  0.5972 -0.6157
  507MOL0     C66825   1.358   7.943  10.537 -0.8875  0.2268 -0.6443
  507MOL0     C66826   1.394   7.911  10.672  0.4701 -0.3982  0.0627
  507MOL0     O66827   1.309   7.843  10.756 -0.3337 -0.2130 -0.6871
  507MOL0     C66828   1.182   7.791  10.704  0.4914  0.8927 -1.0323
  507MOL0     C66829   1.132   7.686  10.801 -0.0211 -0.2915 -0.4379
  507MOL0     C66830   0.988   7.638  10.781  0.5934 -0.6441  0.4111
  507MOL0     C66831   0.966   7.587  10.634 -0.9589  0.3761 -0.5560
  507MOL0     C66832   0.837   7.618  10.563  0.2684  0.5306 -0.5535
  507MOL0     C66833   0.709   7.562  10.643 -0.8606  0.6797  0.2061
  507MOL0     C66834   0.699   7.410  10.664  0.9924  0.5595 -0.8762
  507MOL0     C66835   0.691   7.337  10.534 -0.0266  0.8425  0.1313
  507MOL0    Cl66836   0.854   7.284  10.480  0.2566  0.1539  0.3528
  507MOL0     C66837   1.522   7.951  10.714 -0.3383 -0.3013 -0.0261
  507MOL0     C66838   1.601   8.029  10.628  0.1421  0.8098  0.2275
  507MOL0     O66839   1.866   8.086  10.483  0.0141  0.6719 -1.1328
  507MOL0     C66840   1.755   8.337  10.244  0.3975  0.2199 -0.0901
  507MOL0     C66841   1.804   8.413  10.130  1.0349 -0.4936 -0.0956
  507MOL0     N66842   1.816   9.047   9.981 -0.1155  0.0650  1.0755
  507MOL0     N66843   1.738   9.135  10.041  0.4880  0.2473  0.1143
  507MOL0     C66844   1.215   9.404  11.076  1.0866  0.0390  0.1564
  507MOL0     C66845   1.123   9.365  11.178 -0.9014  0.4337  0.3183
  507MOL0     C66846   0.841   9.364  11.543 -0.2515  0.8528  0.5484
  507MOL0     C66847   0.708   9.402  11.580 -0.1167 -0.1948 -0.1420
  507MOL0     C66848   0.636   9.324  11.668  0.2710  0.3398  0.0459
  507MOL0     C66849   0.688   9.206  11.725 -0.0753  0.1702 -0.7724
  507MOL0     O66850   0.617   9.145  11.828 -0.4018  0.1831  1.1349
  507MOL0     C66851   0.545   9.227  11.923 -0.4771 -0.6738  0.4850
  507MOL0     C66852   0.504   9.129  12.046  0.5584  0.7700  0.5255
  507MOL0     C66853   0.387   9.174  12.137  0.5240  0.2994  0.9241
  507MOL0     C66854   0.446   9.224  12.275  0.3054  0.1776 -0.0014
  507MOL0     C66855   0.529   9.343  12.250 -0.0105  0.2177 -0.2339
  507MOL0     C66856   0.595   9.441  12.234  0.6774 -1.2304 -0.4384
  507MOL0     C66857   0.820   9.169  11.694  0.4629 -0.4081 -0.2160
  507MOL0     C66858   0.886   9.240  11.603  0.1284 -0.4598  0.5149
  507MOL0     H66859   1.150   9.650  11.359  3.0012 -0.4618  1.4917
  507MOL0     H66860   1.305   9.714  11.181 -2.3885  1.9609 -2.5656
  507MOL0     H66861   1.302   9.464  10.824  0.3607  0.9302 -1.6217
  507MOL0     H66862   1.446   9.410  10.913 -2.7997 -1.8048 -2.5432
  507MOL0     H66863   1.557   9.611  10.848 -1.4726 -1.8213  1.7264
  507MOL0     H66864   1.408   9.668  10.769 -0.5578 -0.0920  0.4680
  507MOL0     H66865   1.573   9.591  10.594 -1.0384 -1.5568 -3.1072
  507MOL0     H66866   1.446   9.481  10.597 -0.4549  1.2430 -0.5976
  507MOL0     H66867   1.706   9.461  10.755 -0.2630  2.7168  0.2841
  507MOL0     H66868   1.589   9.324  10.731  1.1192 -0.7912 -0.3121
  507MOL0     H66869   1.786   9.299  10.599  0.4532  0.7409  0.8887
  507MOL0     H66870   1.770   9.453  10.521 -1.4072 -0.3438 -2.1741
  507MOL0     H66871   1.563   9.357  10.408 -0.8009 -0.4609  1.2167
  507MOL0     H66872   1.574   9.214  10.512  0.4075 -3.2168 -1.7201
  507MOL0     H66873   1.743   9.320  10.294  1.0996 -2.2963 -1.2706
  507MOL0     H66874   1.793   9.174  10.377  2.0984  1.2403 -0.2581
  507MOL0     H66875   1.549   9.224  10.203 -0.5774  1.8469  3.0235
  507MOL0     H66876   1.564   9.092  10.321  3.1937  0.7893  3.5318
  507MOL0     H66877   1.750   8.896  10.271  1.6588 -2.8290 -1.3361
  507MOL0     H66878   1.828   8.743   9.965  0.0644 -1.0553  0.8627
  507MOL0     H66879   1.903   8.729  10.110 -1.5043  1.3738  2.0930
  507MOL0     H66880   2.106   8.841  10.046  2.2602  2.6439 -3.2706
  507MOL0     H66881   2.041   8.888   9.886  4.7955 -0.0226  0.2490
  507MOL0     H66882   2.049   8.664   9.813 -1.0211 -3.0554  0.6234
  507MOL0     H66883   2.204   8.708   9.886  0.4276 -1.3995 -0.1900
  507MOL0     H66884   2.156   8.583  10.088 -0.0396 -1.6710  0.6183
  507MOL0     H66885   2.154   8.489   9.941 -0.0386  1.4285 -0.9764
  507MOL0     H66886   2.131   8.386  10.192 -0.8473 -0.0674  1.1731
  507MOL0     H66887   2.062   8.226  10.348 -0.2849 -0.2121  1.4526
  507MOL0     H66888   1.399   8.057  10.362 -1.1706 -0.0959 -0.1005
  507MOL0     H66889   1.263   7.914  10.493 -1.7621 -0.0586  1.3589
  507MOL0     H66890   1.206   7.748  10.607 -1.8700 -1.9260 -0.4998
  507MOL0     H66891   1.111   7.869  10.676  0.3828  1.1352 -0.1166
  507MOL0     H66892   1.152   7.725  10.901 -0.9162 -2.1297  0.5158
  507MOL0     H66893   1.192   7.595  10.787 -0.4036 -0.9553  1.7378
  507MOL0     H66894   0.916   7.717  10.802 -1.5908 -1.7754 -2.1304
  507MOL0     H66895   0.976   7.550  10.844  0.9595 -1.5751 -0.7792
  507MOL0     H66896   1.040   7.632  10.567  0.0404 -0.3182  0.0464
  507MOL0     H66897   0.982   7.479  10.636 -2.8836  0.0702 -0.0291
  507MOL0     H66898   0.844   7.577  10.462 -1.6999 -0.1749 -0.4484
  507MOL0     H66899   0.803   7.721  10.555 -1.5961  0.0698  0.6505
  507MOL0     H66900   0.622   7.598  10.588 -0.5973 -0.9671 -1.3825
  507MOL0     H66901   0.705   7.603  10.744  1.6233  0.7775  0.3425
  507MOL0     H66902   0.777   7.374  10.732 -0.3437  0.9531  0.9604
  507MOL0     H66903   0.606   7.401  10.720  0.5358 -1.6156 -1.8919
  507MOL0     H66904   0.646   7.404  10.460  0.0637  1.9433  1.0616
  507MOL0     H66905   0.622   7.252  10.535 -1.7048  2.0008 -3.1972
  507MOL0     H66906   1.549   7.935  10.818  4.2890 -0.9883 -1.0945
  507MOL0     H66907   1.698   8.063  10.661  1.0272 -0.3821 -1.0371
  507MOL0     H66908   1.651   8.312  10.259  0.4933  1.7319  5.0074
  507MOL0     H66909   1.724   8.451  10.067 -0.5818 -1.3905  1.3404
  507MOL0     H66910   1.248   9.338  10.996  3.1477 -1.0793  1.8515
  507MOL0     H66911   1.072   9.271  11.195 -1.1647  0.7324  1.2284
  507MOL0     H66912   0.655   9.484  11.532  0.4434  0.1263 -0.2201
  507MOL0     H66913   0.536   9.365  11.675 -1.0716 -2.4641 -1.1391
  507MOL0     H66914   0.454   9.271  11.881  0.6520  2.0130  0.6790
  507MOL0     H66915   0.599   9.315  11.959 -0.9379  0.7691 -2.1050
  507MOL0     H66916   0.475   9.032  12.004 -1.5290  1.6969 -0.3387
  507MOL0     H66917   0.595   9.123  12.106  0.6504 -1.5045  0.2425
  507MOL0     H66918   0.307   9.100  12.146  0.1545  0.7629  1.5463
  507MOL0     H66919   0.336   9.263  12.100 -0.8767 -1.0053 -0.3644
  507MOL0     H66920   0.367   9.227  12.350  0.8797 -2.4035  0.8096
  507MOL0     H66921   0.514   9.144  12.305 -2.7242 -3.2177 -1.3670
  507MOL0     H66922   0.650   9.530  12.212 -1.7413 -0.1131 -2.4880
  507MOL0     H66923   0.862   9.077  11.734 -1.6321 -0.0669  3.1279
  507MOL0     H66924   0.981   9.200  11.569  0.4068  1.4302 -1.1176
  508MOL0     O66925   4.227   8.007   1.940 -0.3457  0.2167  0.0214
  508MOL0     C66926   4.189   8.100   2.017  0.6714  1.0096 -0.0388
  508MOL0     O66927   4.264   8.192   2.088 -0.5215  0.2210  0.9025
  508MOL0     C66928   4.401   8.194   2.054  1.4399  0.2629  0.7638
  508MOL0     C66929   4.437   8.223   1.920  0.3380 -1.2104  0.3268
  508MOL0     C66930   4.570   8.249   1.894 -0.3938 -0.3798 -0.9620
  508MOL0     C66931   4.667   8.265   1.996 -0.0749  0.3700 -0.2311
  508MOL0     O66932   4.799   8.296   1.986 -0.2739  0.2754 -0.2244
  508MOL0     C66933   4.879   8.193   1.933 -0.1227  0.2503 -0.5916
  508MOL0     C66934   5.006   8.266   1.883 -0.0491 -0.9039  0.6073
  508MOL0     C66935   5.094   8.339   1.995 -0.4787 -0.1375  0.3072
  508MOL0     C66936   5.164   8.229   2.076 -0.1652 -0.7027 -0.9129
  508MOL0     C66937   5.150   8.248   2.231 -0.0829  0.0249  1.6102
  508MOL0     C66938   5.197   8.386   2.288 -0.7543  0.3669 -0.0818
  508MOL0     C66939   5.342   8.409   2.259  0.3304  0.3233  0.3409
  508MOL0     C66940   5.397   8.493   2.376  0.4827 -0.3783 -0.4593
  508MOL0     N66941   5.409   8.425   2.502 -0.0926 -0.2622 -0.1640
  508MOL0     C66942   5.507   8.330   2.532 -0.3329 -0.1253  0.9263
  508MOL0     C66943   5.495   8.317   2.670 -0.5644 -0.2860 -0.3029
  508MOL0     C66944   5.586   8.230   2.751 -0.4865 -0.0087  0.5394
  508MOL0     C66945   5.546   8.079   2.752 -0.0729  0.0461 -0.2526
  508MOL0     C66946   5.600   7.993   2.864 -0.7544 -0.6919  0.6975
  508MOL0     C66947   5.755   7.975   2.851  0.1916 -0.3316 -0.1264
  508MOL0     O66948   5.789   7.845   2.891  0.3051 -0.5899  0.3582
  508MOL0     C66949   5.921   7.799   2.862  1.3727  0.3402  0.1164
  508MOL0     C66950   5.940   7.665   2.889  0.7341 -0.5648 -0.0252
  508MOL0     C66951   6.048   7.585   2.847  0.3350 -0.1544 -0.5736
  508MOL0     C66952   6.146   7.649   2.767 -1.1411  0.5188 -1.2588
  508MOL0     C66953   6.259   7.579   2.715 -0.0691  0.1616  0.2029
  508MOL0     O66954   6.330   7.633   2.614 -0.2021 -0.2446  0.8923
  508MOL0     C66955   6.435   7.569   2.552  0.6518 -0.2576 -0.1736
  508MOL0     C66956   6.546   7.645   2.524 -0.0179 -1.6738 -0.0880
  508MOL0     C66957   6.648   7.587   2.456 -0.2044 -0.1422 -0.5117
  508MOL0     C66958   6.650   7.453   2.416 -0.1014  0.0773 -0.4923
  508MOL0     O66959   6.756   7.393   2.350  0.6938  0.3217 -0.0987
  508MOL0     C66960   6.851   7.481   2.288  0.8345 -0.5217  0.1400
  508MOL0     C66961   6.945   7.418   2.176  0.3325  0.4023  0.0533
  508MOL0     C66962   6.894   7.388   2.032 -0.8403 -0.8289  0.2883
  508MOL0     C66963   7.002   7.316   1.957 -0.0596 -0.2363 -0.6167
  508MOL0     C66964   6.942   7.271   1.828  0.2770  0.0808  0.4967
  508MOL0     C66965   6.843   7.151   1.843  0.1943  0.8286 -0.3488
  508MOL0     C66966   6.773   7.125   1.707  0.6763  0.9636  0.6741
  508MOL0     C66967   6.766   6.971   1.665  0.1984  0.2316 -0.0185
  508MOL0    Cl66968   6.668   6.869   1.770  0.1421  0.0023  0.1243
  508MOL0     C66969   6.543   7.375   2.456  0.4036 -0.1409  0.2846
  508MOL0     C66970   6.432   7.431   2.517 -0.5634 -0.5956 -0.2094
  508MOL0     O66971   6.299   7.475   2.776  0.3413  0.1167 -0.6946
  508MOL0     C66972   6.132   7.784   2.745  0.2432  0.1395  0.7369
  508MOL0     C66973   6.022   7.860   2.788 -0.2574 -0.0972 -0.0292
  508MOL0     N66974   5.386   8.383   2.717 -0.5135  0.1347  0.5273
  508MOL0     N66975   5.345   8.448   2.615  0.0902  0.1354  0.0123
  508MOL0     C66976   4.624   8.228   2.123 -0.0932  0.2157 -0.2162
  508MOL0     C66977   4.495   8.195   2.153  1.1744  0.1615  0.5709
  508MOL0     C66978   4.040   8.108   2.049 -0.4437  0.6584  0.8465
  508MOL0     C66979   3.985   8.197   2.138 -0.9917 -0.7209 -0.1731
  508MOL0     C66980   3.846   8.221   2.162 -0.1969 -0.2744 -0.7817
  508MOL0     C66981   3.762   8.124   2.105 -0.5054 -0.0736  0.5156
  508MOL0     O66982   3.640   8.130   2.153  0.2244  0.2206  0.0061
  508MOL0     C66983   3.555   8.007   2.143 -1.1449 -1.2961 -0.3770
  508MOL0     C66984   3.421   8.056   2.197  0.4049 -0.1001  0.6462
  508MOL0     C66985   3.306   8.080   2.096 -0.0263  0.1808 -0.4589
  508MOL0     C66986   3.185   8.106   2.176 -0.2370  0.5235 -0.0975
  508MOL0     C66987   3.117   7.979   2.229  0.8156  0.0083  0.1072
  508MOL0     C66988   3.059   7.876   2.264 -0.2418 -0.6788  0.0268
  508MOL0     C66989   3.816   8.021   2.019  0.0959  0.1704 -0.4092
  508MOL0     C66990   3.950   8.017   1.984 -0.4962 -0.4471  0.7496
  508MOL0     H66991   4.369   8.225   1.835  0.3079 -2.0660  0.3191
  508MOL0     H66992   4.605   8.272   1.794  4.3178  0.1589  0.5305
  508MOL0     H66993   4.834   8.134   1.853 -3.5452 -1.0141  2.0230
  508MOL0     H66994   4.904   8.128   2.017  0.9367  2.2405  0.7154
  508MOL0     H66995   5.002   8.352   1.816  1.6671  2.8505  4.8140
  508MOL0     H66996   5.071   8.192   1.836  2.2391  0.4304  1.4867
  508MOL0     H66997   5.019   8.390   2.055  1.8891  2.2026  1.4651
  508MOL0     H66998   5.163   8.414   1.954 -1.4712 -0.0477 -1.2710
  508MOL0     H66999   5.124   8.130   2.054  0.8773 -0.9081 -1.9765
  508MOL0     H67000   5.271   8.230   2.053  0.3013 -2.9660  0.7707
  508MOL0     H67001   5.210   8.170   2.279  0.5314  1.3684  3.0914
  508MOL0     H67002   5.051   8.210   2.260 -0.3047 -1.0343 -0.3438
  508MOL0     H67003   5.172   8.393   2.394  1.5488  0.0773  0.5414
  508MOL0     H67004   5.149   8.472   2.240  1.4409  1.2775 -0.7630
  508MOL0     H67005   5.412   8.325   2.253  1.6861  1.3936  0.5027
  508MOL0     H67006   5.360   8.451   2.159  1.7884  0.9022  0.8244
  508MOL0     H67007   5.345   8.586   2.400 -0.7108 -0.7164 -1.6553
  508MOL0     H67008   5.502   8.518   2.355 -0.2260  2.5695 -1.0690
  508MOL0     H67009   5.583   8.287   2.468 -2.2364 -1.2223 -0.6898
  508MOL0     H67010   5.579   8.269   2.853  1.3314  0.0432  0.6779
  508MOL0     H67011   5.691   8.243   2.724 -0.2151 -2.6592  0.0595
  508MOL0     H67012   5.556   8.032   2.654  1.4771 -0.3291  0.0525
  508MOL0     H67013   5.438   8.086   2.764 -0.4423  0.2658 -3.1428
  508MOL0     H67014   5.577   8.029   2.965  1.0743  1.2645  0.4686
  508MOL0     H67015   5.557   7.893   2.855  3.0731 -2.4563 -0.0322
  508MOL0     H67016   5.818   8.053   2.894  0.5976  0.3403 -1.8245
  508MOL0     H67017   5.785   7.968   2.746  2.4591  1.8372  0.2945
  508MOL0     H67018   5.865   7.613   2.948  2.3325  0.1083  2.7545
  508MOL0     H67019   6.065   7.481   2.873  2.2986 -0.0393 -1.2561
  508MOL0     H67020   6.544   7.752   2.546 -0.1875 -2.1790  2.6482
  508MOL0     H67021   6.729   7.653   2.427 -0.3082 -0.8818 -2.6720
  508MOL0     H67022   6.910   7.520   2.372 -1.8241 -0.0172  1.8904
  508MOL0     H67023   6.797   7.565   2.244 -1.5630 -1.8770  0.3566
  508MOL0     H67024   6.970   7.319   2.218  1.0460  1.5018  2.4109
  508MOL0     H67025   7.033   7.482   2.169  0.9658  0.1748  3.6913
  508MOL0     H67026   6.877   7.490   1.995 -0.1073 -1.6859 -2.7099
  508MOL0     H67027   6.800   7.333   2.044  0.6796 -3.0844  3.2256
  508MOL0     H67028   7.083   7.389   1.950  0.9884 -1.3866 -0.8834
  508MOL0     H67029   7.028   7.224   2.011  0.1134  0.3253  0.2835
  508MOL0     H67030   7.025   7.235   1.766  0.7466  2.2040 -0.1903
  508MOL0     H67031   6.897   7.358   1.780  1.8804 -0.2694 -1.8548
  508MOL0     H67032   6.755   7.158   1.907 -0.9893 -0.5320 -1.7681
  508MOL0     H67033   6.900   7.067   1.883 -0.5779  0.8813  0.9046
  508MOL0     H67034   6.668   7.155   1.716  0.4440 -0.0383  1.4307
  508MOL0     H67035   6.806   7.181   1.619 -2.6148 -0.7975 -1.9022
  508MOL0     H67036   6.872   6.945   1.660  0.5707  1.4783  0.9419
  508MOL0     H67037   6.709   6.963   1.572  0.2974  0.9691 -0.1416
  508MOL0     H67038   6.551   7.268   2.437 -1.1408 -0.4672  1.3019
  508MOL0     H67039   6.347   7.371   2.550  0.2801 -1.0203  1.2899
  508MOL0     H67040   6.204   7.832   2.679  0.8284  0.5724  1.6778
  508MOL0     H67041   6.007   7.963   2.757  1.6356  0.5678  1.1164
  508MOL0     H67042   4.703   8.233   2.198 -1.7167 -0.4937  1.6222
  508MOL0     H67043   4.455   8.165   2.250 -2.9953  0.8787 -0.7147
  508MOL0     H67044   4.051   8.276   2.171  0.8848 -1.9794 -0.7685
  508MOL0     H67045   3.808   8.296   2.230 -0.0380 -2.5977  2.0628
  508MOL0     H67046   3.606   7.924   2.193  1.1348  1.1693  1.7356
  508MOL0     H67047   3.542   7.983   2.037  0.5945  0.8583 -1.1586
  508MOL0     H67048   3.399   7.985   2.278  0.8824 -0.0065  0.8619
  508MOL0     H67049   3.440   8.147   2.254  1.1356 -0.0818  0.3802
  508MOL0     H67050   3.299   7.985   2.042  0.6297 -0.7424  1.0091
  508MOL0     H67051   3.327   8.166   2.033 -1.0070  1.0030  0.2874
  508MOL0     H67052   3.212   8.170   2.260  0.5319 -0.0750  0.1256
  508MOL0     H67053   3.114   8.168   2.121 -0.4980  1.3629  1.1426
  508MOL0     H67054   2.994   7.797   2.298  1.3983 -2.4482 -0.7681
  508MOL0     H67055   3.746   7.942   1.992 -1.9733  1.4413  0.9684
  508MOL0     H67056   3.977   7.952   1.902  0.5119  1.1902 -0.2835
  509MOL0     O67057   2.210   9.945   5.902  0.6293 -0.6285  0.5268
  509MOL0     C67058   2.176   9.976   6.018 -0.0609 -0.7210  0.5445
  509MOL0     O67059   2.052   9.991   6.059 -0.5286 -0.5359  0.2159
  509MOL0     C67060   1.941   9.946   5.993 -0.0155 -0.3119 -0.3325
  509MOL0     C67061   1.938   9.827   5.918  0.0581 -0.4011  0.3224
  509MOL0     C67062   1.827   9.788   5.841  0.0158 -0.0813 -0.2222
  509MOL0     C67063   1.712   9.880   5.836 -0.4144  0.6368 -0.2634
  509MOL0     O67064   1.608   9.845   5.760 -0.2906  0.2934 -1.0165
  509MOL0     C67065   1.507   9.768   5.819  0.7763 -0.3520 -0.1339
  509MOL0     C67066   1.389   9.861   5.852 -0.4193 -0.4137  0.0581
  509MOL0     C67067   1.286   9.780   5.919  0.2075  0.3122  1.1721
  509MOL0     C67068   1.205   9.879   6.007  0.5711  0.1305  0.6224
  509MOL0     C67069   1.078   9.832   6.071 -0.1856 -0.4774  0.0814
  509MOL0     C67070   1.110   9.730   6.180  0.4796 -0.2956 -0.4721
  509MOL0     C67071   0.987   9.694   6.260  0.2965 -0.0488  0.0958
  509MOL0     C67072   1.015   9.601   6.376  0.7585 -0.1169  0.0099
  509MOL0     N67073   0.923   9.633   6.484  0.2607  0.6957 -0.7054
  509MOL0     C67074   0.800   9.575   6.493  0.1866  0.7871  0.1536
  509MOL0     C67075   0.751   9.617   6.610 -0.3694 -0.1931  0.2677
  509MOL0     C67076   0.614   9.596   6.665 -0.9658  1.0213  1.3238
  509MOL0     C67077   0.537   9.473   6.607  0.2713 -0.2023  0.2958
  509MOL0     C67078   0.448   9.409   6.713  0.4235  0.1680 -0.0502
  509MOL0     C67079   0.323   9.489   6.740 -0.7492 -0.1042  0.0401
  509MOL0     O67080   0.217   9.441   6.656  1.0530  1.0562  0.1830
  509MOL0     C67081   0.100   9.516   6.641 -0.1799 -0.7690 -1.3340
  509MOL0     C67082  -0.014   9.444   6.597  0.1055 -0.8289  0.4838
  509MOL0     C67083  -0.139   9.514   6.578 -0.3076 -0.4767  0.5289
  509MOL0     C67084  -0.131   9.659   6.597 -0.9704  0.7002  0.0419
  509MOL0     C67085  -0.260   9.742   6.577 -0.2765 -1.2110  0.2037
  509MOL0     O67086  -0.360   9.682   6.515  0.7197  0.5028  0.7178
  509MOL0     C67087  -0.490   9.723   6.526 -0.5321  0.1833  0.3547
  509MOL0     C67088  -0.565   9.694   6.409 -0.7105 -0.0438  0.6237
  509MOL0     C67089  -0.699   9.729   6.397  0.2674  0.3093 -0.5056
  509MOL0     C67090  -0.767   9.781   6.497 -0.9099 -0.9014 -1.1522
  509MOL0     O67091  -0.905   9.812   6.506 -0.3163  0.0626  0.5842
  509MOL0     C67092  -0.993   9.804   6.391  0.5813 -0.1667 -0.3304
  509MOL0     C67093  -1.111   9.886   6.435 -0.0969 -0.4590  0.6623
  509MOL0     C67094  -1.236   9.884   6.347  0.3584 -0.2192 -0.2123
  509MOL0     C67095  -1.363   9.944   6.417 -0.6520 -0.0340 -0.1874
  509MOL0     C67096  -1.487   9.952   6.327 -1.1077  0.6273  0.6771
  509MOL0     C67097  -1.591   9.845   6.373 -0.0534  0.1440  0.8080
  509MOL0     C67098  -1.716   9.860   6.283  0.3847 -0.7318 -0.5558
  509MOL0     C67099  -1.694   9.812   6.150 -0.5333  0.4978  1.6909
  509MOL0    Cl67100  -1.622   9.647   6.159  0.0406  0.0174  0.5378
  509MOL0     C67101  -0.694   9.805   6.616 -0.6615  0.8457 -0.9912
  509MOL0     C67102  -0.559   9.768   6.639  0.3306 -0.2854 -0.2231
  509MOL0     O67103  -0.276   9.837   6.645  0.0001  0.8435 -0.7326
  509MOL0     C67104  -0.019   9.725   6.643  0.6973  0.0355 -0.0961
  509MOL0     C67105   0.094   9.654   6.661  0.3889 -0.1935  0.0075
  509MOL0     N67106   0.839   9.719   6.654 -0.0733  0.3506  1.1770
  509MOL0     N67107   0.943   9.726   6.578 -0.0974  0.3137 -0.7976
  509MOL0     C67108   1.725  10.001   5.908  0.1952  1.0862  1.0302
  509MOL0     C67109   1.830  10.030   5.993  0.0735  0.2250  0.9579
  509MOL0     C67110   2.291  10.011   6.105  0.8554 -0.2481 -0.0852
  509MOL0     C67111   2.420  10.016   6.057  0.5415  0.2769 -0.8146
  509MOL0     C67112   2.530  10.028   6.142  0.3699 -0.3565  0.3260
  509MOL0     C67113   2.526  10.038   6.285  0.0502  1.4958  1.1675
  509MOL0     O67114   2.632  10.041   6.365  0.9305 -0.2121 -0.3712
  509MOL0     C67115   2.621  10.077   6.500  0.5458 -0.5734 -0.2413
  509MOL0     C67116   2.760  10.061   6.559 -0.5617  0.7478 -0.3797
  509MOL0     C67117   2.797   9.917   6.588 -0.0387  0.3263  0.4216
  509MOL0     C67118   2.839   9.828   6.468 -0.5786  1.1340  1.2551
  509MOL0     C67119   2.972   9.860   6.416  0.3359 -0.1599  1.0264
  509MOL0     C67120   3.077   9.891   6.390  0.2527 -0.7858  0.2173
  509MOL0     C67121   2.395  10.037   6.331  0.5310 -0.2799  0.3649
  509MOL0     C67122   2.288  10.026   6.241  0.6346 -0.1187  0.2296
  509MOL0     H67123   2.024   9.761   5.921  0.9920  0.8216  1.3354
  509MOL0     H67124   1.832   9.704   5.773 -2.7080  1.4074 -2.4891
  509MOL0     H67125   1.534   9.703   5.903 -2.1618  1.3896  2.3727
  509MOL0     H67126   1.456   9.698   5.752 -0.0519 -1.4319  1.5721
  509MOL0     H67127   1.351   9.894   5.755 -1.8892  0.9885  1.0431
  509MOL0     H67128   1.424   9.940   5.919  2.3025 -0.5384 -1.1013
  509MOL0     H67129   1.313   9.702   5.991 -0.5145  0.3459  1.4836
  509MOL0     H67130   1.231   9.725   5.842  0.7836  1.2608  0.0436
  509MOL0     H67131   1.269   9.926   6.081 -2.3846  4.4779  0.7732
  509MOL0     H67132   1.172   9.963   5.946  0.9201 -0.1064  0.0989
  509MOL0     H67133   1.012   9.792   5.993  1.4581  2.3453 -3.0410
  509MOL0     H67134   1.018   9.915   6.108 -1.3816 -1.2693 -0.0506
  509MOL0     H67135   1.184   9.777   6.244  0.0760  0.5889 -0.6423
  509MOL0     H67136   1.147   9.631   6.150 -2.6538 -2.0258  0.8260
  509MOL0     H67137   0.946   9.785   6.304  0.6597  0.2052 -0.0841
  509MOL0     H67138   0.912   9.649   6.194  0.4797  0.2927 -0.3514
  509MOL0     H67139   1.110   9.614   6.430 -0.1159 -2.4150  2.2764
  509MOL0     H67140   1.011   9.497   6.343 -2.4967 -0.3993  1.0368
  509MOL0     H67141   0.754   9.509   6.421  0.9182  1.5930 -1.0985
  509MOL0     H67142   0.566   9.694   6.656 -0.7329  1.3767  3.4400
  509MOL0     H67143   0.632   9.578   6.771  4.9845  1.0380  0.6208
  509MOL0     H67144   0.606   9.398   6.569 -1.5329 -2.0655  0.4864
  509MOL0     H67145   0.478   9.514   6.525 -2.9040  1.8918  3.2963
  509MOL0     H67146   0.422   9.304   6.696  1.1192 -0.2839  1.4661
  509MOL0     H67147   0.506   9.410   6.806  0.3045  0.2452  0.0236
  509MOL0     H67148   0.342   9.595   6.723  1.0139 -0.5205 -0.8311
  509MOL0     H67149   0.296   9.460   6.842 -3.8273  0.0006 -0.6555
  509MOL0     H67150  -0.007   9.337   6.577  1.0362 -1.4190  3.4600
  509MOL0     H67151  -0.217   9.446   6.546 -1.3047  1.6186 -1.8065
  509MOL0     H67152  -0.499   9.665   6.328 -0.4477  1.4493  0.2674
  509MOL0     H67153  -0.754   9.690   6.312  0.5188 -2.0436  0.3102
  509MOL0     H67154  -1.021   9.699   6.377  0.0386 -0.1249  0.3605
  509MOL0     H67155  -0.951   9.855   6.304  0.4165 -1.4790 -1.1904
  509MOL0     H67156  -1.076   9.990   6.434  0.9081 -0.7865 -1.3697
  509MOL0     H67157  -1.148   9.860   6.535 -1.4508 -1.3218 -0.0319
  509MOL0     H67158  -1.253   9.780   6.318  1.0021 -1.1185  2.4153
  509MOL0     H67159  -1.220   9.935   6.251 -2.4006  0.8280 -0.2147
  509MOL0     H67160  -1.385   9.886   6.507 -1.2425 -1.6158 -1.2978
  509MOL0     H67161  -1.320  10.041   6.445  3.3839 -0.7886 -2.8920
  509MOL0     H67162  -1.461   9.945   6.221 -1.3710  0.6276  0.6133
  509MOL0     H67163  -1.535  10.047   6.352 -3.3747 -0.2208 -0.1881
  509MOL0     H67164  -1.625   9.868   6.474  2.1631  2.6745  1.0947
  509MOL0     H67165  -1.539   9.749   6.372 -3.3902 -1.8141  1.4160
  509MOL0     H67166  -1.801   9.807   6.328 -0.8574  2.5279  1.3481
  509MOL0     H67167  -1.744   9.966   6.277  1.4855 -0.3186  0.9392
  509MOL0     H67168  -1.625   9.881   6.101  1.9965 -1.2471  2.6061
  509MOL0     H67169  -1.792   9.807   6.100  0.7937 -2.9918 -0.9335
  509MOL0     H67170  -0.740   9.858   6.699  1.6700  1.3423  0.0637
  509MOL0     H67171  -0.514   9.783   6.736  1.8762 -2.3928 -0.5386
  509MOL0     H67172  -0.033   9.828   6.674 -0.9936  0.8401 -3.0734
  509MOL0     H67173   0.186   9.712   6.665  0.3828 -0.0871 -1.0429
  509MOL0     H67174   1.646  10.075   5.912 -3.0527 -2.1607  2.7305
  509MOL0     H67175   1.831  10.126   6.044  0.4972  2.7448 -3.3091
  509MOL0     H67176   2.431  10.010   5.949 -2.2073  2.5019 -1.3528
  509MOL0     H67177   2.627  10.039   6.094  1.0139 -1.3086  1.3720
  509MOL0     H67178   2.553  10.007   6.549  1.8954 -2.5103 -1.0039
  509MOL0     H67179   2.575  10.176   6.511  4.7970  1.5278  1.2664
  509MOL0     H67180   2.840  10.107   6.499  0.7112  1.8380  2.0062
  509MOL0     H67181   2.758  10.117   6.653 -2.1047  0.6439 -0.3259
  509MOL0     H67182   2.708   9.875   6.637  0.0610 -0.1053  0.2388
  509MOL0     H67183   2.873   9.928   6.666  0.4396  0.5992 -0.0765
  509MOL0     H67184   2.840   9.730   6.517  0.3219  1.6643  2.3355
  509MOL0     H67185   2.764   9.827   6.388  0.8683  0.8980 -0.1581
  509MOL0     H67186   3.175   9.921   6.360 -1.3209  0.0145 -5.0196
  509MOL0     H67187   2.383  10.054   6.438  1.8069 -0.9076  0.6185
  509MOL0     H67188   2.192  10.045   6.288  1.9344 -1.8514  3.9743
  510MOL0     O67189   3.833   9.791   3.585  0.2028 -0.4096  0.3391
  510MOL0     C67190   3.814   9.842   3.469 -1.2888  0.6687 -0.2279
  510MOL0     O67191   3.892   9.940   3.410  0.4739  0.3134  0.2346
  510MOL0     C67192   3.979  10.001   3.496  0.1504 -0.2758 -0.2531
  510MOL0     C67193   3.947  10.131   3.534  0.9451  0.4564  1.0516
  510MOL0     C67194   4.050  10.201   3.609  0.9100 -1.2234  0.1693
  510MOL0     C67195   4.162  10.134   3.671  0.5412 -0.2275  0.1864
  510MOL0     O67196   4.253  10.189   3.758  0.6049 -0.2254  0.4763
  510MOL0     C67197   4.281  10.326   3.732  0.0064  0.7225  0.4952
  510MOL0     C67198   4.398  10.372   3.823  0.9084  0.3736  1.4542
  510MOL0     C67199   4.415  10.531   3.823  0.1430 -0.2257  0.4977
  510MOL0     C67200   4.527  10.570   3.928  0.7772  0.0378  0.3189
  510MOL0     C67201   4.479  10.546   4.075  0.3012  0.0090  0.1366
  510MOL0     C67202   4.577  10.590   4.183 -0.4836 -0.1718 -0.3000
  510MOL0     C67203   4.544  10.735   4.221  0.7841  0.1986  0.2688
  510MOL0     C67204   4.636  10.763   4.333 -0.1486  0.1166  0.7147
  510MOL0     N67205   4.783  10.765   4.291 -0.0913 -0.0599  0.8415
  510MOL0     C67206   4.825  10.814   4.168  0.3667  0.4161  0.7460
  510MOL0     C67207   4.957  10.812   4.186 -0.0733 -0.5780 -0.4036
  510MOL0     C67208   5.038  10.874   4.072 -0.0736  0.1252 -0.4089
  510MOL0     C67209   5.029  11.034   4.076  0.7210 -0.2757 -0.6351
  510MOL0     C67210   5.115  11.101   3.965  0.2993 -0.8677 -0.6178
  510MOL0     C67211   5.269  11.053   3.965  0.2124 -0.3812 -0.6521
  510MOL0     O67212   5.336  11.110   3.859  0.4838 -0.2580  0.5968
  510MOL0     C67213   5.395  11.229   3.864  0.2824 -0.0882  0.7116
  510MOL0     C67214   5.495  11.260   3.772 -1.0795  0.5039 -0.1486
  510MOL0     C67215   5.584  11.378   3.779 -0.8938  0.7141 -0.2527
  510MOL0     C67216   5.560  11.476   3.877  0.6810 -0.5890  0.3468
  510MOL0     C67217   5.638  11.596   3.876 -0.6540 -0.6940  0.1677
  510MOL0     O67218   5.734  11.608   3.779 -0.3001  0.2351 -0.3383
  510MOL0     C67219   5.787  11.730   3.762 -0.1781 -0.7986 -0.3393
  510MOL0     C67220   5.895  11.778   3.838 -0.2034  0.4732 -1.0449
  510MOL0     C67221   5.962  11.898   3.803  0.1341  0.7210  0.2276
  510MOL0     C67222   5.918  11.969   3.692 -0.0588 -0.6634 -0.0605
  510MOL0     O67223   5.981  12.083   3.652 -0.5410  0.4901  0.3398
  510MOL0     C67224   5.955  12.147   3.530  1.0025  0.1098  0.0666
  510MOL0     C67225   6.052  12.268   3.527  0.7493 -0.5106  0.0785
  510MOL0     C67226   6.047  12.369   3.409 -0.5247  0.6158 -0.2617
  510MOL0     C67227   6.103  12.303   3.280 -0.1459 -0.6413  0.7911
  510MOL0     C67228   6.177  12.395   3.177  0.8050 -0.0356  0.2300
  510MOL0     C67229   6.069  12.474   3.097 -0.0443 -0.1721  0.0169
  510MOL0     C67230   6.135  12.576   2.985 -0.1573 -0.5805  0.0216
  510MOL0     C67231   6.215  12.500   2.890  0.5450  0.1707 -0.0705
  510MOL0    Cl67232   6.103  12.392   2.784  0.4160 -0.1922  0.3859
  510MOL0     C67233   5.809  11.921   3.625  0.0630  0.2441 -0.3340
  510MOL0     C67234   5.739  11.810   3.657  0.4937  0.2456 -0.4648
  510MOL0     O67235   5.598  11.688   3.951 -0.1313  0.2103  0.8053
  510MOL0     C67236   5.459  11.450   3.974  0.0684 -0.1965 -0.4899
  510MOL0     C67237   5.373  11.332   3.960  0.5924  0.0928 -0.4642
  510MOL0     N67238   4.998  10.763   4.306  0.1773 -0.2129 -0.4151
  510MOL0     N67239   4.891  10.727   4.368  0.7672 -0.2928  0.0509
  510MOL0     C67240   4.170   9.998   3.646 -0.1592 -0.0171  0.0670
  510MOL0     C67241   4.088   9.936   3.551 -0.7440 -0.2328 -0.6553
  510MOL0     C67242   3.689   9.798   3.410  1.0944  0.0306  0.5679
  510MOL0     C67243   3.673   9.822   3.273 -0.0347  0.9434 -0.6992
  510MOL0     C67244   3.563   9.773   3.197 -0.9312 -0.0433  0.6094
  510MOL0     C67245   3.467   9.696   3.268  0.8341 -0.5764  0.4774
  510MOL0     O67246   3.356   9.646   3.205  0.0534  0.1668 -0.5607
  510MOL0     C67247   3.331   9.675   3.065 -0.4623  0.5586 -0.3174
  510MOL0     C67248   3.424   9.593   2.975  0.5282  0.7588 -0.5889
  510MOL0     C67249   3.374   9.447   2.967 -0.0492 -0.4793  0.1274
  510MOL0     C67250   3.490   9.369   2.906  0.4433  0.7430  0.1633
  510MOL0     C67251   3.447   9.222   2.877  0.0761  1.0620 -0.5716
  510MOL0     C67252   3.432   9.107   2.839  0.4424  0.3989  0.2728
  510MOL0     C67253   3.475   9.687   3.409 -0.2799  0.8435 -0.2679
  510MOL0     C67254   3.586   9.729   3.478  0.6733 -0.0414 -0.6225
  510MOL0     H67255   3.859  10.183   3.498  2.7091  2.4327 -0.7481
  510MOL0     H67256   4.036  10.307   3.627 -0.1178 -1.2727 -0.2999
  510MOL0     H67257   4.195  10.392   3.749  0.9749  1.6764  1.9068
  510MOL0     H67258   4.315  10.333   3.628 -1.3533  1.1525  0.0556
  510MOL0     H67259   4.487  10.320   3.788  0.0500 -0.6655  0.7497
  510MOL0     H67260   4.380  10.330   3.922 -0.2247  0.7632  1.4342
  510MOL0     H67261   4.328  10.586   3.860  0.0730 -0.6813  1.0289
  510MOL0     H67262   4.447  10.567   3.725  1.6731 -4.4598 -0.7790
  510MOL0     H67263   4.619  10.511   3.915  0.6669 -0.0082 -0.2796
  510MOL0     H67264   4.547  10.676   3.913 -0.8275 -0.0006 -2.7690
  510MOL0     H67265   4.471  10.440   4.101  0.9743 -0.0055  0.3166
  510MOL0     H67266   4.381  10.591   4.091 -0.1474 -1.2371  1.1501
  510MOL0     H67267   4.680  10.585   4.147 -0.3348 -3.5059  0.3055
  510MOL0     H67268   4.577  10.529   4.274 -0.0712  0.8583  0.4139
  510MOL0     H67269   4.562  10.806   4.140 -0.9921  0.3515 -0.0448
  510MOL0     H67270   4.439  10.755   4.244  0.7020  2.1533 -1.5294
  510MOL0     H67271   4.622  10.691   4.414  0.1007 -2.2351 -1.2246
  510MOL0     H67272   4.598  10.860   4.365 -0.4879  1.0731 -2.2804
  510MOL0     H67273   4.781  10.854   4.077  1.9363 -2.2846 -1.3526
  510MOL0     H67274   5.011  10.846   3.970  2.0746  1.5818 -1.4398
  510MOL0     H67275   5.145  10.855   4.085  0.7488  4.7952  1.7642
  510MOL0     H67276   5.059  11.066   4.176  0.7335 -3.0223  0.3182
  510MOL0     H67277   4.921  11.054   4.075  1.0258  1.4737 -1.7766
  510MOL0     H67278   5.073  11.082   3.866  1.4299  0.7410 -1.4504
  510MOL0     H67279   5.110  11.210   3.972 -2.3878 -0.8926 -0.9181
  510MOL0     H67280   5.262  10.946   3.944 -0.5372 -0.5360  0.3089
  510MOL0     H67281   5.311  11.067   4.065  0.6672 -1.3262 -0.6980
  510MOL0     H67282   5.510  11.184   3.696 -0.8567  1.4353 -1.0564
  510MOL0     H67283   5.664  11.383   3.706 -0.0068  0.2085  0.6636
  510MOL0     H67284   5.911  11.719   3.928 -1.6881  0.0532 -1.0274
  510MOL0     H67285   6.051  11.937   3.851  1.6101 -0.7478 -1.2083
  510MOL0     H67286   5.857  12.196   3.540  0.7406 -0.8183  2.7169
  510MOL0     H67287   5.963  12.085   3.440  0.5315 -2.8340  1.9345
  510MOL0     H67288   6.157  12.242   3.545  1.8336  2.9882 -0.3570
  510MOL0     H67289   6.029  12.323   3.619  0.3430  1.3003 -1.0440
  510MOL0     H67290   6.098  12.463   3.433 -0.6647  0.2448  1.5779
  510MOL0     H67291   5.940  12.390   3.396 -1.5467 -3.0431  1.2713
  510MOL0     H67292   6.183  12.240   3.320 -0.6356 -1.5541  0.3609
  510MOL0     H67293   6.025  12.241   3.237 -0.9677 -0.4427  1.9477
  510MOL0     H67294   6.234  12.330   3.110  0.1445  3.2048 -3.8082
  510MOL0     H67295   6.251  12.459   3.226 -0.1541  0.3542  1.2177
  510MOL0     H67296   6.004  12.530   3.165 -0.4746 -0.2536 -0.3269
  510MOL0     H67297   6.003  12.402   3.048 -1.5740  1.8179 -0.9925
  510MOL0     H67298   6.060  12.642   2.941  1.4032  0.6073 -0.9817
  510MOL0     H67299   6.201  12.648   3.034 -2.3154  0.8237  1.0462
  510MOL0     H67300   6.291  12.430   2.928 -0.3804 -2.7416 -3.0332
  510MOL0     H67301   6.263  12.570   2.821 -1.7113  0.8277 -1.0612
  510MOL0     H67302   5.788  11.980   3.537  2.4269  2.0166  0.1662
  510MOL0     H67303   5.664  11.781   3.583 -0.3830 -0.3525  0.6231
  510MOL0     H67304   5.435  11.525   4.049  0.8562 -1.2259  0.8297
  510MOL0     H67305   5.293  11.317   4.032  0.4569  1.2854 -0.3412
  510MOL0     H67306   4.249   9.950   3.702  0.6927  0.2912 -0.8231
  510MOL0     H67307   4.110   9.834   3.519  1.7801 -0.4501  1.4276
  510MOL0     H67308   3.747   9.882   3.221  1.9745 -0.7474  0.0430
  510MOL0     H67309   3.580   9.792   3.091  0.9668  1.0350  1.0733
  510MOL0     H67310   3.334   9.781   3.038 -0.9653 -0.1698 -3.6543
  510MOL0     H67311   3.230   9.648   3.034 -0.0315  1.6625 -2.8818
  510MOL0     H67312   3.421   9.638   2.875 -1.4335  1.9005 -0.0599
  510MOL0     H67313   3.525   9.596   3.018 -0.0225 -3.0333  1.4456
  510MOL0     H67314   3.282   9.433   2.910 -1.4552 -2.4455  2.6965
  510MOL0     H67315   3.343   9.417   3.067  1.6773 -0.5702  0.6790
  510MOL0     H67316   3.512   9.421   2.813 -4.3854  2.5077 -0.3002
  510MOL0     H67317   3.575   9.375   2.975  1.0669 -0.8230 -0.4204
  510MOL0     H67318   3.413   9.006   2.809 -0.2893  1.6439 -4.0285
  510MOL0     H67319   3.386   9.652   3.461 -1.1485  2.1245 -0.8573
  510MOL0     H67320   3.589   9.724   3.586 -1.4853  4.3625 -0.1507
  511MOL0     O67321   7.115   9.698   3.286 -0.3753 -0.3284  0.9757
  511MOL0     C67322   7.115   9.776   3.380  0.2204 -0.5468 -0.0054
  511MOL0     O67323   7.000   9.825   3.447  0.9725 -0.4536  0.4447
  511MOL0     C67324   6.880   9.771   3.414  0.2772  0.4449  0.2782
  511MOL0     C67325   6.769   9.856   3.386 -0.2261  0.1588  0.4568
  511MOL0     C67326   6.639   9.809   3.365  0.1456 -0.0848  1.0251
  511MOL0     C67327   6.604   9.669   3.355  0.3545 -0.0013  0.6411
  511MOL0     O67328   6.478   9.628   3.343  0.2463  0.1615  0.0258
  511MOL0     C67329   6.448   9.512   3.269 -0.4176  0.1213  0.2549
  511MOL0     C67330   6.417   9.391   3.359  1.1623  0.2241 -0.1013
  511MOL0     C67331   6.266   9.382   3.405  0.1544  0.1783  1.0044
  511MOL0     C67332   6.232   9.276   3.496  0.8727 -0.6915  0.9547
  511MOL0     C67333   6.267   9.136   3.443 -0.0653  0.8545  0.8185
  511MOL0     C67334   6.209   9.023   3.514 -0.5348  0.3557  0.9910
  511MOL0     C67335   6.258   9.023   3.658 -0.1802 -0.1092  0.1220
  511MOL0     C67336   6.190   8.909   3.743 -0.3791  0.3712  1.0256
  511MOL0     N67337   6.044   8.929   3.750  0.1222  0.1987  0.4083
  511MOL0     C67338   5.951   8.854   3.683  0.0469 -0.1305  0.8871
  511MOL0     C67339   5.837   8.911   3.712  0.0662 -0.0968 -0.9391
  511MOL0     C67340   5.704   8.876   3.665  0.3737  0.6679 -0.4496
  511MOL0     C67341   5.598   8.868   3.770  0.0544  0.4311 -0.1026
  511MOL0     C67342   5.472   8.807   3.698  0.3819  0.3280 -0.9565
  511MOL0     C67343   5.350   8.828   3.790  0.2544 -0.6640 -0.8691
  511MOL0     O67344   5.342   8.727   3.892  0.0291 -0.4627  0.6222
  511MOL0     C67345   5.217   8.705   3.954 -0.5105  0.3373 -0.3109
  511MOL0     C67346   5.220   8.584   4.028  0.1752 -0.9455 -0.7438
  511MOL0     C67347   5.099   8.535   4.067 -0.5957 -0.2221 -0.1298
  511MOL0     C67348   4.976   8.597   4.032 -0.7703  0.9664 -0.0182
  511MOL0     C67349   4.846   8.542   4.068 -0.4493  0.8532  0.0370
  511MOL0     O67350   4.740   8.600   4.025 -0.3664 -0.0457  0.2518
  511MOL0     C67351   4.617   8.568   4.083  0.1485  1.2303 -0.6332
  511MOL0     C67352   4.519   8.549   3.995  0.2060  0.7691  0.9637
  511MOL0     C67353   4.388   8.513   4.032 -1.0248 -0.5341  0.2615
  511MOL0     C67354   4.367   8.497   4.165 -0.3084 -0.9499  0.0622
  511MOL0     O67355   4.244   8.476   4.205 -0.8789 -0.0573  0.9715
  511MOL0     C67356   4.216   8.335   4.183 -0.1089 -0.2437 -0.6139
  511MOL0     C67357   4.076   8.300   4.233  0.6372 -0.4165  0.2844
  511MOL0     C67358   4.034   8.164   4.195  0.1701  0.2216  0.3874
  511MOL0     C67359   3.891   8.131   4.243 -1.0038 -0.5878 -0.0944
  511MOL0     C67360   3.836   8.007   4.172 -0.2943 -0.1745 -0.4572
  511MOL0     C67361   3.700   7.955   4.228 -0.6933  0.1128  0.2629
  511MOL0     C67362   3.572   8.002   4.157 -0.0231 -0.4817  0.3780
  511MOL0     C67363   3.452   7.916   4.179 -0.5605  0.0127 -0.5779
  511MOL0    Cl67364   3.497   7.761   4.126 -0.3844 -0.0218 -0.1931
  511MOL0     C67365   4.471   8.496   4.258 -0.0811 -0.5405 -0.2363
  511MOL0     C67366   4.590   8.550   4.220  1.7842  0.4304  0.2750
  511MOL0     O67367   4.848   8.445   4.149  0.2812 -0.4477  0.4440
  511MOL0     C67368   4.973   8.722   3.964  0.4822  0.9666  0.6483
  511MOL0     C67369   5.100   8.775   3.938 -0.1602  0.2472  0.5428
  511MOL0     N67370   5.867   9.003   3.810  0.1440  0.6009 -0.7114
  511MOL0     N67371   5.988   9.018   3.828 -0.2273 -1.2493 -0.7704
  511MOL0     C67372   6.720   9.588   3.358 -0.2703 -0.2017 -0.2912
  511MOL0     C67373   6.857   9.633   3.398  0.4637  0.6300 -0.3206
  511MOL0     C67374   7.251   9.835   3.414  0.2123  0.1217  0.1954
  511MOL0     C67375   7.273   9.897   3.537 -1.3560  0.5387 -0.0215
  511MOL0     C67376   7.399   9.948   3.574 -1.0799  0.0192 -0.7966
  511MOL0     C67377   7.492   9.972   3.485 -0.3016 -0.7941  0.5511
  511MOL0     O67378   7.600  10.049   3.518  0.4162 -0.1341 -0.3398
  511MOL0     C67379   7.682  10.006   3.625 -0.3480  0.7355  0.3972
  511MOL0     C67380   7.770   9.879   3.588  0.5836 -0.0387 -0.6178
  511MOL0     C67381   7.838   9.889   3.448  0.2330  0.2838 -1.0618
  511MOL0     C67382   7.869   9.765   3.379 -0.2469  0.8285 -0.4261
  511MOL0     C67383   7.746   9.702   3.330 -0.3095 -0.7638 -0.6852
  511MOL0     C67384   7.640   9.651   3.316  0.3464 -0.5331  0.1653
  511MOL0     C67385   7.467   9.928   3.353 -0.0611 -0.1023  0.2757
  511MOL0     C67386   7.360   9.839   3.332 -0.2415  0.1240 -0.2006
  511MOL0     H67387   6.785   9.963   3.386 -0.3428  0.2137 -1.6881
  511MOL0     H67388   6.565   9.887   3.347  1.4754  0.6473 -1.9391
  511MOL0     H67389   6.531   9.483   3.203 -2.1458 -0.6465 -1.7094
  511MOL0     H67390   6.366   9.532   3.200  0.3900 -0.4540 -0.9079
  511MOL0     H67391   6.487   9.387   3.444  1.8163  4.3232 -0.2385
  511MOL0     H67392   6.441   9.300   3.304  0.5180  0.5917 -1.0249
  511MOL0     H67393   6.203   9.370   3.316 -0.3747  0.8365  1.2892
  511MOL0     H67394   6.238   9.481   3.440 -1.8143 -0.0507  0.1880
  511MOL0     H67395   6.281   9.289   3.593  0.2690  1.3908  1.0183
  511MOL0     H67396   6.123   9.283   3.500  0.9049 -0.4979  1.5358
  511MOL0     H67397   6.374   9.116   3.439  0.0292  1.3636  0.8220
  511MOL0     H67398   6.228   9.121   3.342  3.9869 -1.4225 -0.6563
  511MOL0     H67399   6.251   8.941   3.456  1.8139  2.0386  0.1428
  511MOL0     H67400   6.100   9.019   3.503 -0.4243  1.4207 -1.0228
  511MOL0     H67401   6.367   9.012   3.654 -0.2533 -0.3055 -2.5466
  511MOL0     H67402   6.238   9.118   3.709  0.7467 -0.2229  0.7349
  511MOL0     H67403   6.234   8.904   3.843 -1.8139  1.5293  1.7460
  511MOL0     H67404   6.197   8.812   3.692 -2.8074  0.4418  0.4122
  511MOL0     H67405   5.966   8.769   3.617  0.7374  0.4953  0.2225
  511MOL0     H67406   5.705   8.771   3.632  2.8279  0.9793 -1.5929
  511MOL0     H67407   5.674   8.937   3.579 -3.7500 -0.3726  0.0561
  511MOL0     H67408   5.571   8.964   3.816  2.6328  2.3910 -2.3500
  511MOL0     H67409   5.620   8.796   3.850 -0.6208 -2.2024 -2.1439
  511MOL0     H67410   5.456   8.847   3.598  0.0192  2.0303 -0.2433
  511MOL0     H67411   5.490   8.700   3.683 -1.3199 -0.6989  3.1146
  511MOL0     H67412   5.256   8.819   3.734  1.1820  0.8949 -2.7754
  511MOL0     H67413   5.356   8.934   3.817  0.3549 -0.4294 -1.7900
  511MOL0     H67414   5.309   8.524   4.039  1.5768  1.3730  1.8272
  511MOL0     H67415   5.086   8.435   4.109 -0.8149 -1.4664 -2.9735
  511MOL0     H67416   4.536   8.561   3.889  0.2899 -0.0151  0.8864
  511MOL0     H67417   4.306   8.508   3.961 -0.1661  1.6406 -0.9823
  511MOL0     H67418   4.291   8.267   4.223  1.6200  2.0166  0.2156
  511MOL0     H67419   4.223   8.314   4.076  4.9521 -1.5767 -0.2465
  511MOL0     H67420   4.000   8.374   4.209 -0.1525 -1.2589  0.1358
  511MOL0     H67421   4.068   8.298   4.342  0.3266 -2.2435  0.2591
  511MOL0     H67422   4.097   8.086   4.239 -0.8939 -0.0858  1.4179
  511MOL0     H67423   4.042   8.155   4.087  1.1281 -1.2774  0.5511
  511MOL0     H67424   3.895   8.110   4.350 -2.2334  1.1409  0.3304
  511MOL0     H67425   3.818   8.211   4.228 -2.0735 -0.7169  3.4869
  511MOL0     H67426   3.911   7.927   4.170  0.6684  0.6925 -0.3967
  511MOL0     H67427   3.822   8.036   4.067 -0.5777  3.5217  0.4545
  511MOL0     H67428   3.689   7.981   4.334  1.0315 -0.1168  0.5183
  511MOL0     H67429   3.697   7.846   4.226  0.2693  0.0786 -1.5055
  511MOL0     H67430   3.535   8.099   4.191 -1.9293 -0.8679 -0.4650
  511MOL0     H67431   3.572   8.009   4.048  0.7710 -0.7917  0.3484
  511MOL0     H67432   3.361   7.964   4.141 -0.7517  0.9098  0.9389
  511MOL0     H67433   3.435   7.899   4.286 -0.9794 -2.5796 -0.9926
  511MOL0     H67434   4.446   8.462   4.358  0.4609  0.6425  0.3121
  511MOL0     H67435   4.666   8.566   4.296  1.5525  0.6864  0.4507
  511MOL0     H67436   4.891   8.782   3.927 -0.5388 -0.2264  0.9026
  511MOL0     H67437   5.093   8.862   3.874 -1.0834 -2.1142 -2.8806
  511MOL0     H67438   6.705   9.481   3.348 -0.2202 -0.2735  0.3217
  511MOL0     H67439   6.947   9.575   3.417 -0.1667 -1.1743 -2.3976
  511MOL0     H67440   7.192   9.904   3.609 -2.4041  2.6424 -1.2979
  511MOL0     H67441   7.409   9.973   3.679  0.0976 -2.1574 -0.3106
  511MOL0     H67442   7.621   9.997   3.716 -0.2248 -2.6628  0.2695
  511MOL0     H67443   7.749  10.090   3.643  1.3497  0.0450 -2.1904
  511MOL0     H67444   7.847   9.886   3.666 -2.0553  2.6982  2.0332
  511MOL0     H67445   7.705   9.792   3.595  0.1307  0.4144  3.3762
  511MOL0     H67446   7.936   9.930   3.475  0.0449 -1.5875  3.3070
  511MOL0     H67447   7.779   9.958   3.387 -1.3808  0.7139  0.8868
  511MOL0     H67448   7.932   9.797   3.295 -0.9895  1.2285 -0.8415
  511MOL0     H67449   7.933   9.694   3.432  0.2865  2.4851  1.2637
  511MOL0     H67450   7.536   9.625   3.315  0.6665 -1.8789 -0.5167
  511MOL0     H67451   7.552   9.942   3.287 -0.2003 -0.1974  0.0771
  511MOL0     H67452   7.358   9.800   3.231 -1.5618  0.2656 -0.2530
  512MOL0     O67453   3.429   9.537   6.829  0.4097 -0.5960 -1.3167
  512MOL0     C67454   3.432   9.504   6.714  0.1547 -0.1741  0.8347
  512MOL0     O67455   3.541   9.470   6.647 -0.5353  0.7352 -0.1613
  512MOL0     C67456   3.669   9.477   6.697 -0.6728 -0.0750  0.5459
  512MOL0     C67457   3.740   9.590   6.649  1.1759  0.4168  0.1555
  512MOL0     C67458   3.874   9.610   6.675  0.9882  0.4013  0.5614
  512MOL0     C67459   3.940   9.521   6.754 -0.4875 -0.2611 -0.7778
  512MOL0     O67460   4.080   9.535   6.762 -0.4462 -0.2244  0.8883
  512MOL0     C67461   4.148   9.453   6.854 -0.5759 -0.0204 -0.1414
  512MOL0     C67462   4.171   9.536   6.982  0.2041  0.1633 -0.1622
  512MOL0     C67463   4.046   9.562   7.079 -0.7714 -0.2726 -0.3457
  512MOL0     C67464   4.053   9.685   7.174 -0.5096 -0.3597 -0.7403
  512MOL0     C67465   3.963   9.683   7.312 -0.0711  0.8716  0.5794
  512MOL0     C67466   3.816   9.657   7.275  0.0135  0.2440 -0.6944
  512MOL0     C67467   3.755   9.790   7.212  1.1584 -0.1165  0.4159
  512MOL0     C67468   3.696   9.753   7.079  0.5243 -0.2464 -0.2149
  512MOL0     N67469   3.630   9.859   7.009  0.3965 -0.4615 -0.4721
  512MOL0     C67470   3.574   9.978   7.056 -0.2153 -0.3100 -0.4237
  512MOL0     C67471   3.526  10.035   6.943 -0.4952  0.4144 -0.5053
  512MOL0     C67472   3.484  10.170   6.922 -0.1804 -0.6042 -0.0753
  512MOL0     C67473   3.530  10.222   6.787  0.5232  0.4830  0.2567
  512MOL0     C67474   3.677  10.258   6.764  0.3870  0.4650  0.4224
  512MOL0     C67475   3.785  10.154   6.794  0.0319  0.7684 -0.2939
  512MOL0     O67476   3.914  10.219   6.773 -0.5988 -0.2955 -0.7041
  512MOL0     C67477   4.019  10.171   6.849 -0.5620  1.3197  0.2519
  512MOL0     C67478   4.027  10.042   6.897 -0.6946  1.2066 -0.8016
  512MOL0     C67479   4.146   9.990   6.952  0.2796  0.8771 -0.4847
  512MOL0     C67480   4.268  10.071   6.958  0.5154 -0.6753 -0.6731
  512MOL0     C67481   4.398  10.036   7.035  0.2282  0.8914 -0.5084
  512MOL0     O67482   4.490  10.136   7.031  0.4478 -0.2432  0.4834
  512MOL0     C67483   4.616  10.130   7.090  0.0844 -1.1839  0.2240
  512MOL0     C67484   4.716  10.215   7.036  0.9984 -1.0371 -0.2779
  512MOL0     C67485   4.848  10.213   7.085 -0.4811 -1.8208 -0.2157
  512MOL0     C67486   4.875  10.128   7.192 -0.6659 -0.9422  1.4957
  512MOL0     O67487   5.003  10.145   7.239  0.4620 -0.0190 -0.1461
  512MOL0     C67488   5.046  10.076   7.356  0.3286  0.2644 -0.4126
  512MOL0     C67489   4.977  10.114   7.495  0.1747  0.2263  0.5156
  512MOL0     C67490   5.058  10.048   7.615 -0.2260  0.5553  0.0012
  512MOL0     C67491   4.992  10.079   7.753 -1.0112 -0.2459  0.6046
  512MOL0     C67492   5.037  10.003   7.879 -0.5195 -0.6036 -0.0397
  512MOL0     C67493   5.192  10.031   7.909  0.9093 -0.4105 -0.0503
  512MOL0     C67494   5.242   9.953   8.034 -0.6966  0.7080 -0.0054
  512MOL0     C67495   5.174   9.983   8.167 -0.3042 -0.2063  0.1042
  512MOL0    Cl67496   5.280   9.917   8.295 -0.5583  0.0879 -0.2774
  512MOL0     C67497   4.779  10.036   7.238 -0.3084  0.1872  0.5464
  512MOL0     C67498   4.655  10.034   7.189  0.4020 -0.4399 -0.4844
  512MOL0     O67499   4.415   9.921   7.083  0.1356  0.0568  0.4983
  512MOL0     C67500   4.264  10.198   6.898 -1.2656 -0.7039  0.1089
  512MOL0     C67501   4.142  10.242   6.843  0.2520 -0.0287  0.8664
  512MOL0     N67502   3.542   9.945   6.844  0.3099  0.3470  0.6558
  512MOL0     N67503   3.612   9.845   6.876 -0.0856  0.9153 -0.4093
  512MOL0     C67504   3.872   9.406   6.806 -0.3757 -0.3526 -0.9812
  512MOL0     C67505   3.737   9.386   6.776 -0.3857  0.0406 -0.7555
  512MOL0     C67506   3.314   9.499   6.625 -1.5284  0.1000  0.2700
  512MOL0     C67507   3.194   9.558   6.662 -0.8289  0.2862 -0.1878
  512MOL0     C67508   3.081   9.548   6.585 -1.0015 -0.2333 -0.1444
  512MOL0     C67509   3.085   9.485   6.456 -0.9090 -0.2967 -0.4214
  512MOL0     O67510   2.979   9.503   6.369 -0.0752 -0.4546 -0.3038
  512MOL0     C67511   2.996   9.482   6.225  0.1356 -0.5345  0.1865
  512MOL0     C67512   2.892   9.577   6.157 -0.0426  0.1384 -1.5582
  512MOL0     C67513   2.934   9.635   6.025  0.3174  0.3076  0.5356
  512MOL0     C67514   2.816   9.675   5.943  0.6994  0.1152  0.5294
  512MOL0     C67515   2.853   9.729   5.813 -0.1472 -0.0392  0.6151
  512MOL0     C67516   2.868   9.784   5.709 -0.2958 -0.0428  0.2112
  512MOL0     C67517   3.205   9.425   6.415 -0.2364 -0.3690 -0.3808
  512MOL0     C67518   3.321   9.432   6.498  0.1665 -0.8344 -0.2486
  512MOL0     H67519   3.688   9.652   6.576 -0.6320 -1.6757 -0.4617
  512MOL0     H67520   3.924   9.701   6.645 -2.8406  2.7737  0.7777
  512MOL0     H67521   4.249   9.450   6.811 -0.0115  0.8788  1.0651
  512MOL0     H67522   4.118   9.350   6.872  2.7955 -0.7758  2.1965
  512MOL0     H67523   4.221   9.628   6.952 -2.8427  1.9752 -0.1303
  512MOL0     H67524   4.239   9.480   7.046  0.0488  0.4548  0.2579
  512MOL0     H67525   4.036   9.467   7.131  1.1957 -1.3035 -1.7344
  512MOL0     H67526   3.952   9.582   7.025 -0.4376  3.2258  0.1520
  512MOL0     H67527   4.151   9.718   7.208 -1.7481  3.0234 -0.0526
  512MOL0     H67528   4.014   9.768   7.114 -0.8834  0.4890  0.6302
  512MOL0     H67529   3.975   9.774   7.370  0.9670  3.1227 -2.8862
  512MOL0     H67530   3.989   9.597   7.375 -3.8496 -0.0770  1.0865
  512MOL0     H67531   3.761   9.621   7.362  0.0782  0.6590 -0.4755
  512MOL0     H67532   3.807   9.570   7.210  3.6299 -3.0533  2.6460
  512MOL0     H67533   3.674   9.818   7.279  0.4520 -1.5122  0.1870
  512MOL0     H67534   3.824   9.875   7.217  0.6072  0.3496  0.1948
  512MOL0     H67535   3.631   9.667   7.099  3.6338 -2.0922  3.1223
  512MOL0     H67536   3.778   9.712   7.019 -1.2644 -2.0687 -1.5701
  512MOL0     H67537   3.586  10.016   7.157  0.3076  0.1861 -0.6626
  512MOL0     H67538   3.513  10.246   6.996  2.3256  0.6605 -2.1845
  512MOL0     H67539   3.375  10.165   6.924 -0.2472  0.6707  0.9538
  512MOL0     H67540   3.467  10.309   6.768 -0.6565 -0.3128  0.3872
  512MOL0     H67541   3.495  10.159   6.704  0.6192 -0.6802  1.0679
  512MOL0     H67542   3.690  10.294   6.661 -2.7387 -0.0397 -0.2724
  512MOL0     H67543   3.693  10.334   6.841 -1.6959  2.0714 -0.6166
  512MOL0     H67544   3.782  10.058   6.741 -1.3351 -1.7964  3.9266
  512MOL0     H67545   3.764  10.130   6.898  1.0747  3.1563  0.5228
  512MOL0     H67546   3.948   9.968   6.898 -2.5683  3.0828  1.4485
  512MOL0     H67547   4.157   9.908   7.022  2.7891  0.5405 -1.1448
  512MOL0     H67548   4.688  10.292   6.965  2.7243  0.5054  0.6139
  512MOL0     H67549   4.909  10.292   7.042 -1.8385 -1.7469 -2.1191
  512MOL0     H67550   5.154  10.090   7.365  0.3761 -0.5882  0.4509
  512MOL0     H67551   5.035   9.968   7.350 -1.0066  0.4420 -1.9353
  512MOL0     H67552   4.870  10.094   7.500  0.7625 -4.5680 -0.4244
  512MOL0     H67553   4.974  10.222   7.505 -1.9302  0.1073  1.7099
  512MOL0     H67554   5.157  10.094   7.616  0.3012 -0.5527  1.0724
  512MOL0     H67555   5.066   9.941   7.592 -0.9300  0.4100  0.3827
  512MOL0     H67556   5.010  10.183   7.784  2.2365 -1.4997  3.6832
  512MOL0     H67557   4.888  10.056   7.727  0.3074 -2.9723 -3.0683
  512MOL0     H67558   5.029   9.895   7.866 -0.1737 -0.9190  1.9578
  512MOL0     H67559   4.970  10.021   7.963 -1.0547  2.0002 -0.9564
  512MOL0     H67560   5.202  10.137   7.934 -2.0586 -0.2195  0.7348
  512MOL0     H67561   5.241  10.006   7.814 -0.5711 -1.2155 -0.6324
  512MOL0     H67562   5.244   9.845   8.016 -3.6748  0.5258  0.3015
  512MOL0     H67563   5.348   9.975   8.049 -0.6622  0.6320 -0.1400
  512MOL0     H67564   5.085   9.919   8.176 -0.4594  0.1048  0.7769
  512MOL0     H67565   5.158  10.091   8.173 -0.6681 -0.2348 -0.2594
  512MOL0     H67566   4.794   9.988   7.334  0.6852  0.6982  0.6561
  512MOL0     H67567   4.582   9.977   7.246 -0.8179  2.4127  1.0342
  512MOL0     H67568   4.350  10.263   6.886 -0.1290 -2.5142 -2.3919
  512MOL0     H67569   4.135  10.341   6.798 -1.7232 -0.7827 -0.6226
  512MOL0     H67570   3.916   9.330   6.870  1.5514  1.0352 -0.5996
  512MOL0     H67571   3.673   9.308   6.815 -0.4110  1.0592  1.4109
  512MOL0     H67572   3.201   9.601   6.761  5.2955  0.5234 -0.3621
  512MOL0     H67573   2.983   9.591   6.604 -1.2833 -1.3047  0.9821
  512MOL0     H67574   2.975   9.378   6.200 -1.7425 -0.5239  1.4870
  512MOL0     H67575   3.095   9.516   6.194  0.0920 -1.0361 -0.5245
  512MOL0     H67576   2.790   9.537   6.153 -0.6470  1.5376 -1.0324
  512MOL0     H67577   2.890   9.675   6.206 -0.1121 -0.1356 -0.9998
  512MOL0     H67578   3.012   9.574   5.978  1.5364  0.6444  1.9890
  512MOL0     H67579   3.005   9.717   6.045  0.8028  0.0735 -0.1779
  512MOL0     H67580   2.763   9.580   5.935 -0.6225  0.9239 -0.7952
  512MOL0     H67581   2.754   9.748   5.996 -0.7125  0.1512 -1.0803
  512MOL0     H67582   2.880   9.827   5.611  3.0071  1.2379  1.0298
  512MOL0     H67583   3.205   9.363   6.326 -2.4700 -0.7711 -0.1386
  512MOL0     H67584   3.410   9.380   6.466  1.0684  0.4109  0.1402
  513MOL0     O67585   2.292   7.636   7.239  0.7666  0.0845  0.0106
  513MOL0     C67586   2.184   7.602   7.189  0.9938 -1.4400  0.2966
  513MOL0     O67587   2.159   7.476   7.136  0.3390 -0.6853 -0.6135
  513MOL0     C67588   2.267   7.394   7.111 -0.4719 -0.1747  1.0210
  513MOL0     C67589   2.343   7.331   7.211  0.0197 -0.6028 -0.5037
  513MOL0     C67590   2.447   7.244   7.182  0.1321 -0.1323  0.1242
  513MOL0     C67591   2.468   7.200   7.048 -0.3933 -0.6510  0.0696
  513MOL0     O67592   2.570   7.118   7.002 -0.0033  0.1678 -0.3545
  513MOL0     C67593   2.671   7.060   7.094 -0.1400 -0.1586 -0.1036
  513MOL0     C67594   2.787   7.010   7.002  0.9339  0.6882 -0.3937
  513MOL0     C67595   2.891   6.950   7.099 -0.5541 -0.5611 -0.1191
  513MOL0     C67596   2.996   6.878   7.011 -0.3203 -0.0483 -0.0601
  513MOL0     C67597   3.114   6.974   6.983  0.4301 -0.5664  0.2503
  513MOL0     C67598   3.196   6.925   6.871 -0.7043  0.7312  0.9320
  513MOL0     C67599   3.341   6.978   6.861 -1.4554  0.8953 -0.2818
  513MOL0     C67600   3.443   6.912   6.965  0.5791 -0.3782 -0.1603
  513MOL0     N67601   3.482   6.773   6.942 -0.3020  0.7611 -0.4930
  513MOL0     C67602   3.485   6.669   7.037  1.0274 -0.9158  0.5484
  513MOL0     C67603   3.502   6.561   6.958  0.4674  0.7634 -0.2599
  513MOL0     C67604   3.494   6.418   7.017  0.6492  0.4610 -0.2563
  513MOL0     C67605   3.358   6.393   7.094 -0.3287  0.1397  0.2091
  513MOL0     C67606   3.250   6.350   7.006  0.5881  0.6069  0.2847
  513MOL0     C67607   3.128   6.308   7.091  0.0456  0.3147  0.3667
  513MOL0     O67608   3.162   6.194   7.169  0.1510  0.5216  0.7630
  513MOL0     C67609   3.081   6.165   7.272 -0.1246 -0.6089  0.0601
  513MOL0     C67610   2.952   6.225   7.292  0.4181 -0.4960  0.1495
  513MOL0     C67611   2.876   6.171   7.390 -0.1995 -0.8124 -0.4348
  513MOL0     C67612   2.922   6.077   7.485  0.3227 -0.3854  1.1864
  513MOL0     C67613   2.833   6.036   7.602 -0.3809  0.1796 -0.2385
  513MOL0     O67614   2.879   5.938   7.681 -0.2303  0.0704  0.8369
  513MOL0     C67615   2.811   5.869   7.784 -0.3170  0.8928 -0.0981
  513MOL0     C67616   2.894   5.796   7.870 -0.2462  0.7058 -0.3491
  513MOL0     C67617   2.843   5.713   7.963  0.3961  0.1729  0.0078
  513MOL0     C67618   2.699   5.690   7.960  0.4254  0.2272 -0.4847
  513MOL0     O67619   2.627   5.611   8.050  0.3347  0.2807  0.4531
  513MOL0     C67620   2.683   5.593   8.174 -1.2326  0.5054 -0.5999
  513MOL0     C67621   2.574   5.555   8.259  0.8517  0.0663  1.3878
  513MOL0     C67622   2.612   5.557   8.411 -0.6794  0.3898  0.0917
  513MOL0     C67623   2.498   5.555   8.510  0.5321 -0.4442  0.1820
  513MOL0     C67624   2.557   5.520   8.648  0.2153 -0.3053 -0.8554
  513MOL0     C67625   2.478   5.581   8.760  0.9819 -0.3888 -0.7121
  513MOL0     C67626   2.490   5.734   8.761  0.0568  0.2932 -0.1453
  513MOL0     C67627   2.408   5.807   8.871  0.4860 -0.2611 -0.0308
  513MOL0    Cl67628   2.231   5.796   8.826 -0.3678 -0.0680 -0.3479
  513MOL0     C67629   2.611   5.760   7.877 -1.2741  0.1885 -0.3361
  513MOL0     C67630   2.671   5.851   7.790 -0.6207  0.0509  0.3392
  513MOL0     O67631   2.729   6.106   7.627  0.0355 -0.0679  0.6961
  513MOL0     C67632   3.049   6.032   7.467 -0.3537  0.6813 -0.4018
  513MOL0     C67633   3.130   6.068   7.363  0.5497  0.8052  0.5156
  513MOL0     N67634   3.530   6.597   6.824 -0.2990 -0.0988  0.4138
  513MOL0     N67635   3.522   6.727   6.827  0.2399  0.3613  0.1798
  513MOL0     C67636   2.387   7.246   6.950  1.6638  1.9085  0.6239
  513MOL0     C67637   2.290   7.342   6.978  0.4249  0.6569  0.0541
  513MOL0     C67638   2.071   7.705   7.190 -0.3165  0.3170  0.1656
  513MOL0     C67639   1.952   7.647   7.141  0.0818  0.3575 -0.3171
  513MOL0     C67640   1.832   7.716   7.168 -0.2487 -0.0758  0.6397
  513MOL0     C67641   1.833   7.837   7.236  0.3542  0.4220  0.4547
  513MOL0     O67642   1.723   7.911   7.264  0.2868 -0.0187 -0.6789
  513MOL0     C67643   1.597   7.887   7.193  0.2863  0.1115 -0.1751
  513MOL0     C67644   1.496   7.991   7.241  0.5778 -0.2479  0.1054
  513MOL0     C67645   1.366   7.972   7.165  0.0239 -0.8529  0.8829
  513MOL0     C67646   1.268   8.079   7.205 -0.2807  0.5816  0.1720
  513MOL0     C67647   1.130   8.046   7.164  1.0597 -0.2671 -0.8913
  513MOL0     C67648   1.014   8.040   7.123 -0.0121 -0.8526  0.5512
  513MOL0     C67649   1.955   7.901   7.271 -0.0030 -0.1464 -0.4317
  513MOL0     C67650   2.076   7.831   7.241  0.0127  0.2844  0.0927
  513MOL0     H67651   2.316   7.362   7.311 -3.0462 -0.4664 -1.2704
  513MOL0     H67652   2.505   7.185   7.252  1.9839 -2.4334 -3.0903
  513MOL0     H67653   2.627   6.975   7.145 -0.4780 -0.4405 -0.8464
  513MOL0     H67654   2.706   7.139   7.161  1.9186 -0.8170 -0.3059
  513MOL0     H67655   2.813   7.101   6.947 -0.4303  1.2453 -0.1858
  513MOL0     H67656   2.754   6.937   6.928  1.8130  0.8042 -0.8982
  513MOL0     H67657   2.839   6.871   7.153 -2.9946 -0.0455 -1.5921
  513MOL0     H67658   2.938   7.026   7.162 -1.6393  0.9971 -1.1163
  513MOL0     H67659   3.026   6.787   7.064 -2.2163  0.0754  1.3597
  513MOL0     H67660   2.945   6.841   6.922 -2.5533 -0.6902  1.3821
  513MOL0     H67661   3.176   6.983   7.073  1.8024 -0.8683 -0.6402
  513MOL0     H67662   3.069   7.072   6.963  0.8404 -0.0331  1.8142
  513MOL0     H67663   3.144   6.950   6.778  1.0649 -0.9393 -0.5970
  513MOL0     H67664   3.198   6.816   6.863 -2.5576  0.7547 -1.0388
  513MOL0     H67665   3.383   6.961   6.762  4.1765  2.9026  1.4025
  513MOL0     H67666   3.351   7.086   6.870  0.0893  0.7342  0.1840
  513MOL0     H67667   3.380   6.914   7.054  0.7641 -2.8684  0.0873
  513MOL0     H67668   3.534   6.970   6.976 -0.0850  0.5049  0.8612
  513MOL0     H67669   3.446   6.667   7.139  3.8816  2.5347  1.9269
  513MOL0     H67670   3.571   6.423   7.094 -0.9665 -1.4540  1.6264
  513MOL0     H67671   3.511   6.349   6.935  1.1364  1.1734 -0.7618
  513MOL0     H67672   3.320   6.482   7.145  0.9405  1.6643 -1.3830
  513MOL0     H67673   3.384   6.310   7.161  0.4376  0.0108 -0.2431
  513MOL0     H67674   3.219   6.416   6.924 -0.9065 -0.9680 -0.4937
  513MOL0     H67675   3.286   6.262   6.952 -0.4360 -0.4767  1.3243
  513MOL0     H67676   3.048   6.265   7.030  1.5131 -1.1397 -0.6308
  513MOL0     H67677   3.091   6.396   7.143  0.5130  0.4474  0.4794
  513MOL0     H67678   2.909   6.308   7.236  2.7118  0.6974  0.0344
  513MOL0     H67679   2.773   6.192   7.417  0.7553  0.8729  2.4094
  513MOL0     H67680   3.001   5.798   7.851 -0.5078 -0.0305 -2.0823
  513MOL0     H67681   2.897   5.641   8.024  2.8607  1.0207 -1.0517
  513MOL0     H67682   2.725   5.686   8.213 -1.9938  0.0583  1.4023
  513MOL0     H67683   2.760   5.515   8.171 -0.2346  1.4269  0.2171
  513MOL0     H67684   2.519   5.465   8.228  1.1436  0.4098 -0.2022
  513MOL0     H67685   2.508   5.641   8.243  0.1410 -0.8360 -1.1350
  513MOL0     H67686   2.664   5.652   8.427 -0.2194  0.3670 -1.1430
  513MOL0     H67687   2.677   5.472   8.431 -1.8260 -0.9694 -1.6124
  513MOL0     H67688   2.440   5.646   8.496  3.0317  1.0433 -1.2256
  513MOL0     H67689   2.432   5.471   8.489 -0.6988  0.7070 -0.6816
  513MOL0     H67690   2.662   5.550   8.652 -0.0340  0.4577  1.2762
  513MOL0     H67691   2.541   5.412   8.657 -2.5354 -0.0475 -1.5719
  513MOL0     H67692   2.538   5.557   8.849 -0.5964  2.1826  1.1778
  513MOL0     H67693   2.376   5.543   8.775  1.3616 -0.2363  3.3312
  513MOL0     H67694   2.597   5.750   8.768 -0.0068  0.8110 -0.3540
  513MOL0     H67695   2.464   5.779   8.665  1.7874 -0.1102 -0.8304
  513MOL0     H67696   2.436   5.913   8.869 -3.9701  1.1368  1.0088
  513MOL0     H67697   2.429   5.779   8.974 -3.1119  2.7563  1.7692
  513MOL0     H67698   2.503   5.750   7.885 -1.3520  1.6124  0.7599
  513MOL0     H67699   2.608   5.912   7.725  0.2347  1.2657  0.6006
  513MOL0     H67700   3.079   5.956   7.539 -2.6578  0.0881  0.0124
  513MOL0     H67701   3.232   6.039   7.337  0.1985 -0.7780  0.8178
  513MOL0     H67702   2.406   7.194   6.857 -2.5214  0.9198  0.1357
  513MOL0     H67703   2.223   7.380   6.902 -1.8971 -2.6823  0.2128
  513MOL0     H67704   1.950   7.553   7.087  1.1935  0.2283 -0.1450
  513MOL0     H67705   1.737   7.676   7.135 -0.7033  1.5886 -0.1416
  513MOL0     H67706   1.559   7.784   7.202 -1.2192  0.7520  1.2129
  513MOL0     H67707   1.610   7.912   7.087  1.9752  1.5741  0.3324
  513MOL0     H67708   1.472   7.963   7.344 -3.8289 -0.1790 -0.7104
  513MOL0     H67709   1.532   8.094   7.239  1.1784 -0.3976 -3.3469
  513MOL0     H67710   1.324   7.873   7.183 -0.9673 -0.6653 -0.2334
  513MOL0     H67711   1.385   7.981   7.057 -3.2243  1.3314  0.3409
  513MOL0     H67712   1.282   8.096   7.312  1.7212 -2.9240  0.6371
  513MOL0     H67713   1.278   8.159   7.131 -0.8919  0.2907 -0.2370
  513MOL0     H67714   0.918   8.056   7.077  1.0498 -0.3086 -1.6007
  513MOL0     H67715   1.952   7.999   7.319 -4.4490  0.7014 -1.9379
  513MOL0     H67716   2.168   7.880   7.269  0.0644  0.4421 -0.3391
  514MOL0     O67717   1.593   1.553   8.836  0.0125 -0.0888  0.1039
  514MOL0     C67718   1.526   1.586   8.933 -0.8723 -0.0666  0.3387
  514MOL0     O67719   1.402   1.524   8.961 -0.4736  0.1250 -0.2324
  514MOL0     C67720   1.357   1.428   8.870 -0.1613  0.6295  0.8914
  514MOL0     C67721   1.425   1.301   8.860  1.0500 -0.3144  1.0128
  514MOL0     C67722   1.378   1.188   8.789 -0.5996 -0.0976 -0.3625
  514MOL0     C67723   1.247   1.211   8.732 -0.4826 -0.7718 -0.1984
  514MOL0     O67724   1.203   1.097   8.660 -0.4926 -0.3058  0.2157
  514MOL0     C67725   1.078   1.046   8.712 -0.1124 -0.1002 -1.1889
  514MOL0     C67726   1.030   0.939   8.624  0.0033  0.4571  0.7829
  514MOL0     C67727   0.883   0.904   8.626  0.3583  0.4727 -0.5212
  514MOL0     C67728   0.828   0.813   8.509 -0.4599 -0.0186  0.1830
  514MOL0     C67729   0.701   0.746   8.551 -0.7110  0.5321 -0.1316
  514MOL0     C67730   0.651   0.638   8.447 -0.0544 -0.7194  0.1494
  514MOL0     C67731   0.616   0.688   8.302 -0.4991 -0.9058 -0.5485
  514MOL0     C67732   0.594   0.568   8.205 -0.1265 -0.7930  0.4554
  514MOL0     N67733   0.477   0.497   8.230 -0.2445 -0.7396 -0.5670
  514MOL0     C67734   0.469   0.377   8.301  0.1275  0.4570 -0.0756
  514MOL0     C67735   0.339   0.337   8.301 -0.1973  0.2570 -0.3967
  514MOL0     C67736   0.284   0.233   8.378 -0.2448  0.8344 -0.2765
  514MOL0     C67737   0.178   0.286   8.476  0.0851  0.0285  0.5622
  514MOL0     C67738   0.069   0.174   8.490 -0.6572  0.6425 -0.0787
  514MOL0     C67739  -0.021   0.200   8.612  0.8319  1.0081 -0.0556
  514MOL0     O67740  -0.151   0.136   8.588  0.2427 -0.8132  0.6161
  514MOL0     C67741  -0.252   0.200   8.521  0.4936 -0.7815  0.1467
  514MOL0     C67742  -0.237   0.315   8.442 -0.8643  0.2994 -1.0726
  514MOL0     C67743  -0.343   0.372   8.364 -0.4003 -0.9058  0.9893
  514MOL0     C67744  -0.460   0.303   8.346  0.5434 -0.9189  0.0207
  514MOL0     C67745  -0.576   0.347   8.262 -0.5943 -0.4854 -0.0819
  514MOL0     O67746  -0.698   0.299   8.293 -0.7628  0.8971 -0.5575
  514MOL0     C67747  -0.804   0.303   8.202  0.4194  0.0750  0.9235
  514MOL0     C67748  -0.934   0.318   8.259  0.6715 -0.1759  0.1712
  514MOL0     C67749  -1.045   0.365   8.185 -0.4366  0.5719  1.1780
  514MOL0     C67750  -1.032   0.360   8.037  0.4224  0.5478  0.5218
  514MOL0     O67751  -1.145   0.394   7.968 -0.3038 -0.4649 -0.4603
  514MOL0     C67752  -1.183   0.312   7.856  0.4078 -0.4688  0.9252
  514MOL0     C67753  -1.335   0.322   7.847  0.7833 -1.2512 -0.1203
  514MOL0     C67754  -1.415   0.236   7.755 -0.0098  0.7205  0.8810
  514MOL0     C67755  -1.559   0.225   7.797  0.6602  0.4453 -1.2075
  514MOL0     C67756  -1.635   0.110   7.716 -0.5317 -0.3096 -0.2224
  514MOL0     C67757  -1.773   0.093   7.778 -0.1449  0.6401  0.1648
  514MOL0     C67758  -1.839  -0.039   7.736 -0.3320 -0.3412 -0.1515
  514MOL0     C67759  -1.957  -0.070   7.826  0.3714 -1.3780  0.1242
  514MOL0    Cl67760  -2.075   0.074   7.817  0.0663 -0.2247  0.0370
  514MOL0     C67761  -0.907   0.332   7.977  0.1388  0.6821 -0.3193
  514MOL0     C67762  -0.789   0.305   8.062 -0.3062  0.4001 -0.0832
  514MOL0     O67763  -0.551   0.420   8.166  0.5719 -0.6029  0.5125
  514MOL0     C67764  -0.472   0.187   8.421  0.1961 -0.4648 -0.2595
  514MOL0     C67765  -0.383   0.147   8.521  0.3416 -1.0602  0.6480
  514MOL0     N67766   0.271   0.444   8.233  0.9928  0.4096  0.5947
  514MOL0     N67767   0.354   0.532   8.185  0.9463 -0.2457 -0.4871
  514MOL0     C67768   1.179   1.341   8.731 -1.1230  0.3732  0.5222
  514MOL0     C67769   1.236   1.436   8.810 -0.2234 -0.8893 -0.0236
  514MOL0     C67770   1.600   1.678   9.027  0.4955  0.6429 -1.0557
  514MOL0     C67771   1.729   1.720   9.008 -0.2704 -0.0137  1.3712
  514MOL0     C67772   1.800   1.786   9.104 -0.7351 -0.3399 -0.1784
  514MOL0     C67773   1.745   1.823   9.227  0.7502  0.3810 -0.0538
  514MOL0     O67774   1.811   1.890   9.327  0.4851 -0.0080  0.3693
  514MOL0     C67775   1.776   1.862   9.464  0.8160  0.3878  0.3124
  514MOL0     C67776   1.874   1.919   9.567  0.9947 -0.6349  0.5061
  514MOL0     C67777   2.008   1.852   9.554  0.0699 -0.5589  0.1194
  514MOL0     C67778   2.095   1.896   9.665 -0.3969  0.6713  0.6376
  514MOL0     C67779   2.089   1.792   9.767  1.1799  0.7781 -0.0967
  514MOL0     C67780   2.065   1.706   9.854 -0.0342 -0.6817 -0.0847
  514MOL0     C67781   1.610   1.776   9.247  0.2375 -0.3745 -0.4679
  514MOL0     C67782   1.534   1.708   9.145 -0.6252  0.0513 -0.7539
  514MOL0     H67783   1.531   1.301   8.882  1.8092  2.1667 -1.9756
  514MOL0     H67784   1.435   1.097   8.775  0.8804  0.7434  0.0348
  514MOL0     H67785   1.008   1.126   8.690  0.9808  1.2702  0.0726
  514MOL0     H67786   1.097   1.012   8.815  0.1555  1.5824 -0.6577
  514MOL0     H67787   1.089   0.849   8.643 -0.5356 -0.4155 -1.3212
  514MOL0     H67788   1.050   0.980   8.524 -0.0762 -1.7317 -0.1893
  514MOL0     H67789   0.821   0.994   8.625 -0.0686  0.2101 -2.7957
  514MOL0     H67790   0.870   0.854   8.722 -1.2862  1.0263 -0.4130
  514MOL0     H67791   0.817   0.868   8.414 -0.6702  2.0201  1.3287
  514MOL0     H67792   0.901   0.733   8.498 -1.4802 -0.8501 -0.7885
  514MOL0     H67793   0.629   0.828   8.554  1.0057  2.4657 -3.8840
  514MOL0     H67794   0.716   0.707   8.652  0.3453  2.3698  0.4622
  514MOL0     H67795   0.563   0.589   8.489 -2.6696  0.4639 -3.4312
  514MOL0     H67796   0.727   0.560   8.435 -0.1504 -1.0969  1.8321
  514MOL0     H67797   0.537   0.763   8.309  0.6480  0.2055  3.2068
  514MOL0     H67798   0.701   0.742   8.259 -2.2121  0.9918 -1.7222
  514MOL0     H67799   0.689   0.514   8.209  0.3947  0.0682  0.0174
  514MOL0     H67800   0.589   0.603   8.102  0.0976  1.4783  1.1668
  514MOL0     H67801   0.554   0.340   8.357  0.6547  1.6392 -0.0746
  514MOL0     H67802   0.363   0.175   8.425 -2.4533 -2.3616 -0.1993
  514MOL0     H67803   0.223   0.174   8.309 -2.5588 -0.1482  2.3914
  514MOL0     H67804   0.132   0.372   8.426  0.5004 -0.4220 -0.6256
  514MOL0     H67805   0.236   0.298   8.568  1.7593 -3.9660  0.2325
  514MOL0     H67806   0.008   0.176   8.400  2.7064  2.3351 -2.5428
  514MOL0     H67807   0.112   0.075   8.511 -1.1761  0.2682 -0.7449
  514MOL0     H67808  -0.040   0.308   8.617  2.3809  1.2577  1.3215
  514MOL0     H67809   0.022   0.159   8.704 -1.6608 -0.1238  0.6819
  514MOL0     H67810  -0.137   0.356   8.428 -1.6410  2.8653  0.2602
  514MOL0     H67811  -0.317   0.465   8.314 -0.8178 -0.3667  1.7426
  514MOL0     H67812  -0.941   0.311   8.367  0.9570 -1.7803  0.1065
  514MOL0     H67813  -1.139   0.401   8.226 -0.7988  1.3723 -0.2713
  514MOL0     H67814  -1.156   0.206   7.854 -0.7212 -0.8001  1.9398
  514MOL0     H67815  -1.141   0.352   7.763  2.6710 -2.1879  1.1249
  514MOL0     H67816  -1.369   0.425   7.835 -1.8112 -2.1654 -1.4150
  514MOL0     H67817  -1.378   0.303   7.946 -2.9843 -0.9932 -1.5387
  514MOL0     H67818  -1.367   0.138   7.751  1.0386  1.1903 -3.6187
  514MOL0     H67819  -1.423   0.278   7.654 -2.9535  2.5679  1.7349
  514MOL0     H67820  -1.544   0.190   7.900  0.6393  0.0447 -1.3381
  514MOL0     H67821  -1.600   0.326   7.789  1.8912  0.8395 -3.2874
  514MOL0     H67822  -1.574   0.019   7.722  3.4633  2.1796  0.5059
  514MOL0     H67823  -1.640   0.135   7.610 -1.7637  1.7425  0.2598
  514MOL0     H67824  -1.838   0.177   7.751 -1.7788 -0.8792 -0.8163
  514MOL0     H67825  -1.774   0.097   7.887  3.3526 -1.4080  0.3981
  514MOL0     H67826  -1.865  -0.029   7.630  3.3265 -0.1381 -1.1660
  514MOL0     H67827  -1.761  -0.115   7.741 -2.4505 -2.5584  0.9649
  514MOL0     H67828  -1.932  -0.094   7.930 -1.4776 -3.9330  0.0627
  514MOL0     H67829  -2.014  -0.154   7.786  3.7257 -2.9129 -1.8694
  514MOL0     H67830  -0.907   0.320   7.870 -1.0880 -1.9848 -0.0938
  514MOL0     H67831  -0.688   0.301   8.022  0.3107  0.1751  1.3897
  514MOL0     H67832  -0.566   0.133   8.421  0.7340 -1.4425 -1.7189
  514MOL0     H67833  -0.408   0.070   8.593 -1.8230 -0.8356  0.2233
  514MOL0     H67834   1.079   1.340   8.689 -0.5514 -1.7874 -0.9723
  514MOL0     H67835   1.189   1.532   8.825 -0.1242 -0.7482 -0.6103
  514MOL0     H67836   1.780   1.697   8.915 -1.9947  2.5475 -0.3216
  514MOL0     H67837   1.898   1.829   9.086  0.1647 -1.6550  1.3713
  514MOL0     H67838   1.780   1.754   9.478 -2.2367  0.3089  1.1235
  514MOL0     H67839   1.676   1.896   9.494  0.3653  0.1398 -0.8715
  514MOL0     H67840   1.892   2.022   9.536  3.4356 -1.5721 -1.6176
  514MOL0     H67841   1.828   1.910   9.666 -0.6824  2.4118  0.1026
  514MOL0     H67842   2.038   1.887   9.455 -0.1361  1.3630  0.6832
  514MOL0     H67843   1.985   1.746   9.545 -2.7161  0.1214 -2.3828
  514MOL0     H67844   2.197   1.898   9.627 -0.6750  0.7266 -0.1337
  514MOL0     H67845   2.081   1.999   9.700  4.2101  2.3423 -1.5923
  514MOL0     H67846   2.040   1.619   9.912 -2.2958 -0.0010  0.0548
  514MOL0     H67847   1.566   1.806   9.341 -1.1051  1.6455 -1.6505
  514MOL0     H67848   1.433   1.673   9.163  0.4607 -1.9199  2.2043
  515MOL0     O67849   3.371   4.613   9.339 -0.6133 -0.1658  0.5021
  515MOL0     C67850   3.382   4.590   9.457 -0.2977 -0.2516 -0.5396
  515MOL0     O67851   3.283   4.529   9.533  0.7054 -0.0012  0.0390
  515MOL0     C67852   3.172   4.461   9.490 -0.7765 -0.9679  0.6097
  515MOL0     C67853   3.117   4.358   9.563  1.1233  0.1440 -0.1894
  515MOL0     C67854   3.016   4.272   9.514 -0.1474 -0.6124 -0.4480
  515MOL0     C67855   2.954   4.306   9.392 -0.3742 -0.1122 -0.9998
  515MOL0     O67856   2.848   4.239   9.346 -0.0446  0.9092  0.3028
  515MOL0     C67857   2.866   4.161   9.227 -0.3719  1.1181  0.5473
  515MOL0     C67858   2.742   4.063   9.197  0.6392 -0.6398 -0.6300
  515MOL0     C67859   2.625   4.134   9.129  0.6001 -0.3855  0.3335
  515MOL0     C67860   2.652   4.175   8.984 -0.2660 -0.2388 -0.0392
  515MOL0     C67861   2.534   4.195   8.895  0.4590 -0.5077 -0.3269
  515MOL0     C67862   2.588   4.232   8.755  0.1166  0.4543  0.1620
  515MOL0     C67863   2.475   4.220   8.656  0.6137  0.3523  0.4251
  515MOL0     C67864   2.365   4.329   8.673 -0.2556 -0.5731  0.4321
  515MOL0     N67865   2.271   4.317   8.568 -0.0408 -0.5064  0.9896
  515MOL0     C67866   2.236   4.432   8.486 -0.2324  0.8496 -0.4204
  515MOL0     C67867   2.159   4.382   8.391  0.6234 -0.7487 -0.0266
  515MOL0     C67868   2.098   4.453   8.268 -0.2936 -0.0304 -0.3148
  515MOL0     C67869   1.971   4.524   8.305  0.1949  0.1033 -0.0747
  515MOL0     C67870   1.843   4.434   8.323 -0.6755  0.9029  0.2555
  515MOL0     C67871   1.706   4.503   8.303 -0.6075  0.4403  0.6657
  515MOL0     O67872   1.709   4.551   8.166 -0.0551 -0.3594  0.2384
  515MOL0     C67873   1.591   4.605   8.107  0.4169 -1.0574 -0.9289
  515MOL0     C67874   1.571   4.617   7.977 -0.1353  0.4653  0.2836
  515MOL0     C67875   1.465   4.687   7.915 -0.8219  0.2948 -0.3704
  515MOL0     C67876   1.358   4.737   7.995 -0.0206  0.5391 -0.2292
  515MOL0     C67877   1.243   4.807   7.943 -0.5066  0.2053 -0.2579
  515MOL0     O67878   1.255   4.866   7.827 -0.2410 -0.1479 -0.1188
  515MOL0     C67879   1.161   4.953   7.773  0.7975  0.6042 -0.5314
  515MOL0     C67880   1.169   4.961   7.629 -0.7860 -0.7447 -1.0775
  515MOL0     C67881   1.074   5.029   7.562 -1.1583  0.0307 -0.0594
  515MOL0     C67882   0.993   5.117   7.631  0.0749  0.3375  0.3363
  515MOL0     O67883   0.896   5.188   7.549  0.0754  0.0901  0.5168
  515MOL0     C67884   0.803   5.272   7.619  0.2193 -0.2111 -0.0777
  515MOL0     C67885   0.676   5.189   7.663 -0.1828 -0.6852  0.0068
  515MOL0     C67886   0.592   5.291   7.738  0.5773 -0.0171 -0.2450
  515MOL0     C67887   0.513   5.387   7.653  0.5142  0.0157  0.3985
  515MOL0     C67888   0.443   5.492   7.737 -0.8895  0.6404  0.4544
  515MOL0     C67889   0.312   5.465   7.790  0.1959  0.2526 -0.1182
  515MOL0     C67890   0.244   5.571   7.874 -0.3319  0.7081  0.1720
  515MOL0     C67891   0.105   5.530   7.931 -0.3615 -0.3569  0.0647
  515MOL0    Cl67892  -0.018   5.549   7.801  0.2328 -0.9356 -0.3827
  515MOL0     C67893   0.994   5.112   7.773 -0.4687 -0.9684 -0.9341
  515MOL0     C67894   1.084   5.039   7.843  0.7560  0.0852 -0.2745
  515MOL0     O67895   1.137   4.796   8.007  0.2271 -0.7064 -0.2536
  515MOL0     C67896   1.362   4.704   8.129 -0.0956 -0.4593 -0.2776
  515MOL0     C67897   1.480   4.653   8.188 -0.4803 -0.7414 -0.1455
  515MOL0     N67898   2.151   4.242   8.414  0.4762  0.3611 -0.2417
  515MOL0     N67899   2.220   4.204   8.509 -0.2733 -0.1756  0.0167
  515MOL0     C67900   3.003   4.409   9.318  0.0173 -0.3788  0.3658
  515MOL0     C67901   3.108   4.484   9.367  0.3237  0.4634  1.7974
  515MOL0     C67902   3.505   4.630   9.526 -0.2862 -0.4574 -0.7161
  515MOL0     C67903   3.528   4.600   9.663  0.4941  0.0707  0.2356
  515MOL0     C67904   3.650   4.641   9.734  0.3208  0.2263  0.0878
  515MOL0     C67905   3.756   4.703   9.663 -0.0694  0.2843  0.6551
  515MOL0     O67906   3.876   4.745   9.718 -0.1855  0.3019 -0.2192
  515MOL0     C67907   3.886   4.775   9.858 -0.2154 -0.1981  0.2730
  515MOL0     C67908   3.937   4.658   9.946 -0.1381 -0.6086  1.1159
  515MOL0     C67909   4.078   4.622   9.918 -0.4088 -0.4192 -0.0510
  515MOL0     C67910   4.135   4.559  10.051 -0.7378 -0.4062  0.1265
  515MOL0     C67911   4.279   4.542  10.039  0.0557  0.3748 -0.1953
  515MOL0     C67912   4.398   4.520  10.039 -0.6814  0.6028  0.7839
  515MOL0     C67913   3.739   4.709   9.523 -0.7755 -1.1436 -1.0085
  515MOL0     C67914   3.614   4.687   9.462  0.5474  0.1006 -0.1048
  515MOL0     H67915   3.165   4.339   9.658  1.9372 -3.1324 -1.1237
  515MOL0     H67916   2.990   4.186   9.574 -2.6397 -0.6715 -1.4819
  515MOL0     H67917   2.957   4.102   9.240  1.0939  2.6942 -1.7954
  515MOL0     H67918   2.860   4.225   9.139 -2.8282 -1.2744 -1.1813
  515MOL0     H67919   2.715   4.003   9.285 -0.6328  0.1114 -0.4828
  515MOL0     H67920   2.768   3.981   9.129 -0.8541 -1.1401 -0.6497
  515MOL0     H67921   2.597   4.224   9.185  0.7637 -0.1151 -0.0123
  515MOL0     H67922   2.545   4.059   9.124 -0.6393  0.9565 -2.7022
  515MOL0     H67923   2.710   4.268   8.986  0.5713 -0.7622  1.7203
  515MOL0     H67924   2.724   4.105   8.942  2.3613  1.4820  1.2890
  515MOL0     H67925   2.467   4.272   8.936 -2.3671 -1.7293 -2.3477
  515MOL0     H67926   2.477   4.103   8.879 -0.4585  0.3995 -2.6643
  515MOL0     H67927   2.677   4.173   8.733  0.3127  1.0352 -0.6653
  515MOL0     H67928   2.632   4.332   8.757  1.1646  0.1719 -3.0624
  515MOL0     H67929   2.523   4.242   8.561 -0.3524  1.3334  0.1365
  515MOL0     H67930   2.437   4.117   8.663 -2.9608  1.6054  2.3776
  515MOL0     H67931   2.411   4.428   8.666  1.2232 -1.1601  1.4215
  515MOL0     H67932   2.335   4.328   8.779 -1.0866  2.2880  0.3283
  515MOL0     H67933   2.263   4.536   8.504 -0.1123  1.1404 -2.1588
  515MOL0     H67934   2.080   4.393   8.178  2.4598  4.0542 -4.0191
  515MOL0     H67935   2.185   4.510   8.235  0.7789 -1.9238 -0.9311
  515MOL0     H67936   1.941   4.584   8.219 -0.5962  1.0474  0.8371
  515MOL0     H67937   1.991   4.586   8.393 -0.4513 -0.1375  0.2510
  515MOL0     H67938   1.859   4.361   8.244  1.4541  1.3798  0.1945
  515MOL0     H67939   1.845   4.382   8.419 -0.9581 -0.1367 -0.2969
  515MOL0     H67940   1.705   4.599   8.357  0.6456  0.8149  0.0614
  515MOL0     H67941   1.621   4.435   8.313 -0.3881 -0.6814 -3.4404
  515MOL0     H67942   1.646   4.582   7.907 -0.5392  0.5394 -0.1936
  515MOL0     H67943   1.464   4.682   7.807 -0.3212 -2.9548 -0.3208
  515MOL0     H67944   1.244   4.907   7.572  1.6664  3.2479 -1.9911
  515MOL0     H67945   1.084   5.021   7.455  0.4891  2.4175 -0.1497
  515MOL0     H67946   0.768   5.350   7.550  0.7205 -2.1549 -2.6887
  515MOL0     H67947   0.850   5.337   7.694 -0.9120 -1.8058  2.0905
  515MOL0     H67948   0.699   5.104   7.728  0.6603  0.1782  0.8833
  515MOL0     H67949   0.631   5.152   7.571 -0.2351 -1.4625  0.3336
  515MOL0     H67950   0.658   5.349   7.803  1.4868  1.1614 -2.1449
  515MOL0     H67951   0.521   5.233   7.798 -2.0494  1.9507 -1.2520
  515MOL0     H67952   0.586   5.440   7.592  1.6507 -2.1770 -0.2660
  515MOL0     H67953   0.441   5.334   7.589  2.7200  2.1837 -4.4047
  515MOL0     H67954   0.448   5.580   7.673  0.6743  0.1908 -0.0896
  515MOL0     H67955   0.505   5.515   7.825  1.3543 -1.1867 -0.5550
  515MOL0     H67956   0.326   5.375   7.851 -2.1189 -1.3113 -1.7174
  515MOL0     H67957   0.243   5.430   7.713 -0.9963  1.6078  0.3115
  515MOL0     H67958   0.307   5.598   7.958 -3.0385  2.3055  1.8373
  515MOL0     H67959   0.231   5.665   7.819  1.9875  0.8961 -0.1430
  515MOL0     H67960   0.090   5.588   8.022  2.2279 -0.6798  0.7512
  515MOL0     H67961   0.098   5.427   7.967 -1.8362 -0.3136 -0.0336
  515MOL0     H67962   0.938   5.170   7.845  2.2936 -0.9482  1.4081
  515MOL0     H67963   1.067   5.040   7.950 -1.9148 -1.7936 -0.5762
  515MOL0     H67964   1.281   4.728   8.197  2.2865  0.0890  2.6262
  515MOL0     H67965   1.481   4.642   8.296  0.7463 -2.6350 -0.3036
  515MOL0     H67966   2.945   4.442   9.232 -0.2408 -0.8322  0.3631
  515MOL0     H67967   3.143   4.562   9.300 -0.9105  0.2524  0.8737
  515MOL0     H67968   3.463   4.527   9.711  0.1958  0.7425  0.8813
  515MOL0     H67969   3.662   4.613   9.838 -0.7563  0.9152  0.4051
  515MOL0     H67970   3.795   4.818   9.900 -0.6198 -0.9696  0.1983
  515MOL0     H67971   3.959   4.856   9.865  0.0210 -0.4989  1.4230
  515MOL0     H67972   3.929   4.698  10.047 -4.3108  0.1760  0.6359
  515MOL0     H67973   3.864   4.576   9.943  0.9878 -1.6425  0.8141
  515MOL0     H67974   4.133   4.711   9.886 -2.0767  0.4473 -0.6169
  515MOL0     H67975   4.090   4.545   9.842 -1.0859  0.7450 -1.3653
  515MOL0     H67976   4.122   4.634  10.130  2.5182  3.0303 -2.2955
  515MOL0     H67977   4.078   4.470  10.079  0.0284  0.2743  4.5701
  515MOL0     H67978   4.498   4.483  10.046 -1.9959 -3.2806  1.6255
  515MOL0     H67979   3.816   4.751   9.460 -3.1310  1.8796 -2.1324
  515MOL0     H67980   3.607   4.716   9.358  3.3257  1.9156  0.1139
  516MOL0     O67981   3.927   4.685  11.221 -0.0233 -0.1743 -0.4752
  516MOL0     C67982   3.983   4.657  11.114  0.1375 -0.2445  0.5096
  516MOL0     O67983   3.925   4.641  10.993  0.3418 -0.3958  0.6118
  516MOL0     C67984   3.792   4.664  10.984  0.2182  0.6854 -0.2704
  516MOL0     C67985   3.710   4.567  10.929 -0.3714  0.1065  0.4839
  516MOL0     C67986   3.574   4.577  10.927  0.2384  0.4847 -0.3982
  516MOL0     C67987   3.508   4.685  10.972  0.0872 -1.8473  0.2128
  516MOL0     O67988   3.373   4.681  10.956 -0.0274 -0.3152  0.0738
  516MOL0     C67989   3.301   4.798  10.923  0.0495  0.1681  0.0893
  516MOL0     C67990   3.153   4.782  10.963 -0.2797  1.5261  0.9485
  516MOL0     C67991   3.057   4.872  10.887  0.5144  0.6051 -0.0356
  516MOL0     C67992   3.086   5.021  10.919  0.1491  0.4493 -0.0882
  516MOL0     C67993   2.970   5.104  10.868  0.5434  0.3127  0.0719
  516MOL0     C67994   2.853   5.108  10.974 -0.9929  0.5007  0.6587
  516MOL0     C67995   2.894   5.190  11.102 -0.1395  0.5921  0.5363
  516MOL0     C67996   2.789   5.161  11.219 -0.1347 -0.3633  0.2619
  516MOL0     N67997   2.654   5.182  11.177  0.1220 -0.5355 -0.3926
  516MOL0     C67998   2.573   5.287  11.218  0.1280  0.4531 -0.1918
  516MOL0     C67999   2.452   5.253  11.180  0.0201 -0.7137  0.4789
  516MOL0     C68000   2.331   5.337  11.218  1.0833  0.5847 -1.0552
  516MOL0     C68001   2.201   5.307  11.140 -0.6206 -0.3867 -0.0929
  516MOL0     C68002   2.078   5.368  11.208  0.1372  0.2787  0.3415
  516MOL0     C68003   1.943   5.329  11.137  0.1144 -0.2177  0.7516
  516MOL0     O68004   1.974   5.332  10.996  0.5193  0.1501 -0.0092
  516MOL0     C68005   1.866   5.307  10.905 -0.5269 -0.0777  0.0613
  516MOL0     C68006   1.757   5.224  10.946 -0.3512  0.0349  0.2761
  516MOL0     C68007   1.663   5.187  10.847  0.0290  0.3045 -0.1871
  516MOL0     C68008   1.674   5.248  10.717 -0.0343 -0.2531 -0.4063
  516MOL0     C68009   1.558   5.260  10.630 -0.3149 -0.2754 -0.1925
  516MOL0     O68010   1.432   5.231  10.678 -0.1578  0.1762  0.0685
  516MOL0     C68011   1.333   5.266  10.584 -0.5010  0.4902 -0.4897
  516MOL0     C68012   1.227   5.350  10.608 -0.1175  0.2196 -0.2851
  516MOL0     C68013   1.115   5.372  10.524  0.1032 -0.1777  0.5015
  516MOL0     C68014   1.107   5.292  10.406 -1.2690 -0.5565 -0.0733
  516MOL0     O68015   1.002   5.319  10.326  0.1273  0.4850  0.2524
  516MOL0     C68016   0.954   5.210  10.242  0.2429 -0.3073 -0.4090
  516MOL0     C68017   0.805   5.247  10.224  0.3761 -0.6179  1.1751
  516MOL0     C68018   0.722   5.118  10.209  0.3005 -0.4333 -0.4563
  516MOL0     C68019   0.571   5.149  10.193 -0.4276  0.9965  0.1724
  516MOL0     C68020   0.496   5.030  10.240 -0.2120 -0.2439 -0.4232
  516MOL0     C68021   0.349   5.067  10.222 -0.3325  0.2773  0.3630
  516MOL0     C68022   0.253   4.983  10.310 -0.2557  0.0580  0.6515
  516MOL0     C68023   0.131   4.931  10.214  0.1708  0.6304  0.3375
  516MOL0    Cl68024   0.195   4.818  10.085  0.2185 -0.1811 -0.4156
  516MOL0     C68025   1.207   5.199  10.381  0.3831 -1.1068  0.3883
  516MOL0     C68026   1.323   5.189  10.463  0.6868  0.0414 -0.0725
  516MOL0     O68027   1.584   5.296  10.512  0.2142  0.2427 -0.1258
  516MOL0     C68028   1.794   5.323  10.685  0.1464  0.2869 -0.4869
  516MOL0     C68029   1.885   5.350  10.779 -0.0305  0.0781  0.0210
  516MOL0     N68030   2.444   5.134  11.114  0.0873 -0.2110 -0.2732
  516MOL0     N68031   2.569   5.097  11.118  0.2550 -0.3382  0.1982
  516MOL0     C68032   3.585   4.797  11.007 -0.2935  0.1112 -0.2249
  516MOL0     C68033   3.723   4.779  11.028 -0.0859 -0.0606 -0.2559
  516MOL0     C68034   4.132   4.631  11.128 -0.3589 -0.5311 -0.0780
  516MOL0     C68035   4.217   4.580  11.025  0.9742 -0.3178  0.1821
  516MOL0     C68036   4.352   4.555  11.049 -0.8477 -1.0896 -0.5314
  516MOL0     C68037   4.413   4.610  11.176 -0.1317  0.6319  0.4159
  516MOL0     O68038   4.552   4.607  11.199 -0.2357  0.7569 -0.0113
  516MOL0     C68039   4.601   4.476  11.241  0.3440 -0.0371 -0.4090
  516MOL0     C68040   4.643   4.385  11.122  0.6749  0.0015 -0.1455
  516MOL0     C68041   4.752   4.450  11.043  0.6432  0.4225  0.5836
  516MOL0     C68042   4.883   4.374  11.055  0.6908 -0.3835  0.2323
  516MOL0     C68043   4.947   4.401  11.182  0.3173  0.3325  0.2257
  516MOL0     C68044   5.011   4.444  11.273  0.1672 -0.3939 -0.3117
  516MOL0     C68045   4.327   4.644  11.282  0.3922  0.1515  0.6013
  516MOL0     C68046   4.196   4.657  11.251  0.6311  0.3516  0.0055
  516MOL0     H68047   3.754   4.476  10.889 -2.2404  0.0908 -1.7244
  516MOL0     H68048   3.511   4.498  10.888  0.7544 -1.6463  2.7245
  516MOL0     H68049   3.308   4.813  10.815 -0.2263 -3.4196 -0.5320
  516MOL0     H68050   3.337   4.888  10.975  0.2620 -0.5866  1.2842
  516MOL0     H68051   3.137   4.785  11.071  1.5051 -3.8249  1.6911
  516MOL0     H68052   3.114   4.686  10.926  2.2723  0.9971 -0.6605
  516MOL0     H68053   2.964   4.835  10.934  1.8454  1.6277  3.8145
  516MOL0     H68054   3.038   4.857  10.781  1.9301  1.7549 -0.4765
  516MOL0     H68055   3.099   5.030  11.027  0.7514 -3.6215  0.3264
  516MOL0     H68056   3.177   5.059  10.871  1.0097  0.1334  1.2319
  516MOL0     H68057   2.921   5.075  10.774 -0.1264  0.3059  0.4172
  516MOL0     H68058   3.006   5.207  10.857  0.4678  0.3025 -0.3011
  516MOL0     H68059   2.825   5.011  11.015  3.2252  0.4135  3.9009
  516MOL0     H68060   2.771   5.151  10.916 -1.1509 -0.9795 -0.2713
  516MOL0     H68061   2.996   5.181  11.140 -0.5543  0.5587  1.7010
  516MOL0     H68062   2.887   5.296  11.078 -0.9140  1.3650  3.6458
  516MOL0     H68063   2.813   5.223  11.306  2.3672 -0.6698 -0.1354
  516MOL0     H68064   2.803   5.056  11.245  0.2345 -1.0480 -2.4563
  516MOL0     H68065   2.608   5.369  11.279 -2.3255  0.0940  1.8664
  516MOL0     H68066   2.356   5.443  11.208 -1.6134  1.3568 -0.4468
  516MOL0     H68067   2.310   5.328  11.325 -2.2092 -1.0576 -1.7089
  516MOL0     H68068   2.188   5.204  11.105 -3.3625 -1.1429  2.7488
  516MOL0     H68069   2.222   5.363  11.048  2.2953 -0.5927  0.3731
  516MOL0     H68070   2.062   5.318  11.304 -0.5659 -2.9565 -1.3306
  516MOL0     H68071   2.079   5.477  11.217 -0.3707  0.2691  0.5877
  516MOL0     H68072   1.876   5.415  11.146  2.7155  2.9361 -4.9131
  516MOL0     H68073   1.892   5.236  11.162 -1.9970  0.1509 -1.8073
  516MOL0     H68074   1.740   5.189  11.047 -0.9825  1.4607  0.7007
  516MOL0     H68075   1.579   5.122  10.867  1.3372 -1.3584  0.1539
  516MOL0     H68076   1.238   5.413  10.696  0.5723  0.6036 -0.6378
  516MOL0     H68077   1.032   5.438  10.549 -1.0282 -1.0532 -0.7706
  516MOL0     H68078   0.967   5.114  10.293 -2.8142  0.4381  2.0444
  516MOL0     H68079   1.019   5.207  10.154  0.3474  1.0308 -0.4021
  516MOL0     H68080   0.791   5.309  10.135 -2.1268 -0.5424  1.5454
  516MOL0     H68081   0.758   5.309  10.300 -1.3168 -0.3836 -0.0024
  516MOL0     H68082   0.732   5.067  10.306 -1.1483 -0.6961 -0.4288
  516MOL0     H68083   0.767   5.055  10.131  4.1400  2.0453 -0.5334
  516MOL0     H68084   0.552   5.244  10.244  0.1426  2.9393 -2.9987
  516MOL0     H68085   0.551   5.157  10.086  1.9888 -0.0605 -0.4251
  516MOL0     H68086   0.511   5.017  10.348 -1.2503 -0.6363 -0.3132
  516MOL0     H68087   0.523   4.932  10.201 -0.2824 -0.5914  0.3902
  516MOL0     H68088   0.333   5.065  10.114 -0.6860  4.3536  0.1851
  516MOL0     H68089   0.333   5.171  10.250 -0.4998  0.4025 -0.1938
  516MOL0     H68090   0.314   4.904  10.356 -1.3704 -0.1708  1.7608
  516MOL0     H68091   0.211   5.054  10.381  0.1906  0.8247  0.1690
  516MOL0     H68092   0.079   5.012  10.161 -0.4217  0.4503  0.6367
  516MOL0     H68093   0.063   4.870  10.273  0.0842 -0.7892 -1.1648
  516MOL0     H68094   1.206   5.140  10.290 -4.7192  2.4379 -2.3899
  516MOL0     H68095   1.398   5.113  10.444 -0.8422 -2.0037  1.6139
  516MOL0     H68096   1.802   5.372  10.589  0.5674 -0.3931 -0.8062
  516MOL0     H68097   1.973   5.409  10.755 -0.2740  0.7311  0.7321
  516MOL0     H68098   3.552   4.895  11.039  1.1291 -0.5527  4.0170
  516MOL0     H68099   3.783   4.861  11.066 -2.2328  1.7371 -0.5140
  516MOL0     H68100   4.183   4.536  10.932  1.6506 -2.9982  1.0971
  516MOL0     H68101   4.406   4.489  10.981 -1.2851  0.5531 -2.5507
  516MOL0     H68102   4.521   4.424  11.295  0.5088 -1.2981 -1.3317
  516MOL0     H68103   4.685   4.497  11.308 -0.9115  2.1389  0.5823
  516MOL0     H68104   4.667   4.283  11.155 -1.0192 -0.8205 -1.3240
  516MOL0     H68105   4.560   4.359  11.056  0.9174 -4.1020  0.8824
  516MOL0     H68106   4.774   4.554  11.071  2.5867  0.2700 -0.2171
  516MOL0     H68107   4.728   4.449  10.937  2.4278 -3.2588  0.0563
  516MOL0     H68108   4.874   4.267  11.036 -0.0530 -0.2557 -0.1628
  516MOL0     H68109   4.942   4.416  10.973 -1.1985  5.3074  1.3083
  516MOL0     H68110   5.080   4.459  11.354  0.8718  0.1945 -1.0049
  516MOL0     H68111   4.377   4.672  11.374 -2.2606  0.0005  2.1829
  516MOL0     H68112   4.138   4.694  11.335  0.1643  1.7583 -0.8896
  517MOL0     O68113   0.370   6.280   4.636  0.1414 -0.2628  0.3427
  517MOL0     C68114   0.362   6.334   4.523 -0.0453 -0.3032 -0.0293
  517MOL0     O68115   0.462   6.399   4.459 -0.5638 -0.6662  0.5806
  517MOL0     C68116   0.584   6.385   4.513 -0.5972 -0.8540 -0.7394
  517MOL0     C68117   0.680   6.301   4.453 -0.2231  0.2585  0.1928
  517MOL0     C68118   0.805   6.292   4.510 -0.2873  1.0091 -0.2903
  517MOL0     C68119   0.844   6.378   4.620 -0.6599 -0.6310 -0.3794
  517MOL0     O68120   0.979   6.362   4.665  0.0601 -0.6186  0.1143
  517MOL0     C68121   1.029   6.445   4.770 -1.0616 -0.7099  0.3759
  517MOL0     C68122   1.162   6.395   4.810 -0.3614 -0.3438 -0.0977
  517MOL0     C68123   1.166   6.256   4.874 -1.1210  0.9821  1.0429
  517MOL0     C68124   1.129   6.249   5.021 -0.6845 -1.1707  0.7161
  517MOL0     C68125   1.174   6.114   5.088 -0.6897 -0.5190  0.0056
  517MOL0     C68126   1.321   6.117   5.133 -0.4982  0.0374  0.0609
  517MOL0     C68127   1.352   5.992   5.216  0.9576 -0.3090 -0.5661
  517MOL0     C68128   1.484   6.004   5.288  0.4922 -0.1010  0.5003
  517MOL0     N68129   1.589   5.986   5.195  0.1001  0.1487 -0.1741
  517MOL0     C68130   1.662   5.879   5.171 -0.3556 -0.2847 -0.5186
  517MOL0     C68131   1.780   5.920   5.107  0.4622  0.3750  0.0711
  517MOL0     C68132   1.900   5.847   5.074 -0.2941 -0.0820 -0.2323
  517MOL0     C68133   2.010   5.901   5.163  0.2188  0.8390  1.0106
  517MOL0     C68134   2.121   5.791   5.177 -0.7610 -0.0589  0.1327
  517MOL0     C68135   2.199   5.763   5.055  0.1607  0.2239 -0.2158
  517MOL0     O68136   2.165   5.629   5.015  0.4027 -0.4123 -0.2105
  517MOL0     C68137   2.219   5.574   4.907 -0.4285 -0.0429 -0.1510
  517MOL0     C68138   2.349   5.606   4.865  0.5007 -0.9125  0.6305
  517MOL0     C68139   2.399   5.542   4.750  0.7358 -0.2217 -0.9605
  517MOL0     C68140   2.320   5.445   4.676  0.5929 -0.2389 -0.4705
  517MOL0     C68141   2.372   5.389   4.550  0.3203 -0.3008  0.5842
  517MOL0     O68142   2.295   5.287   4.488 -0.9899  0.1405  0.4522
  517MOL0     C68143   2.340   5.225   4.370 -0.0756 -0.0051 -0.4310
  517MOL0     C68144   2.469   5.178   4.363 -0.5022 -0.3153 -0.4964
  517MOL0     C68145   2.504   5.100   4.267 -0.4212 -0.0293 -0.5542
  517MOL0     C68146   2.417   5.067   4.155 -0.7509  0.5770 -0.9464
  517MOL0     O68147   2.462   4.991   4.046 -0.0125 -0.5361 -0.4944
  517MOL0     C68148   2.502   4.858   4.072  0.2359  0.1922  0.0362
  517MOL0     C68149   2.394   4.743   4.028 -0.2750  0.2636  0.0453
  517MOL0     C68150   2.308   4.787   3.910  0.1190 -0.4917 -0.4812
  517MOL0     C68151   2.205   4.678   3.894 -0.7656  0.4809 -1.0470
  517MOL0     C68152   2.098   4.708   3.787  0.0163 -0.1690  0.3021
  517MOL0     C68153   2.018   4.833   3.837 -0.3471  0.0077 -1.0326
  517MOL0     C68154   1.921   4.869   3.719  0.8788  0.7754 -0.6002
  517MOL0     C68155   1.806   4.970   3.767  1.0930 -0.0209  0.0419
  517MOL0    Cl68156   1.874   5.133   3.813  0.2590  0.1955  0.0368
  517MOL0     C68157   2.286   5.113   4.159  0.9436  0.0204 -0.8336
  517MOL0     C68158   2.250   5.193   4.270  0.0726  0.3394  0.0115
  517MOL0     O68159   2.482   5.433   4.503  0.1415  0.6288  0.9812
  517MOL0     C68160   2.194   5.408   4.733  0.2701  0.8871 -0.1489
  517MOL0     C68161   2.147   5.478   4.846  1.0519  0.1219 -0.1750
  517MOL0     N68162   1.760   6.056   5.085 -0.4889 -0.3365  0.6452
  517MOL0     N68163   1.651   6.090   5.138 -0.0447  0.0463 -0.0207
  517MOL0     C68164   0.744   6.473   4.667 -0.6573  0.2967 -0.4802
  517MOL0     C68165   0.615   6.473   4.622  1.2456 -0.1637  0.3460
  517MOL0     C68166   0.227   6.335   4.467  0.3815  0.1457 -0.0711
  517MOL0     C68167   0.189   6.444   4.379 -0.2377 -0.1871 -0.1667
  517MOL0     C68168   0.069   6.460   4.323  0.0574  0.2524  0.5332
  517MOL0     C68169  -0.033   6.366   4.366  0.9809 -0.4089  0.8217
  517MOL0     O68170  -0.165   6.385   4.325  0.1532  0.2237 -0.3034
  517MOL0     C68171  -0.190   6.463   4.204 -0.3553 -0.0904 -0.6937
  517MOL0     C68172  -0.340   6.471   4.181  0.0532 -0.5430  0.5126
  517MOL0     C68173  -0.373   6.605   4.102  0.0387  0.6722  0.4584
  517MOL0     C68174  -0.523   6.624   4.082  0.4420  0.5353 -0.2452
  517MOL0     C68175  -0.534   6.716   3.961  0.5644  0.6137 -0.7135
  517MOL0     C68176  -0.531   6.780   3.863 -0.5055 -0.1130  0.0053
  517MOL0     C68177  -0.003   6.263   4.459  0.3311 -0.9422 -0.4755
  517MOL0     C68178   0.127   6.234   4.498 -0.6430 -0.3885 -0.2979
  517MOL0     H68179   0.641   6.227   4.384 -0.2495 -0.6308  1.1399
  517MOL0     H68180   0.871   6.212   4.478  2.0285  2.0971  1.4750
  517MOL0     H68181   0.971   6.430   4.862  0.4240 -0.9764  1.3093
  517MOL0     H68182   1.056   6.546   4.738  0.9566 -0.6978  1.9484
  517MOL0     H68183   1.208   6.464   4.881 -3.7636  1.0493  0.9465
  517MOL0     H68184   1.220   6.378   4.719 -1.9298 -0.5288 -1.0944
  517MOL0     H68185   1.267   6.215   4.865 -1.7421 -0.2531 -1.1569
  517MOL0     H68186   1.109   6.184   4.815 -1.8146  2.0156  0.4285
  517MOL0     H68187   1.157   6.339   5.076 -0.1837 -0.6830 -0.2987
  517MOL0     H68188   1.020   6.258   5.025 -0.5803 -0.2659  3.1012
  517MOL0     H68189   1.161   6.036   5.012 -2.6550  0.2415 -0.4866
  517MOL0     H68190   1.108   6.101   5.174 -2.6863  1.9612 -0.9990
  517MOL0     H68191   1.344   6.209   5.187  1.3312 -0.7760  0.7567
  517MOL0     H68192   1.384   6.122   5.043 -0.5208  0.2579  0.0570
  517MOL0     H68193   1.267   5.959   5.276  2.0761 -3.4238 -0.5437
  517MOL0     H68194   1.374   5.908   5.149  2.2429  0.9805 -1.8544
  517MOL0     H68195   1.488   5.914   5.350 -0.5338 -0.4578  0.0717
  517MOL0     H68196   1.488   6.099   5.342 -2.3355  0.1364  0.4077
  517MOL0     H68197   1.644   5.787   5.227 -1.3311  2.6842  4.7657
  517MOL0     H68198   1.930   5.862   4.970  2.5640  0.3789  0.5877
  517MOL0     H68199   1.885   5.740   5.093 -2.2426 -0.1252 -1.6248
  517MOL0     H68200   1.969   5.917   5.264  0.7343  1.6210  1.1073
  517MOL0     H68201   2.065   5.987   5.125 -0.1148  0.3074 -0.7638
  517MOL0     H68202   2.189   5.833   5.252 -3.5963  2.6274  1.3850
  517MOL0     H68203   2.070   5.706   5.223  0.7593 -1.8237 -1.2858
  517MOL0     H68204   2.304   5.766   5.087 -0.1189 -0.5921  0.8068
  517MOL0     H68205   2.178   5.822   4.965  1.1944  1.3199  0.2284
  517MOL0     H68206   2.412   5.659   4.936  0.0736  1.9757 -0.9937
  517MOL0     H68207   2.495   5.582   4.717  1.3758 -0.6019  0.3695
  517MOL0     H68208   2.538   5.187   4.446 -2.5857 -1.2508  1.4525
  517MOL0     H68209   2.608   5.075   4.251 -0.5729 -0.3357 -1.0925
  517MOL0     H68210   2.546   4.832   4.169 -1.2280 -1.8761  0.1955
  517MOL0     H68211   2.589   4.840   4.007  1.3486  0.2901  1.4431
  517MOL0     H68212   2.326   4.732   4.113 -0.3269 -1.5757 -0.2066
  517MOL0     H68213   2.443   4.647   4.010 -2.2611 -0.9417  0.8043
  517MOL0     H68214   2.383   4.801   3.832  0.1445  0.8084 -0.2349
  517MOL0     H68215   2.265   4.886   3.926  1.0593 -0.3566  1.5355
  517MOL0     H68216   2.264   4.589   3.870 -1.9919 -1.0284  1.0837
  517MOL0     H68217   2.157   4.653   3.990 -1.9255 -1.2007 -1.9915
  517MOL0     H68218   2.036   4.621   3.765  0.6254 -0.5189 -0.0789
  517MOL0     H68219   2.142   4.731   3.689  0.4359  1.8196  0.9199
  517MOL0     H68220   2.080   4.920   3.862  2.1679 -1.4520 -1.8081
  517MOL0     H68221   1.960   4.789   3.918 -0.5395 -1.1420 -1.7707
  517MOL0     H68222   1.968   4.909   3.629 -0.4224  0.7694 -1.2970
  517MOL0     H68223   1.863   4.778   3.702  1.8394 -0.4602  2.1477
  517MOL0     H68224   1.745   4.936   3.851 -4.8955  1.9082 -2.9301
  517MOL0     H68225   1.736   4.987   3.685  2.7775 -0.2685 -1.5152
  517MOL0     H68226   2.206   5.078   4.096  0.2953  0.4164 -0.2425
  517MOL0     H68227   2.148   5.227   4.278 -0.2004 -0.4481  0.0201
  517MOL0     H68228   2.128   5.344   4.676 -0.5066  2.5277 -1.1812
  517MOL0     H68229   2.044   5.461   4.876  1.6394 -1.7919  0.9626
  517MOL0     H68230   0.785   6.534   4.747 -0.4616 -1.9767  1.2406
  517MOL0     H68231   0.542   6.536   4.673  0.1547  0.0945 -1.4456
  517MOL0     H68232   0.275   6.503   4.350 -0.3694  0.8111  1.3846
  517MOL0     H68233   0.055   6.537   4.248 -1.1879  0.4006  0.9015
  517MOL0     H68234  -0.136   6.425   4.117  1.2490  0.0653  0.2042
  517MOL0     H68235  -0.162   6.565   4.228  3.0520 -0.3198 -2.9886
  517MOL0     H68236  -0.384   6.395   4.115 -1.9374  0.6402  0.3987
  517MOL0     H68237  -0.393   6.464   4.277  0.1234 -1.9398  0.4697
  517MOL0     H68238  -0.321   6.617   4.006  1.8595 -1.2400  1.1150
  517MOL0     H68239  -0.345   6.694   4.159 -3.0674  0.7576  2.0453
  517MOL0     H68240  -0.565   6.525   4.058  1.5657  0.7102 -3.5028
  517MOL0     H68241  -0.569   6.664   4.172  0.8911 -3.3920  1.9329
  517MOL0     H68242  -0.517   6.839   3.775 -0.9104 -0.6373 -0.4210
  517MOL0     H68243  -0.089   6.204   4.490 -1.4320 -0.2111 -3.5153
  517MOL0     H68244   0.160   6.150   4.558 -0.9670  0.3022  0.8729
  518MOL0     O68245   5.256   6.886   3.999 -0.7511 -1.1785 -0.3166
  518MOL0     C68246   5.161   6.843   3.938  1.2951  0.2180 -0.1632
  518MOL0     O68247   5.113   6.719   3.953 -0.4082 -0.1999  0.0253
  518MOL0     C68248   5.182   6.613   4.013  0.2021 -0.2358 -0.0062
  518MOL0     C68249   5.315   6.612   4.048  0.1506 -0.2311 -0.1433
  518MOL0     C68250   5.378   6.499   4.100 -0.1862  0.7714 -0.2034
  518MOL0     C68251   5.309   6.390   4.135  0.1614 -0.6086 -0.2363
  518MOL0     O68252   5.358   6.282   4.208 -0.1120  0.6958  0.1263
  518MOL0     C68253   5.299   6.251   4.333 -0.2369 -0.1530  0.3404
  518MOL0     C68254   5.359   6.116   4.367 -0.7005 -0.8327 -0.0711
  518MOL0     C68255   5.499   6.123   4.428  0.0019 -0.6018 -0.8427
  518MOL0     C68256   5.548   5.977   4.442  0.3122 -0.1469  0.1706
  518MOL0     C68257   5.698   5.965   4.490  0.9538 -1.0337 -0.7782
  518MOL0     C68258   5.806   6.056   4.420 -0.8841 -0.0328  0.3110
  518MOL0     C68259   5.804   6.029   4.268  0.1779 -0.5903 -0.0754
  518MOL0     C68260   5.853   5.896   4.223  0.5217  0.3577 -0.0758
  518MOL0     N68261   5.995   5.868   4.244  0.4136 -0.0701  0.5737
  518MOL0     C68262   6.076   5.870   4.140 -0.6231  0.8343  0.1155
  518MOL0     C68263   6.195   5.818   4.192 -0.3976  0.6140 -0.0619
  518MOL0     C68264   6.315   5.788   4.115  0.3299  0.3177  0.7690
  518MOL0     C68265   6.449   5.776   4.183 -0.8238  0.0933  0.5926
  518MOL0     C68266   6.559   5.698   4.103 -0.5222  0.7327 -0.1820
  518MOL0     C68267   6.632   5.796   4.005 -0.3397 -0.1901 -0.1205
  518MOL0     O68268   6.760   5.755   3.966  0.5021 -0.8352 -0.4253
  518MOL0     C68269   6.778   5.668   3.866 -0.2379 -0.3720  0.2342
  518MOL0     C68270   6.673   5.631   3.777  0.3363 -0.1766 -0.6446
  518MOL0     C68271   6.699   5.551   3.670  0.6389  0.7597  1.1170
  518MOL0     C68272   6.823   5.504   3.639  0.1968  0.3727 -0.0345
  518MOL0     C68273   6.845   5.442   3.509 -0.6150 -0.7777  0.4846
  518MOL0     O68274   6.738   5.443   3.424  0.2600  0.3156 -0.0918
  518MOL0     C68275   6.724   5.379   3.304  0.2519  0.4332  0.5938
  518MOL0     C68276   6.639   5.439   3.204 -0.9940  0.7770  0.3583
  518MOL0     C68277   6.637   5.399   3.068  0.1782 -0.4614 -0.4601
  518MOL0     C68278   6.700   5.286   3.038 -0.9852  0.2801  0.1290
  518MOL0     O68279   6.694   5.262   2.900 -0.8837  0.1353  0.6169
  518MOL0     C68280   6.659   5.128   2.867  0.0203  0.4997 -0.0170
  518MOL0     C68281   6.654   5.114   2.709  0.6824  0.2843 -0.3117
  518MOL0     C68282   6.607   4.972   2.677  0.1566 -0.1248 -0.2807
  518MOL0     C68283   6.612   4.935   2.537 -1.0554  0.0490  1.7362
  518MOL0     C68284   6.595   4.785   2.526  0.3972 -0.4301 -0.1632
  518MOL0     C68285   6.585   4.753   2.374 -0.3453 -0.0565 -1.0667
  518MOL0     C68286   6.554   4.606   2.346  0.9710  0.4568  0.1235
  518MOL0     C68287   6.487   4.583   2.202  0.6989 -0.6889  0.2250
  518MOL0    Cl68288   6.314   4.629   2.216  0.2546 -0.0274 -0.2975
  518MOL0     C68289   6.789   5.217   3.129 -0.0347 -0.7209 -0.5383
  518MOL0     C68290   6.796   5.266   3.258 -0.4675  0.3792  0.3399
  518MOL0     O68291   6.952   5.394   3.481 -0.4021  0.1682  0.0964
  518MOL0     C68292   6.923   5.521   3.733  1.1194  0.0068  0.4621
  518MOL0     C68293   6.901   5.596   3.850 -0.1412 -0.4807 -0.0423
  518MOL0     N68294   6.176   5.780   4.319  0.2660 -0.5394 -0.7098
  518MOL0     N68295   6.057   5.804   4.351 -0.1246  0.4396  0.5455
  518MOL0     C68296   5.166   6.397   4.100 -0.8360  0.3773  0.6515
  518MOL0     C68297   5.111   6.498   4.032 -0.8337 -0.7695 -0.3803
  518MOL0     C68298   5.101   6.923   3.834  1.1371 -0.0151  0.4171
  518MOL0     C68299   5.003   6.867   3.742  0.3247 -0.0101 -0.6518
  518MOL0     C68300   4.957   6.930   3.630  0.2839  0.6454 -0.2931
  518MOL0     C68301   5.018   7.051   3.596 -1.0647 -0.0132 -0.3697
  518MOL0     O68302   4.986   7.127   3.488 -0.3182  0.4947  0.4144
  518MOL0     C68303   4.919   7.072   3.379 -1.0641 -0.8899  0.3049
  518MOL0     C68304   4.913   7.161   3.252  0.2213 -0.2662 -0.2507
  518MOL0     C68305   5.036   7.180   3.171 -0.5946 -0.8100 -0.0931
  518MOL0     C68306   5.110   7.051   3.147  0.4805  0.2463 -0.1241
  518MOL0     C68307   5.014   6.953   3.082 -0.2654  0.1064 -0.3308
  518MOL0     C68308   4.940   6.901   3.008 -0.1362 -0.2607  0.1687
  518MOL0     C68309   5.104   7.111   3.686 -0.5351 -0.1674  0.9745
  518MOL0     C68310   5.146   7.051   3.803  0.3369  0.4447 -0.5674
  518MOL0     H68311   5.383   6.696   4.033 -0.2887 -0.1259 -1.7559
  518MOL0     H68312   5.479   6.490   4.139 -0.2612  3.0659  0.7068
  518MOL0     H68313   5.191   6.234   4.328 -0.1534 -0.9379  0.9510
  518MOL0     H68314   5.316   6.332   4.405 -0.5724  1.0038 -0.8470
  518MOL0     H68315   5.345   6.046   4.283 -2.3255 -1.2617  0.4992
  518MOL0     H68316   5.295   6.063   4.439 -1.4904 -2.1060 -1.6367
  518MOL0     H68317   5.490   6.170   4.527  1.2095 -1.3517 -0.3576
  518MOL0     H68318   5.569   6.178   4.365  2.5886 -1.5727  1.0268
  518MOL0     H68319   5.475   5.931   4.509 -2.5970  3.3315 -0.2665
  518MOL0     H68320   5.537   5.934   4.343 -1.6368  3.5180 -1.4233
  518MOL0     H68321   5.723   5.859   4.494  0.0535 -1.2413 -0.5276
  518MOL0     H68322   5.708   5.995   4.594  0.1530  0.2119 -1.0383
  518MOL0     H68323   5.902   6.046   4.471 -1.3078  0.1369  1.1520
  518MOL0     H68324   5.790   6.162   4.439  4.5365  1.2969 -0.8714
  518MOL0     H68325   5.705   6.053   4.230  0.6423  2.4988  0.4283
  518MOL0     H68326   5.869   6.105   4.224  2.3099 -3.2499 -1.9288
  518MOL0     H68327   5.845   5.904   4.114  0.9117  1.4476 -0.0399
  518MOL0     H68328   5.791   5.815   4.263  3.0552 -2.2079 -1.0234
  518MOL0     H68329   6.047   5.879   4.036 -2.9977  1.1204  0.7386
  518MOL0     H68330   6.328   5.875   4.050  4.8406  0.1594  1.0777
  518MOL0     H68331   6.292   5.707   4.045  0.3192  1.3070 -0.4167
  518MOL0     H68332   6.426   5.721   4.274 -0.7551  0.2315  0.6942
  518MOL0     H68333   6.503   5.861   4.225  3.1476 -2.0653  0.3569
  518MOL0     H68334   6.637   5.660   4.170 -0.0151  1.4779 -0.3341
  518MOL0     H68335   6.511   5.618   4.047 -1.4045 -0.0894  1.6507
  518MOL0     H68336   6.652   5.887   4.062  0.8561  1.7307 -3.3279
  518MOL0     H68337   6.564   5.831   3.927  0.1349  2.1638  0.4466
  518MOL0     H68338   6.578   5.682   3.782 -0.1662 -1.2029  3.0033
  518MOL0     H68339   6.618   5.538   3.599  0.6686  4.6830  0.1003
  518MOL0     H68340   6.580   5.524   3.239 -0.8631 -0.3776  3.6869
  518MOL0     H68341   6.566   5.444   2.999 -0.3465 -2.2313 -1.1418
  518MOL0     H68342   6.570   5.095   2.922  0.1221 -3.7118 -2.0369
  518MOL0     H68343   6.733   5.057   2.904 -1.2387  0.6360  3.0731
  518MOL0     H68344   6.750   5.129   2.658 -0.0304 -0.1702 -1.8494
  518MOL0     H68345   6.575   5.182   2.677 -0.8856 -1.0728  0.5161
  518MOL0     H68346   6.509   4.953   2.723  1.3509 -1.7423  1.8170
  518MOL0     H68347   6.671   4.908   2.739 -0.2734  0.2583  0.5900
  518MOL0     H68348   6.535   4.991   2.484  1.5903  0.6304 -1.8528
  518MOL0     H68349   6.707   4.957   2.488 -2.1390 -2.9418 -2.2245
  518MOL0     H68350   6.499   4.768   2.577  0.1557  1.3309  0.0575
  518MOL0     H68351   6.664   4.719   2.579 -2.5539 -2.0682  2.0119
  518MOL0     H68352   6.670   4.798   2.323  1.7048 -1.3002  1.0565
  518MOL0     H68353   6.495   4.805   2.338 -1.6118 -0.2912  1.5365
  518MOL0     H68354   6.649   4.552   2.341  0.3088 -0.6585 -0.9810
  518MOL0     H68355   6.496   4.562   2.427 -1.1061 -1.4466 -2.2346
  518MOL0     H68356   6.487   4.474   2.186  0.0995 -0.6415 -0.1279
  518MOL0     H68357   6.535   4.631   2.118 -2.0554 -1.3442 -1.8900
  518MOL0     H68358   6.847   5.132   3.096 -0.1263 -0.9978 -0.0041
  518MOL0     H68359   6.870   5.226   3.328  0.5527  2.9186  0.8000
  518MOL0     H68360   7.018   5.470   3.727  1.9023  1.3839  0.5705
  518MOL0     H68361   6.967   5.598   3.936  0.4079 -0.8521 -0.4515
  518MOL0     H68362   5.112   6.308   4.128 -0.8115  0.1614  0.0213
  518MOL0     H68363   5.006   6.488   4.005 -0.7143 -0.8351 -0.8180
  518MOL0     H68364   4.951   6.773   3.762 -4.1007  2.8380  3.2367
  518MOL0     H68365   4.897   6.867   3.565  1.8556 -0.2788 -0.8994
  518MOL0     H68366   4.813   7.059   3.405 -1.6178 -1.0457 -1.8286
  518MOL0     H68367   4.952   6.970   3.357  1.6462 -0.3705  1.5267
  518MOL0     H68368   4.832   7.123   3.188 -1.5701  0.0620  1.6904
  518MOL0     H68369   4.878   7.258   3.287  1.1690 -1.0609  3.3860
  518MOL0     H68370   5.096   7.257   3.220 -0.6225 -1.3657  0.8534
  518MOL0     H68371   5.001   7.232   3.082 -1.8805 -0.6125  0.5023
  518MOL0     H68372   5.200   7.075   3.089  0.4572 -0.6145 -0.5301
  518MOL0     H68373   5.144   7.005   3.241  0.2077 -2.4039 -1.2605
  518MOL0     H68374   4.881   6.848   2.936  2.7165 -1.6431 -1.3120
  518MOL0     H68375   5.144   7.209   3.663  1.9996 -1.2709  0.3505
  518MOL0     H68376   5.199   7.118   3.870 -2.5660  2.4482 -0.0575
  519MOL0     O68377   3.936  10.449   0.685  0.9249 -0.4432  0.5137
  519MOL0     C68378   4.001  10.454   0.789 -0.5945  0.2051 -0.0370
  519MOL0     O68379   3.977  10.534   0.897 -1.2164 -0.2062  0.5827
  519MOL0     C68380   3.870  10.614   0.899 -0.0310  0.3193  0.2113
  519MOL0     C68381   3.738  10.561   0.919 -0.4299  0.5307 -1.0873
  519MOL0     C68382   3.614  10.637   0.927  0.0138  0.0309 -0.1904
  519MOL0     C68383   3.623  10.773   0.901 -0.0895  0.8423  0.1289
  519MOL0     O68384   3.521  10.858   0.902 -0.3606 -0.6037 -0.5511
  519MOL0     C68385   3.381  10.814   0.926 -0.1765 -0.0959  0.6139
  519MOL0     C68386   3.281  10.926   0.949 -1.1853 -0.4484  0.1297
  519MOL0     C68387   3.148  10.884   1.005 -0.0338  0.0361 -0.7117
  519MOL0     C68388   3.072  10.811   0.890  0.1696  0.9420 -0.0822
  519MOL0     C68389   2.924  10.816   0.930  0.2151 -0.6968  0.7773
  519MOL0     C68390   2.830  10.757   0.825  0.2511  0.5678  0.4058
  519MOL0     C68391   2.694  10.733   0.898  0.2923 -0.7690 -0.1547
  519MOL0     C68392   2.701  10.634   1.016  0.2100 -0.3613  0.9262
  519MOL0     N68393   2.573  10.576   1.049 -0.6336 -0.4863 -0.5545
  519MOL0     C68394   2.450  10.644   1.065  0.6530 -0.2813 -0.7780
  519MOL0     C68395   2.355  10.546   1.065  0.2272 -0.3016  0.1380
  519MOL0     C68396   2.208  10.570   1.055  0.1000 -0.5317 -0.2685
  519MOL0     C68397   2.131  10.564   1.184 -0.6377 -0.2867  0.2594
  519MOL0     C68398   2.129  10.680   1.278  0.1242  0.9905 -0.0666
  519MOL0     C68399   1.996  10.673   1.369  0.7322 -0.9701 -0.5280
  519MOL0     O68400   2.022  10.600   1.492 -0.0204  0.1003  0.0368
  519MOL0     C68401   1.909  10.577   1.563  0.2592 -0.3499 -1.7985
  519MOL0     C68402   1.827  10.673   1.616  0.4992 -0.7844 -0.6062
  519MOL0     C68403   1.721  10.647   1.698  0.2969  0.6416  0.2527
  519MOL0     C68404   1.681  10.511   1.724 -0.1282  0.0476  0.3835
  519MOL0     C68405   1.563  10.475   1.792  1.7384  0.0107  0.4999
  519MOL0     O68406   1.514  10.579   1.861 -0.7156 -1.0772 -0.2518
  519MOL0     C68407   1.453  10.555   1.978 -0.1304  0.4875 -1.1810
  519MOL0     C68408   1.319  10.542   1.985 -0.1493  0.2060  0.4985
  519MOL0     C68409   1.259  10.508   2.102  0.6985 -0.4766 -0.4741
  519MOL0     C68410   1.329  10.504   2.225 -0.4286 -0.0323 -0.3234
  519MOL0     O68411   1.263  10.477   2.339  0.7728 -0.0183 -0.7068
  519MOL0     C68412   1.186  10.590   2.387 -1.0470  0.1612 -0.5180
  519MOL0     C68413   1.164  10.579   2.537 -0.5556  0.1924  0.7389
  519MOL0     C68414   1.292  10.530   2.615  0.0930  0.0143  0.0406
  519MOL0     C68415   1.251  10.509   2.760  0.9667  0.6142  0.1000
  519MOL0     C68416   1.369  10.477   2.854  0.1176 -0.4532 -0.1360
  519MOL0     C68417   1.449  10.343   2.822  0.8036 -0.1893  0.1978
  519MOL0     C68418   1.574  10.341   2.906 -0.4605  0.8441 -0.3488
  519MOL0     C68419   1.676  10.454   2.872  0.3467 -0.2787  1.7713
  519MOL0    Cl68420   1.835  10.415   2.935 -0.4686  0.3169  0.3518
  519MOL0     C68421   1.472  10.509   2.216 -0.5266 -0.4357  0.0513
  519MOL0     C68422   1.529  10.526   2.092 -0.2153 -0.2473  0.2021
  519MOL0     O68423   1.529  10.358   1.807  0.0399  0.2218  1.1356
  519MOL0     C68424   1.753  10.410   1.654  0.0073 -0.1996 -0.4564
  519MOL0     C68425   1.870  10.445   1.588  0.1732  0.2034 -0.0851
  519MOL0     N68426   2.424  10.428   1.048 -0.2295  0.4777  0.1424
  519MOL0     N68427   2.556  10.438   1.058  0.2332  0.0272 -0.8586
  519MOL0     C68428   3.749  10.826   0.865 -0.0877 -0.3047 -0.5613
  519MOL0     C68429   3.873  10.757   0.866  0.4381  0.7763  0.8649
  519MOL0     C68430   4.122  10.374   0.790 -0.3726 -0.3073 -0.3537
  519MOL0     C68431   4.181  10.331   0.676 -0.1339  0.0918  0.4554
  519MOL0     C68432   4.299  10.256   0.676 -0.0231  0.6680 -0.7053
  519MOL0     C68433   4.354  10.209   0.806 -0.2974 -0.0307  0.2149
  519MOL0     O68434   4.455  10.113   0.805  0.1871 -0.4905 -0.5253
  519MOL0     C68435   4.537  10.094   0.921 -0.4060 -0.0742  0.0488
  519MOL0     C68436   4.638   9.987   0.904  0.8389  0.1662  0.8424
  519MOL0     C68437   4.776  10.015   0.974  0.8348  0.7820 -0.4624
  519MOL0     C68438   4.877   9.910   0.940  0.0881 -0.5085 -0.1887
  519MOL0     C68439   5.020   9.958   0.974  0.8203  0.2821  0.5323
  519MOL0     C68440   5.130   9.991   1.002  0.6394 -0.5032  1.5025
  519MOL0     C68441   4.295  10.260   0.928  0.9099  0.4943 -0.1017
  519MOL0     C68442   4.183  10.345   0.914  0.4935  0.5002  0.3839
  519MOL0     H68443   3.758  10.458   0.945  2.6654  1.3824  0.3291
  519MOL0     H68444   3.520  10.592   0.957 -0.2963 -2.1672 -3.8226
  519MOL0     H68445   3.377  10.765   1.023  0.7611  2.0071  1.7741
  519MOL0     H68446   3.342  10.742   0.853  0.3742  0.5984 -0.3903
  519MOL0     H68447   3.270  10.973   0.851  0.9806 -0.6003 -0.2420
  519MOL0     H68448   3.330  11.002   1.009 -3.0262 -0.6715  2.0083
  519MOL0     H68449   3.100  10.973   1.045 -1.6204 -0.4395 -1.4963
  519MOL0     H68450   3.164  10.809   1.083  4.1229  0.4751 -0.8877
  519MOL0     H68451   3.095  10.861   0.795  0.0771  5.2064  1.8996
  519MOL0     H68452   3.094  10.704   0.882 -2.1725  0.2289  1.9713
  519MOL0     H68453   2.887  10.916   0.956  0.2003 -0.6066  0.4085
  519MOL0     H68454   2.921  10.765   1.027 -0.2051 -0.5219  0.8597
  519MOL0     H68455   2.876  10.663   0.793  0.3195  1.2250 -1.5299
  519MOL0     H68456   2.821  10.825   0.740 -0.6084  0.6948  0.5839
  519MOL0     H68457   2.671  10.832   0.939 -3.7998 -1.0353 -1.3859
  519MOL0     H68458   2.624  10.694   0.824 -2.1699  2.6243  0.1879
  519MOL0     H68459   2.741  10.682   1.105 -0.7450  0.3164  1.0038
  519MOL0     H68460   2.759  10.549   0.981 -4.9905 -4.7733  1.6410
  519MOL0     H68461   2.442  10.752   1.061  4.7665  0.1743 -1.7882
  519MOL0     H68462   2.162  10.492   0.994 -3.1637  0.2728  0.9267
  519MOL0     H68463   2.195  10.667   1.005  1.4781 -1.2295 -2.0739
  519MOL0     H68464   2.163  10.476   1.240 -0.5078  0.0689  0.7544
  519MOL0     H68465   2.032  10.544   1.142 -1.1628  1.1856  0.7192
  519MOL0     H68466   2.220  10.694   1.336  1.3015 -0.5898 -1.4531
  519MOL0     H68467   2.125  10.771   1.218 -1.3679  1.0821  0.1148
  519MOL0     H68468   1.917  10.637   1.303  0.7626 -0.1537 -1.0232
  519MOL0     H68469   1.968  10.775   1.397 -1.4991 -1.0284 -2.2639
  519MOL0     H68470   1.856  10.775   1.593 -3.0907  0.9227  1.5608
  519MOL0     H68471   1.656  10.727   1.732  1.7521  2.5520 -1.2900
  519MOL0     H68472   1.258  10.569   1.900  0.0977  0.6816  0.4708
  519MOL0     H68473   1.150  10.504   2.102  0.6663  0.2389 -0.6107
  519MOL0     H68474   1.084  10.595   2.348 -2.3265 -1.1823  2.3196
  519MOL0     H68475   1.247  10.679   2.368  1.6830 -1.4488  0.0536
  519MOL0     H68476   1.092  10.498   2.556  2.7065 -3.2456 -0.3561
  519MOL0     H68477   1.138  10.675   2.583  4.5239  3.6407 -2.6648
  519MOL0     H68478   1.375  10.602   2.607 -0.1298  0.2721  0.0317
  519MOL0     H68479   1.334  10.435   2.581  0.0639  0.4433 -1.2365
  519MOL0     H68480   1.203  10.597   2.803  2.1322  1.2284  0.1787
  519MOL0     H68481   1.183  10.423   2.768  1.2279  0.4718  0.8953
  519MOL0     H68482   1.340  10.472   2.959  1.1427  0.8966  0.2416
  519MOL0     H68483   1.433  10.563   2.827 -3.4709  2.7673  0.7431
  519MOL0     H68484   1.483  10.364   2.720 -0.7610 -2.3423 -0.8413
  519MOL0     H68485   1.380  10.258   2.826  1.6601 -0.9863 -1.1556
  519MOL0     H68486   1.556  10.333   3.014 -0.9488 -1.4238 -0.5513
  519MOL0     H68487   1.633  10.259   2.866 -1.4071  0.0289 -0.1245
  519MOL0     H68488   1.637  10.548   2.911 -0.0841  0.0739  0.5221
  519MOL0     H68489   1.688  10.463   2.764  3.2706 -0.7798  1.9767
  519MOL0     H68490   1.523  10.496   2.311 -0.3089 -1.1529 -0.1607
  519MOL0     H68491   1.637  10.520   2.084 -0.3542 -2.4173 -0.8275
  519MOL0     H68492   1.729  10.306   1.671  0.1944  0.1174  2.1391
  519MOL0     H68493   1.922  10.365   1.536 -0.9584  0.7471 -2.1553
  519MOL0     H68494   3.767  10.930   0.844 -0.1533  0.4623  2.6324
  519MOL0     H68495   3.959  10.815   0.833 -1.1122  2.4594 -0.4121
  519MOL0     H68496   4.133  10.367   0.585  3.5937 -0.7891 -2.1157
  519MOL0     H68497   4.340  10.210   0.586 -2.0792  0.6437 -1.6800
  519MOL0     H68498   4.469  10.060   1.000 -0.4277  1.6315  0.8051
  519MOL0     H68499   4.584  10.187   0.955  0.5442 -0.1644 -0.9715
  519MOL0     H68500   4.579   9.897   0.921  0.0930  0.5454  0.3598
  519MOL0     H68501   4.658   9.980   0.796  1.8346  0.1927  1.0144
  519MOL0     H68502   4.764  10.010   1.083  4.0390  2.4322  0.0950
  519MOL0     H68503   4.815  10.114   0.947 -4.4721  3.1247 -0.6703
  519MOL0     H68504   4.863   9.824   1.007  1.9319 -0.0778  0.8187
  519MOL0     H68505   4.889   9.875   0.837  3.1279 -1.2165  0.3137
  519MOL0     H68506   5.224  10.035   1.029  0.5006  0.3344  0.6964
  519MOL0     H68507   4.337  10.245   1.026  0.7459 -0.7754 -0.2104
  519MOL0     H68508   4.141  10.386   1.005 -2.0912 -0.9125 -0.0784
  520MOL0     O68509   1.878   5.838   3.093 -0.7671  0.2198 -1.4876
  520MOL0     C68510   1.843   5.834   3.215 -0.4449  0.1951  0.6557
  520MOL0     O68511   1.774   5.740   3.284  0.5652  0.0556 -0.4651
  520MOL0     C68512   1.728   5.626   3.217  0.7036 -0.1353 -0.1013
  520MOL0     C68513   1.759   5.569   3.087 -0.1199  0.4442  0.1253
  520MOL0     C68514   1.689   5.456   3.046  0.4096 -0.3120 -0.1005
  520MOL0     C68515   1.580   5.399   3.110 -0.9478 -0.6798  0.6190
  520MOL0     O68516   1.506   5.294   3.070 -0.1399  1.0816  0.2536
  520MOL0     C68517   1.533   5.223   2.945 -0.5154  0.7158 -0.5868
  520MOL0     C68518   1.408   5.168   2.872  0.7060 -0.3578 -0.8281
  520MOL0     C68519   1.443   5.112   2.736 -0.8739 -0.3999 -0.0454
  520MOL0     C68520   1.324   5.061   2.660 -0.6570  0.6302  0.9578
  520MOL0     C68521   1.378   4.976   2.539 -0.0298  0.3637 -0.3353
  520MOL0     C68522   1.272   4.861   2.508 -0.1945 -0.7649  0.6448
  520MOL0     C68523   1.343   4.783   2.398  0.7585  0.6111  0.5498
  520MOL0     C68524   1.339   4.851   2.263  0.3511 -0.9189 -1.3772
  520MOL0     N68525   1.386   4.745   2.171  0.1812  0.4855 -0.6251
  520MOL0     C68526   1.512   4.722   2.138  0.4856 -0.4699  0.0217
  520MOL0     C68527   1.502   4.629   2.046  0.5954  1.6665 -0.1073
  520MOL0     C68528   1.621   4.543   1.998  0.1406 -0.4667  0.0521
  520MOL0     C68529   1.663   4.422   2.081  0.1873  1.1202  0.0275
  520MOL0     C68530   1.743   4.464   2.205  0.5130  0.1914  0.5542
  520MOL0     C68531   1.889   4.461   2.176 -0.4773  0.4532  0.6243
  520MOL0     O68532   1.928   4.348   2.100 -0.0082 -0.0459  0.6318
  520MOL0     C68533   2.055   4.337   2.043 -0.2557  0.2398  0.9206
  520MOL0     C68534   2.164   4.419   2.073  0.6155 -0.4142  0.7639
  520MOL0     C68535   2.294   4.379   2.044 -0.7745  0.9453 -1.5720
  520MOL0     C68536   2.314   4.248   1.987  0.2114 -0.3677  0.5811
  520MOL0     C68537   2.449   4.196   1.966 -0.4783  1.0212  1.9997
  520MOL0     O68538   2.543   4.301   1.940 -0.0573  0.2906 -0.1120
  520MOL0     C68539   2.680   4.266   1.925 -0.0041  0.6069 -0.8160
  520MOL0     C68540   2.756   4.185   2.013  0.8511 -0.1045 -0.2046
  520MOL0     C68541   2.892   4.165   1.989  0.7082  0.0480 -0.2030
  520MOL0     C68542   2.952   4.234   1.883  0.3859 -0.6260  0.0578
  520MOL0     O68543   3.086   4.222   1.859 -0.2666  0.6255  0.2200
  520MOL0     C68544   3.169   4.179   1.964 -0.1696 -0.0233  0.4880
  520MOL0     C68545   3.217   4.035   1.934  0.2606 -0.4301  0.5264
  520MOL0     C68546   3.307   3.994   2.054 -1.1457 -0.6416  0.2344
  520MOL0     C68547   3.360   3.852   2.032  0.0405 -0.5561 -0.1332
  520MOL0     C68548   3.438   3.813   2.154  0.0989  0.3483  0.2153
  520MOL0     C68549   3.481   3.662   2.149 -0.2208 -0.4616 -0.6152
  520MOL0     C68550   3.596   3.648   2.034  0.2802  0.5954  0.2274
  520MOL0     C68551   3.717   3.750   2.025 -0.6519  1.0206  0.1888
  520MOL0    Cl68552   3.805   3.767   2.182  0.4934 -0.2824  0.0676
  520MOL0     C68553   2.873   4.306   1.797  0.2635  0.6312  0.0830
  520MOL0     C68554   2.739   4.322   1.817  0.6219  0.3242 -0.0587
  520MOL0     O68555   2.471   4.076   1.952  0.2129 -0.7073  0.6879
  520MOL0     C68556   2.206   4.166   1.957  0.0136  0.6082 -0.8305
  520MOL0     C68557   2.078   4.212   1.992 -0.7552  0.2734  0.0000
  520MOL0     N68558   1.372   4.577   2.038 -0.3834 -0.7980 -0.2624
  520MOL0     N68559   1.303   4.653   2.119  0.4266  0.0058 -0.4234
  520MOL0     C68560   1.539   5.462   3.225  0.8104 -0.2794 -0.7290
  520MOL0     C68561   1.613   5.575   3.275 -0.4450 -0.5116  0.0371
  520MOL0     C68562   1.881   5.957   3.275  0.9293  0.0070  0.5933
  520MOL0     C68563   1.869   6.077   3.193  0.1392  0.6016  0.0450
  520MOL0     C68564   1.907   6.201   3.247 -0.0263  0.3386  0.2021
  520MOL0     C68565   1.942   6.208   3.380  0.2178 -0.2339 -0.9740
  520MOL0     O68566   1.992   6.320   3.443  0.0021 -0.1397  0.8319
  520MOL0     C68567   2.024   6.441   3.367 -0.0740  0.8039  0.1412
  520MOL0     C68568   2.087   6.549   3.458  0.2091 -0.0814 -0.2897
  520MOL0     C68569   2.120   6.674   3.371  0.0295 -0.4647  0.1774
  520MOL0     C68570   2.001   6.740   3.293  0.2662  0.0844  0.6380
  520MOL0     C68571   2.058   6.851   3.213  0.4152 -0.7043  0.3671
  520MOL0     C68572   2.107   6.948   3.164  0.2473  1.0474  0.0714
  520MOL0     C68573   1.934   6.095   3.465 -0.1297 -0.6160 -0.2988
  520MOL0     C68574   1.908   5.968   3.410 -0.2321 -0.9691  0.9145
  520MOL0     H68575   1.835   5.592   3.013  2.7981 -1.2963  2.4144
  520MOL0     H68576   1.722   5.413   2.951 -1.3057  1.5507 -1.6174
  520MOL0     H68577   1.600   5.140   2.970 -0.6850  0.5365 -0.7250
  520MOL0     H68578   1.589   5.282   2.872  0.4386  2.4918  1.4703
  520MOL0     H68579   1.335   5.247   2.854  0.2327 -1.2111 -3.0012
  520MOL0     H68580   1.359   5.077   2.910 -0.5477  0.6611  0.0805
  520MOL0     H68581   1.515   5.031   2.750 -2.7888 -2.4109 -1.2994
  520MOL0     H68582   1.491   5.178   2.663  1.1625  0.9633  2.3313
  520MOL0     H68583   1.277   4.980   2.718 -1.4622 -1.1190 -1.9115
  520MOL0     H68584   1.245   5.134   2.642 -0.7382  0.8633  2.2036
  520MOL0     H68585   1.471   4.922   2.559 -0.8431 -1.0582 -0.2302
  520MOL0     H68586   1.404   5.045   2.458  0.5328 -0.0602 -0.5231
  520MOL0     H68587   1.177   4.900   2.473  0.9566  0.6988 -1.0381
  520MOL0     H68588   1.258   4.791   2.592 -0.8527  0.0548  1.2287
  520MOL0     H68589   1.443   4.754   2.432  0.7099 -1.9022 -1.1970
  520MOL0     H68590   1.298   4.685   2.378  2.2266  0.7975 -5.1920
  520MOL0     H68591   1.413   4.931   2.269  3.6072 -3.8204  1.3683
  520MOL0     H68592   1.238   4.893   2.254 -0.0810 -1.9908 -1.7161
  520MOL0     H68593   1.597   4.770   2.187  0.1782  0.8946 -0.7148
  520MOL0     H68594   1.708   4.594   1.956 -1.1684 -0.9505 -3.6362
  520MOL0     H68595   1.584   4.506   1.901 -0.2761 -1.5060  0.5930
  520MOL0     H68596   1.713   4.342   2.026 -3.5047 -2.9542  1.9836
  520MOL0     H68597   1.571   4.380   2.122  0.6312  1.0501  0.9628
  520MOL0     H68598   1.707   4.563   2.232 -0.3797  0.2850 -0.8868
  520MOL0     H68599   1.727   4.385   2.279 -0.0154  1.6450  2.0487
  520MOL0     H68600   1.942   4.449   2.271 -1.6036  1.2027  1.3782
  520MOL0     H68601   1.921   4.548   2.119 -1.5322 -0.7759 -2.0117
  520MOL0     H68602   2.148   4.519   2.113 -2.2877  0.7348 -2.7283
  520MOL0     H68603   2.366   4.451   2.081  1.2220 -0.7778 -1.9465
  520MOL0     H68604   2.699   4.143   2.095 -2.7117 -1.2342 -2.9977
  520MOL0     H68605   2.934   4.092   2.058 -0.6605  1.4932  2.3547
  520MOL0     H68606   3.114   4.201   2.057 -1.8936  0.7870 -0.6632
  520MOL0     H68607   3.245   4.258   1.960  0.5591 -0.7655 -0.3612
  520MOL0     H68608   3.262   4.023   1.835  1.7312  0.5926  1.0307
  520MOL0     H68609   3.138   3.963   1.958 -1.5036  1.7802  1.6599
  520MOL0     H68610   3.256   4.005   2.150  0.5860 -0.1790  1.1261
  520MOL0     H68611   3.395   4.059   2.053 -1.2629 -0.4561  0.9938
  520MOL0     H68612   3.275   3.786   2.015  1.6369 -3.4860  2.2164
  520MOL0     H68613   3.424   3.846   1.943  0.1017 -1.6374 -0.0279
  520MOL0     H68614   3.373   3.826   2.241 -1.2485 -3.7098  0.0157
  520MOL0     H68615   3.527   3.877   2.156  1.5168 -1.4241 -1.3930
  520MOL0     H68616   3.387   3.607   2.137 -0.2602 -0.8553  1.2357
  520MOL0     H68617   3.516   3.636   2.249  0.5562  0.1311 -0.7227
  520MOL0     H68618   3.649   3.553   2.046  1.1414  1.0673  0.2079
  520MOL0     H68619   3.552   3.657   1.934 -0.7902 -0.2319  0.6115
  520MOL0     H68620   3.682   3.847   1.989 -2.3858 -0.4892 -2.5966
  520MOL0     H68621   3.791   3.718   1.950 -0.7734  4.2758 -1.5328
  520MOL0     H68622   2.922   4.338   1.706 -0.6551 -1.7304 -1.3273
  520MOL0     H68623   2.687   4.384   1.744  2.8263  1.8565 -0.4099
  520MOL0     H68624   2.217   4.075   1.898 -0.9101 -1.0509  1.3981
  520MOL0     H68625   1.988   4.157   1.968 -3.5793  3.1717  2.8351
  520MOL0     H68626   1.458   5.418   3.283 -0.5747 -0.0124 -2.3934
  520MOL0     H68627   1.595   5.618   3.373 -1.3818 -2.1906  0.6385
  520MOL0     H68628   1.838   6.070   3.090  2.9350 -0.6864 -0.7890
  520MOL0     H68629   1.903   6.294   3.191 -0.4740 -0.1261 -0.5674
  520MOL0     H68630   1.936   6.477   3.312  1.6545  0.3964 -3.1736
  520MOL0     H68631   2.097   6.410   3.291  1.7034  0.9197  1.7367
  520MOL0     H68632   2.008   6.584   3.526 -0.3664 -0.1402 -0.9151
  520MOL0     H68633   2.178   6.520   3.511  1.6371  0.3857 -2.3767
  520MOL0     H68634   2.200   6.644   3.303 -0.3661 -0.4103 -0.3196
  520MOL0     H68635   2.163   6.745   3.442  0.8402 -1.5352  0.7870
  520MOL0     H68636   1.952   6.669   3.225 -1.0143  2.8060 -1.4716
  520MOL0     H68637   1.919   6.777   3.356 -2.2283 -1.8221 -1.2580
  520MOL0     H68638   2.153   7.037   3.125  3.5047  0.3370  1.9166
  520MOL0     H68639   1.956   6.108   3.571 -1.9769 -0.3216  0.0722
  520MOL0     H68640   1.919   5.879   3.472 -2.4037 -0.1536  2.6148
  521MOL0     O68641   3.678   7.833   1.365  0.4387 -0.4951  1.0481
  521MOL0     C68642   3.640   7.728   1.312  1.2294 -0.3791  0.1959
  521MOL0     O68643   3.720   7.618   1.270  0.2045 -0.5280 -0.2878
  521MOL0     C68644   3.857   7.614   1.307  0.2161  1.1336 -0.7681
  521MOL0     C68645   3.948   7.579   1.215 -0.3664  0.5319  0.1635
  521MOL0     C68646   4.083   7.557   1.247  0.0541 -0.2063  0.8429
  521MOL0     C68647   4.123   7.576   1.385  0.4633  0.1442  0.2017
  521MOL0     O68648   4.257   7.549   1.413 -0.0542  1.0710 -0.2211
  521MOL0     C68649   4.344   7.642   1.484 -0.2258  0.1961  0.9469
  521MOL0     C68650   4.465   7.562   1.531  0.8436  0.4681  1.5109
  521MOL0     C68651   4.425   7.446   1.626  0.1143  0.4261 -0.0796
  521MOL0     C68652   4.558   7.372   1.666  0.4813  0.5271 -0.7891
  521MOL0     C68653   4.640   7.441   1.774 -0.2293 -0.2737 -0.0538
  521MOL0     C68654   4.751   7.347   1.838 -0.3007  0.2366  0.3263
  521MOL0     C68655   4.865   7.347   1.732  0.4713 -0.0226 -0.0770
  521MOL0     C68656   5.006   7.302   1.793  0.2728  1.2718 -0.2807
  521MOL0     N68657   5.000   7.165   1.842  1.2162  0.0257 -0.2185
  521MOL0     C68658   5.041   7.117   1.969 -0.9280  0.3390 -0.1605
  521MOL0     C68659   5.019   6.986   1.974  0.5081 -0.2284  0.2290
  521MOL0     C68660   5.044   6.894   2.095 -0.7060  0.9217 -0.6378
  521MOL0     C68661   5.190   6.876   2.137 -0.3812  0.6126 -1.1687
  521MOL0     C68662   5.276   6.802   2.027  0.4116 -0.6303 -0.8685
  521MOL0     C68663   5.238   6.655   2.024  0.1024 -0.6918 -0.3265
  521MOL0     O68664   5.333   6.591   1.941  0.3274  0.6758  0.3013
  521MOL0     C68665   5.464   6.573   1.970 -0.0182  0.8755 -0.7319
  521MOL0     C68666   5.539   6.501   1.875  0.4378  0.6267 -0.5661
  521MOL0     C68667   5.673   6.470   1.886  0.5030  0.9707 -0.9075
  521MOL0     C68668   5.740   6.507   2.003  0.5806 -0.4788  0.1270
  521MOL0     C68669   5.890   6.497   2.009 -0.3431 -0.9413 -0.0944
  521MOL0     O68670   5.948   6.558   2.118  0.5207  0.2054 -0.1412
  521MOL0     C68671   6.084   6.585   2.116 -0.0104 -0.6746  0.1672
  521MOL0     C68672   6.147   6.537   2.226 -0.7365 -0.5934  0.4299
  521MOL0     C68673   6.284   6.557   2.244 -0.0119 -0.3119  0.9165
  521MOL0     C68674   6.359   6.596   2.138  1.0119 -0.5320 -0.2430
  521MOL0     O68675   6.486   6.567   2.141 -0.1829  0.3130  0.0336
  521MOL0     C68676   6.573   6.670   2.135 -0.1333  0.4140 -0.4969
  521MOL0     C68677   6.708   6.603   2.119 -0.6699 -0.6935  0.0619
  521MOL0     C68678   6.800   6.724   2.088 -0.5994 -0.4992  0.7207
  521MOL0     C68679   6.947   6.671   2.100  1.0655 -1.1538 -0.8319
  521MOL0     C68680   7.037   6.790   2.060 -0.3472  0.9622 -0.1473
  521MOL0     C68681   7.188   6.744   2.057  0.2992 -0.3304 -0.2447
  521MOL0     C68682   7.279   6.852   2.005 -0.1634  0.3897  0.5202
  521MOL0     C68683   7.269   6.988   2.075 -0.3513 -0.6509 -0.5945
  521MOL0    Cl68684   7.388   7.096   2.013 -0.4524 -0.0841  0.3984
  521MOL0     C68685   6.295   6.636   2.019  0.6366 -0.0552  0.2057
  521MOL0     C68686   6.151   6.635   2.003  0.1656 -0.1997  0.4142
  521MOL0     O68687   5.945   6.464   1.904 -0.5120 -1.0744 -0.0967
  521MOL0     C68688   5.667   6.579   2.102 -0.3966 -0.1800 -0.0743
  521MOL0     C68689   5.534   6.609   2.090  0.5053  1.0967 -0.0957
  521MOL0     N68690   4.969   6.952   1.852  0.4477  0.2571  0.2901
  521MOL0     N68691   4.957   7.060   1.777  0.2313  0.5027  0.0705
  521MOL0     C68692   4.024   7.608   1.481 -0.9190 -0.3110 -0.3813
  521MOL0     C68693   3.891   7.630   1.443 -0.9423  0.4019  0.1497
  521MOL0     C68694   3.490   7.696   1.304 -0.1145  0.3256 -1.1919
  521MOL0     C68695   3.436   7.573   1.274 -0.3096 -0.8081  0.6863
  521MOL0     C68696   3.298   7.547   1.283 -1.2834 -0.7231 -1.3250
  521MOL0     C68697   3.212   7.653   1.313  0.4725  0.3698 -0.0601
  521MOL0     O68698   3.084   7.619   1.309  0.6310  0.2497 -0.5224
  521MOL0     C68699   2.982   7.718   1.311  0.6234  0.8602 -0.0023
  521MOL0     C68700   2.886   7.698   1.421  0.7811  0.5143 -0.4372
  521MOL0     C68701   2.946   7.766   1.544  0.4047 -0.1424  0.2827
  521MOL0     C68702   2.864   7.744   1.674  0.6292 -0.4679  0.7418
  521MOL0     C68703   2.949   7.800   1.783  0.1787  0.2066  0.9470
  521MOL0     C68704   3.021   7.858   1.856  0.2069 -0.2514  0.2713
  521MOL0     C68705   3.266   7.774   1.347  0.3724  0.2646 -0.6852
  521MOL0     C68706   3.401   7.793   1.346  0.5041  0.4762 -0.1203
  521MOL0     H68707   3.907   7.571   1.115  0.5757  1.5499 -0.3157
  521MOL0     H68708   4.154   7.533   1.168  1.6580  1.5720  1.6451
  521MOL0     H68709   4.291   7.687   1.569 -0.4594  2.2779 -0.2410
  521MOL0     H68710   4.384   7.720   1.419  3.5083 -3.0116 -1.0486
  521MOL0     H68711   4.533   7.631   1.582 -0.5616  1.8414  1.6030
  521MOL0     H68712   4.522   7.511   1.453 -0.7222 -0.9412  1.2272
  521MOL0     H68713   4.362   7.378   1.569 -1.5676  4.1948 -3.1372
  521MOL0     H68714   4.369   7.491   1.709  0.0576 -0.6831  0.4989
  521MOL0     H68715   4.514   7.282   1.711  1.4169  0.4336 -0.0229
  521MOL0     H68716   4.621   7.339   1.584  1.6774  3.5991 -1.2209
  521MOL0     H68717   4.577   7.476   1.857 -0.3385  0.1999 -0.3338
  521MOL0     H68718   4.688   7.527   1.728 -2.1780  0.7276 -0.3400
  521MOL0     H68719   4.713   7.244   1.840  3.8326 -1.5461 -1.3482
  521MOL0     H68720   4.789   7.376   1.937  0.1861  2.0121 -0.3515
  521MOL0     H68721   4.838   7.285   1.646  0.0839  0.0872 -0.0383
  521MOL0     H68722   4.882   7.445   1.689  2.1718 -1.4382 -2.8979
  521MOL0     H68723   5.039   7.372   1.871 -0.6065  2.3969 -0.8836
  521MOL0     H68724   5.087   7.306   1.720  0.4257  2.5661 -0.0666
  521MOL0     H68725   5.086   7.181   2.044 -1.2350  5.0353 -3.5851
  521MOL0     H68726   5.002   6.796   2.072 -0.2458  0.5854 -0.0565
  521MOL0     H68727   4.986   6.940   2.177 -2.2091  1.0815 -1.7453
  521MOL0     H68728   5.209   6.825   2.232  1.5580 -0.0955 -1.8812
  521MOL0     H68729   5.231   6.977   2.148  3.2082 -0.7950 -0.0101
  521MOL0     H68730   5.269   6.855   1.932  0.2624  1.3079  0.1700
  521MOL0     H68731   5.378   6.811   2.065  0.8505  1.5711 -2.4289
  521MOL0     H68732   5.142   6.662   1.972  0.5794  2.2439 -0.9933
  521MOL0     H68733   5.239   6.609   2.123  0.2000  4.1956  2.2659
  521MOL0     H68734   5.487   6.474   1.783 -1.8681  0.1014  0.7968
  521MOL0     H68735   5.738   6.432   1.808  1.1288 -1.5479  0.7282
  521MOL0     H68736   6.092   6.486   2.303 -2.8006 -1.2457 -1.3795
  521MOL0     H68737   6.331   6.518   2.333  2.7664  1.4392  0.3417
  521MOL0     H68738   6.568   6.727   2.228  0.7419  2.8082 -1.8216
  521MOL0     H68739   6.546   6.743   2.058 -1.4121 -0.5554 -1.0018
  521MOL0     H68740   6.706   6.550   2.023  1.4442 -2.6339  1.0064
  521MOL0     H68741   6.734   6.543   2.207  0.1384  0.6615  0.7801
  521MOL0     H68742   6.774   6.809   2.152  2.2956 -2.8068  5.5163
  521MOL0     H68743   6.791   6.752   1.983  0.2466 -0.4644  0.6496
  521MOL0     H68744   6.972   6.646   2.203 -1.5715  3.6036  1.2849
  521MOL0     H68745   6.951   6.582   2.037 -3.3782 -3.0285  1.0890
  521MOL0     H68746   7.020   6.876   2.125  0.8897  1.9036 -1.0463
  521MOL0     H68747   7.012   6.820   1.958  2.2551  2.8633 -0.3044
  521MOL0     H68748   7.193   6.655   1.993  1.1014 -0.8718  0.5457
  521MOL0     H68749   7.210   6.719   2.161 -1.2042 -1.2715 -0.1226
  521MOL0     H68750   7.382   6.813   2.001 -0.2739  0.1998 -1.7655
  521MOL0     H68751   7.252   6.880   1.903 -1.7448  3.0684  1.5737
  521MOL0     H68752   7.289   6.977   2.182 -1.4374  2.6230  0.0648
  521MOL0     H68753   7.165   7.021   2.069 -0.4558 -0.0434  2.6497
  521MOL0     H68754   6.350   6.672   1.933  0.6617  1.8287  0.9686
  521MOL0     H68755   6.094   6.662   1.915  1.9123  0.2912 -0.5984
  521MOL0     H68756   5.715   6.609   2.195  0.1626 -1.1043 -0.0505
  521MOL0     H68757   5.484   6.663   2.170 -0.7351  3.4555 -2.3096
  521MOL0     H68758   4.048   7.615   1.587 -0.7174  2.1249 -0.5305
  521MOL0     H68759   3.825   7.658   1.525  0.6162  3.5760  0.4539
  521MOL0     H68760   3.510   7.495   1.257 -0.1644 -0.5711  0.2034
  521MOL0     H68761   3.264   7.444   1.282  0.5853 -1.3932 -0.7006
  521MOL0     H68762   2.933   7.700   1.214  0.9264  0.3226 -0.0548
  521MOL0     H68763   3.022   7.820   1.299  1.2809  0.6995  0.7758
  521MOL0     H68764   2.789   7.736   1.390 -0.7614 -2.6121  0.2167
  521MOL0     H68765   2.878   7.589   1.434  0.1468  0.7969  2.0789
  521MOL0     H68766   2.940   7.874   1.531 -2.1076  0.2535  3.5095
  521MOL0     H68767   3.051   7.739   1.556  0.1840  0.0159  3.2009
  521MOL0     H68768   2.763   7.787   1.676  0.8488  0.0543  0.7194
  521MOL0     H68769   2.853   7.638   1.698  0.4641 -1.1128 -1.8583
  521MOL0     H68770   3.083   7.913   1.924  0.1376 -0.0268  0.1570
  521MOL0     H68771   3.205   7.858   1.377  1.5309  1.7494 -2.2314
  521MOL0     H68772   3.436   7.886   1.389  0.7266 -0.2580  1.3428
  522MOL0     O68773   1.170   9.463   8.868 -0.1827 -0.6486 -0.7592
  522MOL0     C68774   1.138   9.546   8.785 -0.1520  0.3629  0.6975
  522MOL0     O68775   1.023   9.558   8.719 -0.0954  0.3404  0.4218
  522MOL0     C68776   0.925   9.461   8.739  0.2247  0.2828 -0.4920
  522MOL0     C68777   0.821   9.485   8.821  0.1867  0.3166  0.2840
  522MOL0     C68778   0.727   9.391   8.837  0.0676  0.6118 -0.1097
  522MOL0     C68779   0.720   9.268   8.761 -0.8956  0.2368  0.2870
  522MOL0     O68780   0.614   9.192   8.786 -0.3349 -0.0807 -0.9914
  522MOL0     C68781   0.614   9.048   8.761  0.0505 -0.9200 -0.4700
  522MOL0     C68782   0.465   9.000   8.753 -0.8129 -0.3868  0.0157
  522MOL0     C68783   0.440   8.852   8.787  0.2002  0.4027  0.0932
  522MOL0     C68784   0.286   8.825   8.804 -0.3959  0.6462  1.1561
  522MOL0     C68785   0.235   8.802   8.946  0.2322  0.0164  0.1341
  522MOL0     C68786   0.119   8.692   8.948  0.7162  0.3113 -0.0149
  522MOL0     C68787   0.059   8.713   9.088  0.1280 -0.7342  0.3303
  522MOL0     C68788  -0.036   8.599   9.124 -0.9378 -0.4311 -0.1829
  522MOL0     N68789  -0.145   8.581   9.025 -0.4201 -0.0618  0.7253
  522MOL0     C68790  -0.225   8.689   8.977 -0.2565 -0.3574  0.4264
  522MOL0     C68791  -0.305   8.638   8.874  0.8323 -0.3925  1.5320
  522MOL0     C68792  -0.407   8.691   8.771  0.1996  0.2438 -0.4403
  522MOL0     C68793  -0.443   8.838   8.811 -0.0310  0.0231  0.3449
  522MOL0     C68794  -0.335   8.919   8.738 -0.3532  0.3432  0.2224
  522MOL0     C68795  -0.369   8.922   8.584  0.3503  0.0052  0.5859
  522MOL0     O68796  -0.283   9.012   8.519  0.1987 -0.9209  0.0037
  522MOL0     C68797  -0.155   8.976   8.485 -0.2161  0.2721  0.3312
  522MOL0     C68798  -0.067   9.074   8.459  0.7806 -1.2863 -0.3117
  522MOL0     C68799   0.072   9.055   8.441  0.3052 -0.0772 -0.7784
  522MOL0     C68800   0.122   8.926   8.426  0.2237  0.2135  0.4257
  522MOL0     C68801   0.273   8.906   8.420  1.2049 -0.6276  0.7744
  522MOL0     O68802   0.347   9.018   8.391 -0.2564 -0.6509 -0.2749
  522MOL0     C68803   0.486   9.026   8.387  0.4726 -0.7796  0.3965
  522MOL0     C68804   0.578   8.919   8.412 -1.4126 -0.1222 -0.5282
  522MOL0     C68805   0.717   8.941   8.384 -0.2087  0.8739  0.0532
  522MOL0     C68806   0.765   9.064   8.350  0.4230 -0.3935  0.4465
  522MOL0     O68807   0.900   9.080   8.344 -0.0027 -0.2360 -0.1011
  522MOL0     C68808   0.952   9.179   8.246 -0.7166 -1.1179 -0.3925
  522MOL0     C68809   1.107   9.145   8.245 -0.6804 -0.1520  0.3833
  522MOL0     C68810   1.123   9.003   8.181  0.4962  0.9126 -0.3367
  522MOL0     C68811   1.224   9.001   8.066 -0.1136  0.0930 -0.0929
  522MOL0     C68812   1.253   8.855   8.036 -0.5812  0.8370  0.3071
  522MOL0     C68813   1.187   8.808   7.901  0.1064 -0.5459 -0.1088
  522MOL0     C68814   1.229   8.669   7.846 -0.1062  0.3359 -0.3188
  522MOL0     C68815   1.363   8.669   7.776 -0.3450 -0.6366 -0.0384
  522MOL0    Cl68816   1.370   8.525   7.675 -0.1350  0.4691  0.0004
  522MOL0     C68817   0.671   9.174   8.330  1.2325 -0.2628  0.3008
  522MOL0     C68818   0.531   9.152   8.349 -0.3481  0.6692 -0.0407
  522MOL0     O68819   0.316   8.790   8.412  0.3824  0.3305 -0.1986
  522MOL0     C68820   0.030   8.820   8.442  0.1323 -0.8965  0.3102
  522MOL0     C68821  -0.102   8.842   8.490 -0.2424 -0.1403 -0.2516
  522MOL0     N68822  -0.266   8.502   8.867 -0.0702 -0.1166  0.6221
  522MOL0     N68823  -0.165   8.475   8.947  0.0918  0.0097  0.1926
  522MOL0     C68824   0.834   9.246   8.677  0.5511  0.0067  0.5897
  522MOL0     C68825   0.933   9.343   8.662 -0.2003  1.0861 -0.7848
  522MOL0     C68826   1.231   9.651   8.734 -0.9961 -0.2513 -0.7007
  522MOL0     C68827   1.363   9.636   8.766  0.3450 -0.5170  0.6022
  522MOL0     C68828   1.459   9.721   8.705 -0.2446 -0.2190 -0.2707
  522MOL0     C68829   1.422   9.826   8.618  0.7148 -0.3204  0.5989
  522MOL0     O68830   1.514   9.908   8.551 -0.6540  1.6180 -0.6808
  522MOL0     C68831   1.641   9.854   8.504  1.2147 -0.0743 -0.3594
  522MOL0     C68832   1.609   9.816   8.356  0.7016  1.0311  0.7869
  522MOL0     C68833   1.723   9.719   8.296  0.4213 -0.0384 -0.4441
  522MOL0     C68834   1.849   9.799   8.309  0.7380 -0.3624  0.1939
  522MOL0     C68835   1.941   9.730   8.226 -1.1186  0.6387  0.4722
  522MOL0     C68836   2.021   9.660   8.167 -0.1275  0.5225 -0.4932
  522MOL0     C68837   1.287   9.844   8.602 -0.3083  0.8077 -1.3071
  522MOL0     C68838   1.197   9.755   8.652 -0.0556  0.7672 -0.0028
  522MOL0     H68839   0.817   9.587   8.858  0.2158  0.7415 -0.8440
  522MOL0     H68840   0.637   9.418   8.892  2.1888  3.9416  2.0437
  522MOL0     H68841   0.657   8.995   8.846  1.1821 -3.1031 -2.2942
  522MOL0     H68842   0.665   9.031   8.666  2.1283  0.4732  0.3179
  522MOL0     H68843   0.439   9.025   8.650  0.8825  0.4803 -0.2349
  522MOL0     H68844   0.411   9.059   8.828  1.4451  2.5685 -0.5241
  522MOL0     H68845   0.479   8.834   8.888  1.2072  3.9575  0.4783
  522MOL0     H68846   0.485   8.791   8.707 -3.1439 -0.8635 -0.9991
  522MOL0     H68847   0.233   8.912   8.765 -0.3852 -1.1105 -3.4123
  522MOL0     H68848   0.260   8.735   8.748  1.3106  0.8396 -0.0295
  522MOL0     H68849   0.208   8.897   8.993 -2.6515 -0.7978  0.3222
  522MOL0     H68850   0.319   8.760   9.003  2.4622  2.7972 -0.8834
  522MOL0     H68851   0.155   8.589   8.938  0.3072  0.0570  1.0196
  522MOL0     H68852   0.044   8.711   8.870 -2.3352 -1.5884  2.2204
  522MOL0     H68853   0.137   8.710   9.165  2.4098 -0.8503 -1.8813
  522MOL0     H68854   0.011   8.811   9.092 -1.3408 -1.3924 -0.3737
  522MOL0     H68855  -0.081   8.627   9.220  0.7571 -0.0451  0.5184
  522MOL0     H68856   0.016   8.503   9.128 -1.1720 -0.5431  0.5024
  522MOL0     H68857  -0.212   8.787   9.021 -0.1827 -0.3218  0.3240
  522MOL0     H68858  -0.497   8.631   8.782  1.1775 -1.7827 -2.5132
  522MOL0     H68859  -0.369   8.659   8.673  0.0648 -1.2973 -0.0209
  522MOL0     H68860  -0.434   8.866   8.916 -1.4493 -0.6342  0.6589
  522MOL0     H68861  -0.538   8.875   8.771  0.7478  1.9962  0.2316
  522MOL0     H68862  -0.330   9.025   8.765 -1.0391  0.3013  0.5331
  522MOL0     H68863  -0.230   8.892   8.754  0.2060  1.3203 -1.5255
  522MOL0     H68864  -0.465   8.971   8.568  0.2972 -0.4668 -0.5910
  522MOL0     H68865  -0.363   8.829   8.527 -1.0930  0.8101 -0.9591
  522MOL0     H68866  -0.095   9.179   8.460 -1.8000 -1.8871 -1.3341
  522MOL0     H68867   0.145   9.134   8.432  1.6517 -1.3044 -1.0962
  522MOL0     H68868   0.542   8.819   8.432 -2.0355  0.7085  3.2045
  522MOL0     H68869   0.790   8.860   8.383 -0.0225  1.0084 -2.1791
  522MOL0     H68870   0.931   9.280   8.282  0.7072 -0.4626 -1.3281
  522MOL0     H68871   0.909   9.178   8.146 -1.9363  1.8126  0.0068
  522MOL0     H68872   1.151   9.148   8.346  0.2277  0.2685 -0.0077
  522MOL0     H68873   1.150   9.219   8.176  0.2917 -0.7002  0.3876
  522MOL0     H68874   1.032   8.968   8.131  0.2630 -0.5505  1.0346
  522MOL0     H68875   1.146   8.932   8.261 -0.4481  0.8909 -0.0665
  522MOL0     H68876   1.196   9.050   7.972 -0.6299  1.2185  0.6234
  522MOL0     H68877   1.323   9.033   8.101  0.0232 -0.0978 -0.3033
  522MOL0     H68878   1.222   8.794   8.121  2.1337  0.2824  1.0038
  522MOL0     H68879   1.362   8.851   8.030 -0.5874 -0.4984  0.7571
  522MOL0     H68880   1.211   8.885   7.828 -1.2920  1.6257  1.6077
  522MOL0     H68881   1.078   8.808   7.910  0.0180  2.2205 -0.5411
  522MOL0     H68882   1.226   8.598   7.929  3.1460 -2.8482 -2.5784
  522MOL0     H68883   1.162   8.637   7.765  0.4810 -0.8996 -0.3481
  522MOL0     H68884   1.439   8.677   7.854 -2.6427  2.1466  2.1367
  522MOL0     H68885   1.371   8.763   7.720  0.6073 -0.5716  0.1902
  522MOL0     H68886   0.691   9.273   8.289 -1.3498  0.0099 -0.4983
  522MOL0     H68887   0.456   9.226   8.321 -0.8166  0.2921  0.2111
  522MOL0     H68888   0.056   8.715   8.438 -0.9032 -1.1517  0.1118
  522MOL0     H68889  -0.164   8.756   8.514  1.7224 -1.6898 -0.4353
  522MOL0     H68890   0.831   9.158   8.613 -1.0092  1.7601 -1.9196
  522MOL0     H68891   1.006   9.329   8.583 -1.6322 -2.9107 -1.6386
  522MOL0     H68892   1.408   9.558   8.826 -0.5631 -0.5360  1.2740
  522MOL0     H68893   1.565   9.695   8.709 -0.4230 -0.7450  1.5987
  522MOL0     H68894   1.680   9.767   8.557  1.3522 -1.4865 -2.6590
  522MOL0     H68895   1.718   9.931   8.508 -1.4970  2.7965  1.3367
  522MOL0     H68896   1.511   9.769   8.343 -0.0695  2.7715 -0.0411
  522MOL0     H68897   1.605   9.908   8.297 -1.2157  0.0394 -0.7644
  522MOL0     H68898   1.699   9.702   8.190 -0.3551  0.9418 -0.4490
  522MOL0     H68899   1.730   9.624   8.348  1.5283 -0.8279 -1.9711
  522MOL0     H68900   1.841   9.894   8.256  1.6031 -2.4250 -4.0958
  522MOL0     H68901   1.883   9.814   8.411  0.1125 -1.4999  0.5870
  522MOL0     H68902   2.099   9.604   8.119  0.1584  0.8457 -0.4104
  522MOL0     H68903   1.245   9.929   8.548 -2.0704  2.2839  2.0640
  522MOL0     H68904   1.093   9.759   8.619  0.1393 -0.1277 -0.7625
  523MOL0     O68905  10.125   9.338   6.510 -0.5492  0.8192  0.6510
  523MOL0     C68906  10.204   9.429   6.520 -0.4250 -0.1033  0.1487
  523MOL0     O68907  10.171   9.558   6.511  0.1222 -0.9300 -0.5518
  523MOL0     C68908  10.073   9.588   6.603 -0.9289 -0.5904  0.3818
  523MOL0     C68909   9.938   9.567   6.562 -1.2132  0.6041  0.0037
  523MOL0     C68910   9.838   9.584   6.662 -0.2805 -0.0018  0.7924
  523MOL0     C68911   9.869   9.611   6.799  0.3673  0.3666 -0.9538
  523MOL0     O68912   9.784   9.624   6.904 -0.1377 -0.5083 -0.0026
  523MOL0     C68913   9.639   9.615   6.902 -0.3953 -0.6830  0.6360
  523MOL0     C68914   9.578   9.468   6.854 -0.5571  0.2165 -0.4283
  523MOL0     C68915   9.428   9.462   6.890  0.3812 -0.7820  0.1149
  523MOL0     C68916   9.346   9.570   6.827  0.3426 -0.4472  0.1604
  523MOL0     C68917   9.194   9.545   6.858 -0.1086 -0.3168  0.4045
  523MOL0     C68918   9.115   9.644   6.774 -0.0260 -0.2138 -0.6584
  523MOL0     C68919   9.113   9.623   6.621  0.0343 -0.4141  0.3303
  523MOL0     C68920   9.125   9.479   6.570 -0.7040  0.0241  1.0212
  523MOL0     N68921   9.000   9.404   6.586 -0.3309 -0.5827 -0.3921
  523MOL0     C68922   8.965   9.318   6.487 -0.1210  0.5889 -0.3090
  523MOL0     C68923   8.851   9.266   6.534 -0.0893 -0.2776  0.1247
  523MOL0     C68924   8.763   9.157   6.473 -0.3070  0.0277  1.5872
  523MOL0     C68925   8.646   9.201   6.381  0.9977 -0.0999  0.0714
  523MOL0     C68926   8.576   9.086   6.304 -0.4709 -0.4291  0.7818
  523MOL0     C68927   8.501   9.135   6.187 -0.7545 -1.3511 -0.2640
  523MOL0     O68928   8.417   9.246   6.227 -0.0033  0.0473 -0.4235
  523MOL0     C68929   8.322   9.287   6.131 -0.3880 -0.4638  0.8119
  523MOL0     C68930   8.305   9.248   5.997  0.5601  0.0409  0.0930
  523MOL0     C68931   8.197   9.302   5.919  0.7977 -0.2123 -0.6141
  523MOL0     C68932   8.098   9.382   5.973  0.0214 -0.5313 -1.2694
  523MOL0     C68933   7.979   9.420   5.906 -0.6455 -0.8534  0.2076
  523MOL0     O68934   7.956   9.393   5.778 -0.0986  0.4128  0.3906
  523MOL0     C68935   7.834   9.427   5.717 -0.5055  0.5748 -0.5413
  523MOL0     C68936   7.820   9.352   5.601 -0.9392 -0.5443 -0.6078
  523MOL0     C68937   7.716   9.381   5.516  0.2387  0.1515  0.2819
  523MOL0     C68938   7.625   9.480   5.543 -0.4193 -0.2958  0.9244
  523MOL0     O68939   7.507   9.500   5.479  0.8329  0.3174  0.1350
  523MOL0     C68940   7.470   9.404   5.382 -0.6510 -1.0798  0.4427
  523MOL0     C68941   7.332   9.435   5.333 -0.9670  0.3801 -0.2625
  523MOL0     C68942   7.319   9.581   5.300  0.6005 -0.0734  1.1504
  523MOL0     C68943   7.202   9.601   5.220  0.0472 -0.6584 -0.1595
  523MOL0     C68944   7.183   9.749   5.203  0.0654  0.0046 -0.8730
  523MOL0     C68945   7.056   9.789   5.130  0.4168  0.3271  0.4177
  523MOL0     C68946   6.925   9.718   5.179 -0.0918 -1.5711 -0.2179
  523MOL0     C68947   6.807   9.815   5.161  0.8972  0.3708  0.8134
  523MOL0    Cl68948   6.845   9.986   5.208  0.2353  0.4353 -0.2983
  523MOL0     C68949   7.638   9.553   5.663 -1.4082 -0.6411  0.9131
  523MOL0     C68950   7.749   9.531   5.749  0.4796  0.3772  0.0859
  523MOL0     O68951   7.896   9.466   5.979  1.0341  0.2979  0.1131
  523MOL0     C68952   8.116   9.429   6.113 -0.2739 -0.9702 -0.6075
  523MOL0     C68953   8.233   9.383   6.183 -0.0982  0.3096  0.4481
  523MOL0     N68954   8.815   9.327   6.653  0.2618  1.1123 -0.3975
  523MOL0     N68955   8.900   9.422   6.682 -0.8159  0.2782 -0.0753
  523MOL0     C68956  10.001   9.627   6.827 -0.8426  0.7185 -0.0804
  523MOL0     C68957  10.105   9.615   6.736  0.7697 -0.3116  0.8183
  523MOL0     C68958  10.346   9.403   6.533 -0.8260  0.6446 -1.1970
  523MOL0     C68959  10.386   9.277   6.496 -0.1325 -0.6446 -0.0192
  523MOL0     C68960  10.521   9.249   6.493 -0.0895 -0.5204 -0.5594
  523MOL0     C68961  10.618   9.341   6.541  0.4608  0.7067  0.1781
  523MOL0     O68962  10.747   9.292   6.559  0.8134 -0.2881  0.8397
  523MOL0     C68963  10.853   9.375   6.595  0.6072  0.6642 -0.5545
  523MOL0     C68964  10.969   9.286   6.632 -0.5460 -0.3277  0.2480
  523MOL0     C68965  11.015   9.175   6.531  0.6653 -1.1963 -0.5237
  523MOL0     C68966  11.004   9.220   6.387 -0.3560  0.9736  0.5364
  523MOL0     C68967  11.124   9.281   6.333  0.3106 -0.5596  0.5573
  523MOL0     C68968  11.213   9.348   6.283 -0.1852  0.3229 -0.0599
  523MOL0     C68969  10.579   9.467   6.579  0.2437  0.2446  0.4170
  523MOL0     C68970  10.444   9.496   6.581 -0.4094 -0.3528 -0.1315
  523MOL0     H68971   9.902   9.536   6.464 -1.3050  0.0279  0.2124
  523MOL0     H68972   9.733   9.570   6.639 -0.3790 -4.6245  3.0630
  523MOL0     H68973   9.612   9.697   6.835  0.2589 -0.8285  0.1803
  523MOL0     H68974   9.604   9.652   6.999  1.0734 -0.5692  1.1417
  523MOL0     H68975   9.626   9.384   6.905 -0.4130 -0.2453 -1.2875
  523MOL0     H68976   9.595   9.468   6.746 -1.7001 -0.2501 -0.6171
  523MOL0     H68977   9.435   9.477   6.998 -0.7687 -0.0496  0.1040
  523MOL0     H68978   9.393   9.361   6.866 -4.2426  1.0762 -2.1752
  523MOL0     H68979   9.369   9.671   6.860 -1.3902  0.3033 -0.7764
  523MOL0     H68980   9.370   9.579   6.721  1.4295  0.8525  0.4904
  523MOL0     H68981   9.182   9.555   6.966  1.4539 -1.7062  0.7475
  523MOL0     H68982   9.162   9.444   6.829  1.7547 -1.0702  0.8456
  523MOL0     H68983   9.149   9.745   6.801 -0.9507 -0.2597  0.7922
  523MOL0     H68984   9.013   9.642   6.813  1.0691  1.1986  2.7174
  523MOL0     H68985   9.019   9.663   6.583 -1.3485 -3.5168  0.2122
  523MOL0     H68986   9.182   9.695   6.576 -0.6332  2.7622  3.8455
  523MOL0     H68987   9.203   9.422   6.621 -0.4464 -1.0520 -0.4919
  523MOL0     H68988   9.166   9.482   6.469 -1.7057 -1.1820  0.5492
  523MOL0     H68989   9.010   9.290   6.392  0.0990  0.8785 -0.2921
  523MOL0     H68990   8.719   9.110   6.562  2.4560 -0.7790  2.6116
  523MOL0     H68991   8.826   9.084   6.421 -2.3042 -1.7421  1.4867
  523MOL0     H68992   8.670   9.282   6.312 -0.3090  1.7844  1.7012
  523MOL0     H68993   8.579   9.249   6.453 -0.0007  2.2568 -2.2915
  523MOL0     H68994   8.653   9.020   6.262  0.8865  0.2933  2.0616
  523MOL0     H68995   8.511   9.027   6.368  0.3717  0.4817  2.5387
  523MOL0     H68996   8.445   9.052   6.144 -0.7879 -2.9215  2.6171
  523MOL0     H68997   8.568   9.158   6.103 -1.6991 -1.5602 -1.0925
  523MOL0     H68998   8.371   9.179   5.944  0.0983 -1.7222  1.7107
  523MOL0     H68999   8.195   9.267   5.816  1.8190 -1.6263 -0.1718
  523MOL0     H69000   7.899   9.279   5.581  0.0441  1.1794 -3.5734
  523MOL0     H69001   7.702   9.319   5.428  0.1940  1.2492 -0.5170
  523MOL0     H69002   7.474   9.300   5.415 -1.5960 -1.2794 -0.0353
  523MOL0     H69003   7.547   9.409   5.304 -0.5034  2.7930  0.6598
  523MOL0     H69004   7.251   9.389   5.390 -0.2484 -1.5486 -0.7107
  523MOL0     H69005   7.309   9.384   5.239  0.7445 -0.2435 -0.3888
  523MOL0     H69006   7.409   9.612   5.247 -0.8876  1.0026 -0.8911
  523MOL0     H69007   7.319   9.657   5.379 -0.8573  1.9529 -0.6999
  523MOL0     H69008   7.207   9.553   5.122  5.8741 -0.2562 -0.4103
  523MOL0     H69009   7.118   9.569   5.282 -1.4081  3.5420  0.3617
  523MOL0     H69010   7.272   9.788   5.152  1.6769  1.2990  2.5939
  523MOL0     H69011   7.175   9.804   5.297 -0.1965  0.0595 -0.9283
  523MOL0     H69012   7.073   9.767   5.025  2.4483  1.5874  0.4248
  523MOL0     H69013   7.064   9.897   5.143  4.8251  0.0026  2.2555
  523MOL0     H69014   6.913   9.621   5.131  0.5097 -0.9544 -1.6660
  523MOL0     H69015   6.934   9.689   5.284 -0.1549  1.6840  0.8151
  523MOL0     H69016   6.719   9.772   5.210 -0.0267 -0.1832 -1.2298
  523MOL0     H69017   6.783   9.806   5.055  0.5452  1.2980  0.8023
  523MOL0     H69018   7.567   9.631   5.687 -1.3146 -0.4418  0.5459
  523MOL0     H69019   7.757   9.597   5.835 -0.9272  0.6483  0.0364
  523MOL0     H69020   8.061   9.511   6.157  1.0952  0.7932 -2.0486
  523MOL0     H69021   8.268   9.413   6.281 -0.3491 -1.6385  1.1775
  523MOL0     H69022  10.026   9.643   6.931 -1.7565  0.4708  0.1847
  523MOL0     H69023  10.208   9.636   6.761  1.1236 -3.0054  1.9860
  523MOL0     H69024  10.313   9.204   6.464 -2.1412  0.8784  0.8210
  523MOL0     H69025  10.556   9.151   6.463 -1.0123 -1.5086  1.4341
  523MOL0     H69026  10.820   9.434   6.680  0.8335  0.7619 -0.5336
  523MOL0     H69027  10.872   9.444   6.513 -2.3685  1.1930 -0.8903
  523MOL0     H69028  11.059   9.347   6.648 -1.5025  0.5893  2.5534
  523MOL0     H69029  10.947   9.240   6.728 -0.5788 -2.9315 -0.9345
  523MOL0     H69030  10.944   9.093   6.547  0.7661 -1.1183  0.3441
  523MOL0     H69031  11.114   9.133   6.548 -0.4780 -3.7816  0.2067
  523MOL0     H69032  10.994   9.129   6.327  2.4971  1.8221 -1.4207
  523MOL0     H69033  10.920   9.284   6.361 -0.7835 -0.6975 -2.7921
  523MOL0     H69034  11.299   9.390   6.234 -0.2091 -0.5088 -0.8512
  523MOL0     H69035  10.649   9.531   6.631 -2.3433  2.5600  1.3056
  523MOL0     H69036  10.415   9.593   6.620  3.8352  1.1877 -0.2817
  524MOL0     O69037   9.278   5.377   5.923 -0.1097  0.0794 -1.0361
  524MOL0     C69038   9.268   5.272   5.861  0.5535 -0.1675  0.2850
  524MOL0     O69039   9.170   5.246   5.768 -0.0537  0.3906  0.4455
  524MOL0     C69040   9.080   5.351   5.746 -0.5791  0.1152  0.5489
  524MOL0     C69041   9.061   5.392   5.608  0.1897  0.7688 -0.1166
  524MOL0     C69042   8.955   5.479   5.579  0.1290 -0.0720 -0.8095
  524MOL0     C69043   8.870   5.529   5.675 -0.1485 -0.8868  0.1587
  524MOL0     O69044   8.769   5.623   5.658 -0.0945 -0.3528  0.6069
  524MOL0     C69045   8.720   5.660   5.528 -0.7559 -0.1600  0.2570
  524MOL0     C69046   8.601   5.751   5.542  0.2301 -0.3554  0.3975
  524MOL0     C69047   8.493   5.662   5.589  0.2379  0.1003 -0.2263
  524MOL0     C69048   8.358   5.742   5.569 -0.5136 -0.2991 -0.0628
  524MOL0     C69049   8.246   5.644   5.600  0.7445 -0.0935 -0.0416
  524MOL0     C69050   8.114   5.734   5.590  0.5199  0.4384 -0.1460
  524MOL0     C69051   8.033   5.777   5.714 -0.3965  0.3366 -0.1529
  524MOL0     C69052   7.975   5.660   5.793 -0.0384 -0.1061 -0.2121
  524MOL0     N69053   7.878   5.575   5.719 -0.4969 -0.2329 -0.4436
  524MOL0     C69054   7.788   5.613   5.616  1.1076 -0.3725  0.4259
  524MOL0     C69055   7.715   5.502   5.596 -0.4304  0.1935 -0.1583
  524MOL0     C69056   7.602   5.478   5.497 -0.3451 -0.1133  0.3829
  524MOL0     C69057   7.610   5.331   5.449  0.3228 -0.3754 -0.4061
  524MOL0     C69058   7.546   5.314   5.312 -0.5367 -0.3670  0.0790
  524MOL0     C69059   7.393   5.339   5.307  0.3713 -0.4786 -0.1341
  524MOL0     O69060   7.331   5.269   5.417  0.2030 -0.6856  1.1032
  524MOL0     C69061   7.214   5.309   5.470 -0.5041  0.3141  0.1858
  524MOL0     C69062   7.157   5.219   5.557  0.2755 -0.2563 -0.0743
  524MOL0     C69063   7.029   5.240   5.607 -0.5781 -0.1721  0.2395
  524MOL0     C69064   6.958   5.351   5.568 -0.2044 -0.1990 -0.1484
  524MOL0     C69065   6.826   5.372   5.618 -0.5430 -0.8673  0.8466
  524MOL0     O69066   6.780   5.499   5.611 -0.7059  0.3370  0.0027
  524MOL0     C69067   6.665   5.549   5.670  0.0911 -0.6255 -0.7437
  524MOL0     C69068   6.682   5.680   5.723  0.2970  0.2229 -0.1978
  524MOL0     C69069   6.560   5.742   5.767  0.5925 -0.4949 -0.4221
  524MOL0     C69070   6.443   5.670   5.778  0.2342 -0.1372  0.2475
  524MOL0     O69071   6.337   5.734   5.836 -0.0742  0.0039  0.5460
  524MOL0     C69072   6.244   5.658   5.910 -0.6329  0.6635  0.6926
  524MOL0     C69073   6.166   5.738   6.015  0.4693  0.9722  0.1625
  524MOL0     C69074   6.248   5.801   6.122  0.1854 -0.7818 -0.4642
  524MOL0     C69075   6.167   5.863   6.231  0.1328 -0.4742 -0.5893
  524MOL0     C69076   6.250   5.938   6.339  0.0259  0.2406  0.3765
  524MOL0     C69077   6.357   5.840   6.397  1.3404  0.2116 -1.3417
  524MOL0     C69078   6.414   5.889   6.531 -0.2354 -0.0531 -0.3267
  524MOL0     C69079   6.539   5.808   6.567  1.0702  0.6107 -0.6177
  524MOL0    Cl69080   6.612   5.876   6.715  0.2202 -0.4003  0.2741
  524MOL0     C69081   6.440   5.540   5.736 -0.2382  0.6023  0.5295
  524MOL0     C69082   6.540   5.483   5.667 -0.3823 -0.0821 -0.4386
  524MOL0     O69083   6.757   5.279   5.670  0.2149 -0.0453  0.1078
  524MOL0     C69084   7.015   5.446   5.486  0.0238  0.2411  0.0495
  524MOL0     C69085   7.143   5.422   5.431 -0.8422 -0.3739 -0.2306
  524MOL0     N69086   7.767   5.400   5.679  0.0282 -0.4654  0.4648
  524MOL0     N69087   7.870   5.442   5.744  0.2344  0.3642 -1.0274
  524MOL0     C69088   8.884   5.482   5.810  0.3103 -0.0580  0.3340
  524MOL0     C69089   8.991   5.393   5.844  0.4813  0.3114 -0.0122
  524MOL0     C69090   9.380   5.171   5.884 -1.0528  0.2286  0.6381
  524MOL0     C69091   9.511   5.220   5.915 -0.6047 -0.6332  0.5180
  524MOL0     C69092   9.625   5.149   5.910  0.1492  0.1454  0.1446
  524MOL0     C69093   9.616   5.016   5.868 -0.7159  0.0923 -0.0963
  524MOL0     O69094   9.741   4.947   5.851 -0.5395 -0.2825 -0.3927
  524MOL0     C69095   9.734   4.804   5.874 -0.5046  0.2596  0.3085
  524MOL0     C69096   9.862   4.744   5.930 -0.0498  0.3925  0.5726
  524MOL0     C69097   9.854   4.590   5.959  0.3363 -0.1736  0.6173
  524MOL0     C69098   9.847   4.521   5.827 -0.1326  0.5208  0.3091
  524MOL0     C69099   9.861   4.375   5.850 -0.4997 -1.1242 -0.4052
  524MOL0     C69100   9.871   4.264   5.866 -0.5797  0.4128 -0.4304
  524MOL0     C69101   9.494   4.961   5.839 -0.4229 -0.0949 -0.1873
  524MOL0     C69102   9.369   5.035   5.850  0.2004 -0.5501  0.2279
  524MOL0     H69103   9.138   5.361   5.539  2.1281 -0.3537  2.3996
  524MOL0     H69104   8.943   5.506   5.475  0.1725  0.0016 -0.7958
  524MOL0     H69105   8.690   5.570   5.474 -1.7627  0.4169 -0.1873
  524MOL0     H69106   8.801   5.709   5.474 -0.5361  0.8026  1.4155
  524MOL0     H69107   8.579   5.798   5.446  0.3031  0.0559  0.5802
  524MOL0     H69108   8.626   5.837   5.604  0.8595  0.2063 -0.6066
  524MOL0     H69109   8.505   5.637   5.695 -1.5844  0.5432  0.1285
  524MOL0     H69110   8.481   5.571   5.530 -1.0677 -1.3374  2.0906
  524MOL0     H69111   8.359   5.817   5.649  1.6932  1.2137 -1.4232
  524MOL0     H69112   8.349   5.783   5.468 -2.5775  1.2180  0.6612
  524MOL0     H69113   8.261   5.605   5.701 -1.9718  2.8996  1.6694
  524MOL0     H69114   8.253   5.557   5.533  2.6469 -0.5629  0.6968
  524MOL0     H69115   8.035   5.683   5.535 -0.2688  2.9438 -1.5179
  524MOL0     H69116   8.135   5.824   5.532  1.7932  1.0548  1.1904
  524MOL0     H69117   8.100   5.834   5.779  0.3709 -0.2640 -0.4081
  524MOL0     H69118   7.960   5.850   5.677  2.1074  2.6532 -0.8601
  524MOL0     H69119   7.909   5.695   5.872  0.1442 -1.6358  0.6551
  524MOL0     H69120   8.047   5.596   5.845 -2.0712 -2.7887 -0.4317
  524MOL0     H69121   7.777   5.713   5.577 -2.0881 -0.5650  0.6022
  524MOL0     H69122   7.620   5.547   5.414 -0.9763 -1.7737 -1.1676
  524MOL0     H69123   7.507   5.505   5.546 -0.1492 -0.4774  0.9681
  524MOL0     H69124   7.579   5.255   5.521  0.9881  0.8065  1.2002
  524MOL0     H69125   7.716   5.316   5.424  0.1226  0.1814 -1.6454
  524MOL0     H69126   7.586   5.387   5.242  0.6094  1.9836  2.9868
  524MOL0     H69127   7.573   5.221   5.260  0.9308  0.9579 -1.6751
  524MOL0     H69128   7.367   5.295   5.211 -1.1625 -0.0806  0.0859
  524MOL0     H69129   7.376   5.447   5.309  2.1299 -0.1111  3.1274
  524MOL0     H69130   7.211   5.138   5.604 -0.0367 -0.0927  0.5791
  524MOL0     H69131   6.985   5.164   5.671 -0.1455 -0.1033  0.6197
  524MOL0     H69132   6.778   5.730   5.721 -0.2788  1.4119  0.5085
  524MOL0     H69133   6.565   5.846   5.797 -3.1352 -0.7756  1.7930
  524MOL0     H69134   6.289   5.575   5.965 -3.3494  0.2619  2.4946
  524MOL0     H69135   6.180   5.614   5.833 -0.2054 -1.0789  1.2940
  524MOL0     H69136   6.093   5.670   6.061  1.5167 -0.6495 -0.4609
  524MOL0     H69137   6.109   5.812   5.958  0.5138  1.6192  0.9511
  524MOL0     H69138   6.317   5.876   6.084 -0.3993 -1.8387 -3.9313
  524MOL0     H69139   6.313   5.724   6.166  0.5012  0.5361  1.5334
  524MOL0     H69140   6.101   5.936   6.183  1.0918 -0.4030 -1.8559
  524MOL0     H69141   6.101   5.788   6.276  1.6060 -1.4467  0.0367
  524MOL0     H69142   6.191   5.969   6.426 -0.4083 -0.8107  0.4795
  524MOL0     H69143   6.284   6.032   6.295  0.9675  1.0729  2.7591
  524MOL0     H69144   6.441   5.834   6.327  0.7125 -0.5477 -2.0422
  524MOL0     H69145   6.308   5.743   6.407  0.2639  0.5191 -3.2698
  524MOL0     H69146   6.456   5.990   6.529  1.7325 -0.8274 -2.4921
  524MOL0     H69147   6.341   5.893   6.613 -3.2850  0.0885 -2.8627
  524MOL0     H69148   6.619   5.791   6.495  2.9254 -2.6540  1.9115
  524MOL0     H69149   6.506   5.705   6.586 -0.4229  0.7151 -2.3464
  524MOL0     H69150   6.355   5.472   5.736  1.1568 -1.2394 -0.6285
  524MOL0     H69151   6.540   5.379   5.634 -0.9122 -0.6648  1.3120
  524MOL0     H69152   6.955   5.535   5.469  0.5220  0.7861  1.1166
  524MOL0     H69153   7.185   5.489   5.356  0.2769 -0.5096  0.2441
  524MOL0     H69154   8.826   5.503   5.899 -2.6777 -0.3794 -1.4127
  524MOL0     H69155   9.002   5.366   5.948  3.4379  3.2031  0.5741
  524MOL0     H69156   9.512   5.328   5.922 -0.7724 -0.4025 -2.2107
  524MOL0     H69157   9.720   5.198   5.925  0.4700 -0.6353  0.6936
  524MOL0     H69158   9.707   4.762   5.777 -2.0534  2.6593 -0.3899
  524MOL0     H69159   9.657   4.777   5.947  1.9763 -4.6247  1.6114
  524MOL0     H69160   9.945   4.761   5.862  0.0077 -1.0323  0.2484
  524MOL0     H69161   9.884   4.805   6.018  1.7335  1.4540 -0.5730
  524MOL0     H69162   9.772   4.555   6.022 -0.3290 -0.8086 -0.5928
  524MOL0     H69163   9.949   4.562   6.006  1.2312 -1.1789 -1.6615
  524MOL0     H69164   9.758   4.534   5.765  2.4104 -0.0132 -3.7972
  524MOL0     H69165   9.931   4.560   5.770 -0.7011  0.3523 -0.6575
  524MOL0     H69166   9.885   4.159   5.880  0.5996  0.8325  2.1612
  524MOL0     H69167   9.479   4.858   5.809 -3.1840  0.2132 -0.0784
  524MOL0     H69168   9.274   4.984   5.834  1.6713 -3.4274 -0.1151
  525MOL0     O69169   8.948   5.923   5.689 -0.4405  0.0394  0.5311
  525MOL0     C69170   9.003   5.983   5.783  0.3302  0.0920 -0.5276
  525MOL0     O69171   8.964   6.100   5.844  0.1631  0.3938  0.6992
  525MOL0     C69172   8.837   6.138   5.827 -0.6710 -0.1262  0.0023
  525MOL0     C69173   8.820   6.258   5.779  0.1570 -0.1564  0.2785
  525MOL0     C69174   8.694   6.317   5.771 -0.7437 -0.0793 -0.4004
  525MOL0     C69175   8.577   6.241   5.798  0.9188  0.1414 -1.0479
  525MOL0     O69176   8.449   6.289   5.780 -0.5878 -0.1201 -0.5850
  525MOL0     C69177   8.416   6.429   5.805 -0.3440  0.9467 -0.1300
  525MOL0     C69178   8.396   6.507   5.672 -0.5220  0.3921  0.7577
  525MOL0     C69179   8.395   6.669   5.681  1.1742  0.1830  0.3946
  525MOL0     C69180   8.248   6.720   5.689 -0.0404  0.4741 -0.1965
  525MOL0     C69181   8.163   6.666   5.806 -0.9217 -0.5936 -0.4546
  525MOL0     C69182   8.049   6.762   5.857  0.4460  0.0880  0.3538
  525MOL0     C69183   8.008   6.713   5.997 -1.3004  0.4281  0.5192
  525MOL0     C69184   7.908   6.805   6.056 -0.3870  0.3539  0.5898
  525MOL0     N69185   7.909   6.788   6.201 -0.4584 -0.1894  0.2717
  525MOL0     C69186   7.984   6.865   6.276  1.0731 -0.7857 -0.5171
  525MOL0     C69187   7.969   6.807   6.403  0.9409 -0.6510  0.0668
  525MOL0     C69188   8.037   6.856   6.524 -0.3353  0.4020  0.1754
  525MOL0     C69189   8.154   6.768   6.558  0.5140 -0.0188  0.9725
  525MOL0     C69190   8.252   6.765   6.442  0.6595 -0.2424 -1.0851
  525MOL0     C69191   8.372   6.666   6.473  0.6254 -0.4077  0.8690
  525MOL0     O69192   8.389   6.629   6.604  0.4108 -0.4747  0.3084
  525MOL0     C69193   8.473   6.522   6.630 -0.2133 -1.1287 -0.8132
  525MOL0     C69194   8.488   6.482   6.763  1.1356 -0.3742  0.5108
  525MOL0     C69195   8.565   6.371   6.800 -1.0777 -0.4105 -0.1256
  525MOL0     C69196   8.627   6.296   6.698 -0.0355  0.5463  0.4427
  525MOL0     C69197   8.718   6.184   6.738 -0.3388 -0.6353  0.9473
  525MOL0     O69198   8.811   6.142   6.640 -0.0919  0.1558  0.0451
  525MOL0     C69199   8.878   6.029   6.672  0.4935 -0.4550 -0.2590
  525MOL0     C69200   8.849   5.900   6.609  0.0595 -0.0642  0.3405
  525MOL0     C69201   8.929   5.790   6.644 -0.0184  0.4254  0.3166
  525MOL0     C69202   9.041   5.802   6.732 -0.1561 -0.1711  1.3079
  525MOL0     O69203   9.109   5.695   6.775  0.0740 -0.5639 -0.0324
  525MOL0     C69204   9.109   5.570   6.702 -0.0956 -0.3011  0.3241
  525MOL0     C69205   9.245   5.500   6.699  0.5003 -0.2843 -0.5007
  525MOL0     C69206   9.280   5.455   6.847 -0.4520 -0.8386  0.3563
  525MOL0     C69207   9.413   5.379   6.845  0.2491  0.2367 -0.0299
  525MOL0     C69208   9.438   5.287   6.967  0.0509  0.0720 -0.0748
  525MOL0     C69209   9.581   5.234   6.988 -0.0111 -0.6891 -0.5670
  525MOL0     C69210   9.630   5.161   6.858 -0.0379  0.5709 -0.9228
  525MOL0     C69211   9.723   5.049   6.927  0.1099  0.5014  0.1106
  525MOL0    Cl69212   9.847   5.128   7.022 -0.2327  0.9696  0.2184
  525MOL0     C69213   9.071   5.929   6.784  0.5464  0.1812  0.5669
  525MOL0     C69214   8.990   6.040   6.754 -0.3753  0.1824 -0.6540
  525MOL0     O69215   8.710   6.138   6.855  0.9766  0.2133 -0.0783
  525MOL0     C69216   8.611   6.327   6.561 -1.1918 -0.4051 -0.4071
  525MOL0     C69217   8.540   6.444   6.528  0.4663 -0.8195  0.1441
  525MOL0     N69218   7.886   6.696   6.396 -0.6211  0.2263 -0.2802
  525MOL0     N69219   7.849   6.691   6.274 -0.7688  0.4526  0.3998
  525MOL0     C69220   8.593   6.110   5.837 -0.1086  0.3531  0.7867
  525MOL0     C69221   8.724   6.061   5.873  0.0477  0.2655 -0.2472
  525MOL0     C69222   9.127   5.917   5.824 -0.1318  0.1267  0.4851
  525MOL0     C69223   9.230   5.990   5.869 -0.0133  0.4811  0.1101
  525MOL0     C69224   9.353   5.939   5.915  0.8561  0.0008  0.4224
  525MOL0     C69225   9.378   5.804   5.906 -0.4303 -0.5919  0.2580
  525MOL0     O69226   9.498   5.753   5.949  0.6962  0.7223 -0.4786
  525MOL0     C69227   9.497   5.753   6.094  0.4310  0.6232 -0.0048
  525MOL0     C69228   9.630   5.713   6.161 -0.8465 -1.1043  0.1444
  525MOL0     C69229   9.659   5.562   6.160  0.2038 -0.1051 -0.5219
  525MOL0     C69230   9.761   5.517   6.266  0.0168  0.3362  0.8235
  525MOL0     C69231   9.891   5.584   6.249 -0.4076  0.5541  1.1672
  525MOL0     C69232   9.993   5.648   6.253  1.2285  0.6936  0.4066
  525MOL0     C69233   9.280   5.725   5.846  0.4138  0.5050  0.2619
  525MOL0     C69234   9.156   5.779   5.803 -0.9341  0.8680 -0.8304
  525MOL0     H69235   8.912   6.315   5.771  1.0030 -1.5098  0.1128
  525MOL0     H69236   8.686   6.424   5.755  3.3716  0.3924 -0.1925
  525MOL0     H69237   8.499   6.468   5.864  1.4260 -2.0855 -0.4334
  525MOL0     H69238   8.333   6.440   5.876  1.6734  0.6528  2.4142
  525MOL0     H69239   8.300   6.476   5.628  0.3581  1.9237 -2.4519
  525MOL0     H69240   8.470   6.479   5.597 -0.0980  3.7169 -0.1906
  525MOL0     H69241   8.439   6.703   5.587  0.4204  2.3785  0.7774
  525MOL0     H69242   8.453   6.713   5.762  0.6007  0.6737  0.5480
  525MOL0     H69243   8.269   6.825   5.711 -1.5242  1.1518 -1.8605
  525MOL0     H69244   8.204   6.720   5.590 -1.4749  1.0702  0.4203
  525MOL0     H69245   8.231   6.646   5.889  1.3813  1.3767 -1.7524
  525MOL0     H69246   8.114   6.572   5.776 -0.5608 -0.5452 -1.2304
  525MOL0     H69247   7.980   6.767   5.772  1.9150 -3.1951 -1.2159
  525MOL0     H69248   8.070   6.869   5.866 -3.6800  1.0409  0.7240
  525MOL0     H69249   7.978   6.608   6.000 -0.9054  0.1805 -2.1978
  525MOL0     H69250   8.099   6.737   6.052  0.6489  0.8563 -2.6412
  525MOL0     H69251   7.810   6.785   6.012 -1.0591  1.0498  1.7254
  525MOL0     H69252   7.935   6.906   6.024  0.0238 -0.6034 -2.3129
  525MOL0     H69253   8.062   6.937   6.257  1.3058 -0.9522 -0.2102
  525MOL0     H69254   7.963   6.855   6.604 -0.3644 -2.0171  0.1895
  525MOL0     H69255   8.059   6.963   6.511 -2.4895  1.2901  2.8654
  525MOL0     H69256   8.118   6.669   6.589  1.5759 -1.1866 -1.3018
  525MOL0     H69257   8.205   6.815   6.643  1.5911  0.0438  0.3135
  525MOL0     H69258   8.211   6.741   6.343  1.7302 -0.0917 -1.5744
  525MOL0     H69259   8.286   6.869   6.439 -2.1902  0.8442  0.2484
  525MOL0     H69260   8.456   6.717   6.426 -1.1104  0.5719 -1.3834
  525MOL0     H69261   8.335   6.578   6.420 -1.6080 -0.3839  2.2580
  525MOL0     H69262   8.441   6.538   6.844 -0.1971 -1.1223  0.2873
  525MOL0     H69263   8.559   6.342   6.905 -0.0434 -2.5691 -0.5938
  525MOL0     H69264   8.765   5.894   6.540 -2.1563 -2.1447  2.9721
  525MOL0     H69265   8.919   5.698   6.589 -0.0733  1.7447 -2.0025
  525MOL0     H69266   9.096   5.593   6.596  0.8177 -2.0457 -0.2031
  525MOL0     H69267   9.039   5.495   6.740  0.8429 -0.4051  1.9202
  525MOL0     H69268   9.316   5.569   6.654  1.8515 -2.0372 -1.1627
  525MOL0     H69269   9.235   5.407   6.643 -0.5839 -0.2176 -0.4456
  525MOL0     H69270   9.192   5.397   6.879 -1.8611  2.0014  2.0376
  525MOL0     H69271   9.292   5.535   6.920  1.9474  0.2927 -1.1716
  525MOL0     H69272   9.421   5.336   6.745  0.3462  0.2686 -0.0362
  525MOL0     H69273   9.497   5.449   6.847 -0.3766  0.9800  0.7682
  525MOL0     H69274   9.368   5.204   6.953 -0.3394  0.7233 -2.3567
  525MOL0     H69275   9.408   5.336   7.061  0.2902 -0.3793  0.2385
  525MOL0     H69276   9.591   5.168   7.075 -1.8949 -2.3377 -1.5146
  525MOL0     H69277   9.643   5.323   7.001 -0.0056 -0.8646  0.7623
  525MOL0     H69278   9.554   5.124   6.789 -0.1151 -1.4596  0.1630
  525MOL0     H69279   9.699   5.226   6.803  1.9325 -2.2684 -2.0474
  525MOL0     H69280   9.765   4.991   6.845  1.1669 -0.5042  1.3314
  525MOL0     H69281   9.666   4.977   6.986  3.2699 -0.3659  2.3111
  525MOL0     H69282   9.156   5.926   6.851  1.1729 -2.3660 -0.2403
  525MOL0     H69283   9.016   6.142   6.782  1.6148  0.3483 -2.7694
  525MOL0     H69284   8.653   6.273   6.476  0.4978 -0.7815  0.6220
  525MOL0     H69285   8.516   6.459   6.423 -0.5574 -2.0293  0.1827
  525MOL0     H69286   8.505   6.054   5.868 -0.7261 -0.9855 -2.9748
  525MOL0     H69287   8.729   5.969   5.931  2.0254  1.2729  1.2701
  525MOL0     H69288   9.201   6.089   5.901  0.1056 -0.5954  4.0615
  525MOL0     H69289   9.427   6.007   5.957  2.0298 -2.0752  1.8936
  525MOL0     H69290   9.422   5.683   6.132  0.6661  1.4245  2.0931
  525MOL0     H69291   9.465   5.852   6.129 -4.4559 -1.6656  3.1110
  525MOL0     H69292   9.703   5.760   6.095 -1.6658  0.6284  0.4137
  525MOL0     H69293   9.635   5.759   6.260 -3.2712 -0.6255  0.1223
  525MOL0     H69294   9.678   5.516   6.062 -0.6702 -2.4552  0.3547
  525MOL0     H69295   9.561   5.516   6.176 -0.3497  1.4738  0.8563
  525MOL0     H69296   9.721   5.533   6.367 -1.7147  1.0004  0.0870
  525MOL0     H69297   9.791   5.412   6.259 -4.1089 -1.0132  0.7164
  525MOL0     H69298  10.081   5.709   6.266  0.3848  2.1434 -0.5016
  525MOL0     H69299   9.291   5.617   5.841  2.1484  0.6801 -0.3350
  525MOL0     H69300   9.079   5.714   5.762  0.7433 -0.9090 -1.3424
  526MOL0     O69301   0.611   2.674   5.179  0.2812 -0.1762  0.6995
  526MOL0     C69302   0.642   2.789   5.148 -0.4049  0.7150  0.0677
  526MOL0     O69303   0.550   2.883   5.090 -0.3759 -0.1048 -0.3035
  526MOL0     C69304   0.417   2.859   5.058 -0.0676  0.4607  1.1878
  526MOL0     C69305   0.334   2.960   5.060 -0.2814  0.0180 -0.7936
  526MOL0     C69306   0.198   2.955   5.020  0.1423 -0.2996  0.4840
  526MOL0     C69307   0.150   2.828   4.986  0.7778 -0.4367 -0.2927
  526MOL0     O69308   0.018   2.803   4.944  0.1323  0.2336  0.0075
  526MOL0     C69309  -0.069   2.915   4.938  0.3111 -0.6046 -0.4989
  526MOL0     C69310  -0.214   2.863   4.925 -0.7214  0.8750 -0.1364
  526MOL0     C69311  -0.308   2.962   4.852  0.5074  0.4525  0.4020
  526MOL0     C69312  -0.433   2.876   4.810 -0.5750 -0.3196 -0.1024
  526MOL0     C69313  -0.549   2.956   4.746 -0.4002 -0.7426  0.8854
  526MOL0     C69314  -0.682   2.902   4.814 -0.1491 -0.4293  0.7985
  526MOL0     C69315  -0.803   2.957   4.722  0.9495  0.0206 -0.4985
  526MOL0     C69316  -0.936   2.912   4.779 -1.1226  0.1122 -0.3008
  526MOL0     N69317  -1.055   2.945   4.695 -0.1754  0.1982 -0.4070
  526MOL0     C69318  -1.170   2.880   4.679  0.8131 -0.5572  0.4696
  526MOL0     C69319  -1.243   2.957   4.602  0.7013 -0.1088 -0.3551
  526MOL0     C69320  -1.379   2.917   4.550 -0.8065  0.3192 -0.1469
  526MOL0     C69321  -1.379   2.853   4.407 -0.5113 -0.3841  0.0016
  526MOL0     C69322  -1.330   2.955   4.304  0.2830 -0.7847 -0.0558
  526MOL0     C69323  -1.315   2.890   4.166 -0.7778  0.0066  0.1712
  526MOL0     O69324  -1.307   2.998   4.064  0.1722 -0.7551 -0.0954
  526MOL0     C69325  -1.423   3.061   4.015  0.4180 -0.2570 -0.0197
  526MOL0     C69326  -1.414   3.179   3.947 -0.5544 -0.0086  0.7726
  526MOL0     C69327  -1.528   3.236   3.893  0.6705 -0.1266  0.2923
  526MOL0     C69328  -1.655   3.178   3.895 -0.3460  0.3752  0.0818
  526MOL0     C69329  -1.777   3.237   3.818  0.2893  0.5112 -0.2742
  526MOL0     O69330  -1.756   3.342   3.739  0.3126 -0.3365  0.0711
  526MOL0     C69331  -1.857   3.387   3.655 -0.4526 -0.4269 -0.3567
  526MOL0     C69332  -1.836   3.404   3.518  0.8682  0.7688  0.0905
  526MOL0     C69333  -1.944   3.423   3.424 -0.1859  0.6288 -0.7116
  526MOL0     C69334  -2.073   3.439   3.475  1.4699 -0.2367  0.2934
  526MOL0     O69335  -2.172   3.463   3.381 -0.0430 -0.6723  0.2474
  526MOL0     C69336  -2.269   3.564   3.418 -0.6730  0.2276 -0.0211
  526MOL0     C69337  -2.354   3.610   3.296 -0.6931  0.4580  0.1734
  526MOL0     C69338  -2.450   3.719   3.334 -0.2156 -0.3612  0.2828
  526MOL0     C69339  -2.553   3.742   3.222 -0.8563 -0.0501 -0.5488
  526MOL0     C69340  -2.618   3.881   3.229  0.9835 -0.6991  1.5094
  526MOL0     C69341  -2.724   3.898   3.339 -0.2945  0.2160 -0.5938
  526MOL0     C69342  -2.852   3.799   3.324  0.0426 -0.7034 -0.3748
  526MOL0     C69343  -2.924   3.810   3.195 -0.3380  0.0606  0.0765
  526MOL0    Cl69344  -2.992   3.974   3.179  0.4952  0.0460 -0.1473
  526MOL0     C69345  -2.096   3.444   3.616 -0.6643  0.1817 -0.3012
  526MOL0     C69346  -1.983   3.415   3.698  0.6383 -0.4058  1.2379
  526MOL0     O69347  -1.880   3.166   3.821 -0.5873 -0.5152 -0.8462
  526MOL0     C69348  -1.669   3.059   3.968 -0.3316  0.0159 -1.2201
  526MOL0     C69349  -1.549   3.004   4.027  0.6182  0.1512 -0.4528
  526MOL0     N69350  -1.157   3.065   4.553 -0.1362  0.0781 -0.0941
  526MOL0     N69351  -1.049   3.055   4.617 -0.7753  0.0576  0.4097
  526MOL0     C69352   0.227   2.716   4.992 -0.4803  0.5779 -0.1688
  526MOL0     C69353   0.362   2.730   5.021  0.0979  0.2110 -0.1756
  526MOL0     C69354   0.781   2.834   5.176  0.9086  0.3689 -0.5166
  526MOL0     C69355   0.818   2.959   5.144 -0.2807 -0.0166 -0.1935
  526MOL0     C69356   0.941   3.009   5.168 -0.1713  0.6882  0.0066
  526MOL0     C69357   1.046   2.920   5.221  0.0208 -0.2233 -0.3882
  526MOL0     O69358   1.178   2.949   5.220 -0.0791 -0.8293  0.0397
  526MOL0     C69359   1.221   3.082   5.164 -0.4307  0.5998  0.9147
  526MOL0     C69360   1.209   3.200   5.257  0.4085  0.1000 -0.5297
  526MOL0     C69361   1.308   3.184   5.373 -0.0428  0.5928 -0.9522
  526MOL0     C69362   1.290   3.297   5.481  0.5470  0.3786 -0.0314
  526MOL0     C69363   1.404   3.305   5.572  0.1102 -0.0251 -0.3775
  526MOL0     C69364   1.498   3.327   5.649  0.3962  0.9123 -0.4450
  526MOL0     C69365   1.003   2.789   5.258 -0.4455  0.2786 -1.0163
  526MOL0     C69366   0.875   2.741   5.235 -0.0638 -0.1933  0.0113
  526MOL0     H69367   0.368   3.061   5.078 -0.8173  0.0205  0.3657
  526MOL0     H69368   0.143   3.048   5.030  1.5059  0.2345  4.4057
  526MOL0     H69369  -0.053   2.964   4.842 -1.8164 -1.9000 -1.5996
  526MOL0     H69370  -0.055   2.981   5.023  0.3990  0.3752 -1.2567
  526MOL0     H69371  -0.254   2.840   5.024  1.4705 -0.5334  0.5051
  526MOL0     H69372  -0.207   2.767   4.872 -2.4143  0.3810  0.4624
  526MOL0     H69373  -0.257   3.013   4.771  1.4265  1.7362  1.7497
  526MOL0     H69374  -0.343   3.038   4.922  0.5139 -0.6502  1.6588
  526MOL0     H69375  -0.404   2.803   4.734 -1.5738  1.1798 -1.9862
  526MOL0     H69376  -0.473   2.820   4.896 -0.7910 -0.2713 -0.1702
  526MOL0     H69377  -0.545   2.969   4.638  1.9810 -0.5300  0.9390
  526MOL0     H69378  -0.541   3.058   4.785  0.4967 -0.3799 -0.2050
  526MOL0     H69379  -0.676   2.935   4.918  0.8403 -3.1263  1.6656
  526MOL0     H69380  -0.681   2.793   4.819 -2.0646 -0.6475 -1.5386
  526MOL0     H69381  -0.793   3.064   4.700 -2.2393  0.7077  0.7721
  526MOL0     H69382  -0.786   2.921   4.620  6.1163 -0.8608  0.3941
  526MOL0     H69383  -0.947   2.960   4.877 -3.8097 -1.1029  0.0895
  526MOL0     H69384  -0.940   2.805   4.801  0.1050  0.4923  2.1655
  526MOL0     H69385  -1.209   2.785   4.714 -2.8665  0.3131 -0.8267
  526MOL0     H69386  -1.433   3.011   4.535  0.9068  1.0464 -2.4448
  526MOL0     H69387  -1.422   2.854   4.629  0.9582 -0.1500  0.4828
  526MOL0     H69388  -1.480   2.830   4.371 -1.5448  3.7735 -0.1739
  526MOL0     H69389  -1.318   2.762   4.405  0.4697  0.2621 -0.0059
  526MOL0     H69390  -1.405   3.034   4.296  0.4180 -0.7801 -1.5651
  526MOL0     H69391  -1.234   2.999   4.334  1.9983 -1.8744 -3.4598
  526MOL0     H69392  -1.392   2.815   4.145 -1.8658  0.7998  1.1754
  526MOL0     H69393  -1.231   2.823   4.185 -0.0406  0.6906 -0.5654
  526MOL0     H69394  -1.316   3.223   3.929  0.6908 -3.1636 -0.9537
  526MOL0     H69395  -1.498   3.326   3.842 -0.9035  1.4369  1.9560
  526MOL0     H69396  -1.736   3.384   3.482  0.7301 -0.3619  0.2994
  526MOL0     H69397  -1.918   3.440   3.320  3.7194 -2.2847 -0.4262
  526MOL0     H69398  -2.206   3.651   3.441  0.9889 -0.6143 -1.1815
  526MOL0     H69399  -2.334   3.529   3.499 -1.1362 -0.3102 -0.6197
  526MOL0     H69400  -2.405   3.532   3.239  1.3447 -1.5757  0.9679
  526MOL0     H69401  -2.277   3.662   3.237 -1.1637  1.0181  0.0446
  526MOL0     H69402  -2.400   3.811   3.367  0.4762 -0.7745  0.4001
  526MOL0     H69403  -2.514   3.693   3.419 -0.6342  0.0547  0.0980
  526MOL0     H69404  -2.505   3.736   3.123  1.3994 -0.7848  0.5179
  526MOL0     H69405  -2.628   3.663   3.229  0.9469 -1.9452 -1.2659
  526MOL0     H69406  -2.657   3.907   3.130 -0.3715  0.9738  2.4298
  526MOL0     H69407  -2.540   3.953   3.252  0.5127  0.0977  0.6694
  526MOL0     H69408  -2.756   4.002   3.352 -0.5685  0.0520  0.0450
  526MOL0     H69409  -2.688   3.860   3.434 -4.2034 -0.3806  0.8330
  526MOL0     H69410  -2.819   3.698   3.350  0.8594  0.2382  2.6091
  526MOL0     H69411  -2.926   3.807   3.404  1.2430  0.1604  0.6871
  526MOL0     H69412  -2.998   3.729   3.200  0.3535 -0.6051 -0.2582
  526MOL0     H69413  -2.854   3.791   3.113  2.2829 -2.8878  2.7056
  526MOL0     H69414  -2.192   3.474   3.657  0.0600  2.6137 -0.2703
  526MOL0     H69415  -2.000   3.409   3.805 -1.1635  0.7398  1.0607
  526MOL0     H69416  -1.761   3.008   3.994  0.4680 -0.3166  1.2157
  526MOL0     H69417  -1.568   2.908   4.074  2.6153  2.0908  5.1553
  526MOL0     H69418   0.185   2.618   4.974 -0.5527  0.9541 -2.2935
  526MOL0     H69419   0.421   2.639   5.018  1.6102  1.1186  0.7085
  526MOL0     H69420   0.748   3.027   5.096 -1.4861 -1.5864 -0.7387
  526MOL0     H69421   0.958   3.108   5.126  0.2970  1.3334  1.5992
  526MOL0     H69422   1.176   3.088   5.065  1.6610 -2.2733 -0.3694
  526MOL0     H69423   1.325   3.064   5.135 -0.5616  2.2003 -0.6931
  526MOL0     H69424   1.225   3.290   5.197  1.3371  0.7772  0.6653
  526MOL0     H69425   1.106   3.207   5.293  1.1854  0.8646  1.7635
  526MOL0     H69426   1.405   3.215   5.334  2.0346 -0.7129  2.7190
  526MOL0     H69427   1.304   3.087   5.424 -1.0449  2.8596  3.9301
  526MOL0     H69428   1.289   3.396   5.434 -1.0859  0.1316 -0.5708
  526MOL0     H69429   1.201   3.284   5.542 -1.0156  0.8562 -2.0821
  526MOL0     H69430   1.573   3.366   5.716 -0.8001  0.3335  1.2928
  526MOL0     H69431   1.095   2.744   5.295 -1.6273 -1.6751 -0.3003
  526MOL0     H69432   0.849   2.638   5.258  3.1900 -0.8965  1.1259
  527MOL0     O69433   0.871  10.153   7.410 -0.2484 -0.4534 -0.2041
  527MOL0     C69434   0.844  10.029   7.409 -0.0115 -0.7144 -0.2752
  527MOL0     O69435   0.921   9.936   7.464 -0.0621  0.0723 -0.6244
  527MOL0     C69436   1.050   9.975   7.481  0.3273 -0.1329 -0.0974
  527MOL0     C69437   1.119  10.020   7.370 -1.0293  0.5127  0.2653
  527MOL0     C69438   1.258  10.054   7.382  0.5202  0.3244 -0.2377
  527MOL0     C69439   1.317  10.032   7.512  0.2443 -0.0150 -0.6423
  527MOL0     O69440   1.455  10.064   7.522  0.9083  0.1512 -1.0211
  527MOL0     C69441   1.492  10.121   7.651 -0.5115 -0.8671 -0.4424
  527MOL0     C69442   1.425  10.265   7.674 -0.6613  0.5088  0.8111
  527MOL0     C69443   1.445  10.368   7.568  0.0701  0.5892 -0.3528
  527MOL0     C69444   1.357  10.489   7.601  0.0385 -0.6692  0.0584
  527MOL0     C69445   1.359  10.585   7.478 -0.7609  0.1806 -0.4994
  527MOL0     C69446   1.226  10.596   7.406  0.2271  0.2896  0.2605
  527MOL0     C69447   1.243  10.703   7.296  0.3223 -0.4832 -0.7129
  527MOL0     C69448   1.214  10.843   7.359 -0.0089 -0.1352  1.2305
  527MOL0     N69449   1.235  10.959   7.270 -0.4595  0.2386  0.3394
  527MOL0     C69450   1.129  11.037   7.210  0.2630 -0.4402  0.1480
  527MOL0     C69451   1.187  11.119   7.127  0.1849 -0.4176 -0.5174
  527MOL0     C69452   1.112  11.219   7.031  0.0152  0.1949  0.0126
  527MOL0     C69453   1.014  11.305   7.112 -0.4840 -0.4833 -0.3285
  527MOL0     C69454   0.988  11.448   7.058 -0.4783 -0.0762  0.5926
  527MOL0     C69455   0.862  11.502   7.128 -0.2197  0.0922 -0.5341
  527MOL0     O69456   0.747  11.429   7.091 -0.0539 -0.0293 -0.0704
  527MOL0     C69457   0.613  11.446   7.133  0.4562 -0.0287  0.1562
  527MOL0     C69458   0.594  11.525   7.254  0.3334  0.4470 -0.9207
  527MOL0     C69459   0.467  11.524   7.313 -0.2960  0.3188  1.1251
  527MOL0     C69460   0.362  11.462   7.243  1.2131 -0.3406  0.2790
  527MOL0     C69461   0.231  11.468   7.309 -0.8266  0.5867 -0.0316
  527MOL0     O69462   0.229  11.486   7.441 -0.9936 -1.0293  0.1008
  527MOL0     C69463   0.122  11.433   7.501 -0.5359 -0.0399 -0.1551
  527MOL0     C69464   0.078  11.299   7.511  0.3470  0.7650 -0.4136
  527MOL0     C69465  -0.043  11.273   7.580 -0.4204 -0.2080  0.3921
  527MOL0     C69466  -0.120  11.374   7.634  0.5179  0.3166 -0.6482
  527MOL0     O69467  -0.232  11.332   7.704 -0.5313  0.0471 -0.1282
  527MOL0     C69468  -0.353  11.408   7.689 -0.7441  0.1092 -0.1093
  527MOL0     C69469  -0.365  11.509   7.808  0.5709 -0.0860  0.6027
  527MOL0     C69470  -0.508  11.562   7.823  0.8214  0.5290 -0.7063
  527MOL0     C69471  -0.583  11.636   7.708  0.2319  0.3258 -0.0757
  527MOL0     C69472  -0.520  11.772   7.684 -0.7114  0.1252  0.6078
  527MOL0     C69473  -0.615  11.882   7.642  0.2818  0.4690  0.8119
  527MOL0     C69474  -0.730  11.897   7.732  0.4838  0.3353  0.3671
  527MOL0     C69475  -0.808  12.017   7.660  0.6699 -0.4639  0.5169
  527MOL0    Cl69476  -0.888  11.973   7.496 -0.0432 -0.4535 -0.3703
  527MOL0     C69477  -0.083  11.504   7.626 -0.1628 -0.2944  1.3713
  527MOL0     C69478   0.039  11.534   7.562  0.2089  0.3492  0.7232
  527MOL0     O69479   0.140  11.423   7.242 -0.6503  0.0197 -0.3768
  527MOL0     C69480   0.389  11.382   7.130  0.1237  0.4460 -0.5184
  527MOL0     C69481   0.508  11.377   7.077  0.0595 -0.0002 -0.0370
  527MOL0     N69482   1.325  11.102   7.136 -0.1656 -0.2700  0.5806
  527MOL0     N69483   1.349  11.012   7.227 -0.4978  0.4567 -0.0349
  527MOL0     C69484   1.235   9.985   7.620  0.0425 -0.6584  0.7156
  527MOL0     C69485   1.106   9.959   7.608  0.5525 -0.8515  0.2508
  527MOL0     C69486   0.706   9.992   7.352  0.4120  0.4316  0.5903
  527MOL0     C69487   0.665   9.866   7.330  0.3520  0.5308  0.8119
  527MOL0     C69488   0.534   9.837   7.299 -0.5621 -0.4254  0.6290
  527MOL0     C69489   0.432   9.937   7.290 -0.3064  0.7235  0.0360
  527MOL0     O69490   0.309   9.881   7.272 -0.1143  0.1228 -0.2342
  527MOL0     C69491   0.198   9.970   7.259 -0.0665 -0.3928  0.3334
  527MOL0     C69492   0.065   9.906   7.300  0.1732 -0.8714 -0.0034
  527MOL0     C69493  -0.049   9.960   7.204 -0.2939  0.6739 -0.2576
  527MOL0     C69494  -0.182   9.961   7.270  0.5927  0.3664 -0.9968
  527MOL0     C69495  -0.294   9.959   7.175  0.0384  0.7117 -0.1358
  527MOL0     C69496  -0.380   9.967   7.090 -0.0428 -0.6902 -0.4020
  527MOL0     C69497   0.475  10.072   7.295 -1.0565 -0.2139 -0.0499
  527MOL0     C69498   0.615  10.097   7.326 -0.3510  0.5923 -0.2998
  527MOL0     H69499   1.064  10.038   7.277  1.7157  2.4055 -1.1107
  527MOL0     H69500   1.319  10.076   7.295  2.2096 -0.3913  0.7138
  527MOL0     H69501   1.598  10.126   7.678 -0.8311 -1.5685  1.0664
  527MOL0     H69502   1.466  10.055   7.734  2.2382 -2.0069 -0.3848
  527MOL0     H69503   1.460  10.306   7.770  0.5527  3.0637 -0.6087
  527MOL0     H69504   1.320  10.245   7.695 -0.6914 -0.3242 -0.0683
  527MOL0     H69505   1.415  10.328   7.471  1.9197  1.9785 -1.5795
  527MOL0     H69506   1.549  10.405   7.569  0.0408  0.8219 -2.6025
  527MOL0     H69507   1.255  10.462   7.627 -0.2784  1.2100  1.0200
  527MOL0     H69508   1.403  10.531   7.691  1.2272 -0.5622 -0.5765
  527MOL0     H69509   1.439  10.567   7.406  0.6031  0.0297  0.9990
  527MOL0     H69510   1.380  10.676   7.535 -2.9417  0.3866  0.0621
  527MOL0     H69511   1.130  10.602   7.458 -0.6391 -0.7117 -1.1396
  527MOL0     H69512   1.224  10.496   7.360 -0.2741  0.4790 -0.1254
  527MOL0     H69513   1.344  10.699   7.256  0.4533  0.4769 -0.4983
  527MOL0     H69514   1.178  10.694   7.208 -0.1750  0.7107 -0.4852
  527MOL0     H69515   1.267  10.869   7.451  2.4577  0.8684 -0.3683
  527MOL0     H69516   1.106  10.846   7.374 -0.0210  1.3359  0.9970
  527MOL0     H69517   1.022  11.038   7.226 -0.0601  4.5187 -0.5784
  527MOL0     H69518   1.046  11.159   6.969 -2.4929  3.4949 -0.7542
  527MOL0     H69519   1.177  11.272   6.961  0.7307  1.8447  1.8047
  527MOL0     H69520   1.043  11.303   7.217  0.2072  0.8657 -0.4834
  527MOL0     H69521   0.920  11.251   7.093  0.3830 -1.2557 -2.8612
  527MOL0     H69522   1.079  11.507   7.076 -0.3085 -0.0421 -0.2896
  527MOL0     H69523   0.975  11.458   6.950  1.6106 -2.1744  0.0582
  527MOL0     H69524   0.846  11.610   7.118  0.2360  0.0987 -1.2884
  527MOL0     H69525   0.879  11.481   7.234 -1.8123  1.0881 -0.0510
  527MOL0     H69526   0.678  11.576   7.301  0.4534 -1.6086  1.2710
  527MOL0     H69527   0.444  11.573   7.408 -1.7223  1.2807  0.3285
  527MOL0     H69528   0.133  11.219   7.462 -3.8435 -2.3680 -0.4938
  527MOL0     H69529  -0.079  11.170   7.584 -2.2802  0.1518 -3.3061
  527MOL0     H69530  -0.448  11.355   7.677  0.5119 -2.0622 -1.2086
  527MOL0     H69531  -0.335  11.459   7.594  1.2514  0.1124  0.2119
  527MOL0     H69532  -0.301  11.597   7.810 -0.8415  0.9748  0.4373
  527MOL0     H69533  -0.342  11.457   7.902  2.4281  0.4184  0.4609
  527MOL0     H69534  -0.507  11.624   7.913 -0.2947  1.2386 -1.1568
  527MOL0     H69535  -0.573  11.476   7.841  1.9615 -0.3473 -0.6774
  527MOL0     H69536  -0.594  11.575   7.618  1.1630 -1.7524  1.1472
  527MOL0     H69537  -0.684  11.646   7.747  0.0014 -1.0082 -0.2704
  527MOL0     H69538  -0.451  11.765   7.600 -0.4153  0.1754  0.8492
  527MOL0     H69539  -0.471  11.804   7.777 -2.6246  5.1648  0.2139
  527MOL0     H69540  -0.653  11.861   7.542  5.7358 -0.8607 -1.3464
  527MOL0     H69541  -0.557  11.974   7.632  0.2475  0.4773  0.7003
  527MOL0     H69542  -0.804  11.817   7.722 -0.4604  1.2629 -0.3507
  527MOL0     H69543  -0.704  11.920   7.836  0.9146  0.3907  0.2493
  527MOL0     H69544  -0.753  12.110   7.647 -0.3571 -0.2815 -4.3415
  527MOL0     H69545  -0.882  12.038   7.738 -2.0901 -1.3069 -1.7097
  527MOL0     H69546  -0.137  11.589   7.667  0.2863  0.5835  0.1868
  527MOL0     H69547   0.077  11.636   7.565 -1.3521  1.0360 -1.0934
  527MOL0     H69548   0.308  11.338   7.072 -0.3990  2.4126 -1.3556
  527MOL0     H69549   0.530  11.312   6.993  0.8655 -0.0520  0.2069
  527MOL0     H69550   1.300   9.971   7.707  1.6604  0.1765 -0.2979
  527MOL0     H69551   1.038   9.929   7.686 -1.7585 -1.5112 -1.8813
  527MOL0     H69552   0.728   9.778   7.341 -0.4241 -0.0737  0.5310
  527MOL0     H69553   0.507   9.736   7.271 -2.8726  0.7209 -1.7027
  527MOL0     H69554   0.190  10.004   7.155 -0.5328  0.5235  0.6616
  527MOL0     H69555   0.218  10.060   7.317  1.2947 -1.6046  1.8443
  527MOL0     H69556   0.054   9.799   7.283 -0.3720 -0.4590 -2.6578
  527MOL0     H69557   0.040   9.932   7.404  3.0581  4.4711 -0.2784
  527MOL0     H69558  -0.042   9.900   7.113  2.0133 -1.2400  1.0637
  527MOL0     H69559  -0.027  10.062   7.171 -1.8119  1.5942  1.3868
  527MOL0     H69560  -0.185   9.878   7.342  4.1752  1.5870  0.8457
  527MOL0     H69561  -0.186  10.055   7.326 -2.2908  0.1772 -0.7388
  527MOL0     H69562  -0.431   9.963   6.996  0.7099  1.7051 -0.9675
  527MOL0     H69563   0.404  10.150   7.269 -1.1435 -1.0210 -2.5362
  527MOL0     H69564   0.640  10.201   7.345 -0.0628  0.7072 -1.2275
  528MOL0     O69565   8.433   8.639   0.355  0.0371 -0.3220  0.4132
  528MOL0     C69566   8.537   8.577   0.353  0.3400 -0.3021  0.4892
  528MOL0     O69567   8.563   8.479   0.266 -0.8606  0.0783 -0.0196
  528MOL0     C69568   8.473   8.451   0.167 -0.5150  1.3551  0.0046
  528MOL0     C69569   8.440   8.314   0.164  0.1769 -0.1902  0.4682
  528MOL0     C69570   8.348   8.266   0.072  0.2622 -0.0865  0.5429
  528MOL0     C69571   8.285   8.345  -0.023 -0.4017  0.1153 -0.5725
  528MOL0     O69572   8.204   8.294  -0.112 -0.5030  0.3027  1.0829
  528MOL0     C69573   8.133   8.387  -0.206  0.0123  0.5257  0.6402
  528MOL0     C69574   8.047   8.292  -0.288 -0.0254 -0.4895  0.0938
  528MOL0     C69575   7.915   8.271  -0.224 -0.3968  0.1090  0.1630
  528MOL0     C69576   7.811   8.213  -0.325  0.2399  0.9073  0.8888
  528MOL0     C69577   7.687   8.142  -0.243 -0.4153 -0.7843 -0.7189
  528MOL0     C69578   7.608   8.255  -0.176 -0.3992 -0.4692 -0.3193
  528MOL0     C69579   7.479   8.203  -0.120  0.2970  0.0985 -0.3095
  528MOL0     C69580   7.390   8.321  -0.078  0.6729 -0.4223  0.5540
  528MOL0     N69581   7.445   8.423   0.011 -0.8298  0.1406  0.3107
  528MOL0     C69582   7.497   8.407   0.134  0.0915  0.0775 -0.1487
  528MOL0     C69583   7.539   8.526   0.186 -1.0564  0.2036  1.1472
  528MOL0     C69584   7.607   8.564   0.314  0.8071 -0.0802  0.8012
  528MOL0     C69585   7.527   8.561   0.438 -0.1928 -0.1914 -0.2550
  528MOL0     C69586   7.453   8.436   0.481 -0.1100  0.2031  0.5810
  528MOL0     C69587   7.379   8.441   0.611  0.3849  0.8507  0.0948
  528MOL0     O69588   7.456   8.512   0.707 -0.1643 -0.4742  0.8034
  528MOL0     C69589   7.397   8.545   0.824  0.2761 -0.7798 -0.0989
  528MOL0     C69590   7.272   8.508   0.869 -0.6207 -0.5436  0.6104
  528MOL0     C69591   7.226   8.544   0.998  0.0561 -0.5534  0.2046
  528MOL0     C69592   7.309   8.616   1.080 -0.5735 -0.3171 -0.5859
  528MOL0     C69593   7.271   8.660   1.218 -0.6857 -0.5427 -0.3239
  528MOL0     O69594   7.150   8.607   1.262  0.5859  0.7094  0.3269
  528MOL0     C69595   7.099   8.671   1.377 -0.0623  0.0611  0.9413
  528MOL0     C69596   7.071   8.577   1.486  0.0310  0.3442  0.4510
  528MOL0     C69597   7.005   8.617   1.600 -1.2181  0.3472 -0.1555
  528MOL0     C69598   6.966   8.750   1.618  0.2233 -0.6044 -0.0815
  528MOL0     O69599   6.877   8.792   1.715 -0.8618  0.3954  1.0940
  528MOL0     C69600   6.780   8.700   1.761 -0.4356 -0.4840 -0.4962
  528MOL0     C69601   6.697   8.784   1.857  0.3399  0.7733  0.0293
  528MOL0     C69602   6.590   8.697   1.929 -0.3077 -0.4288  0.6175
  528MOL0     C69603   6.544   8.763   2.065 -0.4652 -0.2541  0.4494
  528MOL0     C69604   6.437   8.679   2.136  0.2525  0.1388 -1.0692
  528MOL0     C69605   6.443   8.704   2.290  0.2974 -0.6784 -0.2971
  528MOL0     C69606   6.338   8.625   2.374  0.4013 -0.5997 -0.0918
  528MOL0     C69607   6.354   8.651   2.523 -0.1869  0.8551 -0.1185
  528MOL0    Cl69608   6.324   8.817   2.568  0.6608  0.2438  0.3212
  528MOL0     C69609   7.009   8.843   1.517 -0.2515  0.0157  0.4715
  528MOL0     C69610   7.068   8.802   1.399  0.3211 -0.2336  0.6716
  528MOL0     O69611   7.331   8.742   1.288  0.2478 -0.4773  0.0402
  528MOL0     C69612   7.442   8.648   1.035 -0.5986 -0.1295  0.0207
  528MOL0     C69613   7.487   8.614   0.907  0.0160  0.5694  0.6479
  528MOL0     N69614   7.512   8.625   0.091 -0.3674  0.8058 -0.1903
  528MOL0     N69615   7.452   8.564  -0.017 -0.6372 -0.3143  0.7341
  528MOL0     C69616   8.324   8.483  -0.015  0.7998 -0.4675  0.0833
  528MOL0     C69617   8.421   8.529   0.071 -0.3372 -0.1310 -0.1803
  528MOL0     C69618   8.646   8.619   0.443  0.0643 -0.0831 -1.6215
  528MOL0     C69619   8.647   8.750   0.497 -0.2595  0.5898 -0.0022
  528MOL0     C69620   8.735   8.800   0.598  1.4019 -0.4661  0.0907
  528MOL0     C69621   8.829   8.719   0.644  0.2474 -0.8339  0.1891
  528MOL0     O69622   8.945   8.751   0.713 -0.0341 -0.2468 -0.5770
  528MOL0     C69623   8.958   8.886   0.772  0.2433 -0.6783 -0.4668
  528MOL0     C69624   8.877   8.893   0.905 -0.8305  0.3937  0.6621
  528MOL0     C69625   8.952   8.834   1.031  0.4241 -0.5755 -0.1018
  528MOL0     C69626   9.074   8.916   1.076 -0.1658 -0.3232  0.4032
  528MOL0     C69627   9.140   8.878   1.203  0.6334 -0.3225 -0.9508
  528MOL0     C69628   9.190   8.849   1.312  0.1435 -0.1577 -0.2526
  528MOL0     C69629   8.834   8.588   0.597 -0.4253 -0.2059  0.0592
  528MOL0     C69630   8.750   8.542   0.500  0.6066  0.8073  0.9606
  528MOL0     H69631   8.475   8.243   0.238 -0.7851 -0.7169  0.4357
  528MOL0     H69632   8.336   8.158   0.081  0.1398 -0.1835 -0.6709
  528MOL0     H69633   8.203   8.433  -0.276 -0.5602  0.6087  0.1149
  528MOL0     H69634   8.079   8.470  -0.159 -1.3838  1.2426 -2.0809
  528MOL0     H69635   8.087   8.192  -0.306 -0.2058 -0.0816 -3.2129
  528MOL0     H69636   8.036   8.337  -0.387 -5.7688 -4.4887 -1.6561
  528MOL0     H69637   7.879   8.367  -0.185 -1.6700  0.7750 -2.3577
  528MOL0     H69638   7.937   8.199  -0.145  1.4936 -0.0369 -0.4499
  528MOL0     H69639   7.773   8.291  -0.392  0.1486  0.1627  0.0534
  528MOL0     H69640   7.848   8.138  -0.395 -1.0287  0.9976  0.0875
  528MOL0     H69641   7.729   8.074  -0.169  1.9986  2.2097  0.9136
  528MOL0     H69642   7.622   8.087  -0.311 -2.1137  1.4428 -1.0168
  528MOL0     H69643   7.589   8.328  -0.255 -1.4953 -2.0110 -1.5482
  528MOL0     H69644   7.658   8.291  -0.085  0.5485 -2.9359  0.2256
  528MOL0     H69645   7.428   8.140  -0.193 -2.5473 -0.0948  1.6977
  528MOL0     H69646   7.485   8.144  -0.028 -4.9027  0.1171  0.2951
  528MOL0     H69647   7.305   8.275  -0.027 -0.0224  0.8852  0.6205
  528MOL0     H69648   7.355   8.375  -0.167 -1.4770 -2.5227  0.0180
  528MOL0     H69649   7.496   8.313   0.189  1.8531 -0.3677 -0.8290
  528MOL0     H69650   7.649   8.664   0.307  1.4846 -0.4487 -0.9135
  528MOL0     H69651   7.692   8.499   0.338  2.0977  1.4257  0.4185
  528MOL0     H69652   7.447   8.634   0.422 -0.8417 -0.1162  2.7503
  528MOL0     H69653   7.597   8.590   0.517  0.9350 -1.0637 -0.9014
  528MOL0     H69654   7.380   8.406   0.404 -0.4073  1.8828  0.1758
  528MOL0     H69655   7.534   8.363   0.481  2.0707  2.4716 -0.4287
  528MOL0     H69656   7.364   8.339   0.648 -1.4674  0.3219 -1.9063
  528MOL0     H69657   7.285   8.485   0.575 -0.1127  0.5582  1.0042
  528MOL0     H69658   7.210   8.452   0.799  1.4436 -1.4004 -0.6348
  528MOL0     H69659   7.125   8.528   1.035  0.5533 -1.2741  1.3023
  528MOL0     H69660   7.068   8.469   1.484 -2.9726 -0.2680  7.5941
  528MOL0     H69661   6.972   8.553   1.681  0.7798  0.8057  1.0858
  528MOL0     H69662   6.828   8.620   1.818 -1.5126 -1.3841 -0.8253
  528MOL0     H69663   6.718   8.659   1.681 -1.1068  0.7574 -0.6466
  528MOL0     H69664   6.652   8.864   1.797 -0.5234  1.7176  1.8528
  528MOL0     H69665   6.749   8.825   1.944  1.4495 -1.6730  0.5957
  528MOL0     H69666   6.647   8.609   1.959  1.3905 -0.0982 -1.4206
  528MOL0     H69667   6.505   8.667   1.867 -0.7042  1.4971  0.1696
  528MOL0     H69668   6.634   8.773   2.126  0.6317 -2.7136 -0.6518
  528MOL0     H69669   6.495   8.858   2.040 -1.6637 -0.9847 -0.0392
  528MOL0     H69670   6.453   8.572   2.124  1.7550 -0.0607  1.9490
  528MOL0     H69671   6.336   8.703   2.102 -1.8346 -3.6665  1.6602
  528MOL0     H69672   6.445   8.812   2.303  1.6816 -0.8382  1.1814
  528MOL0     H69673   6.542   8.675   2.328  0.0653  0.1022  0.9694
  528MOL0     H69674   6.238   8.644   2.335  1.2477  2.6770 -1.0275
  528MOL0     H69675   6.352   8.518   2.360 -1.8692 -1.2272  1.9033
  528MOL0     H69676   6.449   8.613   2.561 -1.5109 -0.5354  2.0295
  528MOL0     H69677   6.279   8.593   2.577 -0.5567  2.2059  0.8828
  528MOL0     H69678   6.998   8.950   1.530  1.6719  0.5827 -1.8480
  528MOL0     H69679   7.104   8.874   1.326  0.6836 -0.0669  1.0117
  528MOL0     H69680   7.499   8.703   1.109 -3.3712  1.3773  1.2149
  528MOL0     H69681   7.587   8.646   0.880 -0.3389  2.1543  1.0881
  528MOL0     H69682   8.293   8.551  -0.093 -2.4161 -3.7659 -1.8307
  528MOL0     H69683   8.446   8.634   0.083  1.0493 -0.5093  0.3589
  528MOL0     H69684   8.571   8.813   0.451 -2.5365  0.1193  2.8184
  528MOL0     H69685   8.715   8.905   0.615 -0.4313 -0.5520 -1.2369
  528MOL0     H69686   8.927   8.963   0.701  2.2135 -0.2039 -0.8647
  528MOL0     H69687   9.065   8.902   0.791 -0.1427 -0.8582  2.2723
  528MOL0     H69688   8.862   8.999   0.925  1.7877  1.0651 -0.5229
  528MOL0     H69689   8.780   8.842   0.899 -1.6097  1.8761  0.0393
  528MOL0     H69690   8.984   8.733   1.006  1.5278  0.0807 -1.4947
  528MOL0     H69691   8.884   8.836   1.117 -3.2135 -1.7195 -2.6643
  528MOL0     H69692   9.146   8.897   0.995  0.2570 -0.4537  0.8011
  528MOL0     H69693   9.048   9.021   1.086 -0.4449 -0.1109 -1.9733
  528MOL0     H69694   9.212   8.822   1.413  0.4972 -1.3093 -0.6208
  528MOL0     H69695   8.913   8.522   0.629 -0.1746  0.0658  0.0006
  528MOL0     H69696   8.787   8.451   0.455  0.6689  0.5208  1.5696
  529MOL0     O69697  11.155   8.894   7.997 -0.1975 -0.3724 -0.1853
  529MOL0     C69698  11.190   8.797   8.055  0.0343 -0.2178 -0.2825
  529MOL0     O69699  11.106   8.721   8.139 -0.3799 -0.6899  0.2601
  529MOL0     C69700  10.992   8.787   8.194 -0.4332  0.1172  0.9983
  529MOL0     C69701  11.006   8.916   8.253  0.6676 -0.6969 -0.3640
  529MOL0     C69702  10.888   8.973   8.306  0.6351 -0.3462  0.9563
  529MOL0     C69703  10.761   8.915   8.296 -0.9712  0.3763 -0.7489
  529MOL0     O69704  10.648   8.978   8.356 -0.3320 -0.3231  1.0172
  529MOL0     C69705  10.526   8.966   8.280 -1.0944  0.1552 -0.2809
  529MOL0     C69706  10.456   9.095   8.327  0.4890  1.1263 -0.1539
  529MOL0     C69707  10.505   9.241   8.286  0.1305  0.4900 -0.4580
  529MOL0     C69708  10.662   9.258   8.293 -0.5825 -0.5728 -0.1859
  529MOL0     C69709  10.711   9.400   8.259 -0.2346 -0.0293 -0.4469
  529MOL0     C69710  10.855   9.399   8.199 -0.4053 -1.2255  0.9563
  529MOL0     C69711  10.962   9.361   8.305 -0.2415  0.6621  0.1739
  529MOL0     C69712  11.095   9.334   8.234 -0.2315 -0.3891 -0.4609
  529MOL0     N69713  11.200   9.424   8.269 -0.3836  0.9855  0.4287
  529MOL0     C69714  11.228   9.554   8.233  0.4850  0.2951  0.7429
  529MOL0     C69715  11.336   9.595   8.299 -0.9323  1.1179  0.5023
  529MOL0     C69716  11.411   9.735   8.303 -0.6895 -0.4410  0.5197
  529MOL0     C69717  11.521   9.732   8.202 -0.1913  0.1960 -0.2866
  529MOL0     C69718  11.599   9.866   8.192  0.0522  0.1071 -0.5734
  529MOL0     C69719  11.711   9.826   8.094  0.6370  0.3663 -0.2822
  529MOL0     O69720  11.799   9.940   8.084 -0.1719 -1.3130  0.6337
  529MOL0     C69721  11.892   9.980   8.178  0.6378  0.3931 -0.0294
  529MOL0     C69722  11.958  10.092   8.153 -0.3199 -0.6788  0.3802
  529MOL0     C69723  12.067  10.131   8.233 -0.3053  0.7316 -0.7112
  529MOL0     C69724  12.103  10.063   8.354  0.7940  0.1318  0.2016
  529MOL0     C69725  12.225  10.103   8.430  0.0296  0.3144  0.0259
  529MOL0     O69726  12.281  10.220   8.389  0.8030  0.3084 -0.3210
  529MOL0     C69727  12.396  10.262   8.438  0.6187 -0.2647  0.2670
  529MOL0     C69728  12.399  10.337   8.551  0.2646 -0.5399 -0.6348
  529MOL0     C69729  12.525  10.384   8.598 -0.3571  0.1029 -0.8118
  529MOL0     C69730  12.644  10.354   8.541  0.2175 -0.7613  0.7444
  529MOL0     O69731  12.758  10.406   8.590 -0.0399  0.4033  0.5621
  529MOL0     C69732  12.867  10.326   8.651  0.7277  0.1796  0.1720
  529MOL0     C69733  12.966  10.290   8.537  0.4697  0.1115  0.6792
  529MOL0     C69734  13.035  10.415   8.479 -0.4292 -0.4698  0.5722
  529MOL0     C69735  13.090  10.389   8.328 -0.8267 -0.2446 -0.0964
  529MOL0     C69736  13.210  10.288   8.325  0.0966  0.1588 -0.5011
  529MOL0     C69737  13.328  10.340   8.403 -0.2154 -0.6934  1.0114
  529MOL0     C69738  13.451  10.255   8.358 -0.5811  0.6281 -0.4601
  529MOL0     C69739  13.563  10.274   8.453 -0.3869 -0.1724  0.4248
  529MOL0    Cl69740  13.626  10.452   8.425 -0.0921  0.3887  0.0184
  529MOL0     C69741  12.631  10.279   8.415 -0.2774 -1.1079  0.1379
  529MOL0     C69742  12.512  10.243   8.362  0.8961 -0.2669 -0.3911
  529MOL0     O69743  12.262  10.036   8.528 -0.4442  0.3856  0.6790
  529MOL0     C69744  12.027   9.949   8.385 -0.3249 -0.3384  0.0493
  529MOL0     C69745  11.924   9.909   8.299 -0.2439 -0.7985 -0.4978
  529MOL0     N69746  11.382   9.482   8.372 -0.3526 -1.1213 -0.0434
  529MOL0     N69747  11.303   9.384   8.348 -0.4496 -0.1325  1.0894
  529MOL0     C69748  10.757   8.801   8.216  0.2218  0.1259 -0.7186
  529MOL0     C69749  10.864   8.735   8.156 -0.5803  0.3963  1.0063
  529MOL0     C69750  11.332   8.753   8.042 -0.7875 -0.5107 -0.1624
  529MOL0     C69751  11.380   8.658   8.137  0.2884  0.4388 -0.4746
  529MOL0     C69752  11.512   8.607   8.126  0.3244 -0.0540  0.4950
  529MOL0     C69753  11.591   8.645   8.019 -0.5256 -0.8112  0.2133
  529MOL0     O69754  11.713   8.593   7.989  0.6298 -0.7021  0.3230
  529MOL0     C69755  11.788   8.534   8.101  0.0709  0.0925 -0.9673
  529MOL0     C69756  11.935   8.548   8.060 -0.7221  0.0591 -0.0092
  529MOL0     C69757  12.007   8.686   8.097 -0.4314 -0.3369 -0.8300
  529MOL0     C69758  12.157   8.683   8.073  0.2473 -0.0606  0.2422
  529MOL0     C69759  12.185   8.660   7.927  0.1389 -0.3129 -0.0062
  529MOL0     C69760  12.209   8.628   7.813 -1.0767  0.3563 -0.1559
  529MOL0     C69761  11.550   8.740   7.927 -0.1793  0.7284  0.2944
  529MOL0     C69762  11.413   8.794   7.941 -0.7500 -0.2004 -0.1314
  529MOL0     H69763  11.104   8.962   8.259  0.6361  0.0313 -3.6086
  529MOL0     H69764  10.905   9.069   8.353 -0.2397  0.4827 -0.3592
  529MOL0     H69765  10.479   8.870   8.304  1.4632 -0.6766  1.7692
  529MOL0     H69766  10.543   8.976   8.172  2.5265  1.1740  0.2844
  529MOL0     H69767  10.455   9.103   8.436  1.1930  0.8073 -0.1196
  529MOL0     H69768  10.351   9.083   8.298  0.6091 -1.6213  0.2998
  529MOL0     H69769  10.466   9.314   8.357 -0.6032 -0.9328  0.6495
  529MOL0     H69770  10.463   9.272   8.190 -0.9611  0.1742 -0.0976
  529MOL0     H69771  10.698   9.223   8.390 -2.2468 -2.7170 -0.2674
  529MOL0     H69772  10.706   9.190   8.219  2.4151  2.6723 -1.6511
  529MOL0     H69773  10.690   9.473   8.337 -1.8773  0.7151 -1.5090
  529MOL0     H69774  10.639   9.424   8.180 -0.6388 -0.8204 -0.3334
  529MOL0     H69775  10.884   9.494   8.152 -0.1382 -1.7873 -0.0380
  529MOL0     H69776  10.848   9.328   8.117 -4.0840  1.1071 -1.0356
  529MOL0     H69777  10.977   9.434   8.385  0.1073  1.7754 -0.8812
  529MOL0     H69778  10.942   9.263   8.351 -0.5424  0.5852 -0.1167
  529MOL0     H69779  11.090   9.348   8.126 -0.4487  0.9190 -0.2973
  529MOL0     H69780  11.132   9.232   8.248 -1.7149 -0.9800 -0.6347
  529MOL0     H69781  11.164   9.606   8.162 -0.6730  1.0651  2.2673
  529MOL0     H69782  11.461   9.728   8.401 -1.8031 -2.5534  1.0047
  529MOL0     H69783  11.349   9.825   8.292  0.9328  0.7159  0.4883
  529MOL0     H69784  11.489   9.703   8.101 -0.9058  1.7075 -0.5203
  529MOL0     H69785  11.588   9.654   8.240 -0.4745  0.0832 -0.0154
  529MOL0     H69786  11.543   9.950   8.148  2.1559  0.4933 -2.7583
  529MOL0     H69787  11.626   9.898   8.293  0.1532  0.8413 -0.8257
  529MOL0     H69788  11.674   9.799   7.995  1.7299  1.5080 -1.0295
  529MOL0     H69789  11.772   9.739   8.123  1.5204 -0.4327 -3.9713
  529MOL0     H69790  11.935  10.148   8.063  2.1910 -2.3167 -1.3965
  529MOL0     H69791  12.124  10.219   8.206  1.4527  0.1163  0.7923
  529MOL0     H69792  12.301  10.343   8.598 -0.4664 -2.2793 -1.8142
  529MOL0     H69793  12.538  10.425   8.697 -3.6084  1.4528 -0.8330
  529MOL0     H69794  12.826  10.239   8.703 -1.2902 -0.0713 -1.7211
  529MOL0     H69795  12.920  10.380   8.730  2.7958 -0.4619 -0.6872
  529MOL0     H69796  12.906  10.241   8.460 -3.2611  1.8360  2.2350
  529MOL0     H69797  13.048  10.228   8.574  3.1962  3.4228  0.6819
  529MOL0     H69798  13.117  10.445   8.544  0.4051 -1.4541 -0.0032
  529MOL0     H69799  12.958  10.493   8.473  1.1964  1.1698  0.1059
  529MOL0     H69800  13.001  10.347   8.280  0.6587 -3.7861 -0.0534
  529MOL0     H69801  13.125  10.479   8.277  1.5206 -0.5882  0.7867
  529MOL0     H69802  13.228  10.256   8.222  0.8361 -0.6297 -0.1403
  529MOL0     H69803  13.173  10.197   8.372 -3.2047  0.6199 -1.9365
  529MOL0     H69804  13.320  10.330   8.512  3.3396  1.7029  1.6895
  529MOL0     H69805  13.343  10.446   8.380 -0.1214 -0.6972  1.0529
  529MOL0     H69806  13.427  10.150   8.372  1.6350 -0.2988 -2.8077
  529MOL0     H69807  13.476  10.265   8.252  0.9548  1.5904 -0.0511
  529MOL0     H69808  13.636  10.195   8.435 -3.1130 -2.7850  0.0328
  529MOL0     H69809  13.539  10.254   8.558  2.9105 -0.7135  1.1872
  529MOL0     H69810  12.720  10.254   8.358 -0.9584 -1.4870 -0.7735
  529MOL0     H69811  12.507  10.194   8.266  1.3655 -0.1840 -0.4590
  529MOL0     H69812  12.061   9.883   8.464 -1.0717  0.5894  1.1770
  529MOL0     H69813  11.866   9.822   8.327  1.2905 -1.9978 -0.8736
  529MOL0     H69814  10.656   8.765   8.197 -0.0986  0.3115  0.4825
  529MOL0     H69815  10.849   8.655   8.084 -1.1292  0.9599  0.4836
  529MOL0     H69816  11.327   8.618   8.222 -0.3779  0.5433 -0.8338
  529MOL0     H69817  11.552   8.534   8.195  0.5112 -0.9535 -0.5271
  529MOL0     H69818  11.767   8.429   8.121  1.4571  0.1017  0.7841
  529MOL0     H69819  11.768   8.588   8.194 -1.5298  0.1289 -1.3114
  529MOL0     H69820  12.000   8.483   8.120 -1.1786  0.3504  0.8265
  529MOL0     H69821  11.961   8.525   7.957  2.3173  1.1508  0.4351
  529MOL0     H69822  11.989   8.705   8.204  0.1225  0.5374 -0.8774
  529MOL0     H69823  11.954   8.754   8.030 -0.5518  0.0018 -0.3989
  529MOL0     H69824  12.188   8.786   8.093 -1.2380  0.2632  0.9846
  529MOL0     H69825  12.205   8.611   8.139 -1.4559 -0.9346  0.5853
  529MOL0     H69826  12.239   8.588   7.718 -0.8309  1.4253 -0.5446
  529MOL0     H69827  11.609   8.784   7.847 -1.8342  0.8099 -0.9322
  529MOL0     H69828  11.367   8.868   7.875 -2.8033  0.8889  2.3452
  530MOL0     O69829   9.686   8.132   4.934  0.0985  0.4979 -0.3347
  530MOL0     C69830   9.732   8.227   4.997 -0.6607 -0.5281 -0.3382
  530MOL0     O69831   9.863   8.231   5.044 -0.0299  0.4066  0.2980
  530MOL0     C69832   9.941   8.121   5.015 -0.3370  0.1976 -0.3805
  530MOL0     C69833   9.922   7.990   5.081 -0.3220 -0.5078 -0.4895
  530MOL0     C69834  10.015   7.887   5.063 -0.2194  0.7212  0.1954
  530MOL0     C69835  10.125   7.903   4.974  0.6034 -0.1622  0.5397
  530MOL0     O69836  10.225   7.815   4.952  0.2814 -0.6504  0.8512
  530MOL0     C69837  10.214   7.682   5.024 -0.5450 -0.1355 -0.8716
  530MOL0     C69838  10.314   7.579   4.965  0.7000 -0.6864 -0.5255
  530MOL0     C69839  10.292   7.429   5.010  0.6450 -0.5213  0.0154
  530MOL0     C69840  10.204   7.367   4.911  0.0348  0.3938  0.3219
  530MOL0     C69841  10.155   7.217   4.940 -0.5907  0.7035  0.5265
  530MOL0     C69842  10.262   7.115   4.994 -1.3283  0.1104 -0.0656
  530MOL0     C69843  10.217   6.962   4.979 -0.5696 -0.0995  0.5336
  530MOL0     C69844  10.080   6.940   5.048 -1.0269  0.1599 -0.4708
  530MOL0     N69845  10.051   6.797   5.040  0.2173  0.3262 -1.4370
  530MOL0     C69846  10.082   6.711   5.144 -0.4881 -0.0767  0.1236
  530MOL0     C69847  10.023   6.600   5.116  0.0531 -1.0651  0.0413
  530MOL0     C69848  10.030   6.499   5.223  0.4193  0.2838  0.5825
  530MOL0     C69849  10.046   6.352   5.172 -1.0759  0.9116 -0.2820
  530MOL0     C69850  10.090   6.254   5.289 -0.7255  0.8797  0.7944
  530MOL0     C69851   9.980   6.213   5.387  0.3772  0.1340  0.4007
  530MOL0     O69852   9.970   6.306   5.505 -0.4414  0.3945  0.2033
  530MOL0     C69853  10.079   6.333   5.582  1.5476  0.7338  0.1731
  530MOL0     C69854  10.106   6.468   5.612  0.2576 -1.5006 -0.6246
  530MOL0     C69855  10.221   6.508   5.683  0.1336 -0.1494 -0.1059
  530MOL0     C69856  10.317   6.412   5.728  0.5989  0.4801  0.1282
  530MOL0     C69857  10.442   6.443   5.790  0.1613 -0.0087 -0.0427
  530MOL0     O69858  10.525   6.338   5.794 -0.6468  0.0656 -0.6301
  530MOL0     C69859  10.643   6.364   5.857 -0.0172 -0.0446  0.0199
  530MOL0     C69860  10.739   6.449   5.797  0.5219  0.4264 -0.8090
  530MOL0     C69861  10.863   6.471   5.850 -0.2220 -0.6206  0.4679
  530MOL0     C69862  10.899   6.394   5.956 -0.3492  0.4304  0.4773
  530MOL0     O69863  11.024   6.392   6.009 -0.8972  0.2930 -0.0378
  530MOL0     C69864  11.131   6.441   5.926  0.0632 -0.7949  0.2309
  530MOL0     C69865  11.257   6.397   6.000  0.3175 -0.6191 -1.0985
  530MOL0     C69866  11.383   6.429   5.918  0.5316 -0.5415 -0.3557
  530MOL0     C69867  11.388   6.581   5.867  0.0174 -0.4737 -0.7496
  530MOL0     C69868  11.524   6.637   5.844 -0.5185 -0.4617  0.6488
  530MOL0     C69869  11.612   6.562   5.750  0.2782  0.2597 -0.0856
  530MOL0     C69870  11.763   6.599   5.775 -0.5719  0.7300 -0.9910
  530MOL0     C69871  11.817   6.513   5.886 -0.5857  0.9928  0.9280
  530MOL0    Cl69872  11.802   6.341   5.813  0.1701 -0.0884 -0.3826
  530MOL0     C69873  10.807   6.308   6.015  0.1850 -0.1922  0.1020
  530MOL0     C69874  10.678   6.306   5.973 -0.2800 -0.0560 -0.6424
  530MOL0     O69875  10.458   6.557   5.841  0.8675  0.6180  1.0191
  530MOL0     C69876  10.287   6.271   5.702 -0.0418 -1.2408  0.3810
  530MOL0     C69877  10.178   6.240   5.623  0.5493 -0.3352  0.9441
  530MOL0     N69878   9.944   6.617   4.996 -0.4450 -0.4422  0.6545
  530MOL0     N69879   9.971   6.737   4.952  0.7606 -0.3122 -0.1390
  530MOL0     C69880  10.160   8.033   4.930  0.2227 -0.3851  0.3611
  530MOL0     C69881  10.063   8.130   4.949 -0.5985  0.6881 -0.5913
  530MOL0     C69882   9.651   8.350   5.027  0.2207 -0.5925  0.1177
  530MOL0     C69883   9.702   8.478   5.068 -0.1473 -0.5984  0.9958
  530MOL0     C69884   9.615   8.580   5.087 -0.0014 -0.1574 -0.0462
  530MOL0     C69885   9.479   8.563   5.083 -0.5146 -0.6141 -0.4232
  530MOL0     O69886   9.400   8.674   5.114 -0.6043 -0.2317 -0.3930
  530MOL0     C69887   9.265   8.689   5.097 -0.5650  0.3092 -0.6035
  530MOL0     C69888   9.226   8.833   5.101 -0.2288  0.4158 -0.8059
  530MOL0     C69889   9.273   8.908   4.974  0.3527  0.2186  0.1226
  530MOL0     C69890   9.270   9.061   4.988  0.2687 -0.4409 -0.3021
  530MOL0     C69891   9.362   9.104   5.092 -0.1376  0.0485  0.0771
  530MOL0     C69892   9.445   9.145   5.171  0.0991 -0.5080  0.3973
  530MOL0     C69893   9.426   8.437   5.065  0.1410  0.9250 -0.2937
  530MOL0     C69894   9.512   8.336   5.021  0.5143  0.1186  0.6000
  530MOL0     H69895   9.835   7.979   5.145  0.1003  2.4016  0.7427
  530MOL0     H69896   9.983   7.789   5.098  0.9157  0.7191  1.3113
  530MOL0     H69897  10.114   7.638   5.012 -1.5807  1.0356  2.3664
  530MOL0     H69898  10.239   7.693   5.130  2.4026 -0.7277 -1.4163
  530MOL0     H69899  10.417   7.610   4.984  0.4886 -1.0420  1.4526
  530MOL0     H69900  10.304   7.594   4.857 -0.3717  1.3523 -0.1767
  530MOL0     H69901  10.252   7.429   5.112  4.6959 -1.0108  1.7686
  530MOL0     H69902  10.387   7.375   5.007 -0.6445 -3.2423  2.5127
  530MOL0     H69903  10.113   7.426   4.897  0.0293  0.8200  1.9610
  530MOL0     H69904  10.249   7.375   4.812 -1.6861 -0.6622 -0.6045
  530MOL0     H69905  10.125   7.181   4.841  1.3701  1.5010 -0.4154
  530MOL0     H69906  10.058   7.218   4.990 -0.3684  1.5001  0.9672
  530MOL0     H69907  10.274   7.127   5.102  0.7079 -0.9597 -0.1306
  530MOL0     H69908  10.361   7.131   4.951 -2.2499 -1.8202 -3.3152
  530MOL0     H69909  10.204   6.946   4.872  0.3230 -2.9852  0.7919
  530MOL0     H69910  10.298   6.901   5.019  3.8427  3.0955 -2.5995
  530MOL0     H69911   9.999   7.000   5.005 -1.6102 -1.1819 -1.2887
  530MOL0     H69912  10.086   6.968   5.154  1.0419 -1.0937 -0.2132
  530MOL0     H69913  10.161   6.725   5.217 -1.0359  2.4664  0.2982
  530MOL0     H69914   9.939   6.494   5.284  0.3977  1.7609  0.7058
  530MOL0     H69915  10.112   6.526   5.290  2.3082  1.8485 -2.1508
  530MOL0     H69916  10.124   6.352   5.095  0.8304 -3.4855  1.3081
  530MOL0     H69917   9.954   6.318   5.125 -0.9908 -0.9560  0.7866
  530MOL0     H69918  10.133   6.169   5.236 -2.2894  0.6416 -0.1475
  530MOL0     H69919  10.171   6.304   5.343  1.9572  0.4429 -2.5275
  530MOL0     H69920  10.008   6.112   5.417  0.4368 -1.0246 -3.1096
  530MOL0     H69921   9.890   6.208   5.326  0.9690 -0.2651 -0.4655
  530MOL0     H69922  10.039   6.543   5.572 -1.1467 -3.0085 -1.1712
  530MOL0     H69923  10.229   6.609   5.721 -1.4636 -1.2237  3.5264
  530MOL0     H69924  10.722   6.505   5.705 -1.3928  0.2588 -0.6150
  530MOL0     H69925  10.933   6.539   5.801  0.1709 -2.9781 -2.5117
  530MOL0     H69926  11.135   6.549   5.906  1.7573 -1.2085 -2.0490
  530MOL0     H69927  11.117   6.407   5.824  2.3674  2.1857 -1.2679
  530MOL0     H69928  11.258   6.290   6.026 -2.1273 -0.0930  1.5436
  530MOL0     H69929  11.270   6.452   6.093 -2.6599 -1.0019 -0.3722
  530MOL0     H69930  11.391   6.369   5.827  0.8371 -0.7108 -0.2183
  530MOL0     H69931  11.470   6.414   5.983 -0.5593 -2.3602  0.7461
  530MOL0     H69932  11.333   6.591   5.773  0.6423  2.0461 -0.9233
  530MOL0     H69933  11.337   6.651   5.933  2.6435  1.2411 -0.4215
  530MOL0     H69934  11.578   6.648   5.939 -0.4953  0.8248  0.5050
  530MOL0     H69935  11.513   6.738   5.804 -1.7038 -1.6616 -2.2665
  530MOL0     H69936  11.581   6.580   5.647 -1.3483 -3.6319 -0.4271
  530MOL0     H69937  11.595   6.455   5.766  0.1043 -0.0243 -1.9453
  530MOL0     H69938  11.820   6.592   5.683  2.0593  1.9161  0.4244
  530MOL0     H69939  11.776   6.704   5.806 -1.6797 -0.2339  3.4700
  530MOL0     H69940  11.766   6.522   5.982  0.3640  0.5265  1.4928
  530MOL0     H69941  11.922   6.540   5.904 -0.0080  1.0425 -2.0029
  530MOL0     H69942  10.840   6.264   6.109  0.2114 -1.1606 -0.3438
  530MOL0     H69943  10.596   6.248   6.016 -2.7346  2.1742 -2.0359
  530MOL0     H69944  10.360   6.195   5.725 -0.7010 -2.9339 -2.5437
  530MOL0     H69945  10.173   6.136   5.593  0.6555 -0.8690  2.6808
  530MOL0     H69946  10.254   8.056   4.881  0.1435  0.4585  0.5909
  530MOL0     H69947  10.076   8.228   4.904  1.7272  0.4136 -0.6345
  530MOL0     H69948   9.806   8.498   5.090  0.5419 -1.3320 -1.2652
  530MOL0     H69949   9.650   8.680   5.110 -2.3043  0.8361 -0.5902
  530MOL0     H69950   9.214   8.647   5.184 -1.0739 -1.4894 -1.7072
  530MOL0     H69951   9.229   8.640   5.006 -2.8710  1.9864 -0.6865
  530MOL0     H69952   9.117   8.844   5.100 -0.4493  0.0286  3.0883
  530MOL0     H69953   9.258   8.879   5.194 -2.8438  0.3298  0.2338
  530MOL0     H69954   9.206   8.871   4.896  0.5523 -0.9777  0.5112
  530MOL0     H69955   9.376   8.875   4.957  1.2346  3.7525 -2.7643
  530MOL0     H69956   9.311   9.112   4.901  0.9511 -1.1928 -0.4318
  530MOL0     H69957   9.167   9.094   5.008 -0.0216 -1.2009 -0.4960
  530MOL0     H69958   9.521   9.194   5.228  1.8386  0.0820 -2.2237
  530MOL0     H69959   9.321   8.419   5.082  0.1362  1.6582  0.5424
  530MOL0     H69960   9.462   8.244   4.995 -0.9169  0.8057  0.8465
  531MOL0     O69961   9.478   6.350   6.264  0.2486  0.2012  0.8276
  531MOL0     C69962   9.430   6.462   6.288  0.5244 -1.6143 -0.1863
  531MOL0     O69963   9.480   6.557   6.367  0.7690 -0.0283 -0.6430
  531MOL0     C69964   9.610   6.545   6.400 -0.3633 -0.4227 -0.1126
  531MOL0     C69965   9.642   6.544   6.532 -1.2415 -0.3034 -0.1728
  531MOL0     C69966   9.775   6.537   6.576 -0.8817 -1.0158 -0.3586
  531MOL0     C69967   9.879   6.527   6.489  0.4835 -0.7944  0.2502
  531MOL0     O69968  10.016   6.507   6.506 -0.1758  0.6535  0.3647
  531MOL0     C69969  10.081   6.533   6.627  0.4082 -0.3733 -0.3314
  531MOL0     C69970  10.231   6.496   6.610  0.7485  0.0897 -0.6354
  531MOL0     C69971  10.253   6.348   6.653 -0.0783  0.3075 -0.1900
  531MOL0     C69972  10.402   6.312   6.640 -0.4691  0.3303 -1.1310
  531MOL0     C69973  10.450   6.252   6.781 -0.3817  0.3015  0.4406
  531MOL0     C69974  10.584   6.169   6.757 -0.4632  0.5215  0.5378
  531MOL0     C69975  10.699   6.193   6.858  0.2317  1.1363  0.3032
  531MOL0     C69976  10.651   6.192   7.008  0.1566  0.5225 -0.6915
  531MOL0     N69977  10.765   6.200   7.101  0.4464 -0.0128 -0.3365
  531MOL0     C69978  10.881   6.132   7.092 -0.5122 -0.7200  0.0368
  531MOL0     C69979  10.967   6.185   7.189 -0.0044  0.0369  0.3041
  531MOL0     C69980  11.118   6.165   7.220  0.2461 -0.6233 -0.3615
  531MOL0     C69981  11.218   6.283   7.202 -0.2310  0.8150 -0.2002
  531MOL0     C69982  11.360   6.245   7.249  0.0022  0.3026 -0.0595
  531MOL0     C69983  11.446   6.366   7.237  0.8203 -0.1788  0.7072
  531MOL0     O69984  11.586   6.323   7.227  0.1252  0.2255 -0.5712
  531MOL0     C69985  11.695   6.401   7.272  0.4366 -0.7288  0.5423
  531MOL0     C69986  11.821   6.338   7.272 -0.9244 -0.1167 -0.4827
  531MOL0     C69987  11.947   6.398   7.304 -0.0566 -0.5720  0.1656
  531MOL0     C69988  11.943   6.535   7.341  0.5993  0.2521 -0.6058
  531MOL0     C69989  12.063   6.607   7.393 -1.0563 -0.0110  0.1319
  531MOL0     O69990  12.181   6.545   7.353 -0.5428 -0.3844 -0.0013
  531MOL0     C69991  12.304   6.594   7.388 -0.1206  0.0895  0.2636
  531MOL0     C69992  12.337   6.722   7.424 -0.0980  0.4970 -0.8649
  531MOL0     C69993  12.464   6.757   7.453 -0.7461  0.0864 -0.0265
  531MOL0     C69994  12.569   6.671   7.439  0.9480  0.4912  1.0400
  531MOL0     O69995  12.693   6.703   7.454 -0.1684  0.0494 -0.2920
  531MOL0     C69996  12.720   6.826   7.526  0.3102  0.4411 -0.6331
  531MOL0     C69997  12.871   6.847   7.551 -0.3522  0.5108  0.3126
  531MOL0     C69998  12.924   6.909   7.423  0.5014 -1.0096 -0.4314
  531MOL0     C69999  13.066   6.966   7.418  0.7491 -0.7203  0.7773
  531MOL0     C70000  13.122   7.003   7.279 -0.3305  0.2035 -0.1111
  531MOL0     C70001  13.247   7.104   7.278 -0.0221  1.7058 -0.4658
  531MOL0     C70002  13.369   7.038   7.341 -1.1980  1.2727  0.2015
  531MOL0     C70003  13.488   7.130   7.334 -0.2056 -0.3344 -0.4043
  531MOL0    Cl70004  13.647   7.063   7.407  0.0566  0.5860  0.2285
  531MOL0     C70005  12.544   6.545   7.381  0.5699 -0.1818  0.3119
  531MOL0     C70006  12.411   6.507   7.355 -0.2359  0.6464 -0.6216
  531MOL0     O70007  12.059   6.709   7.457  0.4398  0.4333  0.0721
  531MOL0     C70008  11.816   6.606   7.335 -0.6401 -0.4135 -0.7219
  531MOL0     C70009  11.697   6.540   7.291  0.2730  0.4161  0.8373
  531MOL0     N70010  10.889   6.269   7.266 -0.2415  0.5449  0.0057
  531MOL0     N70011  10.767   6.273   7.221 -0.2101 -0.5675 -0.3917
  531MOL0     C70012   9.849   6.534   6.352 -0.3613  0.0271 -0.3510
  531MOL0     C70013   9.717   6.541   6.307 -0.0108 -0.3073 -0.5259
  531MOL0     C70014   9.312   6.498   6.192 -0.0825  0.6621  0.1713
  531MOL0     C70015   9.276   6.411   6.082 -1.4234 -1.2842 -0.5800
  531MOL0     C70016   9.164   6.432   5.999  0.3008 -0.5452  0.6859
  531MOL0     C70017   9.082   6.547   6.023  0.0355 -0.3247  0.9836
  531MOL0     O70018   8.981   6.573   5.929 -0.3406  0.5671 -0.3744
  531MOL0     C70019   8.891   6.685   5.948  1.4728 -0.5128  0.5674
  531MOL0     C70020   8.778   6.698   5.848  0.2210 -0.0505  0.3176
  531MOL0     C70021   8.836   6.673   5.705 -0.2021  0.2206 -0.7672
  531MOL0     C70022   8.736   6.713   5.602  0.3544  0.0245  0.4724
  531MOL0     C70023   8.791   6.699   5.476  0.1847 -0.2224  0.7403
  531MOL0     C70024   8.837   6.685   5.365 -0.1377 -0.1517  0.6492
  531MOL0     C70025   9.121   6.634   6.130 -0.3428 -0.0366 -0.1330
  531MOL0     C70026   9.230   6.606   6.213 -0.2361 -0.2563 -0.3953
  531MOL0     H70027   9.570   6.535   6.612  2.2880  1.5102  3.5848
  531MOL0     H70028   9.780   6.533   6.685  0.3073  0.8916 -0.3061
  531MOL0     H70029  10.019   6.473   6.694 -2.6893  2.3192 -0.5511
  531MOL0     H70030  10.082   6.632   6.673 -2.6148  0.6480 -2.1808
  531MOL0     H70031  10.285   6.569   6.670 -1.1181  0.1723  1.0742
  531MOL0     H70032  10.255   6.503   6.503  2.1241  0.0531 -0.3428
  531MOL0     H70033  10.200   6.287   6.579 -2.9601  1.8411  0.5005
  531MOL0     H70034  10.215   6.343   6.755  0.8589 -1.9910  0.1311
  531MOL0     H70035  10.422   6.241   6.560  1.0812 -1.4156  0.6824
  531MOL0     H70036  10.457   6.403   6.613 -1.6854  1.2359 -0.6806
  531MOL0     H70037  10.360   6.205   6.823  1.0256 -0.8781  2.2696
  531MOL0     H70038  10.486   6.331   6.847  1.5186 -1.2563  1.3938
  531MOL0     H70039  10.625   6.195   6.659  1.9478  1.7841  1.7710
  531MOL0     H70040  10.544   6.067   6.753  1.1007 -0.2678  2.7024
  531MOL0     H70041  10.761   6.105   6.837  0.4598  0.7975  2.2221
  531MOL0     H70042  10.746   6.287   6.827  3.9874 -1.2402 -2.0008
  531MOL0     H70043  10.609   6.092   7.023 -3.6753  2.1960  1.1444
  531MOL0     H70044  10.579   6.269   7.033 -0.6094 -0.0586 -1.0693
  531MOL0     H70045  10.909   6.063   7.012 -2.5275 -2.8551  1.0825
  531MOL0     H70046  11.148   6.084   7.153  1.0649  0.5456 -1.4460
  531MOL0     H70047  11.127   6.128   7.322 -0.1263 -1.0533 -0.4827
  531MOL0     H70048  11.187   6.377   7.248 -1.0302  1.1239 -1.3485
  531MOL0     H70049  11.210   6.302   7.095 -0.5995  2.4437  0.1008
  531MOL0     H70050  11.375   6.220   7.354  1.6123  0.6951 -0.1785
  531MOL0     H70051  11.408   6.171   7.184  0.8907  1.4822 -0.7864
  531MOL0     H70052  11.436   6.432   7.324 -0.0868  0.2883  0.2626
  531MOL0     H70053  11.424   6.417   7.142  3.0124 -1.0491 -0.3273
  531MOL0     H70054  11.827   6.232   7.253 -0.5373 -0.7546  2.6273
  531MOL0     H70055  12.034   6.336   7.317  0.8389  0.1308 -2.0389
  531MOL0     H70056  12.265   6.803   7.434 -0.6333  0.0267 -0.8417
  531MOL0     H70057  12.490   6.861   7.470 -0.6930  0.0322  0.2243
  531MOL0     H70058  12.665   6.830   7.621  0.9200 -2.1440 -0.1124
  531MOL0     H70059  12.683   6.912   7.468 -1.4157  0.0092 -0.2546
  531MOL0     H70060  12.912   6.753   7.590 -2.7249 -0.0564  1.6487
  531MOL0     H70061  12.880   6.908   7.641  1.8050  0.9184 -0.1402
  531MOL0     H70062  12.854   6.984   7.385  2.2453  0.3388 -1.1127
  531MOL0     H70063  12.916   6.834   7.343  2.0410 -2.4004  0.6432
  531MOL0     H70064  13.077   7.056   7.480 -2.8704  0.9108 -0.6015
  531MOL0     H70065  13.127   6.888   7.464  2.6577 -1.7032 -3.0592
  531MOL0     H70066  13.035   7.038   7.225 -1.0432  0.1647  0.9750
  531MOL0     H70067  13.158   6.917   7.222 -2.0371 -1.4043  1.1253
  531MOL0     H70068  13.234   7.194   7.339  3.5783  1.5020  0.8483
  531MOL0     H70069  13.266   7.144   7.178 -3.4339 -1.0409 -2.4717
  531MOL0     H70070  13.352   7.016   7.447  6.1997  1.4029  1.9613
  531MOL0     H70071  13.392   6.945   7.289  0.4043  0.2532  2.5778
  531MOL0     H70072  13.451   7.217   7.389 -2.4211 -1.1132 -0.5356
  531MOL0     H70073  13.530   7.160   7.238  2.3485 -0.7805  0.5191
  531MOL0     H70074  12.632   6.487   7.353 -0.0327 -0.7608 -0.4174
  531MOL0     H70075  12.399   6.410   7.308  0.7483  0.7588 -1.1233
  531MOL0     H70076  11.805   6.711   7.361  0.3993 -0.9724  2.3467
  531MOL0     H70077  11.608   6.601   7.285  1.0654  1.4770 -2.2164
  531MOL0     H70078   9.931   6.524   6.281  1.7281  0.5628  1.8724
  531MOL0     H70079   9.705   6.543   6.199  3.1620 -0.9128 -0.9702
  531MOL0     H70080   9.331   6.321   6.054  2.0993  0.6677 -0.5238
  531MOL0     H70081   9.148   6.370   5.911 -0.8781  0.8310 -0.1033
  531MOL0     H70082   8.952   6.774   5.930 -1.1732  1.6355  1.5317
  531MOL0     H70083   8.840   6.686   6.044  0.0160  1.0669 -0.1601
  531MOL0     H70084   8.709   6.616   5.872  0.0936  0.2891  1.1375
  531MOL0     H70085   8.727   6.793   5.862 -2.6405 -1.6713  1.6432
  531MOL0     H70086   8.861   6.568   5.687 -1.9211 -0.2831 -0.3468
  531MOL0     H70087   8.927   6.733   5.696 -2.0589  3.0285 -3.0258
  531MOL0     H70088   8.653   6.641   5.603 -0.3451  0.8111  1.3124
  531MOL0     H70089   8.698   6.815   5.614  2.5923  0.8399  1.0390
  531MOL0     H70090   8.881   6.682   5.267  0.7592 -1.9634  1.0780
  531MOL0     H70091   9.063   6.724   6.143 -3.0865 -1.3485 -2.2542
  531MOL0     H70092   9.231   6.663   6.305 -1.1324 -3.8430  2.0600
  532MOL0     O70093  11.266   8.028   3.041  0.1842  0.3329  0.0151
  532MOL0     C70094  11.332   7.935   2.999 -0.6509  0.3355 -1.0979
  532MOL0     O70095  11.337   7.897   2.869  0.0613  0.0051  0.1613
  532MOL0     C70096  11.237   7.899   2.775  0.2914 -0.2314 -0.7094
  532MOL0     C70097  11.278   7.915   2.644 -1.1988 -0.2069 -0.4614
  532MOL0     C70098  11.195   7.952   2.539  0.2529 -0.7085 -0.2235
  532MOL0     C70099  11.065   7.990   2.568  0.2106 -0.5529 -0.1032
  532MOL0     O70100  10.996   8.044   2.466  0.6745  0.1699 -0.1708
  532MOL0     C70101  10.892   8.143   2.501 -0.4247  0.1904 -0.1639
  532MOL0     C70102  10.839   8.165   2.365 -0.1087 -0.4569 -0.6006
  532MOL0     C70103  10.947   8.232   2.284 -1.8171  0.2577 -0.0205
  532MOL0     C70104  10.909   8.256   2.136 -0.1450  0.5847 -0.0620
  532MOL0     C70105  11.020   8.326   2.045 -0.0600 -0.5680  0.7679
  532MOL0     C70106  11.000   8.483   2.030 -1.2356  0.1447 -0.4170
  532MOL0     C70107  10.956   8.525   1.892 -0.4316  0.5113 -0.0104
  532MOL0     C70108  10.914   8.675   1.890  0.4558 -0.9847  0.9869
  532MOL0     N70109  10.847   8.718   1.764  0.3238 -0.3625  0.4119
  532MOL0     C70110  10.711   8.712   1.745 -0.2531 -0.6857  0.0610
  532MOL0     C70111  10.699   8.758   1.621  0.4783 -0.4167 -0.2346
  532MOL0     C70112  10.576   8.767   1.536  0.4575  0.2961  0.4427
  532MOL0     C70113  10.550   8.632   1.463 -0.2084  0.8795 -0.2017
  532MOL0     C70114  10.502   8.512   1.545  0.4304  0.1204 -0.2180
  532MOL0     C70115  10.378   8.541   1.634 -0.4192  0.3803  0.7307
  532MOL0     O70116  10.342   8.444   1.736  0.3155  0.3599  0.3232
  532MOL0     C70117  10.226   8.474   1.796 -0.4369 -0.2578  0.2652
  532MOL0     C70118  10.183   8.360   1.872 -0.4039 -0.0693  0.3011
  532MOL0     C70119  10.079   8.360   1.953  0.6360  0.5607 -0.1431
  532MOL0     C70120  10.000   8.474   1.963 -0.8367 -0.8195  0.5757
  532MOL0     C70121   9.882   8.481   2.056 -0.9611  0.0570 -0.2115
  532MOL0     O70122   9.828   8.605   2.079 -0.8887  0.5118 -0.1049
  532MOL0     C70123   9.699   8.607   2.115  0.3519  0.4328  0.4893
  532MOL0     C70124   9.657   8.589   2.249 -0.2473  0.6729 -0.5439
  532MOL0     C70125   9.528   8.598   2.305  0.1102 -0.6921 -0.4079
  532MOL0     C70126   9.426   8.623   2.210  0.0199 -0.1982 -0.1658
  532MOL0     O70127   9.290   8.642   2.245  0.3909 -0.5850 -0.8284
  532MOL0     C70128   9.253   8.670   2.375  0.1621  0.0122 -0.1836
  532MOL0     C70129   9.115   8.740   2.379 -0.1050  0.1628  0.0859
  532MOL0     C70130   9.054   8.756   2.522 -0.1910 -0.4181  0.4873
  532MOL0     C70131   8.920   8.852   2.518 -0.6012 -0.1081  0.2878
  532MOL0     C70132   8.908   8.929   2.660  0.3386  0.1396  0.2055
  532MOL0     C70133   8.776   8.901   2.723  0.3226  0.4855 -0.2499
  532MOL0     C70134   8.652   8.956   2.648 -0.3027 -0.8688 -0.0896
  532MOL0     C70135   8.650   9.107   2.642  0.4606  0.0323  0.4377
  532MOL0    Cl70136   8.488   9.153   2.583 -0.1199 -0.3173  0.3135
  532MOL0     C70137   9.468   8.623   2.074  0.2714 -0.5547 -0.1219
  532MOL0     C70138   9.601   8.625   2.022  0.1609 -0.9548  0.0366
  532MOL0     O70139   9.834   8.374   2.085  0.3631 -0.1400 -0.4648
  532MOL0     C70140  10.041   8.593   1.898 -0.5327  1.3377  0.4075
  532MOL0     C70141  10.158   8.596   1.815  0.0810 -0.2136 -0.0291
  532MOL0     N70142  10.816   8.808   1.577 -0.3100 -1.4843 -1.0348
  532MOL0     N70143  10.903   8.784   1.660  0.2793  0.5053  1.3190
  532MOL0     C70144  11.007   7.970   2.698 -0.0016  0.2487  0.1056
  532MOL0     C70145  11.099   7.930   2.802 -0.1745  0.3980  0.9290
  532MOL0     C70146  11.432   7.871   3.090  0.1216  0.0816 -0.5212
  532MOL0     C70147  11.506   7.754   3.054 -0.6358  0.1992 -0.1506
  532MOL0     C70148  11.613   7.722   3.137  0.4905  0.7565  0.6251
  532MOL0     C70149  11.661   7.792   3.246 -0.7829  0.6889 -0.0724
  532MOL0     O70150  11.780   7.757   3.311  0.6790  0.5120  0.9767
  532MOL0     C70151  11.828   7.835   3.416 -0.8314 -0.2487 -0.1883
  532MOL0     C70152  11.964   7.771   3.449 -0.0999  0.6783 -0.1443
  532MOL0     C70153  12.063   7.887   3.503 -0.1264 -0.5051  0.1254
  532MOL0     C70154  12.187   7.828   3.572 -0.1686  0.4612  0.2404
  532MOL0     C70155  12.297   7.857   3.477 -0.0148 -1.0171 -0.8772
  532MOL0     C70156  12.398   7.888   3.417 -0.6554 -0.1165  0.6317
  532MOL0     C70157  11.576   7.901   3.287 -0.2688 -0.6672 -0.2386
  532MOL0     C70158  11.467   7.945   3.210  0.2632  0.5686  0.6632
  532MOL0     H70159  11.383   7.907   2.618 -0.1225 -0.6142  3.4098
  532MOL0     H70160  11.235   7.964   2.439 -1.7661 -0.7927 -1.0914
  532MOL0     H70161  10.950   8.222   2.549  0.9619  0.1196 -1.6319
  532MOL0     H70162  10.811   8.102   2.563 -0.6878  2.9352  1.4621
  532MOL0     H70163  10.757   8.237   2.360  0.4333  0.1640 -0.6654
  532MOL0     H70164  10.809   8.072   2.317 -1.0666 -0.2955 -0.3314
  532MOL0     H70165  11.043   8.180   2.279 -1.2507  1.2288  0.3862
  532MOL0     H70166  10.968   8.333   2.321  1.0750 -1.0158  2.2549
  532MOL0     H70167  10.893   8.159   2.088  1.9602  0.9342 -1.6345
  532MOL0     H70168  10.824   8.325   2.132 -0.2709  0.6303  2.3405
  532MOL0     H70169  11.023   8.288   1.943 -1.1856  1.9566 -0.3050
  532MOL0     H70170  11.119   8.310   2.091  1.3095  1.7823 -1.1216
  532MOL0     H70171  11.098   8.530   2.047 -0.8647 -0.4176 -0.9418
  532MOL0     H70172  10.934   8.524   2.107  0.1853  0.7072  0.5634
  532MOL0     H70173  11.040   8.506   1.825 -2.2205  2.6159 -3.0809
  532MOL0     H70174  10.876   8.458   1.861  0.0910 -0.3483  0.4637
  532MOL0     H70175  11.000   8.737   1.915  0.1091  0.3009 -0.8124
  532MOL0     H70176  10.841   8.701   1.968  1.0047 -2.9788  2.2488
  532MOL0     H70177  10.634   8.657   1.800 -1.7526 -2.2431 -3.2885
  532MOL0     H70178  10.580   8.847   1.462  1.0531 -2.1284 -2.3555
  532MOL0     H70179  10.490   8.786   1.599 -0.7349 -2.4639 -0.2006
  532MOL0     H70180  10.643   8.611   1.409 -0.0553  1.8859 -0.3425
  532MOL0     H70181  10.475   8.661   1.388 -0.4156  0.4927 -0.1438
  532MOL0     H70182  10.482   8.427   1.479 -2.7847 -0.3115  1.1143
  532MOL0     H70183  10.584   8.483   1.612  0.0785  0.0722  0.1996
  532MOL0     H70184  10.288   8.563   1.576  1.0919 -1.2997 -2.5664
  532MOL0     H70185  10.407   8.627   1.694 -1.0571  0.9723  0.1998
  532MOL0     H70186  10.225   8.261   1.858 -0.5542 -0.0878 -0.0197
  532MOL0     H70187  10.041   8.273   2.004 -6.4227  3.1263  0.1664
  532MOL0     H70188   9.738   8.575   2.320 -1.1133  0.1877  0.3621
  532MOL0     H70189   9.515   8.586   2.412 -1.2844 -2.4073 -0.7390
  532MOL0     H70190   9.328   8.740   2.414 -1.0112  0.6976  0.9145
  532MOL0     H70191   9.232   8.587   2.442  0.2382  1.1051  1.2425
  532MOL0     H70192   9.052   8.686   2.308  0.6948 -0.9101  0.1722
  532MOL0     H70193   9.128   8.837   2.329 -0.1431 -1.1522 -2.6989
  532MOL0     H70194   9.126   8.805   2.587  1.2569 -0.5004 -0.9922
  532MOL0     H70195   9.040   8.653   2.557  4.2988 -2.3372 -2.4319
  532MOL0     H70196   8.929   8.934   2.447 -1.7736  0.0875  0.3505
  532MOL0     H70197   8.832   8.790   2.501 -0.1835 -1.1448  1.6626
  532MOL0     H70198   8.909   9.038   2.647 -1.4826  0.2474  0.6310
  532MOL0     H70199   8.990   8.905   2.729 -1.5564  0.1093  2.5838
  532MOL0     H70200   8.776   8.941   2.825  0.9027  4.2698 -1.5901
  532MOL0     H70201   8.770   8.792   2.730  2.2883  0.3818  0.3301
  532MOL0     H70202   8.663   8.905   2.551 -0.7003 -1.2280  0.0492
  532MOL0     H70203   8.562   8.921   2.699  0.6341  1.3352  3.3889
  532MOL0     H70204   8.719   9.152   2.570 -1.1777  3.6852  0.9189
  532MOL0     H70205   8.664   9.129   2.748 -1.8598  0.3327  0.7332
  532MOL0     H70206   9.392   8.662   2.008  2.5316 -0.3393 -2.7824
  532MOL0     H70207   9.624   8.638   1.917  2.0077 -0.9317  0.4072
  532MOL0     H70208   9.986   8.686   1.908 -0.7133  1.2149  0.5580
  532MOL0     H70209  10.187   8.689   1.766  2.2294  0.7313  2.7565
  532MOL0     H70210  10.905   7.990   2.729  0.2353 -1.4052  2.2539
  532MOL0     H70211  11.072   7.927   2.907 -0.0360  0.1434  0.9568
  532MOL0     H70212  11.481   7.694   2.968  4.5197 -2.7517  0.0424
  532MOL0     H70213  11.664   7.629   3.112 -3.5029 -1.4208 -0.1848
  532MOL0     H70214  11.756   7.823   3.498 -0.7327  1.3468  0.1641
  532MOL0     H70215  11.834   7.943   3.397 -1.4748  0.0139  1.0093
  532MOL0     H70216  11.943   7.689   3.518 -1.6053 -0.0477 -1.4275
  532MOL0     H70217  12.006   7.731   3.357 -1.2058 -0.5677 -0.1275
  532MOL0     H70218  12.008   7.941   3.582  0.1077 -1.3774  0.9006
  532MOL0     H70219  12.090   7.957   3.424  0.1609  1.1052  1.5977
  532MOL0     H70220  12.198   7.884   3.666  2.5338  3.4123 -1.6428
  532MOL0     H70221  12.168   7.724   3.601 -1.9125  0.8168  0.4613
  532MOL0     H70222  12.489   7.920   3.369 -0.6833  2.5289  2.1180
  532MOL0     H70223  11.613   7.948   3.378  0.9480 -0.3407 -0.8736
  532MOL0     H70224  11.420   8.041   3.231 -0.4863 -0.0201  1.8078
  533MOL0     O70225   8.891   5.871   0.450  0.2076 -0.1751 -0.4839
  533MOL0     C70226   8.915   5.988   0.423  0.9283  0.0923  0.7083
  533MOL0     O70227   8.965   6.086   0.498  0.0060 -0.2497  0.6133
  533MOL0     C70228   9.020   6.073   0.624 -0.2746  0.5572  0.5591
  533MOL0     C70229   9.056   5.952   0.699  1.0271 -1.5580 -0.0843
  533MOL0     C70230   9.093   5.957   0.834  0.0306  0.0065  0.9216
  533MOL0     C70231   9.096   6.076   0.904 -0.6035  0.1663  0.3370
  533MOL0     O70232   9.126   6.071   1.040  0.1458 -0.7526 -0.1541
  533MOL0     C70233   9.117   6.193   1.110  1.0549 -1.2806 -0.0170
  533MOL0     C70234   9.193   6.195   1.241 -0.4065  0.6599 -0.3778
  533MOL0     C70235   9.106   6.155   1.360  0.2907 -0.8197 -0.2858
  533MOL0     C70236   9.006   6.263   1.404 -0.4046  0.3574 -0.2297
  533MOL0     C70237   9.054   6.408   1.387 -0.2414 -0.1216  0.5658
  533MOL0     C70238   8.954   6.494   1.461  1.1291  0.3460 -0.2268
  533MOL0     C70239   8.977   6.643   1.427 -1.0763 -0.9818 -0.9233
  533MOL0     C70240   8.895   6.745   1.511  0.3765 -0.4592 -0.8927
  533MOL0     N70241   8.747   6.740   1.497 -0.1184 -0.5873  0.7142
  533MOL0     C70242   8.664   6.667   1.574  0.6108  0.0869 -0.0237
  533MOL0     C70243   8.541   6.692   1.524  0.0646 -0.0845  1.2779
  533MOL0     C70244   8.411   6.642   1.576 -0.1405  0.2035  0.1411
  533MOL0     C70245   8.305   6.632   1.466  0.4041  0.7697 -0.1327
  533MOL0     C70246   8.169   6.648   1.541 -0.6808 -0.2326  0.4788
  533MOL0     C70247   8.067   6.645   1.422  1.0459 -1.0740 -0.5613
  533MOL0     O70248   7.999   6.519   1.425 -0.0465  0.0903 -0.2309
  533MOL0     C70249   7.867   6.514   1.455 -0.4163 -0.1135 -0.2199
  533MOL0     C70250   7.772   6.470   1.363  0.5266 -1.0511 -0.4976
  533MOL0     C70251   7.635   6.447   1.390  0.1739 -0.1967  0.3132
  533MOL0     C70252   7.588   6.471   1.514 -0.2972 -0.2419 -0.8902
  533MOL0     C70253   7.445   6.462   1.550 -0.0281 -0.0554 -0.5519
  533MOL0     O70254   7.412   6.468   1.684  0.0672 -0.2270  0.0101
  533MOL0     C70255   7.274   6.476   1.711  0.4819  0.1867 -0.0183
  533MOL0     C70256   7.211   6.352   1.744  0.0955  0.3343 -0.8806
  533MOL0     C70257   7.071   6.342   1.752 -0.4710  0.7328  1.2663
  533MOL0     C70258   6.990   6.454   1.738 -0.7343 -0.6572  1.4833
  533MOL0     O70259   6.860   6.425   1.747  0.1329  0.2153 -0.3391
  533MOL0     C70260   6.771   6.525   1.703  0.3080  0.0281 -0.8145
  533MOL0     C70261   6.637   6.466   1.667 -0.6207  0.3909 -0.4557
  533MOL0     C70262   6.577   6.432   1.797 -0.3662 -0.9516 -0.2323
  533MOL0     C70263   6.448   6.363   1.773  0.2648  0.0029  1.3328
  533MOL0     C70264   6.401   6.300   1.904  0.6772  1.1144  0.0102
  533MOL0     C70265   6.261   6.235   1.876  0.9741  0.7466 -0.8209
  533MOL0     C70266   6.269   6.114   1.789  0.6633 -0.0079 -0.2496
  533MOL0     C70267   6.135   6.039   1.789 -0.7142  0.2588  0.6951
  533MOL0    Cl70268   6.136   5.943   1.939 -0.1485  0.0192  0.2062
  533MOL0     C70269   7.050   6.579   1.707 -0.6074  0.3517 -0.4794
  533MOL0     C70270   7.193   6.591   1.697  0.0219  0.5388 -0.4353
  533MOL0     O70271   7.364   6.428   1.459  0.4127  0.2003  0.3073
  533MOL0     C70272   7.681   6.511   1.618 -0.4537 -1.0764  1.0672
  533MOL0     C70273   7.821   6.537   1.591  0.8801  0.5428  0.0673
  533MOL0     N70274   8.550   6.783   1.414  0.5968  0.1207 -0.1506
  533MOL0     N70275   8.676   6.809   1.403 -0.0833 -0.1590  0.4328
  533MOL0     C70276   9.067   6.199   0.833  0.0869  0.1344 -0.4252
  533MOL0     C70277   9.032   6.194   0.695 -0.3228 -0.0641 -0.4168
  533MOL0     C70278   8.917   6.020   0.276 -0.2680 -0.3284 -0.1425
  533MOL0     C70279   8.887   5.928   0.169 -0.3762 -0.3497 -0.1106
  533MOL0     C70280   8.890   5.961   0.038  0.5665  0.6092  0.2411
  533MOL0     C70281   8.912   6.092  -0.005 -0.2068  1.1606  0.0932
  533MOL0     O70282   8.936   6.134  -0.129 -0.1018  0.3985  0.0928
  533MOL0     C70283   8.900   6.040  -0.229  0.3996  0.2789  0.5081
  533MOL0     C70284   8.931   6.091  -0.371  0.6164  0.5312 -0.5147
  533MOL0     C70285   9.074   6.124  -0.381 -0.9308 -0.2924  0.4033
  533MOL0     C70286   9.089   6.194  -0.511  0.8864  0.0543 -0.0693
  533MOL0     C70287   9.228   6.232  -0.546 -0.3071 -0.1639  0.0408
  533MOL0     C70288   9.336   6.271  -0.574  0.9571 -0.3413  0.1390
  533MOL0     C70289   8.931   6.182   0.096 -0.5977  0.5715  0.0349
  533MOL0     C70290   8.929   6.153   0.234 -0.8947  0.9553  0.3101
  533MOL0     H70291   9.053   5.854   0.652  1.5590 -1.5171 -0.2075
  533MOL0     H70292   9.119   5.863   0.883  1.1761  0.8773  2.0315
  533MOL0     H70293   9.011   6.214   1.125  0.6034 -2.6799 -1.0734
  533MOL0     H70294   9.155   6.274   1.046 -0.9446 -0.2974 -0.0435
  533MOL0     H70295   9.224   6.299   1.255  1.2325  0.2542 -0.7942
  533MOL0     H70296   9.289   6.142   1.239  0.5614  2.3402  0.2106
  533MOL0     H70297   9.170   6.124   1.443 -0.7847 -0.8210  0.5819
  533MOL0     H70298   9.050   6.064   1.335  1.1647 -0.9856 -1.7215
  533MOL0     H70299   8.910   6.268   1.352 -0.8944  1.1581  0.7173
  533MOL0     H70300   8.962   6.238   1.501 -1.1271  3.0412  0.2274
  533MOL0     H70301   9.064   6.438   1.282  0.0108 -1.0994  0.3009
  533MOL0     H70302   9.147   6.423   1.442 -0.1666  3.3700 -0.2793
  533MOL0     H70303   8.970   6.489   1.569  0.5457  2.1271 -0.0190
  533MOL0     H70304   8.856   6.455   1.432  0.6647  0.1258  1.5627
  533MOL0     H70305   9.084   6.661   1.442 -0.1766 -3.2418 -3.6906
  533MOL0     H70306   8.970   6.682   1.325  3.7244  3.4297  0.0196
  533MOL0     H70307   8.926   6.848   1.490 -1.4834 -0.2211 -2.8864
  533MOL0     H70308   8.903   6.721   1.617 -1.0111 -0.5110 -0.7812
  533MOL0     H70309   8.697   6.601   1.653  1.1124  1.4680  0.9660
  533MOL0     H70310   8.387   6.724   1.645 -1.3154 -0.0543  0.0523
  533MOL0     H70311   8.423   6.548   1.630  0.8204  1.4258  2.2339
  533MOL0     H70312   8.304   6.528   1.431  0.5769  0.7476 -0.0701
  533MOL0     H70313   8.325   6.701   1.383  1.3523  1.4413  0.6285
  533MOL0     H70314   8.156   6.564   1.609 -0.9202 -0.0992  0.5983
  533MOL0     H70315   8.164   6.743   1.595 -0.9155  0.1398 -0.1742
  533MOL0     H70316   8.111   6.652   1.322 -0.0519  0.3218 -0.9804
  533MOL0     H70317   7.990   6.720   1.442  0.3220 -1.7018 -0.9128
  533MOL0     H70318   7.802   6.456   1.259 -2.3725  1.2489 -1.8063
  533MOL0     H70319   7.561   6.412   1.319 -1.2179 -0.2301  1.7287
  533MOL0     H70320   7.276   6.266   1.759  1.8869  1.8156  0.3008
  533MOL0     H70321   7.020   6.248   1.771  1.5873 -0.9068 -0.7331
  533MOL0     H70322   6.811   6.569   1.611 -0.4879 -0.3830 -1.3676
  533MOL0     H70323   6.757   6.609   1.771 -4.2287 -1.5627  0.5479
  533MOL0     H70324   6.647   6.383   1.596 -3.1031 -0.6678  0.2957
  533MOL0     H70325   6.563   6.536   1.626 -2.6183  0.3511  2.7683
  533MOL0     H70326   6.560   6.524   1.855 -0.2851  0.5227 -2.4374
  533MOL0     H70327   6.632   6.360   1.859  0.8057 -0.1023 -0.2678
  533MOL0     H70328   6.380   6.441   1.738  0.2490  1.1243  3.6416
  533MOL0     H70329   6.448   6.300   1.684 -2.5880  0.1671  1.1262
  533MOL0     H70330   6.402   6.380   1.978  1.6521  2.3912 -1.3372
  533MOL0     H70331   6.470   6.223   1.939  0.0670  1.2993  1.7405
  533MOL0     H70332   6.189   6.307   1.836 -0.2472 -2.0787 -4.2194
  533MOL0     H70333   6.227   6.198   1.973  2.3907  1.7312  0.1021
  533MOL0     H70334   6.290   6.134   1.683  0.6472  1.1748 -0.0478
  533MOL0     H70335   6.346   6.040   1.814  1.3711  0.7285 -0.1876
  533MOL0     H70336   6.117   5.977   1.701  0.3834  0.4023  0.3459
  533MOL0     H70337   6.056   6.113   1.775  0.7403  1.5597 -1.2270
  533MOL0     H70338   6.993   6.671   1.695 -2.6067 -0.7137  0.3160
  533MOL0     H70339   7.241   6.681   1.660  0.6799 -0.5851 -2.4804
  533MOL0     H70340   7.648   6.529   1.720 -5.6033 -0.2466 -0.4438
  533MOL0     H70341   7.903   6.554   1.660  2.4157 -1.6136 -1.1260
  533MOL0     H70342   9.071   6.300   0.873 -2.7300  1.1499 -2.4030
  533MOL0     H70343   9.008   6.284   0.639  0.4524 -0.7567 -1.9252
  533MOL0     H70344   8.862   5.826   0.196 -1.1024 -0.0593  0.3516
  533MOL0     H70345   8.869   5.877  -0.027  1.5052  1.3332 -1.0484
  533MOL0     H70346   8.794   6.024  -0.205  0.3240  1.8917  1.4016
  533MOL0     H70347   8.943   5.940  -0.222  1.4211  0.6130 -0.6726
  533MOL0     H70348   8.909   6.009  -0.439 -2.5316  0.7051  0.1621
  533MOL0     H70349   8.861   6.170  -0.401 -2.5251 -2.1283 -0.6924
  533MOL0     H70350   9.134   6.033  -0.375 -0.8925 -0.2417  0.8139
  533MOL0     H70351   9.100   6.193  -0.300 -0.7756 -1.4016  1.3240
  533MOL0     H70352   9.040   6.139  -0.592  2.1056  0.6446 -1.2424
  533MOL0     H70353   9.032   6.287  -0.501  1.8887  0.3716  5.3343
  533MOL0     H70354   9.433   6.306  -0.603 -0.1741 -0.6535 -5.1490
  533MOL0     H70355   8.941   6.285   0.064 -3.5604  0.9181 -0.0238
  533MOL0     H70356   8.947   6.236   0.303 -1.8962  2.5819 -1.2898
  534MOL0     O70357   8.972   0.797   3.281  0.2036 -0.7111  0.0248
  534MOL0     C70358   8.902   0.885   3.227 -0.2389 -0.8401 -1.1612
  534MOL0     O70359   8.960   0.989   3.153  0.7601  0.8688 -0.4002
  534MOL0     C70360   9.099   1.001   3.133  0.1776 -0.4815 -0.0413
  534MOL0     C70361   9.201   0.967   3.230  0.3193  1.8075 -0.4916
  534MOL0     C70362   9.338   0.981   3.185 -0.2265  0.4360  0.6031
  534MOL0     C70363   9.372   1.032   3.059  0.9897 -0.2782  0.4668
  534MOL0     O70364   9.499   1.033   3.013  0.2946 -0.4641  0.8183
  534MOL0     C70365   9.591   0.931   3.055 -0.7874 -0.2886 -0.7223
  534MOL0     C70366   9.738   0.967   3.004 -1.0828  0.4360  0.1176
  534MOL0     C70367   9.844   0.860   3.026 -0.6005  0.3095 -0.8571
  534MOL0     C70368   9.987   0.925   3.059 -0.3560  0.3411 -0.2662
  534MOL0     C70369  10.084   0.818   3.101 -0.0749  0.2373  0.0688
  534MOL0     C70370  10.088   0.795   3.252  0.0895  0.9356 -0.4098
  534MOL0     C70371  10.206   0.697   3.285 -0.0305 -0.5050  0.4619
  534MOL0     C70372  10.217   0.667   3.434  0.3931  1.0945 -0.1401
  534MOL0     N70373  10.317   0.748   3.500 -0.5013 -0.2105 -0.4033
  534MOL0     C70374  10.458   0.719   3.515 -0.3071  1.1346 -0.5700
  534MOL0     C70375  10.501   0.827   3.581 -0.0352  0.9926 -0.1979
  534MOL0     C70376  10.650   0.870   3.596 -0.2812  0.4310 -0.6146
  534MOL0     C70377  10.753   0.766   3.551 -0.9752 -0.7220 -1.7898
  534MOL0     C70378  10.769   0.642   3.641 -0.3005 -0.0474 -0.4874
  534MOL0     C70379  10.811   0.677   3.780  1.1210 -0.3120  0.8093
  534MOL0     O70380  10.934   0.752   3.783 -0.1474 -0.2224  0.5962
  534MOL0     C70381  11.051   0.685   3.816  0.0973  0.2565  0.1546
  534MOL0     C70382  11.097   0.583   3.731 -0.0507 -0.5173 -0.1287
  534MOL0     C70383  11.220   0.524   3.755 -0.5030  1.1918 -0.5249
  534MOL0     C70384  11.291   0.561   3.866 -0.7497 -0.6724 -0.0685
  534MOL0     C70385  11.415   0.489   3.895 -0.2151 -0.6199 -0.1158
  534MOL0     O70386  11.473   0.519   4.020  0.1895  0.2621 -0.1571
  534MOL0     C70387  11.597   0.476   4.064  0.7006 -0.6744 -0.0642
  534MOL0     C70388  11.606   0.459   4.208  0.1115 -0.7830  1.1517
  534MOL0     C70389  11.724   0.441   4.270  0.1773  1.1743  0.0002
  534MOL0     C70390  11.837   0.419   4.194 -0.8759  0.0057 -0.0381
  534MOL0     O70391  11.963   0.385   4.241 -0.0031  0.3068  0.3890
  534MOL0     C70392  11.970   0.298   4.349 -0.6056 -0.4015 -0.1495
  534MOL0     C70393  12.117   0.264   4.357  0.6625 -0.8264  0.2347
  534MOL0     C70394  12.219   0.366   4.390  0.0175 -0.9185 -0.3504
  534MOL0     C70395  12.175   0.448   4.515 -0.5175  0.5112 -1.7128
  534MOL0     C70396  12.267   0.561   4.548  0.1142 -0.1660 -0.0286
  534MOL0     C70397  12.226   0.637   4.671  0.6112  0.3582 -0.4462
  534MOL0     C70398  12.336   0.725   4.720 -0.3530  0.1118  0.0917
  534MOL0     C70399  12.298   0.848   4.807 -0.0473 -0.9589  0.9333
  534MOL0    Cl70400  12.250   0.787   4.959  0.1330 -0.1461  0.0114
  534MOL0     C70401  11.827   0.420   4.051 -0.1089  0.1491 -0.8784
  534MOL0     C70402  11.708   0.454   3.990 -0.2991 -0.1015  0.9836
  534MOL0     O70403  11.468   0.422   3.800 -0.4989 -0.2465 -0.1787
  534MOL0     C70404  11.240   0.657   3.955 -1.0539  0.2158 -0.6799
  534MOL0     C70405  11.122   0.723   3.923 -0.0319  0.1180 -0.3985
  534MOL0     N70406  10.401   0.915   3.601 -0.3046  0.0323 -0.2694
  534MOL0     N70407  10.284   0.863   3.564  0.0509  0.0803  0.4835
  534MOL0     C70408   9.270   1.078   2.972 -0.2239  0.4963  0.3240
  534MOL0     C70409   9.135   1.058   3.008 -0.9454 -0.7906  0.3093
  534MOL0     C70410   8.761   0.891   3.278 -0.7197 -0.3125 -0.0619
  534MOL0     C70411   8.709   0.781   3.344 -0.7292  0.6727  0.5926
  534MOL0     C70412   8.588   0.785   3.404  0.7616 -0.1597 -0.2453
  534MOL0     C70413   8.519   0.899   3.410  0.0083 -0.8504  0.1505
  534MOL0     O70414   8.399   0.894   3.471 -0.5868  0.6634 -0.1476
  534MOL0     C70415   8.388   0.945   3.604 -0.5486  0.2085  0.4662
  534MOL0     C70416   8.336   1.081   3.613 -0.5326 -0.1168 -0.1537
  534MOL0     C70417   8.214   1.118   3.538 -0.0682 -0.1798  0.2757
  534MOL0     C70418   8.174   1.262   3.538  0.3870 -0.2353  0.7294
  534MOL0     C70419   8.133   1.299   3.675 -0.3731 -0.8070  0.6656
  534MOL0     C70420   8.098   1.328   3.785 -0.1237  0.1052 -0.5175
  534MOL0     C70421   8.550   1.014   3.334  0.1918  0.0351  0.5513
  534MOL0     C70422   8.679   1.009   3.275 -0.3845 -0.7380 -0.4778
  534MOL0     H70423   9.168   0.943   3.331 -1.3991  2.0261 -0.9717
  534MOL0     H70424   9.421   0.950   3.247  0.9146  0.5852 -0.8138
  534MOL0     H70425   9.563   0.838   3.006 -2.1119  0.5948 -1.7019
  534MOL0     H70426   9.608   0.927   3.163  1.5142  2.1872 -0.8878
  534MOL0     H70427   9.768   1.052   3.066 -2.0418  0.6244  0.3378
  534MOL0     H70428   9.735   0.999   2.900 -2.0380 -2.0532 -0.6898
  534MOL0     H70429   9.847   0.790   2.941 -1.2574 -0.7481 -0.0420
  534MOL0     H70430   9.810   0.808   3.116 -2.9365 -0.1883 -1.9652
  534MOL0     H70431  10.025   0.976   2.970 -0.3993 -1.3342 -1.2826
  534MOL0     H70432   9.973   0.986   3.149 -0.7404 -0.7047  0.3995
  534MOL0     H70433  10.183   0.849   3.066  0.9901 -0.4574  2.2725
  534MOL0     H70434  10.067   0.724   3.048 -2.0390  1.6929 -2.0782
  534MOL0     H70435  10.004   0.733   3.284 -0.4082  0.9162 -1.7105
  534MOL0     H70436  10.094   0.889   3.306 -2.5289 -0.4224  2.5695
  534MOL0     H70437  10.190   0.603   3.231  1.1720 -0.0082 -0.8354
  534MOL0     H70438  10.299   0.739   3.244 -1.2854  1.9044 -0.0840
  534MOL0     H70439  10.256   0.565   3.449  0.4070  0.8161 -1.8817
  534MOL0     H70440  10.119   0.680   3.481  0.9878  0.5500  1.2978
  534MOL0     H70441  10.520   0.633   3.490 -1.7879 -0.5305  1.1450
  534MOL0     H70442  10.681   0.912   3.692  2.1108  0.0657 -1.1712
  534MOL0     H70443  10.676   0.950   3.525 -0.4227 -1.9044 -3.4990
  534MOL0     H70444  10.851   0.813   3.554 -2.0943  1.7035 -1.2542
  534MOL0     H70445  10.725   0.741   3.448  3.0015  2.6142 -3.9847
  534MOL0     H70446  10.678   0.582   3.642 -0.7593  0.6442 -0.2560
  534MOL0     H70447  10.841   0.582   3.585  0.8141  0.9499 -0.1604
  534MOL0     H70448  10.831   0.581   3.829  2.5740  0.6401  2.2197
  534MOL0     H70449  10.736   0.731   3.838 -1.0505 -1.9703 -0.3260
  534MOL0     H70450  11.041   0.557   3.642 -0.4881  2.7891 -0.9358
  534MOL0     H70451  11.253   0.448   3.685 -0.4577 -0.0857  0.8235
  534MOL0     H70452  11.512   0.483   4.257  1.1748  2.0241  2.0189
  534MOL0     H70453  11.731   0.443   4.379  0.8825 -0.4962  0.0141
  534MOL0     H70454  11.908   0.209   4.336  0.3765 -1.0136 -0.8118
  534MOL0     H70455  11.949   0.345   4.445  3.0502  2.8050 -0.6834
  534MOL0     H70456  12.133   0.220   4.258 -1.4264  1.0056 -1.0252
  534MOL0     H70457  12.123   0.196   4.442 -1.7840  0.0392  1.2061
  534MOL0     H70458  12.218   0.447   4.316  0.4398  1.2940  1.8908
  534MOL0     H70459  12.322   0.330   4.400 -0.2522 -1.2965  1.4058
  534MOL0     H70460  12.073   0.487   4.507 -1.3951 -0.6227  2.1648
  534MOL0     H70461  12.165   0.376   4.596  0.3409 -0.7940 -2.7228
  534MOL0     H70462  12.291   0.621   4.460 -0.2812 -1.9843 -1.4368
  534MOL0     H70463  12.357   0.510   4.583 -0.3228  0.8591  2.9255
  534MOL0     H70464  12.197   0.569   4.753  1.0892 -0.1442 -0.6904
  534MOL0     H70465  12.131   0.683   4.643  1.5406  0.9222 -2.9080
  534MOL0     H70466  12.416   0.675   4.775 -0.5720  1.6363  1.8813
  534MOL0     H70467  12.392   0.761   4.633  0.7385 -1.7792 -0.0550
  534MOL0     H70468  12.213   0.904   4.766  1.5851  2.6841  2.1733
  534MOL0     H70469  12.382   0.917   4.811 -0.8209  0.3511 -2.0715
  534MOL0     H70470  11.920   0.403   3.998  0.2713 -0.0843 -0.1476
  534MOL0     H70471  11.711   0.455   3.882  2.0165 -3.2197  0.8683
  534MOL0     H70472  11.283   0.678   4.053 -0.9899 -1.8712 -0.2279
  534MOL0     H70473  11.079   0.790   3.996  0.0199  1.8624 -1.9070
  534MOL0     H70474   9.285   1.099   2.867  0.0290  1.6114  0.5672
  534MOL0     H70475   9.067   1.089   2.929 -0.2585  1.7459  0.6400
  534MOL0     H70476   8.767   0.692   3.364 -1.4137  0.3746  1.2972
  534MOL0     H70477   8.537   0.698   3.443  0.3088  0.6027  0.9049
  534MOL0     H70478   8.487   0.945   3.652  0.2502  1.6395 -1.0777
  534MOL0     H70479   8.323   0.874   3.657  2.2235 -1.1707  2.2932
  534MOL0     H70480   8.333   1.097   3.721  2.7797 -2.6502  0.4681
  534MOL0     H70481   8.410   1.148   3.568 -0.0775 -1.7357 -1.9429
  534MOL0     H70482   8.128   1.063   3.578  0.5687 -2.3672 -1.1735
  534MOL0     H70483   8.218   1.081   3.435 -2.1466 -2.1140  0.8092
  534MOL0     H70484   8.253   1.326   3.497  0.1013 -0.3224  0.0314
  534MOL0     H70485   8.081   1.270   3.481  0.3282 -0.9734  0.7201
  534MOL0     H70486   8.064   1.367   3.879  3.2639 -1.2514  1.4444
  534MOL0     H70487   8.484   1.100   3.326  3.2877  2.4611 -0.7782
  534MOL0     H70488   8.702   1.092   3.209 -0.1746  0.9169  1.5691
  535MOL0     O70489  11.153   3.655   5.167  0.0717 -0.3950  1.0053
  535MOL0     C70490  11.095   3.618   5.267 -1.1369  0.4534 -1.1969
  535MOL0     O70491  11.153   3.584   5.390  0.5758 -0.3655  0.2102
  535MOL0     C70492  11.289   3.605   5.397  0.4704 -0.8522 -0.5599
  535MOL0     C70493  11.324   3.678   5.507 -0.6832  0.1969 -1.0170
  535MOL0     C70494  11.456   3.727   5.510  0.7294 -0.5897 -0.4046
  535MOL0     C70495  11.551   3.687   5.423  0.2226  0.8549  0.4526
  535MOL0     O70496  11.679   3.727   5.456  0.2973 -0.0950  0.4888
  535MOL0     C70497  11.753   3.785   5.349  0.3436 -0.1490  0.5278
  535MOL0     C70498  11.866   3.693   5.311  0.0398 -0.6969 -0.6681
  535MOL0     C70499  11.935   3.756   5.186 -0.1097  0.2196 -0.6955
  535MOL0     C70500  12.052   3.661   5.134 -0.0309  0.6363  0.7135
  535MOL0     C70501  12.104   3.693   4.997  0.1184  0.1847 -0.1336
  535MOL0     C70502  12.173   3.830   4.982 -0.0679  0.5700 -0.0831
  535MOL0     C70503  12.250   3.834   4.846 -0.1284 -0.6500 -0.1004
  535MOL0     C70504  12.301   3.974   4.810  0.2006  1.0934  0.3636
  535MOL0     N70505  12.182   4.066   4.788  0.2648 -0.2853  0.0451
  535MOL0     C70506  12.096   4.080   4.681  0.3389 -0.0992 -0.2248
  535MOL0     C70507  12.013   4.187   4.711 -0.2090 -0.5367  0.4502
  535MOL0     C70508  11.914   4.257   4.609  0.3682  0.0489 -0.2629
  535MOL0     C70509  11.766   4.242   4.643 -0.2817  0.3598 -0.3051
  535MOL0     C70510  11.701   4.348   4.742  0.4997  0.5830  0.7415
  535MOL0     C70511  11.563   4.288   4.790  0.7856 -0.2712 -0.4660
  535MOL0     O70512  11.466   4.295   4.691  0.8744 -0.8080 -0.0888
  535MOL0     C70513  11.381   4.409   4.687 -0.5112 -1.0753 -1.1485
  535MOL0     C70514  11.408   4.538   4.734  0.5223  0.1346  0.9360
  535MOL0     C70515  11.312   4.639   4.744 -1.0723 -0.7457  0.1013
  535MOL0     C70516  11.182   4.619   4.698  0.9053 -0.7049 -0.0439
  535MOL0     C70517  11.084   4.728   4.697 -0.7837 -0.3380 -0.2606
  535MOL0     O70518  11.121   4.837   4.781  1.5064 -0.1342 -0.2363
  535MOL0     C70519  11.037   4.943   4.790  0.7315 -0.4503  0.7167
  535MOL0     C70520  10.981   5.025   4.688 -0.7267 -0.3508 -0.6083
  535MOL0     C70521  10.880   5.116   4.730 -0.5274 -0.5025  0.6003
  535MOL0     C70522  10.836   5.129   4.858  0.7589 -0.0017 -0.1753
  535MOL0     O70523  10.730   5.220   4.882  0.9192 -0.0334  0.4740
  535MOL0     C70524  10.711   5.257   5.022  0.7495 -0.2360  0.2291
  535MOL0     C70525  10.613   5.370   5.044 -0.3293  0.4114 -0.9020
  535MOL0     C70526  10.622   5.468   4.929  0.6147 -0.2805 -0.1374
  535MOL0     C70527  10.537   5.584   4.941  0.5356  0.3671  0.4038
  535MOL0     C70528  10.582   5.695   4.846 -1.5063  0.0939  0.3591
  535MOL0     C70529  10.477   5.809   4.851 -0.0905 -0.0745 -0.4156
  535MOL0     C70530  10.518   5.921   4.754  0.0897 -0.7316  0.6609
  535MOL0     C70531  10.439   6.048   4.750 -0.7471 -0.5005 -0.5926
  535MOL0    Cl70532  10.452   6.118   4.922 -0.6188  0.0466  0.2766
  535MOL0     C70533  10.889   5.049   4.959 -0.4249 -0.2563 -0.4292
  535MOL0     C70534  10.990   4.961   4.924  0.7040 -0.9379 -0.4155
  535MOL0     O70535  10.989   4.723   4.623  0.0462  0.0333  0.3089
  535MOL0     C70536  11.148   4.494   4.649 -0.3406  0.8077  0.1431
  535MOL0     C70537  11.248   4.398   4.654 -0.1558  0.2925  0.5931
  535MOL0     N70538  12.060   4.243   4.824 -0.1493  0.1609 -0.0525
  535MOL0     N70539  12.160   4.173   4.869 -0.8033 -0.1224  0.2828
  535MOL0     C70540  11.509   3.614   5.314  0.6363  0.1407  0.5123
  535MOL0     C70541  11.377   3.585   5.290  0.0410  0.2094 -0.6377
  535MOL0     C70542  10.960   3.580   5.268  0.4049  0.0458  1.5255
  535MOL0     C70543  10.870   3.658   5.182 -1.1667  0.8827  0.5788
  535MOL0     C70544  10.733   3.641   5.181  0.8574 -0.3990 -0.4322
  535MOL0     C70545  10.683   3.538   5.253 -0.4048 -0.0631  0.2855
  535MOL0     O70546  10.552   3.502   5.258 -0.2637 -0.8299  0.2922
  535MOL0     C70547  10.461   3.560   5.175 -0.0191 -0.5738  0.1825
  535MOL0     C70548  10.482   3.509   5.035  1.0902  0.1111  1.1293
  535MOL0     C70549  10.343   3.512   4.952  0.4581  0.6577  0.8562
  535MOL0     C70550  10.223   3.435   5.009 -0.9275  0.8206  0.7815
  535MOL0     C70551  10.105   3.517   5.021  0.1869  1.0907  0.9859
  535MOL0     C70552  10.014   3.595   5.036 -0.2357 -0.2708 -0.5464
  535MOL0     C70553  10.760   3.460   5.331  0.0039  0.3625  0.6325
  535MOL0     C70554  10.898   3.482   5.345 -1.2041  0.2267  0.3581
  535MOL0     H70555  11.249   3.702   5.583 -0.2411  0.9496 -0.8041
  535MOL0     H70556  11.484   3.795   5.590 -1.9548  1.3839 -1.0181
  535MOL0     H70557  11.801   3.872   5.395  3.8438  0.2774 -3.3355
  535MOL0     H70558  11.680   3.809   5.271  0.2730 -2.4797 -0.1871
  535MOL0     H70559  11.830   3.592   5.292  0.9886 -1.2767  0.4216
  535MOL0     H70560  11.937   3.681   5.394 -1.9461 -1.7157  0.9614
  535MOL0     H70561  11.991   3.847   5.208  2.1269 -1.4857  1.0703
  535MOL0     H70562  11.864   3.759   5.103 -1.6200 -0.2068  0.5344
  535MOL0     H70563  12.139   3.663   5.201  2.0478  0.2374 -1.8208
  535MOL0     H70564  12.016   3.558   5.131  1.8214 -0.0944  1.7334
  535MOL0     H70565  12.022   3.695   4.925  0.8413 -0.1193 -0.9753
  535MOL0     H70566  12.163   3.606   4.968 -4.0567 -2.7851 -0.5718
  535MOL0     H70567  12.247   3.846   5.061  1.6527  0.2063 -1.5278
  535MOL0     H70568  12.107   3.916   4.990  0.4099  1.2374 -2.5249
  535MOL0     H70569  12.319   3.750   4.857 -1.9103 -1.9365  2.2679
  535MOL0     H70570  12.188   3.799   4.763  1.3449  2.0974 -2.5439
  535MOL0     H70571  12.363   3.963   4.720 -0.0234  0.6675  0.2593
  535MOL0     H70572  12.378   4.015   4.876  1.8524  0.6470 -1.1840
  535MOL0     H70573  12.092   4.009   4.599  3.6492 -3.0307  1.8918
  535MOL0     H70574  11.932   4.198   4.519 -1.1636 -2.4865  0.9987
  535MOL0     H70575  11.938   4.361   4.585  0.4344  0.1195  0.1028
  535MOL0     H70576  11.748   4.143   4.687  1.7172  0.9439  2.0212
  535MOL0     H70577  11.708   4.250   4.550  0.7593 -0.4150 -1.0581
  535MOL0     H70578  11.765   4.359   4.829  0.8525 -1.9105  0.8785
  535MOL0     H70579  11.683   4.441   4.688 -1.5120 -2.1991 -4.0823
  535MOL0     H70580  11.544   4.357   4.873  1.4691  0.8780 -1.2380
  535MOL0     H70581  11.578   4.184   4.820  0.3736 -0.2511 -0.1893
  535MOL0     H70582  11.508   4.576   4.754 -0.3462  2.0507  1.8265
  535MOL0     H70583  11.349   4.736   4.776  1.3633 -1.7888  0.6554
  535MOL0     H70584  11.004   5.014   4.582  0.2231  2.1193 -0.7086
  535MOL0     H70585  10.834   5.171   4.650  0.8979  0.0266  0.1120
  535MOL0     H70586  10.806   5.283   5.070 -0.1199  1.0217  1.3286
  535MOL0     H70587  10.674   5.168   5.073  2.6573 -0.5168  1.2011
  535MOL0     H70588  10.627   5.410   5.145 -1.4115  0.2763 -0.6845
  535MOL0     H70589  10.512   5.328   5.051  0.0304 -0.2000  2.4851
  535MOL0     H70590  10.593   5.422   4.834 -0.5763 -1.7327  0.8774
  535MOL0     H70591  10.726   5.501   4.929  0.6938 -0.3285  2.5320
  535MOL0     H70592  10.437   5.547   4.919  1.2020 -2.3966  1.5401
  535MOL0     H70593  10.531   5.626   5.042  0.0280 -0.9589  0.9459
  535MOL0     H70594  10.593   5.655   4.745  0.3710  0.4719  0.3699
  535MOL0     H70595  10.681   5.731   4.876 -0.2414 -2.1013 -0.9720
  535MOL0     H70596  10.446   5.838   4.952 -0.9108  0.5910 -0.8352
  535MOL0     H70597  10.381   5.772   4.812  0.0953 -0.8439 -0.1560
  535MOL0     H70598  10.622   5.952   4.770  0.6780  1.0843 -4.7368
  535MOL0     H70599  10.521   5.879   4.653  2.5937 -0.1182  0.3967
  535MOL0     H70600  10.338   6.016   4.722 -1.7544  0.2883  1.8514
  535MOL0     H70601  10.470   6.125   4.679 -0.6164  1.6138  1.6453
  535MOL0     H70602  10.854   5.037   5.061  2.4744  3.0935  1.1614
  535MOL0     H70603  11.033   4.895   4.998  1.2372  0.6649  0.7443
  535MOL0     H70604  11.048   4.462   4.620 -0.1134 -0.9299  1.1338
  535MOL0     H70605  11.228   4.294   4.631  2.0605  0.3938 -2.3614
  535MOL0     H70606  11.570   3.599   5.226 -1.7575  3.5209 -1.9919
  535MOL0     H70607  11.344   3.534   5.201 -0.0446 -1.4984  0.3248
  535MOL0     H70608  10.921   3.722   5.111  1.7617 -0.5550  1.2184
  535MOL0     H70609  10.674   3.716   5.131  1.0993  1.5628  1.9938
  535MOL0     H70610  10.467   3.669   5.173  3.8783 -0.5484  3.1062
  535MOL0     H70611  10.358   3.531   5.198 -0.8814  0.6001 -1.8730
  535MOL0     H70612  10.569   3.559   4.992  1.7535 -2.3821 -0.6685
  535MOL0     H70613  10.499   3.401   5.041  0.6720  0.1003  5.7593
  535MOL0     H70614  10.370   3.472   4.854 -1.4332  1.0257  0.1449
  535MOL0     H70615  10.315   3.617   4.957  0.0191  0.7354 -1.8632
  535MOL0     H70616  10.205   3.359   4.932 -0.2677  2.1381 -0.7504
  535MOL0     H70617  10.246   3.384   5.102  0.8873 -1.8393 -0.9852
  535MOL0     H70618   9.947   3.678   5.048 -1.9180 -1.6893  0.1925
  535MOL0     H70619  10.719   3.387   5.400  1.2702 -0.3589  0.6649
  535MOL0     H70620  10.955   3.420   5.414 -0.4913 -0.1438 -0.5280
  536MOL0     O70621   9.093   6.473   3.573 -0.0379 -0.8859  0.2137
  536MOL0     C70622   9.055   6.507   3.458  0.8272  0.0513  1.0096
  536MOL0     O70623   9.031   6.641   3.415  0.1215 -0.0078 -0.2185
  536MOL0     C70624   9.052   6.732   3.514 -0.1566 -0.0070 -0.3269
  536MOL0     C70625   8.940   6.768   3.583  0.1318  0.6454 -0.2298
  536MOL0     C70626   8.937   6.853   3.688  0.2161 -0.9579  0.5476
  536MOL0     C70627   9.045   6.939   3.714  0.8501 -0.7137  0.1046
  536MOL0     O70628   9.042   7.029   3.817 -0.0226 -0.2629 -0.1442
  536MOL0     C70629   9.095   7.166   3.791 -0.2963  1.2602  0.4153
  536MOL0     C70630   9.219   7.221   3.869 -0.3883  0.6022 -0.2026
  536MOL0     C70631   9.231   7.376   3.831  0.0219  1.4197 -0.0574
  536MOL0     C70632   9.359   7.413   3.886 -0.7019  0.1627 -0.8488
  536MOL0     C70633   9.372   7.561   3.873  0.8064  0.5148 -0.8319
  536MOL0     C70634   9.376   7.606   3.726 -0.9192 -0.2733 -0.7708
  536MOL0     C70635   9.441   7.742   3.710  0.4358 -0.3929  0.3492
  536MOL0     C70636   9.478   7.761   3.563 -0.2482  0.5273  0.6006
  536MOL0     N70637   9.387   7.724   3.454 -0.0776  0.2212 -1.0857
  536MOL0     C70638   9.253   7.736   3.453  0.0215 -0.0843  0.0756
  536MOL0     C70639   9.206   7.662   3.355  0.3594  0.0590 -0.3458
  536MOL0     C70640   9.060   7.657   3.320  0.4714 -0.2871 -1.0321
  536MOL0     C70641   8.986   7.531   3.369 -0.3629  1.0009  0.6328
  536MOL0     C70642   9.003   7.493   3.516  0.0793  0.8960  0.0984
  536MOL0     C70643   8.958   7.595   3.604  0.1960  0.6944 -0.0037
  536MOL0     O70644   8.825   7.635   3.587 -0.3890  0.5799  0.3826
  536MOL0     C70645   8.724   7.552   3.634  0.1093  0.3098 -0.4755
  536MOL0     C70646   8.732   7.458   3.737  0.0936 -0.1067  0.1527
  536MOL0     C70647   8.618   7.391   3.792 -0.7790 -0.3562 -0.2607
  536MOL0     C70648   8.491   7.422   3.736 -0.3400 -0.1763  0.6137
  536MOL0     C70649   8.368   7.349   3.769 -0.4783  0.4692  0.7265
  536MOL0     O70650   8.247   7.407   3.737  0.2904  0.2803 -0.2992
  536MOL0     C70651   8.133   7.333   3.734 -0.4445 -0.4741  0.1929
  536MOL0     C70652   8.114   7.203   3.701  0.2747 -0.0012  0.1228
  536MOL0     C70653   7.993   7.145   3.688 -0.2004 -0.9484 -0.5401
  536MOL0     C70654   7.880   7.216   3.712  0.6692  0.3243 -0.0706
  536MOL0     O70655   7.754   7.175   3.682 -0.8114 -0.1700 -0.4121
  536MOL0     C70656   7.727   7.062   3.595 -0.3475  0.9296 -0.0953
  536MOL0     C70657   7.592   7.000   3.621 -0.0294  0.0932  0.6262
  536MOL0     C70658   7.545   6.891   3.504  0.5930 -0.9820 -1.0356
  536MOL0     C70659   7.660   6.799   3.451  0.2223 -0.9090 -0.3711
  536MOL0     C70660   7.615   6.668   3.378 -0.4423  0.5748  0.1952
  536MOL0     C70661   7.738   6.575   3.355 -0.9194 -0.1534  0.9577
  536MOL0     C70662   7.700   6.442   3.272  0.6262 -0.0704 -0.0140
  536MOL0     C70663   7.827   6.352   3.255 -0.7815 -0.0084  0.0270
  536MOL0    Cl70664   7.783   6.210   3.154 -0.3629  0.0470 -0.0096
  536MOL0     C70665   7.889   7.352   3.748 -0.2499 -0.4712  0.0645
  536MOL0     C70666   8.017   7.406   3.767  0.4910  0.6403 -0.5264
  536MOL0     O70667   8.377   7.244   3.828  0.4569  0.5297 -0.7202
  536MOL0     C70668   8.486   7.512   3.625 -0.2323 -0.8199 -0.2650
  536MOL0     C70669   8.601   7.574   3.582 -0.5698  0.0784  0.1656
  536MOL0     N70670   9.306   7.590   3.300  0.1587  0.7498  0.3953
  536MOL0     N70671   9.416   7.631   3.355 -0.6222 -0.5651 -0.1813
  536MOL0     C70672   9.157   6.921   3.641 -0.3456  0.5642  0.2154
  536MOL0     C70673   9.164   6.810   3.543 -0.4563  0.5001  0.1454
  536MOL0     C70674   9.014   6.389   3.368  0.0164  0.3718 -0.7236
  536MOL0     C70675   9.054   6.253   3.403  0.2148 -0.7935  0.1145
  536MOL0     C70676   9.025   6.153   3.317  0.3184  0.7263  1.2477
  536MOL0     C70677   8.949   6.168   3.196 -0.2212 -0.3049 -0.6072
  536MOL0     O70678   8.929   6.047   3.127  0.8310  0.7165 -0.2537
  536MOL0     C70679   8.838   6.044   3.023  0.0654  0.6349 -1.8048
  536MOL0     C70680   8.806   5.900   3.011 -0.2536  0.0123 -0.1569
  536MOL0     C70681   8.654   5.906   2.985  0.0605  0.6464  0.5425
  536MOL0     C70682   8.618   5.762   2.946 -0.4379  0.0321 -0.4162
  536MOL0     C70683   8.482   5.777   2.883  0.0957 -0.2275 -0.5072
  536MOL0     C70684   8.373   5.782   2.825  0.1456 -1.0015 -0.0137
  536MOL0     C70685   8.906   6.301   3.171  0.7082  0.0364 -0.3752
  536MOL0     C70686   8.955   6.413   3.248  0.1669  0.9636 -0.7630
  536MOL0     H70687   8.844   6.721   3.568 -0.6107  2.1891 -0.4950
  536MOL0     H70688   8.855   6.858   3.759  0.9161 -0.3620  1.3262
  536MOL0     H70689   9.011   7.235   3.809  0.2256  1.6781  1.3241
  536MOL0     H70690   9.117   7.165   3.684  4.2633  1.5402  1.1370
  536MOL0     H70691   9.315   7.172   3.855  2.3856  4.2858  3.4748
  536MOL0     H70692   9.198   7.216   3.977  2.0458  1.6940  0.3809
  536MOL0     H70693   9.147   7.427   3.881 -1.0225  0.7987 -1.1160
  536MOL0     H70694   9.224   7.392   3.723  0.6629  0.6852 -0.2096
  536MOL0     H70695   9.358   7.402   3.995  0.6402  1.7079 -0.6390
  536MOL0     H70696   9.444   7.357   3.847  0.2583  0.6462  0.4893
  536MOL0     H70697   9.471   7.582   3.915  1.3820 -1.1864 -1.2547
  536MOL0     H70698   9.294   7.606   3.936 -0.9550 -2.6483 -0.5517
  536MOL0     H70699   9.285   7.609   3.665 -0.4870  3.3296 -1.4618
  536MOL0     H70700   9.442   7.541   3.668  0.7272 -0.5859  1.3395
  536MOL0     H70701   9.373   7.821   3.743  0.2620 -0.5032  0.2536
  536MOL0     H70702   9.534   7.738   3.767 -0.4685 -0.7299  1.8487
  536MOL0     H70703   9.575   7.714   3.544 -0.8962 -1.1686  1.2955
  536MOL0     H70704   9.508   7.866   3.567  4.5040 -0.5978  0.4729
  536MOL0     H70705   9.195   7.791   3.526  0.7477 -1.0996  1.4603
  536MOL0     H70706   9.032   7.665   3.214 -2.7580  5.1150 -0.1535
  536MOL0     H70707   9.027   7.748   3.371  1.7809 -0.8837  1.0066
  536MOL0     H70708   9.010   7.450   3.299 -3.0158  0.8664 -0.2602
  536MOL0     H70709   8.879   7.542   3.349 -0.4608 -0.4377  0.3077
  536MOL0     H70710   8.935   7.410   3.537 -1.6917  1.3193 -3.3115
  536MOL0     H70711   9.105   7.456   3.527 -0.4332 -1.7962 -2.7590
  536MOL0     H70712   9.017   7.687   3.592 -0.3864  1.0854  0.1214
  536MOL0     H70713   8.970   7.560   3.707 -0.5482 -1.5557 -0.6135
  536MOL0     H70714   8.825   7.436   3.789  0.4107 -2.2794 -1.1909
  536MOL0     H70715   8.627   7.310   3.864 -1.8985 -0.6622 -0.4306
  536MOL0     H70716   8.200   7.147   3.664  0.7013 -0.1259  1.2678
  536MOL0     H70717   8.002   7.042   3.654 -1.5917 -0.8665 -1.2125
  536MOL0     H70718   7.802   6.982   3.604  0.3423  1.8050  2.8071
  536MOL0     H70719   7.725   7.111   3.497  1.4580  1.6737  0.1897
  536MOL0     H70720   7.529   7.088   3.635 -1.6065 -1.1093  1.4325
  536MOL0     H70721   7.593   6.946   3.716 -2.3076 -1.8644 -0.3501
  536MOL0     H70722   7.486   6.942   3.428 -2.1790  2.0633  2.7443
  536MOL0     H70723   7.475   6.826   3.557  2.3094 -0.7927  1.6895
  536MOL0     H70724   7.727   6.847   3.379  1.2346  2.4274  2.5073
  536MOL0     H70725   7.720   6.770   3.537 -0.5984 -0.2606  0.4398
  536MOL0     H70726   7.558   6.693   3.289 -4.0358 -1.8029  1.5948
  536MOL0     H70727   7.555   6.604   3.444  1.9539  0.1726  2.1512
  536MOL0     H70728   7.780   6.538   3.448  0.7133 -0.3823  0.1617
  536MOL0     H70729   7.814   6.642   3.314 -0.1110 -0.5702  1.7633
  536MOL0     H70730   7.616   6.387   3.316 -1.5949  2.2919 -0.9965
  536MOL0     H70731   7.664   6.463   3.170  0.5560 -0.4230 -0.0640
  536MOL0     H70732   7.867   6.322   3.352 -1.1703  4.5579  1.8413
  536MOL0     H70733   7.902   6.412   3.202 -0.9815 -1.9958 -2.7302
  536MOL0     H70734   7.796   7.406   3.757 -1.0246 -1.8919  1.0655
  536MOL0     H70735   8.032   7.512   3.790 -1.9424  0.7689  0.7779
  536MOL0     H70736   8.392   7.519   3.572 -2.7334  0.4527  3.9036
  536MOL0     H70737   8.601   7.642   3.497  4.1656 -0.9763 -0.9910
  536MOL0     H70738   9.246   6.980   3.658  0.3832 -0.8392  1.4887
  536MOL0     H70739   9.249   6.796   3.478 -1.5931  1.7452 -1.6993
  536MOL0     H70740   9.104   6.235   3.498 -0.0955 -1.6345  0.1191
  536MOL0     H70741   9.060   6.052   3.339  2.4167 -0.0961 -4.2893
  536MOL0     H70742   8.882   6.086   2.932  0.9384  3.2071 -0.2995
  536MOL0     H70743   8.750   6.100   3.055  0.4469 -0.4689  1.5068
  536MOL0     H70744   8.857   5.864   2.921 -2.6475  0.1339 -1.6320
  536MOL0     H70745   8.839   5.837   3.094  0.3361 -1.5148 -1.4993
  536MOL0     H70746   8.643   5.970   2.897  1.0061 -0.0998 -0.1414
  536MOL0     H70747   8.590   5.927   3.071 -0.7725 -1.3767  0.4804
  536MOL0     H70748   8.689   5.716   2.878 -1.1707 -3.2986  0.9064
  536MOL0     H70749   8.612   5.692   3.029  1.3149 -2.9136 -2.5973
  536MOL0     H70750   8.291   5.782   2.756 -0.5416 -2.6079  0.7595
  536MOL0     H70751   8.839   6.297   3.086 -3.6987  1.4707  2.6529
  536MOL0     H70752   8.915   6.512   3.229 -0.7283  0.9360  0.7584
  537MOL0     O70753   9.492  11.229   6.564 -0.2929 -0.4308 -0.1549
  537MOL0     C70754   9.470  11.132   6.494  0.6126  0.2488 -0.5844
  537MOL0     O70755   9.371  11.128   6.403 -0.6791 -0.2875 -0.6099
  537MOL0     C70756   9.272  11.229   6.389  0.1121  0.1632 -0.8830
  537MOL0     C70757   9.306  11.363   6.387 -0.5171  0.3565 -0.2334
  537MOL0     C70758   9.215  11.462   6.406 -0.0138 -0.2651  0.9406
  537MOL0     C70759   9.082  11.433   6.415  0.0559 -1.1078  0.4566
  537MOL0     O70760   8.992  11.529   6.443 -0.1349 -0.0324 -0.9157
  537MOL0     C70761   9.027  11.660   6.394  0.1843 -0.7339 -0.6238
  537MOL0     C70762   8.894  11.739   6.392 -0.0220  0.2725 -0.0649
  537MOL0     C70763   8.817  11.686   6.268  0.1365 -0.6579 -0.9153
  537MOL0     C70764   8.678  11.748   6.263 -0.6741 -0.2197  0.3323
  537MOL0     C70765   8.591  11.715   6.142  0.5959 -0.0445  0.0327
  537MOL0     C70766   8.470  11.812   6.152  0.1097 -0.3852  0.7572
  537MOL0     C70767   8.341  11.748   6.116 -0.3617  1.1377 -0.0899
  537MOL0     C70768   8.356  11.721   5.966 -0.6765  1.0713 -0.7448
  537MOL0     N70769   8.227  11.703   5.895  0.3609 -0.7307 -0.0535
  537MOL0     C70770   8.142  11.596   5.898  0.9679 -0.4568 -1.1778
  537MOL0     C70771   8.018  11.636   5.860 -0.9025  0.4855  0.4720
  537MOL0     C70772   7.899  11.553   5.834 -0.9902  0.0638 -1.3548
  537MOL0     C70773   7.904  11.479   5.698 -0.2646 -0.4229 -0.8128
  537MOL0     C70774   7.780  11.392   5.680 -0.1922  0.6890  0.3185
  537MOL0     C70775   7.775  11.341   5.543  0.3659  0.0006 -0.3473
  537MOL0     O70776   7.660  11.257   5.546  0.0063 -0.7213 -0.3427
  537MOL0     C70777   7.538  11.303   5.499 -0.5308 -0.9556 -0.1768
  537MOL0     C70778   7.441  11.329   5.588 -0.3147  0.1721 -0.1914
  537MOL0     C70779   7.322  11.385   5.549 -0.4010  0.6778 -0.0027
  537MOL0     C70780   7.298  11.419   5.414  0.3423 -0.5734  0.3350
  537MOL0     C70781   7.166  11.471   5.374 -0.2822  0.7685 -0.3921
  537MOL0     O70782   7.058  11.466   5.460 -0.4966 -0.4958 -0.4850
  537MOL0     C70783   6.942  11.515   5.412  0.9073 -1.1073 -0.1136
  537MOL0     C70784   6.873  11.620   5.474 -0.6168  0.2882  0.0790
  537MOL0     C70785   6.740  11.664   5.442  0.0582  0.7383 -0.0006
  537MOL0     C70786   6.682  11.616   5.320 -0.0646 -0.3672  0.0868
  537MOL0     O70787   6.560  11.672   5.292 -0.2233 -0.1839  0.1319
  537MOL0     C70788   6.499  11.638   5.167 -0.0935 -0.4713  1.1477
  537MOL0     C70789   6.435  11.498   5.181  0.2416 -0.4618 -0.5940
  537MOL0     C70790   6.409  11.434   5.039 -0.3773  0.2136 -0.6608
  537MOL0     C70791   6.305  11.506   4.948 -0.4113 -0.8257  0.4718
  537MOL0     C70792   6.243  11.402   4.854  0.6718  0.7936  0.5859
  537MOL0     C70793   6.136  11.473   4.772 -0.3661  0.1530 -0.1135
  537MOL0     C70794   6.052  11.376   4.691 -0.9765  0.1016  0.1992
  537MOL0     C70795   5.909  11.426   4.663  0.3274  1.2347  0.2584
  537MOL0    Cl70796   5.944  11.578   4.592  0.0582 -0.2180  0.0327
  537MOL0     C70797   6.755  11.526   5.242 -0.6243  0.5320 -0.7835
  537MOL0     C70798   6.879  11.465   5.296  0.1216  1.7149  1.0592
  537MOL0     O70799   7.158  11.504   5.256 -0.1935  0.0044 -0.5239
  537MOL0     C70800   7.401  11.395   5.323 -0.2706 -0.3506  0.6163
  537MOL0     C70801   7.524  11.337   5.362  0.3107  0.7798  0.1173
  537MOL0     N70802   8.038  11.767   5.822  0.4286 -0.5860  0.4427
  537MOL0     N70803   8.155  11.807   5.847 -0.0448 -0.1393  0.2343
  537MOL0     C70804   9.039  11.304   6.396  0.0908  0.2123  0.0006
  537MOL0     C70805   9.134  11.199   6.387 -0.6461  0.3323  0.9667
  537MOL0     C70806   9.560  11.017   6.535 -0.0355  0.5909  1.1214
  537MOL0     C70807   9.556  10.905   6.458 -0.2733  0.1354 -0.5748
  537MOL0     C70808   9.642  10.802   6.497 -0.7967  0.1308  0.4030
  537MOL0     C70809   9.747  10.815   6.591  0.4136  0.0226 -0.3223
  537MOL0     O70810   9.837  10.717   6.624 -0.4972  0.4915  0.6617
  537MOL0     C70811   9.906  10.653   6.509  1.6063  0.0019 -0.1628
  537MOL0     C70812  10.015  10.737   6.454  0.7971  1.1133 -0.5123
  537MOL0     C70813  10.119  10.777   6.555 -0.1950 -0.1554 -0.9514
  537MOL0     C70814  10.248  10.809   6.484  0.1523 -0.1062 -0.7561
  537MOL0     C70815  10.230  10.936   6.414 -0.1207  0.0573  0.1779
  537MOL0     C70816  10.207  11.052   6.374 -0.2287 -0.0176  0.1190
  537MOL0     C70817   9.741  10.923   6.672  0.0694 -0.2502 -0.6685
  537MOL0     C70818   9.658  11.033   6.634  0.2595 -0.5466  0.5005
  537MOL0     H70819   9.411  11.385   6.369  0.9261 -2.0522  3.8522
  537MOL0     H70820   9.261  11.561   6.407 -2.2752  1.0310 -3.0568
  537MOL0     H70821   9.078  11.663   6.297 -0.0110  0.6498 -0.6967
  537MOL0     H70822   9.095  11.699   6.471  0.0495 -0.3665 -0.6949
  537MOL0     H70823   8.897  11.848   6.388 -0.9034  0.2826 -2.6589
  537MOL0     H70824   8.832  11.723   6.481 -2.6317 -0.7148 -1.9200
  537MOL0     H70825   8.806  11.577   6.270 -2.2816 -0.4457 -0.0876
  537MOL0     H70826   8.874  11.719   6.180  2.1073  0.5030  0.7091
  537MOL0     H70827   8.617  11.711   6.346 -0.2884 -2.7294 -0.4197
  537MOL0     H70828   8.688  11.857   6.264  1.1234 -0.2458 -2.4794
  537MOL0     H70829   8.567  11.608   6.142  0.4026 -0.0266  1.6897
  537MOL0     H70830   8.642  11.741   6.048 -0.5222  0.9272 -0.3300
  537MOL0     H70831   8.494  11.898   6.088 -0.0729 -0.2201  0.9102
  537MOL0     H70832   8.465  11.847   6.255  0.5458  1.1258  0.2937
  537MOL0     H70833   8.329  11.660   6.179 -0.0458  0.4884 -0.9231
  537MOL0     H70834   8.259  11.817   6.139  0.8114  3.0536 -1.3929
  537MOL0     H70835   8.409  11.626   5.955  2.5365  2.7450 -0.7294
  537MOL0     H70836   8.413  11.803   5.923  0.4766  1.4944  1.4634
  537MOL0     H70837   8.172  11.492   5.910 -4.5089 -2.0625  2.7592
  537MOL0     H70838   7.808  11.614   5.842 -0.7858  0.2076  0.4362
  537MOL0     H70839   7.889  11.469   5.903  1.3409 -1.1479 -2.3835
  537MOL0     H70840   7.999  11.425   5.705 -0.3031 -0.3438  0.7960
  537MOL0     H70841   7.905  11.555   5.619 -0.7064  2.5916  1.8750
  537MOL0     H70842   7.790  11.311   5.753  1.1992 -2.2779 -2.8803
  537MOL0     H70843   7.698  11.459   5.708 -0.5950  0.0690  0.6380
  537MOL0     H70844   7.869  11.295   5.509 -0.3034 -1.4946 -0.2673
  537MOL0     H70845   7.752  11.425   5.477  3.3724  0.0635 -1.4697
  537MOL0     H70846   7.457  11.310   5.694  1.3457 -0.0785 -0.4549
  537MOL0     H70847   7.250  11.404   5.628 -0.7360 -1.8199  0.3656
  537MOL0     H70848   6.914  11.650   5.569 -1.6501  0.8474  0.3644
  537MOL0     H70849   6.694  11.746   5.496  3.0036  1.2949  1.8596
  537MOL0     H70850   6.569  11.637   5.083 -1.1095 -0.1961  0.2847
  537MOL0     H70851   6.419  11.710   5.148  0.3913 -0.5000 -1.2379
  537MOL0     H70852   6.344  11.496   5.242  0.4858  0.6849 -0.1658
  537MOL0     H70853   6.505  11.428   5.228 -1.8995 -3.4393 -1.5243
  537MOL0     H70854   6.382  11.329   5.053  0.4132 -0.0570 -1.0755
  537MOL0     H70855   6.502  11.448   4.983  0.7468  0.2269  1.1387
  537MOL0     H70856   6.236  11.563   5.011  0.2159  0.0128  0.4136
  537MOL0     H70857   6.347  11.589   4.890 -3.5258 -1.0333 -2.3887
  537MOL0     H70858   6.198  11.319   4.909 -0.0824  0.3103 -0.7042
  537MOL0     H70859   6.321  11.354   4.794 -2.1868 -2.8460 -0.5514
  537MOL0     H70860   6.187  11.541   4.703  1.4011 -1.3374 -0.3434
  537MOL0     H70861   6.062  11.524   4.834 -0.3564 -0.1738  0.1679
  537MOL0     H70862   6.107  11.352   4.600 -0.9312 -0.9063  0.4841
  537MOL0     H70863   6.043  11.286   4.751  2.6433  0.8661  2.1690
  537MOL0     H70864   5.837  11.425   4.745  0.3703  2.6300  0.3410
  537MOL0     H70865   5.856  11.366   4.588 -0.8802  1.2474  1.0640
  537MOL0     H70866   6.729  11.488   5.144 -0.9887  0.5607 -0.6991
  537MOL0     H70867   6.934  11.385   5.247 -0.1886  1.0265  1.8187
  537MOL0     H70868   7.391  11.425   5.220  1.7613  1.3516  0.8540
  537MOL0     H70869   7.605  11.335   5.290 -0.8291  2.1465 -1.2750
  537MOL0     H70870   8.933  11.279   6.404 -0.0119  0.8825  0.8502
  537MOL0     H70871   9.092  11.099   6.386  0.8973 -0.4065  3.0542
  537MOL0     H70872   9.488  10.895   6.373 -0.1961  1.5100 -0.8162
  537MOL0     H70873   9.641  10.712   6.436 -1.9877  0.3092  0.1480
  537MOL0     H70874   9.841  10.629   6.424 -0.8689  0.5110  1.4741
  537MOL0     H70875   9.955  10.557   6.529 -0.9074 -1.2756  0.2538
  537MOL0     H70876  10.051  10.677   6.371 -0.4410  0.6073 -0.7105
  537MOL0     H70877   9.983  10.829   6.405  0.9072  1.7277  0.5406
  537MOL0     H70878  10.127  10.695   6.628 -1.8820 -0.7728 -1.4014
  537MOL0     H70879  10.088  10.872   6.600  1.4574  0.3295 -0.7860
  537MOL0     H70880  10.326  10.808   6.561  1.2979 -0.5859 -1.8958
  537MOL0     H70881  10.277  10.731   6.413  0.7706 -1.2395  0.6874
  537MOL0     H70882  10.173  11.143   6.328 -0.3831 -1.1890 -2.2032
  537MOL0     H70883   9.814  10.938   6.751 -0.5969  1.4777 -0.3351
  537MOL0     H70884   9.665  11.128   6.687 -1.3757  0.4931 -1.0416
  538MOL0     O70885   0.112   3.109   4.477  0.7542  0.5547 -0.3006
  538MOL0     C70886   0.156   3.148   4.589 -0.4546  0.0385  0.6613
  538MOL0     O70887   0.288   3.139   4.632  0.5640 -0.4881  0.1401
  538MOL0     C70888   0.361   3.039   4.579  0.3120  0.2992  0.6022
  538MOL0     C70889   0.404   2.938   4.672 -0.2518  0.2430 -0.1857
  538MOL0     C70890   0.487   2.839   4.630 -0.3396  0.2358  0.9146
  538MOL0     C70891   0.528   2.829   4.493 -0.2794 -0.3911 -0.1312
  538MOL0     O70892   0.593   2.716   4.450  0.2153  0.0331  0.0442
  538MOL0     C70893   0.701   2.736   4.362  0.8308 -0.0113  1.0249
  538MOL0     C70894   0.805   2.819   4.422  0.5659  0.3944 -0.6896
  538MOL0     C70895   0.921   2.834   4.325  0.5401  0.1466  0.3606
  538MOL0     C70896   1.054   2.876   4.404  0.3310 -0.2206  0.2925
  538MOL0     C70897   1.160   2.917   4.311 -0.7699 -0.8303  1.1253
  538MOL0     C70898   1.291   2.967   4.387 -1.2812  0.8629 -0.0902
  538MOL0     C70899   1.349   2.854   4.491 -0.6050  0.2764  0.5327
  538MOL0     C70900   1.492   2.889   4.536 -0.7263  1.0472  0.5491
  538MOL0     N70901   1.512   2.809   4.660 -0.6727  0.1869 -0.8084
  538MOL0     C70902   1.638   2.774   4.702  0.3446  0.2059 -0.1901
  538MOL0     C70903   1.617   2.721   4.819  1.2361  0.2802  0.4359
  538MOL0     C70904   1.709   2.660   4.914 -0.4077  0.4752 -0.4608
  538MOL0     C70905   1.827   2.596   4.842  0.2251  0.5491  1.3799
  538MOL0     C70906   1.954   2.678   4.833  0.8637  0.3721  0.8474
  538MOL0     C70907   2.044   2.629   4.718  0.5393 -0.1454  0.0032
  538MOL0     O70908   1.979   2.642   4.594  0.6619  0.5384  0.7035
  538MOL0     C70909   2.049   2.628   4.479 -0.0095 -0.3802  0.8273
  538MOL0     C70910   2.183   2.586   4.477  0.1535  0.0479  0.7649
  538MOL0     C70911   2.260   2.583   4.363 -0.4102 -0.2626  0.9042
  538MOL0     C70912   2.198   2.610   4.241  0.9144 -0.3054 -0.8049
  538MOL0     C70913   2.283   2.624   4.114  0.5754 -0.2306 -0.3392
  538MOL0     O70914   2.421   2.611   4.121  0.2777  0.7681  0.0430
  538MOL0     C70915   2.510   2.654   4.020 -0.4706 -0.4315 -1.5065
  538MOL0     C70916   2.627   2.694   4.057 -0.0706 -0.2616  0.6330
  538MOL0     C70917   2.730   2.731   3.969  0.5078  0.5534  0.2086
  538MOL0     C70918   2.713   2.710   3.833  0.1318  0.3460  0.8680
  538MOL0     O70919   2.814   2.738   3.751  0.9174 -0.2503 -0.6171
  538MOL0     C70920   2.876   2.624   3.684  0.0002  0.4701 -0.4347
  538MOL0     C70921   2.980   2.669   3.581 -0.3343  0.8931 -0.4162
  538MOL0     C70922   3.084   2.761   3.642  0.1338 -0.3160 -0.5886
  538MOL0     C70923   3.189   2.806   3.549  0.9338 -1.1916  0.5429
  538MOL0     C70924   3.307   2.707   3.540 -0.2811  0.0605 -0.0179
  538MOL0     C70925   3.439   2.763   3.490 -0.3276  0.5249 -0.2394
  538MOL0     C70926   3.419   2.840   3.359  0.5805  0.3871  1.0793
  538MOL0     C70927   3.547   2.921   3.326  0.4165  1.0699  0.4284
  538MOL0    Cl70928   3.526   3.080   3.399 -0.0657 -0.2260 -0.3315
  538MOL0     C70929   2.589   2.666   3.784  0.6245 -0.0656 -0.6111
  538MOL0     C70930   2.493   2.643   3.880  0.7140 -0.0108 -0.3562
  538MOL0     O70931   2.221   2.657   4.011 -0.4209  0.1275  0.4703
  538MOL0     C70932   2.067   2.651   4.242  0.4269  0.3695 -1.2886
  538MOL0     C70933   1.996   2.662   4.358  0.7703 -0.4577  0.0933
  538MOL0     N70934   1.479   2.727   4.855 -0.2327 -0.2558 -0.5735
  538MOL0     N70935   1.424   2.786   4.762  0.2138 -0.2738  0.1974
  538MOL0     C70936   0.498   2.929   4.401 -0.2759  0.2152 -0.2635
  538MOL0     C70937   0.418   3.040   4.448 -1.2794 -0.3274  0.0366
  538MOL0     C70938   0.058   3.212   4.671 -1.1919 -0.0524  0.1437
  538MOL0     C70939  -0.065   3.256   4.625  0.6253 -0.5217 -0.8730
  538MOL0     C70940  -0.156   3.323   4.710  0.1413  0.1405  0.5611
  538MOL0     C70941  -0.120   3.332   4.844  0.2875  0.0003  0.0327
  538MOL0     O70942  -0.193   3.412   4.929 -0.2096  0.4709  0.5301
  538MOL0     C70943  -0.278   3.330   5.006  0.3051 -0.3659  0.0340
  538MOL0     C70944  -0.413   3.378   5.001  0.8941 -0.1157 -0.5921
  538MOL0     C70945  -0.487   3.357   4.877  0.2459 -0.1224 -0.1119
  538MOL0     C70946  -0.620   3.420   4.890  0.0768 -0.2554  0.0629
  538MOL0     C70947  -0.710   3.398   4.784 -0.7530 -0.7809  0.1767
  538MOL0     C70948  -0.787   3.394   4.695  0.5380 -0.3121 -0.2063
  538MOL0     C70949  -0.005   3.275   4.897 -0.6945  0.2552 -0.2537
  538MOL0     C70950   0.085   3.213   4.808  0.9977 -0.4022  1.2599
  538MOL0     H70951   0.382   2.944   4.778 -1.4821 -0.2625 -0.4000
  538MOL0     H70952   0.527   2.765   4.698  2.1347 -0.6276 -1.3388
  538MOL0     H70953   0.671   2.783   4.268  1.0135  0.4736  1.2048
  538MOL0     H70954   0.743   2.638   4.336  2.6813  0.2830  2.6806
  538MOL0     H70955   0.842   2.755   4.503  0.8980  1.3503 -0.0644
  538MOL0     H70956   0.779   2.916   4.466  1.2641 -0.3650  1.5088
  538MOL0     H70957   0.900   2.922   4.263  2.0153  0.8848  0.8542
  538MOL0     H70958   0.933   2.750   4.256 -3.2191  1.2161 -1.8604
  538MOL0     H70959   1.040   2.958   4.474  1.4397  0.0477  0.2272
  538MOL0     H70960   1.083   2.797   4.475 -0.7623  1.8767  3.2838
  538MOL0     H70961   1.121   2.996   4.247  2.7353 -0.5665 -0.9723
  538MOL0     H70962   1.206   2.844   4.244  1.2495  0.7489  0.6696
  538MOL0     H70963   1.280   3.064   4.436 -3.1178  0.8920 -0.4991
  538MOL0     H70964   1.361   2.978   4.303 -2.3503  1.5786 -0.9140
  538MOL0     H70965   1.273   2.843   4.569  0.6914 -3.7604  1.5180
  538MOL0     H70966   1.362   2.760   4.435 -0.0431  0.4589  0.3541
  538MOL0     H70967   1.505   2.994   4.563  1.0116  1.2207 -0.8124
  538MOL0     H70968   1.570   2.868   4.462 -0.0785  4.7170  0.0181
  538MOL0     H70969   1.732   2.771   4.647 -0.5526 -2.0336 -1.7322
  538MOL0     H70970   1.660   2.575   4.962  1.7494  0.2090  1.4753
  538MOL0     H70971   1.748   2.737   4.982 -2.7850 -0.6632  2.4245
  538MOL0     H70972   1.790   2.557   4.746  0.8608  2.9450  0.0761
  538MOL0     H70973   1.864   2.519   4.911 -0.3803 -0.5424  0.5261
  538MOL0     H70974   1.928   2.781   4.806  0.9961 -0.4762 -3.1380
  538MOL0     H70975   1.990   2.681   4.936 -3.2690 -2.7659  2.6906
  538MOL0     H70976   2.062   2.522   4.729 -1.5580 -0.6783 -1.2416
  538MOL0     H70977   2.130   2.696   4.719 -0.1407  0.7367  0.1408
  538MOL0     H70978   2.239   2.546   4.562 -1.9741 -2.9320  0.9275
  538MOL0     H70979   2.367   2.569   4.357 -0.5011 -0.5835 -3.5529
  538MOL0     H70980   2.642   2.709   4.163 -1.7823 -0.8718  1.0072
  538MOL0     H70981   2.823   2.781   3.998  1.0941  1.3546 -2.6748
  538MOL0     H70982   2.800   2.569   3.627 -1.1584 -1.0203  2.3801
  538MOL0     H70983   2.921   2.555   3.757 -0.4025 -0.1491 -0.7608
  538MOL0     H70984   2.939   2.736   3.505  0.2970  2.4941  0.5936
  538MOL0     H70985   3.019   2.576   3.539 -0.4476  0.2628  0.8432
  538MOL0     H70986   3.122   2.704   3.728 -1.7646 -0.7815 -0.0025
  538MOL0     H70987   3.021   2.844   3.674  0.8211 -0.2397  0.6531
  538MOL0     H70988   3.141   2.817   3.451  2.8927 -5.2435 -1.0699
  538MOL0     H70989   3.220   2.906   3.582  2.4991 -1.3424 -0.3609
  538MOL0     H70990   3.279   2.627   3.472 -3.0046  2.0612 -1.4468
  538MOL0     H70991   3.324   2.653   3.634 -2.5630 -2.4263 -0.9415
  538MOL0     H70992   3.511   2.684   3.467 -0.4098  0.2862  0.3022
  538MOL0     H70993   3.482   2.832   3.563 -2.2521  0.6538  0.8499
  538MOL0     H70994   3.407   2.764   3.281  1.1469 -0.7420  2.0542
  538MOL0     H70995   3.333   2.908   3.363 -1.1968 -1.3713 -2.2644
  538MOL0     H70996   3.560   2.929   3.217 -0.2308 -1.8509  0.0533
  538MOL0     H70997   3.639   2.877   3.365 -0.0113  1.1397  1.5319
  538MOL0     H70998   2.572   2.662   3.676 -1.7002  4.8435 -0.6930
  538MOL0     H70999   2.396   2.614   3.841  0.3037  1.4190 -0.4614
  538MOL0     H71000   2.028   2.683   4.146 -2.1685  1.2832 -0.0229
  538MOL0     H71001   1.898   2.707   4.376 -0.4543 -2.4492 -1.2358
  538MOL0     H71002   0.534   2.918   4.300 -0.6782 -4.1736 -0.1274
  538MOL0     H71003   0.380   3.098   4.365  0.8125 -2.9735 -3.0240
  538MOL0     H71004  -0.084   3.268   4.519 -0.2684 -0.2730 -0.6890
  538MOL0     H71005  -0.254   3.358   4.679 -0.1991 -1.5653 -0.4045
  538MOL0     H71006  -0.241   3.337   5.109  1.9738  2.9888 -0.6595
  538MOL0     H71007  -0.281   3.222   4.989 -1.0930 -0.4619  0.7053
  538MOL0     H71008  -0.462   3.328   5.085 -1.5524 -0.5176 -2.1589
  538MOL0     H71009  -0.412   3.485   5.021 -2.6127  0.0645 -0.8289
  538MOL0     H71010  -0.510   3.251   4.865  1.8426 -0.6184  0.9312
  538MOL0     H71011  -0.454   3.415   4.791  3.5235 -0.8657  0.5025
  538MOL0     H71012  -0.659   3.385   4.985  1.1817  2.0121  1.4435
  538MOL0     H71013  -0.605   3.528   4.900  1.4326 -0.5945  2.1591
  538MOL0     H71014  -0.851   3.407   4.611 -1.5611  2.0231  1.6189
  538MOL0     H71015   0.006   3.273   5.005 -2.3030  0.7074 -0.0434
  538MOL0     H71016   0.176   3.168   4.846  2.7082  1.0740 -0.8792
  539MOL0     O71017   5.864   8.216  10.742 -0.0549  0.0110  0.1763
  539MOL0     C71018   5.838   8.130  10.825  1.0767  0.3172 -0.5572
  539MOL0     O71019   5.822   7.993  10.805 -0.2432 -0.2056  0.2316
  539MOL0     C71020   5.852   7.940  10.679  0.0900  0.4402  0.2877
  539MOL0     C71021   5.789   7.973  10.566  0.4686  0.2894 -0.0638
  539MOL0     C71022   5.830   7.921  10.443 -0.2948 -0.2375  0.0413
  539MOL0     C71023   5.935   7.826  10.429 -0.5627 -0.7836  0.3757
  539MOL0     O71024   5.979   7.791  10.306 -0.6035 -0.6405  0.5029
  539MOL0     C71025   6.075   7.686  10.270  0.2740  0.4257 -0.8376
  539MOL0     C71026   6.204   7.751  10.304 -0.1270  0.1019  1.2482
  539MOL0     C71027   6.324   7.657  10.260 -1.0056  0.2744  0.8938
  539MOL0     C71028   6.335   7.643  10.108  0.0492  0.3669  0.9457
  539MOL0     C71029   6.480   7.605  10.054 -0.2139 -0.3825  0.8674
  539MOL0     C71030   6.594   7.704  10.093 -0.8385 -0.1174  0.0739
  539MOL0     C71031   6.562   7.853  10.073  0.5632 -0.0246  0.0540
  539MOL0     C71032   6.684   7.933  10.042 -0.0199  0.0818 -0.8009
  539MOL0     N71033   6.728   7.920   9.900 -0.8151  0.1323 -0.1367
  539MOL0     C71034   6.656   7.968   9.792  0.1953  0.3284  0.2509
  539MOL0     C71035   6.708   7.911   9.685 -0.2044  0.7212  0.2766
  539MOL0     C71036   6.647   7.909   9.550 -0.0549  0.1556 -0.4443
  539MOL0     C71037   6.734   7.925   9.435 -0.8187  0.2537  0.2395
  539MOL0     C71038   6.649   7.920   9.300  0.8714  0.1445 -0.5236
  539MOL0     C71039   6.715   7.997   9.186 -0.0975  1.3189  0.7690
  539MOL0     O71040   6.767   8.117   9.222  0.6880  0.5417  0.6251
  539MOL0     C71041   6.680   8.214   9.258  0.5362  0.2719  0.0733
  539MOL0     C71042   6.537   8.217   9.235  0.4938 -0.3660 -0.0800
  539MOL0     C71043   6.464   8.332   9.284  0.7961  0.4485  0.2970
  539MOL0     C71044   6.532   8.426   9.367 -0.0996 -0.1870 -0.1496
  539MOL0     C71045   6.458   8.547   9.417 -0.4500 -0.4817  0.7997
  539MOL0     O71046   6.531   8.655   9.460 -0.6214 -0.1988 -0.5547
  539MOL0     C71047   6.466   8.759   9.513 -0.4332  0.5330 -0.3733
  539MOL0     C71048   6.508   8.889   9.466 -0.5162 -0.4743  0.2324
  539MOL0     C71049   6.432   9.005   9.517 -0.6444 -0.0252 -0.0045
  539MOL0     C71050   6.336   8.990   9.617 -0.9622  0.2418  0.2968
  539MOL0     O71051   6.258   9.084   9.682  0.8788  0.1226  0.5967
  539MOL0     C71052   6.305   9.216   9.669 -0.6111 -0.8438  0.3130
  539MOL0     C71053   6.212   9.329   9.720 -0.2347 -0.3612 -0.1327
  539MOL0     C71054   6.076   9.310   9.663 -0.2168  0.3043  0.1982
  539MOL0     C71055   5.997   9.440   9.672  0.3334 -0.0868 -0.8541
  539MOL0     C71056   5.989   9.506   9.816  0.4039  0.2178  0.2138
  539MOL0     C71057   5.866   9.596   9.842  0.4312  0.1488 -0.6387
  539MOL0     C71058   5.732   9.509   9.842  0.0868 -0.0402  0.7653
  539MOL0     C71059   5.635   9.587   9.935 -0.2491 -0.9033  0.7523
  539MOL0    Cl71060   5.616   9.757   9.881  0.1953 -0.2632 -0.1946
  539MOL0     C71061   6.306   8.862   9.661  0.2183  0.2430 -0.6025
  539MOL0     C71062   6.362   8.748   9.612 -0.0985 -0.4306  0.1079
  539MOL0     O71063   6.334   8.539   9.412  0.6431 -0.3686  0.3295
  539MOL0     C71064   6.669   8.403   9.409  1.0130 -0.6390 -0.1418
  539MOL0     C71065   6.738   8.305   9.344  0.0714  0.4558  0.8679
  539MOL0     N71066   6.825   7.843   9.718 -0.1617 -0.2461  0.0210
  539MOL0     N71067   6.839   7.846   9.844  0.0738  0.0241 -0.4929
  539MOL0     C71068   5.985   7.776  10.550 -0.6306 -0.1486 -0.6024
  539MOL0     C71069   5.943   7.837  10.676 -0.0576 -0.1299  0.4850
  539MOL0     C71070   5.797   8.186  10.950 -0.6898  0.2999  0.3438
  539MOL0     C71071   5.753   8.309  10.975 -0.6842  0.4295  1.1632
  539MOL0     C71072   5.709   8.348  11.102  0.0213 -0.1554  1.2490
  539MOL0     C71073   5.711   8.274  11.211  0.2158 -0.2771  0.1932
  539MOL0     O71074   5.679   8.309  11.336 -0.3044 -0.5443 -0.3595
  539MOL0     C71075   5.632   8.442  11.369  0.2178 -1.3760 -0.2241
  539MOL0     C71076   5.742   8.542  11.356  0.2787  0.4901  0.5872
  539MOL0     C71077   5.692   8.685  11.365 -0.0602  0.2128 -0.4683
  539MOL0     C71078   5.804   8.789  11.336  0.1103 -0.0740  0.0636
  539MOL0     C71079   5.879   8.814  11.456 -0.2222  1.2558  0.2582
  539MOL0     C71080   5.947   8.826  11.559  1.1624  0.2276  0.2291
  539MOL0     C71081   5.767   8.145  11.190 -0.1744  0.0399 -0.7702
  539MOL0     C71082   5.799   8.096  11.060  0.4434 -0.2525 -0.7971
  539MOL0     H71083   5.711   8.047  10.581  0.0126  0.0839 -1.2512
  539MOL0     H71084   5.796   7.948  10.344  3.0640 -0.2816 -1.2544
  539MOL0     H71085   6.073   7.653  10.166  2.1321 -3.9481  0.3156
  539MOL0     H71086   6.054   7.594  10.325 -0.0221 -0.0255 -1.6969
  539MOL0     H71087   6.215   7.756  10.412  2.2826  2.7621  0.9958
  539MOL0     H71088   6.200   7.849  10.254 -4.1006 -1.3639 -1.9529
  539MOL0     H71089   6.307   7.559  10.306 -0.2749 -1.6620 -2.6702
  539MOL0     H71090   6.413   7.703  10.305 -0.4538 -2.6441  3.0994
  539MOL0     H71091   6.261   7.567  10.078  0.0605 -1.0577  4.1359
  539MOL0     H71092   6.319   7.746  10.075  0.7085  0.3201  0.4636
  539MOL0     H71093   6.472   7.598   9.945  1.9236  0.9633  0.5625
  539MOL0     H71094   6.516   7.511  10.097 -0.0322 -0.4267  0.6193
  539MOL0     H71095   6.683   7.679  10.034 -0.2768  0.9386  0.4589
  539MOL0     H71096   6.622   7.685  10.197  0.2463 -2.0673 -0.5215
  539MOL0     H71097   6.489   7.862   9.992 -0.4773  0.3248  1.0081
  539MOL0     H71098   6.524   7.891  10.168  0.0028 -1.3989  0.4027
  539MOL0     H71099   6.772   7.898  10.098  0.7253 -2.2643 -3.2201
  539MOL0     H71100   6.653   8.031  10.080  1.3494  0.2479 -0.0432
  539MOL0     H71101   6.563   8.023   9.801  0.3879  1.4293 -3.1493
  539MOL0     H71102   6.568   7.985   9.541  1.7964  1.9500 -2.4327
  539MOL0     H71103   6.581   7.821   9.543 -2.3633  1.8492 -1.3450
  539MOL0     H71104   6.823   7.862   9.433 -0.4109  0.8063 -2.4263
  539MOL0     H71105   6.761   8.029   9.459  0.5126  0.1724 -0.7988
  539MOL0     H71106   6.632   7.817   9.269  0.3265  0.1352 -0.2045
  539MOL0     H71107   6.556   7.971   9.326  1.0886 -0.0222  0.6555
  539MOL0     H71108   6.647   7.998   9.101 -1.2763 -3.8572  1.3509
  539MOL0     H71109   6.799   7.933   9.159 -0.4615  0.8725  0.6988
  539MOL0     H71110   6.505   8.136   9.171  1.1288 -0.2230 -0.5881
  539MOL0     H71111   6.358   8.346   9.265  1.2319  0.8741 -1.9949
  539MOL0     H71112   6.590   8.908   9.398 -1.2694 -0.6884 -0.7669
  539MOL0     H71113   6.443   9.105   9.476 -3.3987 -0.5064 -2.2208
  539MOL0     H71114   6.320   9.236   9.562 -1.0315 -1.5213  0.1220
  539MOL0     H71115   6.394   9.234   9.730 -1.7422 -0.7785  2.0116
  539MOL0     H71116   6.265   9.418   9.686 -0.6123 -2.2558 -7.0851
  539MOL0     H71117   6.209   9.314   9.829 -2.4689 -0.3905 -0.1484
  539MOL0     H71118   6.020   9.231   9.714  0.4359 -0.2754  0.0325
  539MOL0     H71119   6.084   9.285   9.556 -1.6035 -0.1444  0.1667
  539MOL0     H71120   6.037   9.515   9.605 -0.9154  1.1634 -0.2621
  539MOL0     H71121   5.897   9.420   9.631  1.2544 -0.5564 -2.9611
  539MOL0     H71122   6.074   9.575   9.816  2.1172 -1.7692 -0.2110
  539MOL0     H71123   6.011   9.438   9.898  2.6259  1.5898  0.8377
  539MOL0     H71124   5.858   9.672   9.764  0.0302  1.4352  0.5994
  539MOL0     H71125   5.882   9.653   9.934 -0.7716  1.3071 -1.1164
  539MOL0     H71126   5.682   9.498   9.745  4.0667 -2.7269 -1.2602
  539MOL0     H71127   5.749   9.407   9.876  1.0452 -1.8360 -4.2169
  539MOL0     H71128   5.685   9.584  10.032  1.3932  0.3629 -0.0043
  539MOL0     H71129   5.541   9.530   9.935 -0.0406 -1.3444 -1.4514
  539MOL0     H71130   6.244   8.846   9.748 -0.9535 -2.5365 -1.8080
  539MOL0     H71131   6.337   8.649   9.649  1.3737  0.0594  2.6584
  539MOL0     H71132   6.714   8.466   9.485 -0.7757  0.1801  0.2839
  539MOL0     H71133   6.844   8.299   9.369  0.5494 -1.7550 -1.3278
  539MOL0     H71134   6.069   7.707  10.547 -2.1621 -2.0768 -0.8303
  539MOL0     H71135   5.974   7.789  10.769  0.7655  0.7866  0.7018
  539MOL0     H71136   5.741   8.388  10.902 -2.3301 -0.4076  0.4654
  539MOL0     H71137   5.682   8.453  11.108  0.8443  0.1562 -0.0480
  539MOL0     H71138   5.585   8.457  11.466  1.8529 -0.3576  0.4617
  539MOL0     H71139   5.557   8.476  11.297 -0.6038  0.7498  1.5228
  539MOL0     H71140   5.812   8.524  11.438  1.0690  0.7526 -0.0176
  539MOL0     H71141   5.805   8.528  11.268 -1.6227  1.5226 -1.0239
  539MOL0     H71142   5.662   8.695  11.469  0.7853  1.6702 -0.3412
  539MOL0     H71143   5.611   8.702  11.293 -0.4341 -1.2224 -0.4226
  539MOL0     H71144   5.869   8.754  11.255  0.2844  0.3422  0.0219
  539MOL0     H71145   5.759   8.884  11.303 -1.6186 -1.3489 -1.4895
  539MOL0     H71146   6.012   8.842  11.642  1.6105  4.5656 -0.7410
  539MOL0     H71147   5.777   8.075  11.273 -2.1437  2.7236  1.9372
  539MOL0     H71148   5.832   7.992  11.051  2.1938 -0.0522  2.1337
  540MOL0     O71149   0.419   5.527   8.163 -0.0736  0.5955  0.8877
  540MOL0     C71150   0.539   5.538   8.117  0.3547  0.1448 -1.1503
  540MOL0     O71151   0.600   5.653   8.080 -0.6917 -0.0133  0.2356
  540MOL0     C71152   0.531   5.769   8.091 -0.0806  0.6794  0.0870
  540MOL0     C71153   0.490   5.847   7.984 -0.4925  0.1551 -0.5289
  540MOL0     C71154   0.423   5.965   8.005 -0.3838 -0.5288 -0.5468
  540MOL0     C71155   0.413   6.017   8.145  0.7189 -0.2490 -0.3239
  540MOL0     O71156   0.352   6.144   8.161 -0.3862  1.4080 -0.4088
  540MOL0     C71157   0.390   6.254   8.077  0.5776  0.5294  0.0935
  540MOL0     C71158   0.538   6.276   8.076 -0.7531  0.5934 -0.3787
  540MOL0     C71159   0.589   6.282   8.219 -1.3742 -0.0735  0.5953
  540MOL0     C71160   0.736   6.225   8.230 -0.0067  0.6023  0.6372
  540MOL0     C71161   0.807   6.270   8.357  0.8130 -0.3296  0.1007
  540MOL0     C71162   0.900   6.396   8.345 -0.0085 -0.5566  0.1814
  540MOL0     C71163   0.942   6.457   8.480 -0.2291  0.0665 -0.8746
  540MOL0     C71164   0.957   6.609   8.477 -0.6484  0.0721 -0.0393
  540MOL0     N71165   0.971   6.670   8.618  0.0281  0.0763 -0.4200
  540MOL0     C71166   0.871   6.746   8.659  0.4118 -0.9025 -0.1291
  540MOL0     C71167   0.908   6.762   8.788  0.1790  0.2671 -0.7259
  540MOL0     C71168   0.833   6.847   8.881 -0.0079  0.5082 -0.6946
  540MOL0     C71169   0.917   6.924   8.990  0.5667  0.3480  0.4958
  540MOL0     C71170   1.029   7.020   8.922  0.3578  0.3645  0.4761
  540MOL0     C71171   1.089   7.135   9.005 -0.3022 -0.1082 -0.2909
  540MOL0     O71172   1.170   7.217   8.917  0.0730 -0.6974  0.2381
  540MOL0     C71173   1.289   7.272   8.961 -0.8385  0.3442 -0.9589
  540MOL0     C71174   1.309   7.319   9.089 -0.2185  0.6315  0.3371
  540MOL0     C71175   1.427   7.370   9.127 -0.1854 -0.5151  0.0523
  540MOL0     C71176   1.540   7.377   9.040  0.8780  1.0351 -0.3728
  540MOL0     C71177   1.667   7.452   9.068 -0.0139  0.1491 -0.5968
  540MOL0     O71178   1.660   7.527   9.170  0.0429 -0.7376 -0.7140
  540MOL0     C71179   1.768   7.602   9.204  0.9124 -0.1650 -0.8089
  540MOL0     C71180   1.829   7.693   9.116 -0.5163 -0.1291 -0.3825
  540MOL0     C71181   1.937   7.773   9.162  0.6665 -0.0940  0.1392
  540MOL0     C71182   1.975   7.768   9.293 -1.0684  0.0911 -1.0947
  540MOL0     O71183   2.085   7.839   9.348  0.4944 -0.0543  0.1103
  540MOL0     C71184   2.210   7.815   9.282  0.1438  0.0210 -0.3640
  540MOL0     C71185   2.296   7.928   9.308  0.4479  0.5507  0.6790
  540MOL0     C71186   2.236   8.072   9.293 -0.0031 -0.1895  0.5870
  540MOL0     C71187   2.342   8.176   9.337 -0.4288  0.2158  0.0641
  540MOL0     C71188   2.402   8.152   9.479 -0.6184 -0.4955 -0.3735
  540MOL0     C71189   2.477   8.275   9.523  0.0779  0.3983 -0.5655
  540MOL0     C71190   2.601   8.310   9.444 -0.2775  0.0721 -0.6971
  540MOL0     C71191   2.686   8.416   9.518 -1.0384  0.9853 -0.1804
  540MOL0    Cl71192   2.783   8.337   9.645  0.3023 -0.2295  0.3201
  540MOL0     C71193   1.920   7.677   9.376 -0.2621 -0.4175  0.3537
  540MOL0     C71194   1.809   7.599   9.333  0.2539  0.3749 -0.4958
  540MOL0     O71195   1.768   7.424   8.997 -0.3707 -0.0275  0.1052
  540MOL0     C71196   1.514   7.344   8.908 -0.3235  0.4488  0.8355
  540MOL0     C71197   1.393   7.298   8.866  0.1701  1.3210 -0.2511
  540MOL0     N71198   1.023   6.705   8.817 -1.0309  0.4259 -0.2673
  540MOL0     N71199   1.056   6.633   8.714 -1.0987  0.2440  0.7206
  540MOL0     C71200   0.463   5.939   8.248 -0.1313 -0.0385  0.1863
  540MOL0     C71201   0.517   5.819   8.217  0.2920 -0.3654 -0.3806
  540MOL0     C71202   0.612   5.406   8.114 -0.3424 -1.2227  0.3550
  540MOL0     C71203   0.559   5.283   8.094  0.1234 -0.0209  0.5325
  540MOL0     C71204   0.631   5.160   8.096  0.3482 -0.2089  0.5961
  540MOL0     C71205   0.770   5.160   8.123  0.6224 -0.0797 -0.9039
  540MOL0     O71206   0.842   5.048   8.128 -0.4152  0.5632 -0.0651
  540MOL0     C71207   0.787   4.916   8.124  0.0845  0.0762 -0.3026
  540MOL0     C71208   0.740   4.876   8.263 -0.4757  0.0671 -0.2432
  540MOL0     C71209   0.687   4.735   8.268 -0.5865 -0.8239  0.2029
  540MOL0     C71210   0.578   4.703   8.163  0.4048  0.1073 -0.0564
  540MOL0     C71211   0.474   4.806   8.151  0.0141  0.0625 -0.3810
  540MOL0     C71212   0.385   4.884   8.141  0.7904 -0.6279  0.1901
  540MOL0     C71213   0.833   5.281   8.144  0.0062 -0.3622 -0.2687
  540MOL0     C71214   0.753   5.398   8.142 -0.5504  0.9646  0.2998
  540MOL0     H71215   0.521   5.813   7.885 -1.3254 -2.8133  0.1156
  540MOL0     H71216   0.387   6.031   7.927  0.6329  2.4552  1.3443
  540MOL0     H71217   0.324   6.336   8.105 -2.4250 -1.4551 -0.7131
  540MOL0     H71218   0.347   6.246   7.977  0.1735 -2.4339  0.4183
  540MOL0     H71219   0.565   6.363   8.015 -2.9531  0.5179 -1.5519
  540MOL0     H71220   0.581   6.190   8.025 -2.4025 -0.1993 -0.4966
  540MOL0     H71221   0.528   6.228   8.292 -2.2687  1.1698  0.7968
  540MOL0     H71222   0.581   6.385   8.255 -0.6501  0.3422 -0.4094
  540MOL0     H71223   0.743   6.116   8.217 -0.2469  0.6346  0.2076
  540MOL0     H71224   0.791   6.257   8.141 -1.6765 -2.1038 -1.5531
  540MOL0     H71225   0.852   6.180   8.401  0.9753 -0.5732 -0.5432
  540MOL0     H71226   0.730   6.306   8.426 -1.3830 -2.0971 -1.2686
  540MOL0     H71227   0.839   6.470   8.293 -3.1782 -2.0305  1.5370
  540MOL0     H71228   0.983   6.361   8.283 -2.7682 -3.7725 -2.1243
  540MOL0     H71229   0.867   6.428   8.555  0.1822  0.5400 -0.2698
  540MOL0     H71230   1.031   6.402   8.512  0.4885  0.8482 -1.4922
  540MOL0     H71231   0.872   6.648   8.420  1.0201 -0.1731 -2.9081
  540MOL0     H71232   1.049   6.635   8.423  1.2720  1.0955  3.3890
  540MOL0     H71233   0.776   6.775   8.615 -1.3577 -4.5417  0.8583
  540MOL0     H71234   0.761   6.789   8.939  1.5903 -0.4338  0.4247
  540MOL0     H71235   0.781   6.935   8.841 -0.3559  0.2991 -0.7123
  540MOL0     H71236   0.967   6.856   9.059 -0.7132  0.0382  1.1484
  540MOL0     H71237   0.842   6.983   9.042 -0.7554 -2.3416  1.8753
  540MOL0     H71238   1.113   6.961   8.886  0.0659 -1.7087  2.8993
  540MOL0     H71239   0.981   7.052   8.829  0.4230  0.2730  0.4107
  540MOL0     H71240   1.144   7.096   9.091 -0.9995  1.2111  0.8045
  540MOL0     H71241   1.005   7.195   9.041 -0.9775 -1.7725  1.0156
  540MOL0     H71242   1.228   7.307   9.161  0.2107 -2.7695  0.3945
  540MOL0     H71243   1.432   7.409   9.228  0.0015  2.1804 -0.9059
  540MOL0     H71244   1.803   7.694   9.011 -1.8979  1.4645 -0.0585
  540MOL0     H71245   1.991   7.831   9.088  1.9040 -1.1885  0.1578
  540MOL0     H71246   2.207   7.795   9.174  0.0160 -1.9774 -0.0377
  540MOL0     H71247   2.261   7.730   9.328 -0.1420 -0.1862 -0.4274
  540MOL0     H71248   2.380   7.928   9.237 -0.6545 -0.2541 -0.6832
  540MOL0     H71249   2.331   7.926   9.411 -4.3177  1.9746  2.5912
  540MOL0     H71250   2.155   8.081   9.365 -0.1248 -1.2915  0.5958
  540MOL0     H71251   2.194   8.074   9.192  3.8715  1.2109 -1.2051
  540MOL0     H71252   2.417   8.201   9.261  0.7158 -1.1578  0.6999
  540MOL0     H71253   2.287   8.270   9.348  4.3541  3.4876 -1.0549
  540MOL0     H71254   2.478   8.074   9.490  0.7200  0.7186 -0.6986
  540MOL0     H71255   2.327   8.129   9.556  0.8823  2.3261  2.1771
  540MOL0     H71256   2.501   8.239   9.623  0.0703  1.0434 -0.3289
  540MOL0     H71257   2.414   8.364   9.534 -0.3694 -0.0516  0.6510
  540MOL0     H71258   2.661   8.220   9.429 -1.8390 -1.0073 -0.7125
  540MOL0     H71259   2.567   8.332   9.342 -1.3706 -0.1496 -0.3957
  540MOL0     H71260   2.628   8.503   9.550 -1.5843  1.2835 -1.8614
  540MOL0     H71261   2.755   8.454   9.443 -0.2966 -2.3958 -1.3725
  540MOL0     H71262   1.957   7.670   9.478  0.4642  1.8252  0.2903
  540MOL0     H71263   1.763   7.526   9.399  0.2090  0.2390 -0.6807
  540MOL0     H71264   1.587   7.360   8.830 -0.8360  1.3185  0.5243
  540MOL0     H71265   1.377   7.275   8.761 -0.9834  2.4229 -0.3369
  540MOL0     H71266   0.437   5.965   8.350 -2.8683  0.5711 -0.5901
  540MOL0     H71267   0.542   5.763   8.307 -1.1689  3.7905  2.9218
  540MOL0     H71268   0.452   5.281   8.081  0.1284  1.7495 -0.0676
  540MOL0     H71269   0.579   5.066   8.080 -1.5473  1.2741 -2.9645
  540MOL0     H71270   0.865   4.846   8.095  1.0497  0.9544  0.0923
  540MOL0     H71271   0.719   4.913   8.038  1.2826  1.8496 -1.3880
  540MOL0     H71272   0.820   4.875   8.339 -0.9634  0.7201  0.2998
  540MOL0     H71273   0.664   4.948   8.296 -0.7220 -0.9609  1.5667
  540MOL0     H71274   0.644   4.732   8.369 -0.6695 -4.5393  0.1817
  540MOL0     H71275   0.766   4.661   8.262  1.5858  1.3265  0.5577
  540MOL0     H71276   0.634   4.688   8.070  1.5917 -1.3489  0.8558
  540MOL0     H71277   0.530   4.608   8.189  0.0900  0.6309  1.3361
  540MOL0     H71278   0.308   4.956   8.119  1.3934  0.7062  2.0907
  540MOL0     H71279   0.939   5.283   8.169 -0.1580 -1.0893  0.5252
  540MOL0     H71280   0.796   5.495   8.165 -0.9152  1.7720 -2.1185
  541MOL0     O71281   1.000   6.939   1.925  0.2029 -0.9429 -0.1679
  541MOL0     C71282   1.063   6.952   2.029  0.7751 -0.3095 -0.4169
  541MOL0     O71283   1.018   6.905   2.154 -0.1635 -0.2709 -0.0536
  541MOL0     C71284   0.914   6.814   2.164  0.9293  0.8088  0.7693
  541MOL0     C71285   0.943   6.675   2.178 -0.1629 -0.3667  0.4550
  541MOL0     C71286   0.839   6.584   2.184  0.1287 -0.6782 -0.4548
  541MOL0     C71287   0.699   6.627   2.180  0.2425  0.0567 -0.4499
  541MOL0     O71288   0.587   6.548   2.192  0.3502 -0.0647  0.4030
  541MOL0     C71289   0.603   6.424   2.267  1.0704 -0.2424  0.3351
  541MOL0     C71290   0.498   6.328   2.230  0.3196  0.2185  1.2464
  541MOL0     C71291   0.359   6.375   2.257  0.2285 -0.1726  0.4375
  541MOL0     C71292   0.231   6.295   2.200  0.9702 -0.4317 -0.1188
  541MOL0     C71293   0.097   6.338   2.266 -0.1989  0.8672  0.1890
  541MOL0     C71294   0.057   6.471   2.202  0.2407  0.4503 -0.7985
  541MOL0     C71295  -0.083   6.519   2.220  0.9437  0.0497  0.1890
  541MOL0     C71296  -0.135   6.474   2.363  0.0703 -0.6115  0.4179
  541MOL0     N71297  -0.282   6.486   2.385 -0.8100  0.0938  0.2951
  541MOL0     C71298  -0.380   6.399   2.344 -0.4934 -0.1274  1.0439
  541MOL0     C71299  -0.492   6.450   2.411 -0.5547  0.5161  0.2302
  541MOL0     C71300  -0.628   6.380   2.382 -0.4920  0.4382 -0.1716
  541MOL0     C71301  -0.639   6.263   2.481  0.8728  0.1232 -0.6713
  541MOL0     C71302  -0.724   6.288   2.617 -0.3282 -0.5600  0.3287
  541MOL0     C71303  -0.654   6.391   2.709  0.0918 -0.0983  0.4360
  541MOL0     O71304  -0.564   6.329   2.802  0.4202 -0.3284  0.5228
  541MOL0     C71305  -0.500   6.422   2.884 -0.2234 -0.0211 -0.2873
  541MOL0     C71306  -0.422   6.367   2.985  0.3398 -0.3567 -0.4305
  541MOL0     C71307  -0.333   6.445   3.062  0.1230 -0.4742  0.3425
  541MOL0     C71308  -0.322   6.582   3.040 -0.3602 -0.2977  0.0721
  541MOL0     C71309  -0.224   6.666   3.117 -0.4968 -0.1750  0.0996
  541MOL0     O71310  -0.103   6.619   3.136 -0.3015  0.3728 -0.1998
  541MOL0     C71311  -0.020   6.704   3.198  0.8822 -0.1127 -0.1455
  541MOL0     C71312  -0.029   6.716   3.332 -0.0608  0.5808  0.5113
  541MOL0     C71313   0.063   6.810   3.396 -0.3198  0.4049  0.0272
  541MOL0     C71314   0.153   6.888   3.323 -0.3683 -0.9924  0.2986
  541MOL0     O71315   0.242   6.976   3.379  0.6507  0.0407 -0.3141
  541MOL0     C71316   0.357   6.904   3.426 -1.0172 -0.1203 -0.0890
  541MOL0     C71317   0.357   6.841   3.562 -0.3297 -0.1064  0.4429
  541MOL0     C71318   0.311   6.928   3.685 -0.2011 -0.5283 -1.1747
  541MOL0     C71319   0.392   7.050   3.711  0.5232  0.1080 -0.1835
  541MOL0     C71320   0.331   7.132   3.838  0.9140  0.3781  0.9724
  541MOL0     C71321   0.397   7.277   3.845 -0.5923  0.6395 -0.0433
  541MOL0     C71322   0.551   7.259   3.848  0.5299 -0.0062  0.2365
  541MOL0     C71323   0.629   7.380   3.900 -1.1833  0.4049 -0.7727
  541MOL0    Cl71324   0.587   7.539   3.822  0.0453 -0.1103 -0.1609
  541MOL0     C71325   0.154   6.868   3.183  0.2472  0.5426 -0.0092
  541MOL0     C71326   0.077   6.773   3.123 -0.2526  0.1808 -0.1116
  541MOL0     O71327  -0.267   6.773   3.154  0.1094 -0.0719  0.9407
  541MOL0     C71328  -0.405   6.644   2.941  0.7298  0.6718 -0.1347
  541MOL0     C71329  -0.491   6.563   2.867  0.4649  0.1103  0.4596
  541MOL0     N71330  -0.468   6.562   2.490 -1.1179 -0.4415  0.4298
  541MOL0     N71331  -0.340   6.580   2.475  0.3758 -0.3273  0.5222
  541MOL0     C71332   0.675   6.768   2.168 -0.0610 -0.9333  0.0714
  541MOL0     C71333   0.782   6.858   2.155  0.8893 -0.5717 -0.4787
  541MOL0     C71334   1.181   7.037   2.030 -0.6923  1.0348  0.0221
  541MOL0     C71335   1.217   7.122   1.921 -0.2072 -1.5794  1.4004
  541MOL0     C71336   1.339   7.192   1.914 -0.4098 -0.2446 -0.2070
  541MOL0     C71337   1.416   7.206   2.033  0.1022 -0.5788  0.9393
  541MOL0     O71338   1.522   7.287   2.050 -0.0714  0.2361 -0.3679
  541MOL0     C71339   1.552   7.398   1.967  1.2363 -0.9421 -0.0774
  541MOL0     C71340   1.664   7.368   1.859 -1.6930 -0.3188 -0.0860
  541MOL0     C71341   1.794   7.322   1.925  0.4884 -0.6062  0.0227
  541MOL0     C71342   1.872   7.424   2.011  0.3742 -0.4433 -0.8304
  541MOL0     C71343   2.000   7.384   2.061  1.3611 -0.7879 -0.2491
  541MOL0     C71344   2.120   7.342   2.084  0.5180 -0.2849 -0.1331
  541MOL0     C71345   1.382   7.120   2.142 -0.8159 -0.2239  0.3481
  541MOL0     C71346   1.278   7.030   2.131  1.1243  0.0119 -0.2746
  541MOL0     H71347   1.048   6.647   2.175  0.7177  2.6065  0.7582
  541MOL0     H71348   0.866   6.479   2.192 -1.1429 -1.0671 -1.0970
  541MOL0     H71349   0.602   6.440   2.375  3.3347 -0.5957  0.4471
  541MOL0     H71350   0.697   6.377   2.238 -0.5220 -2.7286 -1.2561
  541MOL0     H71351   0.508   6.232   2.281 -3.3117  1.0041  3.8439
  541MOL0     H71352   0.514   6.305   2.124 -1.4386 -0.1149  1.0153
  541MOL0     H71353   0.346   6.478   2.224 -2.9871 -0.7965 -0.6334
  541MOL0     H71354   0.342   6.381   2.365  0.8351  0.8723  0.4861
  541MOL0     H71355   0.225   6.297   2.091  0.1733 -1.9909 -0.1397
  541MOL0     H71356   0.257   6.193   2.231  0.5819 -0.2646  0.7894
  541MOL0     H71357   0.108   6.349   2.374 -1.7755 -0.2189  0.4993
  541MOL0     H71358   0.024   6.258   2.249  3.4468 -2.6358 -0.8533
  541MOL0     H71359   0.092   6.460   2.099  0.6492 -3.3299 -0.4010
  541MOL0     H71360   0.124   6.540   2.254 -0.1940 -0.0101  0.4166
  541MOL0     H71361  -0.089   6.628   2.212  1.0330  0.0611  0.2772
  541MOL0     H71362  -0.140   6.468   2.142  0.5650 -0.8792  1.0559
  541MOL0     H71363  -0.091   6.531   2.445  0.2997 -0.7343  0.3820
  541MOL0     H71364  -0.117   6.367   2.379 -1.9103 -1.4707 -2.2989
  541MOL0     H71365  -0.369   6.320   2.271  3.0700  1.0279  0.1759
  541MOL0     H71366  -0.636   6.339   2.281 -0.3212 -1.3227  0.4868
  541MOL0     H71367  -0.702   6.456   2.408  1.6303  2.8598 -0.7419
  541MOL0     H71368  -0.542   6.223   2.512  0.2013 -0.0771  1.3686
  541MOL0     H71369  -0.698   6.189   2.425  0.3691 -2.5354  2.9636
  541MOL0     H71370  -0.821   6.322   2.579  0.1431  2.6576  1.6639
  541MOL0     H71371  -0.741   6.194   2.669 -2.8209  0.4064  1.4704
  541MOL0     H71372  -0.732   6.437   2.770  1.4666  2.1385  0.6187
  541MOL0     H71373  -0.610   6.471   2.649 -0.8038 -0.1587 -0.3186
  541MOL0     H71374  -0.417   6.259   2.984  0.2155 -0.3929 -2.4028
  541MOL0     H71375  -0.268   6.398   3.136  0.7645  0.8331  0.6331
  541MOL0     H71376  -0.096   6.647   3.381  2.2147  0.2508  3.5112
  541MOL0     H71377   0.064   6.819   3.505 -0.2405 -0.1374  0.0731
  541MOL0     H71378   0.439   6.977   3.432 -0.5532 -0.5273 -1.1644
  541MOL0     H71379   0.372   6.827   3.349  0.6994  0.1465 -0.0688
  541MOL0     H71380   0.451   6.787   3.576  0.8589  1.1338 -2.1400
  541MOL0     H71381   0.281   6.762   3.563  0.5535 -1.0136 -0.7037
  541MOL0     H71382   0.326   6.862   3.771  2.3354 -2.3870 -2.9250
  541MOL0     H71383   0.208   6.961   3.669 -0.6361 -1.8255 -1.1114
  541MOL0     H71384   0.495   7.020   3.733 -0.1407 -0.7536  2.0897
  541MOL0     H71385   0.377   7.111   3.622 -1.1370 -0.8327 -0.5890
  541MOL0     H71386   0.338   7.070   3.928 -2.4543  1.2820  2.0281
  541MOL0     H71387   0.224   7.134   3.814  1.0734 -0.9485  0.0645
  541MOL0     H71388   0.366   7.328   3.937  2.9796  0.9208  1.1640
  541MOL0     H71389   0.380   7.340   3.757 -1.1116  0.6486  0.0602
  541MOL0     H71390   0.587   7.169   3.898 -0.3354 -1.4421 -1.5968
  541MOL0     H71391   0.578   7.228   3.747 -3.1424 -0.2627 -0.8367
  541MOL0     H71392   0.734   7.354   3.882 -1.4005 -1.7869  0.7562
  541MOL0     H71393   0.608   7.385   4.007 -1.5812  0.8100 -0.8653
  541MOL0     H71394   0.226   6.919   3.120  0.6673 -1.9471 -1.6739
  541MOL0     H71395   0.076   6.758   3.015 -2.7402 -0.3654 -0.0648
  541MOL0     H71396  -0.408   6.752   2.926 -0.3614  0.3044 -3.4842
  541MOL0     H71397  -0.554   6.612   2.793  1.7603 -0.7014 -1.2591
  541MOL0     H71398   0.579   6.820   2.173  0.1785 -0.4513 -0.3194
  541MOL0     H71399   0.749   6.961   2.144 -0.4729 -0.6885  1.6966
  541MOL0     H71400   1.148   7.145   1.840 -1.7113  3.5802  3.7166
  541MOL0     H71401   1.348   7.262   1.832 -3.4316  0.1717 -0.2920
  541MOL0     H71402   1.581   7.487   2.024 -1.4298 -0.5358  0.7991
  541MOL0     H71403   1.457   7.423   1.919  0.6909  0.9215  1.8099
  541MOL0     H71404   1.633   7.296   1.782  1.6474  1.2577 -3.1761
  541MOL0     H71405   1.676   7.461   1.803 -4.3231 -0.3918 -0.9418
  541MOL0     H71406   1.854   7.289   1.840 -1.4403  0.7607 -1.9782
  541MOL0     H71407   1.790   7.231   1.986  0.5776 -0.0866  0.8227
  541MOL0     H71408   1.875   7.513   1.948 -0.0059  2.0460  2.3725
  541MOL0     H71409   1.800   7.453   2.089 -0.8692 -0.8075 -1.8102
  541MOL0     H71410   2.226   7.326   2.081  0.9691  2.3638 -0.6330
  541MOL0     H71411   1.444   7.120   2.231  1.5698  3.3919 -1.0639
  541MOL0     H71412   1.248   6.967   2.214 -0.4923 -0.7770 -1.4069
  542MOL0     O71413   5.420   0.345   6.419 -0.1266 -0.3651  0.1862
  542MOL0     C71414   5.527   0.299   6.384 -0.4168  0.0488 -0.5718
  542MOL0     O71415   5.540   0.196   6.299 -0.0875 -0.3680 -0.6852
  542MOL0     C71416   5.428   0.131   6.252 -0.3077 -1.2834 -0.1311
  542MOL0     C71417   5.308   0.112   6.326 -0.2879  0.5547 -0.4067
  542MOL0     C71418   5.195   0.050   6.267  0.2757 -0.8475  0.3037
  542MOL0     C71419   5.197   0.017   6.135 -0.5702  0.8976  0.5716
  542MOL0     O71420   5.110  -0.061   6.066  0.0024 -0.1957  0.2401
  542MOL0     C71421   4.967  -0.022   6.078 -0.6694 -0.1416 -0.1485
  542MOL0     C71422   4.882  -0.082   5.958 -1.1291 -0.1313  0.6169
  542MOL0     C71423   4.730  -0.069   5.977  0.5605 -0.0644 -0.4614
  542MOL0     C71424   4.666  -0.165   6.077  0.2520 -0.8692  0.2623
  542MOL0     C71425   4.511  -0.172   6.064  0.7845  0.9265  0.0941
  542MOL0     C71426   4.459  -0.251   6.184 -0.1280  0.1849 -0.1001
  542MOL0     C71427   4.323  -0.313   6.174 -0.6642  1.4876  0.9378
  542MOL0     C71428   4.291  -0.412   6.283  0.5283  0.3568  0.4088
  542MOL0     N71429   4.154  -0.461   6.258 -0.6818  0.2865 -0.6704
  542MOL0     C71430   4.037  -0.389   6.281 -0.2983 -0.0687 -0.3264
  542MOL0     C71431   3.936  -0.454   6.215 -0.0163 -0.4705  0.2090
  542MOL0     C71432   3.787  -0.419   6.198 -1.2686  0.3238 -0.2915
  542MOL0     C71433   3.770  -0.272   6.170 -0.3602 -0.4158 -0.2007
  542MOL0     C71434   3.628  -0.234   6.129 -0.3778 -0.7979  1.0263
  542MOL0     C71435   3.531  -0.196   6.240  0.2574  0.5054 -0.0746
  542MOL0     O71436   3.412  -0.133   6.188 -0.7954  0.4367  0.5532
  542MOL0     C71437   3.316  -0.080   6.275  0.7796 -0.4585  0.7873
  542MOL0     C71438   3.210  -0.022   6.203 -0.1800  0.4875 -0.1832
  542MOL0     C71439   3.105   0.045   6.265  0.7177  1.1079  0.3972
  542MOL0     C71440   3.101   0.036   6.410  0.6241  0.6077 -0.8482
  542MOL0     C71441   2.982   0.091   6.496 -0.4533 -0.9489  0.4806
  542MOL0     O71442   2.995   0.090   6.633 -0.4785  0.2506 -0.6458
  542MOL0     C71443   2.886   0.132   6.710 -0.4245 -1.1100  0.7097
  542MOL0     C71444   2.922   0.190   6.832 -0.8775 -0.2465 -0.3635
  542MOL0     C71445   2.839   0.250   6.931  0.3677  0.5899  0.0283
  542MOL0     C71446   2.699   0.246   6.905 -0.7693  0.9622 -0.5235
  542MOL0     O71447   2.608   0.291   6.993 -0.5747 -0.6079 -0.6931
  542MOL0     C71448   2.648   0.318   7.128  1.2974  0.0203 -0.7412
  542MOL0     C71449   2.524   0.304   7.216  0.4401  0.5072  0.1564
  542MOL0     C71450   2.479   0.162   7.232  0.5479 -0.3284  0.5697
  542MOL0     C71451   2.330   0.152   7.281  0.0458 -0.3283  0.2232
  542MOL0     C71452   2.296   0.001   7.303  0.6677  1.0410 -0.1430
  542MOL0     C71453   2.150  -0.021   7.319 -0.2355  0.8757  0.1811
  542MOL0     C71454   2.117  -0.168   7.333  0.7268 -0.3096  0.0337
  542MOL0     C71455   1.979  -0.189   7.406  0.0868  0.6906  0.1825
  542MOL0    Cl71456   2.013  -0.174   7.579  0.0980 -0.0922  0.5668
  542MOL0     C71457   2.660   0.189   6.786 -0.5523 -0.5818  0.1554
  542MOL0     C71458   2.746   0.134   6.693 -0.0538 -0.4216  0.4352
  542MOL0     O71459   2.888   0.145   6.432  0.1092  0.5392 -0.4388
  542MOL0     C71460   3.209  -0.021   6.472  0.3944 -0.2534 -0.7735
  542MOL0     C71461   3.313  -0.079   6.406  0.7133 -1.3398 -0.5736
  542MOL0     N71462   3.995  -0.564   6.155 -0.2716 -0.0121 -0.8191
  542MOL0     N71463   4.118  -0.561   6.176  0.1550 -0.0027  0.4119
  542MOL0     C71464   5.316   0.024   6.069  1.0651  0.0236 -0.4400
  542MOL0     C71465   5.432   0.079   6.126  1.0868  0.3326  0.4671
  542MOL0     C71466   5.652   0.369   6.418  0.1286  0.0836 -0.4318
  542MOL0     C71467   5.666   0.475   6.524 -0.5377  0.0734 -0.4095
  542MOL0     C71468   5.788   0.526   6.569 -0.6145 -0.7961 -0.2081
  542MOL0     C71469   5.907   0.482   6.508 -0.2903  0.3900  0.0721
  542MOL0     O71470   6.036   0.528   6.544  0.6336  0.2966 -0.2449
  542MOL0     C71471   6.107   0.602   6.440  0.2905 -0.3621  0.2457
  542MOL0     C71472   6.252   0.637   6.483 -0.6768 -0.5300  0.4281
  542MOL0     C71473   6.346   0.511   6.510  0.3972 -0.1574  0.3963
  542MOL0     C71474   6.325   0.440   6.642 -0.2391  0.0714 -0.7181
  542MOL0     C71475   6.444   0.349   6.665  0.5197  0.9120  0.8138
  542MOL0     C71476   6.543   0.288   6.683 -0.1841  0.1169  0.0756
  542MOL0     C71477   5.903   0.374   6.408  0.4016 -0.5682 -0.8794
  542MOL0     C71478   5.776   0.325   6.371  0.1045  0.2824 -0.3260
  542MOL0     H71479   5.313   0.137   6.431 -0.4234 -2.0560  0.2916
  542MOL0     H71480   5.102   0.031   6.320  0.0367 -1.4024 -0.3011
  542MOL0     H71481   4.946   0.085   6.077  0.6096  0.1349 -1.7209
  542MOL0     H71482   4.931  -0.075   6.166 -2.4828 -1.3443 -1.5248
  542MOL0     H71483   4.913  -0.186   5.946 -1.5350 -0.6782  3.4974
  542MOL0     H71484   4.905  -0.025   5.867 -3.0968  1.0228  0.7820
  542MOL0     H71485   4.680  -0.072   5.880  0.2249 -1.7005 -0.2662
  542MOL0     H71486   4.704   0.030   6.014 -3.0741 -1.8931  2.4862
  542MOL0     H71487   4.705  -0.266   6.062  0.3961 -0.7164 -0.4575
  542MOL0     H71488   4.687  -0.149   6.183  1.4632 -1.7279  0.1689
  542MOL0     H71489   4.490  -0.225   5.971 -4.4850  0.9367  0.9894
  542MOL0     H71490   4.471  -0.071   6.052  0.0030  0.3843 -2.2833
  542MOL0     H71491   4.445  -0.179   6.266  0.0595 -1.5856  1.5476
  542MOL0     H71492   4.520  -0.338   6.207 -0.7186 -0.2024  0.0276
  542MOL0     H71493   4.255  -0.228   6.184 -3.4360 -0.3593 -1.0846
  542MOL0     H71494   4.299  -0.359   6.078  0.0630 -2.6386  2.5311
  542MOL0     H71495   4.310  -0.368   6.381  3.4350  0.1971  0.0141
  542MOL0     H71496   4.367  -0.490   6.271  1.1015  0.9680 -0.0071
  542MOL0     H71497   4.029  -0.300   6.343  0.8355  0.1996 -0.5442
  542MOL0     H71498   3.729  -0.430   6.290 -1.8977  0.9422 -0.6094
  542MOL0     H71499   3.738  -0.468   6.114  2.1269  1.1841 -2.9740
  542MOL0     H71500   3.844  -0.241   6.095 -0.8745  1.7026  0.1121
  542MOL0     H71501   3.795  -0.212   6.258 -1.5489  2.8447 -1.9015
  542MOL0     H71502   3.633  -0.148   6.061  0.1935 -0.8251  1.0333
  542MOL0     H71503   3.593  -0.310   6.059  2.6824 -0.5988 -0.8619
  542MOL0     H71504   3.584  -0.132   6.311 -0.9416  1.6014 -0.1414
  542MOL0     H71505   3.499  -0.291   6.285 -2.5350  2.5586  2.8074
  542MOL0     H71506   3.215  -0.046   6.098 -1.1178 -2.4372  0.3543
  542MOL0     H71507   3.030   0.095   6.205 -0.5337  0.5643  1.4530
  542MOL0     H71508   3.029   0.186   6.851 -0.5207 -3.1625 -2.4515
  542MOL0     H71509   2.886   0.299   7.015 -1.1200  1.1400  0.5791
  542MOL0     H71510   2.682   0.421   7.137  0.9986 -0.0267  1.5470
  542MOL0     H71511   2.720   0.249   7.173 -0.9160 -1.8946  0.1284
  542MOL0     H71512   2.443   0.364   7.174 -0.1506  1.5798  2.6664
  542MOL0     H71513   2.546   0.351   7.312  3.0006 -0.6423  0.2385
  542MOL0     H71514   2.537   0.105   7.306  2.9072  0.0833 -0.8314
  542MOL0     H71515   2.493   0.109   7.137  1.0733 -2.8953  1.9814
  542MOL0     H71516   2.326   0.201   7.378  1.8633  2.1347 -0.8202
  542MOL0     H71517   2.261   0.199   7.210 -0.8794  0.6228  1.6914
  542MOL0     H71518   2.353  -0.050   7.382  0.5748  1.7923  0.4238
  542MOL0     H71519   2.331  -0.039   7.208 -0.9918  1.7569 -1.0985
  542MOL0     H71520   2.084   0.026   7.245  0.9123  2.8481  0.3231
  542MOL0     H71521   2.126   0.024   7.416 -1.0670 -3.1121  2.0202
  542MOL0     H71522   2.121  -0.215   7.234  0.4179 -1.6144  0.6160
  542MOL0     H71523   2.196  -0.220   7.388  2.0188  1.9732  0.4557
  542MOL0     H71524   1.957  -0.292   7.379 -0.9345  0.7658  0.6638
  542MOL0     H71525   1.901  -0.120   7.371  1.5459  2.7674  0.8437
  542MOL0     H71526   2.555   0.178   6.764 -0.8670  0.4021  1.0426
  542MOL0     H71527   2.715   0.085   6.601  0.1093 -0.3257  0.3271
  542MOL0     H71528   3.213   0.001   6.578  1.8316  1.5618 -1.1643
  542MOL0     H71529   3.399  -0.111   6.464 -0.9338 -0.2565  2.6389
  542MOL0     H71530   5.309  -0.008   5.966 -2.1552 -0.1267 -0.2908
  542MOL0     H71531   5.518   0.088   6.061 -1.0885 -0.6617 -2.7822
  542MOL0     H71532   5.592   0.518   6.591  2.7068  5.2384  0.4295
  542MOL0     H71533   5.785   0.600   6.649  0.4859 -2.8198  1.8478
  542MOL0     H71534   6.048   0.691   6.416 -0.4690 -0.0288  2.9728
  542MOL0     H71535   6.120   0.535   6.354  0.9318  0.5739 -0.3998
  542MOL0     H71536   6.301   0.685   6.398 -2.4036 -0.9313 -0.8502
  542MOL0     H71537   6.261   0.703   6.570  0.0705 -0.7247  0.5021
  542MOL0     H71538   6.450   0.543   6.504  0.4164 -0.3921 -0.8855
  542MOL0     H71539   6.324   0.443   6.427  0.4779  0.4525 -0.1342
  542MOL0     H71540   6.325   0.515   6.721  3.5357 -0.6214  0.1618
  542MOL0     H71541   6.241   0.371   6.650  0.8509 -1.0742  2.6990
  542MOL0     H71542   6.632   0.229   6.691  0.9851  1.2323 -3.0261
  542MOL0     H71543   5.991   0.329   6.363  1.3524  1.1398 -0.8266
  542MOL0     H71544   5.768   0.235   6.310  1.0784 -1.7022  2.2714
  543MOL0     O71545   5.980   0.033   8.436 -0.3344 -0.6345 -0.0760
  543MOL0     C71546   5.993  -0.053   8.527  0.1638  0.5016  0.0104
  543MOL0     O71547   5.918  -0.060   8.641 -0.0474  0.1868 -0.1662
  543MOL0     C71548   5.816   0.033   8.643  0.4965 -0.3077 -0.2664
  543MOL0     C71549   5.835   0.176   8.631 -0.9164 -0.0555 -0.3927
  543MOL0     C71550   5.725   0.263   8.650 -0.2897 -0.0816 -0.0050
  543MOL0     C71551   5.606   0.213   8.701 -0.1906  0.0701  0.2402
  543MOL0     O71552   5.517   0.296   8.762  0.5209  0.8274  0.7323
  543MOL0     C71553   5.378   0.277   8.714  0.2409 -0.1811 -0.0660
  543MOL0     C71554   5.355   0.359   8.596  0.0256  0.7836  0.3782
  543MOL0     C71555   5.209   0.364   8.568 -0.1938 -0.9905  0.0601
  543MOL0     C71556   5.185   0.437   8.430  0.9166 -0.2793 -0.0656
  543MOL0     C71557   5.045   0.495   8.435 -0.1212  0.4860  0.2256
  543MOL0     C71558   5.020   0.603   8.325  0.5206  0.0953 -0.3908
  543MOL0     C71559   4.902   0.686   8.369  0.5229 -0.1240 -0.9519
  543MOL0     C71560   4.763   0.615   8.391  0.4624 -0.1934  0.4628
  543MOL0     N71561   4.658   0.714   8.420  0.3149  0.4660 -0.7835
  543MOL0     C71562   4.593   0.777   8.322 -0.7594  0.6394 -0.2623
  543MOL0     C71563   4.502   0.853   8.389  0.7211 -0.0527 -0.1758
  543MOL0     C71564   4.399   0.947   8.329 -0.2183 -0.0114 -0.5899
  543MOL0     C71565   4.334   1.046   8.427 -1.2309  0.1972  0.6565
  543MOL0     C71566   4.221   0.982   8.504 -0.7432  0.6651 -0.2091
  543MOL0     C71567   4.123   1.088   8.557 -0.8815 -0.1267  0.3987
  543MOL0     O71568   4.089   1.179   8.450  0.8386 -0.7131 -1.1950
  543MOL0     C71569   3.954   1.192   8.456  0.0245  0.1772  0.0717
  543MOL0     C71570   3.883   1.140   8.355 -0.1663 -0.9277 -0.1323
  543MOL0     C71571   3.742   1.162   8.349  0.7449 -0.3111 -0.8307
  543MOL0     C71572   3.678   1.228   8.464  0.2247 -0.6821  0.5131
  543MOL0     C71573   3.532   1.236   8.466 -0.2220  0.2609 -0.6031
  543MOL0     O71574   3.472   1.316   8.560 -0.2201 -0.7914 -0.1838
  543MOL0     C71575   3.350   1.295   8.619 -0.1521 -0.7933 -0.4036
  543MOL0     C71576   3.349   1.269   8.753  0.8210  1.7992 -1.4334
  543MOL0     C71577   3.225   1.266   8.817  0.2048 -0.1641  0.1247
  543MOL0     C71578   3.107   1.300   8.749  0.5758  0.6801  1.1679
  543MOL0     O71579   2.996   1.301   8.831  0.6671 -0.3562 -0.1893
  543MOL0     C71580   2.864   1.310   8.770  0.0986 -0.7094 -0.1639
  543MOL0     C71581   2.747   1.300   8.870  0.2346 -0.2884 -0.2642
  543MOL0     C71582   2.762   1.184   8.966  0.4356 -0.1381 -0.0191
  543MOL0     C71583   2.789   1.051   8.890 -0.7015 -0.1352  0.1191
  543MOL0     C71584   2.725   0.926   8.946  0.0329 -0.6543  0.1756
  543MOL0     C71585   2.764   0.813   8.846  0.0693 -0.0666  0.5822
  543MOL0     C71586   2.651   0.697   8.854 -0.2112 -0.0481  0.7801
  543MOL0     C71587   2.654   0.603   8.740  0.1855  0.4134  0.2119
  543MOL0    Cl71588   2.610   0.686   8.593 -0.1937  0.1249  0.1849
  543MOL0     C71589   3.109   1.324   8.612 -0.8283 -0.5583 -0.2619
  543MOL0     C71590   3.228   1.314   8.547  0.7456 -0.6948 -0.3027
  543MOL0     O71591   3.478   1.155   8.387 -0.6332 -0.0297  0.8933
  543MOL0     C71592   3.758   1.272   8.567  0.0486 -0.3546 -0.8200
  543MOL0     C71593   3.894   1.258   8.566 -0.1242  0.3568 -0.1384
  543MOL0     N71594   4.512   0.826   8.530  0.6953 -0.6713  0.5511
  543MOL0     N71595   4.596   0.738   8.539  0.2238 -0.5243 -0.9030
  543MOL0     C71596   5.592   0.068   8.706 -0.2807 -0.1851  0.8359
  543MOL0     C71597   5.695  -0.018   8.682  0.4432 -0.2453  0.1523
  543MOL0     C71598   6.113  -0.140   8.527 -0.8949 -0.1795  0.2015
  543MOL0     C71599   6.139  -0.223   8.634  0.0509  0.5915 -0.3943
  543MOL0     C71600   6.266  -0.297   8.631  0.2834 -0.7115 -0.3345
  543MOL0     C71601   6.362  -0.276   8.528 -0.6478  0.7554 -0.2195
  543MOL0     O71602   6.477  -0.343   8.536  0.2856 -0.9423 -0.4857
  543MOL0     C71603   6.597  -0.296   8.462 -1.0036 -0.8393  0.2822
  543MOL0     C71604   6.726  -0.335   8.524  0.9576 -0.0467 -0.3260
  543MOL0     C71605   6.780  -0.470   8.477 -0.1357 -0.1915  0.6165
  543MOL0     C71606   6.884  -0.508   8.584  0.1127  0.3188  0.3061
  543MOL0     C71607   6.939  -0.636   8.557 -0.2840  0.1104 -0.8179
  543MOL0     C71608   7.000  -0.738   8.554 -0.1666  0.1307  0.7085
  543MOL0     C71609   6.319  -0.206   8.418  0.2794 -0.1247 -0.6873
  543MOL0     C71610   6.202  -0.131   8.421  1.6087  0.0551 -0.1149
  543MOL0     H71611   5.923   0.232   8.600 -0.1459 -1.0785 -0.1334
  543MOL0     H71612   5.760   0.365   8.640  1.6139 -0.3928  2.4370
  543MOL0     H71613   5.307   0.311   8.790 -2.5550 -1.7616 -1.8129
  543MOL0     H71614   5.355   0.172   8.694 -3.9835  0.2899  1.4436
  543MOL0     H71615   5.402   0.305   8.513 -0.1214 -1.0770  1.4469
  543MOL0     H71616   5.393   0.459   8.616 -1.9697  1.8572 -0.8273
  543MOL0     H71617   5.167   0.418   8.654  2.2823 -2.0824  2.0892
  543MOL0     H71618   5.166   0.264   8.558 -1.5263 -0.4935  0.6248
  543MOL0     H71619   5.248   0.526   8.415  0.4657  0.0059 -0.2842
  543MOL0     H71620   5.200   0.379   8.338 -0.9045  0.1338 -0.6685
  543MOL0     H71621   5.027   0.535   8.536  1.8587 -2.7203  2.0110
  543MOL0     H71622   4.971   0.414   8.426 -0.5566  0.8977  0.0574
  543MOL0     H71623   5.019   0.555   8.227 -0.7208 -0.1931 -0.2565
  543MOL0     H71624   5.113   0.659   8.316  1.3883 -1.6203 -3.3086
  543MOL0     H71625   4.936   0.728   8.464 -0.7940  2.4734 -1.5187
  543MOL0     H71626   4.887   0.765   8.295 -4.1286  1.0473  0.9065
  543MOL0     H71627   4.775   0.554   8.481 -1.6607  1.6500  2.1178
  543MOL0     H71628   4.750   0.556   8.300  4.5371 -0.6060 -0.0183
  543MOL0     H71629   4.620   0.778   8.217 -2.2869 -0.3249 -0.6859
  543MOL0     H71630   4.323   0.886   8.279 -1.4076  0.6379  0.3608
  543MOL0     H71631   4.454   1.001   8.251 -0.2864  0.8281 -0.0726
  543MOL0     H71632   4.318   1.139   8.372  0.9923  0.5587  0.5277
  543MOL0     H71633   4.406   1.087   8.499 -2.2491 -0.3921  2.0528
  543MOL0     H71634   4.170   0.917   8.432  0.2362  2.2568 -2.4610
  543MOL0     H71635   4.273   0.921   8.578 -1.0875 -3.9074 -3.3132
  543MOL0     H71636   4.184   1.138   8.632  2.1713 -2.8903  0.0012
  543MOL0     H71637   4.040   1.036   8.606 -1.1319  2.0809  2.4616
  543MOL0     H71638   3.936   1.106   8.266 -2.7113 -0.9625 -1.7525
  543MOL0     H71639   3.694   1.103   8.271  1.9878 -1.9863 -0.4041
  543MOL0     H71640   3.424   1.254   8.829  0.2545  0.5732 -1.0937
  543MOL0     H71641   3.210   1.259   8.924  0.7001  0.0641  0.2114
  543MOL0     H71642   2.845   1.236   8.692  1.4041  1.8128 -3.0821
  543MOL0     H71643   2.853   1.404   8.715 -2.4144 -0.7731  0.1242
  543MOL0     H71644   2.649   1.281   8.825  1.0806 -0.6808 -2.0589
  543MOL0     H71645   2.755   1.394   8.924  1.7655  0.6077 -1.9308
  543MOL0     H71646   2.682   1.175   9.040  1.4137  2.3137  1.4641
  543MOL0     H71647   2.856   1.193   9.021  0.9186 -3.3107 -0.1461
  543MOL0     H71648   2.736   1.063   8.795 -1.1993 -2.2286  0.0960
  543MOL0     H71649   2.896   1.041   8.871 -0.3864 -2.1018  2.4822
  543MOL0     H71650   2.618   0.947   8.959  0.0093 -0.0491 -0.8712
  543MOL0     H71651   2.762   0.905   9.047 -3.1142  1.0815  1.8837
  543MOL0     H71652   2.862   0.770   8.869  0.6403 -3.7676 -6.1980
  543MOL0     H71653   2.768   0.856   8.746 -3.0964 -2.5677 -0.8190
  543MOL0     H71654   2.674   0.638   8.943  2.7335  1.6634  1.2887
  543MOL0     H71655   2.546   0.729   8.854 -0.3135 -0.1200 -2.1829
  543MOL0     H71656   2.586   0.519   8.757 -0.0139  0.3900 -0.6499
  543MOL0     H71657   2.754   0.561   8.730  0.1924  0.5319 -0.2363
  543MOL0     H71658   3.025   1.346   8.547 -2.1961 -5.3106 -0.5198
  543MOL0     H71659   3.235   1.348   8.444 -0.2481  1.8572  0.3743
  543MOL0     H71660   3.719   1.329   8.651  1.1541  0.3192 -0.7313
  543MOL0     H71661   3.945   1.299   8.653  1.9757 -1.7268 -0.2920
  543MOL0     H71662   5.498   0.024   8.735 -1.6382 -0.0032 -2.7779
  543MOL0     H71663   5.678  -0.123   8.699 -1.5397 -0.0530 -0.3538
  543MOL0     H71664   6.069  -0.229   8.717  1.8607  0.9027  1.2440
  543MOL0     H71665   6.287  -0.357   8.718  0.0901 -2.4712 -1.4464
  543MOL0     H71666   6.605  -0.187   8.453 -3.3659 -0.7046 -0.6908
  543MOL0     H71667   6.588  -0.343   8.364  0.8148 -1.5358  0.4072
  543MOL0     H71668   6.805  -0.266   8.494  4.3342 -3.9554 -1.3281
  543MOL0     H71669   6.729  -0.322   8.632  3.8449  0.5746 -0.3981
  543MOL0     H71670   6.830  -0.463   8.380 -1.3126 -0.8326 -0.0548
  543MOL0     H71671   6.704  -0.548   8.468  0.3593 -0.8575  1.9097
  543MOL0     H71672   6.958  -0.427   8.584  0.5319 -0.0060  2.1997
  543MOL0     H71673   6.831  -0.512   8.680  0.1097  2.9874  0.4845
  543MOL0     H71674   7.055  -0.827   8.577 -1.6850 -0.5723  1.8151
  543MOL0     H71675   6.364  -0.203   8.319 -1.3531  1.2696 -1.4335
  543MOL0     H71676   6.194  -0.068   8.334  0.4357 -2.3264 -1.8356
  544MOL0     O71677   7.585   2.352   8.845 -1.3586 -0.5481  0.5688
  544MOL0     C71678   7.598   2.235   8.830  0.0519  0.2398 -0.5391
  544MOL0     O71679   7.720   2.173   8.828  0.3136  0.4279  0.8640
  544MOL0     C71680   7.841   2.242   8.828 -0.7252 -0.2947  0.9953
  544MOL0     C71681   7.937   2.209   8.928 -0.7953  0.4776 -0.0929
  544MOL0     C71682   8.068   2.274   8.929 -0.3433 -0.4236 -0.7362
  544MOL0     C71683   8.100   2.368   8.827  0.1319  0.7174 -0.4922
  544MOL0     O71684   8.232   2.412   8.829  0.2696 -0.6366 -0.3345
  544MOL0     C71685   8.267   2.495   8.722  0.1151 -0.0251 -0.6224
  544MOL0     C71686   8.398   2.553   8.758  0.7367  0.9543  0.9335
  544MOL0     C71687   8.505   2.445   8.768 -0.7380 -0.2082  0.4088
  544MOL0     C71688   8.657   2.500   8.779  0.5983  0.4903 -0.0527
  544MOL0     C71689   8.708   2.528   8.646  0.6021 -0.0095 -0.1272
  544MOL0     C71690   8.849   2.591   8.661 -0.9424  0.3850  0.2231
  544MOL0     C71691   8.875   2.686   8.553  0.8351  0.3561  0.3071
  544MOL0     C71692   8.791   2.807   8.561 -0.0768 -0.8813 -0.4209
  544MOL0     N71693   8.857   2.920   8.485  0.8294 -0.1525 -0.1738
  544MOL0     C71694   8.913   3.027   8.543 -0.1172 -0.6963  0.4542
  544MOL0     C71695   8.947   3.104   8.433 -0.2254 -0.3430 -0.3097
  544MOL0     C71696   9.004   3.241   8.444 -0.0728  0.1138 -0.0861
  544MOL0     C71697   9.145   3.257   8.385  0.0046 -1.0178  0.7724
  544MOL0     C71698   9.166   3.187   8.242  0.7003 -0.5384  0.5080
  544MOL0     C71699   9.304   3.229   8.176  0.5539  0.5383  0.0156
  544MOL0     O71700   9.406   3.219   8.269 -0.5763  0.2891  0.0036
  544MOL0     C71701   9.528   3.257   8.218  0.3964 -0.1978 -0.7006
  544MOL0     C71702   9.561   3.272   8.083  0.2923 -0.0392 -0.3347
  544MOL0     C71703   9.695   3.286   8.046  0.2942  0.9993 -0.5234
  544MOL0     C71704   9.798   3.297   8.149  0.4656 -0.0906  1.2276
  544MOL0     C71705   9.949   3.280   8.125  0.1069  0.2917  0.6376
  544MOL0     O71706  10.028   3.297   8.232  1.0239  0.2229  0.6220
  544MOL0     C71707  10.161   3.279   8.220  0.3150 -0.6407 -0.7033
  544MOL0     C71708  10.238   3.359   8.136  0.2276 -0.1869  1.1598
  544MOL0     C71709  10.375   3.337   8.122  0.5091  0.0941  0.8422
  544MOL0     C71710  10.447   3.250   8.208  0.0600 -0.4534  0.0609
  544MOL0     O71711  10.581   3.225   8.190  0.3973  0.1073 -1.2191
  544MOL0     C71712  10.664   3.317   8.123  0.5469 -0.4219 -0.6423
  544MOL0     C71713  10.809   3.272   8.154 -0.2009 -0.4182 -0.0885
  544MOL0     C71714  10.903   3.353   8.065 -0.3476 -0.7467 -0.1924
  544MOL0     C71715  11.038   3.278   8.063  0.1116  0.2712 -0.9100
  544MOL0     C71716  11.154   3.361   8.017  0.6503 -0.1260  1.1851
  544MOL0     C71717  11.283   3.283   7.999 -0.0190  0.1194 -1.4755
  544MOL0     C71718  11.375   3.335   7.886  0.6441  0.1924  0.3802
  544MOL0     C71719  11.512   3.269   7.878  0.2004 -0.6374 -0.0011
  544MOL0    Cl71720  11.638   3.370   7.781 -0.5725  0.1652 -0.0353
  544MOL0     C71721  10.370   3.173   8.293  0.2435  0.3967  0.3397
  544MOL0     C71722  10.231   3.191   8.303  0.0458 -0.4148  1.1277
  544MOL0     O71723   9.993   3.262   8.016 -0.2475  0.1307 -0.7180
  544MOL0     C71724   9.756   3.293   8.284 -0.0459 -0.1664  0.0312
  544MOL0     C71725   9.623   3.265   8.323 -0.1351  0.6470  0.7986
  544MOL0     N71726   8.923   3.031   8.324 -0.0439 -0.5788  0.2260
  544MOL0     N71727   8.877   2.917   8.350  0.3055  0.2853 -0.4626
  544MOL0     C71728   8.003   2.405   8.738  0.6674  0.5593  0.5071
  544MOL0     C71729   7.876   2.341   8.729  0.7015 -0.0739  0.2596
  544MOL0     C71730   7.473   2.153   8.824 -0.0361 -0.3946 -0.2582
  544MOL0     C71731   7.345   2.224   8.824  1.1230  0.0686  0.4373
  544MOL0     C71732   7.234   2.163   8.776 -0.1848 -0.2151  0.2483
  544MOL0     C71733   7.241   2.029   8.737 -0.0834 -1.0033 -0.4201
  544MOL0     O71734   7.130   1.967   8.689 -0.1219  0.0077 -0.4330
  544MOL0     C71735   7.001   2.025   8.718 -0.2562  0.0732 -0.3187
  544MOL0     C71736   6.881   1.941   8.687 -0.9651 -0.2972 -0.0937
  544MOL0     C71737   6.889   1.794   8.735 -0.2134 -0.5146  1.0856
  544MOL0     C71738   6.754   1.724   8.747  1.2858 -0.5106  0.2240
  544MOL0     C71739   6.692   1.721   8.615 -0.6775 -0.0147 -0.4022
  544MOL0     C71740   6.638   1.724   8.503  0.1077 -0.2710 -1.0306
  544MOL0     C71741   7.362   1.973   8.726 -0.0246 -0.1676  0.0814
  544MOL0     C71742   7.483   2.025   8.769 -0.5016 -0.1752 -0.0206
  544MOL0     H71743   7.910   2.125   8.991  1.0588  0.5778  0.9005
  544MOL0     H71744   8.151   2.244   8.992  0.5897 -1.0146 -2.1687
  544MOL0     H71745   8.196   2.577   8.706 -0.8020 -1.2080 -3.2703
  544MOL0     H71746   8.275   2.439   8.628 -0.4569  0.4232 -0.9485
  544MOL0     H71747   8.375   2.592   8.857 -1.1924  1.2107  0.4271
  544MOL0     H71748   8.422   2.627   8.681  1.8470  0.4177  0.7401
  544MOL0     H71749   8.506   2.383   8.678  1.1826  0.0107  0.2373
  544MOL0     H71750   8.477   2.381   8.852  2.7249  0.6554  2.3993
  544MOL0     H71751   8.663   2.580   8.853  2.1657  1.0347 -0.7336
  544MOL0     H71752   8.718   2.418   8.818  2.0074  1.9523  0.9316
  544MOL0     H71753   8.647   2.589   8.579  0.2780 -0.7452 -0.5125
  544MOL0     H71754   8.717   2.431   8.597  1.1399 -0.0218 -0.0108
  544MOL0     H71755   8.910   2.500   8.655 -0.0577  0.8839  1.2528
  544MOL0     H71756   8.860   2.640   8.758  0.9599 -0.0451  0.2652
  544MOL0     H71757   8.982   2.710   8.550  0.7844  0.7125 -3.0617
  544MOL0     H71758   8.858   2.640   8.455 -1.3637 -0.2169  0.9094
  544MOL0     H71759   8.788   2.846   8.663  0.0039 -0.9878 -0.3787
  544MOL0     H71760   8.698   2.783   8.510  1.4244 -2.7708 -2.4531
  544MOL0     H71761   8.917   3.047   8.650 -1.4057 -1.0789  0.5880
  544MOL0     H71762   9.018   3.273   8.548 -0.4850  0.3002 -0.0859
  544MOL0     H71763   8.932   3.312   8.404  0.3253 -0.6124 -2.2051
  544MOL0     H71764   9.223   3.220   8.451 -0.7871 -2.8784  0.7336
  544MOL0     H71765   9.168   3.364   8.383  3.6022 -1.6015 -3.1467
  544MOL0     H71766   9.176   3.079   8.260  0.2144 -0.3202  2.2485
  544MOL0     H71767   9.082   3.204   8.174  0.4751 -1.9684  0.3866
  544MOL0     H71768   9.294   3.329   8.134 -1.3152 -0.5448 -2.4094
  544MOL0     H71769   9.315   3.160   8.092 -2.8670  0.0659 -0.1760
  544MOL0     H71770   9.481   3.278   8.009 -0.1821  1.4579  0.2613
  544MOL0     H71771   9.733   3.289   7.945  3.0451 -1.3941  0.3192
  544MOL0     H71772  10.191   3.440   8.080 -1.2177 -2.5640 -1.3345
  544MOL0     H71773  10.426   3.386   8.039  0.9460  0.3603  1.2622
  544MOL0     H71774  10.650   3.417   8.165 -0.6767 -0.9936  0.4062
  544MOL0     H71775  10.657   3.313   8.014 -0.2977 -2.4563 -0.5651
  544MOL0     H71776  10.823   3.168   8.123  1.0490  0.4765 -2.8605
  544MOL0     H71777  10.834   3.289   8.259 -0.9351  1.0459 -0.1215
  544MOL0     H71778  10.912   3.458   8.093  1.9602 -1.0620  0.4935
  544MOL0     H71779  10.878   3.363   7.959  2.7177  2.8135 -0.7738
  544MOL0     H71780  11.068   3.251   8.165  0.2522  1.6291 -0.5723
  544MOL0     H71781  11.040   3.188   8.001  2.0113 -2.6010  2.8810
  544MOL0     H71782  11.173   3.446   8.083  2.4106 -1.0632  1.9606
  544MOL0     H71783  11.126   3.410   7.923  1.3955  0.6068  1.3358
  544MOL0     H71784  11.267   3.176   7.982 -2.4965  0.3456 -0.9720
  544MOL0     H71785  11.313   3.314   8.100 -6.8463  1.7259  0.6127
  544MOL0     H71786  11.332   3.313   7.788 -3.0598  1.5545  1.5480
  544MOL0     H71787  11.381   3.443   7.898  1.2460  0.0194  1.8797
  544MOL0     H71788  11.495   3.174   7.828 -0.6983  0.4843 -1.9741
  544MOL0     H71789  11.550   3.251   7.979  1.4992  0.1286 -0.3348
  544MOL0     H71790  10.409   3.118   8.378 -0.1010  0.2215  0.3857
  544MOL0     H71791  10.174   3.132   8.373  0.0933 -2.9749 -0.8281
  544MOL0     H71792   9.825   3.282   8.368 -0.3586 -0.0326  0.3056
  544MOL0     H71793   9.590   3.235   8.422 -1.3093 -1.7064 -0.2212
  544MOL0     H71794   8.012   2.488   8.669 -1.6549  0.6674  0.2501
  544MOL0     H71795   7.805   2.376   8.655 -0.6757 -0.7371  1.2368
  544MOL0     H71796   7.332   2.331   8.835  2.8554  0.5740 -1.7690
  544MOL0     H71797   7.139   2.215   8.776  0.0202  0.2362  2.2531
  544MOL0     H71798   6.980   2.122   8.672  0.1212  0.8259  1.0298
  544MOL0     H71799   6.999   2.023   8.827  2.3159 -2.0896 -0.2169
  544MOL0     H71800   6.793   1.993   8.726 -1.2798 -0.1284 -1.0138
  544MOL0     H71801   6.872   1.934   8.578 -0.9416  2.1273 -0.3032
  544MOL0     H71802   6.939   1.801   8.832 -1.3148 -0.3407  1.6553
  544MOL0     H71803   6.962   1.760   8.661 -0.2577  1.4275  0.0918
  544MOL0     H71804   6.755   1.625   8.795  0.0698 -0.1498  1.0482
  544MOL0     H71805   6.694   1.770   8.827  1.1760 -0.0443 -0.1209
  544MOL0     H71806   6.601   1.733   8.403 -0.0713  3.5499 -0.7719
  544MOL0     H71807   7.359   1.869   8.698 -0.6250 -1.1804  3.4263
  544MOL0     H71808   7.574   1.968   8.752 -1.3237 -2.0975  1.5894
  545MOL0     O71809   8.870   9.364   3.607 -0.1601  0.3659  0.0771
  545MOL0     C71810   8.984   9.380   3.656 -0.2637 -0.9643  0.7820
  545MOL0     O71811   9.090   9.459   3.601  0.3405  0.1365 -0.3509
  545MOL0     C71812   9.043   9.559   3.516  0.5569  0.8948  0.6849
  545MOL0     C71813   9.024   9.694   3.550  0.4777 -0.1195  0.5905
  545MOL0     C71814   8.967   9.777   3.456  0.4467  0.0385  0.9520
  545MOL0     C71815   8.948   9.734   3.320  0.2718  0.0447  0.0817
  545MOL0     O71816   8.900   9.841   3.239 -0.5719  0.5076 -1.0882
  545MOL0     C71817   8.875   9.805   3.101  0.3002  0.5254  0.2896
  545MOL0     C71818   8.822   9.932   3.038 -0.6773  0.0733 -0.5804
  545MOL0     C71819   8.784   9.895   2.895 -0.4027  0.2090 -0.1554
  545MOL0     C71820   8.712  10.014   2.829  0.2624 -0.0521  0.0307
  545MOL0     C71821   8.639   9.958   2.706 -0.3876 -0.5680  0.5717
  545MOL0     C71822   8.600  10.071   2.611 -0.7822  0.6968  0.4302
  545MOL0     C71823   8.494  10.020   2.506  0.8160  0.9518 -0.0983
  545MOL0     C71824   8.355   9.991   2.585  0.4711  0.4668 -0.1384
  545MOL0     N71825   8.253   9.970   2.483 -0.6587  0.3651 -0.3972
  545MOL0     C71826   8.193  10.058   2.405  0.9910 -0.3837  0.0245
  545MOL0     C71827   8.100   9.996   2.341  0.0873 -0.2233 -0.1774
  545MOL0     C71828   8.041  10.059   2.219 -0.0172  0.3760  0.1210
  545MOL0     C71829   7.886  10.082   2.234  0.6265 -0.3617 -0.9597
  545MOL0     C71830   7.858  10.162   2.364 -0.4778 -0.1481 -0.5001
  545MOL0     C71831   7.761  10.278   2.339  0.8332  0.3946  0.6364
  545MOL0     O71832   7.815  10.368   2.245 -0.6171 -0.4111 -0.0821
  545MOL0     C71833   7.757  10.486   2.245 -0.2821  0.3047  0.0209
  545MOL0     C71834   7.826  10.589   2.312 -0.0789 -0.0222  0.2061
  545MOL0     C71835   7.782  10.721   2.301 -0.5780  0.2206 -0.5872
  545MOL0     C71836   7.666  10.752   2.220  0.4426  0.0874 -0.4466
  545MOL0     C71837   7.607  10.893   2.219  0.6901  0.0125 -0.5325
  545MOL0     O71838   7.512  10.923   2.122  0.2218 -0.4063 -0.0224
  545MOL0     C71839   7.422  11.032   2.144 -0.4289  0.5244  0.3956
  545MOL0     C71840   7.368  11.080   2.031 -0.1530 -0.2481  0.6021
  545MOL0     C71841   7.292  11.199   2.026  0.4348 -0.2430 -0.0239
  545MOL0     C71842   7.267  11.276   2.141  0.3037  0.3833 -0.6316
  545MOL0     O71843   7.185  11.389   2.140 -0.3384  0.2168  0.2947
  545MOL0     C71844   7.237  11.492   2.050 -0.3785  0.0353 -0.2886
  545MOL0     C71845   7.139  11.607   2.076 -0.7758 -1.0955  0.4454
  545MOL0     C71846   7.160  11.699   1.963  0.8056 -0.0594  0.0062
  545MOL0     C71847   7.041  11.795   1.962  0.6472  0.1052  0.5422
  545MOL0     C71848   7.004  11.862   1.820  0.3007  0.1200  0.1043
  545MOL0     C71849   7.123  11.910   1.735 -0.2230 -0.1512 -0.7567
  545MOL0     C71850   7.204  12.032   1.796 -0.2738  0.6903 -0.0107
  545MOL0     C71851   7.322  12.069   1.709 -1.2308  0.7472 -0.3475
  545MOL0    Cl71852   7.449  12.139   1.820 -0.2912 -0.2309 -0.1932
  545MOL0     C71853   7.318  11.224   2.264 -0.4101  0.1085 -0.5309
  545MOL0     C71854   7.400  11.106   2.262 -0.6546 -0.2755  0.8660
  545MOL0     O71855   7.662  10.969   2.300  0.8226  0.1633  0.5555
  545MOL0     C71856   7.607  10.653   2.150  0.7362 -0.7552  0.2124
  545MOL0     C71857   7.648  10.519   2.163  0.1632 -1.1559 -0.3837
  545MOL0     N71858   8.099   9.870   2.365  0.5749 -0.0289 -0.1071
  545MOL0     N71859   8.193   9.848   2.454 -0.5993  1.0013 -0.7528
  545MOL0     C71860   8.973   9.599   3.292 -0.7069 -0.3348  0.7555
  545MOL0     C71861   9.015   9.514   3.389  1.6539  0.2716  0.0737
  545MOL0     C71862   9.027   9.296   3.758 -0.6769 -0.0252 -0.5678
  545MOL0     C71863   8.967   9.166   3.783  0.7605 -0.5847  0.7195
  545MOL0     C71864   9.021   9.084   3.884  0.0410 -0.5770 -0.3224
  545MOL0     C71865   9.100   9.138   3.980 -0.1081 -0.4520  0.5992
  545MOL0     O71866   9.143   9.082   4.102 -0.5469  0.6090  0.6362
  545MOL0     C71867   9.077   8.959   4.141  0.2744  0.2999 -0.0556
  545MOL0     C71868   8.929   8.974   4.173 -0.4665  0.0377 -0.7151
  545MOL0     C71869   8.907   9.040   4.308  0.6872  0.0299  0.3337
  545MOL0     C71870   8.760   9.062   4.347  0.0086  0.3413  0.5617
  545MOL0     C71871   8.679   9.129   4.245 -0.0325 -0.4611 -0.1052
  545MOL0     C71872   8.606   9.187   4.169 -1.8584 -0.7393  0.1998
  545MOL0     C71873   9.141   9.273   3.968 -0.1800  0.9137 -0.7294
  545MOL0     C71874   9.098   9.355   3.869 -0.8874  0.1628 -0.5097
  545MOL0     H71875   9.047   9.727   3.651  0.1632 -0.8470  0.9024
  545MOL0     H71876   8.929   9.877   3.472 -0.3446 -0.1822  0.4836
  545MOL0     H71877   8.791   9.735   3.107  0.4266  0.2512 -0.7898
  545MOL0     H71878   8.960   9.766   3.044 -1.8179  0.0518 -2.8601
  545MOL0     H71879   8.899  10.009   3.045  0.8708 -1.4637  0.0308
  545MOL0     H71880   8.739   9.961   3.104 -1.0742  0.7482 -1.3508
  545MOL0     H71881   8.714   9.811   2.900  2.0550 -1.9345  0.7976
  545MOL0     H71882   8.874   9.878   2.834 -0.9035 -0.6109 -0.6880
  545MOL0     H71883   8.634  10.044   2.899 -1.2383 -0.4182 -1.4188
  545MOL0     H71884   8.790  10.088   2.809 -0.3933  0.5439 -0.3818
  545MOL0     H71885   8.549   9.915   2.750 -0.7996  1.4660  1.7961
  545MOL0     H71886   8.693   9.887   2.641 -2.3214 -0.9651 -0.6675
  545MOL0     H71887   8.694  10.090   2.558 -1.8383 -3.6830 -3.7579
  545MOL0     H71888   8.565  10.162   2.660  0.1582  0.6925  1.1446
  545MOL0     H71889   8.483  10.094   2.426  0.6247 -0.9193 -1.8972
  545MOL0     H71890   8.528   9.924   2.464  0.5284 -0.2425  2.2454
  545MOL0     H71891   8.331  10.076   2.649 -1.3946 -0.6367  0.6952
  545MOL0     H71892   8.348   9.899   2.645 -1.8465 -1.3805 -2.9559
  545MOL0     H71893   8.221  10.162   2.390  1.5759 -0.9111 -3.3771
  545MOL0     H71894   8.063   9.992   2.136 -0.7226  1.9167 -1.3798
  545MOL0     H71895   8.093  10.154   2.203  1.0460 -0.4468 -1.5050
  545MOL0     H71896   7.838   9.983   2.228  0.0541 -0.2435  0.7928
  545MOL0     H71897   7.842  10.139   2.152 -1.7627  0.6753  0.8806
  545MOL0     H71898   7.808  10.100   2.439 -1.1567 -1.5758 -2.0847
  545MOL0     H71899   7.949  10.207   2.406  0.3296 -3.4489  1.7470
  545MOL0     H71900   7.750  10.340   2.429  0.9115  1.7462 -0.2577
  545MOL0     H71901   7.663  10.234   2.318  2.1704 -2.7652  0.4300
  545MOL0     H71902   7.919  10.567   2.364 -0.3044  1.8043  1.4891
  545MOL0     H71903   7.846  10.789   2.355  1.1504 -2.8531  1.5882
  545MOL0     H71904   7.386  11.038   1.933 -4.2504 -0.6715 -0.1675
  545MOL0     H71905   7.238  11.231   1.937  0.7377  0.0286 -0.1125
  545MOL0     H71906   7.244  11.455   1.948  0.3564  2.3411 -1.1424
  545MOL0     H71907   7.341  11.520   2.067 -0.0502 -1.5454  0.5400
  545MOL0     H71908   7.151  11.658   2.171 -0.5290  0.7559 -0.5445
  545MOL0     H71909   7.037  11.570   2.082 -1.6221  0.7783 -1.2540
  545MOL0     H71910   7.167  11.659   1.862 -3.2458  0.4665 -0.6372
  545MOL0     H71911   7.248  11.762   1.982  0.7527  0.1526 -0.4421
  545MOL0     H71912   6.952  11.732   1.968  1.1280 -0.9443 -1.9124
  545MOL0     H71913   7.054  11.874   2.037  0.0442  1.4568 -0.7223
  545MOL0     H71914   6.929  11.938   1.845 -2.5399 -1.1515 -3.6244
  545MOL0     H71915   6.944  11.789   1.765  0.1438  0.1239  0.2681
  545MOL0     H71916   7.108  11.961   1.639  1.2235  3.0121  0.5718
  545MOL0     H71917   7.194  11.827   1.724  0.6535  0.6011 -0.8154
  545MOL0     H71918   7.136  12.115   1.817  0.8647  1.3293  1.3553
  545MOL0     H71919   7.252  12.003   1.890  1.2297  0.0412 -0.9351
  545MOL0     H71920   7.300  12.139   1.628 -2.8115  0.5100 -0.1490
  545MOL0     H71921   7.369  11.980   1.666  0.8788  2.0825 -0.9551
  545MOL0     H71922   7.303  11.280   2.355  0.3423  3.0502 -2.0994
  545MOL0     H71923   7.447  11.067   2.352 -1.8339  0.0092  1.6171
  545MOL0     H71924   7.510  10.688   2.119  1.3453  1.1686  0.3265
  545MOL0     H71925   7.605  10.435   2.111  0.4712  0.6268 -3.8132
  545MOL0     H71926   8.951   9.564   3.191  1.4642  0.5125 -0.0806
  545MOL0     H71927   9.032   9.412   3.354  1.9864  0.9766 -1.9513
  545MOL0     H71928   8.888   9.131   3.717  0.0645 -0.3034  1.3828
  545MOL0     H71929   9.000   8.977   3.890  2.7812 -1.1474  0.3828
  545MOL0     H71930   9.115   8.909   4.230 -5.0143 -1.3449  1.6406
  545MOL0     H71931   9.093   8.881   4.065  1.8950  1.7097 -1.2488
  545MOL0     H71932   8.873   9.032   4.099 -0.0313  2.6649  0.9175
  545MOL0     H71933   8.885   8.875   4.188 -1.9830  1.0363  2.1167
  545MOL0     H71934   8.957   9.138   4.301  0.5113 -0.0098 -3.6684
  545MOL0     H71935   8.962   8.986   4.386  1.6480  0.6757  0.1232
  545MOL0     H71936   8.715   8.965   4.370 -1.5322  1.2172  1.3657
  545MOL0     H71937   8.765   9.123   4.437 -0.3852  2.4390 -0.7792
  545MOL0     H71938   8.544   9.238   4.098  1.1873 -1.5514 -3.3317
  545MOL0     H71939   9.212   9.311   4.041 -4.8607  3.1690  3.2805
  545MOL0     H71940   9.147   9.452   3.861  1.6023 -0.8034  1.6233
  546MOL0     O71941   1.314   8.267   2.921 -0.5385 -0.6586 -0.3484
  546MOL0     C71942   1.377   8.198   3.001 -0.0941 -0.4321 -0.6575
  546MOL0     O71943   1.318   8.101   3.080 -0.1239 -0.4200  0.4395
  546MOL0     C71944   1.186   8.079   3.055  0.7458 -0.9118 -0.3795
  546MOL0     C71945   1.158   7.954   2.999 -0.3831  0.1807  0.8401
  546MOL0     C71946   1.020   7.916   2.979 -0.1396  1.2688 -0.1403
  546MOL0     C71947   0.915   8.005   3.005 -0.0968 -0.1451  0.1308
  546MOL0     O71948   0.795   7.949   2.979 -0.4834  0.6147  0.3056
  546MOL0     C71949   0.677   8.035   2.979  0.0157 -0.3241  0.0351
  546MOL0     C71950   0.550   7.949   2.993 -0.3973 -0.3824 -0.4922
  546MOL0     C71951   0.428   8.033   3.035  0.2523  0.2758 -0.0738
  546MOL0     C71952   0.387   8.132   2.924  0.1253 -0.3635 -0.0740
  546MOL0     C71953   0.348   8.263   2.987  1.2600  0.4446 -0.1423
  546MOL0     C71954   0.464   8.340   3.041  0.5469 -0.3928 -0.1651
  546MOL0     C71955   0.433   8.474   3.100  0.1070 -0.5479  0.6154
  546MOL0     C71956   0.362   8.481   3.237  0.7447 -0.6665  0.1220
  546MOL0     N71957   0.441   8.417   3.345 -0.8303 -0.2800 -0.9788
  546MOL0     C71958   0.564   8.458   3.402  0.5971 -0.5571 -0.6923
  546MOL0     C71959   0.596   8.370   3.493 -0.9936 -0.2134 -0.2472
  546MOL0     C71960   0.728   8.366   3.566 -0.2333  0.2368  0.2798
  546MOL0     C71961   0.852   8.300   3.499  0.7597  0.0749  0.0647
  546MOL0     C71962   0.893   8.355   3.356 -0.2965 -0.0897  0.6971
  546MOL0     C71963   0.926   8.492   3.354 -0.8407 -1.2225  0.3960
  546MOL0     O71964   1.023   8.521   3.462  0.1403  0.3089 -0.0955
  546MOL0     C71965   1.159   8.504   3.453 -0.3481  0.0961 -0.2956
  546MOL0     C71966   1.233   8.457   3.347 -0.1665  0.3753  0.3207
  546MOL0     C71967   1.373   8.429   3.361 -0.3027  0.3278 -0.4597
  546MOL0     C71968   1.438   8.452   3.484  0.1941  0.3297  0.2554
  546MOL0     C71969   1.578   8.415   3.505  0.3010  0.1058  0.2747
  546MOL0     O71970   1.619   8.379   3.633  0.5775 -0.3603 -0.4954
  546MOL0     C71971   1.755   8.356   3.657 -0.1871 -0.3967  0.2748
  546MOL0     C71972   1.860   8.412   3.593 -0.3141  0.6334  1.1180
  546MOL0     C71973   1.991   8.379   3.637  0.7985 -0.7229 -0.3024
  546MOL0     C71974   2.019   8.301   3.742  0.0682 -0.1783 -0.0169
  546MOL0     O71975   2.158   8.291   3.770  0.3670 -0.1507 -0.4257
  546MOL0     C71976   2.192   8.262   3.908  0.2940 -0.2258 -0.1270
  546MOL0     C71977   2.348   8.270   3.918  0.5044  1.1044  0.5904
  546MOL0     C71978   2.397   8.263   4.057 -0.0174 -0.5628  0.3919
  546MOL0     C71979   2.548   8.272   4.060 -0.5781 -0.0804  0.2941
  546MOL0     C71980   2.606   8.410   4.058 -0.9050 -0.3971  1.1384
  546MOL0     C71981   2.757   8.411   4.088 -0.3336 -0.2633 -0.3017
  546MOL0     C71982   2.819   8.548   4.075 -0.7808 -0.4949 -0.2830
  546MOL0     C71983   2.882   8.548   3.937  0.0344  0.4719  0.0698
  546MOL0    Cl71984   3.017   8.427   3.918 -0.2356  0.3328 -0.4144
  546MOL0     C71985   1.911   8.245   3.805 -0.0745  0.5665  0.1292
  546MOL0     C71986   1.779   8.280   3.763 -1.1169  0.2299 -0.3055
  546MOL0     O71987   1.644   8.396   3.399 -0.8353 -0.9475  0.1218
  546MOL0     C71988   1.360   8.498   3.590  0.7949 -0.2708  0.2001
  546MOL0     C71989   1.225   8.523   3.574 -0.8407  0.2011  0.1339
  546MOL0     N71990   0.499   8.280   3.507 -0.0543  0.8324 -0.4515
  546MOL0     N71991   0.406   8.304   3.421  0.2007 -0.7090 -0.2194
  546MOL0     C71992   0.951   8.135   3.054 -0.2142  0.3379 -0.6259
  546MOL0     C71993   1.086   8.175   3.085  0.5971  0.6217  0.3135
  546MOL0     C71994   1.522   8.222   3.009 -0.0597  0.4429 -0.5392
  546MOL0     C71995   1.587   8.325   2.942 -0.3041 -0.2651 -0.7163
  546MOL0     C71996   1.726   8.362   2.965  0.0004 -0.3144  0.7988
  546MOL0     C71997   1.797   8.285   3.061  0.0915 -0.4361  0.1654
  546MOL0     O71998   1.929   8.325   3.092 -0.0202  0.1519  0.4490
  546MOL0     C71999   2.013   8.213   3.130 -0.2532 -0.1530 -0.1672
  546MOL0     C72000   2.168   8.226   3.124  0.0180 -0.0202 -0.6946
  546MOL0     C72001   2.213   8.322   3.237 -0.3207 -0.2280  0.5068
  546MOL0     C72002   2.339   8.294   3.317 -0.5627  0.0297  0.5229
  546MOL0     C72003   2.455   8.267   3.233 -0.2720 -0.5206 -0.3460
  546MOL0     C72004   2.542   8.237   3.156 -0.5156  0.1998 -0.0509
  546MOL0     C72005   1.733   8.180   3.126 -0.3174  0.2159  0.7969
  546MOL0     C72006   1.601   8.152   3.099  0.5021  0.3466  0.8718
  546MOL0     H72007   1.232   7.883   2.963  0.4911  2.0138 -1.1966
  546MOL0     H72008   1.001   7.818   2.938  0.7785  1.3628 -0.8038
  546MOL0     H72009   0.680   8.087   2.883  1.3299  0.6818  0.5942
  546MOL0     H72010   0.690   8.100   3.066  3.0797  0.2842 -0.7814
  546MOL0     H72011   0.575   7.871   3.066 -0.9648  0.6368  0.8438
  546MOL0     H72012   0.534   7.903   2.896 -0.5316 -0.1316 -0.5902
  546MOL0     H72013   0.443   8.086   3.130 -0.3399  1.8203 -0.7984
  546MOL0     H72014   0.353   7.957   3.054  0.8141 -0.2346  0.1246
  546MOL0     H72015   0.467   8.153   2.853  1.5999 -2.4426  0.8936
  546MOL0     H72016   0.309   8.084   2.863  1.2216  2.2318 -3.8744
  546MOL0     H72017   0.260   8.257   3.052  0.6002 -0.0419 -1.0570
  546MOL0     H72018   0.315   8.331   2.908 -0.2348  0.4646  0.4698
  546MOL0     H72019   0.532   8.357   2.956  1.2230 -1.3710  0.1562
  546MOL0     H72020   0.521   8.282   3.114  3.5092  1.1390 -1.0845
  546MOL0     H72021   0.525   8.533   3.112  0.3817 -0.7181 -0.5395
  546MOL0     H72022   0.374   8.520   3.020  2.0735  0.0654 -0.5599
  546MOL0     H72023   0.281   8.407   3.232  1.2318 -1.3846  1.9439
  546MOL0     H72024   0.325   8.578   3.270 -0.3260 -0.9924 -0.0789
  546MOL0     H72025   0.623   8.536   3.356  0.7189 -0.0748  0.2569
  546MOL0     H72026   0.706   8.326   3.665 -3.6007  0.7208 -0.1631
  546MOL0     H72027   0.750   8.472   3.585 -2.3694  0.5164  1.4962
  546MOL0     H72028   0.830   8.193   3.490 -1.3535  0.5686 -1.4556
  546MOL0     H72029   0.935   8.313   3.569 -0.9582  1.1703  1.9938
  546MOL0     H72030   0.965   8.282   3.316 -1.1333 -0.1158 -0.8321
  546MOL0     H72031   0.811   8.351   3.284  0.3535  0.4927 -0.1009
  546MOL0     H72032   0.838   8.556   3.365  0.0243  0.7152 -2.7314
  546MOL0     H72033   0.966   8.530   3.260 -0.0602  0.5136  1.3922
  546MOL0     H72034   1.191   8.453   3.247 -1.4342  0.4460  0.8288
  546MOL0     H72035   1.424   8.412   3.267  1.0358  1.3243  0.0589
  546MOL0     H72036   1.853   8.494   3.522  1.7154  1.9855  2.3665
  546MOL0     H72037   2.074   8.420   3.581  0.0548  3.6926  1.3833
  546MOL0     H72038   2.158   8.164   3.943  3.3637 -1.0231  0.9447
  546MOL0     H72039   2.145   8.337   3.972  0.3250  0.3151 -0.7343
  546MOL0     H72040   2.362   8.370   3.875 -1.1627 -0.8102 -5.2743
  546MOL0     H72041   2.391   8.189   3.859  1.1807  1.5373  0.4824
  546MOL0     H72042   2.355   8.172   4.100  0.6764 -0.0890  2.1549
  546MOL0     H72043   2.360   8.347   4.117  1.8068 -0.3011  1.2446
  546MOL0     H72044   2.563   8.226   4.158 -2.2720  1.0985  1.1506
  546MOL0     H72045   2.602   8.222   3.979  0.3028  0.3503  0.6031
  546MOL0     H72046   2.562   8.477   4.133 -0.4023  0.4011  0.7323
  546MOL0     H72047   2.603   8.463   3.963  5.9014  2.0675  1.7337
  546MOL0     H72048   2.810   8.331   4.034  1.0464  0.4687 -0.0792
  546MOL0     H72049   2.771   8.377   4.192 -2.9470 -1.3761 -0.2361
  546MOL0     H72050   2.739   8.623   4.066  1.1274  1.4176 -2.9685
  546MOL0     H72051   2.889   8.570   4.157 -0.4745 -0.4796 -0.5464
  546MOL0     H72052   2.921   8.649   3.921 -0.1486  0.8437  1.7114
  546MOL0     H72053   2.805   8.529   3.862  2.1346  0.6904 -2.2871
  546MOL0     H72054   1.927   8.177   3.888 -0.4639 -0.1684 -0.3877
  546MOL0     H72055   1.685   8.244   3.806 -2.4596  1.9132 -1.6862
  546MOL0     H72056   1.404   8.515   3.688 -1.9086  2.2321  1.1272
  546MOL0     H72057   1.157   8.554   3.652 -1.4837  1.2419 -0.8085
  546MOL0     H72058   0.868   8.198   3.082 -0.0115  0.0761  0.6335
  546MOL0     H72059   1.104   8.281   3.093  1.9279  0.4618 -0.2184
  546MOL0     H72060   1.533   8.383   2.868  0.4722  0.6193 -0.6104
  546MOL0     H72061   1.780   8.438   2.910  2.4341 -2.7096 -0.3560
  546MOL0     H72062   1.979   8.120   3.082 -3.3368 -1.0359  3.2418
  546MOL0     H72063   1.998   8.198   3.237  1.4237 -0.6616  0.0309
  546MOL0     H72064   2.206   8.127   3.152 -0.8032  0.0313  0.7236
  546MOL0     H72065   2.205   8.257   3.026 -1.7897  0.6664 -1.1840
  546MOL0     H72066   2.143   8.336   3.320  0.0959  0.4162  0.7539
  546MOL0     H72067   2.220   8.423   3.197 -0.5129 -0.0681  0.8702
  546MOL0     H72068   2.367   8.384   3.372  0.7324  0.6737 -1.1164
  546MOL0     H72069   2.329   8.201   3.374  3.9198  1.3492  4.1018
  546MOL0     H72070   2.617   8.192   3.095 -1.6869 -1.6338 -0.2051
  546MOL0     H72071   1.775   8.129   3.213  0.9231 -0.2157 -0.0249
  546MOL0     H72072   1.557   8.080   3.167 -0.3267  0.6880  0.7014
  547MOL0     O72073   9.159   0.527   0.989  0.3418 -0.3105  0.4451
  547MOL0     C72074   9.158   0.537   1.114  0.1682 -0.2020 -0.2164
  547MOL0     O72075   9.086   0.625   1.190  0.1018  0.6581  0.6658
  547MOL0     C72076   9.011   0.714   1.125 -0.8498 -0.2187  0.0178
  547MOL0     C72077   9.051   0.797   1.015  0.1946  0.6876 -0.1232
  547MOL0     C72078   8.974   0.897   0.972  0.1778 -0.0241 -0.0051
  547MOL0     C72079   8.846   0.921   1.016  0.3184 -0.0571 -0.2397
  547MOL0     O72080   8.772   1.024   0.971 -0.4022 -1.2444 -0.3005
  547MOL0     C72081   8.648   1.065   1.035  0.1672  0.0781  0.4217
  547MOL0     C72082   8.570   1.166   0.945 -0.2171  0.0493 -0.0996
  547MOL0     C72083   8.452   1.243   1.018 -0.0776  0.3447 -0.1753
  547MOL0     C72084   8.391   1.350   0.926 -0.4051  0.8275 -0.4025
  547MOL0     C72085   8.255   1.387   0.987  0.0184 -0.3193  0.0753
  547MOL0     C72086   8.202   1.498   0.893 -0.5087 -0.2482 -0.0620
  547MOL0     C72087   8.090   1.576   0.958  0.4820 -0.1501 -0.0144
  547MOL0     C72088   8.025   1.691   0.877  0.1470  0.4174  0.6510
  547MOL0     N72089   8.112   1.785   0.816 -0.6862 -0.1537 -0.1839
  547MOL0     C72090   8.113   1.913   0.858  0.5852  0.6316 -0.7130
  547MOL0     C72091   8.211   1.968   0.779  0.0776 -1.0792 -0.0096
  547MOL0     C72092   8.260   2.109   0.792  0.0327 -0.1778  0.7819
  547MOL0     C72093   8.168   2.224   0.725 -0.4248 -0.4684 -0.3231
  547MOL0     C72094   8.234   2.359   0.760  0.1792  0.1842  1.7770
  547MOL0     C72095   8.139   2.479   0.747  0.2414 -0.6352 -0.3656
  547MOL0     O72096   8.095   2.501   0.610  0.3305 -0.8366 -0.5605
  547MOL0     C72097   7.964   2.463   0.593  0.3402 -0.1567  0.2691
  547MOL0     C72098   7.930   2.388   0.490  0.5795  0.0362 -0.0740
  547MOL0     C72099   7.793   2.348   0.464 -0.6218  0.0617 -0.3066
  547MOL0     C72100   7.688   2.395   0.544 -0.0921  0.9122  0.4465
  547MOL0     C72101   7.553   2.335   0.520  0.0300 -0.2219 -0.1938
  547MOL0     O72102   7.533   2.261   0.413 -0.2156 -0.6261 -0.0047
  547MOL0     C72103   7.410   2.199   0.384  0.2999 -0.8237 -0.7496
  547MOL0     C72104   7.420   2.108   0.280 -0.2294 -0.6784 -0.4856
  547MOL0     C72105   7.306   2.043   0.227 -0.1391 -0.1365  0.1347
  547MOL0     C72106   7.183   2.060   0.283  0.4348 -0.5501  0.2857
  547MOL0     O72107   7.073   1.980   0.241  0.2339 -0.1384 -0.3140
  547MOL0     C72108   7.010   1.914   0.349  0.4299  0.3783  0.4796
  547MOL0     C72109   6.934   1.795   0.306 -0.0373  0.4200 -0.2489
  547MOL0     C72110   6.812   1.777   0.402 -0.4633 -0.5610  0.7571
  547MOL0     C72111   6.768   1.628   0.401 -0.1446  1.0056  0.2852
  547MOL0     C72112   6.620   1.615   0.450 -0.2632  0.5093  0.0907
  547MOL0     C72113   6.547   1.482   0.407 -0.1172 -0.0269 -0.6042
  547MOL0     C72114   6.398   1.485   0.455 -0.7189  0.6998  0.0933
  547MOL0     C72115   6.348   1.348   0.425 -0.1547  0.7643 -0.6962
  547MOL0    Cl72116   6.316   1.319   0.254 -0.0483 -0.0459 -0.0563
  547MOL0     C72117   7.169   2.157   0.379 -0.0896 -0.8192 -0.7088
  547MOL0     C72118   7.281   2.221   0.433 -0.1930 -0.2206  0.1252
  547MOL0     O72119   7.467   2.380   0.597 -0.9209 -0.5211  0.0004
  547MOL0     C72120   7.725   2.482   0.643  0.0388  0.7591  0.3096
  547MOL0     C72121   7.859   2.520   0.664 -0.3917 -0.2251  0.5097
  547MOL0     N72122   8.264   1.871   0.693 -0.7434 -0.2438  0.0868
  547MOL0     N72123   8.196   1.766   0.713  0.2331 -0.3252 -0.7267
  547MOL0     C72124   8.799   0.830   1.119  0.0476 -0.3443  0.6735
  547MOL0     C72125   8.881   0.726   1.167 -0.4393 -0.5857  0.6856
  547MOL0     C72126   9.249   0.449   1.184 -0.1823  0.5976  0.5469
  547MOL0     C72127   9.369   0.391   1.132 -0.7692 -0.7291  0.8242
  547MOL0     C72128   9.446   0.298   1.215  0.9008 -0.1026 -0.9833
  547MOL0     C72129   9.407   0.272   1.351  0.4598  0.5678 -0.6186
  547MOL0     O72130   9.475   0.173   1.420 -0.4969 -0.2839  0.3236
  547MOL0     C72131   9.407   0.046   1.440  0.1907  0.9323  0.2592
  547MOL0     C72132   9.514  -0.054   1.465 -0.1846  0.0138 -0.3972
  547MOL0     C72133   9.460  -0.177   1.545 -0.6633 -0.9010  0.5006
  547MOL0     C72134   9.548  -0.309   1.546  0.2724 -0.3265  0.0074
  547MOL0     C72135   9.690  -0.272   1.559 -0.5885 -0.2179 -0.1351
  547MOL0     C72136   9.803  -0.234   1.556 -0.8601  0.0581 -0.2411
  547MOL0     C72137   9.282   0.334   1.397 -1.5795  0.7578 -0.4574
  547MOL0     C72138   9.212   0.420   1.323  0.3649  0.4431 -0.0838
  547MOL0     H72139   9.156   0.787   0.988 -0.3209 -0.1701 -1.9680
  547MOL0     H72140   9.016   0.972   0.906 -0.1866 -0.1119 -0.3394
  547MOL0     H72141   8.658   1.109   1.135  1.5027  3.1929 -0.9498
  547MOL0     H72142   8.585   0.975   1.031  2.1833 -1.3613 -0.2904
  547MOL0     H72143   8.534   1.111   0.858  3.3209 -0.1902 -1.5876
  547MOL0     H72144   8.646   1.237   0.910 -1.7369  1.7276 -0.1366
  547MOL0     H72145   8.489   1.301   1.103 -0.2562 -1.5221  1.2290
  547MOL0     H72146   8.368   1.175   1.036  0.1270  0.3483  0.8103
  547MOL0     H72147   8.467   1.429   0.930  0.9563 -0.4936  1.7523
  547MOL0     H72148   8.368   1.317   0.824 -1.5949  0.3059  0.0085
  547MOL0     H72149   8.258   1.436   1.085 -0.9170 -2.2097  1.0991
  547MOL0     H72150   8.193   1.297   0.989  0.5929 -0.7295 -0.2397
  547MOL0     H72151   8.175   1.466   0.792  0.2457  0.1627 -0.4056
  547MOL0     H72152   8.283   1.567   0.868 -1.1402  0.7603  0.6442
  547MOL0     H72153   8.011   1.507   0.992 -0.0135 -1.5949 -3.6403
  547MOL0     H72154   8.139   1.629   1.040  0.6933 -1.3330  0.6455
  547MOL0     H72155   7.951   1.732   0.946 -3.0724 -2.7569 -0.5706
  547MOL0     H72156   7.958   1.649   0.801 -0.5526 -3.6389  3.1938
  547MOL0     H72157   8.042   1.964   0.923 -0.0944  0.1982 -1.0988
  547MOL0     H72158   8.355   2.114   0.738 -1.8413  2.6922 -2.7055
  547MOL0     H72159   8.282   2.122   0.898 -1.7603 -4.2157  1.8379
  547MOL0     H72160   8.066   2.228   0.766 -1.4306  0.9163 -2.7274
  547MOL0     H72161   8.166   2.214   0.616  0.5750 -3.1271 -0.1573
  547MOL0     H72162   8.279   2.377   0.858  2.0522  2.6962  0.5886
  547MOL0     H72163   8.316   2.385   0.693  1.2447  0.8403  3.2825
  547MOL0     H72164   8.182   2.574   0.781 -1.5141 -0.6914  2.3455
  547MOL0     H72165   8.056   2.466   0.817  2.2546  0.2611  2.3468
  547MOL0     H72166   8.009   2.348   0.427  0.4933  0.7139 -0.6232
  547MOL0     H72167   7.781   2.268   0.392  2.0227  0.2836 -1.0999
  547MOL0     H72168   7.522   2.091   0.249  0.3158  1.9702 -0.3074
  547MOL0     H72169   7.331   1.960   0.162 -0.3399  0.5834 -0.8847
  547MOL0     H72170   6.935   1.985   0.386  0.7351  1.3780 -0.7620
  547MOL0     H72171   7.069   1.881   0.435 -0.1454 -2.3770 -0.0684
  547MOL0     H72172   6.999   1.708   0.323 -0.6451 -0.0556 -0.3184
  547MOL0     H72173   6.905   1.794   0.201  4.6286 -1.8178 -1.7741
  547MOL0     H72174   6.737   1.847   0.363  0.8787  1.3950  1.5463
  547MOL0     H72175   6.829   1.807   0.506 -2.9277  1.2356  0.7546
  547MOL0     H72176   6.774   1.585   0.300  0.8858  1.9687 -0.0819
  547MOL0     H72177   6.827   1.557   0.460 -1.2762 -0.9611 -0.8075
  547MOL0     H72178   6.553   1.697   0.423 -1.8379 -1.2720 -1.7788
  547MOL0     H72179   6.628   1.618   0.559 -1.4519  0.8991  0.1849
  547MOL0     H72180   6.589   1.396   0.458 -3.1301 -1.5479 -0.4657
  547MOL0     H72181   6.551   1.480   0.297 -3.4577  1.1705 -0.8800
  547MOL0     H72182   6.383   1.517   0.559 -2.5373 -0.5085  0.2356
  547MOL0     H72183   6.342   1.561   0.400  0.2761  0.7262 -0.9310
  547MOL0     H72184   6.255   1.330   0.479  1.8959 -0.2377  2.8490
  547MOL0     H72185   6.413   1.265   0.452 -0.9338  0.6560  0.9597
  547MOL0     H72186   7.067   2.183   0.406  0.6172  2.0702 -0.5308
  547MOL0     H72187   7.264   2.296   0.510  2.6556  2.5238 -1.6687
  547MOL0     H72188   7.647   2.521   0.707 -0.4319  1.8081 -0.8735
  547MOL0     H72189   7.883   2.584   0.748 -0.8915  2.2435 -1.1447
  547MOL0     H72190   8.700   0.843   1.161 -0.9845  0.5574 -1.8256
  547MOL0     H72191   8.840   0.663   1.246 -1.7735  0.3959  0.8052
  547MOL0     H72192   9.398   0.417   1.031  1.2174 -2.2721  0.9367
  547MOL0     H72193   9.534   0.244   1.182  0.3899 -1.9874  0.5521
  547MOL0     H72194   9.339   0.012   1.361 -0.9807 -2.5013  2.5483
  547MOL0     H72195   9.341   0.053   1.526 -0.1571 -0.8528  0.1717
  547MOL0     H72196   9.546  -0.082   1.364  1.5707  1.5708 -0.3183
  547MOL0     H72197   9.597  -0.009   1.520  0.7154 -1.6622 -0.2996
  547MOL0     H72198   9.362  -0.213   1.512 -1.5328 -0.0183  1.9899
  547MOL0     H72199   9.449  -0.140   1.648 -0.8135  1.2724 -0.2518
  547MOL0     H72200   9.515  -0.358   1.638  0.4273  1.6121  1.1583
  547MOL0     H72201   9.528  -0.363   1.453 -2.0719  0.0560  0.2195
  547MOL0     H72202   9.909  -0.224   1.548 -0.9665 -0.0387 -2.3461
  547MOL0     H72203   9.255   0.319   1.501  0.0168  0.9300  0.0036
  547MOL0     H72204   9.114   0.451   1.358  0.1953  1.1619 -1.1604
  548MOL0     O72205   3.757   6.190   9.700 -0.1681 -0.5566  0.4004
  548MOL0     C72206   3.802   6.298   9.660 -1.1239 -0.7747 -0.8519
  548MOL0     O72207   3.735   6.384   9.578 -0.3324 -0.0600  0.1335
  548MOL0     C72208   3.598   6.387   9.557  0.1734 -0.7817 -0.7586
  548MOL0     C72209   3.545   6.505   9.489  0.1164  0.1217  0.1995
  548MOL0     C72210   3.413   6.511   9.451  0.1427 -0.3379  0.1727
  548MOL0     C72211   3.326   6.403   9.481 -0.4484 -1.5163  0.0309
  548MOL0     O72212   3.202   6.425   9.433  0.1584 -0.0706  0.0969
  548MOL0     C72213   3.111   6.316   9.444  0.0366  0.5409  0.0044
  548MOL0     C72214   2.982   6.355   9.374  0.0195  0.0143  0.4959
  548MOL0     C72215   2.904   6.470   9.435 -0.3914 -1.0466  0.6495
  548MOL0     C72216   2.799   6.415   9.538 -0.4209  0.1148 -0.5198
  548MOL0     C72217   2.749   6.527   9.614 -0.1871 -0.4109 -0.0574
  548MOL0     C72218   2.809   6.551   9.749 -0.2278 -0.0786 -0.4254
  548MOL0     C72219   2.809   6.690   9.816  0.6533  0.0680  0.2673
  548MOL0     C72220   2.675   6.740   9.856 -0.6058 -0.6464 -0.6493
  548MOL0     N72221   2.687   6.897   9.853 -0.8610 -0.2077  0.4052
  548MOL0     C72222   2.730   6.980   9.957 -0.4677  1.0814 -0.4274
  548MOL0     C72223   2.688   7.103   9.943 -0.3576  0.3064  0.0096
  548MOL0     C72224   2.703   7.220  10.042 -0.4781 -0.3193 -0.1943
  548MOL0     C72225   2.645   7.176  10.181 -0.6763 -0.3886  0.0818
  548MOL0     C72226   2.593   7.292  10.256  0.1106 -1.5299  0.0227
  548MOL0     C72227   2.511   7.240  10.373  0.0092  0.0719  0.2611
  548MOL0     O72228   2.461   7.353  10.451 -0.1338 -0.2928  0.7167
  548MOL0     C72229   2.463   7.362  10.587  0.2502  0.6116  0.4773
  548MOL0     C72230   2.496   7.252  10.668  0.4076 -0.1575  0.3109
  548MOL0     C72231   2.494   7.262  10.809  0.9643 -0.3131  0.3391
  548MOL0     C72232   2.464   7.388  10.868  0.1192 -0.7976 -0.7057
  548MOL0     C72233   2.459   7.386  11.015 -0.1464  0.7657 -0.3194
  548MOL0     O72234   2.384   7.285  11.074  0.1630  0.2499 -0.3782
  548MOL0     C72235   2.406   7.239  11.203  0.1019  0.8807 -0.7046
  548MOL0     C72236   2.303   7.146  11.241  0.5898 -0.0184 -0.0750
  548MOL0     C72237   2.284   7.125  11.385 -0.6910  0.9970 -0.1989
  548MOL0     C72238   2.397   7.150  11.471 -0.2236 -0.1155  0.4722
  548MOL0     O72239   2.382   7.098  11.591 -0.4396  0.0411  0.4028
  548MOL0     C72240   2.477   7.130  11.686 -0.5849 -0.0741 -0.1803
  548MOL0     C72241   2.414   7.058  11.814  0.2090 -0.2198  0.2863
  548MOL0     C72242   2.510   7.065  11.926 -0.9192 -0.1568 -0.1841
  548MOL0     C72243   2.478   6.976  12.039  0.1383 -0.7166 -0.8513
  548MOL0     C72244   2.590   6.950  12.148 -0.0470  0.0622 -0.1884
  548MOL0     C72245   2.560   6.817  12.226  0.5444 -0.0261  1.0364
  548MOL0     C72246   2.666   6.784  12.330 -0.6901 -0.4330 -0.1360
  548MOL0     C72247   2.691   6.637  12.355 -0.0035  0.2036  0.0461
  548MOL0    Cl72248   2.795   6.568  12.220  0.1366  0.2446 -0.0912
  548MOL0     C72249   2.494   7.236  11.432 -0.5726 -0.0767  0.2440
  548MOL0     C72250   2.500   7.281  11.299 -1.1258  0.3489 -0.2549
  548MOL0     O72251   2.512   7.481  11.072 -0.3134 -0.8666  0.1311
  548MOL0     C72252   2.437   7.498  10.790 -0.2651  1.2588 -0.5185
  548MOL0     C72253   2.435   7.482  10.649 -0.8156 -0.2450 -0.2538
  548MOL0     N72254   2.612   7.106   9.818 -0.1130 -0.3001 -0.3875
  548MOL0     N72255   2.615   6.978   9.777  0.0208 -0.4192  0.2113
  548MOL0     C72256   3.369   6.291   9.554  0.2751 -0.7333  0.2932
  548MOL0     C72257   3.501   6.280   9.598  0.4542 -0.4266 -0.0663
  548MOL0     C72258   3.933   6.339   9.714  0.4420 -0.5782 -0.3838
  548MOL0     C72259   3.997   6.261   9.804 -0.4033 -0.1581 -0.5753
  548MOL0     C72260   4.117   6.307   9.869  0.3334 -0.5494  0.1817
  548MOL0     C72261   4.168   6.430   9.837 -0.0507 -0.3325 -0.3252
  548MOL0     O72262   4.264   6.481   9.916 -0.3441 -0.3299  0.4707
  548MOL0     C72263   4.351   6.582   9.874  0.4071  0.3000 -0.7928
  548MOL0     C72264   4.423   6.638   9.998  0.1198 -0.7505  0.7898
  548MOL0     C72265   4.553   6.578   9.999 -0.0928 -0.0382 -0.3532
  548MOL0     C72266   4.623   6.620  10.117 -0.1878  0.1623 -0.2022
  548MOL0     C72267   4.734   6.527  10.149  0.0238  0.6520  0.0119
  548MOL0     C72268   4.811   6.432  10.160 -0.0235 -0.8001 -1.1588
  548MOL0     C72269   4.102   6.509   9.740  0.4097 -0.7085  1.1763
  548MOL0     C72270   3.983   6.466   9.681 -0.1189  0.8580 -0.1332
  548MOL0     H72271   3.617   6.582   9.464  1.0339 -0.8502 -0.2269
  548MOL0     H72272   3.383   6.606   9.407 -3.0196 -0.7461  1.1604
  548MOL0     H72273   3.099   6.289   9.549  1.1658 -1.3603 -0.3073
  548MOL0     H72274   3.155   6.233   9.388  1.2841 -0.4935  2.3549
  548MOL0     H72275   2.915   6.268   9.375  2.8648 -2.3592 -0.8114
  548MOL0     H72276   2.991   6.367   9.266 -4.1521 -0.2610 -0.0690
  548MOL0     H72277   2.845   6.520   9.358 -4.0164  1.8859  4.8046
  548MOL0     H72278   2.976   6.537   9.483  2.6085 -5.7413  3.6047
  548MOL0     H72279   2.724   6.366   9.475  0.8358 -1.0181 -1.2104
  548MOL0     H72280   2.842   6.343   9.608 -0.3274 -2.0406 -2.6524
  548MOL0     H72281   2.643   6.504   9.629 -0.3531  0.7547  0.6425
  548MOL0     H72282   2.753   6.616   9.549 -3.3892 -0.3323 -0.2839
  548MOL0     H72283   2.917   6.543   9.737  0.3313  2.2525  2.1689
  548MOL0     H72284   2.775   6.474   9.819  3.7379 -0.2717  1.5236
  548MOL0     H72285   2.876   6.681   9.902  0.5315 -2.6739  0.1626
  548MOL0     H72286   2.852   6.763   9.747  0.0954  0.3359  0.2009
  548MOL0     H72287   2.643   6.710   9.956 -0.3098 -0.4944 -0.5075
  548MOL0     H72288   2.599   6.704   9.786 -0.1932 -2.4779 -0.2247
  548MOL0     H72289   2.781   6.948  10.047  0.5089  0.5899 -1.1364
  548MOL0     H72290   2.648   7.311  10.015 -0.7711 -0.1110  1.0221
  548MOL0     H72291   2.810   7.238  10.057 -0.5520 -1.3746  1.9807
  548MOL0     H72292   2.725   7.117  10.225  1.6387  0.5377 -2.5639
  548MOL0     H72293   2.556   7.114  10.166 -1.0238  0.2587 -0.6642
  548MOL0     H72294   2.680   7.351  10.286 -0.9492 -1.7764  4.2041
  548MOL0     H72295   2.533   7.355  10.189  0.6004 -0.1507  0.8350
  548MOL0     H72296   2.576   7.165  10.418  0.4701 -0.2410 -0.8913
  548MOL0     H72297   2.433   7.176  10.332  1.4408  0.3446 -3.1796
  548MOL0     H72298   2.500   7.151  10.626  1.2007  0.6185 -1.6148
  548MOL0     H72299   2.501   7.176  10.875  1.5411 -0.4792  0.0693
  548MOL0     H72300   2.222   7.118  11.174 -2.6389  1.8325  2.7045
  548MOL0     H72301   2.207   7.059  11.424  0.0288  0.1420 -0.2073
  548MOL0     H72302   2.478   7.238  11.705 -1.4992  0.4983 -3.0113
  548MOL0     H72303   2.578   7.099  11.656 -0.9496  1.4779 -3.4583
  548MOL0     H72304   2.396   6.952  11.797  1.0713 -0.4322  0.6466
  548MOL0     H72305   2.321   7.114  11.828  0.3458  0.1027 -0.0683
  548MOL0     H72306   2.525   7.169  11.956 -1.5704  0.4657 -1.8357
  548MOL0     H72307   2.602   7.016  11.892 -1.0762 -1.2938  0.9597
  548MOL0     H72308   2.387   7.021  12.079  2.1984  0.4183  3.0303
  548MOL0     H72309   2.451   6.880  11.994 -0.0172 -0.8689 -0.4449
  548MOL0     H72310   2.586   7.035  12.216  0.5156  1.0899 -1.3859
  548MOL0     H72311   2.688   6.950  12.100  1.4397 -1.2996  2.6140
  548MOL0     H72312   2.535   6.737  12.155 -2.9414 -0.7106  2.8472
  548MOL0     H72313   2.459   6.824  12.268 -0.8133  1.2899 -2.1425
  548MOL0     H72314   2.766   6.817  12.300 -0.1454  0.5813  2.5236
  548MOL0     H72315   2.655   6.835  12.426 -3.5910 -2.8438  0.9711
  548MOL0     H72316   2.602   6.579  12.380  1.6993 -1.8683  1.8110
  548MOL0     H72317   2.749   6.643  12.448 -1.5744  1.1266  1.0002
  548MOL0     H72318   2.569   7.277  11.499  0.6735  0.3787 -1.3547
  548MOL0     H72319   2.578   7.354  11.280 -1.7008  1.5531  1.7416
  548MOL0     H72320   2.423   7.594  10.840  0.0372  1.4432 -0.7824
  548MOL0     H72321   2.414   7.578  10.602  0.2872  0.2135  0.1361
  548MOL0     H72322   3.294   6.220   9.586 -1.6471  1.6933  1.4961
  548MOL0     H72323   3.537   6.182   9.626 -0.5042 -1.6087 -2.6470
  548MOL0     H72324   3.960   6.160   9.819 -1.5415  0.5561  1.9736
  548MOL0     H72325   4.163   6.248   9.947 -1.4236 -2.4338 -0.1116
  548MOL0     H72326   4.287   6.665   9.841 -1.2285  0.8531  3.2461
  548MOL0     H72327   4.413   6.556   9.788 -0.9222  0.5329 -1.8632
  548MOL0     H72328   4.435   6.747   9.992 -0.3613 -0.6441  1.6291
  548MOL0     H72329   4.370   6.620  10.092  0.2281 -1.3252  0.7444
  548MOL0     H72330   4.613   6.601   9.910 -0.0894  0.0991 -0.3152
  548MOL0     H72331   4.540   6.470   9.990  2.8002 -0.3078 -2.8285
  548MOL0     H72332   4.656   6.723  10.107 -0.6928  0.7498  3.0355
  548MOL0     H72333   4.556   6.624  10.203 -0.5093  0.1236 -0.4492
  548MOL0     H72334   4.879   6.352  10.183 -0.0643 -0.2177  1.2465
  548MOL0     H72335   4.152   6.594   9.696  1.2633 -1.6069  0.3698
  548MOL0     H72336   3.929   6.522   9.605 -0.5676 -1.0475 -1.2741
  549MOL0     O72337   8.377   7.627   7.957 -0.2516 -0.1622  0.3835
  549MOL0     C72338   8.399   7.504   7.976 -0.0978  0.4575 -0.1576
  549MOL0     O72339   8.303   7.411   8.022 -0.6520  0.0846  0.6919
  549MOL0     C72340   8.168   7.446   8.033  0.6165  0.3189  0.1284
  549MOL0     C72341   8.110   7.562   8.085  0.7727 -0.4385 -0.9991
  549MOL0     C72342   7.967   7.572   8.093 -0.3602 -0.3446  0.3027
  549MOL0     C72343   7.886   7.471   8.051  0.3051  0.2936 -0.0007
  549MOL0     O72344   7.757   7.459   8.062  1.1140  0.4108  0.1154
  549MOL0     C72345   7.703   7.545   8.168 -0.0847 -0.2489 -0.3802
  549MOL0     C72346   7.740   7.493   8.312  0.6640 -0.6275  0.1909
  549MOL0     C72347   7.664   7.574   8.416  0.1289  0.3643  0.2172
  549MOL0     C72348   7.515   7.544   8.423  0.4133  0.0444 -0.1412
  549MOL0     C72349   7.454   7.618   8.550  0.0809 -0.0161 -0.3020
  549MOL0     C72350   7.312   7.668   8.537  0.6290  0.0535  0.0147
  549MOL0     C72351   7.261   7.723   8.668  0.5025 -1.1839 -0.1493
  549MOL0     C72352   7.199   7.621   8.768  0.3947 -0.2701 -0.8032
  549MOL0     N72353   7.169   7.691   8.890  0.0306  0.2691  0.3148
  549MOL0     C72354   7.265   7.723   8.986 -0.0317  0.1416 -0.8093
  549MOL0     C72355   7.191   7.770   9.088 -1.5849  0.1295 -0.0518
  549MOL0     C72356   7.244   7.836   9.214 -0.0620 -0.3561  0.5234
  549MOL0     C72357   7.135   7.883   9.305 -1.0267  0.0029  0.1870
  549MOL0     C72358   7.170   7.859   9.455  0.1278 -0.7566  0.0169
  549MOL0     C72359   7.267   7.973   9.515  0.5454 -0.2647  0.2577
  549MOL0     O72360   7.232   8.105   9.480  0.3738  0.3856  0.0952
  549MOL0     C72361   7.142   8.171   9.557 -0.1427 -0.2243  1.3445
  549MOL0     C72362   7.105   8.313   9.531 -0.0226  0.8278 -0.5980
  549MOL0     C72363   7.015   8.386   9.609  0.0989 -0.0742  0.2523
  549MOL0     C72364   6.964   8.325   9.723 -0.7809 -0.3076  0.6656
  549MOL0     C72365   6.865   8.395   9.809 -0.7979 -0.1118  0.2121
  549MOL0     O72366   6.796   8.507   9.757  0.1204 -0.2037  0.4679
  549MOL0     C72367   6.731   8.579   9.856 -0.5628 -0.6762  0.2366
  549MOL0     C72368   6.601   8.603   9.834 -0.5958  0.4329 -0.5129
  549MOL0     C72369   6.525   8.663   9.938  0.1928  1.0680  0.0828
  549MOL0     C72370   6.578   8.721  10.055  0.2548 -0.5058  0.2778
  549MOL0     O72371   6.517   8.797  10.152 -0.5128  1.4028  0.3478
  549MOL0     C72372   6.422   8.894  10.109 -1.2739  0.3040  0.2666
  549MOL0     C72373   6.296   8.875  10.189  0.3277 -0.3729 -0.4970
  549MOL0     C72374   6.204   9.005  10.182 -0.0799  0.5116 -0.1143
  549MOL0     C72375   6.150   9.017  10.035 -0.4930 -0.9053 -0.5906
  549MOL0     C72376   6.060   9.149  10.032 -0.3703  0.4016 -0.1578
  549MOL0     C72377   5.939   9.168  10.118 -0.2786 -0.5702 -0.8499
  549MOL0     C72378   5.813   9.092  10.053  0.8302  1.4063 -0.5448
  549MOL0     C72379   5.691   9.119  10.142  0.7868  0.9016 -0.0357
  549MOL0    Cl72380   5.619   9.272  10.089  0.0641  0.2756  0.3145
  549MOL0     C72381   6.715   8.693  10.072 -0.0588  0.4194 -0.0846
  549MOL0     C72382   6.794   8.624   9.975  0.7539 -0.3620 -0.7423
  549MOL0     O72383   6.840   8.338   9.915 -1.0154 -0.0825  0.3539
  549MOL0     C72384   6.995   8.188   9.742  0.6171  0.4946 -0.3071
  549MOL0     C72385   7.068   8.108   9.653 -0.6984  0.0396 -0.8708
  549MOL0     N72386   7.057   7.765   9.057 -0.9201  0.6706 -0.1712
  549MOL0     N72387   7.040   7.712   8.938 -0.4899  0.1127 -0.4067
  549MOL0     C72388   7.943   7.367   7.981 -0.8933 -0.0325 -0.4091
  549MOL0     C72389   8.083   7.351   7.970 -0.4369 -0.2289  0.6430
  549MOL0     C72390   8.538   7.446   7.973 -0.5200  0.6646 -0.1719
  549MOL0     C72391   8.563   7.312   7.978  0.2700  1.0422  1.2910
  549MOL0     C72392   8.686   7.255   7.988 -0.8383 -0.1532  0.6189
  549MOL0     C72393   8.801   7.328   7.966 -0.2218 -0.2757  2.0032
  549MOL0     O72394   8.930   7.273   7.954  0.9170  0.1793  0.1030
  549MOL0     C72395   8.958   7.183   8.060 -0.1198  0.0685 -0.7192
  549MOL0     C72396   8.950   7.250   8.198  0.7379  0.6436  0.4041
  549MOL0     C72397   9.031   7.379   8.201  0.1901 -0.5675  0.4358
  549MOL0     C72398   9.062   7.422   8.347  0.0656  0.3124  0.9670
  549MOL0     C72399   9.149   7.334   8.420  0.2394  0.1217  0.4364
  549MOL0     C72400   9.208   7.254   8.486 -0.0570 -0.8490 -0.1611
  549MOL0     C72401   8.778   7.466   7.941 -0.3932 -0.8746 -0.2908
  549MOL0     C72402   8.650   7.526   7.961 -0.5137  0.2637  0.0469
  549MOL0     H72403   8.170   7.646   8.119  0.1474 -0.4563  0.2121
  549MOL0     H72404   7.928   7.666   8.132  0.6483  0.1914  0.0429
  549MOL0     H72405   7.595   7.537   8.159 -0.0742  1.4585 -2.8424
  549MOL0     H72406   7.716   7.652   8.148  0.0975 -0.6072 -2.3872
  549MOL0     H72407   7.845   7.512   8.333  0.7123  2.3501 -2.0720
  549MOL0     H72408   7.717   7.388   8.333  2.1305 -0.3624  3.7296
  549MOL0     H72409   7.673   7.681   8.395  0.7689 -0.0268 -1.6520
  549MOL0     H72410   7.698   7.552   8.517 -1.1149  2.4154  1.1530
  549MOL0     H72411   7.469   7.573   8.329 -1.9042  1.6055  1.3504
  549MOL0     H72412   7.501   7.436   8.430  0.9726 -0.2901 -3.1324
  549MOL0     H72413   7.519   7.698   8.584  1.5039 -0.4763 -1.8245
  549MOL0     H72414   7.468   7.550   8.635  2.5598  1.5992  0.6886
  549MOL0     H72415   7.242   7.588   8.510 -1.7824  2.0767 -0.0861
  549MOL0     H72416   7.308   7.750   8.465  0.0813  2.1463  2.3018
  549MOL0     H72417   7.337   7.775   8.727 -0.6468 -1.7897  1.9563
  549MOL0     H72418   7.196   7.811   8.658 -1.5673 -2.4485  1.3939
  549MOL0     H72419   7.277   7.547   8.790  1.8845  1.1291 -1.1376
  549MOL0     H72420   7.106   7.573   8.736 -0.8934  1.1511  0.6805
  549MOL0     H72421   7.371   7.699   8.990 -0.2735 -1.7310 -2.9734
  549MOL0     H72422   7.288   7.933   9.188 -1.3880 -0.1133 -0.9587
  549MOL0     H72423   7.321   7.780   9.269 -0.6754 -2.6024 -0.7581
  549MOL0     H72424   7.045   7.825   9.286 -1.4816  1.0983 -1.2052
  549MOL0     H72425   7.112   7.987   9.278 -0.1666 -0.7515 -4.2079
  549MOL0     H72426   7.078   7.862   9.515 -0.9700  0.5955 -1.6121
  549MOL0     H72427   7.196   7.755   9.476  1.6140  0.1358  3.2436
  549MOL0     H72428   7.370   7.956   9.481  0.7805  1.0614  0.2730
  549MOL0     H72429   7.276   7.967   9.623  4.9543  0.7756  0.1269
  549MOL0     H72430   7.162   8.353   9.448 -0.5198  1.8795 -0.4437
  549MOL0     H72431   6.991   8.488   9.583  0.4862  0.0430  0.3460
  549MOL0     H72432   6.551   8.573   9.743 -3.5338 -0.1547  1.1329
  549MOL0     H72433   6.418   8.671   9.924  0.2655 -0.3488 -1.6078
  549MOL0     H72434   6.404   8.882  10.002 -0.8487 -2.3864  0.4127
  549MOL0     H72435   6.458   8.997  10.122 -4.3088  1.5942 -0.7455
  549MOL0     H72436   6.340   8.845  10.284 -1.1539 -0.3115  0.2451
  549MOL0     H72437   6.235   8.791  10.154 -1.0827  0.4177 -0.0376
  549MOL0     H72438   6.273   9.087  10.202 -0.9498  1.8925 -2.3656
  549MOL0     H72439   6.127   8.999  10.260 -0.0840  0.5226 -0.1174
  549MOL0     H72440   6.237   9.034   9.972  1.7801 -0.8545  2.3402
  549MOL0     H72441   6.096   8.924  10.013 -0.6777 -0.4248 -2.2799
  549MOL0     H72442   6.022   9.168   9.931  2.4855 -1.2311 -1.6800
  549MOL0     H72443   6.115   9.240  10.058  0.6142 -0.1056 -0.4125
  549MOL0     H72444   5.914   9.274  10.120  0.0411 -0.5077  0.7444
  549MOL0     H72445   5.962   9.143  10.222 -0.3504 -1.0792 -0.9521
  549MOL0     H72446   5.794   9.117   9.948 -0.4357 -1.4196 -1.0589
  549MOL0     H72447   5.830   8.984  10.052  1.5882  1.4896 -2.7350
  549MOL0     H72448   5.711   9.097  10.248  2.2161 -1.7298 -0.7589
  549MOL0     H72449   5.628   9.033  10.115  0.3846  1.6597 -1.6191
  549MOL0     H72450   6.763   8.722  10.164 -1.3298 -0.1889  0.8017
  549MOL0     H72451   6.900   8.603   9.989  0.4324 -1.7469 -0.2273
  549MOL0     H72452   6.952   8.143   9.831  0.5333 -0.2106 -0.6959
  549MOL0     H72453   7.076   8.001   9.667 -0.6371  0.2553  0.9427
  549MOL0     H72454   7.880   7.289   7.938 -0.0237 -0.2426 -1.3520
  549MOL0     H72455   8.123   7.262   7.924 -0.3435 -0.1042  0.4803
  549MOL0     H72456   8.488   7.234   7.971  0.5011  0.9679 -2.5836
  549MOL0     H72457   8.692   7.147   7.997 -2.6738 -0.7181 -3.1261
  549MOL0     H72458   9.062   7.150   8.056  0.1101  0.6433  0.1462
  549MOL0     H72459   8.903   7.089   8.050  1.3468 -1.2581  2.2096
  549MOL0     H72460   8.845   7.271   8.217  0.9309  3.8116 -1.2970
  549MOL0     H72461   8.991   7.178   8.269 -1.7583 -1.3119  0.0074
  549MOL0     H72462   8.973   7.460   8.155  0.1141 -0.7201  0.2656
  549MOL0     H72463   9.118   7.369   8.135  1.0201 -0.7700  1.5282
  549MOL0     H72464   9.110   7.520   8.339  3.0266 -0.8579  2.6591
  549MOL0     H72465   8.964   7.430   8.393  0.9344 -0.5685  3.0909
  549MOL0     H72466   9.266   7.185   8.544 -0.7205 -0.2572  1.2490
  549MOL0     H72467   8.865   7.524   7.912 -0.9709  0.9622  1.4525
  549MOL0     H72468   8.630   7.632   7.955 -0.3131  0.2400 -1.1789
  550MOL0     O72469   3.341   4.368   6.668  0.5343 -0.0083 -0.2481
  550MOL0     C72470   3.288   4.396   6.559 -0.3906  0.2246 -1.0466
  550MOL0     O72471   3.167   4.361   6.522 -0.1617  0.0295 -0.4619
  550MOL0     C72472   3.083   4.308   6.617 -0.7225 -0.2664  0.6530
  550MOL0     C72473   3.062   4.168   6.624  0.2024  0.0452 -0.3783
  550MOL0     C72474   2.980   4.121   6.724 -0.2751  1.4761  0.0218
  550MOL0     C72475   2.913   4.209   6.819 -0.5117  0.5466  0.3520
  550MOL0     O72476   2.842   4.157   6.921  0.5633  0.7869 -0.0611
  550MOL0     C72477   2.738   4.070   6.876  0.3631 -0.2302  0.1024
  550MOL0     C72478   2.717   3.947   6.980  0.3582 -0.1614 -0.0293
  550MOL0     C72479   2.838   3.926   7.073 -0.4311 -0.2563 -0.0116
  550MOL0     C72480   2.828   3.796   7.149  0.2704  0.1026 -0.1560
  550MOL0     C72481   2.930   3.697   7.104 -0.9997  0.5542  0.3363
  550MOL0     C72482   2.912   3.667   6.950 -0.6501  0.6319  0.4001
  550MOL0     C72483   2.986   3.545   6.903  0.6659 -1.1433  0.1693
  550MOL0     C72484   2.937   3.518   6.752 -0.6272 -0.2024 -0.6998
  550MOL0     N72485   2.952   3.629   6.661  0.1186 -0.2924  0.4319
  550MOL0     C72486   2.866   3.733   6.627 -0.3286 -0.7713 -0.5782
  550MOL0     C72487   2.924   3.797   6.526  0.2050  0.1200  0.0659
  550MOL0     C72488   2.866   3.895   6.425  0.1284  0.1683 -0.3109
  550MOL0     C72489   2.970   3.941   6.320  0.2398  0.0903  0.6476
  550MOL0     C72490   2.900   4.051   6.234 -0.4484  1.0969 -0.1767
  550MOL0     C72491   2.993   4.093   6.127 -0.4218 -1.0825  0.1621
  550MOL0     O72492   3.109   4.163   6.175 -0.6721  0.2582 -0.6005
  550MOL0     C72493   3.220   4.147   6.103 -0.9320  0.3193  0.2142
  550MOL0     C72494   3.227   4.131   5.964  0.1108  0.3176 -0.6011
  550MOL0     C72495   3.354   4.097   5.906 -1.1356 -0.4880 -0.2034
  550MOL0     C72496   3.480   4.106   5.964  0.4857 -0.6315  0.1324
  550MOL0     C72497   3.604   4.072   5.896  0.1769  0.9827 -0.6728
  550MOL0     O72498   3.709   4.080   5.978  0.6154 -0.7801 -0.7191
  550MOL0     C72499   3.837   4.037   5.961 -0.5649  0.0923  0.4168
  550MOL0     C72500   3.903   4.013   6.074  0.3824  0.2775  0.1449
  550MOL0     C72501   4.035   3.965   6.070 -0.0424 -0.7788 -0.2756
  550MOL0     C72502   4.109   3.955   5.954 -0.0750  0.4569 -1.2052
  550MOL0     O72503   4.236   3.908   5.979  0.1654 -0.0996  0.1260
  550MOL0     C72504   4.327   3.913   5.872  0.3734 -0.6623 -0.4508
  550MOL0     C72505   4.469   3.882   5.932 -1.1474  1.3125 -0.4623
  550MOL0     C72506   4.569   3.837   5.826 -0.2107 -0.2476 -0.3179
  550MOL0     C72507   4.716   3.835   5.886  0.0637 -0.2260 -0.3325
  550MOL0     C72508   4.824   3.772   5.794 -0.3121 -0.0222 -0.5689
  550MOL0     C72509   4.819   3.820   5.647  0.3150  0.0098 -0.1733
  550MOL0     C72510   4.958   3.796   5.586  0.4932 -0.5187 -0.3965
  550MOL0     C72511   4.952   3.835   5.438 -0.9190 -0.3218 -1.5020
  550MOL0    Cl72512   4.888   3.700   5.345 -0.3407  0.4894  0.2073
  550MOL0     C72513   4.036   3.983   5.833 -0.1714  0.4195 -0.3468
  550MOL0     C72514   3.897   4.019   5.840 -0.0802 -0.5478 -0.6369
  550MOL0     O72515   3.598   4.027   5.787  0.2490 -0.0503 -1.1871
  550MOL0     C72516   3.470   4.121   6.107  0.2200  0.4537  0.1893
  550MOL0     C72517   3.351   4.147   6.176  0.7577 -0.1629  0.6754
  550MOL0     N72518   3.037   3.735   6.498  0.5721 -0.2350 -0.0363
  550MOL0     N72519   3.051   3.625   6.570  0.2721  0.1583  0.3203
  550MOL0     C72520   2.938   4.349   6.805  0.3754  0.1817  0.7275
  550MOL0     C72521   3.024   4.389   6.708 -0.1560 -0.7102  0.0228
  550MOL0     C72522   3.374   4.480   6.470  0.6959 -0.0952 -0.2948
  550MOL0     C72523   3.477   4.570   6.510  0.6073  0.9964 -0.0605
  550MOL0     C72524   3.547   4.645   6.414 -0.1490  0.6957  0.6101
  550MOL0     C72525   3.527   4.617   6.277  0.1211  0.3092 -0.0304
  550MOL0     O72526   3.593   4.672   6.174 -0.0094 -0.6779 -0.2872
  550MOL0     C72527   3.736   4.663   6.182 -0.6849  0.9144 -0.3805
  550MOL0     C72528   3.746   4.553   6.074  0.4878  0.0718 -0.9055
  550MOL0     C72529   3.900   4.530   6.043  0.2325 -0.2403  0.5158
  550MOL0     C72530   3.977   4.446   6.145  0.4561  0.5489  0.0394
  550MOL0     C72531   4.120   4.462   6.111 -0.0485  0.4996 -0.0244
  550MOL0     C72532   4.231   4.486   6.072 -0.2859 -0.4779  0.0735
  550MOL0     C72533   3.428   4.526   6.241  0.4545 -0.3069  0.3727
  550MOL0     C72534   3.352   4.461   6.337 -0.2663  0.3205  1.0511
  550MOL0     H72535   3.117   4.104   6.556 -4.2863 -2.4340 -2.0730
  550MOL0     H72536   2.969   4.013   6.728 -0.7023  1.4271 -1.7489
  550MOL0     H72537   2.756   4.040   6.773  0.6936 -1.8395  0.6102
  550MOL0     H72538   2.647   4.131   6.872 -2.3219 -3.9422 -1.5697
  550MOL0     H72539   2.687   3.859   6.923 -2.7729  2.9564 -3.7595
  550MOL0     H72540   2.639   3.969   7.054 -0.0620 -2.1585  0.1802
  550MOL0     H72541   2.853   4.009   7.143 -0.8135 -2.1441  2.4789
  550MOL0     H72542   2.927   3.939   7.012 -1.2346  2.6471 -0.7073
  550MOL0     H72543   2.841   3.806   7.258  0.2871 -0.2478 -0.1245
  550MOL0     H72544   2.727   3.760   7.129  0.0677 -0.8976  2.2582
  550MOL0     H72545   2.926   3.606   7.165 -4.1219 -0.5535 -1.2975
  550MOL0     H72546   3.029   3.742   7.115 -1.4146  1.7102 -0.4097
  550MOL0     H72547   2.930   3.749   6.880 -1.0830 -0.6593 -1.3023
  550MOL0     H72548   2.804   3.648   6.941 -1.6323  4.4104  2.0812
  550MOL0     H72549   3.094   3.554   6.920 -0.1547  1.5561  6.7767
  550MOL0     H72550   2.951   3.461   6.964 -0.3961  0.2338  1.5491
  550MOL0     H72551   2.837   3.475   6.753  0.3384 -2.8082 -3.2609
  550MOL0     H72552   3.001   3.439   6.711  1.9289  2.1290 -1.5263
  550MOL0     H72553   2.765   3.757   6.659 -0.3757  0.9080 -1.8328
  550MOL0     H72554   2.827   3.982   6.479  1.7829  0.4849  0.4406
  550MOL0     H72555   2.788   3.838   6.374 -0.6272  1.3363 -0.5051
  550MOL0     H72556   3.014   3.861   6.259  1.9010 -0.0013  1.8748
  550MOL0     H72557   3.054   3.974   6.382 -0.1153  0.2273  1.0593
  550MOL0     H72558   2.817   4.002   6.182  0.0120  1.0661 -0.9104
  550MOL0     H72559   2.881   4.133   6.303  1.6876  0.9842  0.6223
  550MOL0     H72560   2.941   4.165   6.063 -0.0106 -1.1555 -0.2623
  550MOL0     H72561   3.035   4.016   6.060  2.7258  1.1331 -0.6531
  550MOL0     H72562   3.142   4.119   5.898  0.4474 -1.4284 -0.7685
  550MOL0     H72563   3.344   4.077   5.800 -2.4992  3.1983 -0.9322
  550MOL0     H72564   3.840   4.027   6.161  1.8952  2.1632  1.0017
  550MOL0     H72565   4.091   3.936   6.158  0.0532 -1.5588 -0.5839
  550MOL0     H72566   4.322   4.010   5.822 -0.2053 -0.7184 -0.5127
  550MOL0     H72567   4.302   3.835   5.799  0.3261 -1.2659  0.1970
  550MOL0     H72568   4.466   3.795   5.998  1.1941 -0.2550 -2.2313
  550MOL0     H72569   4.518   3.962   5.987 -1.5170  0.5069  1.0930
  550MOL0     H72570   4.563   3.904   5.740  1.0223 -0.9573 -0.9777
  550MOL0     H72571   4.556   3.734   5.791  3.2556 -1.1768  0.7254
  550MOL0     H72572   4.757   3.937   5.894  1.4637 -0.8322  0.5731
  550MOL0     H72573   4.716   3.796   5.988  1.7117 -2.2812 -1.0651
  550MOL0     H72574   4.833   3.663   5.797 -0.5285 -0.0199  0.7750
  550MOL0     H72575   4.919   3.790   5.845 -1.5295 -0.6403  2.0601
  550MOL0     H72576   4.801   3.928   5.638  0.1452  0.5510  4.2782
  550MOL0     H72577   4.746   3.768   5.584  1.6608 -1.0979 -0.8580
  550MOL0     H72578   5.026   3.865   5.638  0.6217 -1.7450  1.1188
  550MOL0     H72579   4.985   3.694   5.614 -0.4261 -1.0621 -1.4178
  550MOL0     H72580   5.056   3.863   5.417  0.3815 -2.8266  0.8812
  550MOL0     H72581   4.896   3.928   5.428  0.2677  0.9646  2.1001
  550MOL0     H72582   4.076   3.967   5.733  1.0244  0.6443  0.0754
  550MOL0     H72583   3.837   4.038   5.752 -0.0148  0.8580 -0.4019
  550MOL0     H72584   3.563   4.121   6.162  0.6258  2.3945 -0.4277
  550MOL0     H72585   3.344   4.155   6.284  0.3968  2.5222  0.5065
  550MOL0     H72586   2.895   4.415   6.880 -1.0827 -0.4771  0.5115
  550MOL0     H72587   3.045   4.495   6.713  0.1442 -0.8302  2.4395
  550MOL0     H72588   3.502   4.594   6.613  0.9270  0.5661 -0.0364
  550MOL0     H72589   3.629   4.712   6.436  1.2065  0.1373 -2.3270
  550MOL0     H72590   3.780   4.627   6.276  1.8105  2.0487 -1.0303
  550MOL0     H72591   3.788   4.756   6.158  1.9713  1.0683  4.5368
  550MOL0     H72592   3.707   4.460   6.114  4.1631 -1.1043  0.4093
  550MOL0     H72593   3.704   4.586   5.979  0.3335 -1.2016 -1.2879
  550MOL0     H72594   3.951   4.626   6.023 -0.2089  0.1397  1.1831
  550MOL0     H72595   3.894   4.476   5.948  1.0803  0.2530  0.1619
  550MOL0     H72596   3.957   4.465   6.251  1.6312  0.4155  0.3001
  550MOL0     H72597   3.956   4.339   6.139  1.3596  0.2163  1.9185
  550MOL0     H72598   4.325   4.517   6.030 -0.4201  0.4155  0.3987
  550MOL0     H72599   3.412   4.508   6.135  0.5556  1.0182  0.1186
  550MOL0     H72600   3.283   4.382   6.307  1.1728 -1.4899  2.2634
  551MOL0     O72601   7.475   2.711  10.039 -0.1710  0.6965  0.3013
  551MOL0     C72602   7.516   2.825   9.996 -1.2267 -0.2280 -0.4164
  551MOL0     O72603   7.439   2.917   9.929  0.6470 -0.1484  0.1476
  551MOL0     C72604   7.313   2.879   9.902 -0.7412 -0.0558 -0.1122
  551MOL0     C72605   7.289   2.778   9.807 -0.2114 -0.3347  0.1069
  551MOL0     C72606   7.155   2.735   9.784  0.3137 -0.0174  0.4775
  551MOL0     C72607   7.052   2.788   9.852  1.3784  0.3258 -0.5581
  551MOL0     O72608   6.922   2.748   9.805 -0.0241 -0.0559 -0.9857
  551MOL0     C72609   6.823   2.853   9.796  0.3814 -0.4548 -0.6963
  551MOL0     C72610   6.695   2.801   9.721 -0.4497 -0.3154 -1.0864
  551MOL0     C72611   6.701   2.814   9.576 -0.4154 -0.0535  0.6300
  551MOL0     C72612   6.562   2.800   9.502 -0.2661 -0.4218  0.9259
  551MOL0     C72613   6.477   2.926   9.527 -0.1119 -0.6633 -0.2301
  551MOL0     C72614   6.353   2.925   9.437 -0.4387 -0.0378 -0.9889
  551MOL0     C72615   6.265   3.046   9.447 -0.1281 -0.2109 -0.0038
  551MOL0     C72616   6.153   3.029   9.557 -0.1481  0.1341 -0.2354
  551MOL0     N72617   6.060   3.149   9.558 -0.1436  1.4572 -0.8090
  551MOL0     C72618   6.077   3.256   9.643 -0.1063  0.1793 -0.5516
  551MOL0     C72619   5.965   3.328   9.630  0.4442 -0.8220 -0.4335
  551MOL0     C72620   5.945   3.472   9.686  0.3761  1.1837 -0.4126
  551MOL0     C72621   5.803   3.500   9.737 -0.0816 -0.6995  1.0499
  551MOL0     C72622   5.799   3.593   9.859 -0.3962 -0.6528 -0.1619
  551MOL0     C72623   5.654   3.622   9.907  0.4114 -0.6892  0.8679
  551MOL0     O72624   5.660   3.697  10.028 -0.3432  0.1186  0.5791
  551MOL0     C72625   5.552   3.780  10.052  0.1871 -0.1807  0.1902
  551MOL0     C72626   5.424   3.761   9.992  0.0974  0.1986  0.0853
  551MOL0     C72627   5.321   3.854  10.015  0.6155  0.3211  0.1837
  551MOL0     C72628   5.336   3.966  10.091 -0.8642  0.1923 -0.7825
  551MOL0     C72629   5.222   4.060  10.113 -0.6451 -0.9148  0.3620
  551MOL0     O72630   5.240   4.182  10.174 -0.0983  0.2102 -0.4131
  551MOL0     C72631   5.147   4.288  10.176  1.2400 -0.4152  0.0456
  551MOL0     C72632   5.019   4.269  10.209  0.5661  0.6128 -0.0650
  551MOL0     C72633   4.927   4.370  10.195 -0.8342  0.2366  0.5021
  551MOL0     C72634   4.973   4.497  10.144  0.2868  0.8367  0.1098
  551MOL0     O72635   4.866   4.583  10.125  0.9936 -0.0105 -0.6301
  551MOL0     C72636   4.870   4.705  10.057 -0.5662  0.6032  1.5135
  551MOL0     C72637   4.753   4.791  10.114 -0.2007  0.0511  0.5197
  551MOL0     C72638   4.639   4.813  10.007  0.4814  1.0350  1.1109
  551MOL0     C72639   4.520   4.909  10.029 -1.0512  0.2191 -0.9442
  551MOL0     C72640   4.429   4.901   9.900 -0.4677 -0.1717 -0.5160
  551MOL0     C72641   4.321   5.004   9.897  0.0655  0.4976 -0.7207
  551MOL0     C72642   4.235   4.993   9.765  0.2661  0.0192 -0.3805
  551MOL0     C72643   4.176   5.128   9.712  0.3310  0.2974  0.2244
  551MOL0    Cl72644   4.044   5.181   9.833  0.0976 -0.3916  0.3485
  551MOL0     C72645   5.114   4.518  10.118  0.0385 -0.0131 -0.1742
  551MOL0     C72646   5.198   4.412  10.137 -0.3351 -0.7670 -0.3203
  551MOL0     O72647   5.119   4.016  10.077 -0.0408 -0.8018 -0.0969
  551MOL0     C72648   5.454   3.984  10.160 -0.6532 -0.0873  0.6552
  551MOL0     C72649   5.559   3.890  10.136  0.4408  0.3737  0.1263
  551MOL0     N72650   5.881   3.261   9.544  0.9099  0.2106  0.7097
  551MOL0     N72651   5.938   3.160   9.503 -0.2836  0.5964  0.2761
  551MOL0     C72652   7.071   2.881   9.953  0.0910 -0.4796 -0.4564
  551MOL0     C72653   7.208   2.922   9.986 -0.3742 -0.6613  0.0122
  551MOL0     C72654   7.660   2.859  10.000 -0.2141 -0.2293 -0.2878
  551MOL0     C72655   7.701   2.989   9.973 -0.9177 -0.2423  1.2440
  551MOL0     C72656   7.836   3.032   9.975 -0.6188 -0.2495 -0.8114
  551MOL0     C72657   7.927   2.929  10.004 -0.4589  0.2006  0.1375
  551MOL0     O72658   8.055   2.971  10.020  0.2889 -0.1156  0.1537
  551MOL0     C72659   8.177   2.897   9.977  0.3273  0.0110 -1.0943
  551MOL0     C72660   8.196   2.899   9.824  0.5110  0.1381 -0.5887
  551MOL0     C72661   8.320   2.826   9.769 -0.0865  0.1706  0.3420
  551MOL0     C72662   8.318   2.801   9.619  0.0039  0.8809  0.2433
  551MOL0     C72663   8.241   2.683   9.573  0.1786  0.2431 -0.3552
  551MOL0     C72664   8.209   2.575   9.530  0.2659 -0.7133 -0.0407
  551MOL0     C72665   7.893   2.799  10.033  0.5964 -0.3838  1.2577
  551MOL0     C72666   7.755   2.768  10.022  0.0648  0.9568 -0.3067
  551MOL0     H72667   7.373   2.724   9.764  0.1086 -1.7348  2.3142
  551MOL0     H72668   7.141   2.663   9.705  1.1414  1.8941 -1.5275
  551MOL0     H72669   6.879   2.937   9.753 -0.0310  0.9378  1.3905
  551MOL0     H72670   6.801   2.877   9.900  0.9864 -3.3859  0.2190
  551MOL0     H72671   6.606   2.851   9.761 -0.5520 -2.0495  1.0269
  551MOL0     H72672   6.678   2.699   9.755  0.4141 -0.2373 -0.3812
  551MOL0     H72673   6.770   2.749   9.521 -0.1615 -0.7112  1.6976
  551MOL0     H72674   6.737   2.917   9.574  3.4044 -1.1802  2.6599
  551MOL0     H72675   6.579   2.780   9.396  0.9386  0.5960  0.8946
  551MOL0     H72676   6.514   2.717   9.555  1.0221 -1.9886 -0.2511
  551MOL0     H72677   6.532   3.020   9.513 -2.0657  0.6184  0.3248
  551MOL0     H72678   6.434   2.944   9.626  1.1939  0.9128  0.0903
  551MOL0     H72679   6.292   2.838   9.463  0.0431 -0.7187 -2.0447
  551MOL0     H72680   6.383   2.924   9.332  1.5192 -1.1408 -0.4739
  551MOL0     H72681   6.324   3.134   9.475  3.0637 -1.2605 -2.8085
  551MOL0     H72682   6.215   3.064   9.351 -1.3894 -1.2968  0.4174
  551MOL0     H72683   6.200   3.020   9.655 -0.5451  3.3397  0.3400
  551MOL0     H72684   6.096   2.944   9.517 -1.3197 -0.0314  1.6873
  551MOL0     H72685   6.156   3.276   9.714  0.6974  0.3309 -1.4562
  551MOL0     H72686   5.968   3.544   9.607 -2.9366  1.8511 -0.8930
  551MOL0     H72687   6.011   3.487   9.771 -1.7290  1.1157  1.3155
  551MOL0     H72688   5.770   3.401   9.770 -1.2582 -0.5212  0.4434
  551MOL0     H72689   5.747   3.538   9.652 -0.0805  0.6278  1.6182
  551MOL0     H72690   5.861   3.557   9.941 -2.6903  0.0317  1.9957
  551MOL0     H72691   5.844   3.690   9.836  0.0872 -0.3385  1.9559
  551MOL0     H72692   5.593   3.532   9.898 -0.5923  0.0246  0.2617
  551MOL0     H72693   5.617   3.693   9.833  0.3244  0.2257  1.7668
  551MOL0     H72694   5.402   3.671   9.936 -1.8755  0.8484 -0.2720
  551MOL0     H72695   5.225   3.829   9.970  0.5694 -1.5455  1.2131
  551MOL0     H72696   4.977   4.176  10.245 -1.1755  1.1697 -0.5725
  551MOL0     H72697   4.825   4.337  10.211 -1.4225  1.0209 -1.2838
  551MOL0     H72698   4.849   4.687   9.951 -0.8833  0.6892  1.5591
  551MOL0     H72699   4.971   4.746  10.055 -0.4121  0.2305 -0.0261
  551MOL0     H72700   4.785   4.889  10.150 -3.8567  1.3724  0.5809
  551MOL0     H72701   4.715   4.740  10.203  0.6392 -2.3859 -0.4448
  551MOL0     H72702   4.602   4.713   9.982 -1.7507  2.5319 -2.3752
  551MOL0     H72703   4.690   4.833   9.912  0.5030 -1.8359  0.4133
  551MOL0     H72704   4.464   4.887  10.121  1.2685 -0.8894  0.2974
  551MOL0     H72705   4.563   5.009  10.039 -0.7340 -0.1117  1.8062
  551MOL0     H72706   4.383   4.802   9.894  0.9633 -0.7905 -2.1443
  551MOL0     H72707   4.488   4.914   9.809 -1.6380  0.1211 -1.2582
  551MOL0     H72708   4.374   5.100   9.891 -1.4923  1.5030  0.4714
  551MOL0     H72709   4.262   5.003   9.990  0.3442 -1.8454 -0.5272
  551MOL0     H72710   4.296   4.941   9.691  0.3649  0.2760 -0.4810
  551MOL0     H72711   4.150   4.926   9.780 -1.7679  2.4337 -0.4730
  551MOL0     H72712   4.132   5.119   9.612 -1.9547 -0.3714  1.2147
  551MOL0     H72713   4.251   5.207   9.708  1.2352 -0.5721 -3.6158
  551MOL0     H72714   5.139   4.619  10.088  1.6353 -0.0253  1.0146
  551MOL0     H72715   5.303   4.420  10.110 -0.7644  1.6384 -1.5291
  551MOL0     H72716   5.477   4.066  10.228 -1.3153  2.5847 -2.1342
  551MOL0     H72717   5.648   3.915  10.194 -1.7013  2.0201  2.9634
  551MOL0     H72718   6.998   2.933  10.014  2.0539 -1.8562  3.3600
  551MOL0     H72719   7.219   2.991  10.069 -0.9081  1.6446 -1.7072
  551MOL0     H72720   7.631   3.065   9.939  1.9428  0.6049 -3.6460
  551MOL0     H72721   7.870   3.134   9.956 -2.3705  0.9833  2.0006
  551MOL0     H72722   8.164   2.795  10.012 -2.4740  0.5244 -0.4000
  551MOL0     H72723   8.258   2.943  10.035 -1.3913  0.2688  1.2539
  551MOL0     H72724   8.115   2.842   9.777  2.1622 -1.8309 -1.2029
  551MOL0     H72725   8.202   2.999   9.780 -1.0470 -0.8571 -3.3491
  551MOL0     H72726   8.342   2.731   9.818  0.6677  1.2854  2.2814
  551MOL0     H72727   8.410   2.887   9.788 -0.6579  0.4320  2.4741
  551MOL0     H72728   8.286   2.897   9.578 -0.3794  2.1194  3.2338
  551MOL0     H72729   8.421   2.787   9.584  0.4744  0.2122  1.8017
  551MOL0     H72730   8.155   2.497   9.479 -2.8117  0.3229  1.3258
  551MOL0     H72731   7.959   2.722  10.072  0.9933 -1.5315 -1.4241
  551MOL0     H72732   7.728   2.667  10.051  5.1508  0.0657  2.6211
  552MOL0     O72733   3.771   3.573   4.811 -0.0285  0.0362 -0.3347
  552MOL0     C72734   3.832   3.551   4.910 -0.0898 -0.2891  0.4267
  552MOL0     O72735   3.793   3.556   5.038 -0.2623  0.0639  0.5614
  552MOL0     C72736   3.691   3.633   5.089  0.1564  0.3619  0.1909
  552MOL0     C72737   3.641   3.605   5.216 -0.1998 -0.2438 -1.1204
  552MOL0     C72738   3.540   3.684   5.279 -0.1385 -0.5454  0.5478
  552MOL0     C72739   3.479   3.786   5.205 -0.7094 -0.4133  0.8263
  552MOL0     O72740   3.375   3.858   5.262  0.2603  0.1014 -0.0044
  552MOL0     C72741   3.301   3.796   5.370 -0.0119  0.0491  0.1204
  552MOL0     C72742   3.161   3.863   5.370 -0.3057  0.5785  0.1357
  552MOL0     C72743   3.076   3.852   5.251 -0.2038 -1.1327  0.0169
  552MOL0     C72744   2.965   3.961   5.247 -0.0872  0.5424  0.1356
  552MOL0     C72745   2.860   3.944   5.138  0.3438  0.3033 -0.2760
  552MOL0     C72746   2.768   4.069   5.136 -0.7744  0.0516 -0.4736
  552MOL0     C72747   2.661   4.040   5.034 -0.0944 -1.0335  0.2677
  552MOL0     C72748   2.551   4.150   5.036  0.6771  0.5572  0.3789
  552MOL0     N72749   2.436   4.109   4.948  0.6308  0.2032 -0.0891
  552MOL0     C72750   2.449   4.091   4.808 -0.4792  1.3772 -0.0334
  552MOL0     C72751   2.333   4.021   4.782  0.5415 -0.6577 -0.7275
  552MOL0     C72752   2.296   3.971   4.649  0.5198 -0.4381 -0.4363
  552MOL0     C72753   2.232   3.834   4.664  1.0055  1.1886 -0.0492
  552MOL0     C72754   2.147   3.790   4.538  0.5487  0.5507 -0.4144
  552MOL0     C72755   2.058   3.673   4.575 -0.8150 -0.0698 -0.0437
  552MOL0     O72756   2.138   3.566   4.617 -0.6466 -0.2860 -0.6251
  552MOL0     C72757   2.057   3.468   4.676 -0.9960 -0.3648  0.0905
  552MOL0     C72758   2.019   3.481   4.802  0.4594  0.0147 -0.6393
  552MOL0     C72759   1.925   3.393   4.862  0.2960 -0.1384  0.2679
  552MOL0     C72760   1.890   3.274   4.789  0.7488  0.3202 -0.5524
  552MOL0     C72761   1.831   3.167   4.864  0.0988  0.7213 -0.3491
  552MOL0     O72762   1.747   3.205   4.964  0.7170 -0.0196 -0.4432
  552MOL0     C72763   1.714   3.115   5.065  0.6024 -0.5626  0.1279
  552MOL0     C72764   1.757   3.128   5.194  0.2068  0.2571 -0.4186
  552MOL0     C72765   1.711   3.035   5.286  0.8858 -0.1326  0.0892
  552MOL0     C72766   1.632   2.925   5.249 -0.4907  0.1042  0.9771
  552MOL0     O72767   1.613   2.834   5.346  0.9480 -0.4702  0.0194
  552MOL0     C72768   1.482   2.837   5.396  0.5898  0.5430 -0.0997
  552MOL0     C72769   1.459   2.709   5.482  0.3775  0.5512 -0.1568
  552MOL0     C72770   1.317   2.703   5.531  0.3314 -0.4525 -0.4723
  552MOL0     C72771   1.274   2.796   5.644 -0.8643 -0.6487  0.3981
  552MOL0     C72772   1.122   2.807   5.641  0.3911  0.2730 -0.7583
  552MOL0     C72773   1.049   2.911   5.739 -0.0996 -0.1286 -0.2256
  552MOL0     C72774   1.125   3.041   5.738 -0.2760 -0.6241 -0.5643
  552MOL0     C72775   1.055   3.138   5.836 -0.0025  0.0984  0.3529
  552MOL0    Cl72776   1.057   3.086   6.001 -0.2840  0.1495 -0.0599
  552MOL0     C72777   1.589   2.909   5.113 -0.4820  0.1888 -0.9985
  552MOL0     C72778   1.632   3.006   5.023  0.9202 -0.3382  0.0745
  552MOL0     O72779   1.881   3.047   4.851  0.6717  0.0351  0.2809
  552MOL0     C72780   1.936   3.260   4.659  0.5765 -0.3780 -0.0712
  552MOL0     C72781   2.009   3.362   4.602 -0.7758  0.2867  0.5891
  552MOL0     N72782   2.246   4.029   4.896 -0.8760  0.2687  0.0890
  552MOL0     N72783   2.311   4.083   4.997  0.4724  0.7321  0.0571
  552MOL0     C72784   3.526   3.819   5.078 -0.2504  0.2023  0.4965
  552MOL0     C72785   3.633   3.745   5.023 -0.3510 -0.7381 -0.0705
  552MOL0     C72786   3.968   3.493   4.887  0.5051  0.1739 -0.1405
  552MOL0     C72787   4.023   3.397   4.974  0.1615 -0.1356 -0.9074
  552MOL0     C72788   4.146   3.332   4.938  0.1579  0.0321 -0.4115
  552MOL0     C72789   4.219   3.372   4.825 -0.3213  0.4641 -0.7380
  552MOL0     O72790   4.350   3.326   4.801 -0.1177 -0.3510  0.1114
  552MOL0     C72791   4.414   3.220   4.869  0.0046 -1.2980 -0.2325
  552MOL0     C72792   4.564   3.221   4.824  0.7810 -0.3368 -0.8337
  552MOL0     C72793   4.661   3.140   4.909 -0.5478 -0.5899 -0.9980
  552MOL0     C72794   4.798   3.106   4.844 -0.3058  0.3129 -0.3438
  552MOL0     C72795   4.860   2.998   4.927  0.6602  0.0097 -0.8034
  552MOL0     C72796   4.896   2.910   4.998  0.1726 -0.4632  0.5534
  552MOL0     C72797   4.163   3.468   4.745 -0.4658  0.2445  0.6774
  552MOL0     C72798   4.039   3.523   4.763  0.8725  0.1141  0.3297
  552MOL0     H72799   3.675   3.516   5.268 -2.4496  0.1854  1.3396
  552MOL0     H72800   3.512   3.646   5.377 -0.2471 -1.2750  0.2429
  552MOL0     H72801   3.350   3.818   5.465 -2.3705 -0.7629  1.5918
  552MOL0     H72802   3.297   3.688   5.353  0.3717 -0.0966  0.9043
  552MOL0     H72803   3.202   3.964   5.378  0.7008  0.3500 -1.5266
  552MOL0     H72804   3.106   3.825   5.457 -0.7476 -0.5898 -0.6197
  552MOL0     H72805   3.038   3.749   5.247  0.0759 -1.1889 -1.9067
  552MOL0     H72806   3.143   3.872   5.167 -2.6457  4.1951 -1.0766
  552MOL0     H72807   2.920   3.965   5.347  4.7899  0.5465  2.6341
  552MOL0     H72808   3.023   4.053   5.234  2.2035 -0.5506  1.9500
  552MOL0     H72809   2.802   3.856   5.170  1.2788  0.8528  3.4694
  552MOL0     H72810   2.900   3.940   5.037 -1.2539  1.0345 -0.9619
  552MOL0     H72811   2.824   4.158   5.104 -0.1884  0.2296  0.9641
  552MOL0     H72812   2.740   4.079   5.241  1.4469 -2.1810  0.4342
  552MOL0     H72813   2.713   4.058   4.939 -1.3229  2.0893  0.0675
  552MOL0     H72814   2.625   3.938   5.045  2.7127 -2.3361 -1.4652
  552MOL0     H72815   2.581   4.243   4.986 -0.5066  0.8013  0.0978
  552MOL0     H72816   2.512   4.174   5.135 -0.8188 -0.6134  0.1079
  552MOL0     H72817   2.531   4.106   4.737 -1.8185  1.0926 -1.7155
  552MOL0     H72818   2.384   3.969   4.584  0.0687  0.2710 -1.0923
  552MOL0     H72819   2.221   4.041   4.612  2.4033  1.0117 -1.7270
  552MOL0     H72820   2.158   3.827   4.744  3.5057 -1.0759  2.2936
  552MOL0     H72821   2.303   3.756   4.695 -0.8597  0.3719  2.4656
  552MOL0     H72822   2.075   3.870   4.520  0.1211 -0.2375 -2.4583
  552MOL0     H72823   2.217   3.771   4.456 -0.2896 -2.6925 -0.5206
  552MOL0     H72824   2.009   3.634   4.485  0.4986  3.1295 -2.3833
  552MOL0     H72825   1.984   3.701   4.650 -0.6775 -0.9925  0.4503
  552MOL0     H72826   2.057   3.571   4.849 -0.0352  1.4236 -2.7521
  552MOL0     H72827   1.910   3.398   4.969  3.1431  0.8682  0.7016
  552MOL0     H72828   1.817   3.209   5.233 -0.2937 -0.3775  1.8397
  552MOL0     H72829   1.751   3.047   5.386 -0.0267 -0.2440  0.4685
  552MOL0     H72830   1.416   2.856   5.311  0.4299  2.2458  0.3727
  552MOL0     H72831   1.477   2.917   5.471  1.6382 -1.7224  2.5865
  552MOL0     H72832   1.539   2.722   5.556 -0.2134  2.3667  0.2233
  552MOL0     H72833   1.466   2.620   5.419 -0.4114 -0.2506  0.8500
  552MOL0     H72834   1.295   2.601   5.562  0.8997 -0.5833 -0.4863
  552MOL0     H72835   1.251   2.723   5.446 -0.0281  1.5582  0.2115
  552MOL0     H72836   1.313   2.780   5.744 -2.2598  0.4202  1.1623
  552MOL0     H72837   1.321   2.892   5.620 -2.9307  0.7947  1.7838
  552MOL0     H72838   1.069   2.713   5.655 -2.2807  1.5224 -1.8604
  552MOL0     H72839   1.094   2.830   5.538  0.9146  2.6571 -0.4203
  552MOL0     H72840   1.058   2.872   5.840  0.9967 -0.8050 -0.5689
  552MOL0     H72841   0.945   2.933   5.712  0.2545  1.6297 -0.2719
  552MOL0     H72842   1.232   3.034   5.758 -0.2883 -0.3619 -0.4118
  552MOL0     H72843   1.118   3.080   5.636 -2.0849 -1.2210 -0.7267
  552MOL0     H72844   0.953   3.157   5.805  0.1003 -1.0429 -0.7824
  552MOL0     H72845   1.116   3.228   5.824  0.3106 -0.2997 -1.3313
  552MOL0     H72846   1.523   2.826   5.089  0.8601 -1.8346  1.7340
  552MOL0     H72847   1.589   3.001   4.923  1.0529  1.9629 -0.1572
  552MOL0     H72848   1.941   3.162   4.613  3.4732  0.2792 -1.3713
  552MOL0     H72849   2.048   3.365   4.501 -2.9895 -0.2362 -0.3502
  552MOL0     H72850   3.466   3.886   5.016 -0.0272 -2.3754 -2.7644
  552MOL0     H72851   3.662   3.761   4.920 -1.6543 -0.3794 -0.4068
  552MOL0     H72852   3.976   3.380   5.070 -0.5956  2.1979 -0.7932
  552MOL0     H72853   4.197   3.255   4.996  0.0340 -1.8721 -2.6558
  552MOL0     H72854   4.369   3.122   4.851 -1.2530 -0.4205 -2.1518
  552MOL0     H72855   4.413   3.239   4.977 -0.4149 -0.4425 -0.3828
  552MOL0     H72856   4.564   3.187   4.720 -1.8210 -2.9660 -0.1201
  552MOL0     H72857   4.602   3.322   4.839 -1.6955  0.2543  2.5834
  552MOL0     H72858   4.615   3.047   4.946 -4.2566  0.9868 -1.1858
  552MOL0     H72859   4.686   3.196   4.999 -1.8144 -0.4500 -0.7044
  552MOL0     H72860   4.774   3.069   4.744 -0.8936 -1.0504  0.2674
  552MOL0     H72861   4.867   3.190   4.838  0.1171 -0.0425 -0.4892
  552MOL0     H72862   4.938   2.830   5.055 -0.0396 -2.5978 -2.0862
  552MOL0     H72863   4.221   3.500   4.660  0.1374  2.8650  1.9899
  552MOL0     H72864   3.999   3.602   4.700  2.8780 -1.1011 -2.7004
  553MOL0     O72865  10.945   2.779   8.809 -0.3385 -1.2336 -0.2415
  553MOL0     C72866  10.912   2.663   8.790 -0.1033  0.6350  0.7812
  553MOL0     O72867  10.948   2.588   8.680  0.6955  0.5997  1.0460
  553MOL0     C72868  11.056   2.630   8.611  0.2224 -0.1852  0.6752
  553MOL0     C72869  11.187   2.651   8.671  0.7101  0.5674 -0.6259
  553MOL0     C72870  11.294   2.693   8.595 -0.4215  0.4710 -0.1516
  553MOL0     C72871  11.275   2.705   8.454 -0.6882  0.0356  0.6451
  553MOL0     O72872  11.384   2.733   8.374  0.2081  0.6509  0.7594
  553MOL0     C72873  11.511   2.673   8.413 -0.0935  0.1070  0.3169
  553MOL0     C72874  11.607   2.684   8.301 -0.0481  0.2539  0.0961
  553MOL0     C72875  11.557   2.586   8.186 -0.7526  0.6099 -0.6018
  553MOL0     C72876  11.641   2.594   8.058  0.0585  0.4842  0.5719
  553MOL0     C72877  11.616   2.468   7.964  1.1069 -0.1557 -0.3660
  553MOL0     C72878  11.492   2.470   7.883  0.0701 -0.4632 -0.5469
  553MOL0     C72879  11.500   2.347   7.797 -0.7278  0.5291  0.5811
  553MOL0     C72880  11.404   2.334   7.679  0.7638 -0.5118  0.4885
  553MOL0     N72881  11.279   2.262   7.704  0.4282  0.1369  0.3327
  553MOL0     C72882  11.227   2.179   7.612  0.1269  0.2048  0.0149
  553MOL0     C72883  11.123   2.115   7.671 -0.4228  0.1429 -0.2821
  553MOL0     C72884  11.038   2.006   7.604 -0.8131  0.0738  0.3286
  553MOL0     C72885  10.911   2.064   7.546 -0.0306  0.8863  0.3990
  553MOL0     C72886  10.809   1.957   7.505  0.7805 -0.5867 -0.4489
  553MOL0     C72887  10.699   1.916   7.613 -0.1428 -0.1357  0.6403
  553MOL0     O72888  10.608   1.813   7.567 -0.5418  0.0049  0.1684
  553MOL0     C72889  10.489   1.866   7.519  0.4393  0.1740 -0.1154
  553MOL0     C72890  10.461   1.999   7.480  0.2761 -0.8510  0.4429
  553MOL0     C72891  10.323   2.025   7.446  0.0064 -0.5323  0.3791
  553MOL0     C72892  10.222   1.930   7.429  0.3058  0.4882 -0.6731
  553MOL0     C72893  10.089   1.966   7.378  0.9974 -0.2300  0.3046
  553MOL0     O72894  10.061   2.093   7.333 -0.3878  0.6851  0.3652
  553MOL0     C72895   9.937   2.109   7.269  0.0444  0.3849  0.3904
  553MOL0     C72896   9.893   2.032   7.159 -0.7874 -0.1784  0.6107
  553MOL0     C72897   9.763   2.049   7.105 -0.5485  0.7313  0.5977
  553MOL0     C72898   9.683   2.152   7.155  0.5098 -1.4097 -0.1223
  553MOL0     O72899   9.560   2.177   7.092  0.0792  0.2863  0.6261
  553MOL0     C72900   9.469   2.260   7.156 -0.0867 -0.0011  0.4639
  553MOL0     C72901   9.340   2.287   7.071  0.1065 -0.1193 -0.4900
  553MOL0     C72902   9.257   2.165   7.072  0.1195  0.0088  0.4224
  553MOL0     C72903   9.208   2.107   7.200  0.0185  0.3179 -0.6158
  553MOL0     C72904   9.066   2.060   7.185 -0.0667  1.3424  0.2567
  553MOL0     C72905   9.070   1.922   7.126 -0.2091  0.2985 -0.4531
  553MOL0     C72906   8.933   1.864   7.124 -0.0187  0.6611  0.5416
  553MOL0     C72907   8.829   1.925   7.025 -0.0110  0.3241  0.3218
  553MOL0    Cl72908   8.867   1.907   6.850  0.4905  0.2400  0.1441
  553MOL0     C72909   9.718   2.222   7.280 -0.6775  1.2350  0.0194
  553MOL0     C72910   9.847   2.196   7.334  0.2496  0.7602  0.0841
  553MOL0     O72911  10.003   1.873   7.383 -0.8177 -1.0501 -0.4183
  553MOL0     C72912  10.260   1.798   7.456  0.0329 -0.4598 -0.2726
  553MOL0     C72913  10.382   1.774   7.499  1.2130  0.2149 -0.1698
  553MOL0     N72914  11.132   2.143   7.809 -0.1408 -0.6800 -0.8904
  553MOL0     N72915  11.231   2.218   7.824 -1.1180  0.1226  0.0077
  553MOL0     C72916  11.154   2.668   8.393 -0.0436 -0.2296 -0.5251
  553MOL0     C72917  11.042   2.637   8.472 -0.2853  0.8556  0.1610
  553MOL0     C72918  10.842   2.589   8.891  0.6806  0.0803  0.2023
  553MOL0     C72919  10.829   2.451   8.886 -0.0171 -0.1784  0.0342
  553MOL0     C72920  10.762   2.373   8.986 -0.8346 -0.4254 -0.8688
  553MOL0     C72921  10.722   2.449   9.099 -0.3832 -0.7243 -0.1560
  553MOL0     O72922  10.653   2.406   9.203  0.3717  0.1506 -0.0036
  553MOL0     C72923  10.692   2.273   9.259 -0.4081 -0.3015 -0.6406
  553MOL0     C72924  10.625   2.246   9.402 -0.6119  0.4518  0.8609
  553MOL0     C72925  10.657   2.347   9.505  0.1276 -0.2937  0.6511
  553MOL0     C72926  10.612   2.497   9.481 -0.1774 -0.3150  0.2235
  553MOL0     C72927  10.563   2.560   9.598  0.1840 -1.1921  0.7754
  553MOL0     C72928  10.488   2.620   9.671 -0.0332  0.4589  0.4441
  553MOL0     C72929  10.734   2.589   9.097  0.2386 -1.1529 -1.2911
  553MOL0     C72930  10.794   2.656   8.997  0.1059 -0.1499  0.0115
  553MOL0     H72931  11.197   2.651   8.779  0.0230  1.5222 -0.5473
  553MOL0     H72932  11.387   2.724   8.641  1.4887 -1.0915 -2.7566
  553MOL0     H72933  11.495   2.566   8.433 -5.2938  1.0372  2.7793
  553MOL0     H72934  11.548   2.726   8.501 -0.6406  2.5350 -0.8437
  553MOL0     H72935  11.701   2.640   8.336  0.2701 -0.0039 -1.0511
  553MOL0     H72936  11.606   2.784   8.258 -0.2051 -0.4950 -1.7312
  553MOL0     H72937  11.454   2.600   8.155 -2.1667  0.0428  3.2661
  553MOL0     H72938  11.560   2.486   8.230  1.6479 -0.0451 -2.0257
  553MOL0     H72939  11.624   2.687   8.004  1.8873  0.4483 -0.1352
  553MOL0     H72940  11.748   2.592   8.083  0.8447 -2.1845 -2.2631
  553MOL0     H72941  11.610   2.379   8.028 -2.3962 -0.8591 -1.4673
  553MOL0     H72942  11.699   2.463   7.894  0.2168  0.4677 -1.4984
  553MOL0     H72943  11.482   2.563   7.827 -0.8115  0.6925  1.4422
  553MOL0     H72944  11.408   2.463   7.953  0.7173 -1.2784  0.1753
  553MOL0     H72945  11.601   2.339   7.756 -1.6953  2.2491 -2.4864
  553MOL0     H72946  11.490   2.261   7.863  1.6406  0.1577  0.5325
  553MOL0     H72947  11.446   2.278   7.595 -2.0249  2.3244 -3.1115
  553MOL0     H72948  11.391   2.430   7.630 -1.5220 -0.3472  1.2943
  553MOL0     H72949  11.264   2.161   7.512 -2.7266  3.3548 -1.8194
  553MOL0     H72950  11.013   1.934   7.683  1.1437  1.8854  2.7625
  553MOL0     H72951  11.094   1.943   7.534  0.7246  2.3301 -0.5915
  553MOL0     H72952  10.939   2.105   7.449  0.3221  0.4228  0.2988
  553MOL0     H72953  10.865   2.134   7.616 -1.1565  0.7429 -0.1847
  553MOL0     H72954  10.754   1.984   7.414  0.0460  1.0106  0.4349
  553MOL0     H72955  10.875   1.871   7.491  1.7897  0.3315 -1.6374
  553MOL0     H72956  10.647   2.003   7.653  0.4619  1.2886 -1.4699
  553MOL0     H72957  10.757   1.876   7.696  1.5453 -0.8974 -0.8304
  553MOL0     H72958  10.526   2.086   7.481 -0.9567  0.2263 -2.2519
  553MOL0     H72959  10.297   2.129   7.432 -0.0760 -0.7048 -0.8639
  553MOL0     H72960   9.965   1.962   7.119 -0.9013  1.5624 -3.0943
  553MOL0     H72961   9.726   2.005   7.013  0.3937  2.1960 -0.5403
  553MOL0     H72962   9.526   2.352   7.171 -1.0283  0.4914  1.0851
  553MOL0     H72963   9.441   2.220   7.253 -0.7013  2.5057  1.3769
  553MOL0     H72964   9.363   2.320   6.969  1.0507  0.5056 -0.0852
  553MOL0     H72965   9.289   2.371   7.119 -0.8071 -1.5147  1.0946
  553MOL0     H72966   9.306   2.088   7.011 -2.2315 -0.5115 -0.9060
  553MOL0     H72967   9.178   2.193   7.002  0.6289  1.2741  0.3266
  553MOL0     H72968   9.273   2.030   7.243 -0.9056 -2.4713 -3.7893
  553MOL0     H72969   9.203   2.193   7.269  4.3045  1.8317 -1.8417
  553MOL0     H72970   9.011   2.144   7.142  1.1999  1.4537 -1.2091
  553MOL0     H72971   9.036   2.041   7.289 -0.5630 -3.5612 -0.5389
  553MOL0     H72972   9.139   1.858   7.182  0.8168  0.1912 -1.7900
  553MOL0     H72973   9.095   1.930   7.020  0.9777 -1.5712 -0.3680
  553MOL0     H72974   8.947   1.758   7.101  2.2637  0.3853  2.8479
  553MOL0     H72975   8.885   1.855   7.222 -0.1702 -1.6496  0.3160
  553MOL0     H72976   8.812   2.031   7.046  2.7770  1.0308 -0.5658
  553MOL0     H72977   8.739   1.867   7.046 -0.6454  1.4827  0.9208
  553MOL0     H72978   9.657   2.298   7.330  1.2442  1.5573  2.0653
  553MOL0     H72979   9.892   2.240   7.423  0.8194 -0.3050  0.3489
  553MOL0     H72980  10.192   1.716   7.435 -2.6024  1.8445 -1.3395
  553MOL0     H72981  10.395   1.668   7.517 -1.4197  0.0341  1.1902
  553MOL0     H72982  11.155   2.665   8.284  0.1987  1.6834 -0.6110
  553MOL0     H72983  10.944   2.619   8.429 -0.4898 -1.8057  1.5764
  553MOL0     H72984  10.859   2.391   8.800  1.8917 -2.0065  1.8457
  553MOL0     H72985  10.741   2.267   8.981  1.0453 -0.8856  0.0541
  553MOL0     H72986  10.800   2.266   9.267 -0.4506 -0.3760 -0.1361
  553MOL0     H72987  10.663   2.197   9.185 -0.2013  1.8896 -3.1630
  553MOL0     H72988  10.520   2.220   9.387 -0.1485 -0.9734 -0.1373
  553MOL0     H72989  10.665   2.156   9.450  1.3522  1.6389  1.5833
  553MOL0     H72990  10.765   2.347   9.522  0.3912  1.9279 -0.6044
  553MOL0     H72991  10.617   2.309   9.599 -3.1828 -2.2173 -1.3195
  553MOL0     H72992  10.700   2.550   9.442 -0.2964  0.0355  0.4251
  553MOL0     H72993  10.535   2.506   9.404  0.9261  2.1206 -0.7036
  553MOL0     H72994  10.412   2.670   9.727 -1.1966 -1.9211  1.1334
  553MOL0     H72995  10.708   2.646   9.185  2.6855  0.9878 -1.8354
  553MOL0     H72996  10.814   2.762   9.007  2.8180 -0.8337  3.4742
  554MOL0     O72997   1.804   7.359   2.480 -0.5762 -0.5792  0.2555
  554MOL0     C72998   1.779   7.476   2.441 -0.2848  0.2053  0.0645
  554MOL0     O72999   1.655   7.524   2.448  0.3047  0.0354 -0.2754
  554MOL0     C73000   1.555   7.445   2.498 -0.7309 -0.2946  0.6664
  554MOL0     C73001   1.480   7.368   2.410 -0.3245 -0.1506  0.1616
  554MOL0     C73002   1.385   7.279   2.469  0.2185  0.5630  1.7020
  554MOL0     C73003   1.377   7.253   2.603  0.1682  0.1528 -0.6302
  554MOL0     O73004   1.306   7.154   2.662  0.6669 -0.2022  0.3781
  554MOL0     C73005   1.205   7.074   2.590 -0.1642  0.4419 -0.2486
  554MOL0     C73006   1.130   6.992   2.696 -0.1691  0.6258 -1.0102
  554MOL0     C73007   1.035   7.071   2.790  0.0966  0.7844 -0.9684
  554MOL0     C73008   0.913   7.118   2.711 -0.3840  0.1477 -0.9638
  554MOL0     C73009   0.799   7.180   2.798  0.2847 -0.3142 -0.5720
  554MOL0     C73010   0.731   7.092   2.905  0.4228  0.7424  0.4897
  554MOL0     C73011   0.679   6.961   2.851 -0.2517 -0.0594  0.0762
  554MOL0     C73012   0.562   6.979   2.748  1.4273 -0.1662 -0.0394
  554MOL0     N73013   0.445   7.024   2.816  0.5877 -0.1797  0.6510
  554MOL0     C73014   0.395   7.154   2.797  0.7526  0.1845  0.3241
  554MOL0     C73015   0.261   7.142   2.817 -0.3120  0.0838 -0.4842
  554MOL0     C73016   0.170   7.251   2.795  0.4177 -0.4555  0.2688
  554MOL0     C73017   0.048   7.256   2.881  0.1449  0.2370 -0.0056
  554MOL0     C73018   0.090   7.327   3.009  0.1220  0.5217 -0.1797
  554MOL0     C73019   0.001   7.284   3.131 -0.2381  0.0564 -0.3307
  554MOL0     O73020  -0.143   7.281   3.099 -0.3208  0.3737  0.1457
  554MOL0     C73021  -0.225   7.228   3.197  0.1414  0.0495 -0.5144
  554MOL0     C73022  -0.202   7.099   3.241  0.0547 -0.1763 -0.3441
  554MOL0     C73023  -0.276   7.047   3.346  0.0614  0.0733 -0.1114
  554MOL0     C73024  -0.376   7.117   3.408  0.4374 -0.0456 -0.4112
  554MOL0     C73025  -0.444   7.074   3.533 -0.4128  0.6524  0.3277
  554MOL0     O73026  -0.516   7.161   3.596  0.4660  0.0162  0.0155
  554MOL0     C73027  -0.581   7.114   3.710 -0.6860  0.2091 -0.8006
  554MOL0     C73028  -0.524   7.158   3.830  0.6440 -0.9984  0.3899
  554MOL0     C73029  -0.585   7.127   3.953  0.1685 -1.2328 -0.3959
  554MOL0     C73030  -0.716   7.060   3.952 -0.3875  0.5572 -0.6871
  554MOL0     O73031  -0.797   7.018   4.058  0.3951  0.3769  0.2007
  554MOL0     C73032  -0.731   7.024   4.179 -0.2825  0.3786  0.0575
  554MOL0     C73033  -0.771   7.151   4.254  0.3288  0.0699 -0.6976
  554MOL0     C73034  -0.926   7.179   4.275  0.1819  0.1687  1.0159
  554MOL0     C73035  -1.002   7.073   4.357 -1.0636 -0.3228 -0.5416
  554MOL0     C73036  -1.143   7.112   4.396 -1.2294 -0.4692 -0.7750
  554MOL0     C73037  -1.212   6.999   4.469  0.1594 -0.2151  0.0239
  554MOL0     C73038  -1.328   7.041   4.561 -0.3444 -0.1971  0.4126
  554MOL0     C73039  -1.389   6.930   4.640  0.7296  0.0917  0.3075
  554MOL0    Cl73040  -1.496   7.011   4.765 -0.0764  0.0824 -0.4454
  554MOL0     C73041  -0.773   7.025   3.829 -0.0260  0.1207 -0.3257
  554MOL0     C73042  -0.707   7.057   3.710 -0.2756  1.0452 -1.3093
  554MOL0     O73043  -0.436   6.958   3.570  0.0652  0.5868  0.1338
  554MOL0     C73044  -0.405   7.248   3.356  0.0247  0.7468 -0.9191
  554MOL0     C73045  -0.329   7.305   3.252  0.6483  0.1905 -0.1413
  554MOL0     N73046   0.233   7.006   2.845 -0.1152 -0.1065 -0.3767
  554MOL0     N73047   0.350   6.944   2.856 -0.6896  0.0586 -0.1866
  554MOL0     C73048   1.461   7.329   2.692 -0.0334 -0.0575  0.3710
  554MOL0     C73049   1.542   7.426   2.632  0.3432  0.7228  0.1763
  554MOL0     C73050   1.893   7.563   2.404 -0.6709  0.9626  0.2496
  554MOL0     C73051   2.014   7.507   2.365  0.5817  0.4572 -0.0299
  554MOL0     C73052   2.123   7.585   2.317 -0.0424  0.4872 -0.8217
  554MOL0     C73053   2.121   7.724   2.318 -0.1344 -0.1337 -0.1984
  554MOL0     O73054   2.221   7.795   2.264  0.0916 -0.4776 -0.6478
  554MOL0     C73055   2.347   7.803   2.335  0.7590 -0.0686  0.1310
  554MOL0     C73056   2.455   7.896   2.276  0.3154  0.2710 -0.6597
  554MOL0     C73057   2.588   7.873   2.353 -0.9806 -0.9918  0.1703
  554MOL0     C73058   2.672   8.006   2.375  0.2364  0.2795 -0.1258
  554MOL0     C73059   2.745   8.039   2.252  0.2788 -0.3662  0.6172
  554MOL0     C73060   2.787   8.057   2.139 -0.3574  0.0199 -0.4606
  554MOL0     C73061   2.003   7.781   2.363  0.6031  0.2645  0.5531
  554MOL0     C73062   1.888   7.702   2.408  0.3602 -0.5401  0.2876
  554MOL0     H73063   1.493   7.360   2.303  1.6737  0.9315  0.2867
  554MOL0     H73064   1.324   7.213   2.409  1.2886 -0.4163  1.6550
  554MOL0     H73065   1.254   7.015   2.513  1.7631  1.5859  0.0375
  554MOL0     H73066   1.146   7.145   2.530 -0.4940  0.1394 -0.2880
  554MOL0     H73067   1.210   6.939   2.749 -1.2008  0.0231 -0.0115
  554MOL0     H73068   1.065   6.916   2.651 -1.1656  0.8300  0.0408
  554MOL0     H73069   1.079   7.145   2.858  0.2755  0.0641 -0.2992
  554MOL0     H73070   0.991   7.004   2.864  1.9039  2.7842  2.1753
  554MOL0     H73071   0.947   7.196   2.642  0.9870  2.1567  1.8170
  554MOL0     H73072   0.880   7.030   2.655 -0.0350  1.0507 -2.6614
  554MOL0     H73073   0.716   7.223   2.739  0.4219  1.2950  0.3491
  554MOL0     H73074   0.836   7.268   2.851 -2.1353 -0.5928  1.7830
  554MOL0     H73075   0.647   7.154   2.938 -0.7403  0.5099 -1.8485
  554MOL0     H73076   0.804   7.084   2.986  2.0309  3.1443 -0.5887
  554MOL0     H73077   0.759   6.909   2.798  0.2006 -0.3146  0.9992
  554MOL0     H73078   0.647   6.893   2.930 -0.7030 -1.2700 -1.1117
  554MOL0     H73079   0.538   6.883   2.701 -0.7386  0.3225 -0.0283
  554MOL0     H73080   0.586   7.055   2.674 -2.1102  2.9808  1.6919
  554MOL0     H73081   0.441   7.246   2.761 -1.5892  1.6893  0.9128
  554MOL0     H73082   0.132   7.238   2.693  1.8897 -0.5253 -0.3004
  554MOL0     H73083   0.226   7.345   2.788 -0.6759  0.1728 -0.3061
  554MOL0     H73084   0.012   7.154   2.899 -0.9999  0.6809  0.2703
  554MOL0     H73085  -0.041   7.296   2.832 -0.2862 -0.6575  0.0323
  554MOL0     H73086   0.188   7.284   3.034 -0.2810 -0.4465 -0.2416
  554MOL0     H73087   0.087   7.436   3.000 -3.5804  0.4962 -0.4522
  554MOL0     H73088   0.026   7.355   3.210  0.2125  0.9582 -1.2631
  554MOL0     H73089   0.035   7.186   3.168  1.2449  0.1090 -1.4438
  554MOL0     H73090  -0.144   7.023   3.190  0.8821 -0.0726  0.3965
  554MOL0     H73091  -0.267   6.943   3.377  2.0468  0.3366  0.3454
  554MOL0     H73092  -0.437   7.223   3.823 -1.4741  2.0830  0.5722
  554MOL0     H73093  -0.525   7.164   4.036  0.6637  1.3735 -1.7981
  554MOL0     H73094  -0.623   7.010   4.186 -0.4402 -0.2191  2.4428
  554MOL0     H73095  -0.774   6.946   4.243 -1.2490  1.6500  1.0401
  554MOL0     H73096  -0.714   7.232   4.207  2.2757 -0.0278  1.2997
  554MOL0     H73097  -0.731   7.136   4.354  2.8532 -2.7124 -1.9559
  554MOL0     H73098  -0.970   7.174   4.175  0.3497 -0.6760  0.9826
  554MOL0     H73099  -0.942   7.283   4.305  2.3655  0.8251  0.1053
  554MOL0     H73100  -1.010   6.989   4.288 -2.1000  1.0915 -2.2451
  554MOL0     H73101  -0.942   7.048   4.445  0.2699 -2.3813 -1.9374
  554MOL0     H73102  -1.197   7.144   4.307 -3.3098 -2.8087 -0.4447
  554MOL0     H73103  -1.149   7.201   4.460 -1.3968 -2.8785  2.8492
  554MOL0     H73104  -1.138   6.944   4.528  1.0427  0.8960 -0.0080
  554MOL0     H73105  -1.263   6.952   4.385  0.5854  0.5942 -0.7024
  554MOL0     H73106  -1.285   7.101   4.642 -0.9651  2.0519 -0.8491
  554MOL0     H73107  -1.397   7.098   4.499 -0.8014  0.6064  1.6242
  554MOL0     H73108  -1.312   6.864   4.681  0.3619 -1.3834 -1.2658
  554MOL0     H73109  -1.452   6.875   4.568  2.2248 -1.6922  0.2852
  554MOL0     H73110  -0.880   7.007   3.837 -0.5377  3.2081  1.0811
  554MOL0     H73111  -0.748   7.049   3.609 -2.3709  2.8057 -0.6966
  554MOL0     H73112  -0.485   7.308   3.396 -0.0051 -2.6814  5.4831
  554MOL0     H73113  -0.365   7.401   3.216 -0.9900 -0.7591 -1.2097
  554MOL0     H73114   1.450   7.324   2.799 -1.2842  1.6539  0.3772
  554MOL0     H73115   1.594   7.494   2.699 -0.8686  0.1748  1.7412
  554MOL0     H73116   2.017   7.398   2.367 -1.8545  0.3448  0.1358
  554MOL0     H73117   2.213   7.533   2.288  0.1190 -0.0956  0.6104
  554MOL0     H73118   2.392   7.703   2.341  0.2804 -0.3027 -0.1324
  554MOL0     H73119   2.335   7.847   2.434  0.5794 -0.5985  0.3447
  554MOL0     H73120   2.467   7.874   2.170  3.3891 -0.1975 -0.3320
  554MOL0     H73121   2.420   7.999   2.281 -0.1941  0.0578  0.9777
  554MOL0     H73122   2.644   7.803   2.290  0.1517  0.2281 -0.2007
  554MOL0     H73123   2.577   7.819   2.448 -0.0476 -0.4052  0.6277
  554MOL0     H73124   2.599   8.076   2.416  0.6141 -0.4347  1.8939
  554MOL0     H73125   2.752   7.996   2.448 -0.4046  0.1823  0.5761
  554MOL0     H73126   2.838   8.100   2.055  1.3250  2.9325  1.8558
  554MOL0     H73127   1.992   7.889   2.370 -0.5615  0.4973 -3.0014
  554MOL0     H73128   1.794   7.749   2.438  0.4168 -0.3671  0.1984
  555MOL0     O73129   6.313   1.865   7.781 -0.0259 -0.2990 -0.7459
  555MOL0     C73130   6.394   1.909   7.859 -0.0606  0.3808  0.2247
  555MOL0     O73131   6.517   1.973   7.815 -0.6947  0.5224 -0.5063
  555MOL0     C73132   6.564   1.954   7.689  0.3233 -0.0178 -0.8386
  555MOL0     C73133   6.495   2.009   7.583  0.0965  0.5866  0.7886
  555MOL0     C73134   6.547   1.996   7.451  0.2126  0.1413  1.0564
  555MOL0     C73135   6.671   1.948   7.423 -0.1132 -0.5892 -0.1169
  555MOL0     O73136   6.701   1.953   7.291 -0.1847  0.1644 -0.2459
  555MOL0     C73137   6.834   1.921   7.256 -0.5901  0.3944  0.6757
  555MOL0     C73138   6.948   2.014   7.307 -0.2844  0.1046  0.4206
  555MOL0     C73139   7.082   1.999   7.226 -0.0466  0.0672 -0.2502
  555MOL0     C73140   7.073   2.065   7.087  0.2974  0.8413  0.5268
  555MOL0     C73141   7.209   2.044   7.008  0.8991  0.3134 -0.4960
  555MOL0     C73142   7.166   2.051   6.859  0.5396 -0.0152  0.2283
  555MOL0     C73143   7.124   2.187   6.820 -0.2521  0.1116 -0.2459
  555MOL0     C73144   7.095   2.193   6.673  0.1053 -0.1773  1.2443
  555MOL0     N73145   7.062   2.326   6.630 -0.5289  0.1604  0.1850
  555MOL0     C73146   6.964   2.406   6.690 -0.7574 -0.4312 -0.1017
  555MOL0     C73147   6.964   2.522   6.610 -0.0402 -0.0227 -0.1264
  555MOL0     C73148   6.893   2.651   6.625 -0.6528  0.5199  0.0282
  555MOL0     C73149   6.781   2.653   6.740  0.2253 -1.1491  0.0901
  555MOL0     C73150   6.716   2.800   6.746  0.5594  0.5551 -1.2244
  555MOL0     C73151   6.576   2.798   6.817 -0.1322  0.7738 -0.2827
  555MOL0     O73152   6.476   2.736   6.740  0.0815  0.0082 -0.0872
  555MOL0     C73153   6.362   2.798   6.692 -0.0194 -0.0885  0.1067
  555MOL0     C73154   6.270   2.714   6.627  1.4115  0.5442 -0.7864
  555MOL0     C73155   6.158   2.768   6.565 -0.3404 -1.0479 -1.2401
  555MOL0     C73156   6.133   2.909   6.573 -0.1723 -0.1700 -0.1130
  555MOL0     C73157   6.008   2.953   6.507  0.3547 -0.4043 -0.2754
  555MOL0     O73158   5.944   3.069   6.544 -0.4312 -0.7352 -0.2031
  555MOL0     C73159   5.820   3.115   6.510 -0.3886 -0.4852 -0.0530
  555MOL0     C73160   5.786   3.235   6.569  1.2241 -0.1916 -0.1441
  555MOL0     C73161   5.649   3.280   6.561  0.1814  0.4535 -0.2531
  555MOL0     C73162   5.546   3.205   6.505 -0.6925 -0.3368 -0.3017
  555MOL0     O73163   5.415   3.244   6.506 -0.2048  0.0617  0.5601
  555MOL0     C73164   5.379   3.273   6.638 -0.0871 -0.4229  0.3005
  555MOL0     C73165   5.343   3.419   6.656  0.1883  0.5341  0.1405
  555MOL0     C73166   5.377   3.471   6.793  0.1077 -0.0299  0.3570
  555MOL0     C73167   5.362   3.629   6.802 -0.0026  0.1356  0.6473
  555MOL0     C73168   5.219   3.678   6.786 -0.4362  0.2439  0.1672
  555MOL0     C73169   5.181   3.817   6.842  0.4126 -0.4822  0.1923
  555MOL0     C73170   5.045   3.858   6.780 -0.5456 -0.2357  0.2718
  555MOL0     C73171   4.958   3.944   6.869 -0.3032  0.3369  0.4911
  555MOL0    Cl73172   4.810   3.987   6.777 -0.4051  0.1987 -0.1222
  555MOL0     C73173   5.581   3.095   6.432  0.5906  1.2652 -0.3278
  555MOL0     C73174   5.716   3.052   6.437 -0.2546 -0.5571 -0.0313
  555MOL0     O73175   5.957   2.874   6.431  0.4112  0.6170  0.2754
  555MOL0     C73176   6.222   2.997   6.635 -0.5794  1.3069 -1.0424
  555MOL0     C73177   6.340   2.937   6.692 -0.6090 -0.2425  0.2910
  555MOL0     N73178   7.058   2.508   6.513  0.0809 -0.2392 -0.5510
  555MOL0     N73179   7.115   2.400   6.530  0.4228 -0.2990 -0.1266
  555MOL0     C73180   6.758   1.906   7.528  0.5444  0.1935 -0.4397
  555MOL0     C73181   6.697   1.916   7.656 -0.5316  0.1441  0.3778
  555MOL0     C73182   6.354   1.929   7.997  0.5471  0.8492 -0.1698
  555MOL0     C73183   6.225   1.916   8.042  0.4620  0.3970  0.6521
  555MOL0     C73184   6.191   1.914   8.182  0.5109 -0.2436  0.6841
  555MOL0     C73185   6.293   1.940   8.273  0.5611 -0.1015 -0.4942
  555MOL0     O73186   6.284   1.946   8.410  0.3124 -0.4720 -0.3863
  555MOL0     C73187   6.145   1.937   8.469  0.2530 -0.2812 -1.1104
  555MOL0     C73188   6.153   1.954   8.620 -0.7670  0.0968  0.3245
  555MOL0     C73189   6.264   1.882   8.706  0.2538 -0.3548 -0.0848
  555MOL0     C73190   6.267   1.732   8.693 -0.4502 -0.5372 -0.3122
  555MOL0     C73191   6.341   1.685   8.805  0.7779 -0.4494 -0.6941
  555MOL0     C73192   6.380   1.641   8.903 -0.3669 -0.0785 -0.7056
  555MOL0     C73193   6.419   1.951   8.226  0.3837 -0.4509  0.0422
  555MOL0     C73194   6.451   1.953   8.087 -1.0441  1.0318 -0.6509
  555MOL0     H73195   6.393   2.044   7.581 -0.5422 -0.9927 -3.7509
  555MOL0     H73196   6.490   2.041   7.371  1.6545  2.9233  1.4505
  555MOL0     H73197   6.842   1.912   7.148  2.0449  0.6684  0.7777
  555MOL0     H73198   6.850   1.818   7.289 -1.0181  0.7086  1.9328
  555MOL0     H73199   6.968   2.002   7.414 -2.9991  0.0942  0.9869
  555MOL0     H73200   6.919   2.118   7.293  0.2742 -0.1044 -3.2331
  555MOL0     H73201   7.109   1.893   7.229 -0.0090  0.0943  1.7396
  555MOL0     H73202   7.153   2.061   7.283 -1.2502 -1.0597  2.6837
  555MOL0     H73203   7.001   2.006   7.030 -1.0978  3.7051 -0.8877
  555MOL0     H73204   7.033   2.166   7.092 -0.4524  0.5401  0.7755
  555MOL0     H73205   7.257   1.947   7.024  2.2124  0.7968 -1.3628
  555MOL0     H73206   7.277   2.126   7.033 -0.2291  1.4100 -0.9192
  555MOL0     H73207   7.100   1.976   6.814 -1.7448  1.3177  1.1628
  555MOL0     H73208   7.257   2.037   6.800  0.1246  0.0734 -0.4491
  555MOL0     H73209   7.030   2.203   6.875  0.3731 -0.8506  1.1455
  555MOL0     H73210   7.196   2.263   6.852 -0.7860 -0.0626  1.4545
  555MOL0     H73211   7.024   2.116   6.640  0.8412 -0.0649 -0.7999
  555MOL0     H73212   7.193   2.165   6.632 -0.7051  1.7001 -2.4973
  555MOL0     H73213   6.904   2.388   6.779  0.8875 -0.5555  1.0255
  555MOL0     H73214   6.840   2.675   6.532  1.1043  1.4373 -0.7795
  555MOL0     H73215   6.967   2.730   6.641 -2.3690  2.6404 -1.7859
  555MOL0     H73216   6.837   2.634   6.832  4.2657 -2.0209 -2.2831
  555MOL0     H73217   6.709   2.573   6.723  0.7493 -1.1689 -2.4165
  555MOL0     H73218   6.785   2.862   6.804 -0.2811 -0.4820  1.0099
  555MOL0     H73219   6.708   2.847   6.648 -2.2659 -1.1646 -1.9620
  555MOL0     H73220   6.558   2.902   6.846  1.5720  0.7377  1.0390
  555MOL0     H73221   6.571   2.735   6.906 -1.1913  0.1873 -0.7329
  555MOL0     H73222   6.292   2.609   6.611 -1.0319  0.1436 -1.9661
  555MOL0     H73223   6.087   2.699   6.521 -2.3165  0.6878 -0.9267
  555MOL0     H73224   5.852   3.291   6.633 -0.3229  1.2822  0.2344
  555MOL0     H73225   5.624   3.373   6.610  1.5202 -1.7920  5.4822
  555MOL0     H73226   5.452   3.242   6.712 -1.7651 -1.9850  1.3821
  555MOL0     H73227   5.296   3.204   6.654 -0.1611 -1.3173 -3.1781
  555MOL0     H73228   5.238   3.433   6.628 -0.0829 -1.9698 -0.2477
  555MOL0     H73229   5.408   3.478   6.590  3.0322  0.6800  2.7994
  555MOL0     H73230   5.482   3.455   6.817  0.4693  2.0846  0.3663
  555MOL0     H73231   5.324   3.409   6.867 -0.6514 -0.6512 -0.6771
  555MOL0     H73232   5.415   3.661   6.893  0.8918  0.8498 -0.1000
  555MOL0     H73233   5.411   3.679   6.718  2.1115 -1.6349  0.7451
  555MOL0     H73234   5.150   3.601   6.823  0.8722 -1.3770 -0.6469
  555MOL0     H73235   5.203   3.668   6.679  1.4338 -2.5369  0.0257
  555MOL0     H73236   5.266   3.885   6.835 -0.1665  0.1886 -0.5127
  555MOL0     H73237   5.178   3.828   6.951  0.1516  1.5355  0.0172
  555MOL0     H73238   5.062   3.912   6.686 -2.8190  0.8690  0.4285
  555MOL0     H73239   4.984   3.779   6.735 -0.4835  1.9180 -4.1553
  555MOL0     H73240   5.020   4.033   6.886  3.3193 -2.0161  0.7109
  555MOL0     H73241   4.939   3.908   6.971  0.0399  3.7495  1.9080
  555MOL0     H73242   5.506   3.041   6.375  0.3939  0.7476  0.4041
  555MOL0     H73243   5.737   2.954   6.395 -2.8574 -1.2098  0.0222
  555MOL0     H73244   6.204   3.104   6.623 -1.9289  1.3206  0.7383
  555MOL0     H73245   6.403   3.008   6.745  0.4222 -0.1146 -1.0613
  555MOL0     H73246   6.854   1.858   7.513  0.3137 -1.8248  3.4400
  555MOL0     H73247   6.758   1.875   7.736  0.1189 -1.2850 -0.8209
  555MOL0     H73248   6.145   1.907   7.969 -0.3587  1.9958  1.2979
  555MOL0     H73249   6.088   1.904   8.213 -0.1401  0.5324 -1.0559
  555MOL0     H73250   6.107   1.836   8.455  1.2253 -1.6396  3.8750
  555MOL0     H73251   6.083   2.017   8.428  2.6922  1.8459 -0.9197
  555MOL0     H73252   6.156   2.061   8.645 -1.9626  0.9888 -2.8974
  555MOL0     H73253   6.054   1.919   8.649 -0.7155 -0.1314  0.2283
  555MOL0     H73254   6.244   1.931   8.801 -1.3636  4.2989 -2.4884
  555MOL0     H73255   6.353   1.925   8.660 -1.2008  2.4999 -0.5044
  555MOL0     H73256   6.166   1.689   8.689  0.1334 -2.2898  1.7557
  555MOL0     H73257   6.325   1.701   8.606 -2.0590 -2.3482 -0.8161
  555MOL0     H73258   6.423   1.590   8.987 -1.5751 -0.6939 -0.4395
  555MOL0     H73259   6.499   1.970   8.297  1.5505  0.5214 -1.4787
  555MOL0     H73260   6.557   1.951   8.062  0.0330 -3.0461  2.9674
  556MOL0     O73261   1.044   0.825   9.418 -0.1373  0.1327 -0.3845
  556MOL0     C73262   0.954   0.742   9.411 -0.6062  0.3961  0.0954
  556MOL0     O73263   0.962   0.614   9.452  0.2181  0.6586 -0.0215
  556MOL0     C73264   1.086   0.547   9.456 -0.5437 -0.3709 -0.3210
  556MOL0     C73265   1.195   0.577   9.377  0.1874  1.1886  0.2773
  556MOL0     C73266   1.318   0.508   9.400  0.1148 -0.5618  0.3489
  556MOL0     C73267   1.323   0.421   9.516 -0.9899 -1.0420  0.6995
  556MOL0     O73268   1.441   0.371   9.560 -0.0771  0.2145 -0.2839
  556MOL0     C73269   1.555   0.454   9.566 -0.1776 -0.3462  0.1707
  556MOL0     C73270   1.652   0.371   9.651  0.0094  0.0679  0.0700
  556MOL0     C73271   1.778   0.449   9.666 -0.4776 -0.1186 -0.1605
  556MOL0     C73272   1.860   0.415   9.545 -0.0605 -0.3372  0.3168
  556MOL0     C73273   2.007   0.468   9.565 -0.1194 -0.7567  0.0857
  556MOL0     C73274   2.096   0.415   9.440  0.5584  0.3331 -0.3432
  556MOL0     C73275   2.115   0.265   9.430  0.2691 -0.0134 -0.9432
  556MOL0     C73276   2.172   0.211   9.298  0.3987 -0.2860 -0.2810
  556MOL0     N73277   2.175   0.061   9.307  0.1437 -0.5922 -0.1093
  556MOL0     C73278   2.061  -0.013   9.277  0.3914  0.3335 -0.6781
  556MOL0     C73279   2.108  -0.142   9.290  0.4981 -0.2272  0.4584
  556MOL0     C73280   2.008  -0.248   9.275 -0.2003  0.6158 -0.2417
  556MOL0     C73281   2.055  -0.356   9.171  0.0236  0.7960  1.0422
  556MOL0     C73282   1.929  -0.439   9.131 -0.7362 -0.1573 -0.4030
  556MOL0     C73283   1.968  -0.581   9.096  0.7635  0.4874 -0.1780
  556MOL0     O73284   1.849  -0.641   9.052 -0.2003  0.4696  0.3645
  556MOL0     C73285   1.811  -0.750   9.131 -0.0481 -0.7245  0.2999
  556MOL0     C73286   1.690  -0.737   9.200  1.2239 -0.4243 -0.2847
  556MOL0     C73287   1.635  -0.825   9.288 -0.3985 -0.6499 -0.2018
  556MOL0     C73288   1.707  -0.942   9.311  0.0072  0.2140 -0.1329
  556MOL0     C73289   1.671  -1.034   9.421 -0.6253  0.2316 -0.3706
  556MOL0     O73290   1.756  -1.144   9.440 -0.2227 -0.8266  0.5311
  556MOL0     C73291   1.708  -1.238   9.532  0.1641 -0.3669 -0.0797
  556MOL0     C73292   1.779  -1.273   9.652  0.4921 -0.1731 -0.5111
  556MOL0     C73293   1.742  -1.386   9.731 -0.8704  0.6313 -0.6974
  556MOL0     C73294   1.645  -1.471   9.681 -0.7313  0.0138 -0.6562
  556MOL0     O73295   1.586  -1.561   9.773 -1.2088 -0.8530  0.2157
  556MOL0     C73296   1.687  -1.651   9.835  0.0573 -0.2268 -0.1015
  556MOL0     C73297   1.765  -1.740   9.743 -0.5924  0.0242  0.4337
  556MOL0     C73298   1.858  -1.841   9.820 -0.2434  0.4341  0.0513
  556MOL0     C73299   1.933  -1.921   9.718  0.2754  0.2338 -0.0287
  556MOL0     C73300   2.030  -2.020   9.793  0.1097 -1.3809 -0.2758
  556MOL0     C73301   2.080  -2.106   9.690 -0.5919 -0.1379 -0.5951
  556MOL0     C73302   2.158  -2.220   9.751 -0.6331 -1.0328 -0.7660
  556MOL0     C73303   2.217  -2.310   9.649  0.1109  0.4380 -0.0038
  556MOL0    Cl73304   2.343  -2.408   9.733 -0.4481 -0.0277  0.0946
  556MOL0     C73305   1.583  -1.451   9.555  0.7650 -0.0294 -0.7032
  556MOL0     C73306   1.607  -1.327   9.487  0.6682  0.3523 -0.2036
  556MOL0     O73307   1.559  -1.017   9.481  0.1545  0.1474 -0.1727
  556MOL0     C73308   1.830  -0.966   9.246  0.5114 -0.6550  0.1577
  556MOL0     C73309   1.879  -0.867   9.155  0.5053  0.8304 -0.3926
  556MOL0     N73310   2.240  -0.147   9.314 -0.4609 -0.5356 -0.3611
  556MOL0     N73311   2.289  -0.023   9.321  0.5641  0.2659  0.9781
  556MOL0     C73312   1.217   0.382   9.585  1.0221 -0.3373 -0.6610
  556MOL0     C73313   1.098   0.447   9.557  0.4973  0.1549  0.0140
  556MOL0     C73314   0.816   0.791   9.376  0.1086  0.0262  0.1031
  556MOL0     C73315   0.792   0.924   9.355 -0.0658 -1.0122 -0.0937
  556MOL0     C73316   0.654   0.972   9.336 -0.3346  0.6432  0.1052
  556MOL0     C73317   0.542   0.887   9.325 -0.9643  0.9235 -1.1211
  556MOL0     O73318   0.404   0.912   9.313 -0.8398  0.3387  0.6154
  556MOL0     C73319   0.366   1.049   9.303  0.3261  0.2129  0.0440
  556MOL0     C73320   0.408   1.120   9.164  0.5654  0.4304 -1.0792
  556MOL0     C73321   0.335   1.250   9.136 -0.0541 -0.0654  1.1764
  556MOL0     C73322   0.357   1.294   8.988 -1.2316  0.7375 -0.0228
  556MOL0     C73323   0.336   1.438   8.988 -0.9088  0.1443 -0.1364
  556MOL0     C73324   0.305   1.547   8.987  0.9391 -0.2603 -0.3195
  556MOL0     C73325   0.579   0.753   9.351 -0.3576 -0.4530 -0.3743
  556MOL0     C73326   0.707   0.710   9.389 -0.6256  0.2556  1.3102
  556MOL0     H73327   1.197   0.654   9.302  1.0786  3.1136  2.1758
  556MOL0     H73328   1.390   0.545   9.328  2.2307 -0.3046  2.4646
  556MOL0     H73329   1.539   0.549   9.617  0.5922 -0.1030 -0.0395
  556MOL0     H73330   1.583   0.478   9.463 -3.6582 -2.8186 -1.5662
  556MOL0     H73331   1.671   0.275   9.603 -1.2586  0.4136 -1.1825
  556MOL0     H73332   1.611   0.363   9.752  1.3858 -2.3383  0.5051
  556MOL0     H73333   1.828   0.414   9.757  2.7217  0.1399 -1.7165
  556MOL0     H73334   1.752   0.555   9.676 -1.9132 -0.5685  1.4221
  556MOL0     H73335   1.864   0.307   9.529  2.5880 -0.7114  2.7491
  556MOL0     H73336   1.813   0.454   9.454 -2.3036 -4.9033 -0.7748
  556MOL0     H73337   2.050   0.429   9.658  2.5163 -1.4402 -1.3387
  556MOL0     H73338   2.011   0.577   9.568 -1.7785 -0.6456 -0.9037
  556MOL0     H73339   2.191   0.469   9.445  1.9030 -1.8240 -1.2243
  556MOL0     H73340   2.032   0.445   9.357 -1.9565  1.1726  1.7618
  556MOL0     H73341   2.186   0.231   9.506  1.4877  2.0633 -1.0579
  556MOL0     H73342   2.023   0.211   9.453  1.2323 -1.8930 -1.3165
  556MOL0     H73343   2.270   0.250   9.271 -0.6050  1.9629 -0.9051
  556MOL0     H73344   2.101   0.242   9.221  1.5609 -2.5522 -2.4010
  556MOL0     H73345   1.963   0.030   9.260 -0.3195 -1.7181 -2.1845
  556MOL0     H73346   1.913  -0.202   9.247 -1.7696 -0.8644  2.2304
  556MOL0     H73347   1.983  -0.294   9.371 -1.0295 -0.0888 -0.7894
  556MOL0     H73348   2.135  -0.418   9.214  3.3400  1.5043 -3.3858
  556MOL0     H73349   2.099  -0.299   9.089 -0.8891  1.1069  0.7630
  556MOL0     H73350   1.855  -0.449   9.211  0.3379  2.5268  1.0659
  556MOL0     H73351   1.883  -0.388   9.046 -0.4926 -2.1766 -1.8357
  556MOL0     H73352   2.015  -0.611   9.191  0.2231  1.1419  0.3063
  556MOL0     H73353   2.048  -0.583   9.022 -0.0099  0.0238 -1.0077
  556MOL0     H73354   1.626  -0.652   9.175  0.0929 -1.4312 -0.8965
  556MOL0     H73355   1.542  -0.808   9.341 -0.1287  0.9520 -0.2190
  556MOL0     H73356   1.860  -1.206   9.677  4.0672 -2.7459 -3.8992
  556MOL0     H73357   1.783  -1.383   9.832 -0.1357  0.8493 -0.9994
  556MOL0     H73358   1.625  -1.712   9.901 -1.5993  2.5494  1.0410
  556MOL0     H73359   1.762  -1.592   9.889  0.5829  0.6190 -1.6774
  556MOL0     H73360   1.822  -1.666   9.686 -2.7373  0.5111 -1.1936
  556MOL0     H73361   1.695  -1.787   9.673 -1.6412 -0.2360  1.6139
  556MOL0     H73362   1.804  -1.906   9.890 -0.3874 -0.0694 -0.5146
  556MOL0     H73363   1.934  -1.785   9.876 -0.8756 -0.0937  1.4863
  556MOL0     H73364   1.872  -1.988   9.656 -0.7329 -1.3944  2.5628
  556MOL0     H73365   1.992  -1.852   9.657 -0.2819 -0.4046 -1.3263
  556MOL0     H73366   1.971  -2.069   9.871 -2.3924  0.5372 -0.8480
  556MOL0     H73367   2.117  -1.966   9.833  1.0846 -1.5481 -2.0694
  556MOL0     H73368   2.148  -2.043   9.631  0.9675  1.0483  2.2752
  556MOL0     H73369   2.003  -2.155   9.630  0.5933 -1.1701 -1.3372
  556MOL0     H73370   2.244  -2.175   9.801 -1.7452 -0.3444  0.5981
  556MOL0     H73371   2.096  -2.274   9.823 -1.0510  1.7037  1.0811
  556MOL0     H73372   2.264  -2.259   9.564  0.5850 -0.0962 -0.0679
  556MOL0     H73373   2.142  -2.381   9.615  0.5076 -0.5173  1.0407
  556MOL0     H73374   1.505  -1.515   9.514 -0.1193  2.0025 -2.3194
  556MOL0     H73375   1.563  -1.323   9.388  2.1145 -1.2647 -0.9554
  556MOL0     H73376   1.883  -1.058   9.270  1.7476  0.4752  2.0104
  556MOL0     H73377   1.962  -0.883   9.088 -0.4116  0.5180 -1.4875
  556MOL0     H73378   1.237   0.304   9.658  2.5946 -2.6923 -3.4190
  556MOL0     H73379   1.010   0.422   9.615  1.0292  2.2796  1.8461
  556MOL0     H73380   0.864   1.003   9.370 -3.1663  2.1763 -0.6764
  556MOL0     H73381   0.644   1.077   9.312  0.8751  0.7279 -0.0891
  556MOL0     H73382   0.412   1.100   9.388  4.2284 -1.8677 -0.6131
  556MOL0     H73383   0.259   1.064   9.324 -0.0377 -3.5349  1.8359
  556MOL0     H73384   0.514   1.145   9.158  0.4573  0.9056 -1.0953
  556MOL0     H73385   0.388   1.055   9.079  1.8444  1.4537 -2.2022
  556MOL0     H73386   0.384   1.320   9.205 -1.5579  0.3953  1.8251
  556MOL0     H73387   0.226   1.249   9.144 -0.4448 -1.2260 -2.5365
  556MOL0     H73388   0.462   1.289   8.957 -0.6368  1.0849  1.8549
  556MOL0     H73389   0.296   1.238   8.916 -0.7130  4.5047 -3.8278
  556MOL0     H73390   0.261   1.645   8.993 -2.7672 -1.8324  2.9259
  556MOL0     H73391   0.498   0.681   9.357  0.3538 -1.2187  0.4129
  556MOL0     H73392   0.718   0.605   9.414  0.7796  0.6394  2.4296
  557MOL0     O73393   9.434   7.924   8.071  0.0639  0.2019  0.2117
  557MOL0     C73394   9.404   7.808   8.110  0.2789 -0.7154  0.6622
  557MOL0     O73395   9.282   7.751   8.086 -0.7740  0.1927 -0.5301
  557MOL0     C73396   9.174   7.823   8.055  0.2917  0.1217 -0.2251
  557MOL0     C73397   9.077   7.754   7.978  0.3719  0.1243  0.5478
  557MOL0     C73398   8.952   7.819   7.942 -0.3050 -0.7207  0.6353
  557MOL0     C73399   8.919   7.950   7.975  0.3355 -0.8810 -0.3704
  557MOL0     O73400   8.807   8.027   7.958  0.5739  0.0529 -0.0140
  557MOL0     C73401   8.687   7.958   7.921  0.4988  0.2209 -0.4682
  557MOL0     C73402   8.563   8.036   7.944 -0.4518 -0.2568  0.5018
  557MOL0     C73403   8.519   8.048   8.092  0.5529  0.7462 -0.4318
  557MOL0     C73404   8.477   7.912   8.150 -0.3685 -0.1163  1.1946
  557MOL0     C73405   8.413   7.932   8.292  0.7821  0.4937 -0.2193
  557MOL0     C73406   8.266   7.993   8.307 -0.3137  0.0470  0.1584
  557MOL0     C73407   8.211   8.006   8.448 -0.0185 -0.1070  0.3166
  557MOL0     C73408   8.110   7.903   8.497 -0.2337  0.8924 -0.2601
  557MOL0     N73409   7.978   7.928   8.442  0.3277  0.1415  0.1548
  557MOL0     C73410   7.896   8.024   8.494 -1.0718  0.0162 -0.0196
  557MOL0     C73411   7.787   8.035   8.417 -0.0032  0.5252  0.1160
  557MOL0     C73412   7.660   8.102   8.452  0.5845  0.2565 -0.5794
  557MOL0     C73413   7.558   8.119   8.334 -0.1636  0.3911  0.3091
  557MOL0     C73414   7.427   8.171   8.367 -0.2945 -1.4255  1.1354
  557MOL0     C73415   7.435   8.298   8.448 -0.4261  0.0081  0.4836
  557MOL0     O73416   7.308   8.364   8.442  0.9324  0.2941  0.0283
  557MOL0     C73417   7.286   8.468   8.528  0.6467  0.3465 -0.3088
  557MOL0     C73418   7.385   8.540   8.588 -0.3739 -0.0211  0.3283
  557MOL0     C73419   7.345   8.637   8.678  0.7232 -0.5356  0.0408
  557MOL0     C73420   7.211   8.657   8.709 -0.1445  0.5015 -0.2975
  557MOL0     C73421   7.164   8.767   8.788  1.0345 -0.0810  0.0905
  557MOL0     O73422   7.032   8.812   8.763 -0.0416  0.0565 -0.0041
  557MOL0     C73423   6.961   8.893   8.841 -0.6359 -0.6368  0.0983
  557MOL0     C73424   6.877   8.975   8.768 -0.8841  1.4810 -0.1254
  557MOL0     C73425   6.783   9.055   8.830 -0.5018  0.0984 -0.4859
  557MOL0     C73426   6.777   9.065   8.971 -0.3599  0.0827  0.4386
  557MOL0     O73427   6.683   9.149   9.026 -0.4033  0.1914  0.6300
  557MOL0     C73428   6.557   9.104   9.058 -0.4799  0.0683 -0.8172
  557MOL0     C73429   6.478   9.222   9.131  0.2234  0.5952  0.3183
  557MOL0     C73430   6.329   9.175   9.161  0.0623  0.0784 -0.9292
  557MOL0     C73431   6.237   9.293   9.163  0.0941 -0.9668 -1.2973
  557MOL0     C73432   6.091   9.263   9.209  0.5574 -0.2421 -0.3847
  557MOL0     C73433   6.008   9.389   9.212  0.4759 -0.3942 -0.2137
  557MOL0     C73434   5.868   9.346   9.274  0.6899 -0.5951 -0.3676
  557MOL0     C73435   5.802   9.476   9.317  0.2938 -0.1428 -0.9634
  557MOL0    Cl73436   5.637   9.448   9.375  0.3275  0.1706  0.2691
  557MOL0     C73437   6.859   8.975   9.046  0.4200  0.7681  0.8469
  557MOL0     C73438   6.953   8.898   8.981 -0.2008 -0.0173  1.5800
  557MOL0     O73439   7.239   8.816   8.866 -0.4359  0.3691 -0.2571
  557MOL0     C73440   7.110   8.581   8.650 -0.1570  0.1709  0.4240
  557MOL0     C73441   7.152   8.489   8.555 -0.7032 -0.4244 -1.0899
  557MOL0     N73442   7.807   7.939   8.318  0.6867 -0.6400 -0.2484
  557MOL0     N73443   7.929   7.891   8.316  0.0241 -0.5891 -0.2151
  557MOL0     C73444   9.020   8.013   8.049  0.5003 -0.2957 -0.0333
  557MOL0     C73445   9.144   7.956   8.086  0.4330 -0.6456 -0.6663
  557MOL0     C73446   9.507   7.733   8.181  0.0329  0.0331 -1.0023
  557MOL0     C73447   9.645   7.762   8.165 -1.2264 -0.1206  0.4825
  557MOL0     C73448   9.745   7.701   8.242  0.5770 -0.5341 -0.2953
  557MOL0     C73449   9.718   7.609   8.339 -0.2080 -0.6648  0.6476
  557MOL0     O73450   9.824   7.564   8.418  0.4626  0.1545  0.0843
  557MOL0     C73451   9.792   7.451   8.506 -0.0421  0.0346 -0.1579
  557MOL0     C73452   9.925   7.400   8.566  0.6320  0.2122  0.1207
  557MOL0     C73453  10.020   7.501   8.641  0.4673 -0.2995  0.6596
  557MOL0     C73454  10.131   7.552   8.537  0.1090 -0.2111 -0.2564
  557MOL0     C73455  10.217   7.662   8.595 -0.3385 -0.1327  0.1178
  557MOL0     C73456  10.275   7.757   8.644 -0.1249  0.6354 -0.0549
  557MOL0     C73457   9.579   7.590   8.368 -0.0002  0.3481 -0.1044
  557MOL0     C73458   9.479   7.644   8.287  0.1674 -0.7400 -0.2185
  557MOL0     H73459   9.093   7.651   7.949 -1.9555 -0.0431 -0.3403
  557MOL0     H73460   8.891   7.756   7.878  0.6582  1.2465 -2.4397
  557MOL0     H73461   8.691   7.857   7.963 -1.4867  0.5943  0.7054
  557MOL0     H73462   8.714   7.943   7.816  2.8936 -0.2881  0.1462
  557MOL0     H73463   8.487   7.989   7.881  1.7803 -1.7206 -1.2363
  557MOL0     H73464   8.586   8.129   7.892  1.4999 -2.0745 -2.1446
  557MOL0     H73465   8.426   8.106   8.086  0.4846  0.8540  1.3281
  557MOL0     H73466   8.594   8.091   8.158 -1.2882 -1.5077  3.5078
  557MOL0     H73467   8.415   7.852   8.083  1.1498 -0.1477 -0.2330
  557MOL0     H73468   8.574   7.862   8.153  0.0984  0.5804 -0.9854
  557MOL0     H73469   8.483   8.004   8.334  1.9160  0.0157 -1.2435
  557MOL0     H73470   8.407   7.834   8.340 -0.0417  1.5976  2.0431
  557MOL0     H73471   8.200   7.941   8.237  0.1710  0.1512 -0.3824
  557MOL0     H73472   8.262   8.088   8.252 -3.6991  0.3290  0.6830
  557MOL0     H73473   8.298   8.005   8.515 -1.1620 -1.6236  1.8691
  557MOL0     H73474   8.161   8.103   8.456 -1.2774 -0.1529 -4.3486
  557MOL0     H73475   8.105   7.901   8.607  0.5708 -0.2258 -0.2229
  557MOL0     H73476   8.132   7.800   8.470 -0.1286  1.7638 -3.9567
  557MOL0     H73477   7.922   8.092   8.575  1.3121  1.7643 -2.0859
  557MOL0     H73478   7.693   8.194   8.501  2.4477 -1.3283  1.3994
  557MOL0     H73479   7.625   8.042   8.537 -0.6440 -0.3810 -1.5110
  557MOL0     H73480   7.544   8.028   8.275  1.0729  2.1385 -2.9261
  557MOL0     H73481   7.610   8.182   8.262 -0.5090 -0.3025 -0.5644
  557MOL0     H73482   7.363   8.197   8.282  0.7498 -1.8745  0.1902
  557MOL0     H73483   7.386   8.088   8.425  2.3828 -1.8172  2.6361
  557MOL0     H73484   7.524   8.352   8.414  0.3893 -1.3564  0.3497
  557MOL0     H73485   7.452   8.256   8.548  2.4803  1.8170  0.8730
  557MOL0     H73486   7.492   8.535   8.571 -0.0751  1.8569  1.3853
  557MOL0     H73487   7.418   8.701   8.725  2.9996 -2.0590 -1.2247
  557MOL0     H73488   6.892   8.989   8.661 -1.4911 -0.5488 -0.5260
  557MOL0     H73489   6.732   9.127   8.767 -2.6000 -0.1750  0.8093
  557MOL0     H73490   6.571   9.021   9.128 -1.6512 -1.0565 -1.8447
  557MOL0     H73491   6.497   9.077   8.971 -1.1798  0.0916 -0.3520
  557MOL0     H73492   6.482   9.306   9.060  4.7059 -1.3499 -2.2100
  557MOL0     H73493   6.523   9.251   9.226 -1.5100 -2.6881  2.2978
  557MOL0     H73494   6.341   9.128   9.260  0.9940  0.7588 -0.7082
  557MOL0     H73495   6.298   9.099   9.089 -2.5843  0.9271 -0.7756
  557MOL0     H73496   6.295   9.359   9.227 -0.9779  1.6643 -2.8823
  557MOL0     H73497   6.225   9.343   9.067  3.6912  2.5131 -0.1862
  557MOL0     H73498   6.097   9.223   9.310 -0.8783  2.5761  0.9472
  557MOL0     H73499   6.041   9.186   9.149 -1.6613  1.6970 -1.1664
  557MOL0     H73500   5.988   9.424   9.111  2.2357 -1.9480 -1.1452
  557MOL0     H73501   6.057   9.464   9.274  0.3220 -1.5544  1.3819
  557MOL0     H73502   5.817   9.286   9.198  0.0785 -0.9714  0.3280
  557MOL0     H73503   5.875   9.285   9.365 -3.3615  0.7117  1.0527
  557MOL0     H73504   5.785   9.533   9.225  2.5636 -0.9779 -1.9604
  557MOL0     H73505   5.865   9.533   9.386  0.4659  1.1309 -2.1248
  557MOL0     H73506   6.844   8.959   9.153  1.6969  0.2238  0.9562
  557MOL0     H73507   7.022   8.822   9.016  1.7679 -0.5365 -2.7628
  557MOL0     H73508   7.003   8.602   8.653 -0.2097 -0.1165  0.6962
  557MOL0     H73509   7.077   8.430   8.503  0.9911 -1.1112 -2.8724
  557MOL0     H73510   8.995   8.118   8.059 -1.7240 -0.6366 -1.2459
  557MOL0     H73511   9.205   8.029   8.139 -2.8390  1.8948 -0.0233
  557MOL0     H73512   9.676   7.832   8.088  0.2618  0.4218  1.5338
  557MOL0     H73513   9.850   7.723   8.231  0.2267  0.1335 -2.9077
  557MOL0     H73514   9.750   7.373   8.442  0.9876 -0.1354 -0.6520
  557MOL0     H73515   9.718   7.474   8.584 -0.3230  0.6041 -0.5799
  557MOL0     H73516   9.901   7.322   8.638 -0.8156  0.6189  0.1175
  557MOL0     H73517   9.990   7.347   8.496 -1.7850 -2.9993  0.0677
  557MOL0     H73518  10.076   7.446   8.717 -0.3802 -1.4104  0.5043
  557MOL0     H73519   9.958   7.587   8.668  1.1191  1.1073 -1.9533
  557MOL0     H73520  10.206   7.474   8.520  1.1052  1.0820 -2.1529
  557MOL0     H73521  10.077   7.598   8.454 -0.6410  1.0851  0.9172
  557MOL0     H73522  10.322   7.847   8.678 -0.4209 -0.0639  2.3248
  557MOL0     H73523   9.548   7.537   8.458  2.6854 -0.2456  0.5615
  557MOL0     H73524   9.373   7.639   8.308  0.2297  0.0861  0.3383
  558MOL0     O73525   9.259  10.431   1.424  0.1672  0.1610 -0.7363
  558MOL0     C73526   9.210  10.507   1.340 -0.0905  0.0213  0.1308
  558MOL0     O73527   9.085  10.494   1.293  0.2141 -0.3160 -0.2229
  558MOL0     C73528   9.004  10.402   1.357  0.4860  0.1972 -0.5827
  558MOL0     C73529   8.956  10.439   1.483 -0.9139  0.0785  0.1082
  558MOL0     C73530   8.863  10.355   1.553 -0.8833 -0.4202  0.9702
  558MOL0     C73531   8.822  10.237   1.493  0.3639 -0.0443 -0.0365
  558MOL0     O73532   8.726  10.172   1.564 -0.4064  0.3516 -0.1009
  558MOL0     C73533   8.640  10.069   1.511  0.6333 -0.9565 -0.6707
  558MOL0     C73534   8.555   9.994   1.618  0.1818 -0.9749  0.1378
  558MOL0     C73535   8.485   9.870   1.575 -0.2270  0.2529  0.4990
  558MOL0     C73536   8.357   9.862   1.652  0.1017  0.0277 -0.4871
  558MOL0     C73537   8.263   9.748   1.634 -0.8579  0.5077  0.6106
  558MOL0     C73538   8.137   9.774   1.707  1.0574 -0.0927  0.6815
  558MOL0     C73539   8.079   9.647   1.751 -0.0341  0.3630  0.2810
  558MOL0     C73540   7.926   9.671   1.757  0.8025  0.5131  0.2806
  558MOL0     N73541   7.847   9.674   1.635  0.2090 -0.1709  0.7480
  558MOL0     C73542   7.804   9.562   1.563  0.3056 -0.1371  0.7162
  558MOL0     C73543   7.729   9.614   1.458 -0.5778 -0.5833  0.1487
  558MOL0     C73544   7.654   9.544   1.343  0.2645 -0.6874 -0.3575
  558MOL0     C73545   7.764   9.484   1.254  0.7986  1.3590  0.1698
  558MOL0     C73546   7.702   9.389   1.148  0.6262 -0.3247 -0.3503
  558MOL0     C73547   7.789   9.388   1.030  0.4277 -0.7745 -0.5458
  558MOL0     O73548   7.914   9.318   1.065  0.0970  0.3410 -0.1394
  558MOL0     C73549   7.907   9.180   1.073 -0.2672 -0.2116 -0.5967
  558MOL0     C73550   7.794   9.106   1.029 -0.6892 -0.0341 -0.1685
  558MOL0     C73551   7.803   8.959   1.041  0.1688 -0.5505 -0.7982
  558MOL0     C73552   7.917   8.891   1.086 -0.0609 -0.0761  0.2559
  558MOL0     C73553   7.909   8.745   1.076  1.1880 -0.4421  0.3722
  558MOL0     O73554   7.798   8.690   1.013 -0.0475 -0.0493  0.2585
  558MOL0     C73555   7.812   8.551   0.993 -0.1915 -0.4131  0.3097
  558MOL0     C73556   7.781   8.463   1.104 -0.3054 -0.0144  0.2663
  558MOL0     C73557   7.793   8.323   1.079  0.2452 -0.0500 -0.2857
  558MOL0     C73558   7.851   8.264   0.963 -0.0621  0.4744 -0.0294
  558MOL0     O73559   7.867   8.135   0.942  0.1943 -0.2772  0.2936
  558MOL0     C73560   7.862   8.046   1.058  0.4924 -0.3402  0.4116
  558MOL0     C73561   7.959   7.936   1.004 -1.1785  0.8290 -0.8786
  558MOL0     C73562   7.938   7.807   1.073 -0.1605 -0.3002 -0.2692
  558MOL0     C73563   7.805   7.730   1.042  0.2019  0.2982  0.3419
  558MOL0     C73564   7.817   7.603   1.123  0.8840  0.3837 -0.3857
  558MOL0     C73565   7.906   7.501   1.067 -0.3569 -0.0037 -0.1181
  558MOL0     C73566   7.878   7.462   0.925  0.1032  0.6625  0.0464
  558MOL0     C73567   7.963   7.344   0.875 -0.2325  0.0834  0.0477
  558MOL0    Cl73568   7.917   7.304   0.705  0.1094 -0.7140 -0.0839
  558MOL0     C73569   7.862   8.352   0.855 -0.3342 -0.5509 -0.8186
  558MOL0     C73570   7.854   8.496   0.876 -0.1156  1.0534  0.1401
  558MOL0     O73571   8.009   8.683   1.118  0.7140  0.4251  0.2668
  558MOL0     C73572   8.020   8.975   1.137 -0.0735  0.0555 -0.7672
  558MOL0     C73573   8.024   9.118   1.124  0.2525 -0.0293 -0.5523
  558MOL0     N73574   7.729   9.755   1.475 -0.1902  0.1531  0.3513
  558MOL0     N73575   7.804   9.782   1.575  0.2836 -0.1594  0.3077
  558MOL0     C73576   8.868  10.205   1.366  0.5077  0.1028  0.2370
  558MOL0     C73577   8.956  10.290   1.294 -0.1417 -1.1363  0.1782
  558MOL0     C73578   9.285  10.628   1.300 -0.2991 -0.0063 -0.2023
  558MOL0     C73579   9.418  10.628   1.338 -0.5946 -0.9977  0.2641
  558MOL0     C73580   9.510  10.728   1.295  0.3024 -0.2459 -0.0510
  558MOL0     C73581   9.465  10.830   1.214  0.6500  0.1729 -0.0190
  558MOL0     O73582   9.559  10.918   1.160  1.0559  0.3222  0.0740
  558MOL0     C73583   9.527  11.001   1.043  0.2862  0.7030  0.4444
  558MOL0     C73584   9.660  11.043   0.978 -0.2413  1.1909 -0.6373
  558MOL0     C73585   9.723  10.914   0.922 -0.9310 -0.3539 -0.6184
  558MOL0     C73586   9.843  10.957   0.850 -0.5371  0.4503 -0.1706
  558MOL0     C73587   9.876  10.837   0.768  0.9162  0.3284  0.5053
  558MOL0     C73588   9.895  10.757   0.681  0.1073  0.3254 -0.5724
  558MOL0     C73589   9.338  10.819   1.173 -0.0038  0.7471  0.3543
  558MOL0     C73590   9.244  10.725   1.217  0.3798 -0.1126  0.2382
  558MOL0     H73591   9.001  10.530   1.521  4.1062 -1.6673 -0.8287
  558MOL0     H73592   8.836  10.378   1.656 -5.0652 -2.8249  0.6451
  558MOL0     H73593   8.694   9.987   1.463 -0.9626 -0.8655 -2.7907
  558MOL0     H73594   8.578  10.125   1.441 -0.2968  2.0705  2.3003
  558MOL0     H73595   8.491  10.074   1.656  0.3648  0.6061 -2.6023
  558MOL0     H73596   8.628   9.960   1.692  1.4210  1.6515  0.2219
  558MOL0     H73597   8.556   9.795   1.610  2.0465  2.2044  0.3634
  558MOL0     H73598   8.468   9.866   1.467 -3.2750  2.1679  0.7852
  558MOL0     H73599   8.384   9.849   1.757  1.4571 -1.1625 -0.9509
  558MOL0     H73600   8.300   9.951   1.624 -0.7258  0.3707  2.0381
  558MOL0     H73601   8.325   9.666   1.671  2.0937  2.8146  1.1999
  558MOL0     H73602   8.245   9.727   1.528 -1.1420 -3.0283  1.2671
  558MOL0     H73603   8.069   9.818   1.633 -0.4907 -2.7006  0.4113
  558MOL0     H73604   8.129   9.839   1.794 -2.3841 -0.9112  1.1236
  558MOL0     H73605   8.088   9.568   1.676 -2.5213 -0.9914  1.2911
  558MOL0     H73606   8.127   9.608   1.841  3.3772  1.9917 -0.6908
  558MOL0     H73607   7.916   9.759   1.821  0.0166  0.1705  0.6571
  558MOL0     H73608   7.885   9.590   1.818 -0.4522  1.0213  0.1618
  558MOL0     H73609   7.811   9.458   1.593 -2.4382 -0.9631 -1.1007
  558MOL0     H73610   7.579   9.610   1.298 -1.7623 -1.1558  2.0833
  558MOL0     H73611   7.603   9.470   1.407  2.5749 -1.0156  1.2307
  558MOL0     H73612   7.831   9.421   1.314 -1.0942 -0.7949  0.1649
  558MOL0     H73613   7.822   9.564   1.206 -3.7500  4.5723 -0.6004
  558MOL0     H73614   7.687   9.291   1.196 -1.5393 -1.0938 -2.3901
  558MOL0     H73615   7.606   9.428   1.114  0.6623 -1.4121 -1.8315
  558MOL0     H73616   7.816   9.491   1.003 -3.3260  1.2164  2.3946
  558MOL0     H73617   7.734   9.346   0.945  1.8465 -1.2362 -1.2732
  558MOL0     H73618   7.705   9.146   0.982 -1.1459 -2.5959 -1.6662
  558MOL0     H73619   7.719   8.899   1.006  0.0953 -0.8591 -0.1011
  558MOL0     H73620   7.745   8.497   1.200  1.9259 -0.9261  1.4893
  558MOL0     H73621   7.759   8.255   1.156  0.8122 -1.3578 -1.1589
  558MOL0     H73622   7.762   8.005   1.075  1.0427 -0.8995  2.5431
  558MOL0     H73623   7.891   8.091   1.153 -3.0496  2.2124  0.4672
  558MOL0     H73624   8.057   7.984   1.019 -1.2480  0.9726 -0.8818
  558MOL0     H73625   7.961   7.925   0.896  1.8784  2.1772 -1.0739
  558MOL0     H73626   7.960   7.812   1.180  2.6576  2.2409 -0.8288
  558MOL0     H73627   8.017   7.747   1.026 -1.0072 -0.0815 -2.0590
  558MOL0     H73628   7.718   7.787   1.074 -1.5609 -1.4142 -1.0986
  558MOL0     H73629   7.791   7.718   0.934 -0.0584 -2.0402  0.5824
  558MOL0     H73630   7.718   7.557   1.123  0.5520  1.0390  1.0493
  558MOL0     H73631   7.843   7.619   1.227  0.1820 -2.7218  0.3842
  558MOL0     H73632   7.894   7.410   1.127 -3.1799 -0.9101 -1.8249
  558MOL0     H73633   8.006   7.543   1.078 -0.5020  0.7827 -1.5281
  558MOL0     H73634   7.771   7.442   0.915  0.1308 -0.6375  1.8973
  558MOL0     H73635   7.918   7.536   0.855 -0.9247 -1.2906 -2.8007
  558MOL0     H73636   7.951   7.261   0.945  1.3181 -2.0194 -2.0231
  558MOL0     H73637   8.064   7.387   0.878 -1.1441  2.4318 -0.2343
  558MOL0     H73638   7.879   8.317   0.754 -2.7558  3.1495 -2.7290
  558MOL0     H73639   7.884   8.561   0.794  3.3118 -0.1682  0.2234
  558MOL0     H73640   8.108   8.931   1.182 -0.0172 -0.3537 -1.2629
  558MOL0     H73641   8.105   9.176   1.167  0.5630 -0.4785 -0.5296
  558MOL0     H73642   8.839  10.113   1.315  0.1696  0.3484 -0.0121
  558MOL0     H73643   8.983  10.266   1.192  0.4402  0.6989 -0.1463
  558MOL0     H73644   9.470  10.542   1.380  0.0496 -1.1524 -0.8077
  558MOL0     H73645   9.614  10.728   1.325 -0.1329  1.7022  1.6337
  558MOL0     H73646   9.483  11.097   1.073 -1.6797  0.8671 -2.4674
  558MOL0     H73647   9.450  10.963   0.975  0.3673  2.0658 -0.4363
  558MOL0     H73648   9.642  11.118   0.901 -1.8630 -0.2969 -1.7698
  558MOL0     H73649   9.725  11.085   1.055  0.1567  3.2817 -2.0306
  558MOL0     H73650   9.656  10.855   0.858 -1.6490 -2.2900  1.7809
  558MOL0     H73651   9.744  10.837   0.997  1.7296 -0.0551 -0.9360
  558MOL0     H73652   9.824  11.036   0.776 -1.3733  0.5322  0.1127
  558MOL0     H73653   9.924  10.981   0.919 -1.0544  0.3562  0.4765
  558MOL0     H73654   9.907  10.689   0.599  1.1393 -0.6882  0.3920
  558MOL0     H73655   9.303  10.897   1.106  2.9686  1.3540 -0.6222
  558MOL0     H73656   9.141  10.724   1.183  0.1448 -1.4342  0.9620
  559MOL0     O73657   9.301   2.317   6.661  0.6586  0.4456  0.1992
  559MOL0     C73658   9.213   2.248   6.711  0.7254  0.2579 -0.3221
  559MOL0     O73659   9.210   2.116   6.737 -0.6429  0.2999  0.3761
  559MOL0     C73660   9.329   2.046   6.737  0.4154 -0.3901 -1.0488
  559MOL0     C73661   9.331   1.923   6.678  0.8528 -0.8875  0.9129
  559MOL0     C73662   9.441   1.858   6.650  1.1585 -1.0248  0.0243
  559MOL0     C73663   9.568   1.904   6.692 -0.0071 -0.1382  0.0263
  559MOL0     O73664   9.682   1.835   6.650 -0.7188 -1.0680 -0.3662
  559MOL0     C73665   9.761   1.777   6.761 -0.2511 -0.8229  0.5393
  559MOL0     C73666   9.709   1.652   6.823  0.2579 -0.3304  0.3001
  559MOL0     C73667   9.757   1.632   6.969 -0.9296  0.3353  0.2893
  559MOL0     C73668   9.766   1.484   7.005  1.0071  0.2174 -0.6003
  559MOL0     C73669   9.825   1.458   7.148  0.0994 -0.2824  1.0340
  559MOL0     C73670   9.776   1.335   7.215  0.5665 -0.3299  0.2853
  559MOL0     C73671   9.824   1.205   7.150 -0.4873 -0.3698  1.0633
  559MOL0     C73672   9.781   1.074   7.205 -0.5029  0.2076 -0.8217
  559MOL0     N73673   9.827   0.952   7.136  0.7458  0.0348 -0.0833
  559MOL0     C73674   9.802   0.915   7.005  0.8286 -0.0951 -0.2073
  559MOL0     C73675   9.878   0.807   6.981  0.9629 -0.3733 -0.7382
  559MOL0     C73676   9.889   0.729   6.858 -0.2622 -0.4892 -0.2613
  559MOL0     C73677   9.863   0.582   6.880 -0.1746  0.1331  0.1371
  559MOL0     C73678   9.719   0.559   6.930 -0.0024 -0.5272 -0.4536
  559MOL0     C73679   9.677   0.413   6.926  0.2238  0.7116 -0.6472
  559MOL0     O73680   9.569   0.404   6.828  0.0444 -0.0617  0.6705
  559MOL0     C73681   9.590   0.379   6.697  0.0133  0.1804  0.0371
  559MOL0     C73682   9.711   0.355   6.643  1.0047 -0.6077  0.5612
  559MOL0     C73683   9.725   0.333   6.511  0.1595  0.3269  0.4925
  559MOL0     C73684   9.616   0.337   6.422  0.2505 -0.0431  0.3975
  559MOL0     C73685   9.614   0.294   6.275 -0.1196  1.1141 -0.2420
  559MOL0     O73686   9.501   0.327   6.200  0.8197 -0.5984 -0.2544
  559MOL0     C73687   9.512   0.300   6.064 -0.5431 -0.4336 -0.3373
  559MOL0     C73688   9.583   0.383   5.982 -0.1518 -0.5081 -0.8201
  559MOL0     C73689   9.591   0.353   5.847 -0.4176 -1.1096  0.2976
  559MOL0     C73690   9.521   0.244   5.791  0.0525 -0.8479  0.0702
  559MOL0     O73691   9.513   0.241   5.660  0.6054 -0.6097 -0.4793
  559MOL0     C73692   9.415   0.330   5.606  0.1178  0.7003  0.0313
  559MOL0     C73693   9.293   0.250   5.586 -1.3018  0.6043 -0.6702
  559MOL0     C73694   9.190   0.313   5.490  0.3158  0.6970  0.2548
  559MOL0     C73695   9.087   0.203   5.452 -0.1971  0.1887 -0.3046
  559MOL0     C73696   8.974   0.262   5.374  0.2899  0.3277  1.1555
  559MOL0     C73697   8.878   0.151   5.330 -0.1791 -0.5144  0.6355
  559MOL0     C73698   8.744   0.217   5.288 -0.3037  0.4473  1.0362
  559MOL0     C73699   8.642   0.111   5.238 -0.4641  0.7103 -0.7811
  559MOL0    Cl73700   8.476   0.180   5.247  0.0752 -0.7741 -0.3081
  559MOL0     C73701   9.463   0.152   5.875  0.5877 -0.2191  0.2129
  559MOL0     C73702   9.461   0.177   6.015  0.2902 -0.8970 -0.3105
  559MOL0     O73703   9.718   0.249   6.230  0.7903  0.1858 -0.9149
  559MOL0     C73704   9.490   0.380   6.476 -0.8029  1.3929  0.6549
  559MOL0     C73705   9.477   0.398   6.617 -0.2771  0.2037  0.0283
  559MOL0     N73706   9.935   0.769   7.095 -0.4228  0.4923 -0.4895
  559MOL0     N73707   9.906   0.859   7.187  0.2054  0.5867  0.0664
  559MOL0     C73708   9.579   2.035   6.756 -0.6378  0.6336 -0.4048
  559MOL0     C73709   9.455   2.101   6.779 -0.4873  0.4153  0.7099
  559MOL0     C73710   9.091   2.323   6.746  0.5816  0.2776 -0.2985
  559MOL0     C73711   8.974   2.266   6.793  0.1777  0.4630 -0.1794
  559MOL0     C73712   8.863   2.337   6.821  0.0909 -0.1708  0.7958
  559MOL0     C73713   8.858   2.474   6.795 -0.1809  0.7491 -0.5567
  559MOL0     O73714   8.751   2.544   6.840 -0.5038 -0.1777  0.2603
  559MOL0     C73715   8.771   2.643   6.935 -0.0462  0.4131  0.1338
  559MOL0     C73716   8.675   2.617   7.047 -0.3810 -0.0318 -0.2509
  559MOL0     C73717   8.703   2.497   7.137 -0.2916  0.1742  0.8046
  559MOL0     C73718   8.849   2.486   7.195 -0.1682  0.3828  0.2683
  559MOL0     C73719   8.903   2.613   7.251  0.0926  0.5772  0.4669
  559MOL0     C73720   8.935   2.709   7.314  0.9625 -0.2785 -0.5091
  559MOL0     C73721   8.968   2.538   6.729  0.2194  0.4345 -0.6887
  559MOL0     C73722   9.089   2.464   6.710 -0.5520  0.9161 -0.9232
  559MOL0     H73723   9.236   1.876   6.652  1.9092 -1.7564 -1.7747
  559MOL0     H73724   9.442   1.762   6.598  1.8019 -0.8289 -0.3327
  559MOL0     H73725   9.753   1.849   6.842 -2.9772  0.0955 -0.4250
  559MOL0     H73726   9.866   1.772   6.731 -0.5281 -0.1435 -0.6062
  559MOL0     H73727   9.743   1.568   6.762  0.8079 -0.7856  1.2259
  559MOL0     H73728   9.600   1.639   6.816  0.5749 -2.8161 -4.8893
  559MOL0     H73729   9.685   1.679   7.037 -1.3053 -0.0113  0.1350
  559MOL0     H73730   9.854   1.682   6.976 -1.0177  0.4739  0.5194
  559MOL0     H73731   9.663   1.447   7.013  1.9889 -3.3175 -2.3472
  559MOL0     H73732   9.833   1.432   6.937  0.9642 -1.7972  0.8108
  559MOL0     H73733   9.806   1.540   7.219 -0.8586  0.3591  0.0743
  559MOL0     H73734   9.933   1.441   7.140 -0.0419 -1.5172  1.5020
  559MOL0     H73735   9.667   1.335   7.204  0.4677  3.8592 -0.4477
  559MOL0     H73736   9.797   1.346   7.322 -2.4782 -0.0236  0.9494
  559MOL0     H73737   9.785   1.215   7.049  0.1422  3.5826  1.0557
  559MOL0     H73738   9.933   1.196   7.152 -0.3720 -0.0785 -1.3434
  559MOL0     H73739   9.672   1.064   7.212 -0.3324 -0.5342  2.3955
  559MOL0     H73740   9.820   1.059   7.306  0.2309  3.2041 -0.5704
  559MOL0     H73741   9.733   0.974   6.944 -0.2224 -1.6065 -0.5541
  559MOL0     H73742   9.991   0.736   6.820  1.0165  1.6665  3.0843
  559MOL0     H73743   9.820   0.776   6.787  0.5851  1.1767 -0.0439
  559MOL0     H73744   9.932   0.548   6.957 -0.5821  4.6710  2.8460
  559MOL0     H73745   9.878   0.540   6.780 -3.9108  1.2503 -1.0572
  559MOL0     H73746   9.710   0.607   7.027  2.9323 -1.9109  0.6007
  559MOL0     H73747   9.650   0.617   6.867 -0.3759 -1.2951 -0.7708
  559MOL0     H73748   9.638   0.391   7.026 -2.1759  0.1772 -1.6503
  559MOL0     H73749   9.749   0.334   6.902 -3.0890 -3.1401  0.9332
  559MOL0     H73750   9.805   0.347   6.697  1.0630  0.0094  0.5582
  559MOL0     H73751   9.818   0.295   6.470 -0.7325  0.2046 -1.5106
  559MOL0     H73752   9.611   0.481   6.019 -4.7849  0.2491  1.4360
  559MOL0     H73753   9.630   0.429   5.781  1.5022 -1.9112  0.4300
  559MOL0     H73754   9.454   0.356   5.507  1.4321  1.3961  0.7052
  559MOL0     H73755   9.383   0.420   5.659 -1.1186 -0.7662  1.9254
  559MOL0     H73756   9.244   0.244   5.684  4.0531  1.2620  2.4683
  559MOL0     H73757   9.325   0.151   5.553  1.3710  1.6240 -1.4402
  559MOL0     H73758   9.241   0.346   5.398  1.5130 -0.4748  0.4603
  559MOL0     H73759   9.138   0.393   5.541  0.6421  1.1496 -0.1140
  559MOL0     H73760   9.136   0.128   5.389  0.0076 -1.5912  1.8421
  559MOL0     H73761   9.053   0.149   5.541  0.9818  0.3883  0.2943
  559MOL0     H73762   8.995   0.326   5.288 -0.3731 -2.0918 -0.9453
  559MOL0     H73763   8.913   0.330   5.435 -0.5372 -0.0006  0.7214
  559MOL0     H73764   8.845   0.083   5.409 -3.1127  0.9358  0.8189
  559MOL0     H73765   8.923   0.086   5.255  0.9761 -1.2997  1.9564
  559MOL0     H73766   8.698   0.261   5.377  3.4997  1.1977  2.8143
  559MOL0     H73767   8.756   0.303   5.221 -2.1997  2.8750  3.5353
  559MOL0     H73768   8.644   0.034   5.316 -0.7300  0.6826 -0.8013
  559MOL0     H73769   8.661   0.070   5.139 -0.3587 -3.3103  0.6947
  559MOL0     H73770   9.429   0.054   5.841  0.3472 -0.3920  0.9363
  559MOL0     H73771   9.413   0.115   6.090 -0.7826 -0.9343 -1.0085
  559MOL0     H73772   9.399   0.378   6.418  0.4515  1.4098 -1.4291
  559MOL0     H73773   9.382   0.420   6.663 -0.2372 -0.2995  0.3544
  559MOL0     H73774   9.671   2.082   6.791  0.9128 -0.7276 -2.4558
  559MOL0     H73775   9.444   2.204   6.813 -1.4413  0.7381 -0.5191
  559MOL0     H73776   8.974   2.164   6.830  2.2319  0.9142  1.2155
  559MOL0     H73777   8.776   2.293   6.870 -2.9043 -1.1977 -4.5859
  559MOL0     H73778   8.759   2.740   6.887 -2.4160 -0.1303 -0.4785
  559MOL0     H73779   8.874   2.637   6.972  0.0839  0.6429 -0.1876
  559MOL0     H73780   8.674   2.708   7.109 -3.7935  1.0158 -1.6195
  559MOL0     H73781   8.573   2.622   7.009 -0.3435  2.7313 -0.1882
  559MOL0     H73782   8.686   2.409   7.075  1.6578 -0.3305  0.9089
  559MOL0     H73783   8.625   2.488   7.213  0.2327  2.8082  1.7619
  559MOL0     H73784   8.840   2.417   7.280 -2.0385 -2.5740 -2.1017
  559MOL0     H73785   8.915   2.441   7.122 -0.5888 -1.1831  0.8098
  559MOL0     H73786   8.961   2.785   7.385 -1.3040 -0.3789  0.5194
  559MOL0     H73787   8.979   2.641   6.694 -0.7481 -0.0881 -2.6970
  559MOL0     H73788   9.176   2.516   6.669  0.0990 -1.1431 -2.3583
  560MOL0     O73789   1.906   8.942   6.602 -0.1469 -1.1844  0.2628
  560MOL0     C73790   1.961   8.845   6.663 -0.2391  0.0577  0.1905
  560MOL0     O73791   2.090   8.841   6.715 -0.7338  0.1557 -0.6182
  560MOL0     C73792   2.187   8.934   6.694 -0.0564 -0.7536  0.1634
  560MOL0     C73793   2.313   8.889   6.728  0.3908 -1.3132  0.1894
  560MOL0     C73794   2.416   8.980   6.713 -0.2472  0.4999 -0.7257
  560MOL0     C73795   2.408   9.105   6.656  0.9798 -0.4047 -0.6812
  560MOL0     O73796   2.512   9.185   6.616 -0.1240  1.1334  0.1917
  560MOL0     C73797   2.651   9.151   6.673  0.2779 -0.2555  0.0526
  560MOL0     C73798   2.755   9.235   6.597 -0.6303 -0.4430 -0.1728
  560MOL0     C73799   2.899   9.186   6.629  0.4441  0.2302 -0.0639
  560MOL0     C73800   2.957   9.262   6.745 -0.1738  0.0798 -0.8171
  560MOL0     C73801   3.101   9.217   6.766 -0.8309 -0.1698  0.2089
  560MOL0     C73802   3.169   9.273   6.892  0.0676 -0.3128 -0.6542
  560MOL0     C73803   3.310   9.209   6.901 -0.6976 -0.1325  0.3065
  560MOL0     C73804   3.364   9.244   7.038  0.3046 -0.8896 -0.1351
  560MOL0     N73805   3.493   9.191   7.073  0.2410 -0.1025  0.0849
  560MOL0     C73806   3.523   9.059   7.088 -0.6738  1.6378  0.3381
  560MOL0     C73807   3.658   9.044   7.113 -0.1287 -0.6664  0.1525
  560MOL0     C73808   3.721   8.911   7.150 -0.9733  0.8560 -0.7824
  560MOL0     C73809   3.661   8.791   7.058 -0.0464 -0.2623 -0.0064
  560MOL0     C73810   3.685   8.811   6.906 -0.1975  0.7479  0.0127
  560MOL0     C73811   3.672   8.670   6.827 -1.0085 -0.5639  0.6637
  560MOL0     O73812   3.583   8.691   6.712  0.5603 -0.2620  0.7182
  560MOL0     C73813   3.446   8.684   6.729  0.5734  0.2350  0.2610
  560MOL0     C73814   3.391   8.662   6.856 -0.0739  0.7510 -0.0518
  560MOL0     C73815   3.252   8.680   6.879 -0.2211 -0.3665 -0.4565
  560MOL0     C73816   3.170   8.732   6.778 -0.6290 -0.3150 -0.3466
  560MOL0     C73817   3.018   8.748   6.796 -0.1261 -0.2900  0.9141
  560MOL0     O73818   2.965   8.715   6.915 -0.0664 -0.2858  0.3739
  560MOL0     C73819   2.843   8.775   6.937  0.2794  0.3391 -0.5005
  560MOL0     C73820   2.726   8.712   6.895  0.0920 -0.1838 -0.4391
  560MOL0     C73821   2.608   8.762   6.941  1.6197 -0.5562 -0.6639
  560MOL0     C73822   2.598   8.891   7.005  0.6275  0.2815 -1.1256
  560MOL0     O73823   2.472   8.935   7.037  0.1854  0.1249  0.3658
  560MOL0     C73824   2.458   9.057   7.108 -0.5852 -0.8709 -0.8098
  560MOL0     C73825   2.314   9.071   7.155 -0.9225  0.4759  0.7018
  560MOL0     C73826   2.217   9.105   7.045  0.6193 -0.1056  0.0002
  560MOL0     C73827   2.073   9.125   7.083  0.6013 -0.2930 -0.2626
  560MOL0     C73828   1.980   9.125   6.960 -0.9615 -0.5587 -0.1506
  560MOL0     C73829   1.993   9.261   6.886 -0.7368 -0.4793  0.1402
  560MOL0     C73830   1.876   9.303   6.802  0.1543 -0.1795 -0.0544
  560MOL0     C73831   1.902   9.446   6.749  0.1520  0.6990 -0.1344
  560MOL0    Cl73832   2.052   9.443   6.644 -0.3230  0.1764 -0.1671
  560MOL0     C73833   2.719   8.956   7.034  0.3832  0.5174  0.0798
  560MOL0     C73834   2.841   8.901   6.993  0.7544 -0.3854  0.4346
  560MOL0     O73835   2.973   8.821   6.706 -0.5810 -0.6100  0.1279
  560MOL0     C73836   3.234   8.766   6.659 -0.6497 -0.5811 -0.7955
  560MOL0     C73837   3.366   8.737   6.633 -0.4585  0.0587  1.0185
  560MOL0     N73838   3.705   9.172   7.125  0.0579  0.3153 -0.5307
  560MOL0     N73839   3.609   9.259   7.102  0.0457  0.2094  0.8222
  560MOL0     C73840   2.285   9.151   6.617 -0.0226  0.1692 -0.5993
  560MOL0     C73841   2.173   9.059   6.641 -0.3757  0.0164 -0.3363
  560MOL0     C73842   1.886   8.719   6.664  0.3742  0.4350  0.1063
  560MOL0     C73843   1.918   8.617   6.755  0.5591 -0.8598  0.3171
  560MOL0     C73844   1.845   8.495   6.755  0.2446 -0.0683  0.2854
  560MOL0     C73845   1.751   8.468   6.659 -0.0065 -0.6473 -0.7683
  560MOL0     O73846   1.683   8.350   6.632 -0.4820 -0.4579  0.8686
  560MOL0     C73847   1.570   8.313   6.711  0.4878 -0.0486 -0.1065
  560MOL0     C73848   1.428   8.358   6.656 -0.6664 -0.9482 -0.3364
  560MOL0     C73849   1.383   8.490   6.726 -0.3601 -0.2497  0.0538
  560MOL0     C73850   1.272   8.552   6.640 -0.0611 -0.7689  0.8119
  560MOL0     C73851   1.139   8.488   6.663 -1.1322 -0.5202 -0.0204
  560MOL0     C73852   1.034   8.441   6.682  0.0987 -0.1650 -0.1751
  560MOL0     C73853   1.717   8.573   6.570  1.1379  0.1774 -0.2956
  560MOL0     C73854   1.791   8.693   6.569  0.5382 -0.5851 -0.7775
  560MOL0     H73855   2.319   8.791   6.772  2.0368 -1.0457  0.5968
  560MOL0     H73856   2.510   8.936   6.745 -1.5298 -1.5894  0.3886
  560MOL0     H73857   2.683   9.048   6.654  1.7284  0.0506  0.6260
  560MOL0     H73858   2.643   9.157   6.782 -1.0462 -1.1757  0.0279
  560MOL0     H73859   2.757   9.338   6.633  4.8182 -0.8867  1.7789
  560MOL0     H73860   2.745   9.213   6.490  1.1860 -0.6971 -0.3211
  560MOL0     H73861   2.955   9.205   6.538 -1.7055  1.1051 -1.2794
  560MOL0     H73862   2.892   9.079   6.654  1.3566  0.5515  1.7777
  560MOL0     H73863   2.960   9.366   6.711 -1.9648 -0.7281 -3.9239
  560MOL0     H73864   2.897   9.250   6.835  2.5304 -1.3586  0.8992
  560MOL0     H73865   3.163   9.257   6.684  0.0344 -0.4424  0.7133
  560MOL0     H73866   3.111   9.109   6.771 -2.9473 -0.3669  0.7981
  560MOL0     H73867   3.116   9.244   6.983  0.0668  0.7262 -0.3089
  560MOL0     H73868   3.177   9.382   6.891 -2.0212  0.0953  3.8975
  560MOL0     H73869   3.304   9.100   6.891 -1.4009  0.0358 -1.1844
  560MOL0     H73870   3.365   9.251   6.817 -1.4642  1.1791  0.4411
  560MOL0     H73871   3.291   9.215   7.114 -0.6098  1.5230  0.0142
  560MOL0     H73872   3.375   9.353   7.047  1.4585 -0.8202 -1.8648
  560MOL0     H73873   3.460   8.971   7.083  1.7919 -0.4356  2.6426
  560MOL0     H73874   3.686   8.900   7.253 -1.4894  2.3839 -0.7748
  560MOL0     H73875   3.829   8.921   7.147 -1.1175  2.8794 -0.3221
  560MOL0     H73876   3.554   8.776   7.077  0.3651 -3.7918  0.1649
  560MOL0     H73877   3.713   8.702   7.095  0.4734 -0.1379 -0.4251
  560MOL0     H73878   3.599   8.870   6.874 -0.5003  0.9407  1.1344
  560MOL0     H73879   3.783   8.859   6.891 -0.0164 -0.6000 -5.2563
  560MOL0     H73880   3.643   8.589   6.895  1.8187  0.0993  2.8380
  560MOL0     H73881   3.763   8.625   6.786 -0.0008  2.3280 -0.5174
  560MOL0     H73882   3.445   8.627   6.944 -1.4862  1.0748  0.9973
  560MOL0     H73883   3.213   8.657   6.978 -1.4922 -3.1158 -1.4897
  560MOL0     H73884   2.725   8.620   6.838  1.6893 -0.5928  0.1560
  560MOL0     H73885   2.514   8.722   6.906  0.4533 -0.7351  2.3525
  560MOL0     H73886   2.488   9.137   7.040 -1.8156 -1.9385 -2.7297
  560MOL0     H73887   2.524   9.046   7.194  0.8479 -0.3241 -1.8087
  560MOL0     H73888   2.294   9.146   7.232 -1.7019  0.2470  0.7332
  560MOL0     H73889   2.298   8.969   7.192  2.5214 -2.2536 -4.1242
  560MOL0     H73890   2.242   9.037   6.963  3.3522 -2.1628  2.3375
  560MOL0     H73891   2.254   9.204   7.015 -2.1690  0.5995 -1.4703
  560MOL0     H73892   2.050   9.031   7.133  1.3660  0.0414  0.7329
  560MOL0     H73893   2.058   9.217   7.140 -0.1154 -0.7885  0.3672
  560MOL0     H73894   1.879   9.098   6.990 -0.2303  0.2122  3.4346
  560MOL0     H73895   2.003   9.042   6.892 -0.4634 -1.0373  0.5913
  560MOL0     H73896   2.089   9.267   6.834  0.1445  0.1105  1.7773
  560MOL0     H73897   1.995   9.343   6.959  0.8208  1.0104 -1.4857
  560MOL0     H73898   1.875   9.224   6.726 -1.1828 -2.4156  2.1639
  560MOL0     H73899   1.785   9.297   6.861 -0.8281 -2.5119 -1.6814
  560MOL0     H73900   1.922   9.507   6.837  1.3844  0.9350 -0.5551
  560MOL0     H73901   1.818   9.476   6.686 -0.8103  1.7110  1.5821
  560MOL0     H73902   2.725   9.048   7.090 -0.7222  1.2617 -0.9658
  560MOL0     H73903   2.940   8.939   7.020  0.6414 -0.9220  1.6738
  560MOL0     H73904   3.175   8.815   6.582  2.3978 -1.5871 -4.0586
  560MOL0     H73905   3.401   8.750   6.531 -0.3106 -3.2100  0.5297
  560MOL0     H73906   2.272   9.243   6.560  2.5130 -0.0162 -1.6150
  560MOL0     H73907   2.077   9.100   6.611  0.4071  1.9039 -0.4075
  560MOL0     H73908   2.000   8.636   6.823  0.4930 -0.0046  0.1695
  560MOL0     H73909   1.863   8.419   6.831 -0.8560  0.4270  1.0687
  560MOL0     H73910   1.582   8.332   6.818  3.4066 -2.4185  0.1029
  560MOL0     H73911   1.569   8.204   6.703  1.3698 -0.0676 -0.0178
  560MOL0     H73912   1.440   8.371   6.548  0.3249 -2.8542 -0.4864
  560MOL0     H73913   1.359   8.274   6.669 -0.4961 -1.0669 -0.2035
  560MOL0     H73914   1.459   8.568   6.738  0.0621 -0.8705  1.5377
  560MOL0     H73915   1.348   8.471   6.828  0.7171  0.6457  0.6120
  560MOL0     H73916   1.250   8.657   6.659 -1.5748 -0.5838 -1.5864
  560MOL0     H73917   1.287   8.541   6.532  1.9462 -1.0069  1.0651
  560MOL0     H73918   0.943   8.386   6.700  0.2268 -0.7201 -1.1642
  560MOL0     H73919   1.648   8.567   6.487  0.4273  3.7427 -0.1077
  560MOL0     H73920   1.751   8.775   6.511 -1.4273  1.2938  2.8647
  561MOL0     O73921   5.440   7.680   7.236 -0.2442 -0.2096  0.3101
  561MOL0     C73922   5.355   7.654   7.320  0.4069 -0.0605 -0.4854
  561MOL0     O73923   5.291   7.743   7.417  0.0346 -0.3246  0.0402
  561MOL0     C73924   5.317   7.882   7.435  0.8288 -0.3799  0.4236
  561MOL0     C73925   5.235   7.950   7.531 -0.8399 -0.7383 -1.3553
  561MOL0     C73926   5.270   8.074   7.566  0.4543  0.3625  0.3654
  561MOL0     C73927   5.368   8.153   7.487 -0.4451  0.4402  0.3997
  561MOL0     O73928   5.365   8.287   7.516 -0.0458  0.0287 -0.4948
  561MOL0     C73929   5.472   8.368   7.478  0.4731  0.5765 -0.3715
  561MOL0     C73930   5.460   8.520   7.515 -0.3451  0.4805 -0.7586
  561MOL0     C73931   5.407   8.597   7.391  0.0795  0.9433  1.2148
  561MOL0     C73932   5.408   8.754   7.412 -0.5427  0.9876  0.2764
  561MOL0     C73933   5.337   8.824   7.295  0.7304 -0.3944  0.4152
  561MOL0     C73934   5.276   8.957   7.334 -0.5719 -0.5060 -0.5645
  561MOL0     C73935   5.367   9.061   7.401  0.4907 -0.0356 -0.3564
  561MOL0     C73936   5.299   9.170   7.486 -0.3533 -0.1607 -0.1824
  561MOL0     N73937   5.202   9.119   7.588 -0.1084 -1.3821 -0.0406
  561MOL0     C73938   5.224   9.009   7.667 -1.2116 -1.0445  0.6464
  561MOL0     C73939   5.101   8.983   7.712  0.0572 -0.4061  0.1234
  561MOL0     C73940   5.071   8.863   7.789  0.1926  0.3980 -0.5484
  561MOL0     C73941   4.995   8.756   7.718 -0.9293 -0.0649 -0.3271
  561MOL0     C73942   5.020   8.619   7.779  0.7049 -0.3011  0.0504
  561MOL0     C73943   4.944   8.498   7.713 -0.2825 -0.4172 -1.0925
  561MOL0     O73944   4.993   8.478   7.581 -0.0370  0.8289  0.2491
  561MOL0     C73945   4.975   8.352   7.525 -0.3624 -0.3232 -0.0555
  561MOL0     C73946   5.028   8.334   7.390 -0.1413  0.0004  0.0883
  561MOL0     C73947   5.024   8.203   7.337  0.4369 -1.4116  0.1164
  561MOL0     C73948   4.976   8.095   7.404 -0.7386  1.2853  0.2397
  561MOL0     C73949   4.961   7.958   7.338 -0.2913 -0.0286 -0.0854
  561MOL0     O73950   5.038   7.943   7.229 -0.0488  0.3502  0.4782
  561MOL0     C73951   5.021   7.830   7.148 -0.2258 -0.7510  0.2651
  561MOL0     C73952   4.977   7.826   7.013  0.4312 -0.6522 -0.1676
  561MOL0     C73953   4.958   7.701   6.944 -0.2225 -0.2278 -0.2731
  561MOL0     C73954   4.989   7.587   7.005 -0.1674 -0.3430 -0.4582
  561MOL0     O73955   4.971   7.473   6.938  0.2383 -0.3007 -0.4354
  561MOL0     C73956   5.081   7.421   6.873  0.3757  1.5805 -0.7226
  561MOL0     C73957   5.036   7.296   6.798  0.7231 -0.4081  0.6052
  561MOL0     C73958   5.141   7.207   6.731 -0.6472  0.1459  0.0788
  561MOL0     C73959   5.060   7.092   6.672  0.2579  0.2574  0.6267
  561MOL0     C73960   5.170   6.996   6.604  0.0180 -0.2999  1.0291
  561MOL0     C73961   5.116   6.852   6.584 -0.3847  0.0250 -0.1589
  561MOL0     C73962   5.218   6.763   6.524  0.0138  0.5999  0.2590
  561MOL0     C73963   5.164   6.634   6.477  1.0399 -0.6458  0.6290
  561MOL0    Cl73964   5.118   6.546   6.622 -0.2581  0.4996  0.2976
  561MOL0     C73965   5.024   7.583   7.142 -0.7155 -0.1566 -0.0032
  561MOL0     C73966   5.036   7.705   7.210  0.0726  0.0946  1.3142
  561MOL0     O73967   4.864   7.888   7.366  0.6413  0.5653 -0.3978
  561MOL0     C73968   4.926   8.111   7.537  0.2308 -0.3965  0.5359
  561MOL0     C73969   4.916   8.240   7.590  0.5258  0.5094 -0.3209
  561MOL0     N73970   5.006   9.056   7.649  0.0146  0.0091 -0.3530
  561MOL0     N73971   5.066   9.142   7.578  0.0545  0.0194 -0.1343
  561MOL0     C73972   5.431   8.087   7.387 -0.0756 -0.3105  0.0789
  561MOL0     C73973   5.420   7.950   7.372 -0.7871  0.6285  0.3656
  561MOL0     C73974   5.309   7.513   7.337 -0.1640 -0.2824 -0.2677
  561MOL0     C73975   5.329   7.412   7.244 -0.3243  0.2671  0.4350
  561MOL0     C73976   5.285   7.281   7.268  0.2514 -0.3283 -0.1928
  561MOL0     C73977   5.215   7.237   7.376  0.5842  0.4916  0.3454
  561MOL0     O73978   5.156   7.116   7.385 -0.5450  0.2110  0.0940
  561MOL0     C73979   5.239   6.998   7.383  0.2925 -0.2216  1.0987
  561MOL0     C73980   5.307   6.975   7.528 -0.0878 -0.2092  0.4304
  561MOL0     C73981   5.220   6.998   7.645 -0.3514  0.2742  0.0516
  561MOL0     C73982   5.287   6.942   7.774  0.4674 -0.4357  0.3087
  561MOL0     C73983   5.243   6.802   7.805  0.2695  1.0871 -0.4257
  561MOL0     C73984   5.185   6.695   7.820  0.4230 -0.9272  0.4426
  561MOL0     C73985   5.191   7.335   7.467  0.0136 -0.0406 -1.1003
  561MOL0     C73986   5.226   7.467   7.452  0.0762  0.3422 -0.4338
  561MOL0     H73987   5.168   7.885   7.588 -0.4959 -1.0989 -1.3543
  561MOL0     H73988   5.223   8.123   7.651 -2.1923  0.5143 -1.0866
  561MOL0     H73989   5.478   8.362   7.369 -0.5749  0.1775 -0.4132
  561MOL0     H73990   5.561   8.323   7.523  0.5603 -0.0356 -1.1339
  561MOL0     H73991   5.560   8.562   7.531  0.9413  0.8682 -7.1526
  561MOL0     H73992   5.399   8.533   7.605  1.3709  1.0896  0.3784
  561MOL0     H73993   5.311   8.551   7.364  0.0933  1.4474  0.2756
  561MOL0     H73994   5.476   8.580   7.308 -0.1841  1.2409  0.9306
  561MOL0     H73995   5.361   8.769   7.510 -1.6939 -2.6728  0.4160
  561MOL0     H73996   5.512   8.786   7.415 -0.3623  0.3747  0.7738
  561MOL0     H73997   5.259   8.756   7.261 -0.7028  1.2433  0.3343
  561MOL0     H73998   5.407   8.830   7.211  2.7203 -3.2123  1.6994
  561MOL0     H73999   5.196   8.935   7.406 -1.8260  2.1224 -1.0207
  561MOL0     H74000   5.231   8.991   7.240 -3.9643  0.0603  1.0996
  561MOL0     H74001   5.431   9.010   7.473 -1.9229 -0.9633  1.2869
  561MOL0     H74002   5.430   9.093   7.317 -0.7179 -1.4918 -1.8891
  561MOL0     H74003   5.249   9.245   7.423 -1.2042  0.5181  1.2535
  561MOL0     H74004   5.378   9.225   7.539  2.0108 -3.4304 -0.0469
  561MOL0     H74005   5.322   8.963   7.679  0.6931  2.1503 -1.1247
  561MOL0     H74006   5.017   8.893   7.879  1.3733  3.5439 -0.7788
  561MOL0     H74007   5.161   8.819   7.833 -1.5724 -1.6825  1.2829
  561MOL0     H74008   5.025   8.758   7.613 -0.0536  1.4859 -0.0768
  561MOL0     H74009   4.890   8.784   7.727 -0.8368 -0.3497  2.6561
  561MOL0     H74010   5.126   8.593   7.782  0.9727  0.8269  3.2524
  561MOL0     H74011   4.983   8.636   7.880  0.6678  3.0174 -0.4156
  561MOL0     H74012   4.839   8.526   7.703 -0.5981 -0.0550  2.2878
  561MOL0     H74013   4.951   8.407   7.772  0.7156  0.9160  0.9597
  561MOL0     H74014   5.065   8.416   7.330 -2.8554  0.1096 -1.5781
  561MOL0     H74015   5.063   8.190   7.237  1.6155 -2.2199  0.6627
  561MOL0     H74016   4.955   7.922   6.967  0.3529  0.2617  1.6601
  561MOL0     H74017   4.934   7.708   6.838 -1.8247  0.1831  0.0728
  561MOL0     H74018   5.154   7.396   6.951 -2.5697  0.0596  1.7625
  561MOL0     H74019   5.131   7.495   6.810 -0.0302  0.9214 -1.8493
  561MOL0     H74020   4.987   7.335   6.709  4.1768 -1.1497 -1.8241
  561MOL0     H74021   4.974   7.234   6.863 -1.8669  0.3658 -1.0002
  561MOL0     H74022   5.202   7.161   6.809  1.7412 -0.0821 -1.7924
  561MOL0     H74023   5.202   7.254   6.653 -0.4686 -0.4200 -0.1290
  561MOL0     H74024   5.018   7.041   6.759  2.4243  0.2934  1.7563
  561MOL0     H74025   4.982   7.135   6.608 -0.1732 -1.3052  0.0405
  561MOL0     H74026   5.258   6.986   6.669 -1.4272 -1.1378  2.9305
  561MOL0     H74027   5.200   7.033   6.505  2.1147 -1.3167  1.2091
  561MOL0     H74028   5.023   6.870   6.528 -0.7811 -2.3008 -0.3366
  561MOL0     H74029   5.088   6.807   6.679 -2.8956  0.2350 -0.7199
  561MOL0     H74030   5.269   6.813   6.441  0.5432  1.6981  1.2219
  561MOL0     H74031   5.292   6.737   6.600  1.1872  0.7322 -0.8155
  561MOL0     H74032   5.236   6.573   6.420  0.4078  0.2749 -1.2301
  561MOL0     H74033   5.087   6.652   6.402  2.5622  1.6460 -0.5055
  561MOL0     H74034   5.049   7.489   7.190  1.3907  2.3137  4.3013
  561MOL0     H74035   5.063   7.685   7.313  0.2610 -3.0063  0.7635
  561MOL0     H74036   4.880   8.021   7.577  2.0149 -3.2063 -3.0965
  561MOL0     H74037   4.868   8.248   7.688 -0.9774 -1.7015 -0.7877
  561MOL0     H74038   5.495   8.140   7.318  0.2927 -1.3303 -0.3789
  561MOL0     H74039   5.469   7.895   7.293 -1.5383  0.7010 -0.1523
  561MOL0     H74040   5.366   7.441   7.146 -3.8701  2.6130 -0.4150
  561MOL0     H74041   5.318   7.213   7.191 -2.5861 -0.9397 -0.9808
  561MOL0     H74042   5.313   7.002   7.303  0.2912  1.7374  1.1663
  561MOL0     H74043   5.169   6.916   7.363 -0.9073  0.7189  1.3190
  561MOL0     H74044   5.352   6.876   7.541 -1.6728 -1.3823 -2.2762
  561MOL0     H74045   5.388   7.048   7.538  1.0387 -1.7161  3.7433
  561MOL0     H74046   5.120   6.956   7.626  0.7585 -3.1443  1.1155
  561MOL0     H74047   5.207   7.105   7.659 -3.0266 -0.0701  0.9359
  561MOL0     H74048   5.396   6.944   7.762  0.5320 -1.1348  0.7467
  561MOL0     H74049   5.251   7.007   7.855 -4.7206 -1.4998 -0.7554
  561MOL0     H74050   5.135   6.600   7.824 -2.4995  0.5016 -0.1679
  561MOL0     H74051   5.136   7.320   7.559 -0.0698  3.3945 -0.4511
  561MOL0     H74052   5.215   7.537   7.534 -0.9765 -0.2671 -0.0238
  562MOL0     O74053  10.610   2.419  11.301 -0.4958 -0.2682 -0.0554
  562MOL0     C74054  10.703   2.356  11.361  0.1469 -0.0475 -0.6390
  562MOL0     O74055  10.715   2.344  11.489  0.1550 -0.1922  0.6954
  562MOL0     C74056  10.618   2.395  11.572 -0.0584 -0.4219  0.2213
  562MOL0     C74057  10.543   2.317  11.656  0.4527  0.1436  0.9690
  562MOL0     C74058  10.428   2.376  11.720 -0.2834 -0.3137  0.0762
  562MOL0     C74059  10.403   2.510  11.707  0.2071  0.6951  0.8173
  562MOL0     O74060  10.291   2.566  11.771 -0.4479  0.1848  0.6533
  562MOL0     C74061  10.308   2.685  11.853  0.4176 -0.2801  0.1746
  562MOL0     C74062  10.199   2.671  11.945  0.3221  0.3193 -0.3035
  562MOL0     C74063  10.172   2.792  12.036  0.3849 -0.2078 -0.8130
  562MOL0     C74064  10.042   2.786  12.132 -0.4028  0.0896  1.5155
  562MOL0     C74065   9.998   2.922  12.175 -0.9403 -0.3912 -1.0841
  562MOL0     C74066   9.961   3.020  12.060 -0.2618  0.0103  0.1211
  562MOL0     C74067   9.860   2.965  11.958  0.2207 -0.0968  0.4195
  562MOL0     C74068   9.721   2.934  12.005 -0.5916 -0.3607 -0.0746
  562MOL0     N74069   9.653   3.051  12.060 -0.5486  1.1389 -0.0355
  562MOL0     C74070   9.648   3.086  12.194  0.4539 -0.2351 -0.2112
  562MOL0     C74071   9.616   3.220  12.197 -0.1762 -0.1515  0.0516
  562MOL0     C74072   9.597   3.318  12.314 -1.0299  0.2341 -0.4705
  562MOL0     C74073   9.735   3.377  12.358  0.3163 -0.6662  0.0944
  562MOL0     C74074   9.712   3.494  12.449  0.0724  0.0037  0.6500
  562MOL0     C74075   9.687   3.463  12.594  0.7110 -1.1322  0.1724
  562MOL0     O74076   9.802   3.406  12.660 -0.0225 -0.6443 -0.3148
  562MOL0     C74077   9.915   3.463  12.697 -0.3249  0.0002 -0.9064
  562MOL0     C74078   9.922   3.595  12.725  0.3924  0.4899 -0.0839
  562MOL0     C74079  10.050   3.639  12.754 -0.8196  0.1881  0.2343
  562MOL0     C74080  10.168   3.565  12.769 -0.5677 -0.3394 -0.2103
  562MOL0     C74081  10.297   3.634  12.801 -0.1771 -0.1022 -0.4173
  562MOL0     O74082  10.309   3.758  12.754 -0.2112 -0.3079 -0.0467
  562MOL0     C74083  10.428   3.826  12.762  0.3677 -0.5355 -0.0780
  562MOL0     C74084  10.441   3.923  12.854  0.5239  0.0099  0.4846
  562MOL0     C74085  10.564   3.983  12.871  0.0920 -0.0572 -1.6154
  562MOL0     C74086  10.669   3.952  12.786 -0.5248 -0.2598 -0.5265
  562MOL0     O74087  10.783   4.010  12.798 -0.6423 -0.1795  0.4760
  562MOL0     C74088  10.845   3.993  12.928 -1.4020  0.3680  0.3858
  562MOL0     C74089  10.971   3.911  12.895  0.5400 -0.1540 -0.6913
  562MOL0     C74090  11.067   3.913  13.024  0.6047  0.3156  0.2732
  562MOL0     C74091  11.193   3.837  13.023 -0.1342 -0.0586  0.3452
  562MOL0     C74092  11.242   3.814  13.166 -0.7621  0.5358  0.6351
  562MOL0     C74093  11.384   3.744  13.168  0.5607 -0.0071  0.5340
  562MOL0     C74094  11.443   3.706  13.307 -0.8568 -0.5481  0.9046
  562MOL0     C74095  11.479   3.559  13.295 -0.2925  0.3813 -0.1125
  562MOL0    Cl74096  11.623   3.537  13.193  0.3893 -0.5376 -0.4219
  562MOL0     C74097  10.647   3.867  12.676 -0.3655  0.6860  0.4315
  562MOL0     C74098  10.523   3.807  12.666 -0.3014  0.0726 -0.1771
  562MOL0     O74099  10.380   3.564  12.855 -0.3908 -0.2990  0.7737
  562MOL0     C74100  10.151   3.430  12.759  1.1220  0.3632 -0.7908
  562MOL0     C74101  10.029   3.382  12.712 -0.8842  0.4279 -0.4130
  562MOL0     N74102   9.615   3.252  12.052 -0.1024  0.2151 -0.5538
  562MOL0     N74103   9.639   3.150  11.980 -0.4362 -0.1949  0.4740
  562MOL0     C74104  10.496   2.597  11.637 -1.1847 -0.3757  0.4807
  562MOL0     C74105  10.601   2.530  11.567  0.5757 -0.1256  0.4768
  562MOL0     C74106  10.821   2.309  11.281 -0.6471  0.1239 -0.5170
  562MOL0     C74107  10.941   2.273  11.337  0.5315 -0.4183  0.2468
  562MOL0     C74108  11.053   2.230  11.254  0.2990 -0.4541 -0.2847
  562MOL0     C74109  11.031   2.219  11.116 -0.2149 -0.7157 -0.4126
  562MOL0     O74110  11.141   2.172  11.041 -0.0287 -0.1064 -0.3147
  562MOL0     C74111  11.115   2.110  10.922  0.4310 -0.1217 -0.9033
  562MOL0     C74112  11.229   2.023  10.879  0.0808 -0.5288 -0.2420
  562MOL0     C74113  11.338   2.105  10.830  0.6428 -0.6114 -0.6495
  562MOL0     C74114  11.470   2.037  10.849  1.1229 -0.1234  0.2929
  562MOL0     C74115  11.478   1.906  10.786  0.1370  0.5055 -0.3240
  562MOL0     C74116  11.488   1.794  10.747  0.2627 -0.0550 -0.2793
  562MOL0     C74117  10.914   2.265  11.064  0.0607 -0.0965  0.4715
  562MOL0     C74118  10.811   2.297  11.144  0.1515  0.3903 -0.5472
  562MOL0     H74119  10.578   2.216  11.674  2.2221  0.5063 -0.1704
  562MOL0     H74120  10.353   2.318  11.773 -1.3506 -0.3420 -1.3641
  562MOL0     H74121  10.286   2.781  11.806  1.5651 -0.4081 -0.6756
  562MOL0     H74122  10.405   2.703  11.900 -0.0678  2.1112  0.3999
  562MOL0     H74123  10.220   2.586  12.010 -2.1881  0.0872  0.3210
  562MOL0     H74124  10.112   2.645  11.884  1.0196 -0.0898 -1.1463
  562MOL0     H74125  10.172   2.890  11.988 -2.9886 -0.4245 -1.5494
  562MOL0     H74126  10.257   2.799  12.104  0.8715 -0.7668 -1.3488
  562MOL0     H74127   9.960   2.736  12.079 -0.7117  1.6095  0.4917
  562MOL0     H74128  10.075   2.717  12.210  2.9613  0.5043  0.6095
  562MOL0     H74129  10.073   2.963  12.244 -2.7628 -0.7136  1.1789
  562MOL0     H74130   9.917   2.908  12.246  2.5151 -0.5916  3.2261
  562MOL0     H74131  10.054   3.051  12.012 -0.0906  0.5129  0.7532
  562MOL0     H74132   9.910   3.111  12.095 -0.9710 -1.0170  1.9179
  562MOL0     H74133   9.844   3.031  11.872 -1.6383 -2.2841 -1.0290
  562MOL0     H74134   9.901   2.873  11.914 -0.3447 -0.0737 -0.1701
  562MOL0     H74135   9.730   2.863  12.087  3.4386  1.9975  1.8111
  562MOL0     H74136   9.673   2.899  11.913  1.2399 -2.1294 -0.4133
  562MOL0     H74137   9.650   3.018  12.279  0.1774 -2.4365 -1.8654
  562MOL0     H74138   9.548   3.251  12.385 -1.6014  0.3349 -0.7707
  562MOL0     H74139   9.530   3.400  12.287 -0.7576  0.2212 -1.2250
  562MOL0     H74140   9.800   3.420  12.282 -0.7370 -0.1049 -0.5144
  562MOL0     H74141   9.794   3.298  12.406 -1.1920 -1.7656  0.2078
  562MOL0     H74142   9.792   3.568  12.447 -0.4436  0.5780 -1.5600
  562MOL0     H74143   9.627   3.548  12.405 -1.2145 -1.5223  1.1909
  562MOL0     H74144   9.603   3.393  12.595 -1.0872  0.7287 -2.9755
  562MOL0     H74145   9.656   3.550  12.653 -0.7162 -0.9282 -0.8310
  562MOL0     H74146   9.833   3.655  12.715 -0.1300 -0.2143  0.2974
  562MOL0     H74147  10.057   3.747  12.764  1.1351 -0.0033  1.4696
  562MOL0     H74148  10.367   3.956  12.925  0.2865  0.4688  0.0335
  562MOL0     H74149  10.572   4.058  12.949  2.5548  0.0233 -1.8464
  562MOL0     H74150  10.782   3.946  13.004  0.4216 -0.3525  1.5343
  562MOL0     H74151  10.887   4.085  12.972 -0.4275  1.0256 -1.7534
  562MOL0     H74152  11.020   3.956  12.808  1.4322 -1.1228 -0.7082
  562MOL0     H74153  10.948   3.809  12.862 -1.5893  1.2424 -4.0717
  562MOL0     H74154  11.013   3.869  13.108  0.2427 -4.3317 -2.0637
  562MOL0     H74155  11.089   4.015  13.055  1.1933  0.2342  0.1530
  562MOL0     H74156  11.200   3.736  12.982  0.2588 -0.0437  0.3701
  562MOL0     H74157  11.256   3.900  12.959 -2.1071  0.3498 -1.3098
  562MOL0     H74158  11.169   3.746  13.212 -1.3493  1.4940  1.1458
  562MOL0     H74159  11.259   3.909  13.217 -0.5966  2.0389 -2.0276
  562MOL0     H74160  11.457   3.810  13.119  3.7353 -3.6975 -0.1645
  562MOL0     H74161  11.383   3.664  13.094  3.8443  0.7823 -0.5315
  562MOL0     H74162  11.517   3.779  13.340 -1.4305 -0.7601  2.7518
  562MOL0     H74163  11.361   3.710  13.379 -1.1884  0.1711  0.4898
  562MOL0     H74164  11.397   3.510  13.243  0.7515  1.2352 -2.7201
  562MOL0     H74165  11.499   3.507  13.389  2.9591 -0.1364 -0.9765
  562MOL0     H74166  10.731   3.855  12.608 -0.3120 -0.5766  0.6935
  562MOL0     H74167  10.516   3.734  12.585  2.9326 -1.2059  0.5534
  562MOL0     H74168  10.225   3.352  12.772 -1.5384 -2.0809  1.2437
  562MOL0     H74169  10.009   3.276  12.697 -0.5464  0.0182  1.7589
  562MOL0     H74170  10.474   2.703  11.641 -2.3242 -0.4815 -1.3937
  562MOL0     H74171  10.674   2.595  11.521 -1.3556 -0.0101 -2.6835
  562MOL0     H74172  10.946   2.286  11.444  2.2019 -1.1856  0.2918
  562MOL0     H74173  11.146   2.194  11.296  0.0294 -0.0482  0.6748
  562MOL0     H74174  11.082   2.166  10.834 -3.0441  0.9767  0.8865
  562MOL0     H74175  11.031   2.043  10.944 -0.4846  2.2281  3.8859
  562MOL0     H74176  11.264   1.945  10.948  3.6562 -0.7102 -2.0238
  562MOL0     H74177  11.182   1.963  10.799 -0.1190 -0.5380 -0.1183
  562MOL0     H74178  11.353   2.204  10.873  0.7911 -0.1375 -1.7425
  562MOL0     H74179  11.327   2.128  10.723 -0.2071  2.7440  0.0446
  562MOL0     H74180  11.555   2.096  10.815  1.4148 -1.7889 -2.1256
  562MOL0     H74181  11.485   2.025  10.957  3.7837  1.5579  0.1951
  562MOL0     H74182  11.503   1.705  10.689  0.5560  0.8270 -1.5721
  562MOL0     H74183  10.892   2.258  10.958  0.7119 -1.9749  0.4201
  562MOL0     H74184  10.721   2.314  11.086  2.8882  2.5808 -4.6976
  563MOL0     O74185  11.015   6.207   9.244 -0.2122  0.2109  0.0771
  563MOL0     C74186  11.022   6.312   9.187  0.5208  0.4428  0.2974
  563MOL0     O74187  11.137   6.386   9.174  0.2432  0.0684 -0.1125
  563MOL0     C74188  11.246   6.345   9.242  0.6055  0.2424  0.3638
  563MOL0     C74189  11.359   6.285   9.181 -0.1515 -0.4395  0.2576
  563MOL0     C74190  11.474   6.267   9.257 -0.7441  0.1354 -0.3419
  563MOL0     C74191  11.483   6.293   9.393 -0.4727  0.8755  0.0373
  563MOL0     O74192  11.595   6.272   9.467  0.0103  0.0711  0.3725
  563MOL0     C74193  11.700   6.175   9.433  0.0015 -0.0543  0.7886
  563MOL0     C74194  11.831   6.202   9.514  0.1709  1.0822  0.3568
  563MOL0     C74195  11.935   6.083   9.497 -0.2005 -0.7545 -0.6058
  563MOL0     C74196  12.080   6.127   9.535 -0.1635 -1.1062  0.1074
  563MOL0     C74197  12.184   6.044   9.461  0.7033 -0.5351  0.4013
  563MOL0     C74198  12.226   6.119   9.332  0.5118  0.7726 -0.1081
  563MOL0     C74199  12.322   6.025   9.251 -0.8913  0.6629  0.4531
  563MOL0     C74200  12.472   6.065   9.270  0.3272 -0.1380 -0.9319
  563MOL0     N74201  12.514   6.094   9.407  0.3035  0.9268  0.6178
  563MOL0     C74202  12.545   5.996   9.491 -0.3339  0.9000 -0.2026
  563MOL0     C74203  12.597   6.064   9.596 -0.8152  0.0644  0.5360
  563MOL0     C74204  12.668   6.006   9.714 -0.2077 -0.0532  0.4900
  563MOL0     C74205  12.570   5.967   9.819 -1.0400 -0.2383  0.6058
  563MOL0     C74206  12.462   6.079   9.833  1.5056  0.2192 -0.8001
  563MOL0     C74207  12.373   6.059   9.962 -0.4220  0.0332 -0.1555
  563MOL0     O74208  12.239   6.110   9.935 -0.3940 -0.4702  0.0095
  563MOL0     C74209  12.113   6.048   9.964 -0.3478  0.6701 -1.0182
  563MOL0     C74210  12.001   6.085   9.892 -0.4080 -0.2630 -0.2920
  563MOL0     C74211  11.875   6.024   9.904  0.1972  0.2103  0.2155
  563MOL0     C74212  11.860   5.927  10.008  0.2468 -0.2728  0.7307
  563MOL0     C74213  11.738   5.855  10.032 -0.0109 -0.7468 -0.4500
  563MOL0     O74214  11.622   5.920   9.999 -0.3889  0.2584 -0.4945
  563MOL0     C74215  11.496   5.862  10.017  0.1469  0.1110  1.2082
  563MOL0     C74216  11.454   5.760  10.110 -0.4356 -0.5373  0.1812
  563MOL0     C74217  11.328   5.701  10.100  0.1632  0.0237 -0.8630
  563MOL0     C74218  11.225   5.755  10.021 -0.3887 -0.8928 -0.0697
  563MOL0     O74219  11.096   5.715  10.028 -0.3066  0.4250 -0.2699
  563MOL0     C74220  11.054   5.586  10.081 -0.1858 -0.8303  0.9959
  563MOL0     C74221  10.920   5.554  10.010  0.2888 -0.3042 -0.1336
  563MOL0     C74222  10.955   5.498   9.866  0.2651 -0.5491 -0.9191
  563MOL0     C74223  10.820   5.489   9.796 -0.3089  2.1127  0.0890
  563MOL0     C74224  10.826   5.433   9.647 -1.1469  0.2987  0.8163
  563MOL0     C74225  10.888   5.281   9.628 -0.1136  0.5437 -0.8178
  563MOL0     C74226  10.810   5.166   9.699 -0.3546 -0.0660 -0.2069
  563MOL0     C74227  10.891   5.036   9.701  0.3021 -0.8197  0.1735
  563MOL0    Cl74228  10.906   4.973   9.531  0.2639  0.5965 -0.0117
  563MOL0     C74229  11.261   5.859   9.940  0.1718  0.1189 -0.1508
  563MOL0     C74230  11.401   5.906   9.925  0.1454 -0.2004  0.6094
  563MOL0     O74231  11.744   5.754  10.091  1.0467  0.2765 -0.7609
  563MOL0     C74232  11.971   5.889  10.084 -0.4502  0.7317  1.2579
  563MOL0     C74233  12.103   5.948  10.055  0.1730 -0.4116 -0.7531
  563MOL0     N74234  12.599   6.199   9.574 -0.9819  0.2203  0.2464
  563MOL0     N74235  12.537   6.216   9.461  0.6866  0.0028  0.0632
  563MOL0     C74236  11.370   6.343   9.457  0.1055  0.0359  1.1908
  563MOL0     C74237  11.254   6.370   9.376  0.2355  0.8011 -0.2005
  563MOL0     C74238  10.892   6.354   9.129 -0.9204 -0.1814  0.2894
  563MOL0     C74239  10.893   6.457   9.035  0.4424  0.1053  0.1252
  563MOL0     C74240  10.780   6.481   8.954 -0.0517  0.0441 -0.1791
  563MOL0     C74241  10.663   6.415   8.985  0.6554  0.5776 -0.1504
  563MOL0     O74242  10.559   6.447   8.903 -0.1891 -0.8207 -0.5149
  563MOL0     C74243  10.425   6.387   8.933 -0.4462 -0.6685  0.3686
  563MOL0     C74244  10.341   6.473   8.849 -0.4826  0.4581  0.7030
  563MOL0     C74245  10.196   6.474   8.889 -0.7543 -0.5614 -0.4043
  563MOL0     C74246  10.117   6.562   8.788 -0.0442  0.7616 -0.8470
  563MOL0     C74247   9.971   6.555   8.804 -0.2791 -0.3861  0.1167
  563MOL0     C74248   9.853   6.551   8.825 -0.5437  0.1710 -0.8048
  563MOL0     C74249  10.656   6.315   9.078  0.0390 -0.8118  0.0645
  563MOL0     C74250  10.768   6.289   9.153 -0.8065  0.8619  0.0898
  563MOL0     H74251  11.353   6.268   9.074 -1.0485  0.5589  0.1220
  563MOL0     H74252  11.560   6.223   9.207 -3.2076 -3.0608 -2.2002
  563MOL0     H74253  11.720   6.179   9.326  1.3748  3.3994  1.0385
  563MOL0     H74254  11.669   6.075   9.464  1.9356 -1.6782 -2.0854
  563MOL0     H74255  11.801   6.214   9.619 -2.2459  1.2182 -0.2975
  563MOL0     H74256  11.872   6.298   9.482 -3.0444  3.3109  2.2375
  563MOL0     H74257  11.938   6.047   9.394 -0.9691  1.3792 -1.4264
  563MOL0     H74258  11.905   5.996   9.557  0.0187 -0.0336  0.5847
  563MOL0     H74259  12.088   6.234   9.516  1.2976 -0.7984  2.2109
  563MOL0     H74260  12.090   6.116   9.643 -1.4482 -0.6087  0.2948
  563MOL0     H74261  12.140   5.945   9.445  0.1616 -0.6050  2.0787
  563MOL0     H74262  12.267   6.031   9.531  0.1472  1.9024  1.6181
  563MOL0     H74263  12.279   6.211   9.356  2.5588 -0.7223  1.3825
  563MOL0     H74264  12.136   6.131   9.271 -0.3707  0.4734  1.1168
  563MOL0     H74265  12.303   5.922   9.280 -1.7440  1.0038  1.1537
  563MOL0     H74266  12.300   6.048   9.146 -2.4480 -2.7391 -0.0816
  563MOL0     H74267  12.491   6.160   9.218  0.7630  0.6942  0.6679
  563MOL0     H74268  12.537   5.998   9.213  2.4738  0.3104  0.8460
  563MOL0     H74269  12.542   5.888   9.475 -1.7509  1.2059 -2.4028
  563MOL0     H74270  12.748   6.076   9.740 -0.8751  1.0747 -0.3771
  563MOL0     H74271  12.715   5.913   9.679 -2.2185 -0.6080 -0.9113
  563MOL0     H74272  12.629   5.947   9.909  0.5579 -3.1767 -0.9030
  563MOL0     H74273  12.521   5.876   9.783  0.8975 -0.9726 -0.3171
  563MOL0     H74274  12.524   6.168   9.851  0.3957  0.6694  1.1171
  563MOL0     H74275  12.400   6.095   9.745  0.5310  1.0057  0.0030
  563MOL0     H74276  12.413   6.097  10.056 -2.5329 -1.0465  1.2798
  563MOL0     H74277  12.359   5.955   9.992  3.4390  0.3995  3.8814
  563MOL0     H74278  12.022   6.162   9.818  2.2098  0.2128  0.8251
  563MOL0     H74279  11.795   6.070   9.847  1.5654  3.3248  0.5899
  563MOL0     H74280  11.529   5.733  10.183  0.7758 -1.5609 -1.3707
  563MOL0     H74281  11.301   5.627  10.174  1.5192  2.4277  2.2446
  563MOL0     H74282  11.054   5.579  10.190 -1.0406 -2.0276  0.9402
  563MOL0     H74283  11.137   5.520  10.051  1.8645  1.9819  0.1052
  563MOL0     H74284  10.859   5.642   9.992  0.7548 -0.3370 -2.0169
  563MOL0     H74285  10.862   5.479  10.066  1.3519  0.0353  1.4980
  563MOL0     H74286  11.010   5.406   9.888  3.1748  1.4242  0.6113
  563MOL0     H74287  11.015   5.571   9.811 -1.5466  0.1453 -2.0520
  563MOL0     H74288  10.754   5.424   9.854 -0.5080  3.0793  0.9708
  563MOL0     H74289  10.765   5.584   9.800 -5.0609 -0.3155  4.7130
  563MOL0     H74290  10.889   5.500   9.588 -2.6262  1.0327  0.0154
  563MOL0     H74291  10.725   5.438   9.606 -1.3772 -1.4995  1.1117
  563MOL0     H74292  10.990   5.284   9.667 -0.6080  1.5594  0.4444
  563MOL0     H74293  10.891   5.252   9.522  2.3198 -1.5613 -0.2912
  563MOL0     H74294  10.795   5.189   9.805  1.1696 -3.7901  1.0239
  563MOL0     H74295  10.715   5.146   9.650  0.3243 -4.0107 -0.2486
  563MOL0     H74296  10.844   4.962   9.767  2.1289 -0.7643  1.6253
  563MOL0     H74297  10.981   5.067   9.756  0.2618 -2.2103  1.0937
  563MOL0     H74298  11.184   5.905   9.879 -0.2415  1.7738  1.5391
  563MOL0     H74299  11.419   5.984   9.852  1.3844 -1.7464 -0.8167
  563MOL0     H74300  11.964   5.820  10.168 -3.5079 -0.1065  0.4394
  563MOL0     H74301  12.187   5.904  10.107 -1.0895 -1.6643  0.3349
  563MOL0     H74302  11.363   6.358   9.564 -1.5113  1.8724  0.8907
  563MOL0     H74303  11.165   6.408   9.423 -0.5976  0.6234 -1.5679
  563MOL0     H74304  10.976   6.516   8.999 -1.1696  3.6536  1.7023
  563MOL0     H74305  10.793   6.546   8.869  3.6981  0.0380  0.2468
  563MOL0     H74306  10.406   6.401   9.040 -1.9424 -3.3466  0.5400
  563MOL0     H74307  10.422   6.283   8.900  0.7258 -0.3386 -0.8412
  563MOL0     H74308  10.387   6.571   8.857  1.1004 -0.3148  1.4017
  563MOL0     H74309  10.348   6.447   8.743 -0.5553  0.9970  0.5635
  563MOL0     H74310  10.185   6.517   8.989  3.6639 -0.2876  0.1575
  563MOL0     H74311  10.161   6.370   8.891 -0.5312 -0.6492  2.1878
  563MOL0     H74312  10.141   6.667   8.803 -0.0758  1.1443 -3.0992
  563MOL0     H74313  10.148   6.528   8.689  1.7180 -1.1217  0.2451
  563MOL0     H74314   9.747   6.566   8.836 -0.2963  1.7243 -0.2820
  563MOL0     H74315  10.574   6.250   9.106 -0.2789  0.4374  2.2446
  563MOL0     H74316  10.748   6.208   9.223 -2.2491 -0.8513 -2.1635
  564MOL0     O74317   0.326   4.945   1.351  0.0010  0.0313  0.6911
  564MOL0     C74318   0.319   4.826   1.392  0.8040 -0.0467  0.8351
  564MOL0     O74319   0.405   4.725   1.361 -0.2039  0.2641  0.1595
  564MOL0     C74320   0.524   4.739   1.287  0.4646  0.0621  0.4099
  564MOL0     C74321   0.519   4.802   1.169  0.3623 -0.6774 -0.8717
  564MOL0     C74322   0.632   4.815   1.082  0.8139  0.0557 -0.2213
  564MOL0     C74323   0.752   4.768   1.121  0.7314  1.0131  0.1172
  564MOL0     O74324   0.872   4.791   1.055  0.2635 -0.3819  0.2570
  564MOL0     C74325   0.884   4.861   0.933 -0.0089  0.3312  0.6851
  564MOL0     C74326   1.039   4.854   0.892  0.5378  0.0126  0.5504
  564MOL0     C74327   1.136   4.936   0.987  0.1676 -0.2565 -0.4731
  564MOL0     C74328   1.166   4.891   1.130  0.2931  0.5749 -0.1093
  564MOL0     C74329   1.174   4.737   1.133  0.0325 -0.5263 -0.4588
  564MOL0     C74330   1.202   4.681   1.277 -0.0760 -0.0990 -0.9469
  564MOL0     C74331   1.233   4.532   1.289 -0.8301  0.6215 -0.9425
  564MOL0     C74332   1.105   4.445   1.304  0.6376  0.6716 -0.2693
  564MOL0     N74333   1.059   4.457   1.443 -0.4077 -0.2069 -0.9576
  564MOL0     C74334   1.081   4.381   1.557 -0.9710 -0.0741 -0.3574
  564MOL0     C74335   1.016   4.434   1.660 -0.6241 -0.0469  0.4222
  564MOL0     C74336   1.032   4.365   1.804 -0.7356 -0.3540  0.8267
  564MOL0     C74337   1.180   4.393   1.854  0.5241  0.2964 -0.1633
  564MOL0     C74338   1.207   4.298   1.974  0.1984 -0.5438  0.0395
  564MOL0     C74339   1.263   4.163   1.929  0.9424 -1.0160  0.1646
  564MOL0     O74340   1.325   4.101   2.050  1.1672 -0.1027  0.1134
  564MOL0     C74341   1.426   4.016   2.032 -0.3240 -0.1433  0.8787
  564MOL0     C74342   1.537   4.010   2.117 -0.0331  0.8089  0.3706
  564MOL0     C74343   1.635   3.921   2.096  0.1949 -0.5099 -0.5778
  564MOL0     C74344   1.630   3.824   1.991 -0.4790  0.4558  0.6592
  564MOL0     C74345   1.736   3.731   1.961  0.0186  0.3150  0.4871
  564MOL0     O74346   1.835   3.710   2.057  0.9119  0.8550  0.1266
  564MOL0     C74347   1.946   3.624   2.032 -0.3839 -0.9765  0.1401
  564MOL0     C74348   2.020   3.607   2.145 -0.0098 -0.4278  0.1281
  564MOL0     C74349   2.133   3.527   2.141 -0.4048  0.8731 -0.0360
  564MOL0     C74350   2.172   3.463   2.021  0.3660 -0.4095  0.2672
  564MOL0     O74351   2.282   3.367   2.016 -0.0695  0.5024 -0.2413
  564MOL0     C74352   2.404   3.424   2.082  0.4094 -0.5348  0.1465
  564MOL0     C74353   2.513   3.432   1.973 -0.2258 -0.5962  0.0703
  564MOL0     C74354   2.462   3.516   1.865  0.5683  0.9216 -0.1610
  564MOL0     C74355   2.566   3.578   1.770 -0.1429  0.4542  0.5378
  564MOL0     C74356   2.646   3.481   1.686 -0.8888 -0.1935 -0.1474
  564MOL0     C74357   2.763   3.531   1.611 -0.4519 -0.3897  1.3409
  564MOL0     C74358   2.825   3.435   1.510  0.2625 -0.2000  0.2615
  564MOL0     C74359   2.972   3.461   1.472  0.4201  0.4367  0.0102
  564MOL0    Cl74360   2.985   3.634   1.427 -0.1703  0.9427  0.4673
  564MOL0     C74361   2.106   3.493   1.901 -0.9501 -0.3306 -0.0305
  564MOL0     C74362   1.991   3.574   1.904 -0.9871  1.0541 -0.4959
  564MOL0     O74363   1.726   3.674   1.857 -1.1766  0.0530 -0.1423
  564MOL0     C74364   1.515   3.824   1.911  0.2117 -0.5511  0.6320
  564MOL0     C74365   1.418   3.924   1.925  0.3653  0.0297  0.0237
  564MOL0     N74366   0.946   4.543   1.610  0.3304  0.7364  0.5118
  564MOL0     N74367   0.978   4.560   1.486 -0.5208 -0.3266 -0.3160
  564MOL0     C74368   0.754   4.691   1.245  0.0380 -0.1965 -0.0289
  564MOL0     C74369   0.643   4.687   1.327 -0.4186 -0.0602 -0.2732
  564MOL0     C74370   0.211   4.786   1.480  0.1184 -0.6040 -0.2716
  564MOL0     C74371   0.211   4.660   1.540 -0.6363  0.4320  0.1839
  564MOL0     C74372   0.108   4.624   1.625 -0.3821 -0.9099 -0.9902
  564MOL0     C74373  -0.002   4.709   1.649 -0.1522  0.4548  0.2705
  564MOL0     O74374  -0.112   4.682   1.729 -0.4762 -0.2169  0.1053
  564MOL0     C74375  -0.142   4.542   1.765  0.0730 -0.4490  0.1242
  564MOL0     C74376  -0.291   4.522   1.792 -0.6468  0.4856 -0.5333
  564MOL0     C74377  -0.308   4.376   1.831 -0.2392 -0.3508  0.6983
  564MOL0     C74378  -0.455   4.325   1.868 -0.0711  0.8374  0.8809
  564MOL0     C74379  -0.548   4.333   1.758  0.1814 -0.3089 -0.2926
  564MOL0     C74380  -0.634   4.324   1.672 -1.5105  0.5085  0.2446
  564MOL0     C74381   0.001   4.833   1.586  0.3520 -0.4567  0.5568
  564MOL0     C74382   0.102   4.876   1.498  0.6424  0.4458 -0.0880
  564MOL0     H74383   0.422   4.846   1.152 -0.0290 -0.2090  2.0378
  564MOL0     H74384   0.629   4.857   0.982 -1.6308 -1.3083 -0.8044
  564MOL0     H74385   0.853   4.966   0.936 -1.7890 -0.0263 -1.7615
  564MOL0     H74386   0.823   4.814   0.855  1.4069 -2.6990  1.2669
  564MOL0     H74387   1.053   4.887   0.789  0.8604 -3.2469 -0.5742
  564MOL0     H74388   1.087   4.756   0.892  0.9920  0.2261  1.1875
  564MOL0     H74389   1.084   5.032   0.992  0.0641 -0.3540  0.4379
  564MOL0     H74390   1.236   4.950   0.944  0.5854 -1.0615  0.2069
  564MOL0     H74391   1.253   4.940   1.177  2.0889 -2.7474  0.3194
  564MOL0     H74392   1.079   4.921   1.189  1.3211  3.5985  0.0386
  564MOL0     H74393   1.257   4.711   1.067  2.0549 -1.2667  2.2202
  564MOL0     H74394   1.081   4.686   1.106 -0.3436 -0.4172  0.5778
  564MOL0     H74395   1.116   4.702   1.342  0.2598 -1.5445 -0.0097
  564MOL0     H74396   1.281   4.743   1.320  0.3735 -1.2347 -0.1138
  564MOL0     H74397   1.292   4.506   1.200  1.4754  1.6214  0.2177
  564MOL0     H74398   1.282   4.517   1.385  1.3131  0.8327 -1.9439
  564MOL0     H74399   1.124   4.338   1.288 -3.0888 -0.1662  0.0097
  564MOL0     H74400   1.027   4.463   1.230 -2.4805  0.9351  2.8007
  564MOL0     H74401   1.140   4.290   1.553  0.9949  1.1351 -0.1638
  564MOL0     H74402   1.012   4.258   1.807  2.1699 -0.9822  0.8859
  564MOL0     H74403   0.962   4.423   1.865 -0.4803  0.1815  0.6266
  564MOL0     H74404   1.191   4.498   1.883 -0.0390  0.4984 -0.6790
  564MOL0     H74405   1.249   4.364   1.774  1.1556 -0.5642  0.6666
  564MOL0     H74406   1.288   4.344   2.031 -1.6924  2.6709  0.3384
  564MOL0     H74407   1.124   4.288   2.044 -0.4818  1.1462 -0.4669
  564MOL0     H74408   1.326   4.171   1.841 -1.1931 -1.1680 -1.4667
  564MOL0     H74409   1.178   4.110   1.885  0.0966  1.5627 -1.4926
  564MOL0     H74410   1.559   4.080   2.196  4.0400  0.0430  0.1491
  564MOL0     H74411   1.718   3.931   2.166  0.9596  2.3223 -1.7243
  564MOL0     H74412   1.980   3.653   2.235 -3.0949 -0.3660 -1.1448
  564MOL0     H74413   2.179   3.511   2.239 -2.6127  3.7898  1.6528
  564MOL0     H74414   2.432   3.360   2.167 -0.5849 -0.9212  0.1972
  564MOL0     H74415   2.394   3.518   2.136 -2.7626  0.2468 -1.5712
  564MOL0     H74416   2.556   3.344   1.925  1.8245  1.5817 -2.4427
  564MOL0     H74417   2.604   3.481   2.010 -0.4270 -1.5611  1.9461
  564MOL0     H74418   2.409   3.598   1.913  0.8416 -0.3426  2.4525
  564MOL0     H74419   2.396   3.464   1.794  3.3924  1.1698 -3.1873
  564MOL0     H74420   2.506   3.645   1.708  1.7952  1.7919  0.0214
  564MOL0     H74421   2.640   3.641   1.819 -0.3698  0.6439  0.6349
  564MOL0     H74422   2.567   3.438   1.623 -0.8759  1.3589 -1.2685
  564MOL0     H74423   2.686   3.406   1.755 -0.4965  1.0890  1.0714
  564MOL0     H74424   2.835   3.553   1.690 -0.5314 -2.0375  1.9043
  564MOL0     H74425   2.738   3.621   1.553  1.1207 -0.6360  0.2062
  564MOL0     H74426   2.801   3.340   1.559 -3.8812 -0.1271 -1.1879
  564MOL0     H74427   2.767   3.434   1.417 -1.2770  1.4964  1.1426
  564MOL0     H74428   3.008   3.398   1.390 -0.5423  1.5524 -1.2967
  564MOL0     H74429   3.036   3.440   1.558  0.2858 -1.4796 -0.3116
  564MOL0     H74430   2.142   3.454   1.807  2.0541 -1.9803  1.6584
  564MOL0     H74431   1.948   3.601   1.808  1.1387 -1.1891 -2.2192
  564MOL0     H74432   1.492   3.752   1.833 -1.9332 -1.5611  2.1294
  564MOL0     H74433   1.334   3.933   1.858 -0.5682  0.2677  1.2022
  564MOL0     H74434   0.852   4.649   1.263  0.8706  1.7959  0.4096
  564MOL0     H74435   0.652   4.649   1.429 -0.8847  2.9629  1.0110
  564MOL0     H74436   0.296   4.594   1.530 -0.3052  0.5855  1.7330
  564MOL0     H74437   0.116   4.536   1.688  2.1004  1.5077  2.4817
  564MOL0     H74438  -0.086   4.512   1.853  0.7760  1.6162  0.4438
  564MOL0     H74439  -0.106   4.472   1.689  0.5811  0.1512 -0.2005
  564MOL0     H74440  -0.327   4.580   1.878  2.8449  1.3635  0.4870
  564MOL0     H74441  -0.352   4.529   1.702  0.4886 -1.4219 -1.5093
  564MOL0     H74442  -0.238   4.372   1.915  1.4673  0.8806 -0.5932
  564MOL0     H74443  -0.283   4.301   1.756 -6.0542 -0.4005 -1.6848
  564MOL0     H74444  -0.450   4.217   1.883 -0.9086  0.2373 -2.3256
  564MOL0     H74445  -0.508   4.382   1.944  1.9404  0.4407  2.6874
  564MOL0     H74446  -0.715   4.340   1.603  0.1909  5.0043 -1.0326
  564MOL0     H74447  -0.079   4.904   1.603  2.0991  1.4656  1.1568
  564MOL0     H74448   0.089   4.971   1.448  0.2738 -1.2707 -3.5034
  565MOL0     O74449   1.512   2.084   8.052 -0.5286  0.0064 -0.8947
  565MOL0     C74450   1.542   2.168   7.968  0.8207 -0.7198 -0.2048
  565MOL0     O74451   1.457   2.248   7.893  0.2936 -0.4736 -0.0375
  565MOL0     C74452   1.321   2.257   7.927 -0.0359  0.9213  0.3726
  565MOL0     C74453   1.234   2.146   7.955  0.3570 -1.0282 -0.5135
  565MOL0     C74454   1.103   2.164   7.972  0.0679  0.1931 -0.4651
  565MOL0     C74455   1.048   2.284   7.974  1.3022 -0.6966  0.3932
  565MOL0     O74456   0.917   2.294   7.991  0.3857  0.4250  0.3914
  565MOL0     C74457   0.847   2.410   7.932  0.8748  0.7317 -0.5422
  565MOL0     C74458   0.704   2.412   7.987  0.7691  0.2416  1.1086
  565MOL0     C74459   0.630   2.283   7.951 -0.5264 -0.3279  0.2784
  565MOL0     C74460   0.609   2.270   7.805 -0.0875  1.1276 -0.1902
  565MOL0     C74461   0.511   2.156   7.770 -0.7958 -0.8260 -0.1780
  565MOL0     C74462   0.528   2.085   7.632  0.7212 -0.6440 -0.2745
  565MOL0     C74463   0.458   1.938   7.632 -0.5848  0.0996 -0.1441
  565MOL0     C74464   0.496   1.855   7.514 -0.2857 -0.2331 -0.3610
  565MOL0     N74465   0.398   1.857   7.414  0.8560  0.4734 -0.0966
  565MOL0     C74466   0.268   1.809   7.418 -0.7550 -0.2078 -0.2758
  565MOL0     C74467   0.209   1.873   7.315  0.4111 -0.7233 -0.7249
  565MOL0     C74468   0.063   1.861   7.278 -0.2644 -0.4299 -0.7955
  565MOL0     C74469   0.057   1.772   7.159 -0.5384  0.4208  0.3457
  565MOL0     C74470   0.077   1.847   7.026  1.0141  0.4363  0.1073
  565MOL0     C74471   0.066   1.740   6.918 -0.2698 -0.0887 -0.1737
  565MOL0     O74472   0.136   1.798   6.809  0.3282  0.2581  0.3978
  565MOL0     C74473   0.123   1.735   6.682  0.0614 -0.8402  0.3618
  565MOL0     C74474   0.231   1.707   6.598  0.5579 -0.2154 -0.8045
  565MOL0     C74475   0.210   1.660   6.465  0.6724  0.6990 -0.1747
  565MOL0     C74476   0.075   1.633   6.417 -0.4753  0.9104 -0.3575
  565MOL0     C74477   0.044   1.564   6.287  0.7297 -0.6755 -0.3463
  565MOL0     O74478  -0.090   1.542   6.245  0.2520 -0.0686  0.6992
  565MOL0     C74479  -0.111   1.532   6.107 -0.2874  0.3845  0.0688
  565MOL0     C74480  -0.174   1.414   6.072 -0.5772 -0.1605  0.6933
  565MOL0     C74481  -0.225   1.397   5.946 -0.0632 -0.3049  0.6587
  565MOL0     C74482  -0.210   1.497   5.853  0.4123 -0.1663 -0.5096
  565MOL0     O74483  -0.257   1.467   5.723  0.3231 -0.0173 -0.2708
  565MOL0     C74484  -0.288   1.587   5.646  0.3704  0.2038  0.3109
  565MOL0     C74485  -0.398   1.550   5.545  0.3925 -0.0704  0.8890
  565MOL0     C74486  -0.435   1.682   5.464 -0.2361 -0.4251 -0.1440
  565MOL0     C74487  -0.589   1.666   5.426 -0.8131  0.9419 -0.1476
  565MOL0     C74488  -0.649   1.782   5.360 -0.1510 -0.1656 -0.1907
  565MOL0     C74489  -0.591   1.797   5.219  0.0328 -0.5215 -0.5157
  565MOL0     C74490  -0.667   1.901   5.134 -0.0463  0.0239  0.4244
  565MOL0     C74491  -0.634   2.049   5.162 -1.0180 -0.0141  0.1918
  565MOL0    Cl74492  -0.464   2.076   5.156  0.3336  0.4897 -0.5155
  565MOL0     C74493  -0.141   1.611   5.891  0.2667  0.0391 -0.9521
  565MOL0     C74494  -0.086   1.636   6.016 -0.8312 -0.4091  0.1733
  565MOL0     O74495   0.140   1.556   6.213  0.8392  0.2584 -1.1880
  565MOL0     C74496  -0.028   1.654   6.505  0.2013 -0.9694 -0.8365
  565MOL0     C74497  -0.009   1.708   6.634 -0.3017 -0.5132  0.1833
  565MOL0     N74498   0.292   1.959   7.250 -0.1638 -0.0042  0.3249
  565MOL0     N74499   0.404   1.954   7.318 -0.1617  0.3717  0.0110
  565MOL0     C74500   1.131   2.398   7.974 -0.3869  0.5283  0.8515
  565MOL0     C74501   1.262   2.380   7.940  0.2136 -0.1761  0.1301
  565MOL0     C74502   1.689   2.179   7.924 -0.5913  0.3580 -0.5834
  565MOL0     C74503   1.726   2.201   7.786 -0.6524 -0.1829  0.2806
  565MOL0     C74504   1.865   2.212   7.740 -0.2879 -0.6203  0.1622
  565MOL0     C74505   1.971   2.181   7.830  1.2333  0.0193 -0.5320
  565MOL0     O74506   2.097   2.187   7.785 -0.3652  0.7751 -0.6984
  565MOL0     C74507   2.206   2.152   7.866 -0.4107 -0.0894  0.4725
  565MOL0     C74508   2.349   2.157   7.789  0.2402 -0.2430 -0.6474
  565MOL0     C74509   2.351   2.070   7.660 -0.2879 -0.1967 -0.6484
  565MOL0     C74510   2.358   1.923   7.697 -0.3747  0.0343  0.0870
  565MOL0     C74511   2.487   1.889   7.758 -0.2907 -0.2733  0.0478
  565MOL0     C74512   2.594   1.865   7.817  0.0209  0.1067 -0.1118
  565MOL0     C74513   1.934   2.156   7.960 -0.3796 -0.9559 -1.1326
  565MOL0     C74514   1.798   2.153   8.009  0.0764 -0.4409  0.0117
  565MOL0     H74515   1.285   2.050   7.959  2.7686  0.2052  0.8360
  565MOL0     H74516   1.043   2.076   7.994  0.5658 -0.3957 -1.4251
  565MOL0     H74517   0.851   2.393   7.824  2.0203  2.8814 -0.8884
  565MOL0     H74518   0.897   2.505   7.954  1.6402 -0.0595  1.3760
  565MOL0     H74519   0.639   2.492   7.951  0.0163  0.3511  2.6247
  565MOL0     H74520   0.705   2.424   8.096  0.8712 -2.3151  1.4447
  565MOL0     H74521   0.533   2.285   8.001 -0.2405 -0.9123  0.8653
  565MOL0     H74522   0.682   2.197   7.993 -0.8247 -0.8767 -0.4423
  565MOL0     H74523   0.595   2.366   7.756  1.6039  0.4848 -2.0761
  565MOL0     H74524   0.705   2.225   7.778  0.3422  0.3217  2.3449
  565MOL0     H74525   0.410   2.193   7.791  0.6948  2.4748  1.9923
  565MOL0     H74526   0.538   2.083   7.846 -0.2515  0.8720  1.3307
  565MOL0     H74527   0.635   2.067   7.623  0.6536 -0.7690 -0.8758
  565MOL0     H74528   0.483   2.150   7.556 -1.8784 -1.3296  0.5717
  565MOL0     H74529   0.510   1.887   7.714  0.9338  0.4837 -0.8436
  565MOL0     H74530   0.350   1.944   7.646 -0.7176 -1.4077 -0.3683
  565MOL0     H74531   0.517   1.748   7.526 -0.6796 -0.4695 -1.6408
  565MOL0     H74532   0.586   1.891   7.462  0.7597 -0.7062  1.0609
  565MOL0     H74533   0.220   1.729   7.472 -3.0157  1.2474  0.0227
  565MOL0     H74534   0.033   1.965   7.262 -0.7633 -0.2531  1.1200
  565MOL0     H74535   0.003   1.825   7.362  0.0058 -0.5141 -0.6406
  565MOL0     H74536  -0.041   1.725   7.158  0.3942 -1.6256  0.2405
  565MOL0     H74537   0.134   1.695   7.166 -0.1437  0.9247  2.3321
  565MOL0     H74538  -0.011   1.912   7.015  0.2892 -0.4800  0.3606
  565MOL0     H74539   0.172   1.898   7.008  1.2069 -0.8577 -3.3906
  565MOL0     H74540  -0.039   1.724   6.890 -0.0397 -3.1534  0.3260
  565MOL0     H74541   0.114   1.650   6.957 -2.9802 -1.1876  0.8749
  565MOL0     H74542   0.331   1.729   6.634  1.0290 -0.5716 -1.8548
  565MOL0     H74543   0.291   1.637   6.397  1.4202 -0.4106  1.0703
  565MOL0     H74544  -0.196   1.333   6.141 -1.6131 -2.4219 -2.0813
  565MOL0     H74545  -0.279   1.308   5.914  4.1207 -2.4641 -1.2232
  565MOL0     H74546  -0.198   1.628   5.599  0.3461  0.4546  0.4794
  565MOL0     H74547  -0.331   1.667   5.708 -0.3261 -0.3737  0.5801
  565MOL0     H74548  -0.491   1.528   5.598 -1.0152  2.2534 -0.4135
  565MOL0     H74549  -0.371   1.468   5.478  0.2964 -1.0099  1.9809
  565MOL0     H74550  -0.374   1.712   5.378 -0.5290  4.6036  1.0997
  565MOL0     H74551  -0.429   1.773   5.523  2.0901  1.0730 -2.4949
  565MOL0     H74552  -0.597   1.578   5.362  0.7760  0.6100  0.0859
  565MOL0     H74553  -0.646   1.648   5.518 -3.0514 -0.7303 -1.7428
  565MOL0     H74554  -0.641   1.869   5.425  1.2070 -0.1554 -0.3609
  565MOL0     H74555  -0.755   1.756   5.349  0.0304 -2.0223  1.7858
  565MOL0     H74556  -0.592   1.702   5.165 -0.8048  0.4176 -2.2477
  565MOL0     H74557  -0.489   1.837   5.230 -1.1708  2.3680  1.2294
  565MOL0     H74558  -0.654   1.884   5.027 -2.3388  3.0769 -0.4907
  565MOL0     H74559  -0.777   1.904   5.135 -0.2926 -2.9185 -2.4904
  565MOL0     H74560  -0.672   2.071   5.262  2.8617  0.8449  1.6830
  565MOL0     H74561  -0.685   2.105   5.083  0.5039 -0.9068 -1.4931
  565MOL0     H74562  -0.113   1.689   5.820 -0.2233  0.1118 -1.0694
  565MOL0     H74563  -0.032   1.720   6.058 -0.5115 -0.8902  0.7409
  565MOL0     H74564  -0.131   1.626   6.482 -0.1107  1.8116 -3.6281
  565MOL0     H74565  -0.100   1.733   6.686 -1.9029 -1.2426 -2.0988
  565MOL0     H74566   1.096   2.500   7.981  1.7811  1.4271 -0.4089
  565MOL0     H74567   1.327   2.464   7.919  2.6848 -2.0978 -0.3266
  565MOL0     H74568   1.644   2.227   7.719  1.0188  3.4563 -0.5854
  565MOL0     H74569   1.899   2.230   7.638  1.1484 -5.6688 -0.5126
  565MOL0     H74570   2.180   2.054   7.907 -1.3191  0.0617  0.2845
  565MOL0     H74571   2.212   2.227   7.945 -0.1309  0.3370  0.0525
  565MOL0     H74572   2.375   2.261   7.770 -3.1484  0.2425 -3.7116
  565MOL0     H74573   2.425   2.115   7.856 -1.2519 -2.9149 -0.4627
  565MOL0     H74574   2.436   2.098   7.596  0.0153  0.0049 -0.1587
  565MOL0     H74575   2.259   2.082   7.602  0.1774  1.0378 -1.1550
  565MOL0     H74576   2.280   1.899   7.769  0.0416  1.2983  0.9988
  565MOL0     H74577   2.346   1.858   7.610  0.2022 -1.8318  1.3614
  565MOL0     H74578   2.693   1.862   7.858 -0.4035 -1.0802  0.8585
  565MOL0     H74579   2.007   2.140   8.039 -2.6976 -0.3227  1.2835
  565MOL0     H74580   1.777   2.137   8.115 -3.1169 -2.5738 -0.7765
  566MOL0     O74581   7.314   7.491   6.081  0.0673 -0.6349  0.0953
  566MOL0     C74582   7.257   7.448   5.980 -0.0864  0.1834 -0.8078
  566MOL0     O74583   7.127   7.404   5.980  0.5452 -0.0167  0.4891
  566MOL0     C74584   7.051   7.393   6.087 -0.2920  0.3496  0.1164
  566MOL0     C74585   6.947   7.495   6.098 -0.1611 -0.9351 -0.5429
  566MOL0     C74586   6.880   7.510   6.221  0.7991 -0.0740  0.1265
  566MOL0     C74587   6.919   7.440   6.335  0.3909  0.6370 -0.5000
  566MOL0     O74588   6.865   7.472   6.461 -0.6705  0.3420 -0.9996
  566MOL0     C74589   6.800   7.595   6.472 -0.0119 -0.8138 -0.4550
  566MOL0     C74590   6.769   7.636   6.619  0.0683  0.6621  1.1299
  566MOL0     C74591   6.677   7.536   6.687  0.0955  0.3402 -0.2992
  566MOL0     C74592   6.703   7.546   6.839 -0.1774  0.1268 -0.0365
  566MOL0     C74593   6.686   7.406   6.912 -1.2229  0.2275 -0.7558
  566MOL0     C74594   6.545   7.343   6.898  0.2273  1.0057  0.5370
  566MOL0     C74595   6.540   7.217   6.984  0.2982 -0.8745  0.4051
  566MOL0     C74596   6.407   7.144   6.980 -0.4896 -0.5912 -0.4579
  566MOL0     N74597   6.317   7.236   7.053 -1.1618  0.0644  0.0734
  566MOL0     C74598   6.306   7.266   7.184 -0.7439 -0.7955 -0.2533
  566MOL0     C74599   6.221   7.373   7.184  0.5403  0.0498 -0.3877
  566MOL0     C74600   6.181   7.450   7.306 -0.1107 -0.0413  0.0782
  566MOL0     C74601   6.235   7.596   7.308  0.8135  0.8596  0.4796
  566MOL0     C74602   6.380   7.610   7.362  0.2757 -0.1206 -0.1918
  566MOL0     C74603   6.389   7.620   7.514 -0.1175  0.4499 -1.1346
  566MOL0     O74604   6.532   7.654   7.545 -0.6681 -0.7032  1.0996
  566MOL0     C74605   6.579   7.683   7.664  0.4940  0.4838 -0.0399
  566MOL0     C74606   6.533   7.612   7.775  0.7875  0.2741 -0.7212
  566MOL0     C74607   6.582   7.645   7.893 -0.7165 -0.7403  0.1782
  566MOL0     C74608   6.705   7.722   7.907  0.7109  0.3365 -0.5685
  566MOL0     C74609   6.751   7.766   8.039  0.1434  0.7705 -0.6891
  566MOL0     O74610   6.854   7.853   8.036 -0.1001 -0.8547 -0.0023
  566MOL0     C74611   6.909   7.899   8.157  0.0179  0.7948  0.4964
  566MOL0     C74612   7.052   7.904   8.169 -0.9486 -0.1340 -0.2546
  566MOL0     C74613   7.110   7.942   8.289  0.0930 -0.4028 -1.4204
  566MOL0     C74614   7.032   7.988   8.397 -0.3245 -0.8972  0.0723
  566MOL0     O74615   7.099   8.034   8.509 -0.3551  0.0626 -0.2895
  566MOL0     C74616   7.029   8.051   8.632 -0.7129  0.0368  0.1872
  566MOL0     C74617   7.124   8.136   8.723 -0.3343  0.6612 -0.3957
  566MOL0     C74618   7.100   8.107   8.872  0.1054  0.6668  0.0253
  566MOL0     C74619   6.974   8.177   8.927 -0.0047  0.5768  0.2818
  566MOL0     C74620   6.993   8.330   8.951  0.0332  0.0324 -0.0364
  566MOL0     C74621   6.856   8.387   8.994 -0.3184  0.2383 -0.5437
  566MOL0     C74622   6.779   8.456   8.876  0.3751 -0.8070 -0.1112
  566MOL0     C74623   6.658   8.525   8.943 -0.2028 -0.0092 -0.6648
  566MOL0    Cl74624   6.709   8.663   9.050 -0.5575 -0.7510  0.4825
  566MOL0     C74625   6.890   7.974   8.397 -0.1123 -1.0807 -0.2330
  566MOL0     C74626   6.831   7.931   8.273  0.0218 -0.7864  1.2453
  566MOL0     O74627   6.707   7.708   8.141 -0.1433  0.7652  0.3221
  566MOL0     C74628   6.758   7.779   7.788 -0.8396  0.8300 -0.5676
  566MOL0     C74629   6.696   7.757   7.671 -0.1782  0.0442 -0.1881
  566MOL0     N74630   6.195   7.420   7.060 -0.6134  0.2408  0.6228
  566MOL0     N74631   6.242   7.326   6.983  0.0433  0.4508  0.4897
  566MOL0     C74632   7.011   7.339   6.320 -0.0370  1.1548 -0.3300
  566MOL0     C74633   7.082   7.321   6.199 -0.2257  0.6392 -0.6425
  566MOL0     C74634   7.335   7.446   5.854 -0.9739  0.3028 -0.5899
  566MOL0     C74635   7.471   7.487   5.853 -0.7279  0.1647 -1.1611
  566MOL0     C74636   7.555   7.475   5.742  0.3788 -0.3440  0.0357
  566MOL0     C74637   7.504   7.427   5.624  0.5390  0.0297 -0.2840
  566MOL0     O74638   7.599   7.402   5.525  0.1556  0.0414 -0.1806
  566MOL0     C74639   7.555   7.402   5.386  0.3480  0.9351  0.4342
  566MOL0     C74640   7.552   7.255   5.330  0.3538  0.0299 -0.0021
  566MOL0     C74641   7.693   7.201   5.299  0.4975  0.3820 -0.9025
  566MOL0     C74642   7.663   7.054   5.266  0.5984  0.3959  0.1029
  566MOL0     C74643   7.776   6.994   5.194  0.0882  0.4853 -0.1706
  566MOL0     C74644   7.867   6.968   5.120 -0.0813 -0.4768  0.0472
  566MOL0     C74645   7.365   7.388   5.615 -0.0076  0.2917 -0.0187
  566MOL0     C74646   7.281   7.403   5.727  0.5475 -0.0394  0.2341
  566MOL0     H74647   6.909   7.551   6.013 -0.2460 -1.6320 -0.9702
  566MOL0     H74648   6.801   7.584   6.225 -0.9501 -1.6562 -2.2346
  566MOL0     H74649   6.709   7.594   6.411 -0.4855 -0.2254  0.2356
  566MOL0     H74650   6.864   7.677   6.437 -1.9182 -0.7608 -4.4511
  566MOL0     H74651   6.728   7.738   6.617  0.8937  1.0457  2.5066
  566MOL0     H74652   6.861   7.645   6.678  0.0989  1.5287  0.9702
  566MOL0     H74653   6.712   7.435   6.662  1.0861  0.2331  1.3986
  566MOL0     H74654   6.570   7.552   6.671  0.0290  1.8984  1.4797
  566MOL0     H74655   6.788   7.605   6.874 -1.4324  1.1928  1.3772
  566MOL0     H74656   6.628   7.605   6.894  3.4521  2.2973  3.0758
  566MOL0     H74657   6.709   7.424   7.017  1.4733 -2.3671 -0.7684
  566MOL0     H74658   6.762   7.335   6.878 -2.0575 -0.1543 -1.8685
  566MOL0     H74659   6.533   7.315   6.792  2.5604 -0.5586  0.5869
  566MOL0     H74660   6.477   7.424   6.922 -0.9315 -0.0363  0.8408
  566MOL0     H74661   6.616   7.154   6.937  1.5401  1.4790 -0.9482
  566MOL0     H74662   6.567   7.240   7.087 -0.2689 -0.1188  0.3986
  566MOL0     H74663   6.422   7.047   7.028 -0.6523 -0.6249 -0.4749
  566MOL0     H74664   6.369   7.144   6.878 -1.7509  4.0747 -0.2062
  566MOL0     H74665   6.351   7.206   7.262  2.0706  2.9446  1.2556
  566MOL0     H74666   6.223   7.399   7.393  1.7926 -1.6666 -1.6943
  566MOL0     H74667   6.072   7.450   7.315 -0.1532  1.2052 -0.2401
  566MOL0     H74668   6.166   7.656   7.368  1.8990  2.3437  0.3255
  566MOL0     H74669   6.224   7.634   7.206 -1.0444  3.0044  1.3917
  566MOL0     H74670   6.446   7.532   7.323 -1.5278 -1.6567 -0.3313
  566MOL0     H74671   6.421   7.705   7.326  2.4271  0.3267  3.0682
  566MOL0     H74672   6.363   7.524   7.560 -3.6701  1.4475 -0.8009
  566MOL0     H74673   6.309   7.684   7.552 -0.4540 -0.9414  0.6624
  566MOL0     H74674   6.444   7.551   7.785  0.5930  0.9081  2.2978
  566MOL0     H74675   6.554   7.603   7.989  1.0935  2.1678  2.1473
  566MOL0     H74676   7.098   7.874   8.075 -1.6914 -2.9361  0.1999
  566MOL0     H74677   7.219   7.948   8.290  0.2633 -1.2325  2.8764
  566MOL0     H74678   7.010   7.953   8.677 -1.6436  0.3898  0.5781
  566MOL0     H74679   6.936   8.105   8.614 -2.3506 -2.3916  0.9285
  566MOL0     H74680   7.108   8.239   8.691 -3.0047  0.6344  0.6020
  566MOL0     H74681   7.230   8.113   8.706  0.6565  0.9855  3.9232
  566MOL0     H74682   7.183   8.145   8.933 -0.7565 -1.1756  2.4812
  566MOL0     H74683   7.084   8.000   8.884 -1.4385  0.5587 -2.2900
  566MOL0     H74684   6.886   8.148   8.869  1.5884 -1.4282 -1.2748
  566MOL0     H74685   6.961   8.137   9.028 -1.1699 -0.9561 -0.4414
  566MOL0     H74686   7.031   8.377   8.859  0.7620 -1.9595 -0.8066
  566MOL0     H74687   7.070   8.339   9.029  1.1127 -2.1200 -0.7887
  566MOL0     H74688   6.858   8.453   9.081 -0.2058 -1.1554  0.5574
  566MOL0     H74689   6.799   8.299   9.025 -0.7151  0.8142  0.3930
  566MOL0     H74690   6.836   8.526   8.815 -1.9000  0.4869 -0.8474
  566MOL0     H74691   6.733   8.372   8.823 -5.0614  0.1838  2.3412
  566MOL0     H74692   6.600   8.464   9.013  0.9249  1.2541  1.4762
  566MOL0     H74693   6.595   8.556   8.860  1.6489  2.1850 -1.3480
  566MOL0     H74694   6.832   7.985   8.488 -0.2479  0.1205 -0.4374
  566MOL0     H74695   6.723   7.933   8.272 -0.2090 -1.3616  5.7117
  566MOL0     H74696   6.840   7.848   7.806  0.8488 -1.4302  1.0267
  566MOL0     H74697   6.738   7.801   7.581 -2.9307 -1.8486 -2.6420
  566MOL0     H74698   7.046   7.278   6.403  1.1738  2.3268  0.0616
  566MOL0     H74699   7.164   7.250   6.195  0.9649  1.9824 -0.9585
  566MOL0     H74700   7.523   7.519   5.943  1.9848 -2.3542 -1.6717
  566MOL0     H74701   7.656   7.514   5.748 -0.8585  2.9673  1.4321
  566MOL0     H74702   7.620   7.457   5.318 -2.6824  3.1236 -0.9562
  566MOL0     H74703   7.455   7.441   5.365 -0.4032 -0.8268  0.5646
  566MOL0     H74704   7.506   7.192   5.407 -0.3472  0.6178  0.0684
  566MOL0     H74705   7.496   7.265   5.237  1.0509 -0.0004 -0.4357
  566MOL0     H74706   7.757   7.221   5.385 -2.2057  1.4296  0.9827
  566MOL0     H74707   7.750   7.241   5.214  2.7998 -1.4543 -0.3333
  566MOL0     H74708   7.652   7.006   5.364  0.6514  2.4500  1.1605
  566MOL0     H74709   7.571   7.041   5.210  0.1998  2.1343  0.3176
  566MOL0     H74710   7.930   6.954   5.034 -0.9440  1.1695 -0.9072
  566MOL0     H74711   7.311   7.344   5.532  1.0740 -2.6556  0.7195
  566MOL0     H74712   7.178   7.369   5.734  1.0464 -1.2928  2.9525
  567MOL0     O74713   6.270   1.666   4.881  0.6243  0.1997  0.0356
  567MOL0     C74714   6.292   1.770   4.812  0.8243  0.8879 -0.0575
  567MOL0     O74715   6.202   1.878   4.809 -0.2532  0.9026  0.7413
  567MOL0     C74716   6.082   1.857   4.872  0.3585  0.2022  0.0479
  567MOL0     C74717   5.993   1.761   4.841  0.3339  0.4218 -0.2437
  567MOL0     C74718   5.876   1.748   4.911 -0.5580  0.9683  0.5349
  567MOL0     C74719   5.843   1.838   5.020  0.2896 -0.7407  0.2080
  567MOL0     O74720   5.731   1.846   5.097 -0.1974 -1.0319  0.0091
  567MOL0     C74721   5.696   1.729   5.181 -0.2300  0.2475  0.1785
  567MOL0     C74722   5.580   1.647   5.125 -0.8182 -0.6155 -1.5718
  567MOL0     C74723   5.519   1.544   5.215 -0.0058  0.0267  0.5394
  567MOL0     C74724   5.605   1.440   5.282  0.5094  1.0415  0.2121
  567MOL0     C74725   5.685   1.366   5.165  0.1253  0.4989 -0.8079
  567MOL0     C74726   5.737   1.228   5.205 -1.0472 -0.6561 -0.0765
  567MOL0     C74727   5.831   1.240   5.327 -1.0626 -0.1886  0.0138
  567MOL0     C74728   5.800   1.156   5.447  0.8914 -0.5331 -0.6419
  567MOL0     N74729   5.672   1.199   5.513 -0.7866 -0.5580  0.5608
  567MOL0     C74730   5.656   1.299   5.612 -0.3435  1.3395 -0.1065
  567MOL0     C74731   5.527   1.329   5.611 -0.5211 -0.0531 -0.7577
  567MOL0     C74732   5.457   1.434   5.689  0.1482 -0.5272 -0.0572
  567MOL0     C74733   5.378   1.536   5.611  0.0404 -0.5884 -0.2848
  567MOL0     C74734   5.309   1.634   5.705 -0.0333 -0.5803 -0.0514
  567MOL0     C74735   5.296   1.774   5.639 -1.2994 -0.1894 -0.2010
  567MOL0     O74736   5.229   1.777   5.515 -0.3939 -0.0034 -0.0097
  567MOL0     C74737   5.103   1.819   5.507 -0.2688 -0.1103  0.3898
  567MOL0     C74738   5.065   1.907   5.398  0.7305  1.7225 -0.2283
  567MOL0     C74739   4.930   1.948   5.392 -0.2051  0.6081 -0.2409
  567MOL0     C74740   4.834   1.925   5.492  0.6055  0.0250  0.1780
  567MOL0     C74741   4.700   1.968   5.482 -0.1174 -0.4647 -1.1011
  567MOL0     O74742   4.612   1.903   5.561 -0.4710  0.1158 -0.3314
  567MOL0     C74743   4.487   1.957   5.564  1.1748 -0.4981  0.2132
  567MOL0     C74744   4.459   2.056   5.659 -0.8875 -0.1897  0.3010
  567MOL0     C74745   4.331   2.106   5.672  0.0971 -0.0163  0.1651
  567MOL0     C74746   4.223   2.041   5.604  0.0810  0.0552  0.0172
  567MOL0     O74747   4.097   2.091   5.589  0.2260 -0.2987  0.6261
  567MOL0     C74748   4.048   2.209   5.654 -0.4441 -0.0568  0.0680
  567MOL0     C74749   3.922   2.254   5.599  0.5068 -1.7436 -0.2184
  567MOL0     C74750   3.852   2.363   5.679 -0.2865 -0.4800  0.3268
  567MOL0     C74751   3.699   2.364   5.654  0.7886 -0.1305  0.0928
  567MOL0     C74752   3.628   2.490   5.717  0.2631  0.6301  0.2126
  567MOL0     C74753   3.488   2.525   5.685  0.4258 -1.3251 -0.1927
  567MOL0     C74754   3.458   2.524   5.538  0.2316 -0.2518  0.2716
  567MOL0     C74755   3.316   2.566   5.511  0.3841  0.2024 -0.0268
  567MOL0    Cl74756   3.209   2.426   5.499  0.0571 -0.4518 -0.0037
  567MOL0     C74757   4.250   1.922   5.525 -1.0621 -1.3065  0.1603
  567MOL0     C74758   4.383   1.893   5.493 -0.0054 -0.0292 -0.3307
  567MOL0     O74759   4.672   2.053   5.405 -0.3517 -0.2033 -0.2128
  567MOL0     C74760   4.880   1.855   5.601  0.4198  0.2537  0.3047
  567MOL0     C74761   5.009   1.808   5.614 -0.7745 -0.0443  0.6173
  567MOL0     N74762   5.468   1.218   5.546 -0.7357 -0.4427 -0.4578
  567MOL0     N74763   5.553   1.159   5.462 -0.2101 -0.4489 -1.1590
  567MOL0     C74764   5.941   1.937   5.048 -0.0299 -0.2368  0.0352
  567MOL0     C74765   6.050   1.953   4.968  0.3516 -0.3961 -0.3855
  567MOL0     C74766   6.418   1.782   4.746 -0.2167  0.5700  0.1627
  567MOL0     C74767   6.484   1.673   4.685 -0.6523  0.0308 -0.4498
  567MOL0     C74768   6.603   1.690   4.621 -0.2988 -0.7061  0.0886
  567MOL0     C74769   6.654   1.824   4.607  0.2145  0.6312  0.4775
  567MOL0     O74770   6.769   1.836   4.518  0.3740  0.3945  0.1056
  567MOL0     C74771   6.878   1.930   4.545  0.2438 -0.0624  0.1827
  567MOL0     C74772   6.989   1.851   4.627  0.2622  0.0654  0.4315
  567MOL0     C74773   7.128   1.925   4.656  0.7515 -0.5048  0.3366
  567MOL0     C74774   7.230   1.826   4.723 -0.2885 -0.7979 -0.6059
  567MOL0     C74775   7.208   1.804   4.867  0.9774  0.5968  0.8144
  567MOL0     C74776   7.192   1.797   4.990 -0.3892 -0.0048 -0.0528
  567MOL0     C74777   6.586   1.930   4.669 -0.9733  0.4953 -0.3627
  567MOL0     C74778   6.469   1.915   4.734 -0.0277  0.0048  0.4322
  567MOL0     H74779   6.027   1.692   4.765  3.1486  2.6524 -1.1641
  567MOL0     H74780   5.812   1.666   4.879  0.3769 -0.1510  1.4744
  567MOL0     H74781   5.679   1.748   5.287 -3.3901  0.3189 -0.2496
  567MOL0     H74782   5.779   1.657   5.185 -2.4511 -2.4247  1.1709
  567MOL0     H74783   5.620   1.608   5.031  2.0970  0.8919 -1.0596
  567MOL0     H74784   5.488   1.705   5.116  0.5107  2.0170  0.4459
  567MOL0     H74785   5.442   1.493   5.156 -0.3591  0.6915  0.4137
  567MOL0     H74786   5.460   1.598   5.290 -2.2872 -0.3172 -0.9292
  567MOL0     H74787   5.668   1.485   5.359  1.9479 -3.0014  1.6054
  567MOL0     H74788   5.535   1.369   5.327  1.4654 -0.2322 -0.2591
  567MOL0     H74789   5.764   1.439   5.141 -0.0735  1.5191  1.3926
  567MOL0     H74790   5.615   1.351   5.083 -1.4714  3.5324 -0.1468
  567MOL0     H74791   5.798   1.186   5.124 -1.2299 -1.7073  0.3178
  567MOL0     H74792   5.659   1.154   5.223 -1.6624 -0.7047 -2.5271
  567MOL0     H74793   5.926   1.202   5.291  0.4841  0.2631  3.2473
  567MOL0     H74794   5.842   1.344   5.360 -1.7769 -0.0814 -0.0668
  567MOL0     H74795   5.872   1.173   5.528 -2.2051  0.8016  2.0131
  567MOL0     H74796   5.798   1.048   5.427 -0.4228 -0.8273  0.9253
  567MOL0     H74797   5.733   1.358   5.660  1.9765 -0.7305 -1.0576
  567MOL0     H74798   5.531   1.498   5.738  0.3472  0.7889 -1.9394
  567MOL0     H74799   5.385   1.383   5.754 -2.4589  5.4927  2.6219
  567MOL0     H74800   5.303   1.484   5.551  0.2447 -0.1844 -0.9021
  567MOL0     H74801   5.447   1.582   5.540 -0.2230  0.0289 -0.1500
  567MOL0     H74802   5.211   1.598   5.736  0.9655 -3.0173  0.5776
  567MOL0     H74803   5.375   1.650   5.791 -1.0372  0.5181  0.5441
  567MOL0     H74804   5.400   1.791   5.608 -1.0391  0.4737  0.9571
  567MOL0     H74805   5.259   1.850   5.709  0.2952 -0.0985  0.6037
  567MOL0     H74806   5.145   1.934   5.329  2.0972 -0.8152  0.2135
  567MOL0     H74807   4.892   1.995   5.302 -4.6774 -1.4854  0.2783
  567MOL0     H74808   4.540   2.118   5.699  0.4782 -0.2675 -2.1642
  567MOL0     H74809   4.319   2.196   5.732  1.8550 -0.4880  1.3016
  567MOL0     H74810   4.127   2.283   5.643 -0.4447 -0.1496 -0.6249
  567MOL0     H74811   4.033   2.186   5.760 -0.1538  0.5563  0.2420
  567MOL0     H74812   3.852   2.170   5.592 -0.2956 -1.0873 -0.2288
  567MOL0     H74813   3.935   2.301   5.501 -5.7924  0.9003 -0.2725
  567MOL0     H74814   3.887   2.461   5.646 -1.4196 -0.2186 -0.1281
  567MOL0     H74815   3.863   2.352   5.788 -2.7915 -1.2492  0.5593
  567MOL0     H74816   3.687   2.368   5.545  0.8183 -0.4986  0.0759
  567MOL0     H74817   3.657   2.270   5.693  2.0319 -0.0563  1.7132
  567MOL0     H74818   3.691   2.579   5.704  1.0032  0.0623 -0.1999
  567MOL0     H74819   3.637   2.467   5.823 -1.3266 -0.4918  0.1292
  567MOL0     H74820   3.456   2.622   5.725  1.0185 -2.6133  3.7833
  567MOL0     H74821   3.418   2.455   5.731 -0.5914 -0.3480 -0.2041
  567MOL0     H74822   3.529   2.593   5.491  0.5360 -1.4114 -1.0342
  567MOL0     H74823   3.475   2.431   5.484 -0.3427 -1.1579  1.6066
  567MOL0     H74824   3.315   2.605   5.409 -0.7371  0.0192 -0.0939
  567MOL0     H74825   3.277   2.634   5.587 -3.2477 -1.8194  0.1329
  567MOL0     H74826   4.166   1.860   5.496 -0.0258 -2.4243 -0.5696
  567MOL0     H74827   4.407   1.811   5.426 -0.2252  0.3258 -0.8511
  567MOL0     H74828   4.827   1.845   5.694 -1.9325  2.0327 -0.7345
  567MOL0     H74829   5.031   1.755   5.706 -1.3761 -1.5485 -0.0717
  567MOL0     H74830   5.922   2.003   5.132 -2.8049 -0.2621 -0.4988
  567MOL0     H74831   6.120   2.035   4.984 -0.0433 -0.1515  0.1518
  567MOL0     H74832   6.451   1.570   4.698 -3.3603  0.5355 -2.4760
  567MOL0     H74833   6.658   1.606   4.579 -2.1399 -1.1804 -1.5230
  567MOL0     H74834   6.841   2.017   4.600  1.1724  0.0645  0.6164
  567MOL0     H74835   6.916   1.967   4.449  1.1378 -1.6043 -0.0847
  567MOL0     H74836   6.952   1.808   4.720  2.3551 -4.9809 -0.7016
  567MOL0     H74837   7.030   1.774   4.560 -1.3687 -0.8443  0.4348
  567MOL0     H74838   7.113   2.018   4.711  2.7929  0.4516 -0.6057
  567MOL0     H74839   7.177   1.954   4.562 -0.1268 -0.0938 -0.0017
  567MOL0     H74840   7.226   1.730   4.672 -1.8388 -1.1365  0.0887
  567MOL0     H74841   7.335   1.854   4.714  0.5935 -3.8824 -1.0409
  567MOL0     H74842   7.193   1.792   5.097 -3.1556 -1.0782  0.0097
  567MOL0     H74843   6.627   2.030   4.659 -2.2131  1.5682  3.3878
  567MOL0     H74844   6.403   1.992   4.776  0.1882 -0.4468  1.6532
  568MOL0     O74845   6.433   1.512   2.331 -0.2520  0.6251 -0.2490
  568MOL0     C74846   6.421   1.393   2.357  1.0644  0.1307 -0.3277
  568MOL0     O74847   6.379   1.343   2.476  0.4543  0.4326 -0.0727
  568MOL0     C74848   6.304   1.418   2.563  1.0547  0.0255  0.5422
  568MOL0     C74849   6.345   1.542   2.617  0.1295 -0.3801  0.5632
  568MOL0     C74850   6.268   1.605   2.706 -0.2664 -0.3323  0.2547
  568MOL0     C74851   6.154   1.542   2.757  0.1969 -0.2074  0.6993
  568MOL0     O74852   6.077   1.597   2.855  0.4292 -0.0364  0.4303
  568MOL0     C74853   6.142   1.677   2.944  0.0464 -0.3942 -0.5861
  568MOL0     C74854   6.097   1.655   3.088 -0.4748  0.7373  0.2616
  568MOL0     C74855   6.143   1.520   3.158 -0.4105 -0.2092  0.1244
  568MOL0     C74856   6.112   1.514   3.310 -0.4312  0.6749 -0.1435
  568MOL0     C74857   6.157   1.383   3.367  0.4334  0.0957 -0.2409
  568MOL0     C74858   6.303   1.352   3.349  0.3157  0.1089  0.8413
  568MOL0     C74859   6.395   1.455   3.406  0.4477 -0.4588 -0.5309
  568MOL0     C74860   6.365   1.488   3.549 -0.6355  0.5862 -1.1115
  568MOL0     N74861   6.382   1.360   3.628 -0.9718  0.0663 -0.2876
  568MOL0     C74862   6.493   1.273   3.628  0.1598  0.1485  0.0799
  568MOL0     C74863   6.446   1.153   3.689  0.8038 -0.2298 -0.2645
  568MOL0     C74864   6.515   1.030   3.712  0.1326 -0.1040 -0.8285
  568MOL0     C74865   6.422   0.907   3.692 -0.0932  0.7315 -0.1046
  568MOL0     C74866   6.490   0.782   3.740  0.6273 -0.4439  0.0314
  568MOL0     C74867   6.408   0.655   3.753  0.1638 -0.2458 -0.3667
  568MOL0     O74868   6.494   0.575   3.828 -0.6867 -0.4311  0.4307
  568MOL0     C74869   6.462   0.441   3.835 -0.8328  0.2360  0.0974
  568MOL0     C74870   6.562   0.358   3.876 -0.1816  0.8021 -0.1699
  568MOL0     C74871   6.537   0.222   3.894 -1.0722  0.3218 -0.4054
  568MOL0     C74872   6.425   0.164   3.854  0.2232 -0.4770  0.1483
  568MOL0     C74873   6.398   0.020   3.860  0.7460  1.1664  0.9862
  568MOL0     O74874   6.315  -0.024   3.767  0.4024 -0.3620  1.0381
  568MOL0     C74875   6.295  -0.157   3.763 -0.1213 -1.3289 -0.3731
  568MOL0     C74876   6.193  -0.225   3.828 -0.6593  0.3773 -0.1124
  568MOL0     C74877   6.179  -0.360   3.804  0.4142  0.1740  0.2401
  568MOL0     C74878   6.257  -0.436   3.715  0.1797 -0.7293  0.2125
  568MOL0     O74879   6.219  -0.563   3.674 -0.2385  0.2447 -0.2790
  568MOL0     C74880   6.150  -0.655   3.760 -0.3441  0.5261  1.1760
  568MOL0     C74881   6.126  -0.769   3.655  0.6587  0.2609  0.5066
  568MOL0     C74882   6.037  -0.886   3.700 -1.0612  0.0039  0.2326
  568MOL0     C74883   5.897  -0.854   3.747  0.9852  0.0342 -0.5574
  568MOL0     C74884   5.808  -0.990   3.773  0.1944  0.5022 -0.4579
  568MOL0     C74885   5.778  -1.077   3.658  0.3137  0.2829 -0.2298
  568MOL0     C74886   5.670  -1.181   3.681 -0.4923 -0.2822 -0.5907
  568MOL0     C74887   5.535  -1.120   3.660  0.5208  0.5121 -0.8145
  568MOL0    Cl74888   5.406  -1.215   3.729 -0.1322 -0.3721 -0.0131
  568MOL0     C74889   6.365  -0.367   3.665 -0.1914  0.0245  0.5927
  568MOL0     C74890   6.382  -0.227   3.691 -0.2927 -0.7619 -0.4447
  568MOL0     O74891   6.455  -0.043   3.950 -0.1543 -0.4741 -0.0178
  568MOL0     C74892   6.323   0.252   3.796  0.3664  0.1450  0.3736
  568MOL0     C74893   6.345   0.383   3.786 -0.0134  0.3645  0.5940
  568MOL0     N74894   6.306   1.177   3.715 -0.1719 -0.1532 -0.1505
  568MOL0     N74895   6.281   1.299   3.691 -0.3538  0.4018 -0.0758
  568MOL0     C74896   6.105   1.423   2.701  0.5563  0.3757  0.3744
  568MOL0     C74897   6.184   1.358   2.607 -0.4621 -0.1657 -0.6468
  568MOL0     C74898   6.453   1.305   2.235  0.8247  0.7131  1.1223
  568MOL0     C74899   6.459   1.349   2.098 -1.4299  1.1646 -0.7126
  568MOL0     C74900   6.505   1.260   1.998  0.5444  0.1738  0.1178
  568MOL0     C74901   6.525   1.124   2.025  0.0541  0.7709  0.0052
  568MOL0     O74902   6.574   1.043   1.922 -0.0002  0.3590  0.8890
  568MOL0     C74903   6.574   0.898   1.938  0.4481 -0.5686  0.5840
  568MOL0     C74904   6.606   0.806   1.822 -0.5373 -0.3765  0.8825
  568MOL0     C74905   6.754   0.827   1.779 -0.0026 -0.0674  0.2598
  568MOL0     C74906   6.782   0.744   1.655 -1.1951 -0.2453 -0.8354
  568MOL0     C74907   6.736   0.799   1.530 -0.3013 -0.1033  0.8021
  568MOL0     C74908   6.684   0.848   1.434 -0.3212  0.6227 -0.2339
  568MOL0     C74909   6.506   1.081   2.159 -0.8858 -0.2629  0.2970
  568MOL0     C74910   6.477   1.166   2.260  0.1894 -0.7562 -0.0328
  568MOL0     H74911   6.443   1.581   2.589 -0.8570  3.9307  2.2506
  568MOL0     H74912   6.298   1.703   2.743  1.9890 -1.5106  1.7503
  568MOL0     H74913   6.130   1.780   2.909  0.9571  0.1321  0.5687
  568MOL0     H74914   6.247   1.648   2.951  0.8986  2.5599  0.4422
  568MOL0     H74915   5.988   1.657   3.090 -0.5013  3.9487  0.4198
  568MOL0     H74916   6.137   1.737   3.148  0.6188 -0.3084  1.0272
  568MOL0     H74917   6.251   1.519   3.139 -0.4112 -0.1713  0.1195
  568MOL0     H74918   6.097   1.434   3.108  0.6747 -0.5238 -0.3645
  568MOL0     H74919   6.160   1.593   3.368  1.6615 -4.2487  5.8253
  568MOL0     H74920   6.004   1.524   3.324 -0.3223  1.0102  0.4682
  568MOL0     H74921   6.094   1.307   3.320  0.7334  0.5483 -1.4103
  568MOL0     H74922   6.141   1.381   3.475  4.4108  2.6755  0.6149
  568MOL0     H74923   6.315   1.353   3.240 -3.8763  1.8234  0.1808
  568MOL0     H74924   6.324   1.253   3.390  0.4383  0.8767  2.7419
  568MOL0     H74925   6.501   1.429   3.412 -0.0871 -3.3580 -1.8739
  568MOL0     H74926   6.378   1.548   3.351 -1.4255  0.5449  1.5874
  568MOL0     H74927   6.263   1.528   3.562 -0.2769  0.8741  1.2389
  568MOL0     H74928   6.432   1.561   3.595 -1.8290  0.4074  1.0303
  568MOL0     H74929   6.588   1.285   3.577 -1.2114 -2.2458 -3.4440
  568MOL0     H74930   6.556   1.028   3.814 -0.4940 -0.2599 -0.5770
  568MOL0     H74931   6.594   1.025   3.636 -0.2696 -0.8114 -1.2082
  568MOL0     H74932   6.389   0.880   3.592 -1.2621 -2.5338  1.0516
  568MOL0     H74933   6.327   0.914   3.746 -1.8397 -2.4162 -2.4433
  568MOL0     H74934   6.562   0.753   3.663 -0.5155 -1.9242 -0.5266
  568MOL0     H74935   6.543   0.800   3.834  2.3474 -1.9284 -0.5977
  568MOL0     H74936   6.375   0.614   3.657 -3.0268 -0.5334  0.7597
  568MOL0     H74937   6.325   0.675   3.821  1.4800 -0.4403  1.3660
  568MOL0     H74938   6.663   0.391   3.899 -1.1414  3.4385  0.5521
  568MOL0     H74939   6.613   0.156   3.936 -1.8362  0.5831  1.4758
  568MOL0     H74940   6.121  -0.167   3.885 -0.1903  0.8109  0.0463
  568MOL0     H74941   6.089  -0.407   3.844  0.4837  0.3560  0.6169
  568MOL0     H74942   6.054  -0.617   3.795 -2.3937 -1.5320 -1.6990
  568MOL0     H74943   6.216  -0.683   3.843 -1.5178 -0.0519  1.9275
  568MOL0     H74944   6.223  -0.805   3.621  1.0020  2.1570 -0.7006
  568MOL0     H74945   6.084  -0.716   3.569 -1.5766  1.8305  2.4142
  568MOL0     H74946   6.096  -0.939   3.775  0.7965  1.7819  0.1261
  568MOL0     H74947   6.021  -0.960   3.621  2.1235 -0.8711  0.2560
  568MOL0     H74948   5.910  -0.808   3.845 -2.0815 -0.0353 -0.0184
  568MOL0     H74949   5.836  -0.793   3.680 -1.0778 -0.2828  0.9378
  568MOL0     H74950   5.716  -0.960   3.824 -0.2509 -2.8876  1.0266
  568MOL0     H74951   5.845  -1.062   3.847  0.0303  0.6082 -0.2714
  568MOL0     H74952   5.865  -1.133   3.622  0.4714 -1.1751  2.2393
  568MOL0     H74953   5.742  -1.006   3.582  0.8801  3.8890  2.5942
  568MOL0     H74954   5.687  -1.266   3.613 -0.4783 -1.5020  0.8820
  568MOL0     H74955   5.673  -1.215   3.785 -2.9726  0.6987 -0.1163
  568MOL0     H74956   5.519  -1.101   3.553 -1.0705 -1.0727 -0.9047
  568MOL0     H74957   5.538  -1.027   3.716  3.1831 -0.6351  1.1510
  568MOL0     H74958   6.430  -0.421   3.596 -0.2212  3.2813 -2.2416
  568MOL0     H74959   6.455  -0.162   3.645 -0.0022 -0.4613  0.4180
  568MOL0     H74960   6.233   0.208   3.753  0.7765  1.6137 -2.2285
  568MOL0     H74961   6.271   0.450   3.742  1.9821  1.1550 -1.7852
  568MOL0     H74962   6.017   1.365   2.729  2.0060 -1.5851  1.0879
  568MOL0     H74963   6.161   1.261   2.564 -0.6421 -1.3394  1.8874
  568MOL0     H74964   6.435   1.453   2.077  1.9200  2.0807 -0.6449
  568MOL0     H74965   6.514   1.304   1.899 -0.4262 -2.7882 -1.4035
  568MOL0     H74966   6.474   0.870   1.971 -0.0077  0.3292  0.0082
  568MOL0     H74967   6.639   0.881   2.024 -1.5466 -2.1195  1.8748
  568MOL0     H74968   6.583   0.700   1.834 -0.9120 -0.3363  0.5459
  568MOL0     H74969   6.539   0.846   1.746 -0.6064  2.5925  2.3288
  568MOL0     H74970   6.799   0.782   1.869 -4.4801 -0.5307  2.5616
  568MOL0     H74971   6.790   0.931   1.779  0.5098 -0.2390 -0.0353
  568MOL0     H74972   6.890   0.736   1.642 -1.0255  0.7846 -0.1985
  568MOL0     H74973   6.750   0.640   1.665  0.4280 -0.7513 -0.5289
  568MOL0     H74974   6.625   0.895   1.358  0.9221  0.7704 -1.1333
  568MOL0     H74975   6.514   0.981   2.199 -1.6179  0.6896  3.0230
  568MOL0     H74976   6.481   1.137   2.365  1.3466  0.9582  0.4355
  569MOL0     O74977   2.726  11.320   1.039  0.4264 -0.1497 -0.1395
  569MOL0     C74978   2.796  11.418   1.009 -0.0109 -0.0164  0.7037
  569MOL0     O74979   2.749  11.540   0.967 -0.2951 -0.0593  0.6382
  569MOL0     C74980   2.617  11.548   0.930  0.0599 -0.1266  0.2122
  569MOL0     C74981   2.575  11.505   0.800  0.6346  0.2843 -0.1784
  569MOL0     C74982   2.437  11.517   0.764 -0.4006  0.1324  0.6774
  569MOL0     C74983   2.350  11.589   0.852  0.9183  0.1603 -0.1838
  569MOL0     O74984   2.220  11.610   0.818  0.0349  0.4327  0.2040
  569MOL0     C74985   2.130  11.557   0.913  0.9097  0.3604  0.2452
  569MOL0     C74986   1.991  11.524   0.848  1.0403 -0.0348  0.3158
  569MOL0     C74987   1.928  11.636   0.773 -0.2401  0.1614  0.3174
  569MOL0     C74988   1.796  11.582   0.703 -1.0692  0.2101 -0.5470
  569MOL0     C74989   1.730  11.684   0.616  0.2665  0.6471  0.5062
  569MOL0     C74990   1.582  11.625   0.581 -0.4938  1.1251  0.1756
  569MOL0     C74991   1.528  11.707   0.467  0.8594  0.3726  0.3069
  569MOL0     C74992   1.437  11.623   0.376  0.5606  0.3010 -0.1064
  569MOL0     N74993   1.503  11.527   0.281 -0.4783  0.1021 -0.6282
  569MOL0     C74994   1.512  11.561   0.152 -1.0854 -0.0088 -0.4519
  569MOL0     C74995   1.569  11.451   0.092 -0.5310  0.5509  0.2183
  569MOL0     C74996   1.624  11.439  -0.055  0.7351 -0.3841  0.1859
  569MOL0     C74997   1.520  11.510  -0.152 -0.1875 -0.2883  0.5047
  569MOL0     C74998   1.571  11.521  -0.294 -0.5326  0.4452  0.8532
  569MOL0     C74999   1.462  11.587  -0.389 -0.1034 -0.8306  0.4564
  569MOL0     O75000   1.392  11.693  -0.327  0.3835 -0.2394  0.5499
  569MOL0     C75001   1.277  11.742  -0.395 -0.7205  0.6710  0.4551
  569MOL0     C75002   1.249  11.700  -0.523  0.0676 -0.0609 -0.0986
  569MOL0     C75003   1.146  11.758  -0.595 -0.6933  0.5072  0.8838
  569MOL0     C75004   1.062  11.844  -0.536 -0.0663 -0.6155 -0.1356
  569MOL0     C75005   0.940  11.902  -0.602  0.6942 -0.0576 -0.6191
  569MOL0     O75006   0.847  11.970  -0.514 -1.3305  0.2351  0.2209
  569MOL0     C75007   0.743  12.038  -0.575  0.3711  0.6231  0.2379
  569MOL0     C75008   0.614  11.995  -0.547  0.3930 -0.6374 -0.4783
  569MOL0     C75009   0.502  12.055  -0.604 -0.3670 -0.3554 -0.1042
  569MOL0     C75010   0.518  12.172  -0.678 -0.5223 -0.2435  0.9576
  569MOL0     O75011   0.399  12.218  -0.727 -0.4503  0.4742  0.4303
  569MOL0     C75012   0.405  12.288  -0.850  0.0654  0.1142  0.7403
  569MOL0     C75013   0.268  12.278  -0.909  0.5799  1.0548 -0.8554
  569MOL0     C75014   0.265  12.357  -1.033  0.0680 -0.3825  0.1678
  569MOL0     C75015   0.116  12.363  -1.087 -0.9201  0.5155  1.1594
  569MOL0     C75016   0.119  12.452  -1.216 -0.7251 -0.3394 -0.8021
  569MOL0     C75017   0.090  12.601  -1.178  0.7042 -0.6442  0.1085
  569MOL0     C75018   0.068  12.684  -1.308 -0.7989  0.1588  0.7455
  569MOL0     C75019   0.021  12.826  -1.296 -0.2202 -0.0659  0.6975
  569MOL0    Cl75020   0.129  12.933  -1.212 -0.1972  0.2438  0.2423
  569MOL0     C75021   0.653  12.215  -0.714  0.8668 -0.5067 -0.3855
  569MOL0     C75022   0.767  12.148  -0.664  0.7495  0.0208 -0.2393
  569MOL0     O75023   0.936  11.909  -0.728 -0.9853 -0.7305 -0.0617
  569MOL0     C75024   1.079  11.877  -0.396  0.4233  0.3647  0.2397
  569MOL0     C75025   1.185  11.830  -0.328 -0.4280  1.0510  0.6961
  569MOL0     N75026   1.586  11.357   0.195  0.2678 -0.1437 -0.0909
  569MOL0     N75027   1.543  11.404   0.310  0.2560  0.1626  0.3033
  569MOL0     C75028   2.391  11.641   0.975  0.0711  0.2018  0.0535
  569MOL0     C75029   2.518  11.612   1.016  0.2618  0.7021 -0.0608
  569MOL0     C75030   2.942  11.417   1.042  0.4092 -0.1687 -0.2789
  569MOL0     C75031   3.007  11.522   1.101 -0.3050 -0.6034  0.1007
  569MOL0     C75032   3.143  11.517   1.132 -0.6880  0.8012 -0.5326
  569MOL0     C75033   3.220  11.397   1.109  0.2411  0.9232 -0.5508
  569MOL0     O75034   3.363  11.396   1.125  0.3504 -0.2342  0.8986
  569MOL0     C75035   3.432  11.278   1.114  1.0776 -0.3766 -0.4879
  569MOL0     C75036   3.572  11.307   1.163  1.3663  0.0927  0.4036
  569MOL0     C75037   3.669  11.224   1.086  0.5054  1.1428  1.0452
  569MOL0     C75038   3.797  11.196   1.172  0.7222 -0.0737  0.1578
  569MOL0     C75039   3.880  11.103   1.087 -0.2668  0.0808 -0.0793
  569MOL0     C75040   3.952  11.025   1.031 -0.3480  0.1617  0.7452
  569MOL0     C75041   3.157  11.285   1.058  0.8988 -0.2947  0.6162
  569MOL0     C75042   3.018  11.299   1.024 -0.1861 -0.0643 -0.3863
  569MOL0     H75043   2.636  11.473   0.716 -1.3322  1.2625 -2.0810
  569MOL0     H75044   2.412  11.495   0.660  1.0074 -0.6181  0.4714
  569MOL0     H75045   2.112  11.630   0.992 -0.4525  0.1381  0.1724
  569MOL0     H75046   2.169  11.467   0.962  0.8004 -0.3344 -0.8941
  569MOL0     H75047   1.925  11.498   0.931  2.2977 -1.4758  0.9312
  569MOL0     H75048   2.004  11.445   0.772  3.0466  0.9659 -0.4422
  569MOL0     H75049   1.997  11.668   0.693 -1.7689 -2.2139 -2.1242
  569MOL0     H75050   1.914  11.719   0.843 -2.6988  2.4786 -2.6130
  569MOL0     H75051   1.816  11.485   0.658 -1.2520 -0.4142  0.6808
  569MOL0     H75052   1.726  11.557   0.783 -1.6120  0.0703 -1.0556
  569MOL0     H75053   1.793  11.699   0.528  3.1082 -0.3727  2.2445
  569MOL0     H75054   1.734  11.777   0.673  0.6082  1.0691 -0.1936
  569MOL0     H75055   1.514  11.636   0.666  0.7835 -2.3422  1.8599
  569MOL0     H75056   1.585  11.520   0.549 -0.2363  1.2800 -0.3139
  569MOL0     H75057   1.468  11.786   0.512 -1.0292  0.9733 -2.9007
  569MOL0     H75058   1.606  11.748   0.401  2.1401 -1.6497  0.4549
  569MOL0     H75059   1.368  11.682   0.315 -0.2902 -2.2525 -1.7812
  569MOL0     H75060   1.374  11.560   0.440 -2.0169  0.5346 -2.2591
  569MOL0     H75061   1.481  11.657   0.114  1.0242  0.3853 -1.3543
  569MOL0     H75062   1.630  11.333  -0.080 -3.4514 -0.9978  1.0668
  569MOL0     H75063   1.719  11.493  -0.055  0.7636 -0.3386  2.4725
  569MOL0     H75064   1.510  11.616  -0.125 -1.6588  0.1897 -1.6977
  569MOL0     H75065   1.427  11.455  -0.138 -0.6079  0.8145  2.4169
  569MOL0     H75066   1.644  11.602  -0.301  1.1573 -1.1310 -3.2386
  569MOL0     H75067   1.595  11.422  -0.334  0.0796  1.0762 -0.4059
  569MOL0     H75068   1.378  11.522  -0.414  0.8936 -1.7221 -0.6620
  569MOL0     H75069   1.499  11.629  -0.483 -1.8822  0.3810  0.2527
  569MOL0     H75070   1.308  11.631  -0.582 -1.3914 -0.5509 -1.0434
  569MOL0     H75071   1.124  11.738  -0.699  3.3089 -3.7418  0.4894
  569MOL0     H75072   0.599  11.908  -0.485 -0.2163 -0.7598 -0.7918
  569MOL0     H75073   0.409  12.011  -0.569 -2.5281  3.5569 -0.3076
  569MOL0     H75074   0.475  12.238  -0.918  1.5494  0.9281  1.6047
  569MOL0     H75075   0.430  12.394  -0.835  3.5344 -0.4333 -0.1590
  569MOL0     H75076   0.194  12.314  -0.836 -0.5280 -4.8579  1.4984
  569MOL0     H75077   0.249  12.173  -0.931  1.3790  0.5108  0.9559
  569MOL0     H75078   0.329  12.304  -1.104 -1.3409 -3.5837  1.0807
  569MOL0     H75079   0.312  12.455  -1.025  3.0421 -1.7974  1.4898
  569MOL0     H75080   0.091  12.259  -1.109  1.1656  0.1615  0.1914
  569MOL0     H75081   0.056  12.418  -1.014 -2.6761  1.6871 -1.0351
  569MOL0     H75082   0.039  12.419  -1.283 -0.1010 -1.0262 -1.2292
  569MOL0     H75083   0.214  12.456  -1.271 -0.4940  1.4122 -0.3316
  569MOL0     H75084   0.177  12.636  -1.120  1.1009 -2.6870  0.8580
  569MOL0     H75085   0.005  12.616  -1.111  0.5544 -3.8951  0.8205
  569MOL0     H75086   0.163  12.683  -1.361 -1.4312  3.2688 -0.6585
  569MOL0     H75087  -0.002  12.630  -1.373  0.2943 -0.7677  0.3107
  569MOL0     H75088  -0.070  12.829  -1.235 -0.0829 -0.9380  0.9564
  569MOL0     H75089   0.005  12.846  -1.402  1.2504  0.1979  0.5039
  569MOL0     H75090   0.661  12.301  -0.779  0.0851 -0.7549 -0.8331
  569MOL0     H75091   0.868  12.182  -0.686 -0.4341  4.5432  0.3291
  569MOL0     H75092   1.014  11.947  -0.345 -1.0755 -0.0759 -0.9839
  569MOL0     H75093   1.189  11.865  -0.226 -0.5009  0.3231  0.9499
  569MOL0     H75094   2.310  11.698   1.019 -0.2479 -0.7747  0.7665
  569MOL0     H75095   2.551  11.649   1.113 -1.2240  2.0043 -0.0172
  569MOL0     H75096   2.967  11.623   1.104  0.3387 -0.2409 -1.8709
  569MOL0     H75097   3.198  11.603   1.170  0.4407 -0.4511  0.8110
  569MOL0     H75098   3.433  11.258   1.006 -0.3703 -0.3446 -0.5311
  569MOL0     H75099   3.384  11.194   1.166 -0.1076  0.2566 -0.5227
  569MOL0     H75100   3.597  11.410   1.135  0.3515 -0.5167 -3.2893
  569MOL0     H75101   3.579  11.296   1.271  0.3857  1.8575  0.6794
  569MOL0     H75102   3.695  11.263   0.987  4.4962  1.1427  1.9050
  569MOL0     H75103   3.634  11.122   1.068  0.7618  1.2488 -0.1098
  569MOL0     H75104   3.850  11.288   1.199 -0.8498  1.0559 -0.4214
  569MOL0     H75105   3.766  11.151   1.267  0.0455  0.7849  0.3491
  569MOL0     H75106   4.019  10.948   0.999  1.3229  1.8787 -0.1007
  569MOL0     H75107   3.210  11.197   1.023  1.4357 -0.4160  1.6734
  569MOL0     H75108   2.968  11.216   0.975  0.4893  1.7153 -4.4541
  570MOL0     O75109   1.839   9.300  11.221 -0.1817  0.5376 -0.8080
  570MOL0     C75110   1.734   9.368  11.193 -0.0038  0.1809 -0.3570
  570MOL0     O75111   1.605   9.326  11.190  0.1005  0.0163  0.5775
  570MOL0     C75112   1.561   9.195  11.200 -0.5899  0.6288  0.2149
  570MOL0     C75113   1.422   9.191  11.235  0.1870  0.2646 -1.1281
  570MOL0     C75114   1.361   9.064  11.237  0.7374 -0.5438  0.1015
  570MOL0     C75115   1.423   8.949  11.200 -0.7238 -0.3348 -0.9200
  570MOL0     O75116   1.347   8.837  11.190  0.3593  0.0633 -0.1384
  570MOL0     C75117   1.392   8.725  11.111  0.4518 -1.0250 -0.0556
  570MOL0     C75118   1.271   8.628  11.111  0.3475  0.5169 -0.9709
  570MOL0     C75119   1.289   8.505  11.021  0.1890 -0.8823  0.6676
  570MOL0     C75120   1.297   8.532  10.871 -0.1555 -0.9393 -0.1672
  570MOL0     C75121   1.440   8.560  10.820 -0.0915 -0.6958  0.2193
  570MOL0     C75122   1.444   8.586  10.671  0.2910  0.2777 -0.3889
  570MOL0     C75123   1.587   8.589  10.620 -0.0006  0.2849  0.1737
  570MOL0     C75124   1.606   8.601  10.456 -0.2297 -0.3655 -0.2030
  570MOL0     N75125   1.517   8.702  10.395  0.0314  0.5260  0.3667
  570MOL0     C75126   1.451   8.692  10.274  0.7034 -0.6296 -0.0785
  570MOL0     C75127   1.380   8.810  10.256  0.4848 -0.7399  0.4784
  570MOL0     C75128   1.294   8.863  10.139 -0.1151 -0.5197 -0.0108
  570MOL0     C75129   1.389   8.911  10.020  0.1589  0.3915  0.1596
  570MOL0     C75130   1.300   8.948   9.902 -0.3235 -0.8339 -1.1811
  570MOL0     C75131   1.360   8.975   9.765 -0.8047 -0.6258  0.3468
  570MOL0     O75132   1.436   8.863   9.715  0.1274  0.7455 -0.0717
  570MOL0     C75133   1.543   8.901   9.635  0.6748 -0.7048 -0.2011
  570MOL0     C75134   1.662   8.915   9.699 -0.3718  0.2258  0.6343
  570MOL0     C75135   1.773   8.970   9.623  1.5808 -0.2920 -0.1983
  570MOL0     C75136   1.751   8.994   9.487 -0.8532 -0.1061  0.2925
  570MOL0     C75137   1.859   9.044   9.391  0.0587  0.4175  0.0163
  570MOL0     O75138   1.836   9.063   9.262  0.5656 -0.5017  0.5797
  570MOL0     C75139   1.932   9.136   9.192 -0.6367  0.2707  0.1974
  570MOL0     C75140   2.073   9.095   9.178  0.2107  0.3301 -0.4323
  570MOL0     C75141   2.161   9.173   9.112  0.7397 -1.5338  0.8962
  570MOL0     C75142   2.110   9.291   9.045  1.0532 -0.5566  0.1071
  570MOL0     O75143   2.188   9.375   8.965  0.6070 -0.0363 -0.7203
  570MOL0     C75144   2.329   9.390   8.990 -1.0321  1.0671  0.9696
  570MOL0     C75145   2.379   9.491   8.887 -0.6091 -0.6621  0.2662
  570MOL0     C75146   2.525   9.531   8.921  0.0692 -0.8101  0.1114
  570MOL0     C75147   2.564   9.636   8.809 -0.8753  0.3690  0.0472
  570MOL0     C75148   2.718   9.658   8.815  0.2995  0.2294  0.1252
  570MOL0     C75149   2.777   9.772   8.734 -0.0547 -0.1243 -0.1750
  570MOL0     C75150   2.928   9.762   8.701  0.1810 -0.0346  0.3259
  570MOL0     C75151   3.021   9.764   8.819 -0.2748 -0.4467 -0.3442
  570MOL0    Cl75152   3.021   9.916   8.922 -0.1051 -0.4548 -0.0105
  570MOL0     C75153   1.976   9.330   9.062 -0.7291  0.4654 -1.2099
  570MOL0     C75154   1.895   9.260   9.143  0.6585  0.3994 -0.2520
  570MOL0     O75155   1.968   9.069   9.446 -0.1374 -0.3536  0.9061
  570MOL0     C75156   1.622   8.984   9.420 -0.9780  0.1655 -0.0648
  570MOL0     C75157   1.521   8.933   9.497 -0.1972  1.2016 -0.1148
  570MOL0     N75158   1.393   8.886  10.368 -0.4132 -0.0026  0.7525
  570MOL0     N75159   1.479   8.819  10.451  0.5735  0.4078  0.6723
  570MOL0     C75160   1.557   8.952  11.170  0.1267 -0.7422  0.1017
  570MOL0     C75161   1.634   9.076  11.167  0.1737 -0.3889 -0.5522
  570MOL0     C75162   1.754   9.516  11.179  0.5053 -0.7863 -0.3866
  570MOL0     C75163   1.882   9.563  11.148  0.6377 -0.4700 -0.3433
  570MOL0     C75164   1.915   9.699  11.131  0.4999 -0.0149  1.2386
  570MOL0     C75165   1.808   9.788  11.145  0.2181 -0.3337 -0.2195
  570MOL0     O75166   1.826   9.925  11.152  0.2582 -0.3028 -0.3484
  570MOL0     C75167   1.938   9.969  11.075 -0.8621 -0.0242  0.2889
  570MOL0     C75168   1.938  10.120  11.070  0.7082 -0.1645 -0.1353
  570MOL0     C75169   2.034  10.165  10.953 -0.1623 -0.3331 -0.6720
  570MOL0     C75170   2.068  10.315  10.979  0.1382 -0.4959  0.2827
  570MOL0     C75171   2.141  10.355  10.860  0.4007 -1.1415 -0.0540
  570MOL0     C75172   2.199  10.399  10.765 -0.1697 -0.0835 -0.0711
  570MOL0     C75173   1.678   9.745  11.170  0.5653 -0.1258  0.1199
  570MOL0     C75174   1.645   9.609  11.182  0.3081  0.4909 -0.5582
  570MOL0     H75175   1.378   9.286  11.261 -1.1558 -0.7953  0.7252
  570MOL0     H75176   1.254   9.051  11.246  0.7999 -0.1064  1.8674
  570MOL0     H75177   1.480   8.686  11.163  0.4873 -0.1247  0.5863
  570MOL0     H75178   1.419   8.753  11.009 -0.5669  1.8014  0.3677
  570MOL0     H75179   1.183   8.678  11.069  0.2693  0.8054 -0.4605
  570MOL0     H75180   1.247   8.596  11.212 -1.3406 -4.5811 -2.6714
  570MOL0     H75181   1.193   8.454  11.029 -0.0521 -0.1773  3.0256
  570MOL0     H75182   1.362   8.433  11.060  0.1229 -0.9242  0.7120
  570MOL0     H75183   1.247   8.450  10.819 -1.2577 -0.4995  0.1797
  570MOL0     H75184   1.246   8.625  10.844  0.0754 -0.1333  1.9789
  570MOL0     H75185   1.514   8.480  10.834  1.0872  0.2600 -0.4132
  570MOL0     H75186   1.483   8.650  10.862 -0.3651 -0.8760  0.9019
  570MOL0     H75187   1.389   8.679  10.652 -0.9035 -0.2217  0.4529
  570MOL0     H75188   1.381   8.515  10.617 -0.2696  1.5980 -1.5513
  570MOL0     H75189   1.637   8.679  10.658  2.3920 -0.8796 -0.0064
  570MOL0     H75190   1.638   8.501  10.660  3.1102  0.2088 -3.4294
  570MOL0     H75191   1.580   8.502  10.420  0.3008 -0.0500 -1.4936
  570MOL0     H75192   1.711   8.620  10.433 -0.2874 -0.8460 -0.8669
  570MOL0     H75193   1.435   8.603  10.214  1.1451 -0.7857  0.0278
  570MOL0     H75194   1.229   8.946  10.168  1.2558  0.4209  0.4652
  570MOL0     H75195   1.217   8.790  10.112 -2.4742  2.5261 -2.2294
  570MOL0     H75196   1.460   8.835   9.985 -0.6165  0.5443 -1.9119
  570MOL0     H75197   1.449   8.992  10.062 -2.1649  1.2850  1.9622
  570MOL0     H75198   1.229   8.866   9.891 -0.5916 -0.6499 -0.8720
  570MOL0     H75199   1.246   9.040   9.928  0.9812 -0.5903  0.9181
  570MOL0     H75200   1.427   9.062   9.766 -0.0135 -1.2192  0.4189
  570MOL0     H75201   1.279   8.991   9.693 -0.9555 -2.4659  0.0718
  570MOL0     H75202   1.675   8.891   9.804  1.9208 -3.5540 -0.3477
  570MOL0     H75203   1.867   8.973   9.679  1.6925 -0.8566 -0.3497
  570MOL0     H75204   2.109   9.003   9.223 -1.2668 -0.1217 -0.1035
  570MOL0     H75205   2.269   9.159   9.107  0.8990 -0.0605 -1.5201
  570MOL0     H75206   2.375   9.291   8.983 -2.8684  0.1431  1.6163
  570MOL0     H75207   2.332   9.429   9.092  1.7458  2.1107  0.5843
  570MOL0     H75208   2.321   9.584   8.884 -0.8079 -0.7998 -0.8772
  570MOL0     H75209   2.380   9.447   8.787 -2.6946  1.0133 -0.5677
  570MOL0     H75210   2.585   9.440   8.924 -3.0535 -3.0770 -0.5513
  570MOL0     H75211   2.531   9.581   9.018 -2.6766 -2.1127  1.0820
  570MOL0     H75212   2.544   9.599   8.707 -0.9306 -0.1052  0.2255
  570MOL0     H75213   2.511   9.729   8.830  0.2697  1.6386 -2.2401
  570MOL0     H75214   2.760   9.561   8.786 -0.2365  0.4059 -1.3496
  570MOL0     H75215   2.736   9.672   8.922 -2.0869 -1.1672  0.7851
  570MOL0     H75216   2.769   9.867   8.788  0.0445  1.3633 -2.6256
  570MOL0     H75217   2.728   9.774   8.636  0.2570 -1.1846 -0.3592
  570MOL0     H75218   2.952   9.668   8.650 -2.1773 -1.0390  0.9519
  570MOL0     H75219   2.950   9.833   8.620 -0.8594  0.9396  0.8748
  570MOL0     H75220   3.123   9.767   8.780  0.2065  1.0627  0.9109
  570MOL0     H75221   2.997   9.684   8.890  1.9185 -1.2207 -0.4169
  570MOL0     H75222   1.940   9.420   9.014 -1.4479  0.6012 -0.4537
  570MOL0     H75223   1.789   9.285   9.145 -0.0036 -1.8912 -2.1646
  570MOL0     H75224   1.607   9.007   9.315 -3.4641 -2.2320 -0.3536
  570MOL0     H75225   1.424   8.912   9.454  0.2516 -0.0348 -0.5703
  570MOL0     H75226   1.614   8.866  11.136  1.7905  0.2924  0.1591
  570MOL0     H75227   1.736   9.083  11.129  0.5334  1.3422  0.6321
  570MOL0     H75228   1.965   9.495  11.134  2.3990  0.5761  3.6571
  570MOL0     H75229   2.015   9.738  11.116  0.8476 -2.0244 -3.2594
  570MOL0     H75230   1.932   9.925  10.976  0.4689  0.2065  0.0941
  570MOL0     H75231   2.039   9.941  11.105  0.4448 -1.1476 -4.4246
  570MOL0     H75232   1.837  10.161  11.063  0.8437  0.1517 -0.2787
  570MOL0     H75233   1.983  10.157  11.162  0.1259 -0.8260  0.4228
  570MOL0     H75234   1.980  10.155  10.858  1.0387 -1.1224 -1.3137
  570MOL0     H75235   2.127  10.107  10.957 -0.1393 -0.2123  1.6642
  570MOL0     H75236   1.975  10.371  10.992  0.3548 -0.3575  1.3671
  570MOL0     H75237   2.132  10.310  11.068  1.5648  1.1486 -0.5927
  570MOL0     H75238   2.253  10.436  10.680 -2.0954  2.3317 -0.3594
  570MOL0     H75239   1.591   9.810  11.171 -0.7845 -1.8413  1.9772
  570MOL0     H75240   1.543   9.574  11.199  1.2384 -2.0108  0.3480
  571MOL0     O75241   6.800   0.051   7.652  0.0143  0.4583  0.8791
  571MOL0     C75242   6.824   0.108   7.755 -0.2675 -0.2653 -1.1114
  571MOL0     O75243   6.742   0.183   7.832 -0.2765 -0.6677  0.6618
  571MOL0     C75244   6.620   0.203   7.786  1.0346  0.0688  0.1825
  571MOL0     C75245   6.571   0.337   7.782  0.1350 -0.2263  0.2035
  571MOL0     C75246   6.453   0.375   7.720 -0.0778  0.6808 -0.2321
  571MOL0     C75247   6.375   0.274   7.659 -0.0262  0.5844 -0.0824
  571MOL0     O75248   6.257   0.313   7.598  0.3586  0.6435  0.2461
  571MOL0     C75249   6.223   0.274   7.466  0.2386 -0.8015 -0.6067
  571MOL0     C75250   6.196   0.401   7.389 -0.0473  0.5814 -0.2936
  571MOL0     C75251   6.052   0.463   7.429 -0.1309 -0.5831 -0.4418
  571MOL0     C75252   6.036   0.579   7.339  0.0611  0.3495 -0.2214
  571MOL0     C75253   5.897   0.629   7.339  0.3885 -0.3544 -1.5609
  571MOL0     C75254   5.881   0.766   7.281  0.2419  0.4756 -0.0979
  571MOL0     C75255   5.724   0.791   7.276 -0.1151 -0.4982  0.1414
  571MOL0     C75256   5.683   0.938   7.255 -1.2920  0.7335  0.3265
  571MOL0     N75257   5.539   0.951   7.213  0.0668 -0.5163  0.7148
  571MOL0     C75258   5.445   0.855   7.217  1.2591  1.3541  0.1002
  571MOL0     C75259   5.334   0.912   7.166  0.0229  0.1400  0.2768
  571MOL0     C75260   5.205   0.834   7.157 -0.4684  0.1494  0.3858
  571MOL0     C75261   5.102   0.892   7.063 -0.5712  0.0452 -0.2609
  571MOL0     C75262   4.958   0.911   7.117 -0.7483  1.0564 -0.5023
  571MOL0     C75263   4.938   1.022   7.225  0.2515  0.6664 -0.5963
  571MOL0     O75264   4.827   1.016   7.317 -0.2132 -0.1687 -0.1940
  571MOL0     C75265   4.691   1.026   7.283 -0.0895  0.7455 -0.8845
  571MOL0     C75266   4.646   1.042   7.157  0.1877 -0.1720  0.1277
  571MOL0     C75267   4.515   1.047   7.130 -0.7731 -0.0208 -0.2899
  571MOL0     C75268   4.415   1.044   7.226  0.1615  0.1351 -0.4241
  571MOL0     C75269   4.282   1.039   7.185  0.1665 -0.1448 -0.0047
  571MOL0     O75270   4.183   1.024   7.281 -0.0497  0.6887 -0.7348
  571MOL0     C75271   4.046   1.019   7.270  0.6473 -0.2982  0.2732
  571MOL0     C75272   3.977   1.035   7.155 -0.1595  0.1603  0.7249
  571MOL0     C75273   3.835   1.026   7.159  0.6705 -0.5343  0.7661
  571MOL0     C75274   3.762   1.003   7.276 -0.2522  0.0931  0.2398
  571MOL0     O75275   3.626   0.990   7.282  0.3909  0.7548  0.1987
  571MOL0     C75276   3.542   1.055   7.176  0.1111 -0.1629 -0.1629
  571MOL0     C75277   3.398   1.083   7.195  0.0728 -0.0516 -0.6235
  571MOL0     C75278   3.386   1.132   7.341 -0.1474 -0.2101  0.2795
  571MOL0     C75279   3.476   1.255   7.374  0.6112 -0.1616 -0.3040
  571MOL0     C75280   3.429   1.309   7.508 -0.1513 -0.4432  0.0234
  571MOL0     C75281   3.425   1.214   7.628 -1.1625 -0.4664 -0.3111
  571MOL0     C75282   3.556   1.163   7.677  0.4501 -0.1459  0.0928
  571MOL0     C75283   3.533   1.071   7.791  0.4899  0.5247  0.6436
  571MOL0    Cl75284   3.465   0.915   7.742 -0.2488 -0.2186  0.2361
  571MOL0     C75285   3.835   1.003   7.393  0.4664  0.4817  0.4891
  571MOL0     C75286   3.972   1.011   7.393  0.7887 -0.3566 -0.6966
  571MOL0     O75287   4.265   1.057   7.061 -0.2594  0.6346 -0.9124
  571MOL0     C75288   4.464   1.051   7.363 -0.0752 -0.1110 -0.4943
  571MOL0     C75289   4.599   1.032   7.392  0.9003  0.4355  0.8813
  571MOL0     N75290   5.367   1.045   7.176 -0.4814  1.1033  0.0974
  571MOL0     N75291   5.493   1.072   7.175  0.0542 -0.2835 -0.3031
  571MOL0     C75292   6.415   0.134   7.674  0.3619 -0.5391 -0.1274
  571MOL0     C75293   6.532   0.100   7.735 -0.3690  0.3083  0.1075
  571MOL0     C75294   6.961   0.075   7.797 -0.9055 -0.4123  0.1428
  571MOL0     C75295   6.992   0.110   7.925  0.7393 -0.3013  0.0387
  571MOL0     C75296   7.120   0.099   7.971  0.5814  1.0620 -0.2220
  571MOL0     C75297   7.227   0.047   7.885  0.1984  0.5843  0.2289
  571MOL0     O75298   7.363   0.043   7.907 -0.3901 -0.0312 -1.0427
  571MOL0     C75299   7.409   0.111   8.023  0.9006 -0.0853  0.8561
  571MOL0     C75300   7.555   0.092   8.045 -0.2231 -1.2458 -0.2527
  571MOL0     C75301   7.645   0.157   7.937 -0.2497 -0.3996  0.7049
  571MOL0     C75302   7.794   0.142   7.962  0.2487  0.5119  0.3483
  571MOL0     C75303   7.879   0.195   7.855  0.9426 -0.6676 -0.0191
  571MOL0     C75304   7.954   0.239   7.768 -0.0447 -0.6631 -0.1103
  571MOL0     C75305   7.190   0.005   7.756 -0.4347 -0.2091 -0.0500
  571MOL0     C75306   7.064   0.010   7.720  0.3725  0.8964  0.3426
  571MOL0     H75307   6.637   0.413   7.823  1.0413  0.1016 -1.7843
  571MOL0     H75308   6.406   0.472   7.728 -0.5871  0.7188 -2.8328
  571MOL0     H75309   6.136   0.208   7.462  0.1999 -0.8629  0.7820
  571MOL0     H75310   6.298   0.214   7.412 -0.1535 -0.6725 -1.2916
  571MOL0     H75311   6.202   0.365   7.286 -0.3366  0.8447 -0.4066
  571MOL0     H75312   6.273   0.474   7.416  1.0385 -1.0270  1.1697
  571MOL0     H75313   6.033   0.482   7.535 -1.3329 -3.1046 -0.1396
  571MOL0     H75314   5.965   0.401   7.405 -1.7346  0.0680  2.9665
  571MOL0     H75315   6.102   0.655   7.382 -1.0557  0.2146  1.8961
  571MOL0     H75316   6.063   0.551   7.237 -0.2646 -0.2643 -0.1439
  571MOL0     H75317   5.858   0.631   7.441  1.7072 -0.4236 -1.0311
  571MOL0     H75318   5.835   0.559   7.282 -4.2189  2.8808 -1.0909
  571MOL0     H75319   5.919   0.771   7.179  0.4389  3.3183  0.0294
  571MOL0     H75320   5.925   0.845   7.342 -0.7015  0.9788 -0.0435
  571MOL0     H75321   5.679   0.736   7.193 -2.9625 -2.6295  2.8805
  571MOL0     H75322   5.672   0.753   7.365 -2.1966  1.5668 -0.1090
  571MOL0     H75323   5.741   0.982   7.174  0.6892 -1.9044  0.1933
  571MOL0     H75324   5.694   0.994   7.349  0.6388 -1.2900  1.4069
  571MOL0     H75325   5.451   0.748   7.230 -0.9468  1.0374 -0.9531
  571MOL0     H75326   5.162   0.824   7.257 -2.0897 -2.2685 -0.4575
  571MOL0     H75327   5.233   0.733   7.127  2.4829  1.1324 -0.5909
  571MOL0     H75328   5.107   0.816   6.985  1.4296 -3.5322  3.0350
  571MOL0     H75329   5.141   0.983   7.016  3.2926  0.4517  3.2348
  571MOL0     H75330   4.886   0.905   7.034 -0.0521 -3.0792 -1.0442
  571MOL0     H75331   4.937   0.823   7.179  1.9064 -0.8814 -2.1474
  571MOL0     H75332   4.947   1.113   7.166  1.6474  1.0399  0.1492
  571MOL0     H75333   5.028   1.032   7.287 -1.1536  1.9327  1.3439
  571MOL0     H75334   4.711   1.052   7.070  0.2646  1.6581  0.3481
  571MOL0     H75335   4.489   1.046   7.025 -0.2156 -0.8474 -0.4342
  571MOL0     H75336   4.028   1.053   7.061 -2.5680 -0.9332 -0.8979
  571MOL0     H75337   3.788   1.046   7.063  1.0534  1.9723  1.0211
  571MOL0     H75338   3.541   0.985   7.091  0.3161 -1.4923  0.8916
  571MOL0     H75339   3.583   1.147   7.134 -1.9533 -0.2869 -2.7208
  571MOL0     H75340   3.345   0.991   7.168 -4.3112  2.0993 -0.2841
  571MOL0     H75341   3.364   1.159   7.124  0.4318 -1.0619 -1.9069
  571MOL0     H75342   3.422   1.049   7.403 -0.3451 -0.1062  0.5323
  571MOL0     H75343   3.281   1.156   7.357 -0.2789  0.1392 -0.9782
  571MOL0     H75344   3.580   1.224   7.386 -0.1516 -1.7667  4.0060
  571MOL0     H75345   3.475   1.335   7.299 -0.4542  2.3350  2.1762
  571MOL0     H75346   3.330   1.351   7.488  0.6902  1.3652 -0.5560
  571MOL0     H75347   3.491   1.395   7.534 -1.5452 -0.4443  4.0203
  571MOL0     H75348   3.360   1.126   7.616  0.1149 -1.2816 -1.6730
  571MOL0     H75349   3.384   1.267   7.714 -1.0205 -0.7682 -0.0553
  571MOL0     H75350   3.613   1.104   7.605 -2.1195 -1.3330 -1.0922
  571MOL0     H75351   3.627   1.242   7.704  2.4766 -1.9165  0.2275
  571MOL0     H75352   3.459   1.105   7.863  1.5712  2.5976  0.8276
  571MOL0     H75353   3.625   1.050   7.848 -0.5789  0.5027  2.4208
  571MOL0     H75354   3.791   0.993   7.492 -1.7528  2.5922 -0.2185
  571MOL0     H75355   4.025   0.996   7.487 -0.5675  1.1919  0.3740
  571MOL0     H75356   4.389   1.047   7.442 -2.3279 -1.8457 -2.5774
  571MOL0     H75357   4.643   1.033   7.491 -1.9895  1.8969  2.2838
  571MOL0     H75358   6.338   0.067   7.637 -2.1276  2.2969 -0.5017
  571MOL0     H75359   6.566  -0.003   7.727 -2.0438 -0.2529 -0.2351
  571MOL0     H75360   6.916   0.144   7.995  0.9027  0.0124  0.0664
  571MOL0     H75361   7.134   0.134   8.073 -0.7847  4.5850 -1.1182
  571MOL0     H75362   7.359   0.071   8.111 -0.7512 -2.1679 -0.9456
  571MOL0     H75363   7.385   0.217   8.008 -0.7040 -0.8071 -2.8814
  571MOL0     H75364   7.589   0.133   8.140  2.3037 -2.1406 -0.6918
  571MOL0     H75365   7.576  -0.015   8.057  1.1765 -0.7670  2.1062
  571MOL0     H75366   7.625   0.264   7.933 -1.0449 -0.5718 -0.2563
  571MOL0     H75367   7.621   0.126   7.835  0.7844 -1.2496  0.6951
  571MOL0     H75368   7.804   0.198   8.056 -1.5052  0.5525  0.5476
  571MOL0     H75369   7.822   0.037   7.974  0.4333  0.7487  2.2168
  571MOL0     H75370   8.007   0.273   7.682  0.6089 -1.9006 -0.2315
  571MOL0     H75371   7.261  -0.022   7.678  0.8619  4.9689 -1.0161
  571MOL0     H75372   7.042  -0.024   7.619 -0.7027 -2.9954  1.7052
  572MOL0     O75373   1.157   2.136   7.029 -0.3073 -0.0171 -0.7462
  572MOL0     C75374   1.065   2.087   7.092 -0.2629  0.8733 -0.6332
  572MOL0     O75375   1.027   1.953   7.091  0.2713 -0.3995 -0.2004
  572MOL0     C75376   1.122   1.861   7.048  0.5145  0.2178 -0.2094
  572MOL0     C75377   1.263   1.876   7.059  1.0270  0.0255  0.1719
  572MOL0     C75378   1.350   1.776   7.015  0.0455 -0.0209  0.9535
  572MOL0     C75379   1.292   1.670   6.951  0.7157  0.1869  0.3504
  572MOL0     O75380   1.374   1.581   6.888  0.5916 -0.1496 -1.1896
  572MOL0     C75381   1.402   1.464   6.961  0.2159  0.6672 -0.5109
  572MOL0     C75382   1.352   1.343   6.876  0.7252 -0.6588  0.5816
  572MOL0     C75383   1.417   1.350   6.735  0.4190 -0.5372  0.6517
  572MOL0     C75384   1.409   1.218   6.658 -0.2328  1.5485  0.7055
  572MOL0     C75385   1.271   1.174   6.615  0.1346 -0.0657  0.6046
  572MOL0     C75386   1.287   1.070   6.505 -0.3526 -0.0992  0.0571
  572MOL0     C75387   1.148   1.007   6.455  0.7067  0.8366 -0.0180
  572MOL0     C75388   1.070   0.931   6.562 -1.0872  1.4584 -0.2519
  572MOL0     N75389   1.150   0.843   6.646  0.3482  0.3597 -0.4670
  572MOL0     C75390   1.230   0.736   6.605 -0.6441 -0.3965  0.1495
  572MOL0     C75391   1.291   0.700   6.716  0.3676  0.4191 -0.0034
  572MOL0     C75392   1.387   0.592   6.718  0.2288  0.2480  0.0498
  572MOL0     C75393   1.325   0.451   6.734 -0.1815  0.1929  0.2636
  572MOL0     C75394   1.261   0.431   6.874  0.2028 -0.6114 -0.3572
  572MOL0     C75395   1.214   0.283   6.893 -0.0065 -0.6480 -0.2116
  572MOL0     O75396   1.289   0.193   6.808 -1.1156  0.0819 -0.3081
  572MOL0     C75397   1.376   0.113   6.879  0.6462 -0.3294 -0.5961
  572MOL0     C75398   1.423   0.002   6.811 -0.2174  0.2710  0.6652
  572MOL0     C75399   1.521  -0.088   6.868  0.1550  0.1777  0.1684
  572MOL0     C75400   1.576  -0.060   6.986 -0.4218  0.4496 -0.2996
  572MOL0     C75401   1.683  -0.141   7.042 -0.1113 -0.1853 -0.0963
  572MOL0     O75402   1.734  -0.246   6.974  0.2718 -0.6301 -0.3356
  572MOL0     C75403   1.842  -0.317   7.008 -0.5145  1.0341  0.0563
  572MOL0     C75404   1.975  -0.302   6.962  0.9067  1.1343  0.1002
  572MOL0     C75405   2.065  -0.394   6.998 -0.4287 -0.2646  0.6470
  572MOL0     C75406   2.041  -0.505   7.079  0.7562 -0.0367  0.3431
  572MOL0     O75407   2.134  -0.611   7.086  0.1511 -0.3520 -0.3534
  572MOL0     C75408   2.108  -0.726   7.166 -0.2947  0.2096 -0.1145
  572MOL0     C75409   2.200  -0.840   7.111 -0.0631 -0.2830  0.0638
  572MOL0     C75410   2.149  -0.983   7.163  0.4142 -0.4400 -0.1879
  572MOL0     C75411   2.242  -1.092   7.121 -0.2524  0.7282  0.0932
  572MOL0     C75412   2.211  -1.234   7.175 -0.4662  0.0979  0.3117
  572MOL0     C75413   2.073  -1.281   7.120  0.0162  0.5006 -0.3330
  572MOL0     C75414   2.070  -1.279   6.961  0.8376  0.2264 -0.1956
  572MOL0     C75415   1.941  -1.343   6.922  0.3514 -0.6450  0.0180
  572MOL0    Cl75416   1.912  -1.512   6.988  0.0094 -0.0460  0.4937
  572MOL0     C75417   1.918  -0.520   7.135  0.9316 -0.0721 -0.2857
  572MOL0     C75418   1.827  -0.426   7.096 -0.5934 -0.5363  0.0255
  572MOL0     O75419   1.727  -0.105   7.149  0.6823  0.1548 -0.9055
  572MOL0     C75420   1.521   0.054   7.062 -1.0338  0.7126 -0.6669
  572MOL0     C75421   1.429   0.140   7.010  0.2492  0.4365  0.0506
  572MOL0     N75422   1.243   0.759   6.830  0.2200  0.1841  0.0294
  572MOL0     N75423   1.163   0.850   6.781 -1.1151 -0.8739  0.5140
  572MOL0     C75424   1.156   1.647   6.939 -0.7132  0.4306 -1.0885
  572MOL0     C75425   1.067   1.742   6.994  1.1587 -0.0219 -0.3916
  572MOL0     C75426   0.980   2.175   7.179 -0.9007  0.1978  0.0651
  572MOL0     C75427   1.008   2.312   7.181 -0.2943 -0.0925  0.0088
  572MOL0     C75428   0.915   2.399   7.237 -0.2430 -1.0005 -0.6075
  572MOL0     C75429   0.798   2.350   7.295  0.1409 -0.2772 -0.0984
  572MOL0     O75430   0.718   2.447   7.362 -0.5565  0.5147  0.0130
  572MOL0     C75431   0.596   2.409   7.422  0.1301  1.1807  0.4064
  572MOL0     C75432   0.533   2.540   7.458  0.7416  0.3909  0.7098
  572MOL0     C75433   0.397   2.506   7.532 -1.0607  0.9839  0.7483
  572MOL0     C75434   0.268   2.507   7.440 -0.1033  0.3354 -0.2801
  572MOL0     C75435   0.249   2.391   7.360 -0.0574 -0.4421 -0.5028
  572MOL0     C75436   0.219   2.298   7.293  0.6285  0.4715  0.9877
  572MOL0     C75437   0.773   2.224   7.290 -0.8095  0.3186 -0.0264
  572MOL0     C75438   0.859   2.132   7.224  0.9738  0.3815 -0.0895
  572MOL0     H75439   1.301   1.966   7.106 -1.9492  2.1642 -1.2229
  572MOL0     H75440   1.456   1.800   7.017 -0.5570  2.9684  1.8376
  572MOL0     H75441   1.356   1.460   7.061  0.9935  0.0868 -0.1621
  572MOL0     H75442   1.509   1.445   6.977 -0.5899 -3.5155  1.4380
  572MOL0     H75443   1.243   1.338   6.865  0.4481  3.7401 -0.5808
  572MOL0     H75444   1.383   1.254   6.931 -3.3609 -1.6018  1.6567
  572MOL0     H75445   1.519   1.389   6.740 -0.2598  1.3278  0.7608
  572MOL0     H75446   1.364   1.431   6.685  0.6002  0.4575  2.0089
  572MOL0     H75447   1.476   1.227   6.573 -2.1569  1.8172 -0.8486
  572MOL0     H75448   1.444   1.131   6.715 -1.6613  0.0511 -0.6050
  572MOL0     H75449   1.221   1.266   6.582  1.1986 -0.3145 -1.9731
  572MOL0     H75450   1.216   1.130   6.698  0.4553 -0.6091  0.5315
  572MOL0     H75451   1.354   0.990   6.537 -0.9123 -0.1751  1.0757
  572MOL0     H75452   1.344   1.111   6.421  1.4724 -2.3332  0.1252
  572MOL0     H75453   1.079   1.085   6.421 -2.2871 -1.2921  0.8240
  572MOL0     H75454   1.180   0.942   6.374  1.7283 -0.8300  1.6473
  572MOL0     H75455   0.995   0.871   6.508  1.3915  0.8227 -3.2480
  572MOL0     H75456   1.016   1.001   6.627 -3.3433  0.5030 -0.9729
  572MOL0     H75457   1.238   0.708   6.501 -1.4860  0.3835 -0.1340
  572MOL0     H75458   1.468   0.595   6.791  0.1805 -1.5213  0.2270
  572MOL0     H75459   1.443   0.607   6.625  0.0673 -1.2650 -0.3182
  572MOL0     H75460   1.407   0.381   6.718 -0.4854  0.1734 -1.4199
  572MOL0     H75461   1.261   0.434   6.646  0.5440 -2.8755  0.2075
  572MOL0     H75462   1.333   0.456   6.953  0.0406 -1.7971  0.1919
  572MOL0     H75463   1.178   0.503   6.875  0.2436 -0.3942  3.4158
  572MOL0     H75464   1.112   0.272   6.856  0.4429  0.9830 -2.1278
  572MOL0     H75465   1.222   0.255   6.998  2.5761 -0.4243 -0.2878
  572MOL0     H75466   1.378  -0.019   6.715  0.0921  1.1470  0.3197
  572MOL0     H75467   1.545  -0.179   6.814 -2.7717 -0.1708 -0.7269
  572MOL0     H75468   1.994  -0.212   6.904  2.5699  0.5755 -0.3050
  572MOL0     H75469   2.170  -0.383   6.971 -0.5877 -1.0454 -0.3371
  572MOL0     H75470   2.002  -0.751   7.163 -0.0767 -0.9658  1.0086
  572MOL0     H75471   2.148  -0.706   7.266  0.1980 -2.6612  0.3541
  572MOL0     H75472   2.302  -0.828   7.151  0.7919  3.8636 -2.7275
  572MOL0     H75473   2.195  -0.833   7.002  3.5552  0.1411 -0.2271
  572MOL0     H75474   2.049  -1.002   7.123  0.7117  2.1430 -2.4588
  572MOL0     H75475   2.147  -0.993   7.272 -1.9839  0.4119 -0.0965
  572MOL0     H75476   2.240  -1.099   7.012 -1.8660  0.2226  0.1304
  572MOL0     H75477   2.345  -1.074   7.153  0.6997 -4.8631  1.1203
  572MOL0     H75478   2.210  -1.243   7.284  1.3674 -0.4968  0.3269
  572MOL0     H75479   2.295  -1.292   7.136 -0.8443 -0.1685 -0.1126
  572MOL0     H75480   1.985  -1.232   7.163 -0.1213 -0.1121  0.1099
  572MOL0     H75481   2.070  -1.386   7.152  2.1935 -1.4102 -5.3165
  572MOL0     H75482   2.066  -1.175   6.925 -0.5331  1.0194  2.0685
  572MOL0     H75483   2.149  -1.335   6.910  0.2879  0.5037 -1.4063
  572MOL0     H75484   1.925  -1.332   6.815 -2.0298 -1.3496  0.2558
  572MOL0     H75485   1.859  -1.285   6.965 -0.4103 -0.4103 -1.6682
  572MOL0     H75486   1.885  -0.595   7.206  1.9128  2.3215  2.9276
  572MOL0     H75487   1.729  -0.439   7.142 -2.0314 -1.8096 -3.1044
  572MOL0     H75488   1.559   0.086   7.158 -0.0668  0.9240 -1.1091
  572MOL0     H75489   1.395   0.224   7.071 -2.5032 -1.3917  1.2128
  572MOL0     H75490   1.118   1.564   6.881 -3.9695  2.1186 -1.6235
  572MOL0     H75491   0.959   1.742   6.980  0.7729  0.2155  2.1179
  572MOL0     H75492   1.101   2.344   7.134 -1.2653  0.4877 -1.6290
  572MOL0     H75493   0.934   2.506   7.233 -1.2837 -0.8166 -0.9543
  572MOL0     H75494   0.615   2.343   7.507  1.4238  2.7309  1.3596
  572MOL0     H75495   0.529   2.349   7.360  2.0035 -0.6094  0.0137
  572MOL0     H75496   0.608   2.592   7.518  2.8576 -1.5489 -0.1212
  572MOL0     H75497   0.509   2.597   7.368  0.1302 -1.5089 -0.3932
  572MOL0     H75498   0.380   2.582   7.609 -5.2695 -1.0366  2.1347
  572MOL0     H75499   0.409   2.418   7.596  0.7529  1.4221  1.0675
  572MOL0     H75500   0.185   2.505   7.511 -0.9011  1.2441 -1.1560
  572MOL0     H75501   0.264   2.597   7.379  2.0276  0.1581 -0.7643
  572MOL0     H75502   0.192   2.215   7.230 -2.9719  2.4880 -0.4230
  572MOL0     H75503   0.680   2.182   7.326 -0.4735  2.0181  3.1598
  572MOL0     H75504   0.821   2.031   7.214 -1.3482  1.3192 -1.4085
  573MOL0     O75505   6.865  10.914   0.147 -0.5252  0.2901  0.3209
  573MOL0     C75506   6.827  10.975   0.246  0.5115  0.6967 -0.9848
  573MOL0     O75507   6.892  11.071   0.311  0.1784  0.4173 -0.0271
  573MOL0     C75508   7.002  11.123   0.255  0.1556 -0.4524  0.3799
  573MOL0     C75509   6.992  11.174   0.126 -0.3350 -0.1683  1.0454
  573MOL0     C75510   7.099  11.246   0.070 -1.1168  0.5466 -0.1719
  573MOL0     C75511   7.219  11.261   0.138 -0.5687  0.1380  0.4869
  573MOL0     O75512   7.328  11.326   0.077  0.0800 -0.7773  0.2049
  573MOL0     C75513   7.438  11.383   0.154 -0.2898 -0.0972  0.1007
  573MOL0     C75514   7.566  11.342   0.075 -0.9881 -0.9420  0.0177
  573MOL0     C75515   7.699  11.419   0.123  1.1359  0.3442  0.7819
  573MOL0     C75516   7.812  11.415   0.020  0.5545 -0.0559 -0.4208
  573MOL0     C75517   7.946  11.470   0.068 -0.5001  0.0832 -0.3238
  573MOL0     C75518   7.951  11.616   0.102  0.2379  0.1096 -0.0202
  573MOL0     C75519   7.920  11.702  -0.027 -0.2320 -0.8532 -0.2167
  573MOL0     C75520   7.898  11.848   0.013  0.1925 -0.2052  0.1275
  573MOL0     N75521   7.752  11.870   0.024  0.0419 -0.4249 -0.0885
  573MOL0     C75522   7.671  11.847  -0.085 -0.2814  0.6245 -0.1643
  573MOL0     C75523   7.545  11.872  -0.034  0.1174  0.4137  0.1027
  573MOL0     C75524   7.407  11.862  -0.110  0.8878 -0.3179 -0.6260
  573MOL0     C75525   7.307  11.788  -0.028 -0.1257  0.1321 -0.0723
  573MOL0     C75526   7.176  11.783  -0.104 -0.1954  0.7361  0.1148
  573MOL0     C75527   7.085  11.669  -0.074  0.2651 -0.7805 -0.1602
  573MOL0     O75528   7.044  11.674   0.059 -0.3354 -0.5529 -0.1940
  573MOL0     C75529   6.922  11.618   0.082  0.8961 -0.9584  0.3150
  573MOL0     C75530   6.804  11.685   0.039 -0.3572 -0.3446 -0.3865
  573MOL0     C75531   6.677  11.639   0.073 -0.0192 -0.7164  0.2605
  573MOL0     C75532   6.660  11.526   0.141  0.2848  0.5973  0.3828
  573MOL0     C75533   6.525  11.466   0.160 -0.3037  0.3613 -0.1389
  573MOL0     O75534   6.511  11.366   0.256 -0.0677 -0.5144 -0.9735
  573MOL0     C75535   6.387  11.316   0.277  1.1102  0.0033 -0.2862
  573MOL0     C75536   6.338  11.207   0.194  0.3316 -0.7182 -0.3417
  573MOL0     C75537   6.208  11.176   0.210  0.5224  0.1456  0.2850
  573MOL0     C75538   6.119  11.255   0.289 -0.2240 -0.2201  0.0493
  573MOL0     O75539   5.989  11.234   0.315  0.3153 -0.3054  0.4421
  573MOL0     C75540   5.921  11.164   0.209 -0.3398 -1.0599  0.8589
  573MOL0     C75541   5.760  11.165   0.211 -0.5332 -0.3860  0.1460
  573MOL0     C75542   5.705  11.090   0.334 -0.0737  0.2411 -0.6165
  573MOL0     C75543   5.564  11.135   0.373  0.0865  0.3260  0.8493
  573MOL0     C75544   5.504  11.054   0.495 -0.3058  0.6097 -0.1200
  573MOL0     C75545   5.432  11.153   0.591  0.0236 -0.2311  0.0774
  573MOL0     C75546   5.321  11.074   0.659 -0.7618 -0.7598  0.1931
  573MOL0     C75547   5.360  10.939   0.718 -0.0939 -1.0431 -0.7434
  573MOL0    Cl75548   5.496  10.948   0.840 -0.3520 -0.5565  0.1284
  573MOL0     C75549   6.169  11.368   0.357  0.4672  0.2978 -0.4962
  573MOL0     C75550   6.303  11.388   0.364 -0.8792 -0.2651 -0.2023
  573MOL0     O75551   6.441  11.510   0.089 -0.2154 -0.3073 -0.7619
  573MOL0     C75552   6.781  11.458   0.189  1.2037  0.1201  0.0644
  573MOL0     C75553   6.906  11.509   0.164 -0.0430 -0.6205  0.8612
  573MOL0     N75554   7.553  11.914   0.099  0.1480 -0.3850  0.1670
  573MOL0     N75555   7.673  11.899   0.131  0.4747 -0.1743 -0.2511
  573MOL0     C75556   7.232  11.209   0.269 -0.7643 -0.3207  0.8184
  573MOL0     C75557   7.125  11.144   0.330 -0.0907  0.8238  0.0869
  573MOL0     C75558   6.693  10.953   0.298 -0.9117  0.3205 -0.4301
  573MOL0     C75559   6.609  10.858   0.239 -0.2608  1.4970  0.3689
  573MOL0     C75560   6.486  10.827   0.294  0.3330 -0.5008 -0.5818
  573MOL0     C75561   6.438  10.892   0.408 -0.9243 -0.5192  0.0371
  573MOL0     O75562   6.316  10.861   0.459 -0.3286  0.5213 -0.0556
  573MOL0     C75563   6.253  10.951   0.556  0.3292 -0.1479 -0.3942
  573MOL0     C75564   6.104  10.910   0.560 -0.2159  0.8558  0.1502
  573MOL0     C75565   6.011  11.021   0.614 -0.0860 -0.5092  0.7351
  573MOL0     C75566   5.991  11.004   0.764  0.8587 -1.1001 -0.1150
  573MOL0     C75567   5.866  11.073   0.806 -0.6568  1.2357 -0.3506
  573MOL0     C75568   5.757  11.119   0.836 -0.2657 -0.4068 -0.8612
  573MOL0     C75569   6.522  10.990   0.468 -1.0692 -0.1044 -0.8336
  573MOL0     C75570   6.647  11.023   0.408 -0.5668  0.3568  0.2561
  573MOL0     H75571   6.898  11.182   0.071 -0.1463 -0.0529  0.7382
  573MOL0     H75572   7.085  11.279  -0.032 -0.5368 -0.4207 -0.5837
  573MOL0     H75573   7.435  11.345   0.256 -0.3875 -1.8986 -0.5471
  573MOL0     H75574   7.448  11.492   0.153  2.8043 -0.2884  0.7200
  573MOL0     H75575   7.564  11.383  -0.027 -0.1699  1.3302  0.8566
  573MOL0     H75576   7.585  11.235   0.082  1.0647 -0.6880 -1.1036
  573MOL0     H75577   7.730  11.386   0.223  1.1154  2.3163  1.4998
  573MOL0     H75578   7.668  11.522   0.147 -2.4763 -1.3259  4.6450
  573MOL0     H75579   7.829  11.308   0.007  0.9117 -0.2106  1.1920
  573MOL0     H75580   7.782  11.458  -0.076 -2.0984  0.3681  0.5198
  573MOL0     H75581   8.015  11.446  -0.014  0.6367  0.2459  0.5614
  573MOL0     H75582   7.975  11.417   0.160 -0.5494 -0.8734 -0.8449
  573MOL0     H75583   8.052  11.632   0.141  0.8279  0.1398 -1.5124
  573MOL0     H75584   7.882  11.647   0.181  2.4678  0.6946  1.8143
  573MOL0     H75585   8.010  11.714  -0.089 -1.1761 -0.1585 -1.5018
  573MOL0     H75586   7.838  11.669  -0.091  1.1734 -1.5808 -1.7384
  573MOL0     H75587   7.922  11.919  -0.066 -1.0974 -2.2189 -2.2466
  573MOL0     H75588   7.948  11.886   0.102 -0.0212  1.2921 -0.3710
  573MOL0     H75589   7.701  11.809  -0.182  0.5444  2.6310 -0.7619
  573MOL0     H75590   7.429  11.813  -0.205  0.3427  1.7137 -1.8499
  573MOL0     H75591   7.374  11.964  -0.131  0.6082 -0.2778 -0.0155
  573MOL0     H75592   7.293  11.844   0.064 -0.2825  0.0950 -0.0733
  573MOL0     H75593   7.350  11.690  -0.005  0.5210  0.5150  0.3694
  573MOL0     H75594   7.126  11.880  -0.095  0.6839  1.1655  0.4717
  573MOL0     H75595   7.207  11.780  -0.208 -0.6079  2.0731 -0.0651
  573MOL0     H75596   7.144  11.580  -0.098  1.2800 -0.1918  0.1092
  573MOL0     H75597   6.999  11.679  -0.140 -1.5110  2.2469  2.3296
  573MOL0     H75598   6.815  11.790   0.012 -0.4834  0.6332  2.8500
  573MOL0     H75599   6.586  11.689   0.042 -0.9606 -2.0494  0.7513
  573MOL0     H75600   6.401  11.185   0.108 -0.8236  1.7916 -1.9468
  573MOL0     H75601   6.156  11.103   0.149  0.2844  0.5381  0.0157
  573MOL0     H75602   5.947  11.058   0.213  3.4892 -0.3504 -1.0799
  573MOL0     H75603   5.957  11.205   0.114  0.8475 -1.9763  0.8929
  573MOL0     H75604   5.727  11.115   0.120 -3.0626  1.1504  0.1252
  573MOL0     H75605   5.720  11.267   0.206  1.0723  0.2915  0.5573
  573MOL0     H75606   5.789  11.109   0.401  2.7171 -1.2982 -3.3491
  573MOL0     H75607   5.716  10.982   0.317  1.3821  0.4972 -1.5469
  573MOL0     H75608   5.578  11.241   0.396 -0.8949  0.5515  0.4608
  573MOL0     H75609   5.494  11.122   0.289  1.3561 -4.5722  0.2260
  573MOL0     H75610   5.593  11.011   0.542  1.6112  2.1725 -2.0937
  573MOL0     H75611   5.442  10.972   0.457  2.0955 -0.6092 -1.7155
  573MOL0     H75612   5.390  11.232   0.528 -1.1633 -1.9478 -1.3734
  573MOL0     H75613   5.509  11.182   0.664 -0.2457  0.0971  0.2365
  573MOL0     H75614   5.278  11.132   0.742  0.5810 -0.0360  0.4139
  573MOL0     H75615   5.250  11.055   0.578  0.1292 -0.9953 -0.5386
  573MOL0     H75616   5.387  10.871   0.637  0.7572 -0.0384 -1.3324
  573MOL0     H75617   5.274  10.903   0.777 -1.4414  3.2045  0.2213
  573MOL0     H75618   6.110  11.416   0.434  1.5786  0.6233  0.1853
  573MOL0     H75619   6.343  11.473   0.418 -1.3552 -0.0381 -0.2027
  573MOL0     H75620   6.766  11.364   0.241  0.3022  0.3450  0.2347
  573MOL0     H75621   6.992  11.454   0.202 -0.1884 -3.0181 -1.9093
  573MOL0     H75622   7.322  11.203   0.329  0.4949 -1.4093 -1.0676
  573MOL0     H75623   7.135  11.107   0.432 -4.0788 -1.1725 -0.0619
  573MOL0     H75624   6.623  10.806   0.145  2.4262 -3.5043  3.0985
  573MOL0     H75625   6.419  10.759   0.243  0.0138 -0.1286 -0.6614
  573MOL0     H75626   6.260  11.057   0.531  1.1659 -0.1719 -0.2816
  573MOL0     H75627   6.300  10.948   0.654 -1.3351  0.3684  0.4497
  573MOL0     H75628   6.072  10.872   0.463  2.0884 -0.3554 -0.2093
  573MOL0     H75629   6.082  10.819   0.616  1.3643  0.9167  0.9057
  573MOL0     H75630   5.917  11.016   0.557  0.6744 -0.7806 -0.5334
  573MOL0     H75631   6.050  11.122   0.599 -2.3214  0.5546  1.5823
  573MOL0     H75632   5.968  10.902   0.795 -0.6254 -0.9445 -0.6428
  573MOL0     H75633   6.073  11.048   0.822 -0.5910  0.3606  0.9146
  573MOL0     H75634   5.660  11.161   0.853  0.0487 -1.0005  3.3430
  573MOL0     H75635   6.496  11.051   0.554  1.8678 -1.3071  1.0701
  573MOL0     H75636   6.700  11.108   0.450  3.0783 -1.2299 -0.8054
  574MOL0     O75637   8.422   4.679   0.931 -0.5100 -0.0684  0.5186
  574MOL0     C75638   8.494   4.581   0.918 -0.4779 -0.0039 -0.2275
  574MOL0     O75639   8.468   4.472   0.841  0.0344 -0.3021  0.0644
  574MOL0     C75640   8.353   4.447   0.785  1.3913  0.1634  0.0259
  574MOL0     C75641   8.358   4.368   0.670  0.5772 -0.0854  0.1541
  574MOL0     C75642   8.253   4.352   0.585 -0.5522 -1.1062 -0.5685
  574MOL0     C75643   8.124   4.404   0.614 -0.9564 -1.3857  0.7340
  574MOL0     O75644   8.021   4.381   0.520  0.2968 -0.1571 -0.1201
  574MOL0     C75645   7.882   4.383   0.566 -0.0838 -0.4083  0.2563
  574MOL0     C75646   7.808   4.270   0.493  0.1279  0.0617 -0.2288
  574MOL0     C75647   7.665   4.261   0.536 -0.4913  1.0772 -0.3722
  574MOL0     C75648   7.583   4.149   0.478  0.3663 -0.1331  0.8222
  574MOL0     C75649   7.428   4.168   0.513 -0.2930  0.3352 -0.0716
  574MOL0     C75650   7.354   4.054   0.448 -0.0274  0.9349  0.1473
  574MOL0     C75651   7.203   4.080   0.465  0.2765 -0.3057  0.1752
  574MOL0     C75652   7.116   3.981   0.393 -0.7699 -0.5071  0.4044
  574MOL0     N75653   6.981   4.022   0.402 -0.0476 -0.4923 -0.2605
  574MOL0     C75654   6.909   4.106   0.321 -0.4885  1.3282 -0.2943
  574MOL0     C75655   6.785   4.100   0.377  0.1701  0.5027  1.0190
  574MOL0     C75656   6.664   4.185   0.334  0.1905  0.0292  1.2689
  574MOL0     C75657   6.532   4.130   0.352  0.4160  0.3611 -0.0717
  574MOL0     C75658   6.481   4.115   0.500 -0.2295 -1.6798 -0.4496
  574MOL0     C75659   6.330   4.087   0.519  0.0129  1.7697  0.3000
  574MOL0     O75660   6.244   4.171   0.440  0.0650 -0.8862  1.0354
  574MOL0     C75661   6.115   4.191   0.479  0.0450 -0.3650  0.0932
  574MOL0     C75662   6.045   4.129   0.584 -0.3456 -0.3480 -0.1927
  574MOL0     C75663   5.901   4.138   0.593 -0.9521 -0.6876 -0.4384
  574MOL0     C75664   5.841   4.218   0.499 -0.5911 -0.7218  0.3869
  574MOL0     C75665   5.703   4.249   0.507  0.2071  0.1811  0.1065
  574MOL0     O75666   5.613   4.169   0.580  0.3470 -0.0594 -1.1693
  574MOL0     C75667   5.492   4.222   0.611  0.0444  0.5238  0.2988
  574MOL0     C75668   5.412   4.229   0.496 -0.9227  0.0542  0.0015
  574MOL0     C75669   5.280   4.269   0.505  0.6873  0.7114 -0.2180
  574MOL0     C75670   5.229   4.300   0.631  0.4761 -0.6940 -0.1601
  574MOL0     O75671   5.101   4.336   0.651 -0.1585 -0.6220 -0.1217
  574MOL0     C75672   5.064   4.446   0.566  0.9470 -0.0918 -0.5372
  574MOL0     C75673   4.914   4.477   0.591  0.0640 -0.4510  0.8622
  574MOL0     C75674   4.878   4.596   0.676  0.9057 -0.1624  0.7663
  574MOL0     C75675   4.731   4.631   0.670  0.8367 -0.5016 -0.4452
  574MOL0     C75676   4.692   4.777   0.631  0.7986 -0.1261 -0.4685
  574MOL0     C75677   4.543   4.805   0.647  0.0378 -0.0650 -0.4967
  574MOL0     C75678   4.496   4.928   0.561  0.2758 -0.3381  0.0039
  574MOL0     C75679   4.561   5.064   0.620 -0.5424  0.7240  0.0776
  574MOL0    Cl75680   4.512   5.075   0.796  0.0806 -0.0838 -0.2058
  574MOL0     C75681   5.303   4.286   0.748  0.0363  0.3450  0.0149
  574MOL0     C75682   5.438   4.255   0.744 -0.3605  0.5757  1.0537
  574MOL0     O75683   5.675   4.361   0.459  0.2176  0.0696 -0.5000
  574MOL0     C75684   5.916   4.286   0.406  1.0123 -0.1144  0.2792
  574MOL0     C75685   6.046   4.265   0.394  0.1232  0.4384  1.3643
  574MOL0     N75686   6.777   4.004   0.470 -0.1783  0.1935 -0.7355
  574MOL0     N75687   6.897   3.959   0.484  0.0098 -0.3880 -0.1507
  574MOL0     C75688   8.115   4.469   0.739  0.0744 -0.4545 -0.6087
  574MOL0     C75689   8.229   4.494   0.821 -0.3692 -0.0252  0.0618
  574MOL0     C75690   8.624   4.577   0.986 -0.8743 -0.6222 -0.5679
  574MOL0     C75691   8.654   4.689   1.067 -0.2559 -0.0453  0.5306
  574MOL0     C75692   8.770   4.692   1.143  0.7925 -1.0450  0.7611
  574MOL0     C75693   8.863   4.588   1.142  0.3578  0.0769  0.8147
  574MOL0     O75694   8.979   4.609   1.212 -0.6080 -0.7325  0.2520
  574MOL0     C75695   8.980   4.691   1.324  0.9689  0.5012 -0.7333
  574MOL0     C75696   9.107   4.666   1.406  0.3737 -0.1587 -0.2869
  574MOL0     C75697   9.113   4.534   1.464  0.0093 -0.3050 -0.1455
  574MOL0     C75698   9.251   4.487   1.533  0.5292  0.3746 -0.8794
  574MOL0     C75699   9.295   4.597   1.615  0.5813  0.1206 -0.0350
  574MOL0     C75700   9.331   4.695   1.698  0.6626 -0.3182  0.1586
  574MOL0     C75701   8.850   4.484   1.051 -0.0254 -0.5643  0.2682
  574MOL0     C75702   8.722   4.478   0.972 -0.6987 -0.6619 -0.0981
  574MOL0     H75703   8.450   4.321   0.639  0.7618  0.6663 -0.4724
  574MOL0     H75704   8.275   4.287   0.501 -2.6030 -1.7644 -0.6625
  574MOL0     H75705   7.829   4.476   0.548  1.3729  1.1348  3.2266
  574MOL0     H75706   7.865   4.367   0.673 -0.0939  4.0957  1.0995
  574MOL0     H75707   7.865   4.177   0.503  0.8461  0.2850 -1.8277
  574MOL0     H75708   7.803   4.283   0.384  0.4548 -0.7528 -0.3511
  574MOL0     H75709   7.613   4.356   0.524 -0.7014  1.5207  2.9803
  574MOL0     H75710   7.661   4.228   0.640 -0.4605 -3.2009 -1.5319
  574MOL0     H75711   7.586   4.153   0.369  1.3269 -1.7415  0.7590
  574MOL0     H75712   7.634   4.054   0.495  3.4005  0.6313 -2.8356
  574MOL0     H75713   7.393   4.253   0.455 -0.2980 -2.0612 -4.0048
  574MOL0     H75714   7.418   4.167   0.621  0.8827 -1.0259  0.0632
  574MOL0     H75715   7.389   3.957   0.483 -0.6545  0.2515 -1.0689
  574MOL0     H75716   7.366   4.050   0.340 -0.1682 -1.0773  0.1836
  574MOL0     H75717   7.172   4.096   0.569  0.5050 -0.5774  0.2879
  574MOL0     H75718   7.180   4.177   0.420 -4.0478 -1.4534 -0.5524
  574MOL0     H75719   7.139   3.883   0.437  2.4086 -0.4237 -0.7906
  574MOL0     H75720   7.137   3.977   0.286 -1.9355 -1.7082  0.1897
  574MOL0     H75721   6.938   4.165   0.234  0.5226 -0.7171 -1.4101
  574MOL0     H75722   6.669   4.195   0.226  3.5077 -1.7034  1.1543
  574MOL0     H75723   6.671   4.283   0.383  0.3045  1.4346 -1.3837
  574MOL0     H75724   6.522   4.030   0.308  1.4682  0.5782 -0.8270
  574MOL0     H75725   6.463   4.199   0.304 -3.4317 -0.7128  3.3418
  574MOL0     H75726   6.543   4.038   0.547 -0.1760 -2.1006 -1.1907
  574MOL0     H75727   6.499   4.214   0.542 -4.8877  0.5513 -2.8641
  574MOL0     H75728   6.296   4.094   0.623 -0.2424 -0.1850  0.3801
  574MOL0     H75729   6.318   3.983   0.488  0.9933  0.7002  3.1250
  574MOL0     H75730   6.083   4.049   0.647 -2.5455 -0.4716  1.1112
  574MOL0     H75731   5.846   4.080   0.667  0.3706 -0.2442  0.9525
  574MOL0     H75732   5.453   4.207   0.398  2.0468 -0.2244  1.1897
  574MOL0     H75733   5.216   4.276   0.418  1.6018  0.3554 -0.9340
  574MOL0     H75734   5.081   4.429   0.459  1.7051 -0.7206 -0.3269
  574MOL0     H75735   5.128   4.530   0.595  0.7651 -0.9008  2.5817
  574MOL0     H75736   4.874   4.389   0.643 -0.1342  0.6729  2.7189
  574MOL0     H75737   4.864   4.490   0.495  0.0699 -0.2961  0.8807
  574MOL0     H75738   4.932   4.680   0.632 -0.6998  1.2613  1.3994
  574MOL0     H75739   4.908   4.591   0.781  1.0743 -1.1309  0.6812
  574MOL0     H75740   4.675   4.564   0.604 -0.1086  2.1979 -2.5779
  574MOL0     H75741   4.685   4.613   0.768 -0.4640  2.2533 -0.4307
  574MOL0     H75742   4.691   4.793   0.523 -0.5637  0.1644 -0.4262
  574MOL0     H75743   4.743   4.852   0.691 -1.4113  0.8039  0.3573
  574MOL0     H75744   4.519   4.823   0.752  3.5467  4.7896 -0.1637
  574MOL0     H75745   4.482   4.722   0.611  0.1506  0.2762 -1.5355
  574MOL0     H75746   4.505   4.917   0.452 -5.7648  0.9082 -0.9877
  574MOL0     H75747   4.388   4.947   0.566 -0.0055 -1.9710  0.5480
  574MOL0     H75748   4.546   5.158   0.566  0.4518  1.9084  1.8020
  574MOL0     H75749   4.669   5.051   0.616 -0.6409 -0.6013  0.9908
  574MOL0     H75750   5.261   4.303   0.847  3.6859 -2.3421  2.2949
  574MOL0     H75751   5.495   4.251   0.836 -3.6598 -1.2420  3.2401
  574MOL0     H75752   5.875   4.353   0.331 -2.7297  0.9230  2.9574
  574MOL0     H75753   6.096   4.315   0.311  1.3969 -0.9033  1.2864
  574MOL0     H75754   8.020   4.511   0.770  1.1142 -0.4752  3.0622
  574MOL0     H75755   8.219   4.558   0.908 -0.0399 -0.3329  0.3246
  574MOL0     H75756   8.588   4.775   1.080  0.1383  0.6798 -1.7504
  574MOL0     H75757   8.759   4.776   1.210 -0.8553 -0.2068 -0.4882
  574MOL0     H75758   8.899   4.651   1.385 -1.5854  1.7799 -3.0662
  574MOL0     H75759   8.975   4.795   1.291 -1.4898  0.2283 -1.4472
  574MOL0     H75760   9.194   4.695   1.347  0.1271  0.9520 -0.1185
  574MOL0     H75761   9.111   4.738   1.488  4.2762  1.3940 -1.5832
  574MOL0     H75762   9.072   4.463   1.391 -2.2913  0.2403  0.5072
  574MOL0     H75763   9.044   4.540   1.549  1.3450  0.9287  0.8946
  574MOL0     H75764   9.235   4.395   1.591  1.2641  0.7828 -0.0097
  574MOL0     H75765   9.331   4.477   1.459  0.5316  4.4793 -1.6436
  574MOL0     H75766   9.351   4.772   1.769  0.2669 -2.5434  2.8756
  574MOL0     H75767   8.926   4.407   1.057 -1.7159 -2.3461 -0.2815
  574MOL0     H75768   8.709   4.401   0.897 -0.6345  0.0415 -0.8402
  575MOL0     O75769   1.265   6.332   7.603 -0.3355 -1.2571  0.1788
  575MOL0     C75770   1.346   6.310   7.686 -1.2593  0.2502  0.4076
  575MOL0     O75771   1.324   6.260   7.807  0.1145 -0.8274  0.8717
  575MOL0     C75772   1.228   6.163   7.832  0.2365 -0.8202 -0.1874
  575MOL0     C75773   1.243   6.083   7.944  0.9963  0.0877 -0.2758
  575MOL0     C75774   1.140   5.991   7.984 -0.8447  0.1063  0.3443
  575MOL0     C75775   1.026   5.991   7.908  0.4817  0.2632  0.2572
  575MOL0     O75776   0.926   5.897   7.943  0.2419 -0.5634  0.5805
  575MOL0     C75777   0.877   5.812   7.829  0.3241 -0.8221  0.1920
  575MOL0     C75778   0.910   5.669   7.867  0.4622 -0.1657 -0.6581
  575MOL0     C75779   1.054   5.651   7.908 -0.3003  0.6792 -0.9504
  575MOL0     C75780   1.088   5.500   7.911  0.8490  0.2443  0.8472
  575MOL0     C75781   1.243   5.476   7.941 -0.0138 -0.7728  0.1508
  575MOL0     C75782   1.265   5.325   7.951  0.2016 -0.2108  0.2329
  575MOL0     C75783   1.396   5.287   8.003 -0.3371 -0.6924  0.0693
  575MOL0     C75784   1.443   5.142   7.968  0.2345  0.1548  0.6581
  575MOL0     N75785   1.577   5.116   8.023  0.2141 -0.3732 -0.7435
  575MOL0     C75786   1.663   5.020   7.997 -0.0988 -0.0713  0.8549
  575MOL0     C75787   1.765   5.046   8.082  0.2589  0.9525  0.0898
  575MOL0     C75788   1.895   4.978   8.062  0.4860  0.8166 -0.1277
  575MOL0     C75789   1.956   4.946   8.191  0.2428 -0.0749 -0.6416
  575MOL0     C75790   2.091   4.873   8.153  0.1263  0.4451 -0.4714
  575MOL0     C75791   2.185   4.857   8.271  0.2762 -0.2850  0.0150
  575MOL0     O75792   2.283   4.766   8.231 -0.7499 -0.7390  0.5721
  575MOL0     C75793   2.380   4.725   8.324 -0.6871 -0.4737 -0.7496
  575MOL0     C75794   2.462   4.623   8.272 -0.1069 -0.1985  0.0631
  575MOL0     C75795   2.557   4.575   8.347  0.0539 -0.3394 -0.1218
  575MOL0     C75796   2.585   4.627   8.478  0.0036  0.3513 -0.1840
  575MOL0     C75797   2.692   4.562   8.565  0.5711  0.5892  0.2477
  575MOL0     O75798   2.727   4.626   8.684  0.6792 -0.2850 -0.2484
  575MOL0     C75799   2.835   4.578   8.758  0.1555  1.0507  0.7546
  575MOL0     C75800   2.938   4.491   8.709 -0.1424 -0.1752  0.4092
  575MOL0     C75801   3.049   4.456   8.794  0.5360 -0.0819  0.3348
  575MOL0     C75802   3.050   4.502   8.930  0.0378 -0.3138 -0.3039
  575MOL0     O75803   3.162   4.476   9.002 -0.2347  0.1043 -0.6082
  575MOL0     C75804   3.160   4.342   9.042  0.1893 -0.1163  0.3028
  575MOL0     C75805   3.272   4.286   9.139 -0.3335 -0.2793 -0.0875
  575MOL0     C75806   3.417   4.341   9.109 -0.6605  0.0849  0.3318
  575MOL0     C75807   3.460   4.340   8.957 -1.1550 -0.2318 -0.4095
  575MOL0     C75808   3.510   4.203   8.906 -0.3240 -0.1442  0.0784
  575MOL0     C75809   3.543   4.222   8.756  0.8726  0.6766 -0.7255
  575MOL0     C75810   3.613   4.091   8.709 -0.5100 -0.0133  0.4794
  575MOL0     C75811   3.588   4.057   8.562  0.8530  0.0718  0.1466
  575MOL0    Cl75812   3.651   4.190   8.462 -0.0928 -0.3250 -0.1689
  575MOL0     C75813   2.941   4.591   8.972 -0.0769  0.7022 -0.2084
  575MOL0     C75814   2.831   4.622   8.891 -0.2995 -0.2025 -0.1542
  575MOL0     O75815   2.715   4.444   8.531 -0.4679  0.9123 -0.0294
  575MOL0     C75816   2.495   4.722   8.535  0.0566  0.6644 -0.6950
  575MOL0     C75817   2.398   4.777   8.453 -0.0502  0.0466 -0.2304
  575MOL0     N75818   1.742   5.162   8.149 -1.3222  0.2841  0.6279
  575MOL0     N75819   1.629   5.194   8.123  0.2988  0.5834  0.0481
  575MOL0     C75820   1.017   6.074   7.801 -0.9737  1.0349 -0.0041
  575MOL0     C75821   1.114   6.156   7.762 -0.8427  0.7097  0.1042
  575MOL0     C75822   1.484   6.367   7.654  0.4466  1.4532 -0.5010
  575MOL0     C75823   1.586   6.346   7.751  0.8007  0.1383  0.6170
  575MOL0     C75824   1.714   6.391   7.739 -0.2481 -0.7285 -0.5428
  575MOL0     C75825   1.739   6.475   7.626 -0.5465 -1.0509  0.0363
  575MOL0     O75826   1.860   6.531   7.605 -0.3104 -0.3558 -0.3558
  575MOL0     C75827   1.868   6.670   7.633 -0.6476  0.5272  0.5044
  575MOL0     C75828   2.004   6.729   7.599 -0.3316  0.4027 -0.1323
  575MOL0     C75829   2.121   6.658   7.668 -0.2065  1.1307  0.0298
  575MOL0     C75830   2.249   6.737   7.647  0.1530 -0.5731 -0.1631
  575MOL0     C75831   2.242   6.860   7.721 -0.2987 -0.4531  0.2927
  575MOL0     C75832   2.241   6.957   7.789 -0.1766 -0.2484 -0.5818
  575MOL0     C75833   1.648   6.487   7.525 -0.7625 -0.2675 -0.4307
  575MOL0     C75834   1.526   6.437   7.535  0.2346  0.9162  0.5466
  575MOL0     H75835   1.335   6.078   8.002  1.9417 -0.2652 -1.7433
  575MOL0     H75836   1.167   5.921   8.063  4.9550  1.9317  0.4069
  575MOL0     H75837   0.909   5.849   7.731 -5.2039  1.3820 -1.1379
  575MOL0     H75838   0.770   5.813   7.808  0.7088 -3.1558 -2.4415
  575MOL0     H75839   0.904   5.616   7.772  1.7576  3.2945 -2.8744
  575MOL0     H75840   0.837   5.632   7.940  1.7504 -2.1839 -0.3048
  575MOL0     H75841   1.070   5.705   8.001  1.1703  0.2216 -0.9020
  575MOL0     H75842   1.118   5.695   7.830  0.5423  0.1378 -0.5804
  575MOL0     H75843   1.022   5.440   7.975  1.9514 -3.6047 -1.3307
  575MOL0     H75844   1.072   5.466   7.808 -2.3380  2.7701  0.3401
  575MOL0     H75845   1.268   5.530   8.033 -0.2551  1.3918 -0.9766
  575MOL0     H75846   1.304   5.522   7.862 -1.0891 -0.5811 -0.5960
  575MOL0     H75847   1.250   5.287   7.849 -1.6726  0.6065  0.1593
  575MOL0     H75848   1.190   5.276   8.015 -1.0498 -0.0113 -1.0181
  575MOL0     H75849   1.471   5.360   7.971 -1.3631  0.1308 -0.5253
  575MOL0     H75850   1.395   5.301   8.112  0.5203 -2.0159  0.2617
  575MOL0     H75851   1.448   5.124   7.860 -3.7438 -0.3324  0.3750
  575MOL0     H75852   1.376   5.063   8.003  0.8625 -0.7315 -0.0649
  575MOL0     H75853   1.661   4.943   7.921 -0.6968  1.4355 -0.7261
  575MOL0     H75854   1.950   5.039   7.990 -1.7121  1.0970 -1.6891
  575MOL0     H75855   1.871   4.881   8.018 -0.5305  1.6808 -1.5920
  575MOL0     H75856   1.891   4.887   8.255 -3.9784 -0.0805 -4.4500
  575MOL0     H75857   1.992   5.039   8.237 -2.0703  0.3715  0.3642
  575MOL0     H75858   2.068   4.768   8.133  1.3366  0.1941 -0.6556
  575MOL0     H75859   2.145   4.921   8.071 -1.7410 -0.0897 -2.0765
  575MOL0     H75860   2.126   4.839   8.362  1.5193 -3.5288  0.3139
  575MOL0     H75861   2.225   4.958   8.277 -2.1699  0.9213 -1.9896
  575MOL0     H75862   2.463   4.586   8.170  1.1818 -0.3224  0.0996
  575MOL0     H75863   2.608   4.497   8.291  0.6220  0.5954 -0.9462
  575MOL0     H75864   2.932   4.442   8.612  0.9819 -1.6625  1.0436
  575MOL0     H75865   3.131   4.392   8.763  1.1184  0.6285  0.3542
  575MOL0     H75866   3.160   4.278   8.953  2.0938 -0.8996  0.8026
  575MOL0     H75867   3.057   4.329   9.076 -0.8438  1.2101 -2.0309
  575MOL0     H75868   3.279   4.177   9.139  0.7402 -0.2240  0.1469
  575MOL0     H75869   3.252   4.301   9.246 -1.4482  0.8448 -0.4273
  575MOL0     H75870   3.483   4.288   9.179  1.0136 -1.6266 -2.3585
  575MOL0     H75871   3.424   4.441   9.151  0.0589 -0.4261  1.4841
  575MOL0     H75872   3.373   4.363   8.894 -4.4609  1.6531  4.2053
  575MOL0     H75873   3.544   4.409   8.943  0.1240 -1.5800  0.3760
  575MOL0     H75874   3.438   4.123   8.923  1.1765 -1.8733 -1.2739
  575MOL0     H75875   3.602   4.168   8.953 -1.3314 -1.3341  1.2365
  575MOL0     H75876   3.610   4.307   8.741  1.0822  0.8481  0.9851
  575MOL0     H75877   3.448   4.239   8.703  1.8962  3.4498 -1.8323
  575MOL0     H75878   3.721   4.110   8.718 -0.5391  3.4264 -3.3896
  575MOL0     H75879   3.584   4.006   8.772 -0.3978  0.9467  1.8838
  575MOL0     H75880   3.479   4.053   8.551  1.1226 -0.1682 -4.4174
  575MOL0     H75881   3.632   3.963   8.529  1.0404  0.2528 -0.1236
  575MOL0     H75882   2.951   4.616   9.077  2.4140 -0.9576  0.0364
  575MOL0     H75883   2.748   4.675   8.936  0.0042 -0.5747  0.8545
  575MOL0     H75884   2.511   4.755   8.637 -0.1464 -0.3264 -0.3304
  575MOL0     H75885   2.345   4.866   8.488  3.0070  2.1145 -0.4300
  575MOL0     H75886   0.931   6.073   7.735  0.7781 -0.2946 -2.4590
  575MOL0     H75887   1.091   6.217   7.675 -0.8721 -1.0841 -1.2056
  575MOL0     H75888   1.564   6.282   7.836  0.0354  0.8456  0.9662
  575MOL0     H75889   1.787   6.374   7.817 -1.0249  1.8629  0.8650
  575MOL0     H75890   1.846   6.694   7.738 -1.9841  1.1195  0.1090
  575MOL0     H75891   1.788   6.718   7.578 -0.6124  0.2657  0.2211
  575MOL0     H75892   2.019   6.728   7.491  4.2736  1.9003  0.2547
  575MOL0     H75893   1.997   6.836   7.621 -3.1334  0.4786 -0.9796
  575MOL0     H75894   2.125   6.560   7.620 -2.1593  2.1673 -2.4927
  575MOL0     H75895   2.099   6.647   7.775 -0.1753  0.1586 -0.0603
  575MOL0     H75896   2.326   6.674   7.693  0.4935 -1.8144 -2.2817
  575MOL0     H75897   2.275   6.745   7.541 -2.8785 -0.9514 -1.0337
  575MOL0     H75898   2.235   7.039   7.859 -2.2989 -0.0954 -0.8580
  575MOL0     H75899   1.669   6.522   7.425  1.3118  2.0425  0.7067
  575MOL0     H75900   1.454   6.451   7.455  1.4979 -0.1434 -0.8346
  576MOL0     O75901   7.357   6.131   2.037 -0.1130  0.1484 -0.0948
  576MOL0     C75902   7.451   6.211   2.053 -0.2132  0.2130 -0.3769
  576MOL0     O75903   7.459   6.302   2.155 -0.5614 -0.4650  0.1262
  576MOL0     C75904   7.363   6.311   2.250  0.9679 -1.2327 -0.9554
  576MOL0     C75905   7.236   6.355   2.218 -0.0474  0.5028 -0.8814
  576MOL0     C75906   7.145   6.393   2.312 -0.3624  0.1699  0.9902
  576MOL0     C75907   7.171   6.386   2.450  0.2394  1.0120  0.7796
  576MOL0     O75908   7.089   6.429   2.549 -0.0375  0.5443 -0.1365
  576MOL0     C75909   6.995   6.536   2.497 -0.1483  0.8829 -0.8740
  576MOL0     C75910   6.891   6.584   2.606 -0.1948 -0.1490  0.6286
  576MOL0     C75911   6.750   6.565   2.563  0.4283  0.2006 -0.5687
  576MOL0     C75912   6.656   6.592   2.679 -0.3938 -0.5005  0.6097
  576MOL0     C75913   6.513   6.581   2.629  0.3535 -0.2065 -0.1592
  576MOL0     C75914   6.412   6.569   2.744  0.2209 -0.1852  0.3742
  576MOL0     C75915   6.271   6.552   2.694 -0.2494  0.2607 -0.2955
  576MOL0     C75916   6.189   6.684   2.708  0.8206 -0.6696 -0.0242
  576MOL0     N75917   6.045   6.664   2.681 -0.2227  0.6702 -0.1300
  576MOL0     C75918   6.000   6.590   2.575  0.4115  0.1443  0.8330
  576MOL0     C75919   5.862   6.576   2.611  0.3061  0.4508 -0.0870
  576MOL0     C75920   5.745   6.495   2.542  0.1119  0.1024 -0.1173
  576MOL0     C75921   5.615   6.562   2.564 -0.9419  0.1150  0.1352
  576MOL0     C75922   5.506   6.502   2.470 -0.4394  0.3957 -0.7500
  576MOL0     C75923   5.376   6.576   2.477  0.6604  0.0074  0.2338
  576MOL0     O75924   5.317   6.585   2.610  0.3239 -0.2345 -0.1064
  576MOL0     C75925   5.187   6.621   2.617  0.4035 -0.4088  0.1613
  576MOL0     C75926   5.119   6.577   2.730  1.1630  0.6221  0.1890
  576MOL0     C75927   4.985   6.615   2.754  0.7148 -0.0736 -0.2342
  576MOL0     C75928   4.918   6.700   2.662 -0.4372 -0.4861 -0.8876
  576MOL0     C75929   4.770   6.733   2.685  0.6474  0.0649 -0.1446
  576MOL0     O75930   4.694   6.646   2.761  0.2968  0.4831 -0.3364
  576MOL0     C75931   4.557   6.664   2.752 -0.9259  0.2417 -0.7849
  576MOL0     C75932   4.499   6.580   2.665  1.0098 -0.1107  0.6057
  576MOL0     C75933   4.360   6.573   2.667 -0.3091 -0.3078 -0.5263
  576MOL0     C75934   4.278   6.651   2.758 -0.0586  0.4079  0.3640
  576MOL0     O75935   4.138   6.652   2.745 -0.1196  0.0123 -0.4394
  576MOL0     C75936   4.050   6.618   2.862 -0.8552  0.0810 -0.0060
  576MOL0     C75937   3.973   6.490   2.833 -0.4153  0.6946  0.2432
  576MOL0     C75938   3.898   6.511   2.700 -0.8894 -1.1427  0.4125
  576MOL0     C75939   3.781   6.613   2.720 -0.1671  0.5476  0.4988
  576MOL0     C75940   3.681   6.611   2.597  0.3042  0.5461  0.3440
  576MOL0     C75941   3.548   6.673   2.645 -0.3462 -0.1208  0.5538
  576MOL0     C75942   3.462   6.703   2.523  0.0376 -0.6637  0.5645
  576MOL0     C75943   3.326   6.736   2.579  0.6542 -0.2271  0.3378
  576MOL0    Cl75944   3.235   6.597   2.621 -0.3620 -0.0055 -0.0669
  576MOL0     C75945   4.347   6.725   2.848 -0.4602  0.0330  0.3098
  576MOL0     C75946   4.484   6.733   2.851 -0.3152  0.4140  0.0246
  576MOL0     O75947   4.734   6.839   2.636 -0.1285 -0.6176 -0.3142
  576MOL0     C75948   4.985   6.742   2.542  0.4511  0.7389  0.1467
  576MOL0     C75949   5.119   6.701   2.524  0.0811 -0.3695  0.4113
  576MOL0     N75950   5.837   6.638   2.725  0.0594 -0.6055 -0.4377
  576MOL0     N75951   5.944   6.702   2.766 -0.2841  0.6337 -0.2431
  576MOL0     C75952   7.296   6.332   2.485  0.5197  0.2510 -0.5165
  576MOL0     C75953   7.390   6.298   2.386 -0.3802 -0.5478 -1.1669
  576MOL0     C75954   7.560   6.221   1.949 -0.2469 -0.2807 -0.7573
  576MOL0     C75955   7.555   6.155   1.829  0.1182  0.5321  1.1557
  576MOL0     C75956   7.657   6.179   1.735  0.8392  0.5356 -0.2242
  576MOL0     C75957   7.779   6.235   1.778  0.3821  0.0557  0.2401
  576MOL0     O75958   7.890   6.248   1.702  0.7122 -0.1823  0.5734
  576MOL0     C75959   7.903   6.179   1.578  1.5918  0.0734 -0.1358
  576MOL0     C75960   8.040   6.118   1.567 -0.2301 -0.3419 -0.2944
  576MOL0     C75961   8.147   6.208   1.505  0.7100  0.1922 -0.2313
  576MOL0     C75962   8.283   6.156   1.521  0.0519  1.1131 -0.0695
  576MOL0     C75963   8.331   6.061   1.418 -0.0898 -0.1088  0.3546
  576MOL0     C75964   8.372   5.973   1.346 -0.3089  0.4054  0.5552
  576MOL0     C75965   7.790   6.303   1.901  0.7686 -1.0191  0.3894
  576MOL0     C75966   7.680   6.292   1.992  0.2285  0.8628  0.4644
  576MOL0     H75967   7.201   6.377   2.117  1.1256  1.7921 -1.0360
  576MOL0     H75968   7.050   6.413   2.264 -0.2294 -2.5152 -0.6016
  576MOL0     H75969   6.935   6.479   2.426 -1.8822 -4.1677  3.9382
  576MOL0     H75970   7.045   6.629   2.468  2.7257 -0.2856  0.0682
  576MOL0     H75971   6.916   6.685   2.638  2.0632 -0.9643  1.6582
  576MOL0     H75972   6.911   6.517   2.691  1.8882  0.9865  1.0904
  576MOL0     H75973   6.728   6.469   2.514  1.1402  1.2083 -3.0609
  576MOL0     H75974   6.729   6.641   2.486 -1.8928 -0.9787 -1.2084
  576MOL0     H75975   6.677   6.535   2.770 -1.1624  0.4266  1.4005
  576MOL0     H75976   6.666   6.694   2.718 -2.1641 -0.2895  0.6002
  576MOL0     H75977   6.508   6.485   2.578  3.8910  0.2738 -1.7012
  576MOL0     H75978   6.488   6.669   2.569  0.4863  0.1537  0.3053
  576MOL0     H75979   6.414   6.653   2.814  0.6873  1.0059 -1.0296
  576MOL0     H75980   6.446   6.474   2.787  3.4507 -0.8134 -3.0267
  576MOL0     H75981   6.262   6.514   2.592 -1.7760  3.3166 -1.4308
  576MOL0     H75982   6.212   6.487   2.760 -0.5667  1.0161  0.1846
  576MOL0     H75983   6.235   6.754   2.637  2.6165  0.0579  1.7672
  576MOL0     H75984   6.197   6.727   2.808  1.9236 -1.3656  0.2067
  576MOL0     H75985   6.061   6.546   2.497  0.4540  2.4323 -0.5042
  576MOL0     H75986   5.742   6.394   2.583 -3.6268  0.7321  1.5389
  576MOL0     H75987   5.760   6.490   2.433  1.0281  0.0396  0.0053
  576MOL0     H75988   5.629   6.669   2.548 -1.4645  0.3165  0.9517
  576MOL0     H75989   5.591   6.555   2.671 -1.6444  1.1017  0.0512
  576MOL0     H75990   5.537   6.499   2.366  1.1189  0.2623 -0.3005
  576MOL0     H75991   5.481   6.409   2.523 -1.5149  1.7561  1.2766
  576MOL0     H75992   5.305   6.525   2.412 -0.9758 -0.5490  2.3291
  576MOL0     H75993   5.406   6.677   2.449  1.5166 -0.7635 -1.8182
  576MOL0     H75994   5.168   6.521   2.809 -0.0798  1.1024  1.3596
  576MOL0     H75995   4.924   6.580   2.837 -0.6426  0.3492 -1.0205
  576MOL0     H75996   4.549   6.513   2.596  0.7910  0.2651  0.0696
  576MOL0     H75997   4.312   6.503   2.599 -0.4453  2.1371 -3.1002
  576MOL0     H75998   3.991   6.709   2.875  2.7780  2.5303  1.1359
  576MOL0     H75999   4.105   6.597   2.955 -0.9374  2.9958  0.7903
  576MOL0     H76000   3.899   6.470   2.911  1.6936 -0.5309  2.0751
  576MOL0     H76001   4.034   6.400   2.846 -0.2016  1.0555  2.0849
  576MOL0     H76002   3.855   6.413   2.680 -1.0313 -0.4103 -3.6785
  576MOL0     H76003   3.964   6.546   2.620 -0.8353 -2.7715 -0.2917
  576MOL0     H76004   3.734   6.567   2.808 -1.5943 -1.9453 -1.4538
  576MOL0     H76005   3.822   6.712   2.744 -0.4167  0.5310  1.0158
  576MOL0     H76006   3.662   6.507   2.568  1.5785  0.0632  1.1665
  576MOL0     H76007   3.720   6.658   2.507 -2.1620 -0.6519 -1.4557
  576MOL0     H76008   3.575   6.765   2.697  1.4387 -0.0203 -0.4805
  576MOL0     H76009   3.500   6.596   2.706 -0.4628 -1.4702 -1.1509
  576MOL0     H76010   3.500   6.784   2.460  1.7724 -2.5216 -0.9278
  576MOL0     H76011   3.459   6.616   2.456 -0.7919  0.1190 -0.4545
  576MOL0     H76012   3.274   6.783   2.495 -2.2311  2.2979  3.2660
  576MOL0     H76013   3.326   6.809   2.661  3.9468  1.4790 -1.0189
  576MOL0     H76014   4.284   6.779   2.917  0.1213 -0.4217  1.2139
  576MOL0     H76015   4.543   6.786   2.926 -0.3426  1.3585 -0.5970
  576MOL0     H76016   4.925   6.800   2.473 -0.2467  1.7873  1.5732
  576MOL0     H76017   5.179   6.731   2.439  0.9308  2.2086  1.8111
  576MOL0     H76018   7.339   6.328   2.585  2.4193 -2.3918 -1.3421
  576MOL0     H76019   7.497   6.289   2.404 -0.5780 -1.4154 -0.3514
  576MOL0     H76020   7.460   6.113   1.797  0.2146  0.8800  0.3965
  576MOL0     H76021   7.640   6.136   1.637  2.2342  0.3826 -0.4315
  576MOL0     H76022   7.886   6.248   1.495 -1.2421 -0.0876  0.2011
  576MOL0     H76023   7.833   6.096   1.566  3.3778 -1.5627  0.3083
  576MOL0     H76024   8.079   6.097   1.667 -0.1941 -1.6687 -0.5665
  576MOL0     H76025   8.046   6.022   1.515  3.5905 -0.6602  0.4769
  576MOL0     H76026   8.149   6.301   1.562 -0.2560 -0.3567  0.7359
  576MOL0     H76027   8.121   6.227   1.401 -1.2641  1.3640  0.4050
  576MOL0     H76028   8.354   6.240   1.521  1.6631 -0.0818 -3.2888
  576MOL0     H76029   8.290   6.098   1.613 -4.8504 -0.4584 -0.4081
  576MOL0     H76030   8.417   5.907   1.275  2.3365  1.6716  0.9220
  576MOL0     H76031   7.878   6.357   1.932  1.2191 -1.3899 -0.2157
  576MOL0     H76032   7.691   6.357   2.078 -1.8515  0.0267  1.4344
  577MOL0     O76033   6.734   4.991   8.455 -0.8670  0.5076 -0.0759
  577MOL0     C76034   6.632   4.950   8.394 -0.0691 -0.0703  0.2542
  577MOL0     O76035   6.634   4.860   8.299  0.0781 -0.1176 -0.1450
  577MOL0     C76036   6.766   4.840   8.262 -0.2450  0.1425  0.3231
  577MOL0     C76037   6.826   4.721   8.295  0.1621 -0.9017  0.7847
  577MOL0     C76038   6.957   4.700   8.239 -0.4383 -0.2887 -0.7383
  577MOL0     C76039   7.018   4.790   8.160 -0.1336 -1.1532 -0.5333
  577MOL0     O76040   7.139   4.754   8.111  0.2748 -0.3804 -0.6261
  577MOL0     C76041   7.136   4.733   7.969  0.2762  0.1516  0.8825
  577MOL0     C76042   7.283   4.765   7.925  0.0054 -0.3530 -0.0755
  577MOL0     C76043   7.309   4.729   7.786 -0.8745  1.0305  0.0275
  577MOL0     C76044   7.316   4.578   7.774 -0.1593  0.6764 -0.1986
  577MOL0     C76045   7.337   4.540   7.621  0.3999 -0.1520  0.5731
  577MOL0     C76046   7.304   4.395   7.595 -0.2069 -1.1735  0.6079
  577MOL0     C76047   7.318   4.371   7.447  0.7305  0.0134 -0.0857
  577MOL0     C76048   7.244   4.247   7.390  0.1801  0.3380  0.3585
  577MOL0     N76049   7.106   4.251   7.412 -0.1669  0.2226 -0.5687
  577MOL0     C76050   7.015   4.335   7.357  0.0925 -0.2857  0.7540
  577MOL0     C76051   6.889   4.297   7.404 -0.0929 -0.6503  0.3148
  577MOL0     C76052   6.765   4.359   7.350  0.3150  0.8070 -0.7732
  577MOL0     C76053   6.660   4.401   7.448  0.1434  0.3779  0.5458
  577MOL0     C76054   6.591   4.298   7.536  0.1780 -0.3123  0.3579
  577MOL0     C76055   6.542   4.174   7.461  0.1688  0.4837  0.8934
  577MOL0     O76056   6.447   4.091   7.529  0.1338 -0.5074  0.2153
  577MOL0     C76057   6.328   4.153   7.557  0.1514  0.8715  0.1444
  577MOL0     C76058   6.263   4.248   7.486 -0.1659  0.1813 -0.1568
  577MOL0     C76059   6.132   4.293   7.510 -0.1505  0.3761  0.8562
  577MOL0     C76060   6.055   4.242   7.615  0.0587 -1.0341  0.6730
  577MOL0     C76061   5.918   4.282   7.635  0.5601 -0.7499  0.4895
  577MOL0     O76062   5.858   4.229   7.745  1.0094 -0.0517 -0.5613
  577MOL0     C76063   5.720   4.237   7.747  0.7677 -0.3291  0.9243
  577MOL0     C76064   5.666   4.262   7.880  0.4324 -0.0435  0.7025
  577MOL0     C76065   5.526   4.254   7.905  1.0621 -0.0950  0.7230
  577MOL0     C76066   5.441   4.229   7.792 -0.1158 -0.0875 -0.1396
  577MOL0     O76067   5.303   4.230   7.804  0.3752 -0.2498 -0.0079
  577MOL0     C76068   5.249   4.146   7.900  0.6070  0.8244 -0.0638
  577MOL0     C76069   5.246   4.002   7.839 -0.2355  0.3952 -0.1646
  577MOL0     C76070   5.342   3.896   7.881 -0.1076  0.2256  0.3208
  577MOL0     C76071   5.322   3.837   8.021 -0.5911  0.0499 -0.4800
  577MOL0     C76072   5.429   3.730   8.055 -0.3290 -0.0507 -0.3261
  577MOL0     C76073   5.412   3.703   8.206 -0.5613 -0.1531 -0.4514
  577MOL0     C76074   5.509   3.595   8.262 -0.3411 -0.6384  0.2367
  577MOL0     C76075   5.496   3.456   8.190  0.0946 -1.1137  0.7232
  577MOL0    Cl76076   5.328   3.387   8.181  0.5400  0.2899  0.2032
  577MOL0     C76077   5.494   4.189   7.669  0.0790  0.2279 -0.0607
  577MOL0     C76078   5.631   4.194   7.638  0.2885  0.3097 -0.9670
  577MOL0     O76079   5.867   4.353   7.548  0.2198 -0.1844  0.3387
  577MOL0     C76080   6.126   4.152   7.696  0.3861 -0.1242  1.4919
  577MOL0     C76081   6.259   4.101   7.668 -0.6548 -1.1236 -0.0685
  577MOL0     N76082   6.912   4.194   7.494 -0.7126 -0.1998 -0.5576
  577MOL0     N76083   7.042   4.164   7.499  0.2864 -0.5085  0.5612
  577MOL0     C76084   6.960   4.910   8.135 -0.8654  0.7597 -0.3491
  577MOL0     C76085   6.831   4.929   8.175 -0.1019  0.0515 -0.4818
  577MOL0     C76086   6.505   5.014   8.414 -0.7833 -0.3112  0.6615
  577MOL0     C76087   6.393   4.952   8.361  0.6352 -0.0847  0.8669
  577MOL0     C76088   6.268   5.016   8.370  0.9354  0.6584 -0.7691
  577MOL0     C76089   6.253   5.135   8.453  0.7259  0.2765  0.3407
  577MOL0     O76090   6.137   5.199   8.478  0.1596 -0.1337 -0.3013
  577MOL0     C76091   6.015   5.127   8.484 -0.5523 -0.0573  0.5217
  577MOL0     C76092   5.896   5.222   8.517  0.1511 -0.6364 -0.6589
  577MOL0     C76093   5.877   5.338   8.420  0.2417 -0.8684  0.3845
  577MOL0     C76094   5.782   5.304   8.306  0.4691  0.1525  0.5630
  577MOL0     C76095   5.774   5.416   8.209  0.2214 -0.4961 -1.0020
  577MOL0     C76096   5.766   5.512   8.141  1.4001  0.2899  0.2482
  577MOL0     C76097   6.364   5.195   8.510  0.0677  0.6149  0.2801
  577MOL0     C76098   6.489   5.135   8.476 -0.8835 -0.4489  0.3392
  577MOL0     H76099   6.774   4.649   8.358 -1.0026 -0.4715  0.3546
  577MOL0     H76100   7.020   4.614   8.258 -1.5356 -0.8983  0.2460
  577MOL0     H76101   7.071   4.800   7.912  2.5463  1.4176 -0.3626
  577MOL0     H76102   7.112   4.627   7.960 -0.7254  0.4180  0.2504
  577MOL0     H76103   7.355   4.734   8.002 -0.9271 -0.1042  0.9152
  577MOL0     H76104   7.297   4.874   7.928  0.9377 -0.4645 -0.0346
  577MOL0     H76105   7.406   4.764   7.750  0.6532 -1.2874  1.6085
  577MOL0     H76106   7.234   4.769   7.716 -1.4283  0.1893  0.1264
  577MOL0     H76107   7.402   4.549   7.835  0.6243 -1.4823 -2.2001
  577MOL0     H76108   7.236   4.518   7.819  0.0781  0.0880 -0.5475
  577MOL0     H76109   7.437   4.575   7.594 -1.0920  4.3834  0.1055
  577MOL0     H76110   7.268   4.603   7.564  0.9425  0.6010  0.7298
  577MOL0     H76111   7.199   4.372   7.616  0.0918 -3.1789  0.1053
  577MOL0     H76112   7.357   4.331   7.666 -2.4236 -0.6300  2.9235
  577MOL0     H76113   7.278   4.452   7.385  0.5883  2.0843  2.5541
  577MOL0     H76114   7.422   4.368   7.413  0.4162  1.1445 -1.2105
  577MOL0     H76115   7.285   4.153   7.429  2.3507  1.2858  0.5045
  577MOL0     H76116   7.263   4.253   7.282  0.0683 -0.3852  0.2929
  577MOL0     H76117   7.030   4.410   7.280 -0.9823 -0.0420  0.7634
  577MOL0     H76118   6.720   4.285   7.283  1.2537 -1.9587  1.4210
  577MOL0     H76119   6.792   4.445   7.289 -2.0779  1.4133 -1.0789
  577MOL0     H76120   6.590   4.466   7.394 -1.8965 -0.1298  2.4028
  577MOL0     H76121   6.711   4.465   7.520  1.8181  0.1894 -0.4223
  577MOL0     H76122   6.661   4.257   7.609  1.5929 -2.8339 -2.2174
  577MOL0     H76123   6.516   4.350   7.596 -1.6105 -2.0456 -0.2693
  577MOL0     H76124   6.617   4.103   7.424  0.8229  0.4803  2.1713
  577MOL0     H76125   6.499   4.209   7.367 -0.7635 -0.5093  0.9328
  577MOL0     H76126   6.318   4.282   7.399 -1.4063  0.7287 -0.7388
  577MOL0     H76127   6.092   4.358   7.433 -2.1009  0.7792  2.1218
  577MOL0     H76128   5.733   4.274   7.964 -1.8325  0.1361  2.5917
  577MOL0     H76129   5.490   4.268   8.007  0.4778 -1.2605  0.6901
  577MOL0     H76130   5.143   4.172   7.910 -0.2571 -1.9249 -1.0820
  577MOL0     H76131   5.298   4.152   7.998 -2.4397 -0.4193  1.7004
  577MOL0     H76132   5.246   3.999   7.730  1.7626  1.0435 -0.2287
  577MOL0     H76133   5.152   3.962   7.878  0.5056 -0.0263  1.2618
  577MOL0     H76134   5.433   3.957   7.876 -1.6369  2.6105 -0.2045
  577MOL0     H76135   5.342   3.810   7.814  0.5603  0.5441 -0.0929
  577MOL0     H76136   5.335   3.924   8.086  1.4564 -0.8090  0.3678
  577MOL0     H76137   5.221   3.800   8.038 -0.3014  0.1320  1.7015
  577MOL0     H76138   5.531   3.762   8.029  0.0184 -2.9868 -3.2792
  577MOL0     H76139   5.408   3.638   7.999  2.3530 -1.3792  0.6555
  577MOL0     H76140   5.309   3.669   8.221 -0.5626  0.2380  0.5075
  577MOL0     H76141   5.429   3.784   8.278 -0.9083  0.1548 -0.7066
  577MOL0     H76142   5.613   3.628   8.256 -0.0975 -1.6801 -2.2046
  577MOL0     H76143   5.494   3.576   8.369 -1.2073 -1.4614 -0.0196
  577MOL0     H76144   5.569   3.387   8.234  0.8940  0.4258  1.9185
  577MOL0     H76145   5.518   3.464   8.083 -2.2066 -0.3504  0.2561
  577MOL0     H76146   5.425   4.156   7.592  0.2191 -0.9032  0.2797
  577MOL0     H76147   5.669   4.157   7.544 -0.7005 -3.5490 -0.0356
  577MOL0     H76148   6.064   4.104   7.771 -1.7734  1.8330  1.0716
  577MOL0     H76149   6.288   4.019   7.733 -1.8288 -1.4371  0.0820
  577MOL0     H76150   7.007   4.980   8.067 -2.1031  1.7165 -0.2579
  577MOL0     H76151   6.776   5.014   8.137 -0.4907  0.1904  0.3581
  577MOL0     H76152   6.399   4.869   8.292  3.1301  0.3871  0.3903
  577MOL0     H76153   6.182   4.973   8.321  0.6354 -0.8147  0.9061
  577MOL0     H76154   6.014   5.046   8.557 -2.0870  0.9598  1.6939
  577MOL0     H76155   5.997   5.092   8.382 -1.9134  2.0762 -0.0534
  577MOL0     H76156   5.795   5.184   8.533 -1.7672  3.7519 -0.9204
  577MOL0     H76157   5.921   5.264   8.614 -0.8267  2.2521 -1.5636
  577MOL0     H76158   5.974   5.368   8.379 -0.2763 -0.8766 -0.8969
  577MOL0     H76159   5.827   5.423   8.466 -1.1432 -1.8772  0.7842
  577MOL0     H76160   5.807   5.213   8.249  2.9086 -0.3281  2.2265
  577MOL0     H76161   5.688   5.286   8.358  0.9004 -0.2606  1.2093
  577MOL0     H76162   5.780   5.591   8.070  1.1961 -0.8070 -1.0414
  577MOL0     H76163   6.353   5.292   8.558  1.7753 -0.2819  2.6565
  577MOL0     H76164   6.575   5.184   8.520  0.4766 -0.7317 -1.8600
  578MOL0     O76165   3.822   2.376   2.650 -0.4322  0.3153 -0.0186
  578MOL0     C76166   3.823   2.392   2.775  0.6003 -0.3920  0.4206
  578MOL0     O76167   3.712   2.407   2.855 -0.3370 -0.0181 -0.1158
  578MOL0     C76168   3.579   2.401   2.810  0.1348  0.1818 -0.9351
  578MOL0     C76169   3.477   2.399   2.913 -0.8661 -1.0277  0.1304
  578MOL0     C76170   3.344   2.387   2.874 -0.7941  0.0299 -0.4800
  578MOL0     C76171   3.303   2.398   2.741  0.2040  0.9224 -0.6080
  578MOL0     O76172   3.161   2.405   2.725  0.1735 -0.9859 -0.0715
  578MOL0     C76173   3.115   2.404   2.585 -0.5672  0.1866  0.0140
  578MOL0     C76174   2.969   2.361   2.579 -0.5009  0.3595  0.5050
  578MOL0     C76175   2.924   2.337   2.433  0.5455 -0.0402  0.6043
  578MOL0     C76176   2.781   2.298   2.415  0.4109 -0.6753 -0.0513
  578MOL0     C76177   2.756   2.259   2.269 -0.2679 -0.6267  0.1675
  578MOL0     C76178   2.600   2.215   2.243 -0.0665 -0.1226  0.6961
  578MOL0     C76179   2.576   2.172   2.095  0.2894 -0.1064  0.2784
  578MOL0     C76180   2.429   2.197   2.071 -0.3961  1.3276  0.1102
  578MOL0     N76181   2.387   2.133   1.948 -0.2594  0.0303 -0.2933
  578MOL0     C76182   2.327   2.012   1.928  0.3499 -0.4100  0.0475
  578MOL0     C76183   2.320   1.997   1.794  0.1313 -0.0842 -0.9674
  578MOL0     C76184   2.250   1.877   1.730 -0.3987  0.1819 -0.2423
  578MOL0     C76185   2.188   1.890   1.585 -0.1441 -0.3730  0.4165
  578MOL0     C76186   2.104   1.768   1.538 -0.5246  0.5309 -0.6954
  578MOL0     C76187   2.061   1.785   1.395 -0.0957  0.4095  0.3004
  578MOL0     O76188   2.173   1.786   1.305 -0.0364 -0.6012 -0.6805
  578MOL0     C76189   2.197   1.656   1.253 -0.1533 -1.1413  0.1965
  578MOL0     C76190   2.109   1.598   1.156 -0.1040 -0.1242 -0.3839
  578MOL0     C76191   2.150   1.488   1.088  0.5472  0.6288  0.7294
  578MOL0     C76192   2.264   1.418   1.130  0.0734 -0.0738 -0.0082
  578MOL0     C76193   2.313   1.305   1.051 -0.2906 -0.6429  0.0153
  578MOL0     O76194   2.265   1.294   0.927  0.0634 -0.4773  0.4040
  578MOL0     C76195   2.328   1.204   0.843  0.0750  0.0196  1.1252
  578MOL0     C76196   2.454   1.224   0.780  0.1865 -0.6219 -0.0967
  578MOL0     C76197   2.523   1.121   0.721 -0.7414 -0.6524 -0.2674
  578MOL0     C76198   2.444   0.999   0.687 -0.4930 -0.0890 -0.5032
  578MOL0     O76199   2.493   0.900   0.614 -1.0486  0.1780  0.5135
  578MOL0     C76200   2.456   0.913   0.471  0.4308  0.4429 -0.3647
  578MOL0     C76201   2.560   1.002   0.396  0.1941  0.1264 -0.2814
  578MOL0     C76202   2.698   0.933   0.405  0.2306 -1.1388 -0.8734
  578MOL0     C76203   2.804   1.033   0.362  0.2016  0.1585  0.5114
  578MOL0     C76204   2.933   0.945   0.328  0.3140  0.8437 -0.3640
  578MOL0     C76205   3.056   1.036   0.342 -0.3481  0.6780 -0.0585
  578MOL0     C76206   3.190   0.976   0.312 -0.1638  0.8488  0.2286
  578MOL0     C76207   3.211   0.970   0.155 -0.4965 -0.1506  0.5943
  578MOL0    Cl76208   3.381   0.919   0.125  0.2769 -0.1930  0.0130
  578MOL0     C76209   2.318   0.984   0.748 -0.2249  0.3545  0.5801
  578MOL0     C76210   2.257   1.085   0.823  0.1281  0.3132 -0.5798
  578MOL0     O76211   2.404   1.240   1.096  0.0804  0.4951 -0.3147
  578MOL0     C76212   2.332   1.456   1.244  0.7466 -1.0623  0.7500
  578MOL0     C76213   2.302   1.579   1.303  0.6459  0.5321 -0.1284
  578MOL0     N76214   2.372   2.107   1.736 -0.4165  0.4232  0.6586
  578MOL0     N76215   2.407   2.187   1.824 -1.1719  0.9769 -0.0680
  578MOL0     C76216   3.393   2.409   2.639  0.1845 -1.3637  0.2649
  578MOL0     C76217   3.530   2.411   2.676 -0.3034  0.6953 -0.7528
  578MOL0     C76218   3.956   2.374   2.850 -0.2560  0.6083  1.1042
  578MOL0     C76219   3.958   2.397   2.982 -0.6368 -0.2959 -0.5715
  578MOL0     C76220   4.068   2.380   3.059 -0.9614  0.1588  0.1645
  578MOL0     C76221   4.181   2.324   3.005  0.1004  0.1884 -0.3917
  578MOL0     O76222   4.279   2.302   3.099 -0.4847  0.3064  0.0581
  578MOL0     C76223   4.394   2.229   3.040  0.9570  0.6213 -0.6741
  578MOL0     C76224   4.493   2.230   3.148 -0.1072 -0.5528  0.0026
  578MOL0     C76225   4.439   2.173   3.292 -0.1195  0.5917  0.3409
  578MOL0     C76226   4.380   2.024   3.275 -0.2902 -1.0678 -0.9712
  578MOL0     C76227   4.314   1.999   3.402  0.1236 -0.6923  0.1340
  578MOL0     C76228   4.251   1.983   3.508  0.0747  0.4812  0.2934
  578MOL0     C76229   4.186   2.292   2.868  0.7003  0.3020 -0.4203
  578MOL0     C76230   4.068   2.313   2.788 -0.7756 -0.5722  0.1439
  578MOL0     H76231   3.510   2.393   3.017 -0.8318 -0.4212  0.1569
  578MOL0     H76232   3.270   2.384   2.953 -3.8909  3.8693 -2.8883
  578MOL0     H76233   3.168   2.319   2.541 -2.1477 -1.0585  0.4261
  578MOL0     H76234   3.131   2.499   2.533  1.8626 -0.7937 -1.2264
  578MOL0     H76235   2.907   2.432   2.634  0.2118 -1.4417  3.9067
  578MOL0     H76236   2.955   2.266   2.630 -0.4241 -0.7398 -1.4454
  578MOL0     H76237   2.986   2.263   2.381 -0.6458 -0.1805 -0.6788
  578MOL0     H76238   2.934   2.432   2.379 -2.0877 -1.5441 -2.9125
  578MOL0     H76239   2.761   2.210   2.478 -0.6183 -1.8616 -1.9289
  578MOL0     H76240   2.711   2.379   2.439 -1.0289 -1.1143 -2.3967
  578MOL0     H76241   2.827   2.178   2.247  2.4029  0.8600  2.5996
  578MOL0     H76242   2.778   2.339   2.198 -0.2048  0.8492  1.8045
  578MOL0     H76243   2.552   2.313   2.258 -1.8578 -0.8024 -0.3087
  578MOL0     H76244   2.567   2.137   2.312  1.3856 -2.1568 -0.8034
  578MOL0     H76245   2.633   2.237   2.029  2.1176  0.2997  2.1526
  578MOL0     H76246   2.594   2.068   2.068 -1.1232 -0.6962  1.4476
  578MOL0     H76247   2.404   2.303   2.062 -0.8794  1.2441  0.4136
  578MOL0     H76248   2.368   2.167   2.157  2.0713 -1.2035  1.1415
  578MOL0     H76249   2.272   1.945   1.993 -0.1732  0.8212  0.9139
  578MOL0     H76250   2.175   1.838   1.799 -0.8177  0.2860 -0.6382
  578MOL0     H76251   2.324   1.796   1.735 -1.5594 -0.8374  1.7109
  578MOL0     H76252   2.274   1.912   1.521  0.0882  0.5624  1.0243
  578MOL0     H76253   2.122   1.977   1.578  0.2434  0.1002  2.0888
  578MOL0     H76254   2.160   1.677   1.561 -0.4470  1.4382  3.6048
  578MOL0     H76255   2.019   1.758   1.606 -1.3278 -0.8783 -1.8495
  578MOL0     H76256   2.001   1.874   1.374  0.6843  0.3520 -2.5244
  578MOL0     H76257   2.006   1.693   1.374  2.7250 -1.5477  0.9565
  578MOL0     H76258   2.020   1.644   1.113  1.0445 -0.0998 -2.9322
  578MOL0     H76259   2.105   1.455   0.995  0.5196  1.6576  0.3614
  578MOL0     H76260   2.496   1.324   0.790 -3.2710  0.8861  1.2469
  578MOL0     H76261   2.627   1.138   0.695  0.5748 -5.3466  0.8016
  578MOL0     H76262   2.356   0.956   0.462  1.5676  3.0619 -1.5216
  578MOL0     H76263   2.446   0.815   0.423 -0.9685  0.7614 -0.7760
  578MOL0     H76264   2.562   1.098   0.449 -2.9304  0.1890 -0.0635
  578MOL0     H76265   2.519   1.008   0.294 -1.7770  0.7819  0.5007
  578MOL0     H76266   2.707   0.842   0.345  0.1118  0.6243 -3.7586
  578MOL0     H76267   2.731   0.912   0.507  2.5200 -0.2376 -1.3535
  578MOL0     H76268   2.776   1.084   0.270  0.0343 -2.3734 -0.9295
  578MOL0     H76269   2.813   1.100   0.449 -0.4662 -0.7504  1.3070
  578MOL0     H76270   2.930   0.903   0.227 -1.2861 -2.5960  0.9488
  578MOL0     H76271   2.934   0.861   0.397 -3.3463 -0.2269 -1.4168
  578MOL0     H76272   3.063   1.075   0.444  1.3067 -0.4844  0.3168
  578MOL0     H76273   3.051   1.125   0.278  0.1322 -0.2413 -1.4227
  578MOL0     H76274   3.263   1.048   0.350  1.5492 -0.8356  0.2490
  578MOL0     H76275   3.208   0.876   0.351  2.1045  1.0421 -0.1864
  578MOL0     H76276   3.185   1.057   0.094  0.6711 -1.5768 -2.1336
  578MOL0     H76277   3.149   0.891   0.113 -1.5289  0.1675  1.4773
  578MOL0     H76278   2.270   0.889   0.726 -0.4855  0.0627  2.2849
  578MOL0     H76279   2.156   1.071   0.860  0.4906  2.1888  1.3657
  578MOL0     H76280   2.412   1.403   1.295 -0.6632 -0.6860  3.5399
  578MOL0     H76281   2.345   1.609   1.398 -1.9778 -0.4050  1.4624
  578MOL0     H76282   3.373   2.426   2.534  1.4671 -1.2396  0.0222
  578MOL0     H76283   3.612   2.429   2.607  0.8349 -0.9554  0.1160
  578MOL0     H76284   3.871   2.442   3.027 -0.6169  0.2375 -1.0487
  578MOL0     H76285   4.072   2.417   3.161 -1.7107  1.6409 -0.3228
  578MOL0     H76286   4.421   2.274   2.943 -0.8297  3.6022  0.0725
  578MOL0     H76287   4.370   2.126   3.012 -1.8903  1.5321 -1.9777
  578MOL0     H76288   4.580   2.173   3.113 -0.1143 -0.6197  0.0934
  578MOL0     H76289   4.538   2.330   3.153  0.4261 -0.8520  2.2592
  578MOL0     H76290   4.358   2.235   3.332 -0.4972 -2.2803  4.7246
  578MOL0     H76291   4.529   2.177   3.354 -0.4364  2.4499  0.7463
  578MOL0     H76292   4.308   2.030   3.193  0.8504 -2.3322 -2.1122
  578MOL0     H76293   4.455   1.953   3.241  0.1744 -0.7041 -0.7248
  578MOL0     H76294   4.200   1.957   3.599 -1.3758 -0.8812 -0.8548
  578MOL0     H76295   4.269   2.243   2.819  2.7341  0.8339  2.2691
  578MOL0     H76296   4.071   2.288   2.683  2.4423 -0.6730  0.1744
  579MOL0     O76297   2.015   3.611   4.227  0.4166  0.1755 -0.8531
  579MOL0     C76298   2.072   3.709   4.189 -0.9919  0.3801 -0.2670
  579MOL0     O76299   2.188   3.695   4.123 -0.0154 -0.4793 -0.0084
  579MOL0     C76300   2.261   3.577   4.136 -0.1045 -0.4388  0.4325
  579MOL0     C76301   2.336   3.549   4.256  0.7878  1.2545 -0.3464
  579MOL0     C76302   2.436   3.451   4.252  0.4398  0.7715 -0.7320
  579MOL0     C76303   2.467   3.380   4.137 -0.1018 -0.1936  0.2717
  579MOL0     O76304   2.587   3.306   4.131  0.2275  0.8326  0.1169
  579MOL0     C76305   2.650   3.239   4.023  0.6580  0.3838 -0.1721
  579MOL0     C76306   2.770   3.163   4.064 -0.4868 -0.6219 -0.2025
  579MOL0     C76307   2.847   3.091   3.952  1.2429 -0.6275 -0.3357
  579MOL0     C76308   2.918   3.202   3.862  0.0751  0.9747  0.8323
  579MOL0     C76309   2.983   3.145   3.729  0.4217 -0.1022 -1.1979
  579MOL0     C76310   3.046   3.258   3.657 -0.1171  1.0116 -0.5870
  579MOL0     C76311   3.094   3.207   3.525 -0.8409 -0.1877  0.2661
  579MOL0     C76312   3.163   3.326   3.455 -0.2792  0.2324  0.1351
  579MOL0     N76313   3.075   3.433   3.406 -0.2854 -0.1442 -0.3315
  579MOL0     C76314   3.102   3.567   3.399 -0.1263  0.6339 -0.7663
  579MOL0     C76315   2.983   3.623   3.346 -0.5191  0.0616 -0.6354
  579MOL0     C76316   2.978   3.774   3.309 -1.2960  0.3406  0.3281
  579MOL0     C76317   2.835   3.822   3.335 -0.1836 -0.3511  0.1901
  579MOL0     C76318   2.804   3.827   3.487  0.4473 -1.1841 -0.6382
  579MOL0     C76319   2.668   3.893   3.512  0.3372 -0.0721 -0.0303
  579MOL0     O76320   2.676   4.032   3.471  0.4640  0.3954 -0.2707
  579MOL0     C76321   2.554   4.112   3.482 -0.7958  0.2764  0.6053
  579MOL0     C76322   2.424   4.056   3.498  0.0440  0.0551  0.3427
  579MOL0     C76323   2.314   4.147   3.507  0.0440 -0.5549  1.0511
  579MOL0     C76324   2.334   4.286   3.519  1.1284  0.0932 -0.0933
  579MOL0     C76325   2.218   4.377   3.545  0.1185 -0.3121  0.0410
  579MOL0     O76326   2.090   4.351   3.487  0.0079 -0.7026 -0.9305
  579MOL0     C76327   1.992   4.451   3.486  0.5074 -0.5642  1.0246
  579MOL0     C76328   2.013   4.584   3.447  0.8312 -0.3709 -0.9835
  579MOL0     C76329   1.895   4.659   3.430 -1.0029  0.7815  0.3822
  579MOL0     C76330   1.758   4.607   3.428 -0.3329 -0.2188  0.3268
  579MOL0     O76331   1.643   4.676   3.395 -0.3670 -0.3162 -0.4014
  579MOL0     C76332   1.658   4.817   3.362  0.5414 -0.1791 -0.6163
  579MOL0     C76333   1.522   4.880   3.374 -0.0601  0.0605 -0.0561
  579MOL0     C76334   1.446   4.915   3.240  0.1263 -0.1018  0.3323
  579MOL0     C76335   1.428   4.780   3.157 -0.4896  0.6365 -0.0546
  579MOL0     C76336   1.376   4.824   3.015 -1.1275  0.6104 -0.3131
  579MOL0     C76337   1.350   4.690   2.927  0.5152 -0.5182  0.2001
  579MOL0     C76338   1.221   4.609   2.948 -0.2416 -0.5602 -0.1046
  579MOL0     C76339   1.092   4.685   2.906 -0.0674  1.5814  0.0599
  579MOL0    Cl76340   0.956   4.573   2.934 -0.7135 -0.0575 -0.0760
  579MOL0     C76341   1.749   4.479   3.482 -0.1990  0.5753  0.4658
  579MOL0     C76342   1.861   4.404   3.497  0.4225  0.1773 -0.2895
  579MOL0     O76343   2.237   4.474   3.623 -0.4672 -0.6226  0.0074
  579MOL0     C76344   2.464   4.334   3.509 -0.7312  0.6781  0.7342
  579MOL0     C76345   2.574   4.251   3.491 -0.4607  0.3381 -0.1728
  579MOL0     N76346   2.880   3.522   3.339 -0.1892 -0.0263  0.4824
  579MOL0     N76347   2.940   3.409   3.373  0.4058  0.0458 -0.6864
  579MOL0     C76348   2.391   3.397   4.019  0.3151  0.6639  0.3626
  579MOL0     C76349   2.293   3.501   4.018 -0.1275  0.6622 -0.0982
  579MOL0     C76350   2.022   3.848   4.219 -1.0052  1.1450 -0.2248
  579MOL0     C76351   2.099   3.961   4.184  0.1049  0.2648  0.1387
  579MOL0     C76352   2.047   4.089   4.219 -0.4983  0.1744  0.4919
  579MOL0     C76353   1.923   4.118   4.277  0.0723  0.7017 -0.3080
  579MOL0     O76354   1.894   4.249   4.302 -0.5684 -0.6951 -0.0323
  579MOL0     C76355   1.772   4.274   4.364  0.1109 -0.2961  0.4357
  579MOL0     C76356   1.655   4.309   4.272  0.4652  0.5238  0.0029
  579MOL0     C76357   1.518   4.269   4.333 -0.2918 -0.1102 -0.4093
  579MOL0     C76358   1.397   4.330   4.262  0.4029 -0.1435 -0.0308
  579MOL0     C76359   1.396   4.472   4.301  0.9935 -1.2497  0.6437
  579MOL0     C76360   1.381   4.587   4.343  0.2495 -0.4415  1.0699
  579MOL0     C76361   1.844   3.999   4.285 -0.4211 -0.3649  0.2417
  579MOL0     C76362   1.897   3.871   4.264  0.6836  0.6576 -1.3627
  579MOL0     H76363   2.322   3.608   4.346 -2.3130 -1.3211  1.0443
  579MOL0     H76364   2.501   3.445   4.339 -1.0889  0.2793  0.4326
  579MOL0     H76365   2.673   3.311   3.944  4.9778 -2.8936 -2.3433
  579MOL0     H76366   2.579   3.171   3.973 -1.2300 -0.0331  2.8142
  579MOL0     H76367   2.728   3.097   4.140 -1.4194 -0.5872 -0.6783
  579MOL0     H76368   2.843   3.229   4.113  1.0688 -0.9431 -1.9660
  579MOL0     H76369   2.772   3.041   3.890 -3.3963  0.5393  3.6475
  579MOL0     H76370   2.903   3.009   3.996 -0.8049 -0.2383  3.4237
  579MOL0     H76371   2.842   3.275   3.831  0.3301 -0.4881 -4.2000
  579MOL0     H76372   3.003   3.243   3.916  0.7718 -0.4615  0.8521
  579MOL0     H76373   2.924   3.076   3.669 -0.4133  0.3597 -0.9213
  579MOL0     H76374   3.063   3.074   3.752 -0.9983 -1.1414  0.8407
  579MOL0     H76375   3.136   3.292   3.709  0.8412 -1.4211 -0.5163
  579MOL0     H76376   2.977   3.342   3.659 -0.0825  1.0625 -1.1730
  579MOL0     H76377   3.172   3.132   3.543  0.8896  0.9729 -1.9825
  579MOL0     H76378   3.012   3.160   3.469 -0.0396 -1.3394  0.0376
  579MOL0     H76379   3.204   3.277   3.366 -0.3960  0.3758  0.0016
  579MOL0     H76380   3.251   3.355   3.514  3.0007 -1.5013 -3.4199
  579MOL0     H76381   3.193   3.615   3.429 -0.4875  0.8790 -0.0534
  579MOL0     H76382   2.998   3.779   3.202  1.9829  1.3862  0.8939
  579MOL0     H76383   3.062   3.828   3.353 -0.4454 -0.9602  0.3737
  579MOL0     H76384   2.774   3.750   3.280  1.2408 -1.3455 -0.1684
  579MOL0     H76385   2.824   3.920   3.289 -0.9881 -0.7263 -0.4452
  579MOL0     H76386   2.797   3.727   3.528 -3.0539 -0.1415  1.7430
  579MOL0     H76387   2.888   3.884   3.530  0.5881 -1.0330 -1.0983
  579MOL0     H76388   2.638   3.886   3.617  2.0900 -1.8072  0.4098
  579MOL0     H76389   2.605   3.838   3.442  0.1270 -0.6220  0.5831
  579MOL0     H76390   2.421   3.947   3.506 -0.4359  0.1180  1.2274
  579MOL0     H76391   2.216   4.101   3.518 -0.2315  0.1282  1.5067
  579MOL0     H76392   2.115   4.621   3.436  0.8091 -0.9770 -3.8693
  579MOL0     H76393   1.897   4.766   3.411 -2.4186  0.6198 -0.8341
  579MOL0     H76394   1.697   4.835   3.261 -0.1336  0.6729 -0.7418
  579MOL0     H76395   1.727   4.865   3.432  1.6285 -4.0685  1.2454
  579MOL0     H76396   1.538   4.981   3.412 -2.3262  1.0537 -1.4896
  579MOL0     H76397   1.458   4.821   3.440  1.4389  0.3422  1.7254
  579MOL0     H76398   1.517   4.981   3.189  1.0413 -2.6344 -1.9487
  579MOL0     H76399   1.349   4.962   3.257  0.9501  1.6395  0.3947
  579MOL0     H76400   1.525   4.730   3.154  0.1661  1.9090 -0.7192
  579MOL0     H76401   1.360   4.709   3.206 -0.7207  0.2985 -0.8500
  579MOL0     H76402   1.447   4.886   2.959 -3.4756  0.3706 -3.8793
  579MOL0     H76403   1.288   4.888   3.030 -0.5370  0.9770  1.8606
  579MOL0     H76404   1.435   4.622   2.940  1.1117  0.4929  1.9529
  579MOL0     H76405   1.354   4.735   2.827 -2.7216 -0.2855  0.0664
  579MOL0     H76406   1.237   4.525   2.879  1.6318 -1.1812  0.9999
  579MOL0     H76407   1.232   4.560   3.045  1.0559 -3.1334 -1.4438
  579MOL0     H76408   1.097   4.710   2.799 -1.5832 -3.2239 -1.4165
  579MOL0     H76409   1.095   4.780   2.959 -0.8531  1.9057 -0.4547
  579MOL0     H76410   1.660   4.419   3.463  0.4177  0.1261 -1.1170
  579MOL0     H76411   1.847   4.301   3.528  1.3500  0.9384  3.0237
  579MOL0     H76412   2.484   4.441   3.520 -0.7303  0.6167  1.4054
  579MOL0     H76413   2.669   4.303   3.484 -1.1497  1.4665 -2.0676
  579MOL0     H76414   2.416   3.328   3.939  1.2869 -1.8656  2.7068
  579MOL0     H76415   2.241   3.528   3.926 -2.0714  2.1468  1.3373
  579MOL0     H76416   2.202   3.955   4.151 -0.8873 -2.5579 -2.9555
  579MOL0     H76417   2.123   4.162   4.193  2.7897 -3.5706 -1.4555
  579MOL0     H76418   1.795   4.359   4.428 -0.2684  0.2810 -0.1775
  579MOL0     H76419   1.731   4.204   4.437 -1.8675  0.3172 -0.0153
  579MOL0     H76420   1.664   4.412   4.236 -3.5137  0.2878 -2.2450
  579MOL0     H76421   1.659   4.262   4.174  0.2728 -4.7244  2.1614
  579MOL0     H76422   1.520   4.288   4.441  1.0337  1.5579 -0.6822
  579MOL0     H76423   1.501   4.166   4.302 -2.2180  0.5466 -1.7189
  579MOL0     H76424   1.414   4.324   4.154  2.3147  0.8066  0.1599
  579MOL0     H76425   1.298   4.289   4.280 -1.1111  2.2461 -2.2749
  579MOL0     H76426   1.372   4.689   4.375  2.3289  0.7615 -1.6849
  579MOL0     H76427   1.740   3.994   4.319 -1.1093 -0.8193 -1.7862
  579MOL0     H76428   1.834   3.794   4.304  0.3806  1.3498 -0.4812
  580MOL0     O76429   0.085   3.035   9.382 -0.3516  0.3040 -0.5662
  580MOL0     C76430   0.129   2.946   9.310 -0.1754 -0.2795 -0.5368
  580MOL0     O76431   0.048   2.873   9.230  0.0265  0.1071 -0.1297
  580MOL0     C76432  -0.083   2.914   9.216 -0.8688 -0.2728 -0.1743
  580MOL0     C76433  -0.140   2.946   9.095  0.7803  0.0650  1.1871
  580MOL0     C76434  -0.281   2.964   9.077 -0.5335  0.8062 -1.0404
  580MOL0     C76435  -0.368   2.950   9.188 -0.2737 -0.1527 -0.2648
  580MOL0     O76436  -0.503   2.955   9.184  0.0719 -0.0947  0.3841
  580MOL0     C76437  -0.561   3.048   9.083 -0.0761 -0.0117  0.8001
  580MOL0     C76438  -0.696   3.102   9.134  0.1179  0.0779  0.7514
  580MOL0     C76439  -0.797   2.976   9.145 -0.3447  0.3014  0.5397
  580MOL0     C76440  -0.861   2.954   9.015 -0.0988  0.2795 -0.1432
  580MOL0     C76441  -0.942   2.827   9.011  0.4926 -0.4669 -0.0958
  580MOL0     C76442  -1.006   2.803   8.871  0.0126 -0.0990  0.4482
  580MOL0     C76443  -1.065   2.663   8.878 -0.1478 -0.4858 -0.1009
  580MOL0     C76444  -1.139   2.632   8.749 -0.3773  0.2396  0.0218
  580MOL0     N76445  -1.286   2.608   8.771  0.5516 -0.6323 -0.0192
  580MOL0     C76446  -1.336   2.502   8.832 -0.7438 -0.9508  0.0848
  580MOL0     C76447  -1.465   2.490   8.788 -0.9346  0.5419 -0.6103
  580MOL0     C76448  -1.568   2.389   8.846 -0.5260  0.8146 -0.6879
  580MOL0     C76449  -1.623   2.448   8.980 -0.8499 -0.1135 -0.5654
  580MOL0     C76450  -1.720   2.340   9.045 -0.7536 -0.4953  0.6050
  580MOL0     C76451  -1.723   2.360   9.196 -0.3472 -0.2428 -0.7298
  580MOL0     O76452  -1.850   2.328   9.254  0.4986 -0.1802 -0.5264
  580MOL0     C76453  -1.896   2.431   9.335 -1.1920 -0.0344  0.7834
  580MOL0     C76454  -1.860   2.449   9.473  0.2747 -0.0442 -0.2591
  580MOL0     C76455  -1.894   2.560   9.549 -0.4427  0.2076 -0.3755
  580MOL0     C76456  -1.972   2.661   9.493  0.4595  0.8694  0.9663
  580MOL0     C76457  -2.025   2.767   9.584 -0.1998 -0.4018 -0.0061
  580MOL0     O76458  -2.122   2.850   9.526  0.4844 -0.1149  0.3145
  580MOL0     C76459  -2.156   2.965   9.592 -0.0261 -0.9901 -0.1138
  580MOL0     C76460  -2.291   2.993   9.623 -0.6243 -0.5583 -0.2005
  580MOL0     C76461  -2.320   3.099   9.707 -0.9317  0.4865 -0.7292
  580MOL0     C76462  -2.217   3.177   9.765  0.0091 -0.7236 -0.7310
  580MOL0     O76463  -2.240   3.278   9.855 -0.9575 -0.2406  0.4722
  580MOL0     C76464  -2.310   3.241   9.973 -0.5664 -1.2041 -1.0168
  580MOL0     C76465  -2.217   3.277  10.090  0.3022  0.5910  0.3975
  580MOL0     C76466  -2.087   3.197  10.110  1.2208 -0.6558  0.0950
  580MOL0     C76467  -2.132   3.047  10.128  0.6501 -0.2816  0.3388
  580MOL0     C76468  -2.064   2.984  10.251  0.0222 -0.3301  0.3691
  580MOL0     C76469  -2.141   2.857  10.284  0.0196 -0.2217 -0.6762
  580MOL0     C76470  -2.128   2.804  10.423 -0.3991  0.2758 -0.1484
  580MOL0     C76471  -1.977   2.786  10.466  0.5559  0.9875 -0.0267
  580MOL0    Cl76472  -1.892   2.707  10.319 -0.1451 -0.2164 -0.4856
  580MOL0     C76473  -2.085   3.156   9.719 -0.3118  0.0124  0.5586
  580MOL0     C76474  -2.058   3.055   9.630 -0.4848  0.4320 -0.7958
  580MOL0     O76475  -1.994   2.769   9.700 -0.0956  0.3188 -0.1938
  580MOL0     C76476  -2.002   2.646   9.356  0.3850  0.8512 -0.4287
  580MOL0     C76477  -1.969   2.530   9.277  0.3862  0.1686  0.6541
  580MOL0     N76478  -1.478   2.582   8.682  0.5870 -0.6172 -0.8437
  580MOL0     N76479  -1.377   2.663   8.683  0.1041  0.6852 -0.1571
  580MOL0     C76480  -0.308   2.917   9.314  0.1460  0.6396 -0.2015
  580MOL0     C76481  -0.168   2.904   9.330 -0.7288 -0.3739  0.6225
  580MOL0     C76482   0.277   2.943   9.297 -0.5505  0.1626 -0.0656
  580MOL0     C76483   0.335   2.852   9.199 -0.2714 -0.2947  0.6598
  580MOL0     C76484   0.475   2.816   9.197  0.5405  0.4324 -1.1248
  580MOL0     C76485   0.566   2.877   9.287  0.2609  1.1640  1.0059
  580MOL0     O76486   0.697   2.837   9.291 -0.1849 -0.2290  0.3205
  580MOL0     C76487   0.735   2.699   9.318 -0.2278  0.2688  0.4499
  580MOL0     C76488   0.783   2.685   9.457  0.1737  1.2946 -0.9273
  580MOL0     C76489   0.892   2.788   9.486 -0.7110 -0.1866 -0.7103
  580MOL0     C76490   0.965   2.761   9.622  0.2041 -0.4934  0.2505
  580MOL0     C76491   0.921   2.842   9.738  0.3716  0.6154 -0.1916
  580MOL0     C76492   0.883   2.910   9.828 -0.3623 -0.1950  0.7952
  580MOL0     C76493   0.518   2.974   9.375 -0.3319  0.6468  0.2797
  580MOL0     C76494   0.381   3.008   9.374  0.1898 -0.9569  1.2512
  580MOL0     H76495  -0.086   2.950   9.001  0.7237 -2.5050  0.9577
  580MOL0     H76496  -0.322   2.964   8.976  0.3687  1.1288 -1.4193
  580MOL0     H76497  -0.568   3.003   8.984  0.3312  1.5971 -0.0010
  580MOL0     H76498  -0.504   3.140   9.067 -5.1668  3.1535 -2.3863
  580MOL0     H76499  -0.736   3.185   9.074  0.5972  2.5082  3.5898
  580MOL0     H76500  -0.677   3.145   9.232  4.7380  2.0297 -0.7134
  580MOL0     H76501  -0.873   3.005   9.218 -1.2352  0.7561 -0.5475
  580MOL0     H76502  -0.743   2.886   9.175 -1.0317 -0.8133 -1.4158
  580MOL0     H76503  -0.911   3.044   8.979 -0.7461  0.5339  1.3408
  580MOL0     H76504  -0.776   2.924   8.953 -0.8437  1.6044 -1.9075
  580MOL0     H76505  -1.022   2.830   9.085  0.0911 -1.1539 -0.4922
  580MOL0     H76506  -0.889   2.737   9.044 -0.0444  0.0311  2.2489
  580MOL0     H76507  -0.932   2.794   8.791 -3.5672 -0.9634 -3.1423
  580MOL0     H76508  -1.083   2.879   8.857 -0.7516 -1.0524 -0.7372
  580MOL0     H76509  -0.993   2.586   8.909 -1.9188 -2.1499  0.0840
  580MOL0     H76510  -1.137   2.671   8.960 -0.3669  0.7472 -0.3992
  580MOL0     H76511  -1.089   2.545   8.705  0.3237  1.5135 -1.7917
  580MOL0     H76512  -1.116   2.708   8.674  2.3878 -1.4828 -1.0375
  580MOL0     H76513  -1.289   2.440   8.908  1.1410 -0.6300 -0.7497
  580MOL0     H76514  -1.506   2.300   8.862  1.0179  2.3348  2.6681
  580MOL0     H76515  -1.644   2.367   8.770  0.1516  0.3065 -1.2405
  580MOL0     H76516  -1.675   2.540   8.950  0.9598  1.5059  0.9703
  580MOL0     H76517  -1.540   2.473   9.046 -0.7912 -1.3604 -0.1385
  580MOL0     H76518  -1.806   2.355   8.978  0.9999 -1.2325 -1.9688
  580MOL0     H76519  -1.679   2.242   9.022  0.1291  0.1321 -0.6397
  580MOL0     H76520  -1.696   2.463   9.221  0.9499 -0.3162 -1.7715
  580MOL0     H76521  -1.639   2.307   9.241  0.8162  2.2273  0.1572
  580MOL0     H76522  -1.814   2.365   9.526  1.1299  1.9939  2.4257
  580MOL0     H76523  -1.867   2.566   9.654  0.1881 -1.0950 -0.4394
  580MOL0     H76524  -2.366   2.921   9.593 -0.0167 -1.6709  0.8699
  580MOL0     H76525  -2.424   3.123   9.724 -1.1062 -0.2690 -0.7082
  580MOL0     H76526  -2.344   3.137   9.978  2.6983 -2.3429  0.9511
  580MOL0     H76527  -2.397   3.305   9.983  1.0196  0.7119  1.8568
  580MOL0     H76528  -2.274   3.274  10.183  0.1135  0.8119  0.2885
  580MOL0     H76529  -2.173   3.376  10.074  0.8932  0.5725  1.7317
  580MOL0     H76530  -2.038   3.239  10.199  3.3493  0.0879 -1.3463
  580MOL0     H76531  -2.014   3.215  10.031  0.5037  2.0136 -0.0556
  580MOL0     H76532  -2.240   3.032  10.139  1.2043 -3.8100  2.9936
  580MOL0     H76533  -2.098   2.994  10.039 -0.9965 -1.6452  0.4812
  580MOL0     H76534  -2.063   3.044  10.342 -1.2145 -1.6619  1.3065
  580MOL0     H76535  -1.960   2.960  10.224  0.7069  1.5589  1.1596
  580MOL0     H76536  -2.117   2.784  10.206 -0.0195 -0.6625 -0.2823
  580MOL0     H76537  -2.247   2.881  10.275  0.4544  1.8124 -0.9939
  580MOL0     H76538  -2.183   2.864  10.497  1.7233 -0.2136  1.9707
  580MOL0     H76539  -2.177   2.707  10.427 -0.0720  0.1204  0.2432
  580MOL0     H76540  -1.974   2.714  10.548  1.6241  1.0322 -0.0126
  580MOL0     H76541  -1.928   2.880  10.491  1.9052  0.2889  0.0301
  580MOL0     H76542  -2.008   3.221   9.758  0.3129 -2.1866  3.3534
  580MOL0     H76543  -1.952   3.051   9.609 -0.1609 -1.1310  0.8730
  580MOL0     H76544  -2.059   2.727   9.313 -2.8705 -0.5466  0.9316
  580MOL0     H76545  -1.999   2.523   9.173 -0.1221  1.0091  0.7332
  580MOL0     H76546  -0.369   2.916   9.404 -1.3340  4.7471 -0.9293
  580MOL0     H76547  -0.116   2.882   9.423 -1.9427 -1.5157  1.0781
  580MOL0     H76548   0.271   2.800   9.130 -2.4908  0.9616  1.6582
  580MOL0     H76549   0.487   2.741   9.120 -3.9360 -0.3750 -1.3174
  580MOL0     H76550   0.821   2.674   9.255 -1.0705 -0.7636 -0.3246
  580MOL0     H76551   0.661   2.620   9.299  1.2965 -1.0893 -0.0888
  580MOL0     H76552   0.704   2.699   9.532  3.2114  2.7248  2.3680
  580MOL0     H76553   0.825   2.585   9.464 -1.5364  0.5499 -0.7297
  580MOL0     H76554   0.866   2.893   9.472  0.3967  0.0521 -1.0814
  580MOL0     H76555   0.978   2.777   9.419  1.6650  0.4832  2.0217
  580MOL0     H76556   0.962   2.654   9.644  1.6264 -0.8733 -1.2029
  580MOL0     H76557   1.072   2.777   9.604  1.2207 -2.0744  4.0297
  580MOL0     H76558   0.839   2.964   9.909 -0.5722 -1.8183  1.7980
  580MOL0     H76559   0.588   3.014   9.447  1.5929 -0.3867 -0.9411
  580MOL0     H76560   0.352   3.082   9.447 -0.0592  2.0243 -1.6158
  581MOL0     O76561   6.985   2.779  11.209  0.3047  0.7548  0.3663
  581MOL0     C76562   6.984   2.739  11.325  0.5988  0.1835  0.4503
  581MOL0     O76563   6.955   2.617  11.369  0.0042 -0.6106  0.1339
  581MOL0     C76564   6.893   2.517  11.301  0.0546 -0.3421  0.6605
  581MOL0     C76565   6.943   2.392  11.328  0.3655  0.5098 -0.7273
  581MOL0     C76566   6.877   2.274  11.285  0.4271 -0.1598 -0.1639
  581MOL0     C76567   6.754   2.288  11.221  0.2750 -0.3736  0.0472
  581MOL0     O76568   6.692   2.162  11.188  0.2225 -0.2375  0.3571
  581MOL0     C76569   6.553   2.163  11.135  0.1338  0.7216 -0.1214
  581MOL0     C76570   6.499   2.015  11.120 -0.3251  0.7181 -0.4721
  581MOL0     C76571   6.349   1.990  11.109  0.7814 -0.5788  0.3406
  581MOL0     C76572   6.271   2.035  11.237  0.2137  0.6594 -0.2100
  581MOL0     C76573   6.118   2.012  11.224 -0.1660 -0.3726  0.5181
  581MOL0     C76574   6.047   2.022  11.359 -0.0255 -0.2107 -0.2974
  581MOL0     C76575   5.905   1.969  11.342  0.1384  0.5782  0.7643
  581MOL0     C76576   5.836   1.946  11.478 -0.7580 -0.5250 -0.8169
  581MOL0     N76577   5.698   1.985  11.465  0.9642  0.3647 -0.5440
  581MOL0     C76578   5.650   2.106  11.518  0.0855  0.7527  0.4573
  581MOL0     C76579   5.515   2.108  11.498  0.2882  0.6649 -0.9610
  581MOL0     C76580   5.407   2.211  11.519 -0.3586  1.5440  1.1260
  581MOL0     C76581   5.350   2.242  11.375  0.4573  0.0660 -0.7100
  581MOL0     C76582   5.238   2.352  11.385  0.2021 -0.3149  0.0397
  581MOL0     C76583   5.210   2.384  11.235 -0.4097 -0.5135  0.1899
  581MOL0     O76584   5.132   2.503  11.225  0.0249 -0.4445 -0.6899
  581MOL0     C76585   5.144   2.569  11.103 -0.0878 -0.5589 -0.4610
  581MOL0     C76586   5.072   2.523  10.993 -0.8495  0.2243  0.2312
  581MOL0     C76587   5.061   2.593  10.873 -0.2365 -0.0397  0.5057
  581MOL0     C76588   5.095   2.730  10.868 -0.1230  0.2877  0.0377
  581MOL0     C76589   5.077   2.804  10.743 -0.0136 -0.4241 -1.3569
  581MOL0     O76590   4.976   2.768  10.666  0.4846  0.5166  0.4922
  581MOL0     C76591   4.960   2.813  10.536  0.5736 -0.7653  0.1626
  581MOL0     C76592   5.066   2.834  10.445  0.1918 -0.4366 -0.4888
  581MOL0     C76593   5.043   2.904  10.321  0.4312  0.0560 -1.5552
  581MOL0     C76594   4.909   2.941  10.279  0.1167 -0.6429  0.0652
  581MOL0     O76595   4.897   2.999  10.151 -0.5061  0.1317  0.1158
  581MOL0     C76596   4.759   3.038  10.116  0.2551 -0.0836 -0.3985
  581MOL0     C76597   4.750   3.083   9.970  1.0402  0.4311  0.3026
  581MOL0     C76598   4.608   3.100   9.935 -0.8316 -0.3047  0.4976
  581MOL0     C76599   4.605   3.172   9.796  0.4064  0.5665 -0.1236
  581MOL0     C76600   4.462   3.158   9.740 -0.1736  0.4199  0.6128
  581MOL0     C76601   4.379   3.272   9.792 -0.0136  0.4282 -0.0285
  581MOL0     C76602   4.234   3.274   9.736  0.5955 -0.4883  0.7288
  581MOL0     C76603   4.156   3.403   9.748 -0.3779  0.3233 -0.5777
  581MOL0    Cl76604   4.126   3.433   9.913  0.1581  0.0308 -0.2068
  581MOL0     C76605   4.807   2.916  10.375  0.2944 -0.7993  0.4331
  581MOL0     C76606   4.830   2.842  10.496 -0.3759  0.1708 -0.6630
  581MOL0     O76607   5.154   2.902  10.730 -0.0588 -0.4418 -0.4319
  581MOL0     C76608   5.162   2.780  10.987 -0.0699 -0.4021  0.7345
  581MOL0     C76609   5.183   2.696  11.100 -0.1660 -1.3738  0.7213
  581MOL0     N76610   5.486   1.980  11.429 -0.5972 -0.1124  0.1306
  581MOL0     N76611   5.592   1.911  11.427  0.7081  0.7414  0.7639
  581MOL0     C76612   6.704   2.416  11.188  0.5807 -1.2451 -0.4253
  581MOL0     C76613   6.780   2.539  11.222 -0.0168  0.5822  0.5163
  581MOL0     C76614   7.005   2.844  11.424 -0.6567  1.0684 -0.4106
  581MOL0     C76615   6.950   2.833  11.550  0.3852 -0.0622  0.3807
  581MOL0     C76616   6.959   2.936  11.639 -0.2845  0.9510 -0.7376
  581MOL0     C76617   7.042   3.045  11.616 -0.0646 -0.5064  0.4686
  581MOL0     O76618   7.061   3.146  11.712  0.0502  0.1997  0.0309
  581MOL0     C76619   7.010   3.124  11.849 -0.5254  0.8026  0.2337
  581MOL0     C76620   7.007   3.264  11.915 -0.1788 -0.2142 -0.8616
  581MOL0     C76621   7.007   3.268  12.069 -0.4432 -0.1544 -0.0015
  581MOL0     C76622   7.048   3.406  12.121  0.0102 -0.4949 -0.0587
  581MOL0     C76623   7.195   3.433  12.119 -0.8900  0.5626 -0.0282
  581MOL0     C76624   7.320   3.431  12.117  0.0986  0.1327 -0.4981
  581MOL0     C76625   7.089   3.070  11.490  0.1304  0.7821  1.0642
  581MOL0     C76626   7.073   2.965  11.389  0.3958 -0.8900 -0.2693
  581MOL0     H76627   7.031   2.376  11.389  0.5074 -1.2940 -1.3635
  581MOL0     H76628   6.923   2.178  11.307 -1.2809 -1.1701 -0.8166
  581MOL0     H76629   6.546   2.191  11.029 -1.6687 -3.7063 -1.3799
  581MOL0     H76630   6.475   2.209  11.198 -0.4388 -2.2340  1.4933
  581MOL0     H76631   6.535   1.967  11.211 -3.5066 -2.3839 -0.6418
  581MOL0     H76632   6.544   1.976  11.028 -1.8820  0.3396 -1.1068
  581MOL0     H76633   6.346   1.881  11.099 -0.5506 -0.7684  2.4324
  581MOL0     H76634   6.312   2.034  11.016  1.1296 -0.5227  0.2254
  581MOL0     H76635   6.304   1.961  11.311  2.6123 -1.0925 -2.8094
  581MOL0     H76636   6.298   2.131  11.282 -1.5869  2.2512 -2.2928
  581MOL0     H76637   6.124   1.911  11.184  0.4700 -0.2538  0.2977
  581MOL0     H76638   6.068   2.088  11.163  0.6937  0.1686  0.4593
  581MOL0     H76639   6.048   2.129  11.384  2.7894  0.1343 -1.5659
  581MOL0     H76640   6.094   1.957  11.433 -2.3118 -1.5024  0.1018
  581MOL0     H76641   5.857   2.050  11.285 -1.9613 -1.6109 -0.7676
  581MOL0     H76642   5.898   1.873  11.291 -1.7428 -0.4899  2.8858
  581MOL0     H76643   5.874   1.997  11.567  2.3410 -4.8195  0.6456
  581MOL0     H76644   5.844   1.842  11.510  0.6338 -0.0954  0.3544
  581MOL0     H76645   5.716   2.182  11.558  0.2866 -1.6270  5.4202
  581MOL0     H76646   5.453   2.302  11.558  2.7667  2.4668 -3.7808
  581MOL0     H76647   5.329   2.172  11.585 -1.0864 -0.4912 -0.7999
  581MOL0     H76648   5.326   2.158  11.309  1.5543 -2.7963  2.2539
  581MOL0     H76649   5.435   2.290  11.325  2.6428 -2.6333  0.1695
  581MOL0     H76650   5.154   2.312  11.442  0.2132 -1.7623 -0.9083
  581MOL0     H76651   5.287   2.440  11.428  1.1169  0.3155 -2.1602
  581MOL0     H76652   5.145   2.305  11.196 -0.3744 -2.4216  3.6611
  581MOL0     H76653   5.305   2.394  11.181  2.2976  0.3230  4.5988
  581MOL0     H76654   5.051   2.416  10.998  0.5390 -0.0198  3.1345
  581MOL0     H76655   5.019   2.553  10.781  1.9520 -0.6726 -0.2696
  581MOL0     H76656   5.166   2.794  10.457  0.8257  1.0784 -0.4516
  581MOL0     H76657   5.124   2.943  10.260  2.4269 -2.1306 -0.4518
  581MOL0     H76658   4.731   3.128  10.171 -0.6452 -1.4217  1.4137
  581MOL0     H76659   4.695   2.951  10.130  1.5468 -1.1684 -0.9874
  581MOL0     H76660   4.789   3.010   9.898 -2.1949  1.1440 -2.4552
  581MOL0     H76661   4.812   3.173   9.963  0.2733  0.9758  0.4510
  581MOL0     H76662   4.551   3.164  10.004 -0.5189  3.5262 -2.5111
  581MOL0     H76663   4.557   3.004   9.949  0.5569 -1.0284  0.8073
  581MOL0     H76664   4.641   3.275   9.807  2.2345  0.2512 -2.4754
  581MOL0     H76665   4.672   3.113   9.734 -1.8824 -1.9565 -0.3474
  581MOL0     H76666   4.422   3.063   9.776  2.3523 -0.9389  0.0972
  581MOL0     H76667   4.466   3.154   9.631  2.4193  0.7629  0.6169
  581MOL0     H76668   4.427   3.362   9.754 -0.1231  1.1624  1.5185
  581MOL0     H76669   4.380   3.279   9.901 -1.0165  3.4335 -0.1206
  581MOL0     H76670   4.250   3.241   9.633 -0.0482 -0.3472  0.5806
  581MOL0     H76671   4.166   3.198   9.774  0.5613 -1.6705 -1.5293
  581MOL0     H76672   4.062   3.403   9.693 -1.9736  0.7962  1.9783
  581MOL0     H76673   4.216   3.474   9.689 -0.6521  0.0103 -1.2421
  581MOL0     H76674   4.712   2.963  10.349  1.2607  1.0965  0.1896
  581MOL0     H76675   4.751   2.832  10.570 -2.0814 -3.7248 -2.6961
  581MOL0     H76676   5.205   2.880  10.987  0.8207 -0.7624 -0.4123
  581MOL0     H76677   5.241   2.744  11.178  0.0358  1.1971 -0.8796
  581MOL0     H76678   6.607   2.430  11.142  1.3214  1.3997 -1.3693
  581MOL0     H76679   6.746   2.638  11.192 -0.1168  0.6626  0.8938
  581MOL0     H76680   6.878   2.755  11.573 -1.6807  0.9954 -2.0259
  581MOL0     H76681   6.896   2.919  11.725  3.2803  1.5281  2.2423
  581MOL0     H76682   7.077   3.059  11.907 -1.0737  1.6112  1.8301
  581MOL0     H76683   6.904   3.098  11.862 -1.3569  4.8240  3.8058
  581MOL0     H76684   7.095   3.315  11.877 -1.2020  1.3229 -1.2364
  581MOL0     H76685   6.915   3.318  11.889  0.9786  2.7201  0.6781
  581MOL0     H76686   7.068   3.185  12.108 -4.6785 -3.0864  1.2017
  581MOL0     H76687   6.906   3.237  12.098  0.0196 -0.9623  0.8195
  581MOL0     H76688   7.008   3.489  12.063  0.9552 -0.4037 -0.5865
  581MOL0     H76689   7.012   3.418  12.224  2.6736 -1.4561  1.0906
  581MOL0     H76690   7.424   3.445  12.136 -0.0250 -0.4751  0.7420
  581MOL0     H76691   7.118   3.173  11.469 -2.9705  1.8151  1.3373
  581MOL0     H76692   7.088   2.993  11.285  0.6321 -2.9863 -0.8374
  582MOL0     O76693   3.275   2.354  11.063 -0.0944  0.1121  0.2248
  582MOL0     C76694   3.351   2.371  11.156  0.1697  0.6630 -0.2893
  582MOL0     O76695   3.328   2.459  11.266  0.4114  0.6879 -0.7215
  582MOL0     C76696   3.221   2.540  11.270  0.5852  0.2090 -0.2436
  582MOL0     C76697   3.156   2.549  11.392  0.3599 -0.3954  1.2903
  582MOL0     C76698   3.039   2.621  11.410  0.3022  0.9154 -0.4186
  582MOL0     C76699   2.963   2.668  11.299 -0.6414 -0.1174 -0.7680
  582MOL0     O76700   2.849   2.754  11.331 -0.9524  0.2885  0.0641
  582MOL0     C76701   2.748   2.738  11.227  0.5472  0.4046 -0.6062
  582MOL0     C76702   2.613   2.786  11.292 -0.0986 -0.6354  0.3479
  582MOL0     C76703   2.500   2.821  11.207  1.2110 -0.2932 -0.0615
  582MOL0     C76704   2.473   2.700  11.118 -0.1050  0.9801  0.7213
  582MOL0     C76705   2.339   2.698  11.039 -0.0842 -0.2145 -0.0253
  582MOL0     C76706   2.323   2.556  10.985 -0.2425  0.7071  0.0506
  582MOL0     C76707   2.234   2.567  10.862 -0.1207  0.2792  0.4026
  582MOL0     C76708   2.176   2.438  10.805  0.3004 -0.2276  0.3694
  582MOL0     N76709   2.061   2.460  10.720 -0.0414  1.2335 -0.0926
  582MOL0     C76710   1.932   2.408  10.732 -0.5858 -0.8030 -0.5366
  582MOL0     C76711   1.863   2.466  10.620 -0.7877  0.6518 -0.7729
  582MOL0     C76712   1.721   2.465  10.582  0.9365  0.0299  0.4941
  582MOL0     C76713   1.648   2.567  10.673 -0.5753  0.0321 -0.5206
  582MOL0     C76714   1.521   2.612  10.611  0.2007 -0.2674 -0.4725
  582MOL0     C76715   1.460   2.740  10.687 -1.7758 -0.3105 -0.2438
  582MOL0     O76716   1.362   2.799  10.603  0.2070  0.8172  0.7124
  582MOL0     C76717   1.278   2.894  10.663 -0.2292  0.0119 -0.5529
  582MOL0     C76718   1.142   2.897  10.617  0.3709 -0.1748  0.1920
  582MOL0     C76719   1.046   2.981  10.669 -1.1557 -0.4266  0.2532
  582MOL0     C76720   1.076   3.056  10.775 -0.1674 -0.0385 -0.0929
  582MOL0     C76721   0.976   3.147  10.816 -0.1276 -0.1127 -0.6070
  582MOL0     O76722   1.008   3.283  10.830  0.3915  0.6878  0.1977
  582MOL0     C76723   0.925   3.371  10.883  0.5268  0.8590  0.0933
  582MOL0     C76724   0.928   3.500  10.841  0.3004  0.1196 -0.1068
  582MOL0     C76725   0.850   3.598  10.909  0.3705  0.4095  1.0488
  582MOL0     C76726   0.768   3.565  11.024  0.4543  0.2656  0.5691
  582MOL0     O76727   0.680   3.655  11.078 -0.1565  0.0857  0.0777
  582MOL0     C76728   0.740   3.760  11.143  0.3561 -0.0305  0.1738
  582MOL0     C76729   0.735   3.737  11.297 -0.5652 -0.5117 -0.7507
  582MOL0     C76730   0.598   3.713  11.346  0.3299 -0.5742 -0.1240
  582MOL0     C76731   0.497   3.832  11.348 -0.4169 -0.1642  0.8116
  582MOL0     C76732   0.357   3.783  11.385 -0.6099 -0.3564  0.1670
  582MOL0     C76733   0.279   3.895  11.446 -0.2935 -0.0768  1.0500
  582MOL0     C76734   0.139   3.862  11.487 -0.6245 -0.2456 -0.8662
  582MOL0     C76735   0.132   3.817  11.634  0.5709 -0.3700  0.4107
  582MOL0    Cl76736  -0.034   3.806  11.677  0.2849  0.3353  0.5399
  582MOL0     C76737   0.782   3.440  11.073 -0.3313 -0.4150  0.3714
  582MOL0     C76738   0.850   3.341  10.998  0.7611 -0.3466 -0.3122
  582MOL0     O76739   0.859   3.113  10.822  0.5154 -0.2545 -0.1916
  582MOL0     C76740   1.210   3.055  10.829 -0.6323 -0.0527 -0.0544
  582MOL0     C76741   1.315   2.973  10.773 -0.4299 -0.1374  0.9238
  582MOL0     N76742   1.961   2.542  10.551  0.7679 -0.3630 -0.2339
  582MOL0     N76743   2.073   2.534  10.614  0.1164  0.3509  0.8839
  582MOL0     C76744   3.030   2.656  11.175 -0.4544 -0.6739 -0.0703
  582MOL0     C76745   3.161   2.596  11.159  1.2847  0.9809  0.1269
  582MOL0     C76746   3.462   2.296  11.160  0.1056  1.5065  0.6631
  582MOL0     C76747   3.532   2.290  11.282  0.2876 -0.0731  0.0630
  582MOL0     C76748   3.633   2.200  11.287 -0.4432  0.8481 -0.2670
  582MOL0     C76749   3.679   2.118  11.175  0.5300 -0.2873 -0.0105
  582MOL0     O76750   3.776   2.026  11.195 -0.1598  0.5875  0.4372
  582MOL0     C76751   3.833   1.969  11.078  0.4216 -0.0428  0.5050
  582MOL0     C76752   3.933   1.867  11.123 -0.6231 -1.2945 -0.3390
  582MOL0     C76753   4.027   1.824  11.007  0.0122  0.2210 -0.4038
  582MOL0     C76754   4.150   1.749  11.074  0.0140 -1.0290 -0.3081
  582MOL0     C76755   4.251   1.733  10.964 -0.5969 -0.4059  0.9333
  582MOL0     C76756   4.309   1.722  10.860  0.7860 -0.7580  0.4244
  582MOL0     C76757   3.616   2.140  11.052 -0.5242 -1.1036 -0.1711
  582MOL0     C76758   3.501   2.217  11.048 -0.3851  0.4427 -0.3623
  582MOL0     H76759   3.204   2.499  11.475  5.5250 -0.3551 -1.2812
  582MOL0     H76760   3.007   2.631  11.513  0.4441  1.7301 -0.4467
  582MOL0     H76761   2.728   2.640  11.184  0.8075  0.5370 -1.0342
  582MOL0     H76762   2.761   2.809  11.144  2.1109  2.9806  1.6771
  582MOL0     H76763   2.627   2.875  11.354 -0.6996 -0.5006  0.2885
  582MOL0     H76764   2.579   2.703  11.354 -1.1214 -1.1825 -0.9018
  582MOL0     H76765   2.522   2.905  11.140  0.6190 -0.8564 -1.0029
  582MOL0     H76766   2.412   2.849  11.266  4.2893  0.7157  4.5219
  582MOL0     H76767   2.555   2.682  11.048 -1.4358 -1.0409 -0.4298
  582MOL0     H76768   2.460   2.615  11.187 -1.9453  0.6181  0.0038
  582MOL0     H76769   2.332   2.777  10.963  1.0886  1.4236  1.4842
  582MOL0     H76770   2.252   2.726  11.099 -1.3086  1.4676 -2.4225
  582MOL0     H76771   2.292   2.482  11.060  2.5248 -0.0455  0.5640
  582MOL0     H76772   2.416   2.507  10.954 -0.4878 -0.5231  1.1722
  582MOL0     H76773   2.157   2.645  10.863  0.3841  0.7872  1.4428
  582MOL0     H76774   2.304   2.594  10.782 -0.1824 -1.6908 -0.3709
  582MOL0     H76775   2.147   2.368  10.884 -4.0198  1.4265  0.5018
  582MOL0     H76776   2.259   2.394  10.748 -1.6733 -1.5986 -1.6229
  582MOL0     H76777   1.885   2.336  10.798 -3.1391  1.3191  0.1130
  582MOL0     H76778   1.684   2.363  10.594 -0.7382  0.7174  1.5560
  582MOL0     H76779   1.711   2.492  10.477 -2.3663 -2.0617  0.1241
  582MOL0     H76780   1.702   2.658  10.703 -1.2740  0.8556 -1.6777
  582MOL0     H76781   1.627   2.511  10.765  0.2504 -0.8033 -0.8236
  582MOL0     H76782   1.535   2.649  10.509 -0.3957  1.0092 -0.1133
  582MOL0     H76783   1.448   2.530  10.610 -0.9013  0.6878 -0.6431
  582MOL0     H76784   1.547   2.806  10.690 -1.4452 -0.6801 -1.2386
  582MOL0     H76785   1.419   2.733  10.788 -2.6729  2.1614 -0.3870
  582MOL0     H76786   1.108   2.850  10.525 -0.9784 -2.4175  1.7356
  582MOL0     H76787   0.946   2.979  10.626 -1.7217  1.4533  1.3815
  582MOL0     H76788   0.997   3.534  10.765 -2.3519  2.9474 -1.4797
  582MOL0     H76789   0.860   3.700  10.874 -1.8455  0.4752  0.4726
  582MOL0     H76790   0.703   3.859  11.115  2.5255  1.1560  1.2863
  582MOL0     H76791   0.846   3.756  11.119 -0.0571  0.0615 -1.7858
  582MOL0     H76792   0.785   3.824  11.339  1.7324 -1.5965 -1.0552
  582MOL0     H76793   0.793   3.647  11.319  0.7671  0.9197  2.0385
  582MOL0     H76794   0.598   3.684  11.452  1.5795  0.9739  0.3329
  582MOL0     H76795   0.565   3.634  11.278  0.9721  0.4364 -1.6694
  582MOL0     H76796   0.535   3.917  11.406 -0.8626 -0.4279  1.4987
  582MOL0     H76797   0.488   3.870  11.245 -0.8455 -2.0140  0.1255
  582MOL0     H76798   0.380   3.707  11.460  1.7050  1.2134  1.1417
  582MOL0     H76799   0.300   3.739  11.301  2.6359 -0.8241 -1.9695
  582MOL0     H76800   0.274   3.974  11.370  1.1536 -1.0049 -0.0740
  582MOL0     H76801   0.340   3.938  11.526  0.3784  1.1339 -0.0583
  582MOL0     H76802   0.084   3.956  11.485 -1.4002 -0.6156  0.9355
  582MOL0     H76803   0.091   3.796  11.415 -1.6645 -3.2164  2.2887
  582MOL0     H76804   0.186   3.887  11.697 -1.6421 -1.8111  4.2389
  582MOL0     H76805   0.179   3.721  11.660  0.6941  0.2552  2.7184
  582MOL0     H76806   0.721   3.422  11.161 -1.6673  0.6569 -0.2889
  582MOL0     H76807   0.848   3.247  11.052 -1.3425  0.7669  1.7039
  582MOL0     H76808   1.248   3.105  10.918 -2.3416 -2.7207  2.3501
  582MOL0     H76809   1.416   2.965  10.813  0.0298 -2.7402 -0.5042
  582MOL0     H76810   2.976   2.699  11.091 -1.2297  0.7168  1.0976
  582MOL0     H76811   3.215   2.581  11.066 -1.5866  0.7360 -1.6224
  582MOL0     H76812   3.520   2.359  11.366  0.6267 -0.4112  0.3909
  582MOL0     H76813   3.688   2.182  11.379 -0.3805 -0.3771 -0.5373
  582MOL0     H76814   3.871   2.044  11.008  0.1756  0.4578  0.9067
  582MOL0     H76815   3.760   1.913  11.018 -1.2464  2.5105 -0.0221
  582MOL0     H76816   3.987   1.905  11.209 -0.4121  0.7268 -1.3186
  582MOL0     H76817   3.893   1.780  11.177  0.7988 -1.0712  1.1465
  582MOL0     H76818   4.052   1.914  10.950 -0.8358 -0.9573 -2.7913
  582MOL0     H76819   3.968   1.752  10.949  0.4102  0.7738 -1.5374
  582MOL0     H76820   4.184   1.804  11.161 -1.6655 -2.8212  1.5877
  582MOL0     H76821   4.126   1.645  11.100 -0.5776 -1.0126 -0.7484
  582MOL0     H76822   4.370   1.721  10.773 -0.9241 -1.6394 -0.8224
  582MOL0     H76823   3.626   2.084  10.959 -1.1850 -2.2879  0.4445
  582MOL0     H76824   3.436   2.211  10.961 -1.9167  2.1070  0.6201
  583MOL0     O76825  10.775  11.042   9.041 -0.6927 -0.0958  0.1695
  583MOL0     C76826  10.728  11.098   9.142  0.1631 -0.1477  0.4636
  583MOL0     O76827  10.802  11.135   9.253 -0.3588 -0.3532 -0.6993
  583MOL0     C76828  10.931  11.144   9.236  1.4088 -0.4742 -0.1833
  583MOL0     C76829  10.981  11.249   9.161 -0.5527 -0.4446  1.0706
  583MOL0     C76830  11.126  11.261   9.159 -0.6829 -0.1490  0.1388
  583MOL0     C76831  11.208  11.175   9.224 -0.4132 -0.9435  0.1812
  583MOL0     O76832  11.348  11.180   9.210  1.3051  0.7018 -0.9342
  583MOL0     C76833  11.399  11.176   9.073  0.1837  0.1706 -0.1216
  583MOL0     C76834  11.534  11.101   9.067 -0.0875  0.7234  0.7427
  583MOL0     C76835  11.651  11.170   9.140  0.7213 -0.6204  0.3441
  583MOL0     C76836  11.658  11.322   9.128  0.2823  0.3108 -0.1395
  583MOL0     C76837  11.797  11.385   9.149 -1.1257 -0.1927  0.1817
  583MOL0     C76838  11.790  11.530   9.103  1.5541 -0.2724  0.6320
  583MOL0     C76839  11.926  11.594   9.098 -0.5684  0.2595 -0.8252
  583MOL0     C76840  11.913  11.737   9.072  0.5458 -0.4766  0.4643
  583MOL0     N76841  11.848  11.814   9.182 -0.8243  0.2583  0.2755
  583MOL0     C76842  11.734  11.885   9.160  0.5139 -0.9483  0.1397
  583MOL0     C76843  11.677  11.896   9.283  0.7552  0.1049 -0.8151
  583MOL0     C76844  11.537  11.939   9.330 -0.7167 -0.0056  0.7283
  583MOL0     C76845  11.473  12.043   9.226 -0.2105  0.4932 -0.6376
  583MOL0     C76846  11.513  12.200   9.235 -0.7025  0.2285 -0.3216
  583MOL0     C76847  11.405  12.284   9.180  0.2662  0.5261  0.0491
  583MOL0     O76848  11.447  12.417   9.140  0.0092  0.2944 -0.5141
  583MOL0     C76849  11.357  12.472   9.047  0.4867  0.1074  0.1021
  583MOL0     C76850  11.222  12.478   9.080 -0.1991 -0.7768 -0.0781
  583MOL0     C76851  11.143  12.536   8.981  0.9548  0.1174 -0.2838
  583MOL0     C76852  11.189  12.562   8.854  0.0278 -0.1221  1.2498
  583MOL0     C76853  11.101  12.614   8.740  0.9344 -0.4379 -1.1341
  583MOL0     O76854  11.153  12.655   8.621 -0.5609  0.4015 -0.7657
  583MOL0     C76855  11.077  12.667   8.508 -0.4406  0.1426 -0.1679
  583MOL0     C76856  11.134  12.622   8.399  0.0770  1.2418  0.7811
  583MOL0     C76857  11.077  12.647   8.274  0.0472  0.5187  0.0567
  583MOL0     C76858  10.956  12.715   8.262  0.0728 -0.1426 -0.4468
  583MOL0     O76859  10.911  12.722   8.128  0.1682 -0.8271  0.3719
  583MOL0     C76860  10.774  12.752   8.099  0.0357 -0.1830 -0.4577
  583MOL0     C76861  10.738  12.760   7.946 -0.2736 -1.1342  0.4627
  583MOL0     C76862  10.587  12.793   7.929 -0.1038  0.0890 -1.0814
  583MOL0     C76863  10.562  12.762   7.788 -0.3526 -0.1233  0.2170
  583MOL0     C76864  10.416  12.792   7.738 -0.3666  0.5905 -0.4974
  583MOL0     C76865  10.375  12.742   7.599  0.6137 -0.6372 -0.9144
  583MOL0     C76866  10.230  12.785   7.584  0.3855  0.3652  0.4904
  583MOL0     C76867  10.155  12.751   7.456  0.0842  0.3506 -0.3665
  583MOL0    Cl76868  10.240  12.815   7.312 -0.2805 -0.3027 -0.6391
  583MOL0     C76869  10.887  12.753   8.382 -0.1961  0.6135 -0.0844
  583MOL0     C76870  10.956  12.738   8.502 -0.2238 -0.1261  0.7319
  583MOL0     O76871  10.985  12.620   8.774  0.7065 -0.1356 -0.1811
  583MOL0     C76872  11.323  12.562   8.823 -0.4824  0.0077 -0.3388
  583MOL0     C76873  11.402  12.514   8.926 -0.3065  0.0671  0.9089
  583MOL0     N76874  11.766  11.834   9.377 -0.2250 -0.1203 -0.0595
  583MOL0     N76875  11.873  11.792   9.309 -0.3000 -0.0097 -0.5880
  583MOL0     C76876  11.152  11.089   9.313  0.5005  0.0375 -0.4732
  583MOL0     C76877  11.016  11.062   9.310  1.4188 -0.2140 -1.1985
  583MOL0     C76878  10.582  11.122   9.136  0.3174 -0.2557 -0.6265
  583MOL0     C76879  10.506  11.044   9.041 -0.0949 -0.4670  1.0447
  583MOL0     C76880  10.366  11.073   9.026  0.4827 -0.0527  0.2611
  583MOL0     C76881  10.295  11.154   9.115 -0.2723 -0.3792  0.8276
  583MOL0     O76882  10.156  11.145   9.123 -0.1198  0.2062  0.2194
  583MOL0     C76883  10.109  11.039   9.209  0.2381  0.8693 -0.3746
  583MOL0     C76884  10.121  11.069   9.351 -0.7224  0.0395 -0.3105
  583MOL0     C76885  10.053  10.966   9.434  0.6663 -0.3957 -1.4818
  583MOL0     C76886  10.069  10.980   9.587  1.0993  0.2828  1.1203
  583MOL0     C76887  10.033  11.110   9.649 -0.0082  0.4279 -0.4239
  583MOL0     C76888  10.016  11.226   9.690  0.7684  0.1315 -0.6172
  583MOL0     C76889  10.372  11.232   9.204  0.5675 -0.5429  0.1482
  583MOL0     C76890  10.505  11.207   9.218 -0.4360 -0.9374  1.0519
  583MOL0     H76891  10.918  11.310   9.097 -1.6385 -1.3491  1.2588
  583MOL0     H76892  11.180  11.336   9.103  1.4388 -0.3371  1.8178
  583MOL0     H76893  11.410  11.277   9.032 -0.1073  0.2682  0.0397
  583MOL0     H76894  11.337  11.119   9.004 -2.5612  3.0449 -0.2381
  583MOL0     H76895  11.551  11.083   8.961 -3.4454  3.6729 -0.5012
  583MOL0     H76896  11.527  10.997   9.101  1.1876 -0.9811 -3.6317
  583MOL0     H76897  11.733  11.119   9.090  1.5641 -1.1005  2.1258
  583MOL0     H76898  11.643  11.147   9.247 -0.2697 -1.2575  0.1510
  583MOL0     H76899  11.623  11.338   9.026 -2.1416  1.7890  0.8305
  583MOL0     H76900  11.592  11.371   9.201  1.3302  1.9253 -0.2273
  583MOL0     H76901  11.853  11.318   9.083 -1.8762 -2.4563  1.7195
  583MOL0     H76902  11.837  11.370   9.250  1.5324  2.2632 -0.3816
  583MOL0     H76903  11.713  11.583   9.160 -1.0700 -1.3653 -1.6512
  583MOL0     H76904  11.746  11.530   9.002  2.3548 -1.1065  0.2739
  583MOL0     H76905  11.984  11.577   9.189 -0.3411 -3.8601 -1.5506
  583MOL0     H76906  11.992  11.543   9.027 -1.7091 -0.4213 -1.4170
  583MOL0     H76907  11.854  11.752   8.981 -2.5266  0.9427  2.5200
  583MOL0     H76908  12.009  11.786   9.050 -0.2022  0.4277 -0.9262
  583MOL0     H76909  11.686  11.911   9.066  0.7860  1.6666  0.6304
  583MOL0     H76910  11.545  11.981   9.431  0.7421 -2.0485  1.5397
  583MOL0     H76911  11.471  11.852   9.336  0.9579 -1.4294 -0.4328
  583MOL0     H76912  11.365  12.028   9.233 -0.1057  0.4543  5.1039
  583MOL0     H76913  11.491  12.017   9.121 -0.2195 -0.3352 -0.4377
  583MOL0     H76914  11.519  12.239   9.337 -0.8868 -1.0548  0.1986
  583MOL0     H76915  11.607  12.208   9.179 -2.1259  1.2102 -2.7533
  583MOL0     H76916  11.326  12.293   9.255  1.1833 -5.0820  2.1440
  583MOL0     H76917  11.365  12.229   9.095 -0.7495 -0.9920  1.4715
  583MOL0     H76918  11.187  12.460   9.181  0.7040  1.5083  0.7115
  583MOL0     H76919  11.040  12.551   9.013  1.2881 -2.3038  2.3694
  583MOL0     H76920  11.222  12.559   8.409 -0.7470 -0.4629 -1.6223
  583MOL0     H76921  11.143  12.614   8.194 -0.9288  0.3602 -0.7051
  583MOL0     H76922  10.751  12.838   8.162  1.7808  0.0611 -0.1040
  583MOL0     H76923  10.705  12.673   8.128 -0.2685 -0.2893 -1.4492
  583MOL0     H76924  10.764  12.665   7.899 -0.7148 -0.9793 -0.1016
  583MOL0     H76925  10.791  12.843   7.898 -0.5462 -0.8771  0.5987
  583MOL0     H76926  10.573  12.898   7.957  0.8947 -0.0980  0.2029
  583MOL0     H76927  10.524  12.737   7.997  3.6255  0.4802  3.1705
  583MOL0     H76928  10.628  12.832   7.737  0.6998  2.2600  4.3759
  583MOL0     H76929  10.580  12.655   7.773 -0.9736  0.0469 -1.9595
  583MOL0     H76930  10.412  12.901   7.742  1.2382  0.6168  2.3782
  583MOL0     H76931  10.351  12.763   7.821 -0.6215 -2.3250 -1.5748
  583MOL0     H76932  10.384  12.634   7.583 -0.8426 -0.9901  0.4281
  583MOL0     H76933  10.429  12.794   7.520 -1.1401  0.2952 -1.5362
  583MOL0     H76934  10.174  12.742   7.667 -1.1958  0.1565 -0.6455
  583MOL0     H76935  10.225  12.894   7.594  0.2828  0.3771  0.3207
  583MOL0     H76936  10.052  12.782   7.471 -0.1189 -1.0363  1.4574
  583MOL0     H76937  10.144  12.644   7.434  1.9672 -0.3490  1.7393
  583MOL0     H76938  10.789  12.799   8.377 -0.3010  0.2821 -1.3568
  583MOL0     H76939  10.909  12.780   8.590 -2.1403 -4.2189  1.9089
  583MOL0     H76940  11.377  12.590   8.733  3.3525  0.9353  2.0315
  583MOL0     H76941  11.509  12.503   8.912 -0.5208  1.1929 -2.2559
  583MOL0     H76942  11.210  11.025   9.378 -1.5628 -1.5870 -0.1505
  583MOL0     H76943  10.983  10.993   9.387  2.8241  0.5265  0.1077
  583MOL0     H76944  10.553  10.956   9.001  3.4033  1.8283 -0.3555
  583MOL0     H76945  10.299  11.019   8.960 -0.0386 -0.0331  0.7562
  583MOL0     H76946  10.166  10.947   9.197 -0.2717  0.3993  0.6955
  583MOL0     H76947  10.005  11.011   9.194 -0.0639  1.4856  0.4752
  583MOL0     H76948  10.224  11.072   9.387 -1.0044 -1.5630  0.7314
  583MOL0     H76949  10.065  11.161   9.370 -0.0751  0.2333  0.7842
  583MOL0     H76950  10.076  10.865   9.399 -2.2944 -0.9675 -2.0561
  583MOL0     H76951   9.948  10.993   9.417  0.4568 -0.6468 -0.6351
  583MOL0     H76952  10.005  10.902   9.628 -2.1897  0.7639 -2.4733
  583MOL0     H76953  10.170  10.955   9.621 -0.2524 -6.8108  1.3760
  583MOL0     H76954  10.007  11.330   9.714 -3.1940 -0.1146 -0.3010
  583MOL0     H76955  10.322  11.298   9.274  1.3197 -0.8735  1.0223
  583MOL0     H76956  10.565  11.261   9.290 -1.9346  0.1866  1.5049
  584MOL0     O76957   7.084   2.354   5.976 -0.0869  0.4016  0.1089
  584MOL0     C76958   7.152   2.268   6.034 -0.2585 -0.7439 -0.2125
  584MOL0     O76959   7.105   2.156   6.095 -0.3775 -0.6075 -0.3160
  584MOL0     C76960   6.990   2.155   6.168  0.0534 -0.3493 -0.3559
  584MOL0     C76961   6.974   2.257   6.268 -0.1166 -0.2208 -0.3234
  584MOL0     C76962   6.851   2.269   6.331  0.0088  0.1288 -0.5165
  584MOL0     C76963   6.745   2.179   6.315 -0.1556 -0.2913  0.1325
  584MOL0     O76964   6.629   2.206   6.378  0.6179 -0.3264 -0.5988
  584MOL0     C76965   6.547   2.091   6.408 -0.0403  0.6011  0.1808
  584MOL0     C76966   6.458   2.103   6.525  0.2475 -0.1548 -0.6457
  584MOL0     C76967   6.530   2.104   6.659  1.5133 -0.3266 -0.7516
  584MOL0     C76968   6.582   2.240   6.696  0.1416  0.0218  0.0551
  584MOL0     C76969   6.654   2.244   6.836  1.3672 -0.2324  1.0026
  584MOL0     C76970   6.557   2.230   6.958 -0.6170 -0.3137 -0.8101
  584MOL0     C76971   6.459   2.344   6.979  0.7188  0.8313  0.3708
  584MOL0     C76972   6.511   2.478   7.015  0.0725  0.0973  0.4467
  584MOL0     N76973   6.408   2.568   7.063  0.8434  0.1920  0.4330
  584MOL0     C76974   6.294   2.601   6.989  0.1994  0.4846 -0.7720
  584MOL0     C76975   6.247   2.713   7.047 -0.1051  0.5376  0.1566
  584MOL0     C76976   6.135   2.799   7.007 -0.7192  0.1618  0.1450
  584MOL0     C76977   5.998   2.734   7.032 -1.1316  0.2061 -0.2101
  584MOL0     C76978   5.939   2.760   7.168  0.0024 -0.3048  0.1333
  584MOL0     C76979   5.874   2.897   7.174 -0.4651 -0.2903  0.4160
  584MOL0     O76980   5.805   2.930   7.296 -0.1864 -0.3752 -0.3875
  584MOL0     C76981   5.678   2.881   7.308 -0.6074 -0.9262 -0.8311
  584MOL0     C76982   5.614   2.920   7.431  1.0130  0.1859  0.4691
  584MOL0     C76983   5.484   2.863   7.464  0.0570 -0.0229  0.0972
  584MOL0     C76984   5.422   2.772   7.374  0.6478 -0.1152  0.4270
  584MOL0     C76985   5.300   2.698   7.428 -1.0538 -0.7214 -0.2274
  584MOL0     O76986   5.279   2.724   7.559  0.1631  0.3492  0.5927
  584MOL0     C76987   5.171   2.670   7.627  0.3647 -0.5949  0.0466
  584MOL0     C76988   5.036   2.664   7.577 -0.4538 -0.8515  0.6826
  584MOL0     C76989   4.940   2.599   7.654 -0.1303  1.0367  0.0716
  584MOL0     C76990   4.966   2.552   7.783  0.3871 -0.0967 -0.1752
  584MOL0     O76991   4.871   2.503   7.862  0.0018  0.3636 -0.4044
  584MOL0     C76992   4.908   2.428   7.980  0.0227  0.3957  0.6726
  584MOL0     C76993   4.921   2.276   7.940  1.1016 -0.7073 -0.7212
  584MOL0     C76994   4.898   2.192   8.075  0.2896 -0.1478  0.5748
  584MOL0     C76995   4.973   2.255   8.196 -0.9372  0.1346 -0.4814
  584MOL0     C76996   4.962   2.164   8.322  0.3336  0.6840  0.3824
  584MOL0     C76997   5.034   2.230   8.443  0.7658 -0.8997 -0.2379
  584MOL0     C76998   5.192   2.243   8.416  0.4590  0.1879  0.4798
  584MOL0     C76999   5.274   2.240   8.543  0.1971  0.4646 -0.4254
  584MOL0    Cl77000   5.199   2.371   8.643 -0.5749 -0.3919 -0.2647
  584MOL0     C77001   5.104   2.558   7.828  0.5850 -0.8298 -0.5839
  584MOL0     C77002   5.209   2.609   7.745 -0.0185 -0.5018  0.0090
  584MOL0     O77003   5.237   2.617   7.361 -0.3524 -0.4616  0.2941
  584MOL0     C77004   5.483   2.750   7.251 -0.4844  0.1230 -0.4571
  584MOL0     C77005   5.605   2.805   7.216 -0.2185  0.3173 -1.6297
  584MOL0     N77006   6.322   2.738   7.165 -0.9975 -0.3231  0.4303
  584MOL0     N77007   6.409   2.652   7.168 -0.0585 -0.6001 -0.1416
  584MOL0     C77008   6.777   2.064   6.236  0.8372  0.1575  0.3469
  584MOL0     C77009   6.898   2.053   6.162 -0.2290 -0.2204  0.1877
  584MOL0     C77010   7.295   2.261   6.012  0.1717 -0.1569 -0.3511
  584MOL0     C77011   7.354   2.348   5.918 -2.0764 -0.0641  0.1885
  584MOL0     C77012   7.485   2.330   5.874 -0.0403 -0.1182  0.2414
  584MOL0     C77013   7.566   2.227   5.919  0.7740  0.0495  0.4405
  584MOL0     O77014   7.694   2.200   5.884  0.2056 -0.0934 -0.2469
  584MOL0     C77015   7.742   2.284   5.777 -0.1101 -0.8958 -0.4611
  584MOL0     C77016   7.883   2.253   5.745 -0.8324  0.7586  0.2437
  584MOL0     C77017   7.901   2.107   5.704  0.2725 -0.1412  0.4703
  584MOL0     C77018   7.870   2.094   5.560  0.2178 -1.1930  0.5133
  584MOL0     C77019   7.729   2.062   5.547  0.4501  0.8099  0.1954
  584MOL0     C77020   7.605   2.031   5.560 -0.4199 -0.5379 -0.2954
  584MOL0     C77021   7.512   2.148   6.023  0.0105  0.2480 -0.6641
  584MOL0     C77022   7.382   2.158   6.071  0.1494 -0.3818  1.2001
  584MOL0     H77023   7.041   2.342   6.280 -0.1718  0.3387 -3.3477
  584MOL0     H77024   6.823   2.336   6.411  0.6348 -2.2483  1.8525
  584MOL0     H77025   6.612   2.004   6.420 -2.4497 -1.5961 -1.5094
  584MOL0     H77026   6.478   2.069   6.326  2.3017 -0.3755 -1.6637
  584MOL0     H77027   6.376   2.031   6.522 -0.8828  0.5448  4.6319
  584MOL0     H77028   6.399   2.194   6.512  1.8697  0.8249 -1.6274
  584MOL0     H77029   6.599   2.019   6.667  3.4470  1.2308 -0.1581
  584MOL0     H77030   6.457   2.081   6.737  2.3289  0.3570  0.2486
  584MOL0     H77031   6.661   2.274   6.628  0.0265 -1.4389 -0.8632
  584MOL0     H77032   6.496   2.308   6.693 -0.1893 -0.4148 -0.9464
  584MOL0     H77033   6.718   2.333   6.831 -0.6238  1.2155 -1.8719
  584MOL0     H77034   6.716   2.156   6.851  2.8555  0.5337 -0.3141
  584MOL0     H77035   6.625   2.216   7.043 -0.4919  0.2435 -0.8118
  584MOL0     H77036   6.501   2.137   6.946 -2.3444  0.3441  1.4903
  584MOL0     H77037   6.395   2.347   6.891  2.8041  1.1041 -1.1945
  584MOL0     H77038   6.395   2.323   7.066  3.2419 -0.1524  2.1286
  584MOL0     H77039   6.564   2.527   6.932  1.0330  2.7601  2.4810
  584MOL0     H77040   6.585   2.461   7.093  1.0621  2.2772  0.0741
  584MOL0     H77041   6.266   2.568   6.890  0.9013  0.8163 -1.0932
  584MOL0     H77042   6.160   2.814   6.902  1.4706  2.0433  0.8455
  584MOL0     H77043   6.142   2.892   7.064 -0.7839  1.2085 -1.4932
  584MOL0     H77044   6.027   2.629   7.029  2.4197  0.9946  1.2722
  584MOL0     H77045   5.924   2.756   6.954 -0.1855  2.2698 -0.6027
  584MOL0     H77046   5.866   2.685   7.200 -2.4877  2.1295  0.6216
  584MOL0     H77047   6.022   2.756   7.239 -2.1095  0.9941  2.8945
  584MOL0     H77048   5.808   2.911   7.088  1.1569 -2.1883 -1.2555
  584MOL0     H77049   5.955   2.970   7.167  0.8827 -1.0913  4.7649
  584MOL0     H77050   5.667   2.980   7.504  3.8144 -3.2237  1.5422
  584MOL0     H77051   5.443   2.893   7.559 -1.5879 -1.4487 -0.0982
  584MOL0     H77052   5.016   2.700   7.476 -0.0921 -0.9147  0.5876
  584MOL0     H77053   4.840   2.595   7.612  0.8312  2.5373 -2.6499
  584MOL0     H77054   4.826   2.442   8.051 -2.9484 -0.0051 -2.4706
  584MOL0     H77055   4.991   2.464   8.042  0.2777  0.1461  0.4817
  584MOL0     H77056   5.026   2.265   7.911  1.8017  2.3385  0.2957
  584MOL0     H77057   4.851   2.257   7.859  0.3966 -0.4275 -0.1826
  584MOL0     H77058   4.930   2.090   8.051  2.5146  1.4440 -4.9561
  584MOL0     H77059   4.793   2.185   8.105  0.8136 -1.2247  2.2898
  584MOL0     H77060   5.078   2.281   8.179 -0.1832 -2.3261 -0.0501
  584MOL0     H77061   4.917   2.344   8.224 -1.4533 -0.5619  0.8099
  584MOL0     H77062   5.001   2.065   8.298 -0.8209  0.5416 -1.0492
  584MOL0     H77063   4.858   2.158   8.353  0.9064 -0.4993  2.1997
  584MOL0     H77064   5.013   2.156   8.520  0.7102 -2.6907 -1.8981
  584MOL0     H77065   4.986   2.323   8.475 -1.4463 -2.6910  1.9747
  584MOL0     H77066   5.232   2.183   8.334  3.2819  2.0744  0.3406
  584MOL0     H77067   5.194   2.348   8.384 -2.8068  0.0169 -0.6884
  584MOL0     H77068   5.380   2.258   8.521  0.1760 -0.5821 -1.5016
  584MOL0     H77069   5.269   2.140   8.587  0.7475  0.4561 -0.3716
  584MOL0     H77070   5.137   2.518   7.924 -0.0006  2.9205  1.3406
  584MOL0     H77071   5.312   2.628   7.774  0.1570  0.4348 -1.1361
  584MOL0     H77072   5.442   2.683   7.177  0.1388  1.1795 -1.8026
  584MOL0     H77073   5.643   2.772   7.120  0.1795 -0.9264 -1.0724
  584MOL0     H77074   6.708   1.982   6.222  2.5001 -0.9381 -2.1513
  584MOL0     H77075   6.918   1.968   6.096  0.7002  0.0881  0.0487
  584MOL0     H77076   7.304   2.435   5.877 -0.6341  1.5950  1.7669
  584MOL0     H77077   7.528   2.386   5.792  1.7812  0.9150  1.7966
  584MOL0     H77078   7.757   2.388   5.807  0.9772 -2.0289  3.4656
  584MOL0     H77079   7.680   2.268   5.688 -2.0623 -1.1475  0.8756
  584MOL0     H77080   7.936   2.317   5.674 -0.6475 -0.4077 -0.6972
  584MOL0     H77081   7.949   2.267   5.832  1.3496  1.8428 -1.4729
  584MOL0     H77082   7.839   2.038   5.761 -1.5580 -0.0453 -1.3058
  584MOL0     H77083   8.009   2.087   5.708  0.7672  2.0322 -0.4511
  584MOL0     H77084   7.903   2.177   5.497 -1.9948 -1.9576 -1.8515
  584MOL0     H77085   7.911   2.002   5.517  4.0613  1.2142 -1.5392
  584MOL0     H77086   7.502   2.003   5.569 -1.9597  3.1907 -3.3549
  584MOL0     H77087   7.572   2.063   6.055 -0.1101  0.1873 -0.6003
  584MOL0     H77088   7.347   2.085   6.143  1.6451 -2.0823  0.2839
  585MOL0     O77089   5.405   6.178   1.159 -0.8361  0.6488  0.1488
  585MOL0     C77090   5.507   6.176   1.233 -1.2629  1.1042 -0.5176
  585MOL0     O77091   5.595   6.070   1.251  0.2057  1.2884  1.1582
  585MOL0     C77092   5.594   5.962   1.169 -1.1819 -0.0961  0.8497
  585MOL0     C77093   5.716   5.893   1.166 -0.3781 -0.5536 -0.3550
  585MOL0     C77094   5.743   5.779   1.086  0.0890 -0.4148 -0.4145
  585MOL0     C77095   5.646   5.742   0.995  0.3422 -0.2626  0.1292
  585MOL0     O77096   5.662   5.631   0.908  0.1150  0.1517  0.8035
  585MOL0     C77097   5.785   5.570   0.874  0.2935  0.1762  0.0511
  585MOL0     C77098   5.766   5.495   0.739 -0.1431  0.2623 -0.5195
  585MOL0     C77099   5.876   5.405   0.700 -1.4584  0.4960 -0.5719
  585MOL0     C77100   5.827   5.285   0.616 -0.9487 -0.0286  0.1476
  585MOL0     C77101   5.940   5.193   0.580 -0.2167 -0.1659  0.4641
  585MOL0     C77102   5.913   5.103   0.459  1.1116 -0.2735 -0.4429
  585MOL0     C77103   6.027   4.996   0.452  0.3908 -0.2391 -0.9343
  585MOL0     C77104   6.163   5.047   0.401  0.7438 -0.9024 -0.2326
  585MOL0     N77105   6.268   4.959   0.450 -1.2205  0.4714 -1.3192
  585MOL0     C77106   6.294   4.829   0.412 -0.9325  0.2488  0.3225
  585MOL0     C77107   6.410   4.794   0.481  0.1753  0.0527 -0.4114
  585MOL0     C77108   6.476   4.652   0.480  0.0852 -0.0347  0.3953
  585MOL0     C77109   6.592   4.643   0.381 -0.0329 -0.0463  0.1907
  585MOL0     C77110   6.725   4.684   0.430  0.4796  0.5442  0.7167
  585MOL0     C77111   6.836   4.651   0.323 -0.6777  0.0315 -0.2103
  585MOL0     O77112   6.790   4.674   0.193 -0.2041  0.0661 -0.3064
  585MOL0     C77113   6.888   4.661   0.093 -0.3611  0.4706  1.3780
  585MOL0     C77114   7.030   4.626   0.118  0.0353 -1.2813  0.2007
  585MOL0     C77115   7.120   4.619   0.005 -0.6568 -0.6068  0.8327
  585MOL0     C77116   7.096   4.662  -0.119 -0.2763 -0.7244  0.2973
  585MOL0     C77117   7.198   4.636  -0.223  0.1318 -0.6179 -0.6516
  585MOL0     O77118   7.312   4.573  -0.189 -0.3084 -0.5590  0.7914
  585MOL0     C77119   7.401   4.551  -0.288 -0.1877 -1.0125 -0.3382
  585MOL0     C77120   7.471   4.656  -0.345  0.3393  0.8150 -0.3963
  585MOL0     C77121   7.573   4.629  -0.444  0.4922  0.1983  0.3743
  585MOL0     C77122   7.605   4.495  -0.477 -0.4405  0.4245  0.3717
  585MOL0     O77123   7.705   4.441  -0.555 -0.4306 -0.3707 -0.4995
  585MOL0     C77124   7.817   4.534  -0.593  0.0975  0.4197  0.2635
  585MOL0     C77125   7.928   4.447  -0.639  0.3059  0.6389  0.4762
  585MOL0     C77126   8.071   4.519  -0.657 -1.1645 -0.2807 -0.6116
  585MOL0     C77127   8.052   4.646  -0.728  0.1967  0.0921  0.7072
  585MOL0     C77128   8.191   4.700  -0.786 -0.0719 -0.5044  0.2758
  585MOL0     C77129   8.282   4.742  -0.665  0.5669 -0.6290  0.5380
  585MOL0     C77130   8.422   4.795  -0.713 -0.2027  0.3073 -0.0719
  585MOL0     C77131   8.515   4.830  -0.592 -0.2267 -1.0083  0.7714
  585MOL0    Cl77132   8.463   4.984  -0.520 -0.0351 -0.0387  0.1644
  585MOL0     C77133   7.522   4.393  -0.421 -0.6415 -0.0100  0.0373
  585MOL0     C77134   7.421   4.420  -0.332  0.5726 -0.7690  0.0029
  585MOL0     O77135   7.169   4.683  -0.334  0.2812  0.5792  0.2604
  585MOL0     C77136   6.961   4.716  -0.139 -1.0464  0.5866 -0.2860
  585MOL0     C77137   6.863   4.702  -0.038  0.3481 -0.1760 -0.2493
  585MOL0     N77138   6.458   4.905   0.552  0.0066 -1.3197  0.4257
  585MOL0     N77139   6.368   5.000   0.535  0.2776  0.8298 -0.0038
  585MOL0     C77140   5.525   5.811   0.989 -0.4246  0.5007  0.7320
  585MOL0     C77141   5.499   5.913   1.074  0.3928  0.7479  0.3391
  585MOL0     C77142   5.550   6.289   1.303 -0.0512 -0.0365 -1.0213
  585MOL0     C77143   5.503   6.414   1.277 -0.1732  0.1433 -1.3988
  585MOL0     C77144   5.546   6.528   1.354  0.5749 -0.0820 -0.2848
  585MOL0     C77145   5.630   6.509   1.465  0.2709 -1.0685 -0.4948
  585MOL0     O77146   5.661   6.607   1.555 -0.4394  0.2927  0.1332
  585MOL0     C77147   5.613   6.738   1.532  0.0787 -0.7001 -0.4584
  585MOL0     C77148   5.689   6.839   1.623 -0.0493 -0.5271 -0.3480
  585MOL0     C77149   5.634   6.831   1.766  0.1807  0.5454 -0.4538
  585MOL0     C77150   5.690   6.936   1.867  0.6817 -0.7830  0.1437
  585MOL0     C77151   5.833   6.934   1.898 -0.4111  0.7102 -0.0214
  585MOL0     C77152   5.949   6.911   1.926 -0.5161 -1.0758  0.5049
  585MOL0     C77153   5.674   6.380   1.491 -0.0841 -0.5067  0.6726
  585MOL0     C77154   5.633   6.278   1.406  1.0280  0.1944 -0.7948
  585MOL0     H77155   5.791   5.939   1.230 -1.1153  0.8815 -0.4720
  585MOL0     H77156   5.837   5.726   1.097 -0.6458 -1.5143  0.9983
  585MOL0     H77157   5.809   5.503   0.957  0.9533 -0.2477 -0.4768
  585MOL0     H77158   5.864   5.645   0.861  1.4772 -1.2262 -1.1828
  585MOL0     H77159   5.764   5.577   0.666  0.5683 -1.0182 -2.0443
  585MOL0     H77160   5.674   5.437   0.750  1.1138 -1.7545  0.0660
  585MOL0     H77161   5.912   5.365   0.795 -3.0286  2.6101  1.0165
  585MOL0     H77162   5.954   5.466   0.654  0.0424 -0.0193  1.1826
  585MOL0     H77163   5.756   5.222   0.670 -1.2527 -0.6946 -1.0031
  585MOL0     H77164   5.779   5.337   0.532  1.1160 -1.1804 -1.8401
  585MOL0     H77165   5.972   5.128   0.662  0.6697  0.3440  0.5257
  585MOL0     H77166   6.024   5.258   0.555 -0.1846 -0.5655 -0.4802
  585MOL0     H77167   5.903   5.179   0.381  1.1301 -0.2678 -0.4398
  585MOL0     H77168   5.813   5.059   0.468  1.1576 -0.4330 -0.7026
  585MOL0     H77169   6.036   4.960   0.555  1.5935  3.5385  0.4540
  585MOL0     H77170   6.000   4.905   0.398  2.5863 -1.7304  0.3162
  585MOL0     H77171   6.184   5.145   0.446 -0.8028 -0.9148  0.5872
  585MOL0     H77172   6.159   5.051   0.292  4.3922 -2.7344 -0.5892
  585MOL0     H77173   6.225   4.779   0.346  0.2170  2.5423 -2.9047
  585MOL0     H77174   6.410   4.565   0.474 -0.0332 -0.0904  2.0372
  585MOL0     H77175   6.524   4.630   0.576  0.3133 -0.3713  0.2045
  585MOL0     H77176   6.565   4.703   0.294  1.5136  1.2624  0.5656
  585MOL0     H77177   6.597   4.541   0.341 -0.1947  0.2615 -0.6173
  585MOL0     H77178   6.729   4.793   0.441  0.9233  0.5810  0.2903
  585MOL0     H77179   6.753   4.647   0.529  0.9040  2.9047  1.5434
  585MOL0     H77180   6.846   4.542   0.330 -0.2662 -0.0240 -1.4437
  585MOL0     H77181   6.924   4.710   0.352  1.1820 -0.5151 -4.0951
  585MOL0     H77182   7.059   4.589   0.216 -0.2606  1.7030  1.5445
  585MOL0     H77183   7.211   4.564   0.025  1.4858  2.8763  1.5667
  585MOL0     H77184   7.449   4.755  -0.309 -3.2707 -0.0640  0.1876
  585MOL0     H77185   7.628   4.713  -0.486  0.6547  1.8224  3.5583
  585MOL0     H77186   7.841   4.594  -0.506 -2.9954 -0.2839  1.7112
  585MOL0     H77187   7.775   4.607  -0.663 -0.7050  1.4187  1.7632
  585MOL0     H77188   7.904   4.400  -0.735  3.7783  0.4573 -0.4663
  585MOL0     H77189   7.934   4.361  -0.572  2.0031  0.1510 -0.2391
  585MOL0     H77190   8.148   4.457  -0.705 -2.0450 -1.6144 -0.3369
  585MOL0     H77191   8.133   4.532  -0.567 -0.6601  1.3098 -1.1586
  585MOL0     H77192   7.983   4.606  -0.803 -0.5862 -1.9059  2.4018
  585MOL0     H77193   8.003   4.719  -0.662  1.3888 -1.1720  3.1470
  585MOL0     H77194   8.174   4.782  -0.857 -2.0234 -0.4034  0.7964
  585MOL0     H77195   8.241   4.621  -0.843 -2.3686 -2.5961  0.9693
  585MOL0     H77196   8.306   4.663  -0.593  2.4433 -0.9590 -0.3765
  585MOL0     H77197   8.240   4.828  -0.612  1.0518  0.8565 -1.3501
  585MOL0     H77198   8.473   4.726  -0.781  1.7055  1.7643 -0.2095
  585MOL0     H77199   8.399   4.888  -0.766  1.1658  1.8286  1.8871
  585MOL0     H77200   8.615   4.839  -0.635  0.0816 -2.2313  1.1643
  585MOL0     H77201   8.506   4.760  -0.508  1.0958 -1.2052  0.7847
  585MOL0     H77202   7.552   4.291  -0.444  0.1163  0.4003 -0.8729
  585MOL0     H77203   7.357   4.345  -0.288 -0.6171  0.0214 -0.3306
  585MOL0     H77204   6.933   4.745  -0.240 -1.2695 -1.8023 -0.9567
  585MOL0     H77205   6.760   4.732  -0.052  0.4123  0.0581 -0.2210
  585MOL0     H77206   5.464   5.768   0.910  0.1587  1.1337 -0.0809
  585MOL0     H77207   5.404   5.965   1.072  1.4296  2.7230 -1.9674
  585MOL0     H77208   5.444   6.444   1.191 -0.8800  1.1610 -0.6017
  585MOL0     H77209   5.505   6.621   1.316 -1.6940 -1.1598 -0.6812
  585MOL0     H77210   5.507   6.742   1.556  0.7253  0.4413  2.5294
  585MOL0     H77211   5.618   6.764   1.425 -0.2691  2.8047  0.2719
  585MOL0     H77212   5.798   6.839   1.623 -0.0250 -0.1475  1.5656
  585MOL0     H77213   5.673   6.942   1.591 -0.3879 -0.4936 -0.0781
  585MOL0     H77214   5.652   6.734   1.814  0.5163  1.7133  1.9164
  585MOL0     H77215   5.527   6.852   1.758  0.5807  3.0820 -0.0290
  585MOL0     H77216   5.653   7.035   1.840 -3.8106 -2.4243 -0.6647
  585MOL0     H77217   5.642   6.920   1.964  1.1577  3.6262  1.3304
  585MOL0     H77218   6.048   6.898   1.964  0.6141 -0.2933 -1.9584
  585MOL0     H77219   5.744   6.365   1.572 -0.0026 -0.0434  0.6874
  585MOL0     H77220   5.669   6.176   1.423  1.6019  0.2905 -1.3812
  586MOL0     O77221   1.656   9.473   4.691 -0.5584  0.3836 -0.0797
  586MOL0     C77222   1.692   9.420   4.802  0.1683  0.2765  0.0323
  586MOL0     O77223   1.819   9.358   4.824 -0.1454  0.0172 -0.2294
  586MOL0     C77224   1.916   9.329   4.727 -0.4983  0.4077  0.3492
  586MOL0     C77225   2.034   9.275   4.784  0.0944  0.1246  0.3135
  586MOL0     C77226   2.140   9.229   4.704  0.7943 -0.0047  0.4615
  586MOL0     C77227   2.131   9.235   4.560 -0.7855  0.4874  0.6964
  586MOL0     O77228   2.227   9.181   4.474 -0.0330  0.0110  0.4030
  586MOL0     C77229   2.324   9.106   4.537 -0.9582  0.3176  0.2041
  586MOL0     C77230   2.395   9.031   4.432 -0.8797 -0.6259  0.1032
  586MOL0     C77231   2.301   8.935   4.361 -0.0703 -0.5800 -0.9258
  586MOL0     C77232   2.295   8.798   4.434 -1.0358  0.2310 -0.9114
  586MOL0     C77233   2.215   8.683   4.375 -1.0789  0.9652 -0.5231
  586MOL0     C77234   2.214   8.551   4.456  0.8151 -0.1644 -0.0521
  586MOL0     C77235   2.346   8.473   4.467  0.6323  0.5593  0.2047
  586MOL0     C77236   2.313   8.332   4.547 -0.4128 -0.6798  0.3095
  586MOL0     N77237   2.301   8.335   4.686  0.4033 -0.1398 -0.1903
  586MOL0     C77238   2.409   8.300   4.766 -0.5478 -1.0409 -0.9562
  586MOL0     C77239   2.374   8.355   4.881 -1.1217 -0.5382  0.3120
  586MOL0     C77240   2.442   8.372   5.016  0.2377  0.5066 -0.6289
  586MOL0     C77241   2.535   8.258   5.072  0.8547 -0.5268  0.6782
  586MOL0     C77242   2.446   8.128   5.103 -0.1631  0.4433  0.6471
  586MOL0     C77243   2.521   8.043   5.203 -0.5302  0.1829 -0.4578
  586MOL0     O77244   2.442   7.923   5.211 -0.1750  0.3467  0.3502
  586MOL0     C77245   2.331   7.927   5.287  0.3757 -1.2241 -0.2066
  586MOL0     C77246   2.334   7.970   5.425 -0.4279 -0.2438 -0.0698
  586MOL0     C77247   2.213   7.969   5.497 -0.9875  0.1566  0.6441
  586MOL0     C77248   2.094   7.927   5.434 -0.4731 -0.0703  0.5393
  586MOL0     C77249   1.972   7.949   5.515  0.2578  0.2141  1.0450
  586MOL0     O77250   1.993   7.982   5.646 -0.2795  0.6101 -0.2940
  586MOL0     C77251   1.920   8.083   5.698  0.5662 -0.1180  0.6480
  586MOL0     C77252   1.911   8.086   5.840 -0.3143  0.1844 -0.1582
  586MOL0     C77253   1.841   8.180   5.909 -0.0984  0.0115  0.1876
  586MOL0     C77254   1.770   8.280   5.850 -0.1250  0.3720 -0.2055
  586MOL0     O77255   1.710   8.378   5.929  0.1450 -0.3091 -1.4245
  586MOL0     C77256   1.583   8.426   5.883  0.2786  0.0667 -0.4885
  586MOL0     C77257   1.473   8.318   5.909 -0.0694  0.0225  0.7456
  586MOL0     C77258   1.344   8.375   5.965 -0.5637  0.1227 -0.7377
  586MOL0     C77259   1.247   8.276   6.027  0.1414  0.9781 -0.0114
  586MOL0     C77260   1.285   8.241   6.173  0.5646 -0.4092 -0.7262
  586MOL0     C77261   1.175   8.161   6.244 -0.1799 -0.3836 -0.4494
  586MOL0     C77262   1.164   8.203   6.390 -0.4084  0.1793  0.5113
  586MOL0     C77263   1.049   8.146   6.460  0.5660 -0.6063  0.0193
  586MOL0    Cl77264   1.087   8.117   6.640 -0.0000  0.2340 -0.1725
  586MOL0     C77265   1.765   8.274   5.703 -0.6064  0.1454 -0.0720
  586MOL0     C77266   1.843   8.178   5.628  0.0560 -0.2397  0.2858
  586MOL0     O77267   1.861   7.936   5.465 -0.3492  0.2792 -0.1862
  586MOL0     C77268   2.097   7.883   5.302 -0.6637 -0.3480  0.1013
  586MOL0     C77269   2.213   7.885   5.231  0.2379  0.1541 -0.2565
  586MOL0     N77270   2.253   8.413   4.870 -0.3907 -0.7838 -0.4293
  586MOL0     N77271   2.212   8.413   4.752  0.8094  0.0311  0.8425
  586MOL0     C77272   2.019   9.295   4.502  0.7225 -0.7272 -0.1063
  586MOL0     C77273   1.911   9.346   4.591  0.3606 -0.3332 -0.6336
  586MOL0     C77274   1.600   9.449   4.913 -0.2367 -0.3681 -0.0352
  586MOL0     C77275   1.633   9.427   5.042  0.4856 -0.3258  0.4537
  586MOL0     C77276   1.553   9.449   5.155 -0.2481  0.1169  0.9406
  586MOL0     C77277   1.425   9.504   5.148 -0.4868 -0.4574  0.3735
  586MOL0     O77278   1.358   9.542   5.264 -0.3309  0.1839 -0.0603
  586MOL0     C77279   1.223   9.577   5.258 -0.7705  0.9154  0.5667
  586MOL0     C77280   1.165   9.634   5.386  0.4517 -0.0300 -0.0856
  586MOL0     C77281   1.042   9.718   5.349  0.5092 -0.0515 -0.2611
  586MOL0     C77282   0.909   9.645   5.352  0.5115  0.1087 -0.1262
  586MOL0     C77283   0.895   9.518   5.277 -0.1388 -0.8875 -0.0578
  586MOL0     C77284   0.895   9.417   5.215  0.3204  0.4483 -0.7055
  586MOL0     C77285   1.397   9.545   5.009 -0.0358  0.0857  0.3241
  586MOL0     C77286   1.473   9.512   4.901 -0.5160  0.0136 -1.1376
  586MOL0     H77287   2.046   9.266   4.892  0.6023 -2.0985  0.1146
  586MOL0     H77288   2.223   9.178   4.751 -0.6983 -1.5890  1.5186
  586MOL0     H77289   2.298   9.039   4.620  0.5519 -1.8349 -0.9592
  586MOL0     H77290   2.397   9.179   4.575  2.7449 -2.7040 -0.4377
  586MOL0     H77291   2.491   8.990   4.461  0.1574  2.2582  1.1500
  586MOL0     H77292   2.431   9.105   4.359  0.9701 -4.0823 -2.8054
  586MOL0     H77293   2.339   8.908   4.262 -2.4156 -0.9501 -1.7903
  586MOL0     H77294   2.202   8.975   4.336  0.3512  0.5348 -0.8800
  586MOL0     H77295   2.398   8.762   4.448 -0.7853  1.5745  1.0693
  586MOL0     H77296   2.254   8.813   4.535 -1.5130  1.2576 -1.2490
  586MOL0     H77297   2.272   8.665   4.283  0.3101 -2.2462  0.8038
  586MOL0     H77298   2.116   8.725   4.358 -0.9132  0.6164 -2.6328
  586MOL0     H77299   2.143   8.487   4.403  0.9818 -0.7458  0.4254
  586MOL0     H77300   2.166   8.585   4.548 -1.6183  0.9067 -1.5846
  586MOL0     H77301   2.386   8.433   4.374  1.9523  0.4525  0.7946
  586MOL0     H77302   2.399   8.548   4.527 -3.8682  2.0291  2.8837
  586MOL0     H77303   2.382   8.252   4.519 -2.7492 -2.1620 -1.7018
  586MOL0     H77304   2.222   8.289   4.503 -2.8371  1.9410  2.4603
  586MOL0     H77305   2.504   8.254   4.743  0.1319  0.3865 -1.0805
  586MOL0     H77306   2.363   8.388   5.091  1.2987  1.2846  0.3462
  586MOL0     H77307   2.502   8.463   5.010  1.0041  0.1206  0.7473
  586MOL0     H77308   2.586   8.287   5.164  2.7267  0.9789 -0.7434
  586MOL0     H77309   2.617   8.242   5.001  1.3371  2.6697  0.3894
  586MOL0     H77310   2.349   8.149   5.147 -0.6410  0.8754 -0.5536
  586MOL0     H77311   2.418   8.073   5.013 -0.4453 -3.1276  2.7598
  586MOL0     H77312   2.540   8.086   5.302  2.0054  0.3447 -0.9518
  586MOL0     H77313   2.621   8.029   5.162 -0.4787  1.2135 -0.7032
  586MOL0     H77314   2.428   8.001   5.471 -0.8194 -1.4655  1.6856
  586MOL0     H77315   2.222   8.005   5.599 -0.6531 -0.7494  0.9528
  586MOL0     H77316   1.958   8.011   5.903  1.6899  1.2224 -0.3163
  586MOL0     H77317   1.842   8.192   6.017 -2.4790  2.7354  0.0228
  586MOL0     H77318   1.573   8.447   5.776  2.5983 -0.4360 -0.8507
  586MOL0     H77319   1.560   8.517   5.938  1.2637 -0.8433  1.5142
  586MOL0     H77320   1.518   8.237   5.967  0.3446  0.3683  0.9134
  586MOL0     H77321   1.429   8.278   5.817  2.0029  1.4202 -0.9585
  586MOL0     H77322   1.283   8.427   5.891  0.0032  0.5959 -0.8786
  586MOL0     H77323   1.355   8.458   6.035 -3.1013 -1.0226  1.1918
  586MOL0     H77324   1.141   8.303   6.029 -0.8480 -2.3338 -1.4655
  586MOL0     H77325   1.255   8.193   5.957 -0.4467  0.5280  0.4414
  586MOL0     H77326   1.303   8.335   6.226  0.8833 -0.9983  0.2471
  586MOL0     H77327   1.382   8.194   6.189  0.6690  0.4038  1.3834
  586MOL0     H77328   1.202   8.055   6.240  1.6380  0.0420 -0.4130
  586MOL0     H77329   1.076   8.179   6.201 -1.0705  1.2277  2.0422
  586MOL0     H77330   1.257   8.180   6.442 -0.3239 -0.0791  0.2490
  586MOL0     H77331   1.150   8.311   6.405 -3.4800 -0.1732  0.7783
  586MOL0     H77332   1.025   8.048   6.416 -2.6151 -0.3878  0.9716
  586MOL0     H77333   0.962   8.210   6.447  2.2752  1.5788 -1.2870
  586MOL0     H77334   1.706   8.337   5.638 -0.3223 -3.1184 -3.8590
  586MOL0     H77335   1.850   8.185   5.520 -0.0135 -3.0635  0.0112
  586MOL0     H77336   2.000   7.858   5.260 -1.3979  1.3033  0.7037
  586MOL0     H77337   2.199   7.856   5.128 -0.8271  0.6595 -0.2637
  586MOL0     H77338   2.020   9.307   4.394 -1.3289  0.4968 -0.0435
  586MOL0     H77339   1.819   9.392   4.555 -0.6780 -1.5330  0.3975
  586MOL0     H77340   1.735   9.389   5.052  0.4714 -0.1472  1.3570
  586MOL0     H77341   1.591   9.408   5.248 -2.6992 -0.6835  1.6558
  586MOL0     H77342   1.163   9.487   5.240 -1.5275  0.6379  3.8708
  586MOL0     H77343   1.204   9.647   5.176  4.3737  0.6670 -1.2090
  586MOL0     H77344   1.136   9.557   5.457 -1.6973 -1.2258 -2.1380
  586MOL0     H77345   1.243   9.692   5.437  0.8072  1.8138 -2.5040
  586MOL0     H77346   1.054   9.761   5.248 -0.3193  0.9781  0.0550
  586MOL0     H77347   1.039   9.805   5.416  0.2263  2.8821 -3.7310
  586MOL0     H77348   0.903   9.612   5.456 -1.7773  1.9595  0.4061
  586MOL0     H77349   0.828   9.712   5.323  1.5220  1.4933  0.1445
  586MOL0     H77350   0.888   9.323   5.164  4.3498  1.1075 -2.9281
  586MOL0     H77351   1.305   9.597   4.982 -0.5899 -1.7355 -1.4921
  586MOL0     H77352   1.435   9.544   4.804 -2.9715 -2.0732 -0.9818
  587MOL0     O77353   5.280   1.267  10.962 -0.3561 -0.5862 -0.7033
  587MOL0     C77354   5.329   1.365  10.905 -1.3491  0.2243  0.5950
  587MOL0     O77355   5.260   1.447  10.825 -0.1437 -0.8651 -1.0863
  587MOL0     C77356   5.126   1.445  10.844 -0.4835  0.1259 -0.1219
  587MOL0     C77357   5.033   1.405  10.749  1.0344  0.8193 -0.6749
  587MOL0     C77358   4.891   1.406  10.786  0.1422 -0.6568  0.3436
  587MOL0     C77359   4.859   1.462  10.905  0.8429  0.6299  0.3965
  587MOL0     O77360   4.727   1.489  10.929 -0.7849  0.0759  0.5293
  587MOL0     C77361   4.664   1.393  11.020  0.2708 -0.4677 -0.2006
  587MOL0     C77362   4.524   1.444  11.059 -0.1452  0.5675  0.5154
  587MOL0     C77363   4.526   1.484  11.199 -0.5637 -0.2869 -0.0397
  587MOL0     C77364   4.567   1.628  11.237 -0.0714  0.0166 -0.0961
  587MOL0     C77365   4.503   1.680  11.372  0.0344  0.8767 -0.3798
  587MOL0     C77366   4.492   1.568  11.479  0.2477  0.7353  0.5974
  587MOL0     C77367   4.539   1.613  11.616 -0.2387 -0.4340  0.2587
  587MOL0     C77368   4.699   1.622  11.621  0.2526 -0.0821  0.5295
  587MOL0     N77369   4.750   1.560  11.741  0.5227  0.3077  0.2259
  587MOL0     C77370   4.834   1.622  11.835  0.7089 -0.3688  0.8209
  587MOL0     C77371   4.874   1.529  11.926  0.0114 -0.3885 -0.0759
  587MOL0     C77372   4.954   1.558  12.046 -1.0952  0.3709 -0.2427
  587MOL0     C77373   4.876   1.608  12.161 -0.2069  0.6322 -0.1707
  587MOL0     C77374   4.861   1.759  12.151  0.0522  0.6475  0.5976
  587MOL0     C77375   4.781   1.813  12.269 -0.5616 -0.6225 -0.4147
  587MOL0     O77376   4.649   1.750  12.297  0.2877 -0.1200 -0.4919
  587MOL0     C77377   4.567   1.729  12.189  0.0717 -1.6140 -0.2944
  587MOL0     C77378   4.553   1.829  12.093 -0.4349 -0.7187 -0.3788
  587MOL0     C77379   4.471   1.825  11.990 -0.8952  0.7888  1.0549
  587MOL0     C77380   4.389   1.712  11.973  0.0008 -1.0908  0.7182
  587MOL0     C77381   4.275   1.724  11.872  0.0977  0.9651  0.0406
  587MOL0     O77382   4.167   1.643  11.890  0.2728  0.4038  0.8869
  587MOL0     C77383   4.059   1.661  11.808 -1.5340  0.8368  0.4956
  587MOL0     C77384   4.032   1.567  11.711  0.2219 -0.2568  0.1132
  587MOL0     C77385   3.929   1.583  11.625  0.0842  0.5320 -0.6644
  587MOL0     C77386   3.844   1.697  11.631  0.3394  0.0626 -0.3676
  587MOL0     O77387   3.744   1.727  11.554  0.4968 -0.0531  0.7514
  587MOL0     C77388   3.671   1.617  11.493 -0.1939  0.9195 -0.6347
  587MOL0     C77389   3.525   1.672  11.447 -0.9377  0.7203 -0.8561
  587MOL0     C77390   3.537   1.757  11.322 -0.1418  0.4368 -0.3178
  587MOL0     C77391   3.385   1.785  11.273 -0.4439  0.1816 -0.1977
  587MOL0     C77392   3.395   1.899  11.188 -0.8021  0.1192  0.6270
  587MOL0     C77393   3.269   1.936  11.110 -0.4443  0.9492 -0.5071
  587MOL0     C77394   3.160   1.996  11.195 -1.2107 -0.4760  0.2509
  587MOL0     C77395   3.044   2.052  11.118 -0.9405 -0.4080 -0.5909
  587MOL0    Cl77396   2.959   1.938  11.007  0.3109 -0.2353 -0.2720
  587MOL0     C77397   3.870   1.798  11.722 -0.1132 -0.6242  0.4207
  587MOL0     C77398   3.979   1.778  11.814 -0.1671 -0.0890  0.0820
  587MOL0     O77399   4.290   1.814  11.791  0.3004  0.5924  0.7694
  587MOL0     C77400   4.413   1.603  12.057  0.5126  0.1538 -1.3701
  587MOL0     C77401   4.501   1.605  12.166  0.0040 -0.6672  0.0828
  587MOL0     N77402   4.812   1.410  11.886 -0.3620  0.1550 -0.1412
  587MOL0     N77403   4.742   1.424  11.771 -0.8835  0.3528 -0.5290
  587MOL0     C77404   4.950   1.509  10.992 -0.0996 -0.2039 -0.4595
  587MOL0     C77405   5.080   1.495  10.965  0.3613  0.0036 -0.9636
  587MOL0     C77406   5.482   1.386  10.909  0.5564  0.6664  0.0789
  587MOL0     C77407   5.563   1.472  10.824  0.8427 -0.1885  0.0732
  587MOL0     C77408   5.702   1.473  10.836  0.2038 -0.0724  0.7631
  587MOL0     C77409   5.767   1.402  10.933  0.3121  0.4100 -0.1905
  587MOL0     O77410   5.899   1.413  10.934 -0.4411  0.1062  0.6887
  587MOL0     C77411   5.974   1.313  10.992  0.3120 -0.2416  0.1827
  587MOL0     C77412   6.127   1.340  10.981 -0.1454 -0.4404  0.0545
  587MOL0     C77413   6.166   1.432  11.096 -0.6850 -0.5211 -0.0944
  587MOL0     C77414   6.316   1.451  11.095  0.4902  0.1845 -0.0632
  587MOL0     C77415   6.337   1.534  11.213 -0.6292 -0.0061 -0.1988
  587MOL0     C77416   6.352   1.611  11.310  0.1740  0.2309 -0.5228
  587MOL0     C77417   5.688   1.316  11.021 -0.4105 -1.0226 -0.6721
  587MOL0     C77418   5.544   1.319  11.011 -0.7907 -0.3935 -0.8386
  587MOL0     H77419   5.050   1.358  10.653 -1.7997 -0.4054 -0.6936
  587MOL0     H77420   4.802   1.372  10.734 -0.5728 -1.6955  2.1660
  587MOL0     H77421   4.720   1.369  11.111  1.1649 -1.7630 -1.0657
  587MOL0     H77422   4.663   1.307  10.952  0.3011  0.7255 -1.7571
  587MOL0     H77423   4.453   1.363  11.038  1.7842 -1.0637 -0.0472
  587MOL0     H77424   4.480   1.507  10.981 -1.2114 -0.3595  0.3225
  587MOL0     H77425   4.587   1.410  11.253  1.3663  1.0928 -0.1955
  587MOL0     H77426   4.419   1.475  11.216 -1.5784  0.1499 -4.7628
  587MOL0     H77427   4.674   1.648  11.238  0.5462 -2.5933  3.1210
  587MOL0     H77428   4.534   1.691  11.154  1.4729  2.9583  1.3809
  587MOL0     H77429   4.399   1.710  11.354 -1.0255 -2.2199 -0.0472
  587MOL0     H77430   4.565   1.764  11.403  1.5029  0.1875 -1.3525
  587MOL0     H77431   4.538   1.477  11.441 -0.5508  0.6017 -0.0895
  587MOL0     H77432   4.389   1.534  11.487  0.2332  0.4167 -0.6928
  587MOL0     H77433   4.487   1.706  11.642  2.1116  1.4492 -1.3111
  587MOL0     H77434   4.506   1.547  11.697 -0.1705 -0.6386  0.1217
  587MOL0     H77435   4.731   1.727  11.618  1.5008 -0.2464 -5.4235
  587MOL0     H77436   4.734   1.570  11.531  0.9925  0.8602  0.2525
  587MOL0     H77437   4.855   1.728  11.849 -2.5633  0.3881  0.8532
  587MOL0     H77438   5.032   1.630  12.019  1.8063 -1.5757  2.2784
  587MOL0     H77439   5.009   1.469  12.078 -1.5497  0.1077 -0.1826
  587MOL0     H77440   4.939   1.580  12.246  2.1435  1.0537 -1.6850
  587MOL0     H77441   4.781   1.553  12.167 -0.1939 -0.2978 -4.8926
  587MOL0     H77442   4.958   1.810  12.144 -0.1648  1.0063  0.1580
  587MOL0     H77443   4.806   1.793  12.063 -1.7362  0.9939  1.7751
  587MOL0     H77444   4.756   1.919  12.257 -0.2332 -0.3693  1.0296
  587MOL0     H77445   4.843   1.785  12.354  1.5363  0.7611 -1.4133
  587MOL0     H77446   4.617   1.916  12.101  0.4265 -0.7385 -4.7983
  587MOL0     H77447   4.469   1.914  11.928 -1.0042  0.8811  1.1906
  587MOL0     H77448   4.100   1.485  11.688 -4.0596 -4.4236  0.7348
  587MOL0     H77449   3.903   1.497  11.565 -2.1642 -1.1615  2.4188
  587MOL0     H77450   3.647   1.534  11.560  0.4895  0.6549 -0.7162
  587MOL0     H77451   3.725   1.587  11.403  1.1303  0.7824  0.1810
  587MOL0     H77452   3.493   1.738  11.529  0.2222  3.8198 -2.7071
  587MOL0     H77453   3.452   1.594  11.426  0.4572 -1.2165  1.0056
  587MOL0     H77454   3.595   1.707  11.244 -2.4110  2.0396 -3.2795
  587MOL0     H77455   3.579   1.856  11.340  1.4232 -0.0983 -0.9177
  587MOL0     H77456   3.358   1.699  11.211 -3.1114 -0.3862  1.5800
  587MOL0     H77457   3.314   1.798  11.355  2.7119  2.5919  2.4065
  587MOL0     H77458   3.470   1.877  11.111 -1.3962 -2.0469  0.6000
  587MOL0     H77459   3.435   1.986  11.239  2.2449 -0.5410 -0.4050
  587MOL0     H77460   3.228   1.847  11.060  2.1438  0.3925 -1.8319
  587MOL0     H77461   3.298   2.010  11.034  3.7705 -0.4360 -0.4867
  587MOL0     H77462   3.119   1.914  11.255 -1.3455 -0.3185  0.3748
  587MOL0     H77463   3.211   2.062  11.264  0.1009 -3.0107  1.8631
  587MOL0     H77464   3.087   2.134  11.060  2.7555  0.5581  3.0380
  587MOL0     H77465   2.969   2.089  11.189 -2.6808 -2.0730 -1.4835
  587MOL0     H77466   3.802   1.882  11.724  0.3073 -0.2923  1.4293
  587MOL0     H77467   3.995   1.856  11.888 -0.9512 -0.6127  0.8124
  587MOL0     H77468   4.372   1.508  12.025  3.0374 -0.6021 -2.6188
  587MOL0     H77469   4.529   1.518  12.224  2.6794 -0.4550 -0.7573
  587MOL0     H77470   4.915   1.548  11.088 -2.3687 -3.8954  0.4106
  587MOL0     H77471   5.152   1.523  11.042  0.7928  1.2206 -1.7739
  587MOL0     H77472   5.501   1.523  10.751 -0.4128 -0.9450  0.5757
  587MOL0     H77473   5.763   1.526  10.763 -0.9398  2.9303  1.8223
  587MOL0     H77474   5.954   1.221  10.935 -0.6172  1.3260 -2.1986
  587MOL0     H77475   5.944   1.296  11.095 -3.0941  0.5677 -0.5514
  587MOL0     H77476   6.172   1.242  10.999  0.3869  0.0011  1.2457
  587MOL0     H77477   6.153   1.378  10.882 -0.8679 -0.2583 -0.0669
  587MOL0     H77478   6.126   1.395  11.191  1.7559  0.5830  1.4526
  587MOL0     H77479   6.129   1.532  11.070 -0.0808 -0.0479  0.8122
  587MOL0     H77480   6.378   1.361  11.103  1.3172  0.6687 -0.8022
  587MOL0     H77481   6.355   1.517  11.016  3.8982  0.6561  1.8245
  587MOL0     H77482   6.364   1.669  11.399  0.9799 -1.5787  0.6045
  587MOL0     H77483   5.728   1.275  11.114 -3.8457  0.4673  1.6902
  587MOL0     H77484   5.487   1.265  11.086 -2.3184  1.7731 -0.3320
  588MOL0     O77485   7.516   3.147   7.424  0.4365 -0.5976  0.1739
  588MOL0     C77486   7.627   3.134   7.369  0.5808  0.4613 -0.2535
  588MOL0     O77487   7.751   3.168   7.435 -0.7395 -0.2584 -0.2555
  588MOL0     C77488   7.751   3.214   7.567  0.0142 -0.4556 -0.2009
  588MOL0     C77489   7.827   3.153   7.664  0.3725 -0.5665 -0.1028
  588MOL0     C77490   7.802   3.192   7.799 -0.1175  0.1072  0.1671
  588MOL0     C77491   7.726   3.306   7.835 -0.0062  0.0536  0.3045
  588MOL0     O77492   7.698   3.351   7.958  0.7775  1.2207 -0.3765
  588MOL0     C77493   7.763   3.279   8.070 -0.1281  0.2441  0.3280
  588MOL0     C77494   7.720   3.334   8.209 -0.2899 -0.2559  0.5252
  588MOL0     C77495   7.566   3.359   8.223  0.4627 -0.1677 -0.2806
  588MOL0     C77496   7.490   3.223   8.223  0.4165  0.5408  0.5652
  588MOL0     C77497   7.334   3.228   8.235 -0.9888  0.3394  0.6802
  588MOL0     C77498   7.275   3.287   8.364 -0.1802  0.0404  0.0716
  588MOL0     C77499   7.128   3.278   8.342  0.3795 -0.0729  0.0059
  588MOL0     C77500   7.053   3.298   8.478 -0.0202  0.2210 -0.3998
  588MOL0     N77501   7.044   3.436   8.534 -0.3351 -0.1354 -0.1876
  588MOL0     C77502   6.955   3.535   8.497 -0.2282  0.2631  0.4787
  588MOL0     C77503   6.990   3.649   8.555  0.4548  0.3226 -0.3619
  588MOL0     C77504   6.931   3.788   8.527  0.4722 -0.2507  0.1271
  588MOL0     C77505   6.772   3.790   8.528  0.0964  0.0393  0.2652
  588MOL0     C77506   6.726   3.921   8.463 -0.2644  1.2886 -0.4272
  588MOL0     C77507   6.571   3.933   8.468  0.1881  0.1063 -0.9907
  588MOL0     O77508   6.537   3.942   8.613  0.4653  0.0356 -0.0064
  588MOL0     C77509   6.413   3.987   8.657  0.9280  1.3457  0.3143
  588MOL0     C77510   6.375   3.998   8.798 -0.5687  0.5255  0.0074
  588MOL0     C77511   6.251   4.057   8.838 -0.4386  0.8925 -0.1019
  588MOL0     C77512   6.157   4.089   8.740  0.7120 -0.4979 -0.6363
  588MOL0     C77513   6.044   4.160   8.774  0.6397 -1.3923  0.8081
  588MOL0     O77514   5.939   4.142   8.695  0.2604 -0.2874  0.2874
  588MOL0     C77515   5.822   4.193   8.735  0.3960  0.7815  1.0687
  588MOL0     C77516   5.783   4.322   8.688  0.3248 -0.1688 -0.1102
  588MOL0     C77517   5.656   4.362   8.729  0.0863  0.1259  0.1791
  588MOL0     C77518   5.580   4.295   8.825  0.1504 -0.2589  1.0169
  588MOL0     O77519   5.454   4.331   8.858  0.4936  0.6057 -0.9934
  588MOL0     C77520   5.399   4.450   8.793  0.2583  0.9253  0.0266
  588MOL0     C77521   5.251   4.461   8.827  0.7606 -0.5963  0.4748
  588MOL0     C77522   5.176   4.334   8.797  0.6817  0.4023 -0.0188
  588MOL0     C77523   5.186   4.304   8.644 -0.1185 -0.0878  0.2407
  588MOL0     C77524   5.067   4.224   8.598 -0.0432 -0.6230  0.9502
  588MOL0     C77525   5.092   4.153   8.460  0.4663 -0.3319  0.8398
  588MOL0     C77526   4.972   4.070   8.429 -0.8260 -0.0038 -0.8113
  588MOL0     C77527   4.990   3.968   8.316 -0.6215 -0.4669  0.0809
  588MOL0    Cl77528   4.999   4.051   8.157 -0.0167  0.3599 -0.2663
  588MOL0     C77529   5.634   4.188   8.895 -0.3143 -0.1572 -1.1594
  588MOL0     C77530   5.761   4.139   8.846 -1.0313  0.0131 -0.1774
  588MOL0     O77531   6.044   4.229   8.881 -0.0364  0.0581 -0.1583
  588MOL0     C77532   6.186   4.065   8.606  0.2058 -0.9517 -0.3554
  588MOL0     C77533   6.314   4.015   8.564  1.0088 -0.5217  0.2288
  588MOL0     N77534   7.103   3.614   8.632  0.3937 -0.2318  0.3801
  588MOL0     N77535   7.139   3.496   8.616  0.7392 -0.4536  0.6945
  588MOL0     C77536   7.660   3.371   7.739 -0.9227 -0.7385 -0.4309
  588MOL0     C77537   7.678   3.329   7.607 -0.9668  0.0749  0.6387
  588MOL0     C77538   7.629   3.087   7.237 -0.1641  0.6498  1.1029
  588MOL0     C77539   7.700   3.158   7.141 -0.4500  0.3760 -0.7112
  588MOL0     C77540   7.690   3.123   6.998 -0.0861  1.0749 -0.1162
  588MOL0     C77541   7.622   3.013   6.951 -0.2541  0.0677 -0.4563
  588MOL0     O77542   7.629   2.965   6.824  0.1540 -0.3223 -0.0539
  588MOL0     C77543   7.583   2.833   6.794  0.2016 -0.1283 -0.3014
  588MOL0     C77544   7.637   2.798   6.660 -1.2603 -0.2073 -0.1732
  588MOL0     C77545   7.795   2.793   6.667  0.1237 -0.6569 -0.0260
  588MOL0     C77546   7.854   2.681   6.762  0.5113  0.5810  0.9387
  588MOL0     C77547   7.992   2.706   6.784 -0.4533 -0.4587 -0.9762
  588MOL0     C77548   8.114   2.721   6.811  0.4295 -0.0198  0.2171
  588MOL0     C77549   7.534   2.952   7.049  0.2504 -0.1119 -0.7838
  588MOL0     C77550   7.548   2.980   7.188  0.1804 -0.0354 -0.2058
  588MOL0     H77551   7.891   3.069   7.638 -2.2671 -2.5959 -0.5310
  588MOL0     H77552   7.845   3.117   7.864  0.3370  1.0892  1.0364
  588MOL0     H77553   7.872   3.278   8.062  0.0172  1.0078  1.8886
  588MOL0     H77554   7.731   3.175   8.066 -0.0153  0.2380 -1.4882
  588MOL0     H77555   7.777   3.425   8.227 -0.6830  0.4711 -1.5556
  588MOL0     H77556   7.749   3.260   8.285 -0.8114 -1.0715 -0.0489
  588MOL0     H77557   7.532   3.429   8.146  1.4635 -1.0010 -1.5408
  588MOL0     H77558   7.549   3.408   8.319  1.6152  0.3748 -0.3342
  588MOL0     H77559   7.509   3.163   8.134 -1.3863 -1.3802  1.3814
  588MOL0     H77560   7.522   3.163   8.309 -0.6350  2.1462  2.1508
  588MOL0     H77561   7.293   3.127   8.236  1.3812 -0.7772 -2.0496
  588MOL0     H77562   7.297   3.283   8.148  2.2526 -0.8997 -1.6569
  588MOL0     H77563   7.314   3.388   8.373 -0.0665  0.0396 -0.4042
  588MOL0     H77564   7.306   3.233   8.454  2.5047  2.1837  0.5637
  588MOL0     H77565   7.083   3.352   8.276 -0.3774  1.9450  2.5997
  588MOL0     H77566   7.090   3.187   8.295 -1.7232  1.5154 -1.5526
  588MOL0     H77567   7.097   3.228   8.549  0.1121 -0.1923 -0.8899
  588MOL0     H77568   6.954   3.254   8.462  0.2732 -0.1110 -1.3300
  588MOL0     H77569   6.879   3.533   8.420 -0.9236 -1.5416  1.1420
  588MOL0     H77570   6.967   3.830   8.432  3.4703  1.6265  1.9159
  588MOL0     H77571   6.956   3.862   8.603 -2.1615 -1.9927  2.9108
  588MOL0     H77572   6.730   3.786   8.628  0.4187  2.6805  0.5608
  588MOL0     H77573   6.734   3.703   8.473  1.1760  0.1273 -0.6786
  588MOL0     H77574   6.763   4.009   8.516 -2.4294  1.1723  1.4117
  588MOL0     H77575   6.755   3.933   8.358  1.4684 -0.0175 -0.1463
  588MOL0     H77576   6.530   3.844   8.419 -0.6040 -1.1895  1.8269
  588MOL0     H77577   6.538   4.027   8.423 -0.7731  0.6188  0.7338
  588MOL0     H77578   6.448   3.967   8.872 -1.2433  0.7454  0.7755
  588MOL0     H77579   6.226   4.069   8.943 -0.7558  0.4015 -0.1186
  588MOL0     H77580   5.825   4.379   8.607  0.0336  2.6559  1.5977
  588MOL0     H77581   5.620   4.453   8.683 -0.2746 -1.7446 -3.6496
  588MOL0     H77582   5.412   4.444   8.685 -1.1434  5.6646 -0.6433
  588MOL0     H77583   5.436   4.543   8.839 -1.6414  3.1921 -2.7139
  588MOL0     H77584   5.199   4.537   8.768 -0.3963 -2.2268 -0.7054
  588MOL0     H77585   5.242   4.490   8.932  2.8367  1.1723  0.2336
  588MOL0     H77586   5.069   4.346   8.819  0.7807  0.3616  0.4990
  588MOL0     H77587   5.218   4.254   8.858  2.9224  1.8230  0.4183
  588MOL0     H77588   5.204   4.391   8.580  0.5106 -1.0604 -0.9698
  588MOL0     H77589   5.281   4.249   8.640 -0.1356 -0.2594  1.7528
  588MOL0     H77590   4.985   4.295   8.581  1.7323  1.1436 -0.6372
  588MOL0     H77591   5.028   4.154   8.674 -2.8419 -0.9289 -0.6062
  588MOL0     H77592   5.186   4.099   8.477  0.6036 -0.1594  0.6404
  588MOL0     H77593   5.106   4.230   8.383  2.4625  0.8172  2.2486
  588MOL0     H77594   4.940   4.027   8.524  3.3036  0.2252  0.9106
  588MOL0     H77595   4.889   4.130   8.391  0.0741  0.6777 -1.7711
  588MOL0     H77596   4.899   3.909   8.304  1.3074 -3.0842 -3.2466
  588MOL0     H77597   5.071   3.897   8.335  1.4562  1.0685 -2.3701
  588MOL0     H77598   5.575   4.151   8.979  1.8708  1.3083  1.1925
  588MOL0     H77599   5.806   4.050   8.889 -0.3330  0.4795  0.0894
  588MOL0     H77600   6.127   4.094   8.520 -0.0336 -1.3056 -0.3117
  588MOL0     H77601   6.325   4.004   8.457 -1.7217 -0.2600 -0.1588
  588MOL0     H77602   7.591   3.453   7.754  0.0758  0.2637 -1.1571
  588MOL0     H77603   7.640   3.386   7.522  2.9496 -1.0538 -2.1932
  588MOL0     H77604   7.768   3.239   7.164 -1.4320  0.7131  1.1605
  588MOL0     H77605   7.747   3.188   6.932 -0.4965  1.7379  0.1651
  588MOL0     H77606   7.475   2.824   6.779  0.3454  1.0627 -2.5610
  588MOL0     H77607   7.612   2.766   6.875 -0.6678  0.2983  0.3796
  588MOL0     H77608   7.585   2.710   6.621  0.0505 -2.0419  1.9365
  588MOL0     H77609   7.607   2.870   6.584 -0.9571 -1.6233 -1.7023
  588MOL0     H77610   7.829   2.890   6.704 -1.2963  0.3024 -1.1030
  588MOL0     H77611   7.842   2.789   6.569 -0.0558  2.7561 -0.3741
  588MOL0     H77612   7.809   2.666   6.861  1.5888  1.6351  1.6192
  588MOL0     H77613   7.838   2.586   6.709  0.2266 -0.4258  2.7517
  588MOL0     H77614   8.216   2.730   6.843  0.5139 -2.4622  0.8010
  588MOL0     H77615   7.482   2.860   7.025 -1.1569  0.3815  0.2559
  588MOL0     H77616   7.498   2.922   7.264  2.0674 -0.0097  1.1379
  589MOL0     O77617   8.125   6.933   0.194  0.1750 -0.2086  0.6155
  589MOL0     C77618   8.126   6.815   0.226  0.0638  0.1919 -1.0138
  589MOL0     O77619   8.031   6.751   0.295  0.6106 -0.0167 -0.2532
  589MOL0     C77620   7.908   6.805   0.333  0.2005 -0.2218  0.6474
  589MOL0     C77621   7.867   6.935   0.345 -0.6366 -0.7295  0.9046
  589MOL0     C77622   7.738   6.973   0.366  0.6643 -0.6004 -1.0671
  589MOL0     C77623   7.639   6.880   0.363  0.0651  1.3493  0.2671
  589MOL0     O77624   7.514   6.933   0.386  0.1776  0.5649 -0.8018
  589MOL0     C77625   7.409   6.847   0.333  0.4715 -0.2230 -0.2670
  589MOL0     C77626   7.282   6.930   0.329  0.5349  1.2985  0.0845
  589MOL0     C77627   7.227   6.956   0.469 -0.4531 -0.5233  0.0794
  589MOL0     C77628   7.135   7.086   0.458  0.5654  0.1569  0.1249
  589MOL0     C77629   6.999   7.057   0.391 -0.8962  0.5416  0.6498
  589MOL0     C77630   6.923   6.933   0.437 -0.0546  0.4748  0.1635
  589MOL0     C77631   6.784   6.933   0.373 -1.1233  0.9135 -0.7640
  589MOL0     C77632   6.723   6.800   0.387  0.1476 -1.1329  0.0243
  589MOL0     N77633   6.595   6.811   0.320 -0.7868  0.6170  0.3948
  589MOL0     C77634   6.562   6.856   0.194 -0.7356 -0.4744  0.1790
  589MOL0     C77635   6.427   6.851   0.178  0.4642 -0.1535  0.0527
  589MOL0     C77636   6.320   6.897   0.066 -0.9159 -0.4216  0.2612
  589MOL0     C77637   6.339   6.796  -0.053  0.2612  1.9576 -0.9727
  589MOL0     C77638   6.272   6.650  -0.032 -0.1705 -0.1500 -0.6392
  589MOL0     C77639   6.119   6.673  -0.024 -0.8100  1.3225 -0.0931
  589MOL0     O77640   6.068   6.547  -0.016 -0.0093  0.2774 -0.3514
  589MOL0     C77641   5.941   6.513   0.020  0.1576 -0.2561 -0.6398
  589MOL0     C77642   5.873   6.569   0.126  0.1840 -0.3460  0.6393
  589MOL0     C77643   5.751   6.533   0.178 -0.0480  0.0627 -0.1546
  589MOL0     C77644   5.673   6.438   0.106 -0.2069 -0.2782  0.2352
  589MOL0     C77645   5.537   6.403   0.144 -0.5412 -0.6964  0.0756
  589MOL0     O77646   5.482   6.296   0.082  0.2590 -0.4567 -0.1497
  589MOL0     C77647   5.361   6.255   0.115  0.2058  0.0141  0.1377
  589MOL0     C77648   5.245   6.301   0.054  0.4583  0.2766  0.7159
  589MOL0     C77649   5.118   6.254   0.106  0.4732  0.1155  1.0125
  589MOL0     C77650   5.117   6.161   0.218 -0.5686 -0.7021  0.2385
  589MOL0     O77651   5.000   6.121   0.266  0.1512  0.1455 -0.1367
  589MOL0     C77652   4.882   6.163   0.207 -0.6555  0.2154  0.3579
  589MOL0     C77653   4.779   6.085   0.272  0.4593 -0.0649  0.6505
  589MOL0     C77654   4.646   6.095   0.193  0.0636  0.1216  0.1608
  589MOL0     C77655   4.583   6.232   0.193  0.8205 -0.2408  0.2625
  589MOL0     C77656   4.431   6.231   0.145 -0.6347 -0.4722 -0.4519
  589MOL0     C77657   4.420   6.174  -0.000  0.2414 -0.1927  0.5782
  589MOL0     C77658   4.278   6.207  -0.055 -0.0423 -0.4664  0.0195
  589MOL0     C77659   4.193   6.081  -0.057 -0.3047  0.4297 -0.3165
  589MOL0    Cl77660   4.033   6.125  -0.120  0.0159  0.6055 -0.3653
  589MOL0     C77661   5.239   6.112   0.265  0.1135 -0.9269  0.6682
  589MOL0     C77662   5.361   6.168   0.223 -0.6970  0.2486 -0.2174
  589MOL0     O77663   5.476   6.473   0.226  0.1730 -0.1269 -0.1894
  589MOL0     C77664   5.744   6.359   0.011 -0.5379 -0.1232 -0.5842
  589MOL0     C77665   5.871   6.400  -0.035 -0.0710 -0.4018  0.2087
  589MOL0     N77666   6.382   6.811   0.301  0.6845 -0.6076 -0.2140
  589MOL0     N77667   6.482   6.792   0.383  0.2929 -0.0723 -0.1604
  589MOL0     C77668   7.670   6.741   0.351  0.4932  0.2896 -0.5860
  589MOL0     C77669   7.809   6.707   0.338  0.3904  0.0913 -1.5151
  589MOL0     C77670   8.235   6.732   0.199 -0.3650  0.4113 -0.7585
  589MOL0     C77671   8.352   6.792   0.140 -0.2291 -0.0849  1.2780
  589MOL0     C77672   8.472   6.717   0.117 -0.2500 -0.4096 -0.5509
  589MOL0     C77673   8.461   6.580   0.137 -0.6637  0.3243  0.4641
  589MOL0     O77674   8.565   6.500   0.093 -0.4831  0.1335  0.0779
  589MOL0     C77675   8.541   6.414  -0.017  0.0095 -0.6489  0.4998
  589MOL0     C77676   8.557   6.272   0.022  0.3719 -0.8190 -0.2148
  589MOL0     C77677   8.560   6.176  -0.084 -0.6531  0.0531  0.0516
  589MOL0     C77678   8.440   6.165  -0.168 -0.1982  0.3822 -0.9569
  589MOL0     C77679   8.446   6.039  -0.248  0.4166 -0.1299  0.2722
  589MOL0     C77680   8.430   5.939  -0.319  0.8679 -0.2224 -0.3721
  589MOL0     C77681   8.356   6.518   0.208 -0.4226 -0.1030  0.9542
  589MOL0     C77682   8.243   6.596   0.237  0.3661 -0.5545  0.5409
  589MOL0     H77683   7.948   7.007   0.334 -2.2807  1.0140 -0.4811
  589MOL0     H77684   7.716   7.076   0.392 -1.1163 -0.6356 -2.3000
  589MOL0     H77685   7.409   6.757   0.395  1.3028 -1.2606 -1.7345
  589MOL0     H77686   7.438   6.803   0.237  2.1832 -1.8885  0.9338
  589MOL0     H77687   7.215   6.862   0.274  1.7589 -0.7530  1.0155
  589MOL0     H77688   7.307   7.025   0.280  0.1439  1.4755  0.2195
  589MOL0     H77689   7.311   6.993   0.529 -1.4015  1.4903  0.2477
  589MOL0     H77690   7.185   6.867   0.517  0.0872  0.0816  1.7154
  589MOL0     H77691   7.112   7.127   0.557  2.1508 -3.8145  2.3807
  589MOL0     H77692   7.187   7.166   0.404  0.4530  0.0074 -0.2120
  589MOL0     H77693   7.032   7.027   0.291  4.6946  0.9376  2.0682
  589MOL0     H77694   6.943   7.150   0.402  0.5687  1.3220  1.7037
  589MOL0     H77695   6.906   6.931   0.545 -1.7610 -1.6969 -0.0798
  589MOL0     H77696   6.981   6.842   0.421  0.4835  0.2568  2.8059
  589MOL0     H77697   6.716   7.005   0.419 -2.5453 -1.7767  1.6336
  589MOL0     H77698   6.806   6.948   0.267  3.4273 -1.9025 -0.5202
  589MOL0     H77699   6.703   6.789   0.494 -0.5390 -0.2664 -0.0016
  589MOL0     H77700   6.779   6.716   0.346 -3.4895 -3.8229  0.0542
  589MOL0     H77701   6.640   6.891   0.127  1.4337 -0.2672  2.6263
  589MOL0     H77702   6.344   7.000   0.037  0.8125 -0.4913  1.3178
  589MOL0     H77703   6.222   6.899   0.113 -0.1889  4.0796  2.0468
  589MOL0     H77704   6.444   6.783  -0.080  0.1359  0.4606 -0.8688
  589MOL0     H77705   6.283   6.840  -0.136 -7.4758  0.3279  2.4644
  589MOL0     H77706   6.286   6.597  -0.127 -1.1391  0.1294 -0.9397
  589MOL0     H77707   6.305   6.595   0.057 -0.1208  0.4790 -0.2693
  589MOL0     H77708   6.079   6.707  -0.120 -1.5353 -1.3158 -0.7930
  589MOL0     H77709   6.095   6.738   0.061 -0.5605 -0.7108  1.6192
  589MOL0     H77710   5.921   6.648   0.184  2.1871 -0.2978 -0.9584
  589MOL0     H77711   5.717   6.580   0.270  1.4473  0.1883  0.3608
  589MOL0     H77712   5.249   6.375  -0.025  2.5059 -1.0410 -0.5254
  589MOL0     H77713   5.032   6.296   0.054 -1.6679 -3.2602  1.4746
  589MOL0     H77714   4.885   6.159   0.098 -0.6800  2.6906  0.2192
  589MOL0     H77715   4.854   6.266   0.233  0.3356  0.6711 -0.3329
  589MOL0     H77716   4.769   6.120   0.376 -0.5131  3.8176 -0.5655
  589MOL0     H77717   4.804   5.979   0.268 -2.6891 -0.9074  0.6181
  589MOL0     H77718   4.569   6.042   0.248  0.0876 -1.5390 -1.3222
  589MOL0     H77719   4.640   6.047   0.095 -2.1876 -1.3158  0.9425
  589MOL0     H77720   4.585   6.276   0.293  1.7028 -0.3708  0.3089
  589MOL0     H77721   4.653   6.287   0.129  1.7832  1.9669  2.9707
  589MOL0     H77722   4.402   6.337   0.149  0.6436 -0.1405  0.9815
  589MOL0     H77723   4.379   6.167   0.217  1.3862  0.8468  2.3836
  589MOL0     H77724   4.437   6.066   0.002  1.1383 -0.0481  1.4887
  589MOL0     H77725   4.481   6.226  -0.074 -3.5031 -1.9001 -4.2745
  589MOL0     H77726   4.241   6.284   0.014  0.8760  1.5922 -1.6727
  589MOL0     H77727   4.284   6.256  -0.152 -1.7125 -2.0107 -0.9159
  589MOL0     H77728   4.189   6.035   0.042 -0.5301  0.2668 -0.4007
  589MOL0     H77729   4.231   6.006  -0.128  2.0372  1.0237  0.2278
  589MOL0     H77730   5.221   6.052   0.353 -0.0417 -0.7507  0.7580
  589MOL0     H77731   5.453   6.141   0.275  1.7524  3.6637 -2.3915
  589MOL0     H77732   5.703   6.271  -0.039 -1.0580  0.1372 -0.6283
  589MOL0     H77733   5.919   6.340  -0.111  0.6888  1.5596 -0.9441
  589MOL0     H77734   7.591   6.667   0.341  0.8345 -0.6795  2.8427
  589MOL0     H77735   7.835   6.603   0.327 -2.1541 -0.4223 -4.1329
  589MOL0     H77736   8.361   6.899   0.126  4.3418 -0.6280 -2.3866
  589MOL0     H77737   8.558   6.765   0.071 -1.5678  4.8438  1.6479
  589MOL0     H77738   8.611   6.444  -0.095  1.6142  1.7681  2.6770
  589MOL0     H77739   8.441   6.430  -0.059 -0.3710 -1.0984  1.2175
  589MOL0     H77740   8.659   6.265   0.060  0.1092  0.4346  0.8137
  589MOL0     H77741   8.478   6.245   0.094  1.5050 -2.4508  0.4754
  589MOL0     H77742   8.589   6.081  -0.040  0.4780 -1.3696 -3.4232
  589MOL0     H77743   8.646   6.203  -0.146  1.1259  0.7666  2.6379
  589MOL0     H77744   8.353   6.162  -0.102  0.4348  1.3056 -0.0478
  589MOL0     H77745   8.442   6.245  -0.243  0.6524  0.6069 -0.7076
  589MOL0     H77746   8.418   5.852  -0.380 -0.3815  0.8039 -1.6757
  589MOL0     H77747   8.349   6.414   0.235 -1.3491 -0.9332 -2.0856
  589MOL0     H77748   8.157   6.552   0.287 -1.0855  0.7279 -0.7252
  590MOL0     O77749   6.647   4.425   5.316  0.1575  0.7668  0.8214
  590MOL0     C77750   6.656   4.523   5.395  0.2148  0.3517  0.3274
  590MOL0     O77751   6.767   4.559   5.465 -0.1248  0.6850  0.2482
  590MOL0     C77752   6.889   4.529   5.415 -0.7235 -0.2866 -0.6133
  590MOL0     C77753   6.984   4.491   5.513  0.4201  0.1230  0.6345
  590MOL0     C77754   7.112   4.467   5.476  0.0133  0.3593 -0.3806
  590MOL0     C77755   7.159   4.492   5.351  0.6195  0.2180 -0.4286
  590MOL0     O77756   7.293   4.485   5.327  0.0809 -0.0895 -0.3116
  590MOL0     C77757   7.376   4.572   5.408 -0.5566 -0.6160 -0.1283
  590MOL0     C77758   7.491   4.498   5.486  0.2748 -0.6503  0.1422
  590MOL0     C77759   7.549   4.600   5.588 -0.2971  0.6059 -0.1902
  590MOL0     C77760   7.615   4.534   5.712 -0.4269 -1.0807  0.4631
  590MOL0     C77761   7.651   4.661   5.801 -0.4293  0.1674  0.8383
  590MOL0     C77762   7.803   4.652   5.839  0.4131  0.3138 -0.2729
  590MOL0     C77763   7.818   4.532   5.932 -0.8958 -0.3194  0.3069
  590MOL0     C77764   7.918   4.429   5.866 -0.7113 -0.3878 -0.4987
  590MOL0     N77765   8.061   4.471   5.866 -0.6044 -0.4800  0.1550
  590MOL0     C77766   8.133   4.507   5.977  0.3415  0.4111  0.6017
  590MOL0     C77767   8.261   4.506   5.939 -0.7988  0.4175  1.2407
  590MOL0     C77768   8.375   4.555   6.014  0.4164  0.0694  0.5681
  590MOL0     C77769   8.415   4.703   5.965  0.7458 -0.7232  0.1644
  590MOL0     C77770   8.541   4.755   6.031 -0.1700 -0.4430  0.3324
  590MOL0     C77771   8.654   4.694   5.952  0.0071 -0.1710  0.5039
  590MOL0     O77772   8.684   4.558   5.973  0.5902  0.7383 -0.5139
  590MOL0     C77773   8.763   4.521   6.079  0.1896 -0.6736  0.2657
  590MOL0     C77774   8.804   4.601   6.183  0.3760  0.8695  0.4510
  590MOL0     C77775   8.902   4.556   6.266 -0.1707  0.7999 -0.0731
  590MOL0     C77776   8.965   4.431   6.235 -0.9382 -0.5277  0.4261
  590MOL0     C77777   9.079   4.375   6.321  0.0989 -0.2873  0.0517
  590MOL0     O77778   9.137   4.459   6.415 -0.2427 -0.0682 -0.1626
  590MOL0     C77779   9.236   4.428   6.503 -0.2747 -0.3201  0.2674
  590MOL0     C77780   9.265   4.523   6.604 -1.3465  1.5508  0.0526
  590MOL0     C77781   9.362   4.502   6.703 -0.4156 -0.3967 -0.2862
  590MOL0     C77782   9.438   4.384   6.721 -0.5911 -0.3489  0.5727
  590MOL0     O77783   9.556   4.360   6.787 -0.0110  0.2018 -0.0757
  590MOL0     C77784   9.588   4.452   6.899 -0.8488  0.2541  1.2804
  590MOL0     C77785   9.691   4.405   6.992 -0.3619  0.1915  0.2922
  590MOL0     C77786   9.640   4.303   7.094  0.0919  0.1021  0.2896
  590MOL0     C77787   9.743   4.221   7.182  0.0772  0.5570  0.2321
  590MOL0     C77788   9.658   4.142   7.282 -0.5933  0.7735  0.5212
  590MOL0     C77789   9.734   4.027   7.351 -0.0020  0.2289  0.8620
  590MOL0     C77790   9.665   3.961   7.466  0.3220 -0.5531 -0.5110
  590MOL0     C77791   9.711   3.809   7.481  0.3245 -0.4242 -0.2552
  590MOL0    Cl77792   9.572   3.705   7.519  0.1555 -0.5717  0.1717
  590MOL0     C77793   9.392   4.282   6.634  0.3183 -0.0480  0.9316
  590MOL0     C77794   9.294   4.307   6.530  0.0898 -0.1497 -0.8000
  590MOL0     O77795   9.123   4.269   6.282  0.6562 -0.0441  0.4756
  590MOL0     C77796   8.899   4.340   6.149  0.1244 -1.2364  0.8454
  590MOL0     C77797   8.794   4.384   6.077  0.3226  0.3432 -0.0956
  590MOL0     N77798   8.270   4.449   5.817 -0.4796 -0.6489 -0.5951
  590MOL0     N77799   8.149   4.425   5.777 -0.0996  0.1582 -0.0396
  590MOL0     C77800   7.074   4.523   5.253  0.3741 -0.9163 -0.2451
  590MOL0     C77801   6.939   4.551   5.286  0.9287  0.1897  0.4005
  590MOL0     C77802   6.536   4.593   5.436  1.0979 -0.3047 -0.2904
  590MOL0     C77803   6.526   4.716   5.503  0.6169 -0.5426 -0.5306
  590MOL0     C77804   6.408   4.782   5.526  0.6050 -0.0993  0.6246
  590MOL0     C77805   6.286   4.722   5.495 -0.5912 -0.1929  0.4451
  590MOL0     O77806   6.173   4.795   5.508  0.7027 -0.6303  0.0580
  590MOL0     C77807   6.105   4.788   5.633 -0.3045  0.2721  0.1957
  590MOL0     C77808   6.126   4.918   5.705 -0.1336  0.5101  0.1638
  590MOL0     C77809   6.089   4.906   5.854 -0.0870  0.0141  0.7594
  590MOL0     C77810   5.938   4.934   5.894 -0.1930 -0.0306  0.3855
  590MOL0     C77811   5.908   5.077   5.857 -0.7083  0.8211 -0.2502
  590MOL0     C77812   5.888   5.187   5.811  0.1512 -0.5729  0.3622
  590MOL0     C77813   6.284   4.596   5.444 -0.2007  1.5369 -0.5905
  590MOL0     C77814   6.402   4.529   5.412 -0.5198  0.1950  1.3094
  590MOL0     H77815   6.948   4.463   5.611 -0.2460 -2.6514 -0.3008
  590MOL0     H77816   7.185   4.429   5.546  1.5569  0.2529 -1.9790
  590MOL0     H77817   7.305   4.628   5.469 -3.1736  0.3110 -3.6800
  590MOL0     H77818   7.417   4.650   5.343  0.2525 -1.9841 -1.3152
  590MOL0     H77819   7.568   4.450   5.425 -1.0212 -2.5667 -0.0907
  590MOL0     H77820   7.447   4.418   5.547 -0.9851  0.3595  0.6055
  590MOL0     H77821   7.467   4.661   5.627 -0.2069  0.1211  0.7902
  590MOL0     H77822   7.620   4.671   5.545  0.7146  0.2018  0.7684
  590MOL0     H77823   7.549   4.458   5.757 -0.5587 -1.8874 -1.0439
  590MOL0     H77824   7.701   4.468   5.695 -0.4494 -1.3167  1.2351
  590MOL0     H77825   7.593   4.673   5.892 -0.3751 -3.5815  1.4963
  590MOL0     H77826   7.645   4.748   5.734 -1.4255 -3.1977 -3.9213
  590MOL0     H77827   7.825   4.746   5.889  0.9833  0.4898 -0.8455
  590MOL0     H77828   7.875   4.635   5.758  3.5426 -2.0493  2.7064
  590MOL0     H77829   7.863   4.566   6.026 -1.9511 -0.1550  0.7715
  590MOL0     H77830   7.725   4.480   5.956 -1.8536  1.2391  0.0658
  590MOL0     H77831   7.892   4.399   5.764  0.4990  0.3887 -1.0594
  590MOL0     H77832   7.913   4.346   5.937 -0.5830  1.6096  1.9877
  590MOL0     H77833   8.104   4.550   6.072  1.2155  1.8298  0.2649
  590MOL0     H77834   8.455   4.488   5.982  2.1273  2.3070 -0.1745
  590MOL0     H77835   8.364   4.542   6.122  1.5234 -1.5169  0.5239
  590MOL0     H77836   8.327   4.764   5.988 -0.9808 -2.0032 -2.5470
  590MOL0     H77837   8.432   4.709   5.857  2.8636 -2.6988  0.3022
  590MOL0     H77838   8.545   4.864   6.029  1.4371 -0.4723 -1.6282
  590MOL0     H77839   8.551   4.724   6.135  0.6968  0.9376  0.6837
  590MOL0     H77840   8.743   4.746   5.989  0.8840 -2.3577  1.7055
  590MOL0     H77841   8.643   4.712   5.845  2.3030  2.9517  0.6405
  590MOL0     H77842   8.779   4.707   6.187 -0.7944  0.6467 -0.2962
  590MOL0     H77843   8.928   4.625   6.346 -2.6678  1.2901  0.3864
  590MOL0     H77844   9.211   4.616   6.590  1.0122  2.8865 -0.8009
  590MOL0     H77845   9.392   4.587   6.765 -1.2961 -0.0779 -0.2883
  590MOL0     H77846   9.490   4.445   6.949 -1.3510 -0.8364  0.2010
  590MOL0     H77847   9.598   4.552   6.857 -1.6713 -0.1950 -0.0750
  590MOL0     H77848   9.726   4.490   7.052 -1.1360 -0.5823  1.8928
  590MOL0     H77849   9.778   4.375   6.933  0.5048  3.9312 -0.6237
  590MOL0     H77850   9.573   4.241   7.034  2.9034 -0.1411 -2.8269
  590MOL0     H77851   9.583   4.367   7.162  0.4343  0.1917  0.4902
  590MOL0     H77852   9.798   4.152   7.117 -0.2523 -0.9085  1.4411
  590MOL0     H77853   9.812   4.300   7.213  0.0702  1.5390 -2.0517
  590MOL0     H77854   9.577   4.092   7.229  1.5898 -0.0817 -2.2396
  590MOL0     H77855   9.619   4.208   7.360 -4.2775  1.7221 -1.8500
  590MOL0     H77856   9.828   4.077   7.379 -0.1265  2.6174 -2.3699
  590MOL0     H77857   9.745   3.959   7.267  0.4871  2.0339 -0.6088
  590MOL0     H77858   9.684   4.015   7.559 -1.4155  0.9838 -0.9700
  590MOL0     H77859   9.558   3.957   7.444  0.5840 -3.0160 -1.6756
  590MOL0     H77860   9.793   3.787   7.550  0.4229 -0.3997 -0.3645
  590MOL0     H77861   9.753   3.782   7.384  2.4924  2.5423 -0.2997
  590MOL0     H77862   9.442   4.185   6.637 -0.2513 -0.3362  1.4492
  590MOL0     H77863   9.257   4.218   6.480 -3.4228  0.1581  0.8752
  590MOL0     H77864   8.937   4.240   6.127  1.0442 -0.4322 -1.5056
  590MOL0     H77865   8.752   4.320   6.000  1.1878 -0.3220 -0.0192
  590MOL0     H77866   7.113   4.545   5.154  1.8598 -0.1523  0.4785
  590MOL0     H77867   6.876   4.583   5.203 -0.5972 -1.1498  0.9787
  590MOL0     H77868   6.622   4.759   5.532  1.9081 -2.8016 -1.1881
  590MOL0     H77869   6.401   4.885   5.559  2.5919 -0.2967  1.8280
  590MOL0     H77870   6.149   4.702   5.684 -0.5549 -0.4871 -0.8281
  590MOL0     H77871   5.999   4.765   5.612 -0.4608  0.5944  0.6370
  590MOL0     H77872   6.232   4.943   5.705  0.2033 -0.7118 -1.6544
  590MOL0     H77873   6.083   5.009   5.662  3.1081  3.2090  2.1051
  590MOL0     H77874   6.145   4.985   5.904  1.2576 -1.3884  1.5780
  590MOL0     H77875   6.124   4.810   5.894  0.3989 -0.6183 -1.0473
  590MOL0     H77876   5.861   4.873   5.847 -1.2114  1.6630 -0.2347
  590MOL0     H77877   5.923   4.901   5.997 -1.0429 -0.5132  0.1159
  590MOL0     H77878   5.882   5.290   5.784  1.9941 -1.2980 -3.5437
  590MOL0     H77879   6.184   4.559   5.425 -0.6692  3.0735 -1.2632
  590MOL0     H77880   6.401   4.427   5.375  1.6821  0.3778  0.6221
  591MOL0     O77881   3.028   0.519   4.132 -0.7450 -0.2836 -0.4584
  591MOL0     C77882   3.061   0.545   4.019  0.6307 -0.1063  0.2674
  591MOL0     O77883   2.989   0.510   3.905  1.1932  0.0226 -0.6952
  591MOL0     C77884   2.854   0.519   3.929 -0.5792 -0.5229 -0.0838
  591MOL0     C77885   2.777   0.412   3.978 -0.2110  0.0511  0.4836
  591MOL0     C77886   2.639   0.419   3.995  0.2905 -0.4689 -0.5173
  591MOL0     C77887   2.571   0.538   3.944  0.1842  0.7566  0.1982
  591MOL0     O77888   2.441   0.568   3.935 -0.3781 -0.2198  0.4811
  591MOL0     C77889   2.352   0.471   3.975  0.1833  1.2641  0.3458
  591MOL0     C77890   2.213   0.524   4.000  0.0206 -0.0054 -0.4940
  591MOL0     C77891   2.221   0.604   4.132  0.5840  0.6322  0.8303
  591MOL0     C77892   2.106   0.704   4.149  0.1520  0.1508  0.0461
  591MOL0     C77893   2.075   0.781   4.278 -0.6190 -0.2534 -0.2651
  591MOL0     C77894   2.108   0.722   4.413 -0.5882 -0.0870  0.4293
  591MOL0     C77895   2.001   0.615   4.454 -0.4337  0.3523 -0.0225
  591MOL0     C77896   1.853   0.661   4.473 -0.2580 -0.1167 -0.2051
  591MOL0     N77897   1.773   0.718   4.363 -0.7952 -0.8725 -0.6375
  591MOL0     C77898   1.741   0.661   4.246  1.7909 -0.2433  1.5066
  591MOL0     C77899   1.665   0.754   4.180  0.4027  0.0148 -0.4719
  591MOL0     C77900   1.601   0.738   4.047 -0.2847  0.2592 -0.3501
  591MOL0     C77901   1.693   0.708   3.932 -0.1174  0.2167  0.2372
  591MOL0     C77902   1.621   0.687   3.803 -0.9576  0.3035 -0.3098
  591MOL0     C77903   1.551   0.808   3.737 -0.2893 -0.4911 -0.9615
  591MOL0     O77904   1.523   0.769   3.608 -0.4031  0.2525  1.5023
  591MOL0     C77905   1.465   0.853   3.513 -0.1637  0.4464  0.3887
  591MOL0     C77906   1.431   0.804   3.384  0.8623  0.6708 -0.0665
  591MOL0     C77907   1.376   0.898   3.288  0.5955  0.2074  0.2409
  591MOL0     C77908   1.365   1.040   3.321  0.1114  0.1322  0.3822
  591MOL0     C77909   1.344   1.139   3.214  0.6022 -0.1701 -0.0938
  591MOL0     O77910   1.322   1.264   3.239  0.1441  0.4377 -0.3009
  591MOL0     C77911   1.301   1.343   3.128  0.9855  0.4501  1.5124
  591MOL0     C77912   1.176   1.349   3.055 -0.1904 -0.8407 -0.3547
  591MOL0     C77913   1.150   1.429   2.942  0.2424 -0.4606 -0.5641
  591MOL0     C77914   1.259   1.504   2.894  0.5736 -0.6957  0.0855
  591MOL0     O77915   1.240   1.566   2.780 -0.3117 -1.1240 -1.1180
  591MOL0     C77916   1.351   1.593   2.702 -0.5816  0.3443  0.1074
  591MOL0     C77917   1.293   1.657   2.570  0.1134 -1.0341  0.6965
  591MOL0     C77918   1.190   1.563   2.506 -0.5167  0.7295  0.1012
  591MOL0     C77919   1.097   1.628   2.400  0.3213  0.6804  1.0558
  591MOL0     C77920   1.134   1.590   2.257  1.1160  0.1255  0.4460
  591MOL0     C77921   1.024   1.632   2.158 -0.0105 -0.8137  0.6062
  591MOL0     C77922   1.067   1.609   2.009 -0.4150 -0.2413 -0.1071
  591MOL0     C77923   1.117   1.740   1.939 -0.9677  0.5497 -0.6252
  591MOL0    Cl77924   1.292   1.763   1.957 -0.0923  0.6986  0.5096
  591MOL0     C77925   1.381   1.508   2.967 -0.0715 -0.7849  0.0171
  591MOL0     C77926   1.403   1.422   3.075 -0.6172 -0.0318 -0.2995
  591MOL0     O77927   1.363   1.090   3.099 -0.0005  0.9062  0.3560
  591MOL0     C77928   1.389   1.083   3.451 -1.1701 -0.1881 -0.4366
  591MOL0     C77929   1.441   0.990   3.539  0.3982 -0.5689  0.9401
  591MOL0     N77930   1.653   0.868   4.266  0.1720 -0.0116  0.1640
  591MOL0     N77931   1.731   0.844   4.366  1.0660  0.1677  0.2884
  591MOL0     C77932   2.647   0.638   3.889 -0.2859  0.6526  0.3076
  591MOL0     C77933   2.788   0.636   3.880  0.6507  0.1313  0.2483
  591MOL0     C77934   3.195   0.600   3.994 -0.4300 -0.3983  0.6576
  591MOL0     C77935   3.264   0.560   3.881 -0.1528 -0.3810  0.5205
  591MOL0     C77936   3.393   0.591   3.860  0.3113  0.6369  0.8836
  591MOL0     C77937   3.460   0.679   3.948 -0.0394 -1.1977  0.5809
  591MOL0     O77938   3.589   0.721   3.930  0.1538  0.9319 -0.5352
  591MOL0     C77939   3.638   0.732   3.793  0.3352  0.1411 -0.1938
  591MOL0     C77940   3.782   0.738   3.780  0.2645  0.8750 -0.6893
  591MOL0     C77941   3.843   0.871   3.824  0.3653 -0.3361 -0.1751
  591MOL0     C77942   3.862   0.963   3.708 -0.1195 -0.4472 -0.0360
  591MOL0     C77943   3.953   1.065   3.756  0.1512 -0.0089  0.0914
  591MOL0     C77944   4.045   1.136   3.797 -0.2296  0.2371  0.0574
  591MOL0     C77945   3.395   0.735   4.053 -0.3065 -0.3066 -0.5175
  591MOL0     C77946   3.265   0.690   4.080  0.2856 -1.0214  0.0062
  591MOL0     H77947   2.826   0.316   3.990  0.8027 -0.0765 -3.2592
  591MOL0     H77948   2.581   0.335   4.032  0.2236  0.7757  2.4994
  591MOL0     H77949   2.376   0.418   4.068 -2.5847 -0.0827  0.4058
  591MOL0     H77950   2.358   0.399   3.892  2.2160  1.4385  0.3123
  591MOL0     H77951   2.145   0.441   4.024  2.5488 -2.0638 -0.0501
  591MOL0     H77952   2.197   0.596   3.919  2.7389  3.3590  1.6940
  591MOL0     H77953   2.313   0.664   4.137 -0.5678  2.3801  2.7397
  591MOL0     H77954   2.224   0.526   4.208 -2.0893 -0.9277 -0.5328
  591MOL0     H77955   2.105   0.776   4.066  0.0098  1.7257  1.3687
  591MOL0     H77956   2.013   0.647   4.143 -0.3344  1.0409 -1.7321
  591MOL0     H77957   1.980   0.834   4.279  0.7224  2.3365  0.3536
  591MOL0     H77958   2.141   0.869   4.273 -0.5383 -0.3061 -0.1359
  591MOL0     H77959   2.127   0.806   4.481  1.2416  1.9335 -2.3470
  591MOL0     H77960   2.205   0.675   4.398 -0.0805  0.3717  2.0777
  591MOL0     H77961   1.998   0.532   4.383  1.2801 -1.4962  1.9194
  591MOL0     H77962   2.041   0.564   4.542  0.9492  1.6892  0.1753
  591MOL0     H77963   1.849   0.731   4.557  0.8146 -1.3231  0.8944
  591MOL0     H77964   1.800   0.569   4.500  1.3955 -1.2558 -0.7371
  591MOL0     H77965   1.749   0.560   4.207  0.2268  0.7186 -1.6965
  591MOL0     H77966   1.544   0.830   4.034  0.0672  0.7473  1.2581
  591MOL0     H77967   1.530   0.655   4.051 -0.9512  0.7785 -1.1181
  591MOL0     H77968   1.753   0.621   3.960  3.7455  1.4840 -3.0868
  591MOL0     H77969   1.762   0.791   3.915  2.4546 -1.4284  2.1203
  591MOL0     H77970   1.709   0.668   3.742  0.3735  0.1699  1.5541
  591MOL0     H77971   1.569   0.591   3.800  1.6577 -1.3291  1.4871
  591MOL0     H77972   1.614   0.897   3.744 -0.2231 -0.5631 -0.6290
  591MOL0     H77973   1.458   0.833   3.788  0.6189  0.5015  0.2736
  591MOL0     H77974   1.435   0.699   3.357  0.1797  1.0925 -1.9346
  591MOL0     H77975   1.353   0.861   3.188  0.5150  0.6367  0.0996
  591MOL0     H77976   1.092   1.291   3.090  0.5759 -0.8323  1.6274
  591MOL0     H77977   1.048   1.426   2.904 -0.6668 -1.8145  1.8139
  591MOL0     H77978   1.406   1.506   2.668  0.1176  0.8402 -0.0390
  591MOL0     H77979   1.417   1.667   2.750 -0.3542 -0.3190  0.8377
  591MOL0     H77980   1.380   1.672   2.505  0.8551 -3.9617  0.8586
  591MOL0     H77981   1.246   1.751   2.600  0.1484 -0.3946 -1.1859
  591MOL0     H77982   1.133   1.523   2.591  1.2314 -1.0509  0.5061
  591MOL0     H77983   1.250   1.478   2.471  0.5239  1.0693  0.9697
  591MOL0     H77984   0.996   1.590   2.424  1.8562 -2.2911  3.6865
  591MOL0     H77985   1.086   1.736   2.409 -4.1383  0.7847 -2.0558
  591MOL0     H77986   1.150   1.482   2.254  0.6601  0.0741 -1.8100
  591MOL0     H77987   1.227   1.637   2.222  0.4255  0.7985 -0.5566
  591MOL0     H77988   0.999   1.737   2.175  0.1533 -0.7209  0.2820
  591MOL0     H77989   0.932   1.580   2.184 -0.0597 -0.6393  0.7819
  591MOL0     H77990   1.138   1.526   2.001  0.5082  0.7098 -2.6006
  591MOL0     H77991   0.977   1.578   1.953  0.1611 -1.2901 -0.4834
  591MOL0     H77992   1.079   1.833   1.983  0.0311  1.0190 -0.7325
  591MOL0     H77993   1.093   1.743   1.832  2.5369  1.4405 -1.5034
  591MOL0     H77994   1.468   1.571   2.949 -0.8636  0.7692  1.3554
  591MOL0     H77995   1.501   1.426   3.120 -1.9513  2.1069  2.7733
  591MOL0     H77996   1.377   1.184   3.489  1.3308 -0.8858  2.5812
  591MOL0     H77997   1.473   1.037   3.631 -0.5385  1.4207  0.3212
  591MOL0     H77998   2.585   0.716   3.845 -2.0621 -0.2096  1.1857
  591MOL0     H77999   2.840   0.721   3.840 -1.8803  3.0914  2.6957
  591MOL0     H78000   3.208   0.484   3.827 -0.0496 -0.9663  1.2270
  591MOL0     H78001   3.447   0.526   3.791 -0.9039  1.8084 -1.2727
  591MOL0     H78002   3.582   0.803   3.732 -0.1080 -1.8133 -2.1604
  591MOL0     H78003   3.615   0.633   3.752  2.5754 -0.5800  0.1370
  591MOL0     H78004   3.830   0.662   3.842  2.2179  2.0757 -0.6415
  591MOL0     H78005   3.814   0.714   3.678 -3.5514  0.4827 -1.9395
  591MOL0     H78006   3.936   0.854   3.879  0.6977  0.5942 -0.4363
  591MOL0     H78007   3.770   0.916   3.892  0.8574 -0.8225  0.6911
  591MOL0     H78008   3.888   0.906   3.618 -1.7823  0.0863 -0.9074
  591MOL0     H78009   3.775   1.020   3.676 -1.7708 -1.8314  1.7714
  591MOL0     H78010   4.125   1.193   3.841 -2.2130  1.8927  1.7959
  591MOL0     H78011   3.454   0.804   4.113  2.8297 -3.0623 -0.1479
  591MOL0     H78012   3.215   0.727   4.169 -2.2196 -3.5910 -0.2075
  592MOL0     O78013   1.763   5.900   7.330  0.3862  0.4126 -0.3496
  592MOL0     C78014   1.783   6.015   7.370  0.4024  0.4145  0.3738
  592MOL0     O78015   1.685   6.101   7.396  0.3208 -0.1397 -0.0594
  592MOL0     C78016   1.562   6.050   7.407 -0.1450  0.7544 -0.3934
  592MOL0     C78017   1.493   5.990   7.300 -0.7373 -0.8509 -0.0115
  592MOL0     C78018   1.366   5.944   7.319 -0.0252  1.2554  0.2027
  592MOL0     C78019   1.295   5.938   7.439  0.4268 -1.1272  0.1855
  592MOL0     O78020   1.162   5.894   7.446 -0.3052  0.2798 -0.3511
  592MOL0     C78021   1.132   5.779   7.522  0.1031 -0.6910  0.0411
  592MOL0     C78022   1.200   5.648   7.497 -0.3230 -1.5525  0.1160
  592MOL0     C78023   1.151   5.585   7.368 -0.0314 -0.5464  0.3333
  592MOL0     C78024   1.014   5.523   7.377 -0.3316  0.3858 -0.2423
  592MOL0     C78025   0.937   5.519   7.250  0.3651  0.4174  0.2993
  592MOL0     C78026   0.799   5.456   7.253  0.1730  0.3604  0.3709
  592MOL0     C78027   0.736   5.461   7.112 -0.4722  0.7312  0.1309
  592MOL0     C78028   0.594   5.402   7.115 -1.5604  0.2361  0.8092
  592MOL0     N78029   0.478   5.465   7.183  0.1233  0.5934 -0.4048
  592MOL0     C78030   0.350   5.414   7.159 -0.2273 -0.3997 -0.8228
  592MOL0     C78031   0.270   5.476   7.253 -0.8032  0.5759  0.7787
  592MOL0     C78032   0.123   5.473   7.285  0.1713 -1.3250 -0.5879
  592MOL0     C78033   0.091   5.373   7.395 -0.2113 -0.0045  0.2560
  592MOL0     C78034   0.088   5.225   7.341 -0.2031 -0.4614 -0.1990
  592MOL0     C78035  -0.046   5.164   7.386  0.1124  0.6771 -0.3510
  592MOL0     O78036  -0.017   5.132   7.522 -0.3028 -0.1347  0.0208
  592MOL0     C78037  -0.128   5.118   7.606 -0.5663  0.8286  1.2642
  592MOL0     C78038  -0.209   5.013   7.592  0.2869  0.9599  0.2076
  592MOL0     C78039  -0.324   4.994   7.672  0.1207  0.1918 -0.2470
  592MOL0     C78040  -0.351   5.089   7.769  0.1673 -0.2551 -0.6891
  592MOL0     C78041  -0.469   5.070   7.865 -0.0764 -0.0957 -0.9260
  592MOL0     O78042  -0.524   4.942   7.867 -1.3163 -0.5330  0.3229
  592MOL0     C78043  -0.617   4.923   7.961 -0.6577 -0.1095  0.6161
  592MOL0     C78044  -0.749   4.942   7.927  0.0487  0.8083 -0.3969
  592MOL0     C78045  -0.852   4.907   8.013 -0.2254  1.0549 -1.1397
  592MOL0     C78046  -0.836   4.847   8.132  0.3009  0.2630  0.1116
  592MOL0     O78047  -0.943   4.815   8.213 -0.3664 -0.0060 -0.2279
  592MOL0     C78048  -0.925   4.773   8.349 -0.1605  0.1748 -0.8823
  592MOL0     C78049  -1.056   4.793   8.444  0.8387 -0.4259 -0.3585
  592MOL0     C78050  -1.172   4.713   8.379  0.2943  0.7367  0.4066
  592MOL0     C78051  -1.309   4.737   8.452 -0.5048 -0.0137 -1.2069
  592MOL0     C78052  -1.430   4.698   8.363 -0.6134 -0.2325  0.0032
  592MOL0     C78053  -1.432   4.550   8.313 -0.3672 -0.2210 -0.1282
  592MOL0     C78054  -1.482   4.447   8.413 -0.4519 -1.1631 -0.5978
  592MOL0     C78055  -1.627   4.448   8.434  0.1250 -0.8627  0.7530
  592MOL0    Cl78056  -1.638   4.349   8.582 -0.5640 -0.5843  0.0741
  592MOL0     C78057  -0.704   4.816   8.164 -0.3662 -0.3585  0.9278
  592MOL0     C78058  -0.594   4.852   8.073 -0.7770 -0.1710  0.5081
  592MOL0     O78059  -0.488   5.158   7.953  0.3695 -0.5732 -0.7031
  592MOL0     C78060  -0.270   5.196   7.783 -0.9608 -0.2254  0.1061
  592MOL0     C78061  -0.157   5.216   7.701  0.1652  0.1656 -0.1558
  592MOL0     N78062   0.360   5.563   7.315 -0.4200  0.0017 -0.2308
  592MOL0     N78063   0.484   5.549   7.280  0.0239 -0.0807  0.3563
  592MOL0     C78064   1.365   5.982   7.554  0.0054  0.0690 -0.2602
  592MOL0     C78065   1.498   6.048   7.534  0.4319 -0.1403  0.4209
  592MOL0     C78066   1.921   6.062   7.374 -0.2283  0.6531 -0.0403
  592MOL0     C78067   1.955   6.198   7.375 -0.3814  0.5008 -1.0905
  592MOL0     C78068   2.090   6.237   7.389 -0.4093 -0.2100  0.0426
  592MOL0     C78069   2.187   6.140   7.406 -0.5995 -0.3912 -0.1338
  592MOL0     O78070   2.320   6.171   7.406  0.3218  0.3803 -0.1393
  592MOL0     C78071   2.389   6.146   7.525 -0.1759 -0.6554 -0.0694
  592MOL0     C78072   2.400   6.252   7.633  1.1351  0.0466  0.1152
  592MOL0     C78073   2.269   6.260   7.716  0.3758  0.4738 -0.3923
  592MOL0     C78074   2.292   6.364   7.831 -0.3119  0.1800 -0.2843
  592MOL0     C78075   2.238   6.311   7.959  0.2452 -0.4114 -0.4346
  592MOL0     C78076   2.188   6.282   8.064  0.5244 -0.0862 -0.2805
  592MOL0     C78077   2.154   6.006   7.404 -0.3966  0.2655 -0.0369
  592MOL0     C78078   2.024   5.966   7.392 -0.4443 -0.1149 -0.2972
  592MOL0     H78079   1.531   5.985   7.199 -0.1962 -2.2396  0.2450
  592MOL0     H78080   1.322   5.903   7.229  1.5316  0.5011 -0.2374
  592MOL0     H78081   1.025   5.756   7.515 -0.4742  1.9215 -0.6992
  592MOL0     H78082   1.141   5.786   7.631  2.5491 -1.8455 -0.0225
  592MOL0     H78083   1.199   5.572   7.575 -0.9224 -5.6644 -3.4847
  592MOL0     H78084   1.305   5.678   7.485 -0.5879  1.1025  3.1372
  592MOL0     H78085   1.219   5.504   7.340 -1.7108 -2.5263  1.6319
  592MOL0     H78086   1.151   5.667   7.295  1.3438 -1.1408 -0.3749
  592MOL0     H78087   1.028   5.424   7.420  1.8543  1.3914  1.5669
  592MOL0     H78088   0.952   5.578   7.449 -0.4892 -2.2115  1.7507
  592MOL0     H78089   0.994   5.464   7.175  0.2001  0.1905  0.3393
  592MOL0     H78090   0.934   5.620   7.208  0.8248  1.5411  2.7709
  592MOL0     H78091   0.734   5.514   7.319  0.3097  1.6396 -0.5888
  592MOL0     H78092   0.805   5.356   7.298  1.7117  1.3059  2.4093
  592MOL0     H78093   0.719   5.563   7.077 -0.4823  0.8694  0.5341
  592MOL0     H78094   0.794   5.399   7.043 -1.4587 -2.2717  1.8106
  592MOL0     H78095   0.601   5.302   7.160  1.0161  0.3915  0.9158
  592MOL0     H78096   0.562   5.371   7.015 -0.1652 -1.7467  0.9155
  592MOL0     H78097   0.335   5.334   7.087 -0.6619 -1.5996  0.5566
  592MOL0     H78098   0.057   5.439   7.204 -1.8121  1.0875 -0.1006
  592MOL0     H78099   0.090   5.573   7.313  3.7866 -0.2047  0.1328
  592MOL0     H78100  -0.009   5.395   7.433 -1.3818 -3.0698 -0.7596
  592MOL0     H78101   0.176   5.374   7.464  1.5283 -1.3523 -1.7320
  592MOL0     H78102   0.106   5.223   7.233  0.0180 -2.0351 -0.1479
  592MOL0     H78103   0.171   5.172   7.389  1.3230  1.6398 -0.3657
  592MOL0     H78104  -0.065   5.076   7.323 -0.4660 -0.7915  1.7816
  592MOL0     H78105  -0.136   5.226   7.373 -2.2867 -2.3618  0.5936
  592MOL0     H78106  -0.191   4.946   7.508 -2.4703 -0.8107  0.8862
  592MOL0     H78107  -0.383   4.903   7.671 -1.0969  0.9297  1.0868
  592MOL0     H78108  -0.784   4.990   7.836 -0.3346  0.6831 -0.3194
  592MOL0     H78109  -0.954   4.923   7.980 -1.2199  0.6624  1.4805
  592MOL0     H78110  -0.848   4.835   8.395  1.5109 -3.1603  1.2215
  592MOL0     H78111  -0.895   4.668   8.354 -1.1550 -0.0872  0.3971
  592MOL0     H78112  -1.085   4.898   8.450  2.0016 -0.1690  1.7789
  592MOL0     H78113  -1.040   4.761   8.547 -0.2441  1.7191  0.5435
  592MOL0     H78114  -1.143   4.608   8.387 -1.1818  0.2897  0.0566
  592MOL0     H78115  -1.189   4.735   8.273 -1.4702  0.8792  0.6999
  592MOL0     H78116  -1.303   4.673   8.541 -2.0142  1.5194  0.0613
  592MOL0     H78117  -1.311   4.842   8.480  0.4005 -0.0827 -0.8777
  592MOL0     H78118  -1.423   4.762   8.275  2.0869 -1.8179 -1.0561
  592MOL0     H78119  -1.524   4.721   8.414 -1.1749 -0.4709 -0.9090
  592MOL0     H78120  -1.329   4.523   8.288 -0.7670 -1.4336 -0.5350
  592MOL0     H78121  -1.498   4.546   8.226 -0.2418  2.6434 -0.4669
  592MOL0     H78122  -1.468   4.351   8.361  0.1187 -0.2897 -2.1240
  592MOL0     H78123  -1.430   4.458   8.508 -1.4331 -3.0709  0.2125
  592MOL0     H78124  -1.683   4.405   8.352  1.2133  0.3101 -0.6633
  592MOL0     H78125  -1.660   4.551   8.455 -1.7605 -0.7304 -2.3463
  592MOL0     H78126  -0.674   4.773   8.259 -0.2402 -1.4947  0.3976
  592MOL0     H78127  -0.489   4.841   8.098 -0.4025  0.4032 -0.7153
  592MOL0     H78128  -0.280   5.253   7.875 -3.2114  0.0560 -0.2574
  592MOL0     H78129  -0.079   5.289   7.717  0.8414 -0.1986 -1.6657
  592MOL0     H78130   1.329   5.964   7.655  1.8859 -2.3693  0.0806
  592MOL0     H78131   1.545   6.086   7.624  0.4101  1.3312 -0.1631
  592MOL0     H78132   1.874   6.268   7.361 -0.3776  0.6345 -0.4974
  592MOL0     H78133   2.112   6.343   7.383  0.4519 -0.3988 -0.2950
  592MOL0     H78134   2.492   6.126   7.493  1.0055  2.3445  1.4415
  592MOL0     H78135   2.363   6.053   7.577 -1.8342 -1.0261 -1.4710
  592MOL0     H78136   2.486   6.229   7.697  1.2717  4.3323  1.8618
  592MOL0     H78137   2.414   6.358   7.610 -3.4332  1.5788  2.9703
  592MOL0     H78138   2.249   6.162   7.760  0.3527  2.0290  3.4405
  592MOL0     H78139   2.176   6.275   7.661  0.1732  1.0471  0.0957
  592MOL0     H78140   2.394   6.401   7.844  0.3112 -1.6854  0.4219
  592MOL0     H78141   2.232   6.454   7.814 -1.3304 -0.3827  0.2493
  592MOL0     H78142   2.151   6.252   8.159 -0.7627  0.6050 -0.5424
  592MOL0     H78143   2.223   5.925   7.424 -0.4276  0.8038  2.5786
  592MOL0     H78144   2.013   5.858   7.397 -0.1191 -0.0732  2.2611
  593MOL0     O78145   3.561   1.108   1.473  0.7770  0.2114  0.0493
  593MOL0     C78146   3.532   0.996   1.507  0.5190 -0.0276 -0.6911
  593MOL0     O78147   3.400   0.944   1.511 -0.4279 -0.1187 -0.5414
  593MOL0     C78148   3.286   1.009   1.470  0.2623 -0.6702 -0.2951
  593MOL0     C78149   3.190   0.921   1.445 -0.5903  0.1240 -0.0619
  593MOL0     C78150   3.069   0.970   1.384  0.6250 -0.8198  0.6685
  593MOL0     C78151   3.041   1.109   1.403 -0.5589  0.3681  0.2342
  593MOL0     O78152   2.913   1.141   1.356 -0.1422  0.7285  0.4158
  593MOL0     C78153   2.877   1.280   1.343 -0.2652  0.0632 -0.3257
  593MOL0     C78154   2.778   1.304   1.229  0.0224  0.0185  0.2284
  593MOL0     C78155   2.736   1.451   1.223 -1.0032  0.5022 -1.0285
  593MOL0     C78156   2.667   1.483   1.087  0.6363  0.1925  0.2188
  593MOL0     C78157   2.644   1.631   1.079 -0.0623  0.9282 -0.1968
  593MOL0     C78158   2.670   1.691   0.935 -0.8601 -0.0969 -0.3221
  593MOL0     C78159   2.685   1.847   0.938 -0.6738  0.3251 -0.1790
  593MOL0     C78160   2.547   1.923   0.917 -1.3802  0.4073  0.5652
  593MOL0     N78161   2.521   1.950   0.774 -0.5910  0.1426  0.4874
  593MOL0     C78162   2.495   1.857   0.672  0.7969 -0.2904  0.0999
  593MOL0     C78163   2.440   1.928   0.569 -0.1711  0.7793  0.3297
  593MOL0     C78164   2.379   1.872   0.448 -0.7128 -1.0267  1.0716
  593MOL0     C78165   2.493   1.825   0.352 -0.5451 -0.5551 -0.5896
  593MOL0     C78166   2.465   1.827   0.199  0.0233  0.0566  0.5238
  593MOL0     C78167   2.430   1.968   0.137  0.6196  0.8813  0.6200
  593MOL0     O78168   2.401   1.950   0.002  0.5752  0.1119  0.7334
  593MOL0     C78169   2.279   1.988  -0.042  0.9071  0.3920  0.0326
  593MOL0     C78170   2.190   1.890  -0.089  0.6936 -0.5009 -0.2624
  593MOL0     C78171   2.064   1.934  -0.141  0.2664  0.2709  0.8591
  593MOL0     C78172   2.019   2.066  -0.138 -0.1387 -0.0271 -0.2502
  593MOL0     C78173   1.877   2.103  -0.171 -0.2597  0.3284  0.7154
  593MOL0     O78174   1.816   2.049  -0.277 -0.0062  0.5623 -0.1357
  593MOL0     C78175   1.702   2.102  -0.339  0.1812 -0.2495 -0.2505
  593MOL0     C78176   1.701   2.114  -0.478  0.6955  0.0381 -0.8992
  593MOL0     C78177   1.585   2.155  -0.543  0.0400  0.8178 -0.2810
  593MOL0     C78178   1.484   2.213  -0.474  0.3212  1.5315 -0.1013
  593MOL0     O78179   1.385   2.267  -0.547 -0.4211  0.4736 -0.1174
  593MOL0     C78180   1.255   2.317  -0.505  0.1176  0.2216  0.3896
  593MOL0     C78181   1.199   2.416  -0.620 -0.4248 -0.7263 -0.6591
  593MOL0     C78182   1.198   2.342  -0.762 -0.6424 -0.2462 -0.0906
  593MOL0     C78183   1.150   2.425  -0.888 -0.0981  0.5922  0.4062
  593MOL0     C78184   1.047   2.533  -0.851 -0.3662 -0.6945  0.1502
  593MOL0     C78185   0.986   2.607  -0.965  0.0860 -0.8108  0.5767
  593MOL0     C78186   0.873   2.709  -0.937  0.3876 -0.3424  0.4031
  593MOL0     C78187   0.734   2.643  -0.905 -0.1636 -0.1640  0.6086
  593MOL0    Cl78188   0.718   2.559  -0.740  0.4113 -0.1750 -0.3841
  593MOL0     C78189   1.484   2.211  -0.340  0.0714  0.6768  0.2694
  593MOL0     C78190   1.586   2.144  -0.270 -0.6201  0.6691  0.0367
  593MOL0     O78191   1.845   2.206  -0.120  0.6121  0.0109 -0.1016
  593MOL0     C78192   2.115   2.166  -0.104  1.2813 -0.3653  0.2943
  593MOL0     C78193   2.241   2.122  -0.049 -0.7955  0.4861 -0.1393
  593MOL0     N78194   2.464   2.058   0.594  0.2755 -0.4978 -0.6636
  593MOL0     N78195   2.506   2.075   0.716 -0.2249 -0.2057  0.0621
  593MOL0     C78196   3.143   1.201   1.438 -0.3108  0.3265  0.3491
  593MOL0     C78197   3.266   1.147   1.464 -0.3263 -0.1046 -0.3558
  593MOL0     C78198   3.639   0.897   1.528  0.2565 -0.5030  1.1095
  593MOL0     C78199   3.776   0.928   1.520 -0.0630  0.0998 -0.4202
  593MOL0     C78200   3.880   0.835   1.543 -0.0580 -0.2760  0.2608
  593MOL0     C78201   3.844   0.703   1.562  0.6455 -0.0855  0.5741
  593MOL0     O78202   3.935   0.601   1.582 -0.0933  0.3156 -0.0949
  593MOL0     C78203   4.067   0.634   1.636 -0.2413  0.1698 -0.4881
  593MOL0     C78204   4.167   0.505   1.652  1.2801 -0.1625 -0.2830
  593MOL0     C78205   4.313   0.553   1.673 -0.8850  0.0670 -1.0722
  593MOL0     C78206   4.412   0.442   1.645  0.3446 -0.3494 -0.6346
  593MOL0     C78207   4.436   0.345   1.759  0.8455  0.7114  0.2691
  593MOL0     C78208   4.445   0.271   1.857 -1.0238  0.3570  0.1023
  593MOL0     C78209   3.707   0.667   1.562 -0.8614  0.1780  0.9616
  593MOL0     C78210   3.606   0.764   1.555 -0.3397  0.9587  0.8706
  593MOL0     H78211   3.197   0.813   1.437 -1.7385  0.1024 -1.1158
  593MOL0     H78212   2.987   0.910   1.345 -0.1303 -0.0711  1.0597
  593MOL0     H78213   2.960   1.350   1.339  1.2574 -1.4997  1.6528
  593MOL0     H78214   2.823   1.305   1.435 -0.0179 -1.1429  0.1602
  593MOL0     H78215   2.693   1.234   1.230 -3.2291  3.6341  0.2991
  593MOL0     H78216   2.831   1.281   1.136 -0.5179 -0.4634  0.0318
  593MOL0     H78217   2.819   1.521   1.239 -2.1997  1.8179 -0.3898
  593MOL0     H78218   2.660   1.474   1.298  0.9208  2.1815  0.5210
  593MOL0     H78219   2.733   1.450   1.007  2.1862 -1.2956  1.9970
  593MOL0     H78220   2.571   1.432   1.074  1.0853 -0.2152 -1.7109
  593MOL0     H78221   2.717   1.673   1.149 -0.6158  3.2514 -0.8953
  593MOL0     H78222   2.541   1.661   1.101 -0.6003  0.0944 -1.4811
  593MOL0     H78223   2.589   1.666   0.865 -0.4310  1.7257 -1.5352
  593MOL0     H78224   2.767   1.650   0.903 -1.0426 -0.2573 -0.6710
  593MOL0     H78225   2.700   1.864   1.045 -2.9879 -1.0894  0.4397
  593MOL0     H78226   2.774   1.879   0.884 -0.3789 -2.6937 -1.7315
  593MOL0     H78227   2.539   2.011   0.981  2.1149 -0.1220  1.9434
  593MOL0     H78228   2.462   1.862   0.950 -1.8557  0.9489  0.3660
  593MOL0     H78229   2.491   1.748   0.674  0.5907 -0.2802  0.5679
  593MOL0     H78230   2.325   1.955   0.402  0.2358  1.1010  3.5398
  593MOL0     H78231   2.306   1.791   0.460 -1.3454 -0.4750  0.9911
  593MOL0     H78232   2.519   1.722   0.377 -2.7953 -1.0401  0.0518
  593MOL0     H78233   2.577   1.890   0.375 -1.7554  1.0166 -0.4078
  593MOL0     H78234   2.549   1.782   0.145  1.3073  0.2854  2.2557
  593MOL0     H78235   2.378   1.764   0.180 -0.6478  0.8869  0.7805
  593MOL0     H78236   2.504   2.040   0.172  2.0309 -0.7929  1.2339
  593MOL0     H78237   2.347   2.001   0.200  1.6410 -1.0107  3.1345
  593MOL0     H78238   2.219   1.786  -0.099 -2.4382 -1.6013  0.8037
  593MOL0     H78239   2.003   1.853  -0.181 -0.7870  1.3859  0.1329
  593MOL0     H78240   1.781   2.071  -0.539  0.8411  1.7543 -1.9702
  593MOL0     H78241   1.579   2.154  -0.651  0.0963 -1.1651 -0.2908
  593MOL0     H78242   1.274   2.371  -0.412 -0.0171 -0.5966  0.9047
  593MOL0     H78243   1.196   2.229  -0.478  0.4704  0.3443  1.6286
  593MOL0     H78244   1.270   2.499  -0.630 -0.8006 -0.4105 -0.7353
  593MOL0     H78245   1.107   2.464  -0.585  2.4350  3.1209  2.5411
  593MOL0     H78246   1.119   2.270  -0.739 -0.2636  0.2252  3.2929
  593MOL0     H78247   1.300   2.307  -0.782  1.5343  1.7264  5.4960
  593MOL0     H78248   1.244   2.459  -0.933 -0.5402  0.5640 -0.5699
  593MOL0     H78249   1.092   2.373  -0.964 -1.4413  1.7176  0.6270
  593MOL0     H78250   1.111   2.610  -0.806  1.3374 -0.3106 -2.6717
  593MOL0     H78251   0.968   2.487  -0.791  0.9482 -0.9149  1.7705
  593MOL0     H78252   0.952   2.530  -1.035  0.9633 -1.3201  0.6957
  593MOL0     H78253   1.060   2.656  -1.028 -1.8650 -1.2020 -2.1959
  593MOL0     H78254   0.901   2.759  -0.844 -1.7017 -0.1703  0.9976
  593MOL0     H78255   0.864   2.780  -1.021  0.5335 -2.1410 -1.1947
  593MOL0     H78256   0.717   2.566  -0.981 -2.3796 -1.0123  1.8852
  593MOL0     H78257   0.667   2.728  -0.917  1.6713  1.4700  1.3410
  593MOL0     H78258   1.403   2.262  -0.289  0.4990  0.6461  0.9989
  593MOL0     H78259   1.572   2.125  -0.164 -3.5740 -1.7856 -0.6537
  593MOL0     H78260   2.079   2.269  -0.099 -0.4473 -0.8736 -0.8254
  593MOL0     H78261   2.307   2.200  -0.015  0.4255 -0.0910 -1.1024
  593MOL0     H78262   3.113   1.303   1.458  1.1475  0.3676  2.7372
  593MOL0     H78263   3.341   1.212   1.506  0.0917 -1.0545  0.3933
  593MOL0     H78264   3.796   1.034   1.509 -0.4774  0.0796 -1.5657
  593MOL0     H78265   3.982   0.865   1.524  0.1063 -2.5420 -3.2915
  593MOL0     H78266   4.055   0.684   1.733 -2.3085 -2.3894  0.6821
  593MOL0     H78267   4.117   0.702   1.567 -1.1890 -0.4706 -1.8381
  593MOL0     H78268   4.130   0.444   1.735 -1.1692  1.5221 -0.0567
  593MOL0     H78269   4.168   0.447   1.559 -0.0368 -1.9764  0.7638
  593MOL0     H78270   4.336   0.587   1.775 -3.9111  0.0942 -0.3085
  593MOL0     H78271   4.327   0.633   1.600  0.6269  1.2675  0.4646
  593MOL0     H78272   4.396   0.387   1.552  2.4673  2.8513 -3.1147
  593MOL0     H78273   4.509   0.491   1.631 -0.0350  0.3939 -0.6947
  593MOL0     H78274   4.442   0.188   1.925 -0.6443 -0.7696 -1.2145
  593MOL0     H78275   3.691   0.559   1.563  2.6348 -0.6063 -2.1906
  593MOL0     H78276   3.501   0.737   1.561 -0.0773 -0.4337 -0.1513
  594MOL0     O78277  10.311   9.307   2.021  0.2971  0.5561  0.5150
  594MOL0     C78278  10.325   9.239   2.121  0.6578  0.7392 -0.4865
  594MOL0     O78279  10.433   9.167   2.158 -0.4296  0.1017  0.8987
  594MOL0     C78280  10.545   9.146   2.075 -0.8017 -0.3665 -0.9630
  594MOL0     C78281  10.621   9.032   2.090  0.5123 -0.0635  0.1737
  594MOL0     C78282  10.739   9.015   2.017 -0.8349  0.7293 -0.2255
  594MOL0     C78283  10.786   9.123   1.934  0.4764  0.5350 -0.1128
  594MOL0     O78284  10.916   9.102   1.889 -0.4451  0.4767  0.1762
  594MOL0     C78285  10.986   9.203   1.821  0.1047 -1.7058 -0.5464
  594MOL0     C78286  11.119   9.137   1.780 -0.0564 -0.2949 -0.0267
  594MOL0     C78287  11.206   9.250   1.717  0.6169 -0.1299  0.8349
  594MOL0     C78288  11.330   9.188   1.644  0.1887  0.4685  0.4553
  594MOL0     C78289  11.402   9.075   1.713  0.0872  0.6484 -0.4208
  594MOL0     C78290  11.470   9.101   1.843  0.8922  0.0323 -0.5540
  594MOL0     C78291  11.558   8.985   1.903  0.5231 -0.0525 -0.2436
  594MOL0     C78292  11.671   8.932   1.818  0.9694  0.5234  0.4611
  594MOL0     N78293  11.786   9.020   1.822 -0.1016  0.3210 -0.8201
  594MOL0     C78294  11.796   9.126   1.741  0.2974  0.6760 -0.4536
  594MOL0     C78295  11.921   9.161   1.751 -0.8286  0.1533 -0.2075
  594MOL0     C78296  11.995   9.272   1.665  0.0084 -0.0967  0.5203
  594MOL0     C78297  11.910   9.407   1.666 -1.0190 -0.2417  0.2945
  594MOL0     C78298  11.950   9.490   1.790  0.3672 -0.4523 -0.2249
  594MOL0     C78299  11.898   9.450   1.927  0.5897  0.8646 -0.6847
  594MOL0     O78300  11.761   9.492   1.932  0.8441 -0.2437 -0.0867
  594MOL0     C78301  11.674   9.423   2.006 -0.9320 -0.6213  0.2793
  594MOL0     C78302  11.543   9.470   1.999  0.8203  0.2483  0.2514
  594MOL0     C78303  11.435   9.404   2.068 -0.7910  0.2539  0.0630
  594MOL0     C78304  11.458   9.298   2.149  0.7335  0.5958 -0.7080
  594MOL0     C78305  11.352   9.229   2.222  0.5611 -0.3923  0.1833
  594MOL0     O78306  11.238   9.207   2.140 -0.1494  0.1471 -0.5257
  594MOL0     C78307  11.141   9.125   2.196  0.4434  0.2872  0.0769
  594MOL0     C78308  11.177   8.992   2.228  0.4332  0.1380  0.6179
  594MOL0     C78309  11.088   8.904   2.279  0.5401 -0.4287  0.1095
  594MOL0     C78310  10.957   8.954   2.306 -1.0484  1.4285 -0.6503
  594MOL0     O78311  10.876   8.862   2.377 -0.0218 -0.6335  0.9886
  594MOL0     C78312  10.821   8.910   2.503 -0.1957  1.2408  0.0041
  594MOL0     C78313  10.792   8.784   2.578  0.5650  0.5802  0.3635
  594MOL0     C78314  10.666   8.713   2.511 -0.9382 -0.1200 -0.2735
  594MOL0     C78315  10.653   8.567   2.548 -0.1629 -0.7365 -0.2580
  594MOL0     C78316  10.508   8.522   2.517 -0.8017 -0.5983  0.1621
  594MOL0     C78317  10.479   8.377   2.537  0.3843 -0.2072 -0.0831
  594MOL0     C78318  10.552   8.313   2.652 -0.7978 -0.0650  0.3048
  594MOL0     C78319  10.515   8.162   2.681  0.1210  0.1354  0.2978
  594MOL0    Cl78320  10.550   8.077   2.517  0.0344  0.2456 -0.0310
  594MOL0     C78321  10.917   9.083   2.269  0.0103 -0.1393 -0.3334
  594MOL0     C78322  11.009   9.171   2.211  0.0267  0.4136  1.0248
  594MOL0     O78323  11.359   9.201   2.343  0.0286  0.4610 -0.6902
  594MOL0     C78324  11.596   9.258   2.171 -0.2586  0.1017  0.8625
  594MOL0     C78325  11.701   9.318   2.095  0.2967  1.2165  0.7651
  594MOL0     N78326  11.987   9.077   1.837 -0.3520  0.8768  0.0156
  594MOL0     N78327  11.900   8.990   1.885 -1.3107  0.1216 -0.4364
  594MOL0     C78328  10.707   9.239   1.916 -1.0444  0.1938  0.8819
  594MOL0     C78329  10.593   9.239   1.991 -1.1431 -0.1955 -0.5398
  594MOL0     C78330  10.219   9.258   2.219  0.0823 -0.2009 -1.1124
  594MOL0     C78331  10.191   9.158   2.309 -0.6710  0.3101 -0.0619
  594MOL0     C78332  10.084   9.167   2.404  0.1957 -0.4435  1.3737
  594MOL0     C78333  10.002   9.278   2.400  0.8634  0.2753  0.6512
  594MOL0     O78334   9.902   9.275   2.494 -0.5617  0.1824 -0.3639
  594MOL0     C78335   9.781   9.357   2.477 -0.1993 -0.1226 -0.1935
  594MOL0     C78336   9.780   9.503   2.522 -0.5075 -0.2180  0.0206
  594MOL0     C78337   9.644   9.558   2.500  0.0826 -0.2941 -0.2245
  594MOL0     C78338   9.651   9.716   2.489  0.1539 -0.2138 -0.5449
  594MOL0     C78339   9.521   9.761   2.437 -0.9238  0.4818 -0.3492
  594MOL0     C78340   9.416   9.796   2.388 -0.2249 -0.1704 -0.1766
  594MOL0     C78341  10.026   9.387   2.303  0.2954  0.6814  0.5201
  594MOL0     C78342  10.132   9.369   2.215  0.1356  0.6112 -0.4265
  594MOL0     H78343  10.568   8.960   2.152 -0.1420  0.3883  0.1489
  594MOL0     H78344  10.795   8.923   2.034 -1.1142  0.5064 -0.5139
  594MOL0     H78345  10.994   9.292   1.884  2.9126 -2.0767 -0.2533
  594MOL0     H78346  10.925   9.241   1.737 -0.0706 -1.5965 -0.3710
  594MOL0     H78347  11.104   9.062   1.702  1.3928  1.0498 -1.6499
  594MOL0     H78348  11.168   9.096   1.868  1.9173  0.7039 -0.6085
  594MOL0     H78349  11.238   9.325   1.790  0.8509 -0.3237  0.9364
  594MOL0     H78350  11.146   9.309   1.648 -2.0877 -2.8916  0.5695
  594MOL0     H78351  11.298   9.168   1.542  1.6269  2.8291 -0.5278
  594MOL0     H78352  11.401   9.269   1.625 -1.6415  1.4731 -2.9510
  594MOL0     H78353  11.481   9.046   1.643 -0.3637  3.0101 -2.0266
  594MOL0     H78354  11.340   8.985   1.727  0.2541  0.3132 -1.7033
  594MOL0     H78355  11.393   9.126   1.916  2.9607  2.2778  1.0195
  594MOL0     H78356  11.532   9.186   1.814 -1.8751  2.2647 -0.2948
  594MOL0     H78357  11.595   9.016   2.001 -1.8305  1.2703  0.2929
  594MOL0     H78358  11.489   8.901   1.915  0.1392  0.1181 -1.1834
  594MOL0     H78359  11.642   8.932   1.713  1.3321  3.3138  0.2701
  594MOL0     H78360  11.683   8.830   1.855 -3.1677 -0.4802 -0.4880
  594MOL0     H78361  11.723   9.155   1.666 -0.4433 -1.1752 -0.5022
  594MOL0     H78362  11.998   9.231   1.564  2.0454  0.8462  0.1627
  594MOL0     H78363  12.097   9.281   1.701  1.2357 -3.7602 -1.4798
  594MOL0     H78364  11.802   9.400   1.676 -1.7045  4.6707 -1.1201
  594MOL0     H78365  11.929   9.462   1.573  2.5183  0.4608  1.2568
  594MOL0     H78366  12.060   9.496   1.791  0.4300  1.7713 -3.6713
  594MOL0     H78367  11.912   9.590   1.770  1.7206 -0.2251 -1.9327
  594MOL0     H78368  11.953   9.494   2.011 -3.0285  3.2873  0.6716
  594MOL0     H78369  11.893   9.341   1.940  0.5071  0.9838  0.4245
  594MOL0     H78370  11.525   9.550   1.929  0.7903 -0.8321 -1.0065
  594MOL0     H78371  11.331   9.435   2.055 -0.6560  1.0227  0.7071
  594MOL0     H78372  11.276   8.948   2.227  1.1450  1.5253  2.6610
  594MOL0     H78373  11.116   8.811   2.328 -0.0693 -1.0556 -0.7014
  594MOL0     H78374  10.727   8.959   2.478 -0.7048 -0.1335 -0.8312
  594MOL0     H78375  10.890   8.979   2.553  0.9050 -0.4702  0.9551
  594MOL0     H78376  10.762   8.813   2.679 -1.1697 -0.5141  0.2159
  594MOL0     H78377  10.884   8.725   2.572 -0.6139 -1.7046  2.6763
  594MOL0     H78378  10.675   8.708   2.402  2.3294 -2.3076 -0.0181
  594MOL0     H78379  10.577   8.774   2.533 -1.6179 -0.6316 -1.4663
  594MOL0     H78380  10.722   8.512   2.483 -1.7029 -1.8016 -1.0410
  594MOL0     H78381  10.672   8.554   2.655  0.6643  4.9321  0.6077
  594MOL0     H78382  10.478   8.549   2.416 -1.7372  0.2755  0.6503
  594MOL0     H78383  10.438   8.584   2.574  0.9335  2.0282 -0.4079
  594MOL0     H78384  10.504   8.334   2.440 -0.0568 -2.7324  0.8667
  594MOL0     H78385  10.371   8.365   2.550  0.3813 -1.9390 -1.3863
  594MOL0     H78386  10.658   8.316   2.627 -1.4958  0.4346 -2.9941
  594MOL0     H78387  10.541   8.366   2.747 -0.3260 -0.0257  0.3372
  594MOL0     H78388  10.407   8.157   2.693 -0.0415 -0.3404 -1.1210
  594MOL0     H78389  10.566   8.121   2.768 -0.9372  1.6428  1.6862
  594MOL0     H78390  10.814   9.114   2.282  0.9885  4.0838 -1.3598
  594MOL0     H78391  10.989   9.266   2.162  0.7143  0.0403 -0.0097
  594MOL0     H78392  11.638   9.181   2.235  6.2200  2.0541 -0.3461
  594MOL0     H78393  11.805   9.286   2.102  0.0626  0.2916  0.0484
  594MOL0     H78394  10.743   9.329   1.868 -1.1879  0.5712  1.4704
  594MOL0     H78395  10.533   9.328   1.970  1.2716  2.3888  2.5096
  594MOL0     H78396  10.247   9.065   2.306  0.7823  1.1852 -1.0494
  594MOL0     H78397  10.071   9.085   2.474  0.7982 -1.7577  0.0042
  594MOL0     H78398   9.693   9.322   2.532 -1.9854  5.1082  0.8713
  594MOL0     H78399   9.764   9.354   2.369  0.5130  2.3649 -0.4490
  594MOL0     H78400   9.801   9.500   2.629 -3.4836 -1.3573  0.6777
  594MOL0     H78401   9.863   9.560   2.480  1.5593 -2.8715  0.2047
  594MOL0     H78402   9.573   9.536   2.580  0.9804  1.8422  1.2530
  594MOL0     H78403   9.605   9.509   2.410 -1.8177 -1.9118  1.3799
  594MOL0     H78404   9.675   9.768   2.582 -2.3935  1.3049 -0.6334
  594MOL0     H78405   9.722   9.742   2.411  0.2813  0.2463 -0.2742
  594MOL0     H78406   9.320   9.824   2.349 -1.7181 -2.1040  1.8189
  594MOL0     H78407   9.950   9.461   2.282 -0.1927 -0.4460 -2.0924
  594MOL0     H78408  10.161   9.445   2.143 -1.1195  0.4211 -1.1493
  595MOL0     O78409   0.678   5.156   0.542 -0.4329 -0.8736 -0.7638
  595MOL0     C78410   0.789   5.142   0.481  0.6171  0.7824  0.0486
  595MOL0     O78411   0.806   5.095   0.349  0.2194 -0.3549 -0.3153
  595MOL0     C78412   0.702   5.101   0.271  0.4622 -0.1493  0.3413
  595MOL0     C78413   0.630   5.219   0.254 -0.7871  0.5860  0.3036
  595MOL0     C78414   0.510   5.223   0.182  0.4103  0.1533  0.1475
  595MOL0     C78415   0.464   5.101   0.125  0.5057 -0.1399 -0.7627
  595MOL0     O78416   0.350   5.077   0.060  0.6694  0.1584 -0.0976
  595MOL0     C78417   0.302   5.188  -0.013  0.5730  0.7239  0.9081
  595MOL0     C78418   0.208   5.135  -0.118  0.7938 -0.3164  0.9413
  595MOL0     C78419   0.109   5.238  -0.163 -0.4901 -0.0443  0.6361
  595MOL0     C78420   0.006   5.184  -0.264 -0.8167  0.9289  0.6772
  595MOL0     C78421  -0.090   5.282  -0.339 -0.0734  0.3420  0.0170
  595MOL0     C78422  -0.176   5.362  -0.255  0.6444  0.4405 -0.1760
  595MOL0     C78423  -0.274   5.445  -0.335 -0.1374  0.7637 -0.8931
  595MOL0     C78424  -0.388   5.491  -0.252 -0.0217 -0.3255  0.6807
  595MOL0     N78425  -0.489   5.548  -0.332  0.8076 -0.6360  0.2900
  595MOL0     C78426  -0.591   5.493  -0.412  0.4661  0.5161  0.3861
  595MOL0     C78427  -0.659   5.598  -0.467 -0.3159  0.4730  0.0279
  595MOL0     C78428  -0.783   5.606  -0.558  0.5581 -0.2701  0.4141
  595MOL0     C78429  -0.887   5.706  -0.512  0.1580  0.7268 -0.0132
  595MOL0     C78430  -0.972   5.666  -0.385 -0.9185 -0.6841  0.3750
  595MOL0     C78431  -1.064   5.781  -0.352  0.7738 -0.3716  0.0488
  595MOL0     O78432  -1.171   5.792  -0.445  0.2017 -0.3044  0.5922
  595MOL0     C78433  -1.286   5.712  -0.438 -0.4473 -0.1360  0.4418
  595MOL0     C78434  -1.304   5.603  -0.350  0.6296 -0.9591 -0.7262
  595MOL0     C78435  -1.431   5.529  -0.350  0.1173  0.5211 -0.4003
  595MOL0     C78436  -1.536   5.568  -0.443 -0.8137 -0.0130  0.2109
  595MOL0     C78437  -1.664   5.493  -0.449 -1.2194 -0.1030  0.6387
  595MOL0     O78438  -1.773   5.548  -0.515 -1.0604  0.2773  0.1041
  595MOL0     C78439  -1.890   5.482  -0.495 -0.3119 -0.3684  1.0781
  595MOL0     C78440  -1.959   5.422  -0.604  0.0600  0.0279 -0.0610
  595MOL0     C78441  -2.093   5.385  -0.589 -0.1865 -0.0290 -0.2213
  595MOL0     C78442  -2.144   5.378  -0.466  0.4319 -0.2074 -0.3099
  595MOL0     O78443  -2.273   5.331  -0.456 -0.4082 -0.4279 -0.4906
  595MOL0     C78444  -2.301   5.239  -0.351  0.1559  0.3314 -0.1766
  595MOL0     C78445  -2.404   5.137  -0.392 -0.5037  0.5917  1.0213
  595MOL0     C78446  -2.468   5.063  -0.275  1.0296  0.3938  0.5842
  595MOL0     C78447  -2.568   4.963  -0.313 -0.1582  0.4170 -0.3801
  595MOL0     C78448  -2.622   4.883  -0.203 -1.0377  0.8416 -0.0801
  595MOL0     C78449  -2.727   4.775  -0.247 -0.4868 -0.5949 -0.1616
  595MOL0     C78450  -2.777   4.680  -0.135 -0.0887 -0.5118 -0.9396
  595MOL0     C78451  -2.882   4.584  -0.183 -0.1368  0.7811 -0.0038
  595MOL0    Cl78452  -3.040   4.661  -0.191  0.1245  0.1325  0.0318
  595MOL0     C78453  -2.080   5.428  -0.356  0.0100 -0.0996  0.0443
  595MOL0     C78454  -1.956   5.483  -0.372 -0.3815 -0.3590 -0.1382
  595MOL0     O78455  -1.663   5.377  -0.414 -0.1663 -0.1467 -0.2925
  595MOL0     C78456  -1.510   5.669  -0.533 -0.8537 -0.1391 -0.2272
  595MOL0     C78457  -1.390   5.751  -0.527 -0.1653  0.3640 -1.1345
  595MOL0     N78458  -0.594   5.715  -0.429  0.5751 -0.6414 -0.8206
  595MOL0     N78459  -0.504   5.687  -0.349  0.0673  0.2158 -0.4035
  595MOL0     C78460   0.541   4.983   0.135  0.1537  0.2852 -0.2557
  595MOL0     C78461   0.650   4.987   0.219  0.3232 -0.7508  0.4281
  595MOL0     C78462   0.916   5.162   0.563  0.0772 -0.0664 -0.9164
  595MOL0     C78463   1.041   5.117   0.515  0.0442 -0.3043 -0.2405
  595MOL0     C78464   1.148   5.120   0.600  0.1442 -0.2228 -0.0728
  595MOL0     C78465   1.146   5.191   0.725 -0.2758  1.0979 -0.4357
  595MOL0     O78466   1.265   5.188   0.801  0.2411 -0.0211  0.3602
  595MOL0     C78467   1.269   5.260   0.929  0.1910  0.8452  0.0599
  595MOL0     C78468   1.407   5.320   0.957 -0.5494  0.3028 -0.6019
  595MOL0     C78469   1.515   5.209   0.965 -0.1181 -0.3284 -0.0680
  595MOL0     C78470   1.533   5.124   1.091 -0.0196 -0.8088 -0.1821
  595MOL0     C78471   1.615   5.216   1.184  0.0543  0.5752  1.2752
  595MOL0     C78472   1.677   5.278   1.259 -0.0228  0.0343  0.6320
  595MOL0     C78473   1.023   5.252   0.759  0.6052 -0.1261 -0.2596
  595MOL0     C78474   0.910   5.222   0.694  1.1303 -0.4500 -0.2105
  595MOL0     H78475   0.678   5.300   0.309 -1.1258  1.8476 -1.1912
  595MOL0     H78476   0.453   5.313   0.165  1.2726  0.5456 -0.7450
  595MOL0     H78477   0.381   5.239  -0.070  1.4216 -0.5196  0.9243
  595MOL0     H78478   0.249   5.262   0.048 -0.6310  0.9550 -0.3574
  595MOL0     H78479   0.138   5.055  -0.092 -0.5640 -0.4498 -2.5595
  595MOL0     H78480   0.271   5.103  -0.202  1.7401  0.8485  1.1892
  595MOL0     H78481   0.163   5.329  -0.193 -0.6530  0.3411  1.4919
  595MOL0     H78482   0.043   5.268  -0.082 -1.6044  2.9495 -1.2241
  595MOL0     H78483   0.058   5.115  -0.332 -1.1763  1.4159 -0.0998
  595MOL0     H78484  -0.056   5.109  -0.213 -0.2749  0.1949  0.2765
  595MOL0     H78485  -0.154   5.212  -0.392  1.0189  0.1336 -1.0617
  595MOL0     H78486  -0.029   5.339  -0.410 -1.9668  1.5403 -0.7354
  595MOL0     H78487  -0.110   5.423  -0.193  1.1931 -0.2014 -0.1166
  595MOL0     H78488  -0.229   5.296  -0.186 -1.3772  1.0298 -1.0860
  595MOL0     H78489  -0.227   5.533  -0.381 -0.3338  0.2383 -2.1303
  595MOL0     H78490  -0.322   5.385  -0.412  0.5365  1.1379 -1.6155
  595MOL0     H78491  -0.343   5.564  -0.183 -0.0442  0.9078 -0.5758
  595MOL0     H78492  -0.441   5.417  -0.191 -3.2242  0.0649 -1.4020
  595MOL0     H78493  -0.613   5.387  -0.416  0.9973  0.3932  0.5903
  595MOL0     H78494  -0.829   5.507  -0.567  1.4464 -0.7835  1.2995
  595MOL0     H78495  -0.755   5.630  -0.661 -2.8052 -2.3556 -1.1713
  595MOL0     H78496  -0.949   5.730  -0.598 -1.0002  1.1885  0.9243
  595MOL0     H78497  -0.831   5.798  -0.492  1.6024 -0.4295  1.5728
  595MOL0     H78498  -1.022   5.576  -0.420 -1.7772  0.9443 -3.0960
  595MOL0     H78499  -0.900   5.638  -0.308 -0.4602 -0.6581 -0.0368
  595MOL0     H78500  -0.999   5.868  -0.366  0.6966 -0.7158 -3.2935
  595MOL0     H78501  -1.102   5.770  -0.250 -0.2576  0.1959 -0.2658
  595MOL0     H78502  -1.230   5.580  -0.275  1.2104 -1.8508 -1.5547
  595MOL0     H78503  -1.445   5.453  -0.274  2.8321 -1.3106 -1.5944
  595MOL0     H78504  -1.912   5.415  -0.702  1.1385 -2.0332  0.5513
  595MOL0     H78505  -2.152   5.362  -0.677  0.5294  2.3348 -1.4036
  595MOL0     H78506  -2.351   5.295  -0.270 -1.5994 -1.8047  0.3145
  595MOL0     H78507  -2.209   5.191  -0.319 -0.8059 -0.7253  1.1535
  595MOL0     H78508  -2.370   5.062  -0.464 -3.0418 -0.3155  0.6384
  595MOL0     H78509  -2.477   5.205  -0.438  0.3902  2.4005  2.1731
  595MOL0     H78510  -2.511   5.138  -0.209  3.4137  3.0359 -0.6563
  595MOL0     H78511  -2.380   5.021  -0.225  0.8478 -0.1213  0.4772
  595MOL0     H78512  -2.643   5.020  -0.367  0.5315  0.9167 -0.8322
  595MOL0     H78513  -2.523   4.890  -0.382 -2.2665  0.6274 -2.0797
  595MOL0     H78514  -2.675   4.948  -0.133 -2.1057 -0.0425 -0.0298
  595MOL0     H78515  -2.534   4.837  -0.156  1.2619  0.4004 -4.3676
  595MOL0     H78516  -2.676   4.714  -0.322  2.5791  1.4688  0.0487
  595MOL0     H78517  -2.808   4.836  -0.288  0.4652  3.1370  2.8927
  595MOL0     H78518  -2.691   4.619  -0.104 -2.4171 -2.6971  1.8737
  595MOL0     H78519  -2.815   4.739  -0.051 -2.2622 -0.7154 -1.7130
  595MOL0     H78520  -2.885   4.499  -0.114 -2.0786  1.9477  1.4431
  595MOL0     H78521  -2.843   4.543  -0.277  2.8028  0.7476  1.1352
  595MOL0     H78522  -2.121   5.432  -0.256 -2.7626 -0.4955 -0.9745
  595MOL0     H78523  -1.912   5.536  -0.288 -2.0512 -3.2423  2.7549
  595MOL0     H78524  -1.585   5.696  -0.607 -2.9775  2.1533  2.5328
  595MOL0     H78525  -1.388   5.841  -0.587  0.3056 -0.1675 -1.9337
  595MOL0     H78526   0.508   4.893   0.083 -4.3106  0.8862  1.0812
  595MOL0     H78527   0.707   4.894   0.219 -0.8769 -1.5178 -0.0538
  595MOL0     H78528   1.043   5.067   0.419 -0.7353  1.3767 -1.1753
  595MOL0     H78529   1.232   5.055   0.577  1.5026  1.1701  0.7398
  595MOL0     H78530   1.250   5.188   1.009 -0.8898  1.9083  0.8055
  595MOL0     H78531   1.191   5.334   0.953  1.0910  1.7742  0.2072
  595MOL0     H78532   1.429   5.397   0.882  0.7175  0.1358 -0.4334
  595MOL0     H78533   1.405   5.371   1.054 -4.4389  3.6281 -2.1365
  595MOL0     H78534   1.606   5.266   0.942 -1.5829  2.0254 -0.4257
  595MOL0     H78535   1.507   5.148   0.874 -2.9111  1.2449 -0.9875
  595MOL0     H78536   1.429   5.113   1.124  0.3533  0.3009  1.4731
  595MOL0     H78537   1.582   5.026   1.081  1.4146  0.0542 -2.6376
  595MOL0     H78538   1.740   5.330   1.329  0.2951  1.6584 -0.7965
  595MOL0     H78539   1.005   5.305   0.852  1.9565 -0.2244  0.0718
  595MOL0     H78540   0.808   5.246   0.721  0.3947 -1.2147 -2.0937
  596MOL0     O78541   7.982  10.103   5.478  0.1951 -0.4273 -0.8888
  596MOL0     C78542   7.932  10.022   5.554  0.4663  0.5178  0.8192
  596MOL0     O78543   7.797  10.003   5.568  0.4665 -0.0516  0.0267
  596MOL0     C78544   7.707  10.085   5.505  0.7402 -0.2627 -0.3677
  596MOL0     C78545   7.595  10.014   5.471 -0.6108  1.1235  1.2397
  596MOL0     C78546   7.471  10.073   5.419 -0.8072  0.3525  0.2614
  596MOL0     C78547   7.484  10.208   5.387 -0.1956 -0.1655  0.0894
  596MOL0     O78548   7.383  10.263   5.321  0.8177 -0.5320  0.7302
  596MOL0     C78549   7.332  10.201   5.200  0.6876 -0.5771 -0.1395
  596MOL0     C78550   7.182  10.191   5.199 -0.6447 -0.0339 -1.1836
  596MOL0     C78551   7.106  10.321   5.201  0.3772 -0.3035  0.2784
  596MOL0     C78552   7.124  10.382   5.054  0.9503  0.2486  0.4867
  596MOL0     C78553   7.031  10.504   5.027 -0.0741  0.1858  0.1349
  596MOL0     C78554   6.879  10.467   5.033  0.7148  0.1729  0.0835
  596MOL0     C78555   6.797  10.589   5.003 -0.6845 -0.0711 -0.3221
  596MOL0     C78556   6.739  10.599   4.860 -0.7044  0.3994 -0.8814
  596MOL0     N78557   6.688  10.724   4.826  0.1032  0.8330  0.1505
  596MOL0     C78558   6.555  10.758   4.842  0.2474  0.6863  0.8830
  596MOL0     C78559   6.552  10.882   4.786  0.4039 -0.4202 -0.4096
  596MOL0     C78560   6.429  10.961   4.744  0.5668  0.4013 -0.4439
  596MOL0     C78561   6.297  10.908   4.796 -0.0708  0.1785 -0.0476
  596MOL0     C78562   6.164  10.956   4.722  0.6838 -0.6520  0.5984
  596MOL0     C78563   6.168  10.953   4.574 -0.0060  1.1153  0.9201
  596MOL0     O78564   6.039  10.981   4.519  0.1931 -0.1866  0.3159
  596MOL0     C78565   5.926  10.909   4.510 -0.6342  0.2063 -0.1645
  596MOL0     C78566   5.812  10.968   4.450  0.6618  0.0317  0.1481
  596MOL0     C78567   5.699  10.899   4.437  0.3076  1.6978 -0.1468
  596MOL0     C78568   5.680  10.767   4.484 -0.7091  0.4650 -0.7128
  596MOL0     C78569   5.560  10.682   4.459  0.3803 -0.0401  0.0604
  596MOL0     O78570   5.532  10.578   4.540  0.7412  0.3233  0.7729
  596MOL0     C78571   5.413  10.510   4.512  1.0014  0.3683  0.4964
  596MOL0     C78572   5.290  10.570   4.535 -0.3441  0.5314  0.1659
  596MOL0     C78573   5.167  10.516   4.493  0.6699  0.3184  1.0581
  596MOL0     C78574   5.163  10.388   4.428  0.7107 -0.6670 -0.0242
  596MOL0     O78575   5.047  10.315   4.387  0.2455 -0.2311  0.0029
  596MOL0     C78576   4.918  10.379   4.400  0.8102 -0.6060 -0.3025
  596MOL0     C78577   4.808  10.279   4.369  0.2912  0.9181  0.4210
  596MOL0     C78578   4.792  10.243   4.222  0.5871 -0.0490 -0.8499
  596MOL0     C78579   4.683  10.142   4.206 -0.2694  0.0721 -0.1024
  596MOL0     C78580   4.661  10.112   4.056  0.3458 -0.0276  0.1773
  596MOL0     C78581   4.522  10.050   4.029 -0.5336 -0.4567 -0.8910
  596MOL0     C78582   4.498   9.907   4.087 -0.6236  1.6641 -0.5311
  596MOL0     C78583   4.359   9.835   4.064 -0.4706  0.1171 -1.2573
  596MOL0    Cl78584   4.364   9.689   4.163  0.0751 -0.4268 -0.3199
  596MOL0     C78585   5.289  10.313   4.414  0.7930 -0.6976  0.5942
  596MOL0     C78586   5.411  10.381   4.450  0.3878 -0.6227 -0.6138
  596MOL0     O78587   5.492  10.723   4.359  0.1000 -0.4323 -0.1769
  596MOL0     C78588   5.801  10.698   4.531 -0.0735  0.9365  0.0026
  596MOL0     C78589   5.922  10.771   4.545 -0.6683 -0.0123 -0.3336
  596MOL0     N78590   6.676  10.913   4.730 -0.4741  0.3700  0.3849
  596MOL0     N78591   6.755  10.819   4.750 -0.4601 -0.4520 -0.3363
  596MOL0     C78592   7.586  10.286   5.437 -0.4330 -0.1783  0.2147
  596MOL0     C78593   7.702  10.221   5.487  0.9883 -0.1065  0.3132
  596MOL0     C78594   8.024   9.949   5.643  0.0898 -0.2286  1.2322
  596MOL0     C78595   8.156   9.978   5.644  1.1986 -0.1007 -0.2546
  596MOL0     C78596   8.233   9.916   5.734  0.0080 -0.0122 -0.2127
  596MOL0     C78597   8.186   9.812   5.820  0.0079 -0.2757  1.0241
  596MOL0     O78598   8.260   9.734   5.905  0.2660 -0.1219 -0.9624
  596MOL0     C78599   8.389   9.762   5.950 -0.3177 -1.4720 -0.1967
  596MOL0     C78600   8.419   9.661   6.064 -0.7608 -0.1865 -0.2066
  596MOL0     C78601   8.559   9.674   6.126 -0.3654  0.5209  0.0950
  596MOL0     C78602   8.598   9.545   6.203 -0.7580  0.6848  0.2826
  596MOL0     C78603   8.746   9.563   6.230 -0.9037  0.5982  0.7285
  596MOL0     C78604   8.864   9.577   6.260 -0.7018  0.4283 -0.2004
  596MOL0     C78605   8.046   9.790   5.817 -0.5344 -0.1688 -0.0203
  596MOL0     C78606   7.972   9.861   5.726  0.8932  0.1823 -0.3283
  596MOL0     H78607   7.595   9.908   5.493  0.6124  1.1475  1.4611
  596MOL0     H78608   7.394  10.002   5.390 -0.6071 -0.3411  1.3761
  596MOL0     H78609   7.374  10.101   5.182  0.3896 -0.6549 -0.4105
  596MOL0     H78610   7.363  10.257   5.112 -0.9417 -1.2970 -1.2220
  596MOL0     H78611   7.146  10.120   5.274  0.5661  0.4659 -0.0852
  596MOL0     H78612   7.160  10.141   5.105 -5.1358  1.9778 -1.4507
  596MOL0     H78613   7.144  10.384   5.282 -0.0028 -0.3737  0.5109
  596MOL0     H78614   6.998  10.304   5.201  0.2758  0.2566  1.2790
  596MOL0     H78615   7.232  10.398   5.045  1.5404 -1.9775  2.5143
  596MOL0     H78616   7.099  10.316   4.971 -0.2803  0.6877  0.4897
  596MOL0     H78617   7.046  10.534   4.923 -1.2957  2.1591  0.4913
  596MOL0     H78618   7.053  10.588   5.094 -1.5644  0.1282  0.7307
  596MOL0     H78619   6.856  10.434   5.135 -0.0200  0.4368  0.0108
  596MOL0     H78620   6.857  10.387   4.962 -2.3202  1.5330 -0.6621
  596MOL0     H78621   6.713  10.599   5.072 -1.9034  1.0257 -1.8996
  596MOL0     H78622   6.861  10.674   5.029 -2.4265  1.5150 -1.0505
  596MOL0     H78623   6.663  10.521   4.850  0.7189 -1.0850 -0.5703
  596MOL0     H78624   6.819  10.570   4.792 -1.7916  1.0323 -2.4825
  596MOL0     H78625   6.475  10.696   4.880 -1.4815  1.7557 -0.8575
  596MOL0     H78626   6.445  10.966   4.636  2.9822 -1.9240 -0.2972
  596MOL0     H78627   6.448  11.065   4.771 -0.2838  1.4499 -3.4867
  596MOL0     H78628   6.298  10.919   4.905  0.8135  5.1269 -0.3409
  596MOL0     H78629   6.295  10.800   4.778 -4.5370 -0.3258  2.0692
  596MOL0     H78630   6.087  10.897   4.772 -2.0291  4.1588  2.7811
  596MOL0     H78631   6.135  11.059   4.744  1.0891 -0.6025  0.9149
  596MOL0     H78632   6.208  10.855   4.545 -3.1967 -0.0691  0.0256
  596MOL0     H78633   6.238  11.025   4.531  1.6124 -2.5017 -3.2534
  596MOL0     H78634   5.827  11.071   4.421  2.2087 -0.4514 -0.9329
  596MOL0     H78635   5.618  10.951   4.388 -1.7265  0.9850  2.2442
  596MOL0     H78636   5.279  10.664   4.588  2.2378  2.5624 -2.5413
  596MOL0     H78637   5.070  10.565   4.501  0.5943  0.6933 -1.3562
  596MOL0     H78638   4.903  10.465   4.334  1.9499  0.3235  0.6218
  596MOL0     H78639   4.907  10.411   4.504  0.6430  0.9318 -0.7646
  596MOL0     H78640   4.709  10.306   4.408 -0.9279 -1.6944 -0.6913
  596MOL0     H78641   4.826  10.188   4.426  0.3902  0.7707  0.1511
  596MOL0     H78642   4.887  10.214   4.177  0.9633  1.6416 -1.2225
  596MOL0     H78643   4.754  10.332   4.170 -1.0777  0.7065  1.4971
  596MOL0     H78644   4.714  10.053   4.262 -1.8961  1.4652  3.3343
  596MOL0     H78645   4.595  10.178   4.261  1.6174  3.9965  0.7013
  596MOL0     H78646   4.747  10.056   4.017 -0.6074 -0.1006 -1.9452
  596MOL0     H78647   4.661  10.204   3.997 -0.5475  0.7273  1.3152
  596MOL0     H78648   4.516  10.060   3.920  1.5743  2.9703 -0.8428
  596MOL0     H78649   4.439  10.114   4.062 -1.0975 -1.1088 -1.0318
  596MOL0     H78650   4.569   9.841   4.037 -2.6165 -0.9725 -0.1285
  596MOL0     H78651   4.510   9.902   4.195 -0.1212 -1.2110 -0.6467
  596MOL0     H78652   4.346   9.802   3.960  0.0918 -1.1507 -0.9448
  596MOL0     H78653   4.270   9.888   4.099 -1.2909 -1.5915 -0.6558
  596MOL0     H78654   5.275  10.223   4.354 -1.5316 -1.1540  1.7064
  596MOL0     H78655   5.511  10.342   4.432  0.8294 -0.1230  0.6243
  596MOL0     H78656   5.786  10.592   4.549 -2.1967  1.8789  5.6995
  596MOL0     H78657   6.007  10.718   4.586  2.7632  4.1157 -1.3439
  596MOL0     H78658   7.599  10.391   5.415  5.0783  0.3019  3.8288
  596MOL0     H78659   7.788  10.287   5.499 -0.3149  2.3514 -2.5859
  596MOL0     H78660   8.195  10.050   5.574 -0.7015 -1.0199 -2.3870
  596MOL0     H78661   8.340   9.931   5.739 -0.1050  0.9254 -0.4367
  596MOL0     H78662   8.397   9.864   5.990 -2.3216 -1.6976  0.9594
  596MOL0     H78663   8.455   9.756   5.864 -4.7726  0.0247 -4.1554
  596MOL0     H78664   8.355   9.699   6.144  0.7931 -0.5626  1.2662
  596MOL0     H78665   8.396   9.557   6.040 -0.5382  0.1985 -2.2926
  596MOL0     H78666   8.554   9.754   6.201 -2.9277  0.4288  0.1299
  596MOL0     H78667   8.630   9.691   6.045 -0.6375  0.2329 -0.2062
  596MOL0     H78668   8.553   9.536   6.302  1.1737  1.8198  1.3130
  596MOL0     H78669   8.575   9.457   6.143 -1.4651  1.9645 -1.4323
  596MOL0     H78670   8.968   9.598   6.279 -0.9956  1.6821  0.1322
  596MOL0     H78671   8.003   9.715   5.882 -0.6357 -0.2152 -0.1410
  596MOL0     H78672   7.865   9.856   5.743  1.0852  1.0219  1.3407
  597MOL0     O78673   6.706   4.243  10.610 -0.0315  0.4497  0.4887
  597MOL0     C78674   6.629   4.328  10.562 -0.2533  0.0176 -0.0512
  597MOL0     O78675   6.677   4.446  10.496  0.0224  0.1824 -0.0764
  597MOL0     C78676   6.802   4.473  10.496 -1.1379  0.3612 -0.3365
  597MOL0     C78677   6.886   4.419  10.390  0.5515  0.2704 -0.8081
  597MOL0     C78678   7.017   4.463  10.385 -0.3242  0.7492  0.8117
  597MOL0     C78679   7.079   4.551  10.471  0.3598 -0.5667  1.1714
  597MOL0     O78680   7.213   4.579  10.464  0.0863  0.6377 -0.2897
  597MOL0     C78681   7.282   4.579  10.584 -0.5125  0.2597 -0.5672
  597MOL0     C78682   7.430   4.546  10.569  0.6221  0.1816 -0.0253
  597MOL0     C78683   7.448   4.398  10.527 -0.0101 -0.6813  0.7884
  597MOL0     C78684   7.598   4.364  10.490  0.8618 -0.2316  0.2196
  597MOL0     C78685   7.656   4.464  10.394  0.2742 -0.0663  0.2269
  597MOL0     C78686   7.787   4.420  10.353  0.2436  0.5707  0.4101
  597MOL0     C78687   7.854   4.531  10.270  0.3351  0.6203  0.3883
  597MOL0     C78688   7.995   4.494  10.236  0.5286 -0.1933 -0.1926
  597MOL0     N78689   8.071   4.604  10.163 -0.6875  0.2525  0.1454
  597MOL0     C78690   8.065   4.735  10.173  0.5316 -0.0622 -0.4148
  597MOL0     C78691   8.190   4.789  10.140 -0.3484  0.6002 -0.0945
  597MOL0     C78692   8.241   4.932  10.157 -0.2417  0.1119 -0.6506
  597MOL0     C78693   8.217   4.979  10.293  0.1303 -0.1809  0.0225
  597MOL0     C78694   8.305   5.106  10.319 -0.2127 -0.0809 -1.0809
  597MOL0     C78695   8.250   5.192  10.436 -0.0868  0.9694 -0.1679
  597MOL0     O78696   8.115   5.225  10.411 -0.8163 -0.1003  0.0827
  597MOL0     C78697   8.013   5.166  10.482 -0.6344  0.2809  0.1618
  597MOL0     C78698   7.888   5.219  10.454 -0.1527 -0.1939 -0.3342
  597MOL0     C78699   7.780   5.163  10.514  0.8568  0.2981  0.0737
  597MOL0     C78700   7.792   5.051  10.607  0.6674 -0.6598 -0.4380
  597MOL0     C78701   7.664   4.995  10.663  0.1830 -0.7890  0.0769
  597MOL0     O78702   7.549   5.033  10.594  0.2757 -0.2244  0.1477
  597MOL0     C78703   7.418   5.009  10.639 -0.7064  0.2763  1.0037
  597MOL0     C78704   7.326   5.097  10.587  0.6362 -1.2134  1.1168
  597MOL0     C78705   7.200   5.121  10.638 -0.1257  0.1706  0.1510
  597MOL0     C78706   7.158   5.043  10.751  0.0679 -0.1907  0.4665
  597MOL0     O78707   7.039   5.081  10.806  0.3206  0.3971 -0.4508
  597MOL0     C78708   6.927   4.989  10.789 -0.0445  0.0339 -0.3325
  597MOL0     C78709   6.865   4.928  10.928  0.5549 -1.2818 -0.1212
  597MOL0     C78710   6.727   4.995  10.949  0.3471 -0.1751  0.3438
  597MOL0     C78711   6.647   4.920  11.061  0.3949 -0.1549  0.4151
  597MOL0     C78712   6.533   5.009  11.105  0.0049 -0.1151 -0.1937
  597MOL0     C78713   6.450   4.935  11.218 -0.4579  0.1924 -0.9429
  597MOL0     C78714   6.355   5.030  11.274 -0.1740  0.0448 -0.5226
  597MOL0     C78715   6.249   4.964  11.352 -0.8010  0.5985  0.3239
  597MOL0    Cl78716   6.135   5.066  11.414 -0.0281  0.4750 -0.1311
  597MOL0     C78717   7.246   4.947  10.796  0.2534  0.0289  0.7860
  597MOL0     C78718   7.368   4.923  10.737  0.6963  0.2337 -0.2053
  597MOL0     O78719   7.668   4.925  10.764  0.2325  0.5489  0.4112
  597MOL0     C78720   7.914   5.007  10.634 -0.1363  0.6084  0.5924
  597MOL0     C78721   8.027   5.069  10.575 -0.4309  0.2592 -0.6857
  597MOL0     N78722   8.261   4.683  10.095  0.8852 -0.7614 -0.2208
  597MOL0     N78723   8.194   4.575  10.093  0.5593  0.4648 -1.0245
  597MOL0     C78724   6.992   4.604  10.576 -0.7572 -0.2158  0.6472
  597MOL0     C78725   6.862   4.562  10.595 -0.4770 -0.2754  0.1279
  597MOL0     C78726   6.478   4.300  10.582 -0.1244  0.3682 -0.0986
  597MOL0     C78727   6.374   4.364  10.506  0.8549  0.4474 -0.2340
  597MOL0     C78728   6.236   4.340  10.541  0.6314 -0.6702 -0.9096
  597MOL0     C78729   6.202   4.264  10.649  0.2390 -0.0932 -0.0630
  597MOL0     O78730   6.074   4.248  10.690 -0.6147 -0.5886 -1.0230
  597MOL0     C78731   5.985   4.361  10.705  0.0686 -0.2346 -0.2267
  597MOL0     C78732   5.852   4.322  10.764 -0.2762  0.0866  0.2753
  597MOL0     C78733   5.854   4.285  10.915  0.4323  1.0821  0.1739
  597MOL0     C78734   5.966   4.350  10.999 -0.0349  0.3105 -0.1327
  597MOL0     C78735   6.099   4.286  10.996  0.3059 -0.3125 -0.8173
  597MOL0     C78736   6.204   4.232  11.000 -0.5336  0.1586 -0.4043
  597MOL0     C78737   6.301   4.190  10.700 -0.1854  0.3925  0.2464
  597MOL0     C78738   6.436   4.199  10.669 -0.3448 -0.0641  0.8401
  597MOL0     H78739   6.840   4.347  10.323 -2.0370 -1.3382  2.4407
  597MOL0     H78740   7.084   4.432  10.306  0.9150 -1.2553  2.5573
  597MOL0     H78741   7.237   4.507  10.652  0.3192 -1.4183 -1.7255
  597MOL0     H78742   7.289   4.677  10.633  1.7006  0.7218 -1.6821
  597MOL0     H78743   7.487   4.557  10.661  1.7807 -2.2656 -0.3663
  597MOL0     H78744   7.475   4.618  10.500 -0.1389  1.7371  1.0606
  597MOL0     H78745   7.380   4.359  10.451 -1.6409 -0.8546  2.2689
  597MOL0     H78746   7.430   4.338  10.617  3.2783 -0.1922  1.9318
  597MOL0     H78747   7.650   4.344  10.584  0.6693 -0.6945  0.2346
  597MOL0     H78748   7.594   4.270  10.433  0.3150  0.2537 -0.5623
  597MOL0     H78749   7.667   4.566  10.433  2.3298 -0.4155  0.7091
  597MOL0     H78750   7.590   4.455  10.307 -2.5674  2.2177  1.9631
  597MOL0     H78751   7.770   4.323  10.307 -1.6903  0.5150  1.1447
  597MOL0     H78752   7.843   4.407  10.446  1.1190  1.6050  0.0544
  597MOL0     H78753   7.788   4.552  10.185  1.1713  0.0235 -0.4357
  597MOL0     H78754   7.860   4.613  10.343  1.1717  0.3595  0.6274
  597MOL0     H78755   8.006   4.403  10.177  3.1731 -0.8590  1.1999
  597MOL0     H78756   8.045   4.483  10.333 -0.1729  2.4970  0.5503
  597MOL0     H78757   7.980   4.792  10.209 -0.2927 -1.9607  0.7487
  597MOL0     H78758   8.190   4.998  10.087  0.1442  1.8384  0.6113
  597MOL0     H78759   8.348   4.938  10.137  0.3382 -2.7831  0.9799
  597MOL0     H78760   8.259   4.903  10.359  2.4323  1.4278  0.5179
  597MOL0     H78761   8.110   5.002  10.302 -0.1410 -0.9623 -1.1254
  597MOL0     H78762   8.400   5.065  10.356  0.4240  0.6710 -1.8338
  597MOL0     H78763   8.321   5.162  10.227 -1.4249  2.9388  0.3997
  597MOL0     H78764   8.312   5.282  10.433  1.8293  0.0762  4.1155
  597MOL0     H78765   8.270   5.140  10.531 -0.5361 -1.2497 -1.2156
  597MOL0     H78766   7.880   5.295  10.377  1.8453 -2.2454 -2.7438
  597MOL0     H78767   7.678   5.193  10.498 -0.8851 -3.5023  2.4805
  597MOL0     H78768   7.364   5.168  10.514  2.3285  1.1811  4.0871
  597MOL0     H78769   7.126   5.189  10.597 -0.8233 -1.0714 -0.7127
  597MOL0     H78770   6.951   4.908  10.720 -0.2527  1.7615 -2.5167
  597MOL0     H78771   6.845   5.042  10.740 -0.6311 -0.0845  0.4847
  597MOL0     H78772   6.916   4.946  11.024 -2.0067  0.8201  0.9627
  597MOL0     H78773   6.833   4.823  10.929 -1.4882 -0.7351  1.9581
  597MOL0     H78774   6.682   5.015  10.852 -0.4283  1.9170  1.0945
  597MOL0     H78775   6.750   5.092  10.994 -2.9575  1.1372 -0.5007
  597MOL0     H78776   6.595   4.835  11.016 -1.2306  1.1523 -0.2870
  597MOL0     H78777   6.720   4.888  11.136  0.0544  3.1422  2.3791
  597MOL0     H78778   6.466   5.030  11.021 -0.9409  2.1004  1.0353
  597MOL0     H78779   6.567   5.106  11.141 -0.3966 -0.0690  0.0688
  597MOL0     H78780   6.514   4.907  11.303 -2.9132 -1.0267  0.6197
  597MOL0     H78781   6.410   4.845  11.171  0.7689 -0.4926 -0.7210
  597MOL0     H78782   6.410   5.104  11.333 -1.2287 -1.0867  2.0301
  597MOL0     H78783   6.300   5.079  11.193 -1.5885 -1.7363 -0.6954
  597MOL0     H78784   6.298   4.908  11.433 -2.4225  0.0947  0.9974
  597MOL0     H78785   6.191   4.891  11.294 -1.5156 -0.3426  2.1316
  597MOL0     H78786   7.214   4.880  10.875  0.0015  0.5819  1.1658
  597MOL0     H78787   7.424   4.839  10.776 -0.0595  1.2272  3.3809
  597MOL0     H78788   7.925   4.938  10.717  0.7546  2.3551  1.9734
  597MOL0     H78789   8.123   5.029  10.603  0.4176  1.0401 -2.3539
  597MOL0     H78790   7.035   4.661  10.657 -0.4172  1.7418 -0.8184
  597MOL0     H78791   6.807   4.596  10.682 -1.7893 -0.7735 -0.4722
  597MOL0     H78792   6.389   4.426  10.418 -3.3547  0.1411 -1.3930
  597MOL0     H78793   6.160   4.399  10.492  1.9442  2.5771  0.6023
  597MOL0     H78794   5.961   4.408  10.609 -2.6941  0.5458  0.7403
  597MOL0     H78795   6.037   4.430  10.772  1.9921 -2.6950  0.9544
  597MOL0     H78796   5.778   4.401  10.752 -1.1370 -0.9975 -2.3150
  597MOL0     H78797   5.808   4.236  10.713  2.0472  0.1864 -2.1480
  597MOL0     H78798   5.860   4.176  10.927  2.8593  1.1359  0.0232
  597MOL0     H78799   5.758   4.315  10.958 -0.8651  0.4003 -2.0955
  597MOL0     H78800   5.970   4.457  10.974 -3.9253  0.7011  0.2235
  597MOL0     H78801   5.946   4.338  11.105 -1.1154 -0.5024 -0.4098
  597MOL0     H78802   6.298   4.185  10.984 -1.9528 -2.8015 -0.6715
  597MOL0     H78803   6.265   4.117  10.772 -0.6720 -2.4264 -2.6505
  597MOL0     H78804   6.507   4.129  10.711  1.5406  1.4879  0.3818
  598MOL0     O78805   5.229   8.472   4.904 -0.2712  0.7260  0.0476
  598MOL0     C78806   5.121   8.518   4.918  0.3174 -0.3795  1.2207
  598MOL0     O78807   5.088   8.655   4.898 -0.5003  1.2214  0.2186
  598MOL0     C78808   5.184   8.749   4.855  0.0303  0.2679 -0.1890
  598MOL0     C78809   5.317   8.747   4.898 -0.1650  0.2443 -0.6396
  598MOL0     C78810   5.410   8.844   4.850 -0.1300  0.2010 -0.1579
  598MOL0     C78811   5.366   8.948   4.769 -0.9930  0.2628 -0.2598
  598MOL0     O78812   5.449   9.048   4.728 -0.8522 -0.5924 -0.3198
  598MOL0     C78813   5.570   9.082   4.784  0.1848 -0.0800  0.1553
  598MOL0     C78814   5.612   9.216   4.724  0.5189 -0.2580 -0.1373
  598MOL0     C78815   5.751   9.259   4.761  0.3246 -0.8396 -1.0081
  598MOL0     C78816   5.843   9.301   4.650 -0.1072  0.0197 -0.0784
  598MOL0     C78817   5.966   9.362   4.719 -0.2343  0.7241  0.3472
  598MOL0     C78818   6.017   9.469   4.630 -0.1973 -0.8177  0.1448
  598MOL0     C78819   6.163   9.499   4.668  0.4516  0.6450  0.2018
  598MOL0     C78820   6.222   9.622   4.597  0.4629  0.2895 -0.2915
  598MOL0     N78821   6.352   9.628   4.663  0.1735 -1.3861 -0.3257
  598MOL0     C78822   6.455   9.551   4.617 -0.0908  0.3182 -0.9150
  598MOL0     C78823   6.552   9.599   4.697  0.3977  0.9521 -0.0641
  598MOL0     C78824   6.688   9.533   4.682  0.7832  0.1597 -0.6689
  598MOL0     C78825   6.783   9.571   4.796 -0.0803 -0.1729  0.7213
  598MOL0     C78826   6.922   9.581   4.740 -0.4323  0.2674  0.3427
  598MOL0     C78827   6.968   9.454   4.675 -1.1603  0.9179  0.5126
  598MOL0     O78828   6.953   9.338   4.761  0.0656 -0.0010  0.4134
  598MOL0     C78829   7.063   9.251   4.763 -0.9814  0.0547 -0.0918
  598MOL0     C78830   7.100   9.177   4.647 -0.3428 -0.2294 -0.1666
  598MOL0     C78831   7.204   9.083   4.645  0.0245 -0.0077  0.0138
  598MOL0     C78832   7.283   9.065   4.766  0.6919 -1.0241 -0.6513
  598MOL0     C78833   7.385   8.967   4.763 -0.7491 -0.2139  0.4509
  598MOL0     O78834   7.493   8.984   4.848  0.4174  0.8241  0.1682
  598MOL0     C78835   7.622   8.923   4.819  1.2125  0.3099  0.0722
  598MOL0     C78836   7.654   8.810   4.737 -0.0348 -0.3654  0.6216
  598MOL0     C78837   7.789   8.766   4.736  0.0423 -0.7327  1.0534
  598MOL0     C78838   7.884   8.826   4.829 -0.0944  0.2575 -0.9386
  598MOL0     O78839   8.010   8.770   4.847  0.1081  0.4049  0.1235
  598MOL0     C78840   8.076   8.713   4.729  0.8010 -0.3108  0.6583
  598MOL0     C78841   8.205   8.652   4.766 -0.4823  0.6415 -0.3777
  598MOL0     C78842   8.265   8.587   4.641 -0.9916  0.0260  0.3269
  598MOL0     C78843   8.355   8.470   4.678 -0.9322 -0.1819 -0.3881
  598MOL0     C78844   8.403   8.403   4.548  0.1349 -0.3888  0.2210
  598MOL0     C78845   8.499   8.284   4.570 -0.5609  0.0013 -0.0903
  598MOL0     C78846   8.529   8.218   4.434 -0.2481  0.5205 -0.6633
  598MOL0     C78847   8.653   8.131   4.423 -0.3273 -0.3022 -0.0819
  598MOL0    Cl78848   8.649   8.062   4.249 -0.5073  0.0591 -0.3297
  598MOL0     C78849   7.839   8.927   4.916 -0.1173  0.7496  0.0016
  598MOL0     C78850   7.712   8.976   4.905 -0.0109 -0.5192 -0.5868
  598MOL0     O78851   7.383   8.893   4.667  0.2994 -0.1875 -0.5052
  598MOL0     C78852   7.252   9.155   4.878 -0.2277  0.4424  0.0543
  598MOL0     C78853   7.138   9.241   4.877  0.3068 -0.6543 -0.7394
  598MOL0     N78854   6.508   9.684   4.792  0.3335 -0.3066  0.3840
  598MOL0     N78855   6.387   9.703   4.774 -0.4528  0.0114  0.0483
  598MOL0     C78856   5.222   8.960   4.741 -0.7324  0.9504 -0.1752
  598MOL0     C78857   5.135   8.863   4.793  0.3508  0.8473 -0.4924
  598MOL0     C78858   5.002   8.441   4.971  0.6511 -0.2578  0.6187
  598MOL0     C78859   4.874   8.502   4.977  0.4106 -0.8626  0.6114
  598MOL0     C78860   4.758   8.442   5.016  0.6472  0.9756 -0.4122
  598MOL0     C78861   4.766   8.313   5.074  1.0172  0.7037 -0.2867
  598MOL0     O78862   4.649   8.242   5.115 -0.5819 -0.0257  0.0517
  598MOL0     C78863   4.630   8.105   5.056 -0.2413  0.4326  0.4158
  598MOL0     C78864   4.604   8.098   4.904 -0.2675  0.1582 -0.1168
  598MOL0     C78865   4.557   7.962   4.833  0.4187 -1.0122 -0.4664
  598MOL0     C78866   4.433   7.896   4.893 -0.6498  0.8574  0.6061
  598MOL0     C78867   4.423   7.760   4.831 -0.2854  1.0079 -0.4228
  598MOL0     C78868   4.414   7.651   4.781 -0.1807  0.1884 -1.0203
  598MOL0     C78869   4.893   8.256   5.084 -0.4746  0.1552  0.0705
  598MOL0     C78870   5.010   8.312   5.028  0.0760 -0.5256 -0.4843
  598MOL0     H78871   5.360   8.666   4.957 -1.5969  1.4800  2.2445
  598MOL0     H78872   5.515   8.833   4.877  0.2947 -2.0108 -2.3973
  598MOL0     H78873   5.636   9.001   4.750  1.4409  2.2027 -3.5129
  598MOL0     H78874   5.563   9.076   4.893  1.4223 -1.4783  0.1797
  598MOL0     H78875   5.546   9.300   4.748  2.9945  1.0424  2.8999
  598MOL0     H78876   5.619   9.204   4.616  1.9707 -1.2822  0.0316
  598MOL0     H78877   5.798   9.169   4.802 -0.3145 -1.1855 -1.0283
  598MOL0     H78878   5.757   9.328   4.845  2.3867 -3.4814  1.1929
  598MOL0     H78879   5.870   9.211   4.594  2.0852 -0.8067  2.1398
  598MOL0     H78880   5.795   9.367   4.577  2.2584  1.7053 -0.2030
  598MOL0     H78881   6.037   9.279   4.728 -0.7113 -0.0558 -2.3828
  598MOL0     H78882   5.948   9.423   4.808  2.1731  0.9751  0.7337
  598MOL0     H78883   5.953   9.557   4.645 -1.6543 -1.7494 -0.3768
  598MOL0     H78884   6.005   9.440   4.525 -4.4832  0.1731  0.1864
  598MOL0     H78885   6.176   9.502   4.776  0.9897  0.8124  0.1382
  598MOL0     H78886   6.208   9.405   4.635 -1.4489 -0.7736  1.4598
  598MOL0     H78887   6.156   9.697   4.641 -1.1057 -1.3527  0.3125
  598MOL0     H78888   6.224   9.635   4.489 -3.8841 -0.5707 -0.6686
  598MOL0     H78889   6.458   9.474   4.540  1.0974  1.1252 -1.7161
  598MOL0     H78890   6.725   9.549   4.581  2.6416  1.1661  0.1166
  598MOL0     H78891   6.686   9.424   4.696  0.0136  0.1558 -0.7572
  598MOL0     H78892   6.779   9.507   4.884 -3.0185  0.4915  1.1571
  598MOL0     H78893   6.757   9.673   4.825  1.3259  0.6348 -0.7034
  598MOL0     H78894   6.932   9.660   4.665  1.6945 -0.2220  0.0316
  598MOL0     H78895   6.992   9.610   4.819  1.2207  0.3006 -1.0827
  598MOL0     H78896   7.070   9.468   4.638 -1.4996  0.3473 -0.6731
  598MOL0     H78897   6.903   9.428   4.591  0.6580  0.0958 -0.6776
  598MOL0     H78898   7.046   9.190   4.554 -4.9301  1.6236  2.4582
  598MOL0     H78899   7.236   9.024   4.560  0.3176  0.4668 -0.2114
  598MOL0     H78900   7.571   8.776   4.676 -3.7076  3.9369  2.5859
  598MOL0     H78901   7.813   8.678   4.677 -0.7999  0.4911 -1.2673
  598MOL0     H78902   8.093   8.798   4.662 -0.0664 -0.0130  0.7889
  598MOL0     H78903   8.011   8.639   4.682 -2.1392 -0.9327  5.0966
  598MOL0     H78904   8.189   8.571   4.838  1.5160  1.2694  0.8731
  598MOL0     H78905   8.277   8.725   4.806 -1.3621  2.4133 -1.9010
  598MOL0     H78906   8.304   8.664   4.574 -1.3872 -0.6670 -0.7338
  598MOL0     H78907   8.182   8.550   4.579 -2.2114  2.9437  0.0747
  598MOL0     H78908   8.438   8.519   4.729 -1.5707 -0.4445  0.9478
  598MOL0     H78909   8.314   8.393   4.744  3.8122 -1.8890  0.9802
  598MOL0     H78910   8.446   8.473   4.475  2.4581 -2.6267 -0.7228
  598MOL0     H78911   8.308   8.365   4.512 -1.2470  3.2042 -0.3430
  598MOL0     H78912   8.465   8.217   4.650 -1.3642  0.8399  0.2856
  598MOL0     H78913   8.591   8.322   4.615 -1.3564 -0.8154  2.3839
  598MOL0     H78914   8.442   8.157   4.409  1.2401 -3.3289  2.4987
  598MOL0     H78915   8.538   8.305   4.368  3.2585  1.8821  1.3311
  598MOL0     H78916   8.648   8.045   4.490 -1.8359 -0.4692 -0.3765
  598MOL0     H78917   8.741   8.192   4.445  0.7842 -2.4013  1.6522
  598MOL0     H78918   7.903   8.961   4.997 -2.0404  1.5270  1.2614
  598MOL0     H78919   7.680   9.050   4.978  2.9472 -0.3098  0.6445
  598MOL0     H78920   7.312   9.143   4.967  3.9063 -1.2603 -2.6434
  598MOL0     H78921   7.128   9.310   4.960  2.4065  2.6995 -2.9832
  598MOL0     H78922   5.182   9.052   4.699 -1.4817  0.1145 -1.3466
  598MOL0     H78923   5.029   8.879   4.776  0.4760 -0.3694 -2.9184
  598MOL0     H78924   4.853   8.606   4.959  0.3773 -1.3371 -2.7186
  598MOL0     H78925   4.666   8.499   5.003 -0.5436 -0.4355  1.3099
  598MOL0     H78926   4.552   8.058   5.117  0.7095  1.2749  2.3626
  598MOL0     H78927   4.710   8.033   5.075  0.9427  1.5172 -0.2826
  598MOL0     H78928   4.526   8.175   4.893 -1.2841 -0.4617  2.1401
  598MOL0     H78929   4.704   8.120   4.867  0.6680 -1.8214  1.0965
  598MOL0     H78930   4.635   7.886   4.832 -1.4997 -3.1070  0.1435
  598MOL0     H78931   4.539   7.984   4.727  0.1908 -1.6405 -0.5581
  598MOL0     H78932   4.447   7.890   5.001 -0.4361 -1.1733  0.5037
  598MOL0     H78933   4.357   7.967   4.859  3.7353  4.6035 -2.6030
  598MOL0     H78934   4.414   7.561   4.723  1.8510  0.6512 -1.8374
  598MOL0     H78935   4.897   8.162   5.139  2.7443 -0.4090 -0.9335
  598MOL0     H78936   5.105   8.260   5.023  0.5845  0.4502 -1.5768
  599MOL0     O78937   7.342   9.992   4.368 -0.8621  0.2079 -0.2025
  599MOL0     C78938   7.437  10.072   4.357  0.0892 -0.1831 -0.3344
  599MOL0     O78939   7.436  10.183   4.279  0.3567 -0.4287  0.5543
  599MOL0     C78940   7.320  10.200   4.195 -0.0485 -0.6554 -0.5812
  599MOL0     C78941   7.353  10.255   4.067  0.6419 -0.3104  0.1027
  599MOL0     C78942   7.244  10.277   3.982  0.2691 -0.0338  0.0048
  599MOL0     C78943   7.104  10.262   4.020 -0.5244 -1.0225 -0.3255
  599MOL0     O78944   6.999  10.272   3.930  0.6805  0.8896 -0.1841
  599MOL0     C78945   7.029  10.233   3.796 -0.5825 -0.8057  0.4670
  599MOL0     C78946   6.897  10.182   3.718 -0.9322  0.7831 -0.9754
  599MOL0     C78947   6.935  10.127   3.579 -0.3134  0.4818 -0.2570
  599MOL0     C78948   6.928  10.224   3.463 -0.6221  0.5962  0.0378
  599MOL0     C78949   7.019  10.184   3.336  1.5252  0.6131 -0.4423
  599MOL0     C78950   7.145  10.267   3.330 -0.5592  0.3774  0.9714
  599MOL0     C78951   7.218  10.240   3.196 -0.8701 -0.1340  1.1069
  599MOL0     C78952   7.306  10.120   3.196  0.5070  0.0535  0.0372
  599MOL0     N78953   7.319  10.054   3.069 -0.4289  0.0427  0.1554
  599MOL0     C78954   7.210   9.992   3.004  0.2588  0.5782 -0.1540
  599MOL0     C78955   7.263   9.907   2.912  0.2622  0.0885 -0.8654
  599MOL0     C78956   7.197   9.829   2.804 -0.0720  0.2321 -0.4126
  599MOL0     C78957   7.289   9.771   2.697 -0.1017 -0.1602  0.0889
  599MOL0     C78958   7.229   9.663   2.602 -0.2673 -0.8258 -0.7013
  599MOL0     C78959   7.100   9.712   2.531 -0.2681 -0.0283  0.9458
  599MOL0     O78960   7.148   9.826   2.450 -0.7905  0.6308 -0.1555
  599MOL0     C78961   7.058   9.869   2.355 -0.8710 -0.7494  0.1618
  599MOL0     C78962   7.109   9.963   2.264  0.5040 -0.2732  0.3543
  599MOL0     C78963   7.025  10.030   2.164 -0.7570  0.0039 -0.5352
  599MOL0     C78964   6.894   9.995   2.148 -0.0369 -0.0362 -0.6646
  599MOL0     C78965   6.825  10.054   2.032  0.0897  0.7618  0.4273
  599MOL0     O78966   6.694  10.023   2.016  0.8416  0.2953 -0.1944
  599MOL0     C78967   6.629  10.085   1.914  0.3378 -0.9273 -0.8674
  599MOL0     C78968   6.575  10.015   1.808 -0.7047 -0.1361  0.6939
  599MOL0     C78969   6.500  10.083   1.714 -1.8690 -0.1475  0.2565
  599MOL0     C78970   6.463  10.221   1.732 -0.4764 -0.6864  1.1047
  599MOL0     O78971   6.364  10.279   1.659 -0.8711 -0.7625 -0.4301
  599MOL0     C78972   6.338  10.222   1.525  0.3251  0.1029  0.1180
  599MOL0     C78973   6.254  10.327   1.446 -0.5012  0.1391  0.2870
  599MOL0     C78974   6.253  10.302   1.289 -0.5897  0.3518  0.0969
  599MOL0     C78975   6.207  10.431   1.219 -0.3660  0.5170 -0.2781
  599MOL0     C78976   6.184  10.425   1.069 -0.5456 -0.2501  0.5769
  599MOL0     C78977   6.102  10.297   1.024 -0.2160  0.0037 -0.7014
  599MOL0     C78978   6.144  10.272   0.879  0.5728 -0.1134 -0.2116
  599MOL0     C78979   6.082  10.147   0.813 -1.3344 -0.0758 -0.6896
  599MOL0    Cl78980   5.911  10.157   0.783  0.1720 -0.4786  0.0304
  599MOL0     C78981   6.512  10.285   1.847  0.5375  0.2350 -0.1846
  599MOL0     C78982   6.594  10.223   1.940  0.6173 -0.3709 -0.0482
  599MOL0     O78983   6.894  10.116   1.949  0.4544  0.1050 -0.7674
  599MOL0     C78984   6.843   9.897   2.247 -0.0799 -0.7390  1.1266
  599MOL0     C78985   6.918   9.842   2.348  0.0416 -0.2283  0.2372
  599MOL0     N78986   7.397   9.924   2.915 -0.3584 -0.3431 -0.7535
  599MOL0     N78987   7.428  10.014   3.006 -0.6892 -0.5750 -0.6376
  599MOL0     C78988   7.079  10.214   4.151  0.3109  0.2929 -0.2593
  599MOL0     C78989   7.182  10.198   4.240 -0.1033 -0.6317  0.2395
  599MOL0     C78990   7.558  10.040   4.429  0.2001  0.0428 -0.9880
  599MOL0     C78991   7.656  10.131   4.451 -0.4577 -0.1565 -0.3449
  599MOL0     C78992   7.769  10.114   4.521  0.1226  0.6462  0.0134
  599MOL0     C78993   7.792   9.992   4.582 -1.2233 -0.0308  0.1817
  599MOL0     O78994   7.912   9.992   4.652  0.4197  0.3761  0.5268
  599MOL0     C78995   7.928   9.884   4.740  0.7500  0.4556 -0.2446
  599MOL0     C78996   8.049   9.899   4.827 -0.4854 -0.0202  0.1592
  599MOL0     C78997   8.091   9.764   4.895 -0.2052  0.2905 -0.3376
  599MOL0     C78998   8.201   9.774   5.005  0.0921  0.5980 -0.2528
  599MOL0     C78999   8.324   9.832   4.955  0.1469 -0.0695 -1.2040
  599MOL0     C79000   8.425   9.896   4.920  0.1945 -0.4743  0.2527
  599MOL0     C79001   7.706   9.884   4.556  0.4974 -0.4842 -0.0904
  599MOL0     C79002   7.582   9.912   4.490  0.2568  0.0144  0.7988
  599MOL0     H79003   7.456  10.238   4.039  0.3930 -3.9352  0.8321
  599MOL0     H79004   7.270  10.308   3.881  1.0166 -2.0524 -0.4835
  599MOL0     H79005   7.110  10.160   3.790  1.4137  1.3942 -1.6930
  599MOL0     H79006   7.062  10.317   3.733 -0.0799 -0.4989  1.1265
  599MOL0     H79007   6.817  10.256   3.723 -1.0183  0.9390 -3.5045
  599MOL0     H79008   6.861  10.095   3.773  2.1911  0.0900  0.2107
  599MOL0     H79009   6.861  10.048   3.564  1.0842 -1.5852  2.6291
  599MOL0     H79010   7.033  10.078   3.582 -0.9826 -0.8782  0.7075
  599MOL0     H79011   6.826  10.234   3.425  0.5302  3.2286 -2.7703
  599MOL0     H79012   6.961  10.324   3.493  0.0113  0.2785  0.4455
  599MOL0     H79013   6.954  10.201   3.249  0.0882  1.3451  0.7321
  599MOL0     H79014   7.046  10.078   3.336  0.3346  0.2858  0.1507
  599MOL0     H79015   7.210  10.233   3.411 -0.6137  1.9442  1.7147
  599MOL0     H79016   7.126  10.374   3.342 -0.6810  0.7886 -2.2005
  599MOL0     H79017   7.142  10.225   3.118  0.1422 -1.9985  0.4061
  599MOL0     H79018   7.276  10.327   3.165 -0.1056 -1.1614 -0.5001
  599MOL0     H79019   7.261  10.056   3.273 -0.8277  1.1982  0.2425
  599MOL0     H79020   7.405  10.157   3.225 -1.1218  4.8891  0.2191
  599MOL0     H79021   7.107  10.020   3.020 -0.6408 -1.7223 -1.3562
  599MOL0     H79022   7.120   9.892   2.758  0.5778  1.5673  0.2766
  599MOL0     H79023   7.155   9.742   2.856 -2.0244 -2.0451 -5.1882
  599MOL0     H79024   7.380   9.741   2.749  1.0138  1.3793 -0.8797
  599MOL0     H79025   7.316   9.853   2.629 -2.7057  0.9344  0.2511
  599MOL0     H79026   7.304   9.664   2.522 -1.6244 -0.0361 -2.0265
  599MOL0     H79027   7.218   9.566   2.652 -1.2662 -0.0415  0.6556
  599MOL0     H79028   7.033   9.742   2.612 -2.9407  0.7117 -1.3854
  599MOL0     H79029   7.065   9.627   2.471  2.2103  1.4497 -2.9347
  599MOL0     H79030   7.209   9.994   2.294  0.3083 -0.0065  0.7479
  599MOL0     H79031   7.079  10.103   2.105 -1.9685  0.4813 -1.0722
  599MOL0     H79032   6.593   9.909   1.794  0.7944  0.0968  0.7775
  599MOL0     H79033   6.469  10.017   1.634  1.0208  1.8280 -2.7526
  599MOL0     H79034   6.282  10.130   1.545  4.5646 -3.3402 -2.1374
  599MOL0     H79035   6.424  10.180   1.472 -0.0980 -0.9307  0.2161
  599MOL0     H79036   6.314  10.419   1.452 -2.5494  1.4693  1.7710
  599MOL0     H79037   6.155  10.335   1.491 -0.4525  1.7817  0.1700
  599MOL0     H79038   6.186  10.218   1.267 -1.9573  1.4289  0.0734
  599MOL0     H79039   6.354  10.274   1.257 -1.6455  0.0232 -3.3382
  599MOL0     H79040   6.113  10.460   1.268  0.9283 -1.9809  4.2593
  599MOL0     H79041   6.284  10.503   1.248  1.8896  0.1438 -4.5836
  599MOL0     H79042   6.279  10.419   1.016 -1.5847 -2.7056 -1.2529
  599MOL0     H79043   6.119  10.506   1.034  0.3722  0.0382 -0.5209
  599MOL0     H79044   5.994  10.312   1.026 -0.2685 -0.4683  0.0156
  599MOL0     H79045   6.137  10.201   1.063  0.7132 -1.1941 -4.0902
  599MOL0     H79046   6.108  10.356   0.819 -0.4055  0.6892  1.4506
  599MOL0     H79047   6.252  10.256   0.863  0.2117  0.7677 -5.1730
  599MOL0     H79048   6.102  10.060   0.876 -0.2545  0.3048 -0.4793
  599MOL0     H79049   6.129  10.149   0.715  0.8027 -1.9100  0.2220
  599MOL0     H79050   6.487  10.389   1.866 -0.4488 -0.0184 -0.0554
  599MOL0     H79051   6.600  10.277   2.034 -2.8127  0.7416 -0.3479
  599MOL0     H79052   6.738   9.873   2.236 -1.0131  3.2730 -0.5682
  599MOL0     H79053   6.854   9.785   2.415 -0.6473  1.9681  1.5669
  599MOL0     H79054   6.983  10.192   4.196  1.1721 -2.1075  0.5837
  599MOL0     H79055   7.148  10.154   4.333  1.2402 -6.6083 -1.6833
  599MOL0     H79056   7.647  10.227   4.402 -1.7195  0.0081  0.1922
  599MOL0     H79057   7.850  10.185   4.514  2.4683 -1.8510  0.5406
  599MOL0     H79058   7.948   9.788   4.691 -1.0143  0.5026 -1.1321
  599MOL0     H79059   7.842   9.883   4.806 -0.1737  2.1152 -1.3494
  599MOL0     H79060   8.130   9.937   4.765 -2.0956  2.4410 -0.6203
  599MOL0     H79061   8.040   9.966   4.913  0.0076  1.8674 -1.1967
  599MOL0     H79062   8.133   9.699   4.817  1.8539  1.1440  0.0116
  599MOL0     H79063   8.000   9.714   4.929 -0.6066 -2.4802 -4.6643
  599MOL0     H79064   8.156   9.831   5.086 -0.7925  0.3100 -0.5366
  599MOL0     H79065   8.228   9.676   5.046 -1.2791  0.0363 -0.6284
  599MOL0     H79066   8.510   9.950   4.884  0.2601  0.6641  1.9903
  599MOL0     H79067   7.724   9.782   4.589 -1.1520 -0.4633  0.9971
  599MOL0     H79068   7.504   9.836   4.488  1.1297 -0.8917  0.7398
  600MOL0     O79069   0.801   1.218   9.410  0.8089 -0.0957  1.2402
  600MOL0     C79070   0.710   1.252   9.488  0.2765  0.4122 -0.0125
  600MOL0     O79071   0.666   1.177   9.593  0.6405 -0.8483  0.4011
  600MOL0     C79072   0.752   1.075   9.635  0.4092 -0.3580  1.0042
  600MOL0     C79073   0.892   1.081   9.666  1.0234 -0.5427 -0.8552
  600MOL0     C79074   0.968   0.973   9.728  0.5835 -0.2476 -0.2002
  600MOL0     C79075   0.895   0.852   9.760  0.8909 -0.2191  0.0107
  600MOL0     O79076   0.952   0.747   9.823 -0.1829  0.2556 -0.1276
  600MOL0     C79077   1.075   0.708   9.772 -0.1350 -0.2083  0.0981
  600MOL0     C79078   1.186   0.773   9.862 -0.4124 -0.3346  0.0772
  600MOL0     C79079   1.292   0.676   9.922 -0.4910  0.4252 -0.3192
  600MOL0     C79080   1.417   0.761   9.976 -0.8319  0.2822  0.5023
  600MOL0     C79081   1.505   0.683  10.078 -0.0932 -0.4669  0.3941
  600MOL0     C79082   1.598   0.574  10.020 -0.3259  0.3189 -1.0204
  600MOL0     C79083   1.710   0.545  10.124  0.1023 -0.2703  0.1202
  600MOL0     C79084   1.799   0.442  10.061 -0.3873 -0.0054  0.3305
  600MOL0     N79085   1.922   0.412  10.136  0.1776 -0.8857 -0.3497
  600MOL0     C79086   1.920   0.389  10.269  0.3735 -0.1751 -0.5972
  600MOL0     C79087   2.045   0.356  10.299 -1.1912  0.8991  0.7404
  600MOL0     C79088   2.091   0.308  10.437 -0.4503  0.1427  0.5152
  600MOL0     C79089   2.091   0.158  10.439  0.1506  0.3154  0.3333
  600MOL0     C79090   2.172   0.096  10.556  0.1497  0.0993  0.3797
  600MOL0     C79091   2.215  -0.047  10.533 -0.5661 -0.2778  0.6663
  600MOL0     O79092   2.299  -0.075  10.642  0.0141  0.1120 -0.5165
  600MOL0     C79093   2.358  -0.203  10.642 -0.3941  0.4120  0.9351
  600MOL0     C79094   2.321  -0.308  10.551 -0.6258 -0.8820 -0.2974
  600MOL0     C79095   2.386  -0.434  10.565 -0.3597  0.2283  1.0793
  600MOL0     C79096   2.470  -0.462  10.677 -0.5344  0.5716 -0.0217
  600MOL0     C79097   2.502  -0.603  10.699  0.6553  0.0097  0.1852
  600MOL0     O79098   2.589  -0.638  10.789  0.5109 -0.7821 -0.0045
  600MOL0     C79099   2.604  -0.773  10.820 -0.7111  0.0075 -0.1243
  600MOL0     C79100   2.726  -0.840  10.811 -1.3154  0.1850 -0.6805
  600MOL0     C79101   2.743  -0.972  10.850 -0.2505 -0.3641 -0.7359
  600MOL0     C79102   2.641  -1.053  10.901  0.2796 -0.9298 -0.1460
  600MOL0     O79103   2.661  -1.184  10.933  0.0784  0.3973  0.3045
  600MOL0     C79104   2.550  -1.269  10.888  0.5663  0.1389 -0.1250
  600MOL0     C79105   2.478  -1.330  11.013 -0.1638  0.5773  0.0075
  600MOL0     C79106   2.574  -1.427  11.101  0.5482 -0.1439 -0.2171
  600MOL0     C79107   2.629  -1.554  11.036 -0.7725  0.5484  0.2582
  600MOL0     C79108   2.738  -1.627  11.126  0.5489 -0.4841  0.0448
  600MOL0     C79109   2.797  -1.758  11.053  0.7433 -0.1174 -0.1510
  600MOL0     C79110   2.883  -1.716  10.926  0.0952  0.1430  0.5837
  600MOL0     C79111   2.956  -1.843  10.875  0.0893  0.1428 -0.7189
  600MOL0    Cl79112   3.084  -1.798  10.754  0.3349  0.1949 -0.3486
  600MOL0     C79113   2.519  -0.977  10.917  0.5613 -0.8576  0.6507
  600MOL0     C79114   2.496  -0.844  10.868 -0.5860  0.7949  0.8677
  600MOL0     O79115   2.430  -0.688  10.642 -0.3613 -0.0952  0.1427
  600MOL0     C79116   2.502  -0.354  10.762  0.4388  0.1380 -0.4797
  600MOL0     C79117   2.443  -0.228  10.753 -0.5060  0.3804  0.7794
  600MOL0     N79118   2.115   0.339  10.175 -0.1594 -0.4342 -0.2110
  600MOL0     N79119   2.040   0.389  10.078  0.1032 -0.1526 -0.1364
  600MOL0     C79120   0.757   0.854   9.731 -0.5571  0.9899 -1.0884
  600MOL0     C79121   0.688   0.958   9.670  0.6807  0.6212  0.2013
  600MOL0     C79122   0.623   1.364   9.456 -1.1198 -0.8318 -0.1779
  600MOL0     C79123   0.647   1.454   9.343 -0.2270  0.6151 -0.1064
  600MOL0     C79124   0.553   1.545   9.310 -0.0419  0.5323  0.0777
  600MOL0     C79125   0.433   1.563   9.377 -0.7040 -0.3299  0.2406
  600MOL0     O79126   0.349   1.667   9.332 -0.5777  0.1101  0.2382
  600MOL0     C79127   0.227   1.694   9.407  0.1980 -0.1232  0.4441
  600MOL0     C79128   0.173   1.834   9.385 -0.1782 -0.2115  0.1890
  600MOL0     C79129   0.181   1.881   9.239  0.0395 -0.1944  0.4207
  600MOL0     C79130   0.098   2.015   9.228  0.9735  0.0741  1.2168
  600MOL0     C79131   0.115   2.061   9.088  0.1373 -0.2407  0.5503
  600MOL0     C79132   0.139   2.094   8.972 -0.2937  0.9119 -0.6775
  600MOL0     C79133   0.418   1.481   9.504 -0.5631 -0.3201 -0.3679
  600MOL0     C79134   0.506   1.378   9.531  0.2552 -0.6721  0.6848
  600MOL0     H79135   0.937   1.180   9.660  0.5489 -0.0390  2.1832
  600MOL0     H79136   1.071   0.993   9.754  0.0895  0.0577  1.6691
  600MOL0     H79137   1.079   0.736   9.666 -0.9026  2.2805  0.6504
  600MOL0     H79138   1.085   0.600   9.779  0.6654 -0.2134 -0.9189
  600MOL0     H79139   1.137   0.831   9.941 -1.5471 -0.7205 -0.3301
  600MOL0     H79140   1.240   0.842   9.797  1.0098  0.4736  2.0281
  600MOL0     H79141   1.321   0.623   9.831  0.1364  0.8808 -0.3844
  600MOL0     H79142   1.257   0.599   9.992 -2.6666  2.8319  1.4292
  600MOL0     H79143   1.477   0.792   9.890  1.1438  0.8532  2.0252
  600MOL0     H79144   1.381   0.845  10.036  0.3698  0.4748  0.9678
  600MOL0     H79145   1.449   0.650  10.166 -2.3093 -1.2450 -1.2151
  600MOL0     H79146   1.570   0.755  10.129 -0.9390  0.1382  0.6353
  600MOL0     H79147   1.645   0.596   9.924  0.5018  3.5411  0.0028
  600MOL0     H79148   1.540   0.482  10.032 -1.0179  0.5723 -2.3536
  600MOL0     H79149   1.752   0.643  10.151 -2.1651  0.8681 -0.2125
  600MOL0     H79150   1.659   0.492  10.205  0.1720 -0.1975  0.2120
  600MOL0     H79151   1.826   0.462   9.957 -1.3872 -0.0074  0.0601
  600MOL0     H79152   1.752   0.343  10.055  0.8808 -0.6638  0.9471
  600MOL0     H79153   1.840   0.413  10.337 -0.9177  1.2187 -2.5038
  600MOL0     H79154   2.036   0.351  10.521  1.6716  0.4246  1.8362
  600MOL0     H79155   2.195   0.343  10.445 -0.4605  1.4713 -3.2186
  600MOL0     H79156   2.130   0.122  10.343  0.3497 -0.9321  0.8535
  600MOL0     H79157   1.991   0.116  10.449  0.1331 -0.1576 -1.5021
  600MOL0     H79158   2.265   0.149  10.582  0.8565 -0.8962 -0.0357
  600MOL0     H79159   2.107   0.079  10.642 -1.7350 -2.5010 -1.4026
  600MOL0     H79160   2.263  -0.063  10.436 -1.9823  1.0710 -0.2972
  600MOL0     H79161   2.127  -0.109  10.549 -0.6129  0.5769  4.7595
  600MOL0     H79162   2.243  -0.284  10.480  0.4901 -0.3392 -1.3704
  600MOL0     H79163   2.364  -0.513  10.494 -0.0276  0.0524  1.1675
  600MOL0     H79164   2.816  -0.800  10.766  0.4724 -4.5283 -1.8372
  600MOL0     H79165   2.843  -1.014  10.850 -0.0877 -0.2922  2.4710
  600MOL0     H79166   2.597  -1.339  10.818 -0.5331  0.1796 -0.9360
  600MOL0     H79167   2.482  -1.216  10.821  1.5219 -0.1777 -1.3895
  600MOL0     H79168   2.395  -1.390  10.973  1.6786 -1.1004 -1.5441
  600MOL0     H79169   2.430  -1.251  11.071  0.2446  0.0595  1.0815
  600MOL0     H79170   2.520  -1.465  11.188  2.3516 -3.5462 -0.4463
  600MOL0     H79171   2.659  -1.366  11.133 -0.0247 -0.3272  1.7600
  600MOL0     H79172   2.552  -1.629  11.019  1.8448 -1.4115 -5.4477
  600MOL0     H79173   2.665  -1.526  10.937  0.8290  0.5890  0.8115
  600MOL0     H79174   2.688  -1.663  11.216  1.5303 -0.3112  0.6752
  600MOL0     H79175   2.817  -1.558  11.157 -1.5666  1.2036  2.0288
  600MOL0     H79176   2.726  -1.840  11.041  0.3813  0.5787 -4.1950
  600MOL0     H79177   2.868  -1.812  11.117 -0.0261 -1.7080 -0.6046
  600MOL0     H79178   2.801  -1.699  10.855 -3.2729 -3.3755  3.2433
  600MOL0     H79179   2.960  -1.642  10.951  2.4814 -0.9916 -2.6634
  600MOL0     H79180   2.884  -1.916  10.837 -2.3495  1.7219  0.5796
  600MOL0     H79181   3.001  -1.889  10.963 -1.2767 -1.8187 -0.9902
  600MOL0     H79182   2.436  -1.011  10.979  1.2785  0.5367  2.4869
  600MOL0     H79183   2.395  -0.805  10.873 -1.6094 -1.7889  2.4275
  600MOL0     H79184   2.576  -0.365  10.841 -0.7558  2.2147  1.0278
  600MOL0     H79185   2.459  -0.141  10.816  2.1702  2.2913 -2.2861
  600MOL0     H79186   0.707   0.764   9.762  1.6473 -1.1174 -3.1932
  600MOL0     H79187   0.583   0.950   9.644 -0.1357 -1.3261  3.4657
  600MOL0     H79188   0.732   1.436   9.279  1.4252 -2.4303  2.5982
  600MOL0     H79189   0.570   1.600   9.217 -2.5796 -2.0847 -2.1359
  600MOL0     H79190   0.246   1.660   9.509  1.0228 -2.9429 -0.5593
  600MOL0     H79191   0.156   1.618   9.373 -0.5740  1.0883 -0.7880
  600MOL0     H79192   0.076   1.846   9.434 -0.8824 -2.3886 -0.5576
  600MOL0     H79193   0.237   1.903   9.440  1.3095 -1.8124  0.5385
  600MOL0     H79194   0.133   1.800   9.184 -2.2170 -0.6799  2.8796
  600MOL0     H79195   0.287   1.895   9.217  0.2448  2.0711  2.4038
  600MOL0     H79196  -0.006   1.983   9.242  0.2116  2.0883  0.5890
  600MOL0     H79197   0.106   2.102   9.294  1.8979  0.0124  1.1943
  600MOL0     H79198   0.157   2.123   8.870  0.7651 -0.6577 -0.9647
  600MOL0     H79199   0.318   1.483   9.548 -1.8474  4.2158 -2.7750
  600MOL0     H79200   0.478   1.305   9.607  2.0441 -3.5314 -1.2060
  601MOL0     O79201   9.254   0.512   6.284  0.1942  0.5960 -0.1592
  601MOL0     C79202   9.145   0.564   6.282  0.3816  0.7294  0.1729
  601MOL0     O79203   9.086   0.636   6.385 -0.1770  1.1047 -0.1354
  601MOL0     C79204   9.155   0.651   6.509 -0.3517 -0.3943 -0.3099
  601MOL0     C79205   9.079   0.596   6.615  0.1818 -0.3438  0.3530
  601MOL0     C79206   9.121   0.603   6.749  0.6803 -0.0431 -0.1201
  601MOL0     C79207   9.249   0.658   6.774  0.8322 -0.4233  0.4181
  601MOL0     O79208   9.301   0.671   6.900 -0.1319  0.2627 -0.9201
  601MOL0     C79209   9.297   0.550   6.986  1.0915 -0.5847  0.2662
  601MOL0     C79210   9.255   0.609   7.119 -0.2683  0.4874  0.7724
  601MOL0     C79211   9.116   0.670   7.128  0.1347 -0.1778 -0.8373
  601MOL0     C79212   9.078   0.695   7.274  0.2673  0.0819 -0.5249
  601MOL0     C79213   8.948   0.769   7.277 -0.9475 -0.3417  0.7486
  601MOL0     C79214   8.904   0.818   7.412  1.1435  1.0995  0.6002
  601MOL0     C79215   8.746   0.861   7.405  0.7129 -0.2183  0.4609
  601MOL0     C79216   8.640   0.776   7.339 -0.9016 -0.0507 -0.1139
  601MOL0     N79217   8.633   0.790   7.191 -0.2954  0.2232 -0.3788
  601MOL0     C79218   8.697   0.878   7.104 -0.4637 -0.1503  0.2192
  601MOL0     C79219   8.623   0.884   6.994  0.8465  0.5123 -0.3530
  601MOL0     C79220   8.652   0.976   6.872 -0.1083 -0.1084  0.4671
  601MOL0     C79221   8.535   1.034   6.805  0.2538 -0.0375 -0.8102
  601MOL0     C79222   8.541   1.188   6.797  0.2258 -0.2547  0.8753
  601MOL0     C79223   8.574   1.250   6.931  0.7953 -0.3027 -0.5445
  601MOL0     O79224   8.706   1.305   6.926 -0.0197  0.2613 -0.5408
  601MOL0     C79225   8.792   1.276   7.033 -0.1537  0.3615 -0.6830
  601MOL0     C79226   8.753   1.296   7.165 -0.5067  0.5233 -0.5425
  601MOL0     C79227   8.847   1.299   7.267  0.1774  0.7045 -0.2764
  601MOL0     C79228   8.986   1.279   7.245  0.3935  0.6807  0.1430
  601MOL0     C79229   9.080   1.264   7.358  0.2298  0.1859 -0.1744
  601MOL0     O79230   9.216   1.255   7.330 -0.5470 -0.3180  0.3078
  601MOL0     C79231   9.310   1.208   7.416  0.0799  0.2069 -1.2798
  601MOL0     C79232   9.284   1.102   7.513  0.4786  0.4340  0.6273
  601MOL0     C79233   9.387   1.048   7.589  1.1130  0.0411 -0.3199
  601MOL0     C79234   9.517   1.087   7.558 -0.4714  0.7057 -0.6965
  601MOL0     O79235   9.624   1.040   7.632 -0.4951 -0.5820  0.1425
  601MOL0     C79236   9.650   1.121   7.748  0.2692 -0.3775 -0.9218
  601MOL0     C79237   9.797   1.104   7.776  0.2156 -0.1480 -0.8877
  601MOL0     C79238   9.822   1.149   7.921 -0.7414  0.4046  0.4055
  601MOL0     C79239   9.971   1.145   7.973  0.5142 -0.4180  0.4931
  601MOL0     C79240   9.978   1.248   8.084  0.0340 -0.0768  0.3980
  601MOL0     C79241  10.122   1.289   8.114 -0.1408  0.5854  0.6815
  601MOL0     C79242  10.121   1.402   8.215  0.6822 -0.1693 -0.4276
  601MOL0     C79243  10.073   1.536   8.151  0.8647 -0.5106 -1.4601
  601MOL0    Cl79244  10.170   1.580   8.021  0.2677 -0.0025 -0.1426
  601MOL0     C79245   9.539   1.191   7.464 -0.4629 -0.1367  1.1285
  601MOL0     C79246   9.435   1.253   7.391 -0.4155  0.9129 -0.2919
  601MOL0     O79247   9.037   1.260   7.470  0.0900 -0.2519  0.1879
  601MOL0     C79248   9.025   1.255   7.118 -0.5334  0.6506 -0.3818
  601MOL0     C79249   8.933   1.255   7.011  0.2183 -0.7380 -0.1482
  601MOL0     N79250   8.518   0.795   7.003  0.9398 -0.2935  0.5784
  601MOL0     N79251   8.521   0.744   7.123 -0.7301  0.0428  0.5843
  601MOL0     C79252   9.323   0.713   6.670  0.2170  0.2007 -0.3417
  601MOL0     C79253   9.288   0.698   6.536  0.1717 -0.6258  0.7910
  601MOL0     C79254   9.084   0.576   6.145  0.1255  0.3902 -0.0532
  601MOL0     C79255   9.137   0.495   6.043 -0.1290  0.3491  0.4260
  601MOL0     C79256   9.068   0.488   5.925  0.0533  0.1127  0.7222
  601MOL0     C79257   8.967   0.571   5.888 -0.8395 -0.0035 -0.9047
  601MOL0     O79258   8.919   0.562   5.771 -0.3804  0.1291  0.8658
  601MOL0     C79259   8.801   0.474   5.769 -0.3728  0.7340  0.5131
  601MOL0     C79260   8.684   0.520   5.684 -0.9745  0.6167  0.6982
  601MOL0     C79261   8.569   0.406   5.665  0.6662 -1.1750 -0.5961
  601MOL0     C79262   8.437   0.460   5.599  0.3961  0.4601  0.2195
  601MOL0     C79263   8.474   0.501   5.457 -0.2486 -0.5188  0.3793
  601MOL0     C79264   8.506   0.571   5.356 -0.3951  0.5882  0.3126
  601MOL0     C79265   8.913   0.648   5.984 -0.7013 -0.3295 -0.6126
  601MOL0     C79266   8.963   0.647   6.112 -0.6951 -0.0441 -0.4659
  601MOL0     H79267   8.991   0.535   6.595 -0.1314  0.1455  0.2075
  601MOL0     H79268   9.051   0.581   6.829 -2.4866  2.6702 -1.8800
  601MOL0     H79269   9.400   0.515   7.001  1.1884  0.5354  2.6530
  601MOL0     H79270   9.227   0.476   6.947 -0.1791  1.3086 -1.2280
  601MOL0     H79271   9.324   0.687   7.152  3.3133 -2.6240  1.4187
  601MOL0     H79272   9.269   0.527   7.191  3.0647 -1.8893 -2.2276
  601MOL0     H79273   9.043   0.600   7.086  0.0099 -1.8222  1.8777
  601MOL0     H79274   9.121   0.762   7.070 -0.9154 -0.7880 -1.9424
  601MOL0     H79275   9.068   0.600   7.328 -2.1930  1.1229  1.0407
  601MOL0     H79276   9.152   0.750   7.334 -0.9208  0.6056  0.5035
  601MOL0     H79277   8.870   0.706   7.233 -1.4051 -2.2603  4.0284
  601MOL0     H79278   8.972   0.865   7.229  0.1107 -0.7149  0.4974
  601MOL0     H79279   8.964   0.900   7.450  2.2320  0.0373  1.2455
  601MOL0     H79280   8.914   0.734   7.482 -0.2935  2.1107  2.0852
  601MOL0     H79281   8.722   0.860   7.512  1.2381  0.8478  0.6029
  601MOL0     H79282   8.743   0.967   7.379  1.0626 -0.0955  0.8925
  601MOL0     H79283   8.539   0.798   7.374 -2.0896 -1.6501 -2.2704
  601MOL0     H79284   8.667   0.677   7.374 -0.8068  0.6097  1.7758
  601MOL0     H79285   8.792   0.929   7.110 -0.3267 -0.2832 -0.6712
  601MOL0     H79286   8.712   0.928   6.794 -2.3941  0.7640 -1.9684
  601MOL0     H79287   8.725   1.050   6.907  0.7668 -0.7085 -0.0495
  601MOL0     H79288   8.439   1.005   6.848  1.3286 -3.6891 -0.5715
  601MOL0     H79289   8.535   0.983   6.708  1.1777 -0.2566 -0.7004
  601MOL0     H79290   8.607   1.224   6.717  0.4440 -2.4130  0.0335
  601MOL0     H79291   8.441   1.219   6.765  0.4208 -1.5342 -1.1402
  601MOL0     H79292   8.575   1.173   7.008 -2.0946  1.4875  1.4972
  601MOL0     H79293   8.500   1.327   6.956  2.4486  0.5431  2.1066
  601MOL0     H79294   8.647   1.316   7.176 -1.4492 -2.7418 -2.3701
  601MOL0     H79295   8.800   1.320   7.362  0.8357  1.5890 -0.1280
  601MOL0     H79296   9.183   1.067   7.530  1.0334 -0.0662  3.5853
  601MOL0     H79297   9.383   0.971   7.665 -0.4051  1.2616  0.9276
  601MOL0     H79298   9.595   1.080   7.832 -0.1303 -2.2722 -2.0599
  601MOL0     H79299   9.625   1.226   7.727  0.1141  0.6128  3.2520
  601MOL0     H79300   9.867   1.162   7.716  2.1325 -0.2391  1.1252
  601MOL0     H79301   9.824   0.999   7.762 -1.9944 -0.8162 -0.6065
  601MOL0     H79302   9.770   1.081   7.989  2.2801 -1.8593  0.6749
  601MOL0     H79303   9.792   1.253   7.937  0.2176  0.7795 -0.1242
  601MOL0     H79304   9.988   1.044   8.011 -2.1797 -1.6199 -1.1537
  601MOL0     H79305  10.045   1.167   7.896 -1.4238  1.2994 -0.9877
  601MOL0     H79306   9.921   1.227   8.175 -3.1648  1.5012 -1.1047
  601MOL0     H79307   9.935   1.342   8.050 -0.7379 -0.6290 -0.1824
  601MOL0     H79308  10.168   1.322   8.021  1.0649  0.1249  1.0945
  601MOL0     H79309  10.181   1.210   8.162 -2.2487 -1.2752  0.4239
  601MOL0     H79310  10.054   1.385   8.299 -0.6656 -1.1455 -1.6641
  601MOL0     H79311  10.226   1.416   8.244  1.3249  2.2998 -3.4247
  601MOL0     H79312  10.060   1.622   8.217  0.6518 -1.9244  0.4199
  601MOL0     H79313   9.969   1.531   8.119 -0.3965 -0.8657  2.2335
  601MOL0     H79314   9.637   1.225   7.435 -0.3981 -2.3457 -1.6265
  601MOL0     H79315   9.469   1.333   7.325 -0.1233  2.7276  1.9507
  601MOL0     H79316   9.130   1.239   7.093 -0.4825 -1.1946  0.7809
  601MOL0     H79317   8.960   1.246   6.907  0.8036  1.4723 -0.2351
  601MOL0     H79318   9.427   0.735   6.692  0.2592 -0.0291 -0.3065
  601MOL0     H79319   9.343   0.714   6.445 -0.3478  1.1025  0.7490
  601MOL0     H79320   9.233   0.444   6.042 -0.2517  0.1272 -0.3841
  601MOL0     H79321   9.116   0.434   5.843  0.8372 -0.4411  1.5218
  601MOL0     H79322   8.766   0.442   5.868 -0.2141  1.1693  0.7099
  601MOL0     H79323   8.834   0.393   5.703 -2.0983 -1.7341  2.4693
  601MOL0     H79324   8.640   0.608   5.732 -3.3128 -0.4331  0.6707
  601MOL0     H79325   8.726   0.546   5.587 -1.3478  1.9287  0.8723
  601MOL0     H79326   8.540   0.376   5.766 -1.6973  1.3612 -0.3864
  601MOL0     H79327   8.604   0.317   5.611  2.1977 -0.2692 -1.1814
  601MOL0     H79328   8.356   0.388   5.586 -1.2185  2.6251 -2.9957
  601MOL0     H79329   8.389   0.533   5.664 -2.2678 -1.6312  0.7945
  601MOL0     H79330   8.528   0.643   5.279 -0.0373  0.7147  0.5313
  601MOL0     H79331   8.832   0.718   5.966 -0.4226  0.5538  1.2949
  601MOL0     H79332   8.918   0.709   6.188  0.7310  2.9725 -1.8950
  602MOL0     O79333  11.110   0.501   9.251  0.7804  0.2572  1.0596
  602MOL0     C79334  11.017   0.485   9.326 -0.0147  0.0135  0.0021
  602MOL0     O79335  10.890   0.537   9.312  0.1978  0.0747  0.4470
  602MOL0     C79336  10.855   0.601   9.204 -0.3495  0.5792  0.2705
  602MOL0     C79337  10.935   0.688   9.117 -0.4901 -0.2191 -0.1407
  602MOL0     C79338  10.879   0.771   9.016 -0.5731  0.4758 -0.2106
  602MOL0     C79339  10.742   0.762   8.987  0.0726 -0.0726  0.0397
  602MOL0     O79340  10.703   0.839   8.877  0.1373  0.1419 -0.2051
  602MOL0     C79341  10.580   0.803   8.822  0.7358 -0.1269 -0.2996
  602MOL0     C79342  10.467   0.875   8.876  0.1648 -0.1956  0.4451
  602MOL0     C79343  10.489   1.023   8.872  0.5856 -0.8145 -0.1919
  602MOL0     C79344  10.370   1.086   8.945 -0.3535 -0.1070  0.0499
  602MOL0     C79345  10.395   1.239   8.958 -1.0344 -0.2725  0.9750
  602MOL0     C79346  10.279   1.292   9.049  0.8696  0.3986  0.9696
  602MOL0     C79347  10.317   1.419   9.125  0.9324  0.3691  0.9603
  602MOL0     C79348  10.316   1.539   9.025 -1.3524  0.0158  0.0319
  602MOL0     N79349  10.380   1.661   9.073 -0.5555 -0.3672 -0.1902
  602MOL0     C79350  10.314   1.766   9.126 -0.4901  0.0758  0.1764
  602MOL0     C79351  10.416   1.852   9.162  0.3881  0.1538 -0.1444
  602MOL0     C79352  10.390   1.986   9.230 -0.5794  0.3558  1.2512
  602MOL0     C79353  10.344   1.949   9.373  0.1336 -0.5345  0.8923
  602MOL0     C79354  10.460   1.893   9.464 -0.2403 -0.3086 -0.2936
  602MOL0     C79355  10.484   1.740   9.462  0.2300  0.1742  0.7498
  602MOL0     O79356  10.357   1.680   9.449  0.5558 -0.4606 -0.0447
  602MOL0     C79357  10.366   1.544   9.465  0.7757  0.0892  0.2646
  602MOL0     C79358  10.238   1.487   9.502 -0.1381 -0.2798 -0.3858
  602MOL0     C79359  10.229   1.351   9.506 -0.2063  0.2348  1.3709
  602MOL0     C79360  10.330   1.261   9.472  0.1596 -0.0086  0.4819
  602MOL0     C79361  10.306   1.108   9.451 -0.1930  0.1199  0.1927
  602MOL0     O79362  10.409   1.044   9.395 -0.8666  0.7312  0.2027
  602MOL0     C79363  10.396   0.907   9.398  0.0214  0.3695 -1.3180
  602MOL0     C79364  10.443   0.839   9.515  0.8932  0.7587 -0.1290
  602MOL0     C79365  10.427   0.697   9.523 -0.8341 -0.4090  0.3962
  602MOL0     C79366  10.385   0.622   9.413 -0.1812 -0.4707 -0.3056
  602MOL0     O79367  10.378   0.483   9.406 -0.1508 -0.4229 -0.8210
  602MOL0     C79368  10.353   0.406   9.521  0.5460 -0.0441  0.0478
  602MOL0     C79369  10.344   0.258   9.494 -0.5933 -0.0079  0.3048
  602MOL0     C79370  10.279   0.175   9.605 -0.6989  0.3389  0.0904
  602MOL0     C79371  10.348   0.187   9.736  0.4132  0.8490 -0.4603
  602MOL0     C79372  10.261   0.106   9.846  0.5297 -0.7009  0.5320
  602MOL0     C79373  10.304  -0.046   9.840  1.6565  0.4867 -0.9758
  602MOL0     C79374  10.227  -0.134   9.940 -0.9394  0.2831  0.7229
  602MOL0     C79375  10.270  -0.096  10.087 -0.5035 -0.4035 -0.1792
  602MOL0    Cl79376  10.218  -0.212  10.206 -0.4085  0.2663  0.1370
  602MOL0     C79377  10.329   0.692   9.303 -0.4794 -0.2406  0.2379
  602MOL0     C79378  10.350   0.826   9.293  0.2577 -0.5414 -0.3603
  602MOL0     O79379  10.216   1.056   9.514  0.1732 -0.4077 -0.0973
  602MOL0     C79380  10.463   1.319   9.455  0.0859 -0.0044  0.0939
  602MOL0     C79381  10.476   1.457   9.450  0.9488  0.2020 -0.1859
  602MOL0     N79382  10.534   1.802   9.126 -0.0005  0.5969 -0.5741
  602MOL0     N79383  10.511   1.687   9.076 -0.7411  0.3192 -0.6292
  602MOL0     C79384  10.665   0.672   9.066  0.9954 -0.7893 -0.0405
  602MOL0     C79385  10.722   0.602   9.168 -0.2995 -0.0422 -0.3398
  602MOL0     C79386  11.040   0.432   9.462  0.4112  0.1063  0.3974
  602MOL0     C79387  10.968   0.464   9.574 -0.2354 -0.8859 -0.7401
  602MOL0     C79388  11.000   0.398   9.697  0.3506  1.1122  0.9966
  602MOL0     C79389  11.103   0.306   9.706  0.5989 -0.0635  0.3824
  602MOL0     O79390  11.115   0.246   9.825 -0.4453  0.4543 -0.2515
  602MOL0     C79391  11.156   0.316   9.940  0.8230  0.1614  0.1837
  602MOL0     C79392  11.303   0.282   9.954 -0.3418 -0.5107  0.0348
  602MOL0     C79393  11.327   0.136   9.966  0.8351 -0.4618  0.1174
  602MOL0     C79394  11.470   0.122   9.999 -0.6090  0.1813 -0.5316
  602MOL0     C79395  11.521  -0.012   9.996 -0.4711 -0.6511  0.3166
  602MOL0     C79396  11.576  -0.121  10.000  0.1814  0.0505  0.8612
  602MOL0     C79397  11.183   0.282   9.593 -0.1450  0.3153  0.0560
  602MOL0     C79398  11.150   0.342   9.475 -1.0270 -0.2400  0.8383
  602MOL0     H79399  11.041   0.704   9.134 -1.0271  3.7044  0.2369
  602MOL0     H79400  10.925   0.853   8.963  0.6741 -0.7874 -1.1638
  602MOL0     H79401  10.574   0.694   8.809 -2.9108 -0.1898  0.7931
  602MOL0     H79402  10.583   0.821   8.714  2.5657  1.1921 -0.0822
  602MOL0     H79403  10.452   0.843   8.980  1.7601  1.6132  1.3043
  602MOL0     H79404  10.384   0.839   8.815  0.2561 -1.5130  1.0531
  602MOL0     H79405  10.485   1.058   8.769 -0.0462  1.4429  0.5388
  602MOL0     H79406  10.582   1.052   8.923 -0.1951  0.2655  0.6565
  602MOL0     H79407  10.277   1.057   8.896 -0.4347 -3.2252  1.7974
  602MOL0     H79408  10.357   1.041   9.044  2.8166 -0.9763  0.1757
  602MOL0     H79409  10.395   1.285   8.859  0.8198 -1.5684  0.3051
  602MOL0     H79410  10.491   1.266   9.004 -0.2167  0.2843 -0.9311
  602MOL0     H79411  10.229   1.215   9.109 -0.2621  0.2403 -0.1260
  602MOL0     H79412  10.205   1.323   8.974  2.6462 -0.6945 -1.3872
  602MOL0     H79413  10.237   1.429   9.199 -0.6794  1.2525 -0.8032
  602MOL0     H79414  10.414   1.405   9.172  0.3385 -1.8112  1.6595
  602MOL0     H79415  10.214   1.557   8.988 -0.9404  1.8691 -0.2848
  602MOL0     H79416  10.380   1.510   8.942  2.5256  5.4730  0.6094
  602MOL0     H79417  10.207   1.773   9.137 -0.5858 -1.5624  0.5851
  602MOL0     H79418  10.304   2.031   9.181 -0.2881  1.1215  1.4292
  602MOL0     H79419  10.477   2.053   9.228 -1.0299  0.9353 -0.5926
  602MOL0     H79420  10.254   1.887   9.376 -1.0659  1.1317  2.5737
  602MOL0     H79421  10.327   2.045   9.423  0.5231 -0.3500  0.6762
  602MOL0     H79422  10.552   1.945   9.434  0.6894 -0.9719  1.3068
  602MOL0     H79423  10.435   1.911   9.568 -2.0898 -1.4485 -0.4992
  602MOL0     H79424  10.538   1.709   9.552 -2.8474 -1.9279  2.0654
  602MOL0     H79425  10.544   1.698   9.381 -1.5327 -1.5274  0.2373
  602MOL0     H79426  10.146   1.542   9.518 -1.0181 -2.5770  3.8336
  602MOL0     H79427  10.131   1.305   9.514 -0.6973  0.1275 -3.0764
  602MOL0     H79428  10.470   0.884   9.610 -1.0546 -0.7962  1.2635
  602MOL0     H79429  10.462   0.645   9.612  0.7064 -0.0863  0.0003
  602MOL0     H79430  10.258   0.432   9.570  0.1606 -0.9326 -0.2044
  602MOL0     H79431  10.429   0.419   9.599 -2.1473  0.3317  2.7990
  602MOL0     H79432  10.444   0.218   9.477 -0.0258 -0.7780  4.4930
  602MOL0     H79433  10.272   0.246   9.412  0.6051  1.2126 -0.9752
  602MOL0     H79434  10.273   0.072   9.568  4.1707  0.7432 -2.7253
  602MOL0     H79435  10.173   0.199   9.618 -0.9468 -1.7564  2.9506
  602MOL0     H79436  10.448   0.145   9.728 -0.6255 -2.0150  0.2794
  602MOL0     H79437  10.342   0.291   9.771 -1.0594  1.1036 -1.3602
  602MOL0     H79438  10.153   0.118   9.833  0.3123 -1.9815  1.0432
  602MOL0     H79439  10.297   0.145   9.942 -1.7924  2.1089  0.3969
  602MOL0     H79440  10.413  -0.057   9.842  1.6028 -0.1332 -1.2108
  602MOL0     H79441  10.277  -0.076   9.738  1.9500 -0.6120 -0.7433
  602MOL0     H79442  10.120  -0.128   9.923 -0.7361  2.5716 -0.0708
  602MOL0     H79443  10.262  -0.237   9.926  0.6750  1.2510 -4.3870
  602MOL0     H79444  10.234   0.001  10.122 -3.3443 -1.4430 -0.0360
  602MOL0     H79445  10.380  -0.091  10.089 -0.5243  3.0611 -0.2744
  602MOL0     H79446  10.300   0.627   9.222  1.2434 -0.9400  0.1439
  602MOL0     H79447  10.321   0.861   9.194  0.1919 -0.1219 -0.1919
  602MOL0     H79448  10.550   1.254   9.446 -1.3669 -2.1734  1.0630
  602MOL0     H79449  10.573   1.491   9.416  1.4631 -1.0425 -0.0118
  602MOL0     H79450  10.568   0.635   9.033  0.9320  0.1471 -0.9694
  602MOL0     H79451  10.654   0.544   9.230  1.2554  0.8270  2.3594
  602MOL0     H79452  10.891   0.537   9.551  0.8506  1.9526  3.5033
  602MOL0     H79453  10.921   0.413   9.771 -0.7666  0.5165 -0.0316
  602MOL0     H79454  11.112   0.274  10.032  2.6830 -1.8504  0.2199
  602MOL0     H79455  11.143   0.424   9.928 -0.6142 -0.2640 -3.2525
  602MOL0     H79456  11.358   0.327   9.871 -2.1600  0.6918 -0.5747
  602MOL0     H79457  11.333   0.324  10.050 -0.1708 -2.2577  0.7833
  602MOL0     H79458  11.299   0.086   9.873  1.2711  0.8902 -0.7684
  602MOL0     H79459  11.261   0.092  10.041 -2.2678  1.9201 -0.9880
  602MOL0     H79460  11.535   0.180   9.933  1.0770  0.1760  1.0405
  602MOL0     H79461  11.496   0.169  10.094  2.3903  0.1402 -1.2505
  602MOL0     H79462  11.610  -0.222  10.007 -1.5824 -0.6469 -0.0182
  602MOL0     H79463  11.266   0.212   9.599 -0.9758 -0.6516  0.6428
  602MOL0     H79464  11.196   0.289   9.393 -2.5523  0.8756 -0.8086
  603MOL0     O79465   8.414   3.737  10.131  0.5266 -0.4399  0.4132
  603MOL0     C79466   8.390   3.818  10.227  0.5410 -0.1166  0.6370
  603MOL0     O79467   8.461   3.926  10.258  0.2015 -0.4163  0.2277
  603MOL0     C79468   8.582   3.957  10.201  0.1858 -0.0577 -0.5146
  603MOL0     C79469   8.669   3.861  10.144 -0.7357 -0.4875 -0.6126
  603MOL0     C79470   8.796   3.903  10.088 -0.4583 -0.1184 -0.4738
  603MOL0     C79471   8.843   4.032  10.101 -0.5515  1.3184 -0.1567
  603MOL0     O79472   8.979   4.052  10.062  0.1373 -0.1582  0.4917
  603MOL0     C79473   8.997   4.190  10.018 -0.2215  0.5268  0.8549
  603MOL0     C79474   9.139   4.208   9.956  0.1400  0.2449 -0.0043
  603MOL0     C79475   9.156   4.338   9.875  0.1295 -0.4638 -0.2738
  603MOL0     C79476   9.288   4.347   9.804  0.7230 -0.4575 -0.0534
  603MOL0     C79477   9.301   4.462   9.694  0.2572 -0.2307 -1.2850
  603MOL0     C79478   9.443   4.500   9.665  0.8067  0.2201  0.1426
  603MOL0     C79479   9.452   4.637   9.603 -0.3591 -0.0367  0.3979
  603MOL0     C79480   9.584   4.714   9.597  0.3480  0.5809  0.8421
  603MOL0     N79481   9.696   4.648   9.528 -0.8531 -1.0929 -0.5392
  603MOL0     C79482   9.795   4.586   9.590 -0.3769  0.0523  0.1673
  603MOL0     C79483   9.879   4.541   9.485 -0.3604 -0.0289  0.9028
  603MOL0     C79484  10.014   4.470   9.498  0.4775  0.4411  0.4331
  603MOL0     C79485  10.022   4.383   9.625  0.1240 -0.7968  0.2584
  603MOL0     C79486   9.931   4.261   9.631 -0.4142 -0.2463 -0.1738
  603MOL0     C79487   9.829   4.262   9.745 -1.0335 -0.3994 -0.7485
  603MOL0     O79488   9.881   4.244   9.880 -0.0582 -0.3472 -0.0982
  603MOL0     C79489   9.792   4.202   9.978  0.0667 -0.5554  0.8876
  603MOL0     C79490   9.667   4.265  10.001 -0.2648 -0.3627 -0.3280
  603MOL0     C79491   9.582   4.225  10.102 -0.5044  0.3419  1.0698
  603MOL0     C79492   9.619   4.116  10.188  1.1945 -0.4030  0.7922
  603MOL0     C79493   9.514   4.063  10.279  0.7089  0.0988  0.3549
  603MOL0     O79494   9.401   4.142  10.286 -0.4898 -0.0296  0.0532
  603MOL0     C79495   9.311   4.116  10.386  1.0698  1.0839  0.4971
  603MOL0     C79496   9.343   4.100  10.526 -0.2884  0.2890  0.3948
  603MOL0     C79497   9.236   4.066  10.608  0.1339 -1.3057 -1.8864
  603MOL0     C79498   9.102   4.061  10.567 -0.4525  0.2390 -0.4570
  603MOL0     O79499   9.004   4.050  10.661  0.7512 -0.4573  0.4129
  603MOL0     C79500   8.868   4.066  10.628  0.3129  0.6741 -0.6794
  603MOL0     C79501   8.778   4.009  10.743  0.2314  0.5540  0.3734
  603MOL0     C79502   8.668   3.915  10.680  0.3972 -0.5069 -0.6915
  603MOL0     C79503   8.733   3.786  10.623 -0.0028  0.2220  0.2433
  603MOL0     C79504   8.631   3.689  10.561 -0.4145  0.0976 -0.4742
  603MOL0     C79505   8.689   3.565  10.494  0.2308 -0.7157  0.4761
  603MOL0     C79506   8.584   3.468  10.440 -0.2412 -0.0551  0.5329
  603MOL0     C79507   8.636   3.324  10.428  0.4602  1.0506  0.5272
  603MOL0    Cl79508   8.766   3.322  10.292 -0.5786  0.2363 -0.3225
  603MOL0     C79509   9.074   4.078  10.429 -0.7590  0.2302  0.1151
  603MOL0     C79510   9.178   4.096  10.339 -0.1993  0.4221 -0.0169
  603MOL0     O79511   9.536   3.967  10.349 -0.6970  0.2090 -0.0449
  603MOL0     C79512   9.746   4.065  10.172  0.6060 -0.0877 -0.3436
  603MOL0     C79513   9.833   4.101  10.068  1.0230  0.5773 -0.6851
  603MOL0     N79514   9.831   4.583   9.365 -1.0471 -0.0833  1.0353
  603MOL0     N79515   9.730   4.661   9.398 -0.3689 -0.2934  0.3597
  603MOL0     C79516   8.761   4.122  10.167 -0.2858 -1.0245  0.3689
  603MOL0     C79517   8.630   4.090  10.220 -0.2782  0.5971  0.4702
  603MOL0     C79518   8.293   3.768  10.324  0.1863  0.2053  0.1704
  603MOL0     C79519   8.200   3.665  10.292  1.7664 -1.1924 -0.4964
  603MOL0     C79520   8.078   3.646  10.373  0.5524 -0.5867 -0.2314
  603MOL0     C79521   8.065   3.707  10.497 -0.6007 -0.7073 -0.5487
  603MOL0     O79522   7.955   3.699  10.578 -0.3939  0.4675  0.4089
  603MOL0     C79523   7.825   3.741  10.527  0.0555  0.5113 -0.5817
  603MOL0     C79524   7.814   3.878  10.457 -0.5648 -0.1706  0.0268
  603MOL0     C79525   7.781   4.001  10.541  0.3079 -0.8777  0.0624
  603MOL0     C79526   7.899   4.062  10.617 -0.5303 -1.0111  0.2889
  603MOL0     C79527   7.993   4.126  10.520  0.5095  0.1674  0.3075
  603MOL0     C79528   8.092   4.165  10.454  0.4753  0.8021 -0.7851
  603MOL0     C79529   8.165   3.798  10.534 -0.1733  0.7288  0.1543
  603MOL0     C79530   8.278   3.813  10.455  0.0544 -0.4278 -0.2851
  603MOL0     H79531   8.641   3.756  10.149 -2.1646 -0.1136 -0.3716
  603MOL0     H79532   8.853   3.824  10.039 -1.8533 -0.0476 -2.3337
  603MOL0     H79533   8.990   4.269  10.093  0.3505  2.3454 -0.9110
  603MOL0     H79534   8.923   4.221   9.943  1.1022  0.3552 -0.5695
  603MOL0     H79535   9.167   4.126   9.889  5.7002  0.2290  1.7665
  603MOL0     H79536   9.209   4.213  10.041 -0.8045 -5.6949  1.5900
  603MOL0     H79537   9.141   4.430   9.933 -1.6023 -0.8044 -0.1469
  603MOL0     H79538   9.078   4.330   9.800  1.6379 -0.2104 -1.9449
  603MOL0     H79539   9.358   4.366   9.886  1.3897  3.5984 -1.3218
  603MOL0     H79540   9.311   4.252   9.755 -1.9489 -1.9101  1.2618
  603MOL0     H79541   9.267   4.551   9.749 -1.2082 -1.3480 -0.2978
  603MOL0     H79542   9.238   4.441   9.607  0.0623 -2.5117 -0.6600
  603MOL0     H79543   9.500   4.428   9.605 -1.5404 -3.0998  1.5672
  603MOL0     H79544   9.492   4.510   9.763  1.5961 -1.0679 -0.0855
  603MOL0     H79545   9.412   4.618   9.503  2.5550 -0.1387 -0.8614
  603MOL0     H79546   9.381   4.706   9.648 -0.4385  0.0763  0.1049
  603MOL0     H79547   9.600   4.739   9.702 -1.1901  0.4021  1.1477
  603MOL0     H79548   9.568   4.807   9.541 -0.5451 -0.5208 -0.8085
  603MOL0     H79549   9.807   4.566   9.696 -3.6783  0.4687  0.7177
  603MOL0     H79550  10.090   4.549   9.499  0.7740  0.1571  1.6561
  603MOL0     H79551  10.022   4.425   9.399  1.1170 -0.2403  0.7781
  603MOL0     H79552  10.012   4.454   9.708  4.0525  2.7587 -1.8815
  603MOL0     H79553  10.122   4.340   9.639 -0.0681 -1.7161 -1.0179
  603MOL0     H79554   9.882   4.254   9.534  0.7086  1.8674 -0.9542
  603MOL0     H79555   9.997   4.175   9.647  2.2953  1.8851  0.9617
  603MOL0     H79556   9.763   4.179   9.720 -0.5572 -0.9818 -0.1038
  603MOL0     H79557   9.782   4.360   9.734 -0.7952 -0.2433 -0.4203
  603MOL0     H79558   9.641   4.347   9.935 -0.0478 -0.6495 -0.7723
  603MOL0     H79559   9.484   4.270  10.115 -0.7714 -0.3484  1.4930
  603MOL0     H79560   9.446   4.116  10.558  0.0005  1.2034 -0.9126
  603MOL0     H79561   9.259   4.062  10.714 -2.0361  0.5100 -1.2450
  603MOL0     H79562   8.829   4.011  10.542  0.7370  1.1643 -1.1914
  603MOL0     H79563   8.853   4.173  10.613 -3.0074  0.5017  0.5697
  603MOL0     H79564   8.723   4.091  10.789  0.9467  2.4189 -1.9238
  603MOL0     H79565   8.834   3.953  10.818  1.4350  1.1035 -0.0937
  603MOL0     H79566   8.630   3.973  10.595  0.3823 -0.1914 -0.4712
  603MOL0     H79567   8.596   3.897  10.761 -0.0565 -0.7013 -1.1318
  603MOL0     H79568   8.809   3.807  10.547  0.7672  0.8113  1.1496
  603MOL0     H79569   8.790   3.733  10.701  0.0868  1.5921  1.1464
  603MOL0     H79570   8.557   3.733  10.493 -2.9068 -1.4367  1.1034
  603MOL0     H79571   8.569   3.660  10.646 -0.1315 -0.4575 -0.4525
  603MOL0     H79572   8.767   3.516  10.552  0.1131 -1.6075 -0.0959
  603MOL0     H79573   8.741   3.595  10.402 -0.4424  2.3670  0.9830
  603MOL0     H79574   8.505   3.469  10.515  0.4658  0.7762  1.2833
  603MOL0     H79575   8.542   3.501  10.345 -0.5642 -0.6391  0.4655
  603MOL0     H79576   8.551   3.257  10.408 -1.7246  4.2221 -1.8373
  603MOL0     H79577   8.666   3.295  10.529  1.3650 -3.1490 -0.7463
  603MOL0     H79578   8.979   4.074  10.376  0.2495  3.2120 -2.2259
  603MOL0     H79579   9.158   4.103  10.233  2.8111  0.6643 -0.6517
  603MOL0     H79580   9.783   3.995  10.246 -1.6166  0.7087  1.6223
  603MOL0     H79581   9.928   4.049  10.072 -0.0286 -1.3829  1.4698
  603MOL0     H79582   8.804   4.218  10.195 -1.4348 -1.0956  2.6619
  603MOL0     H79583   8.565   4.165  10.266  1.5362  1.7439  1.2701
  603MOL0     H79584   8.204   3.613  10.197 -0.7125 -0.9597 -0.8018
  603MOL0     H79585   7.991   3.588  10.346  0.0784 -0.7569  1.5611
  603MOL0     H79586   7.765   3.742  10.619  1.6153 -1.2611  0.5268
  603MOL0     H79587   7.795   3.658  10.462 -0.8411  0.0287  0.4209
  603MOL0     H79588   7.913   3.889  10.413  1.4139 -3.7720  2.9845
  603MOL0     H79589   7.741   3.878  10.376  0.7764  0.7539 -1.2224
  603MOL0     H79590   7.712   3.976  10.622  0.5857 -1.8494  0.0105
  603MOL0     H79591   7.739   4.079  10.477 -0.6867  0.0942  1.8191
  603MOL0     H79592   7.860   4.129  10.694 -1.5871 -1.3328  0.0572
  603MOL0     H79593   7.943   3.976  10.668 -0.3052 -0.2671  1.3834
  603MOL0     H79594   8.183   4.182  10.400 -0.5659  2.6899 -2.0292
  603MOL0     H79595   8.140   3.837  10.632  0.4468 -0.4849  0.8210
  603MOL0     H79596   8.359   3.879  10.484 -0.5175  1.5169 -2.7863
  604MOL0     O79597   8.098   9.911   9.488 -0.3497  0.4757 -0.6588
  604MOL0     C79598   8.172   9.903   9.392 -0.5006 -0.4949 -0.0504
  604MOL0     O79599   8.178   9.989   9.286  0.7457  0.1382  0.1060
  604MOL0     C79600   8.057  10.063   9.283 -1.3331 -0.4132  0.0996
  604MOL0     C79601   8.021  10.153   9.390  0.4304 -0.3999  0.2784
  604MOL0     C79602   7.904  10.232   9.365 -0.8261 -0.1841  1.1893
  604MOL0     C79603   7.830  10.233   9.248  0.0749 -0.3978 -0.7456
  604MOL0     O79604   7.719  10.305   9.246  0.5864 -0.4139  0.6178
  604MOL0     C79605   7.591  10.244   9.196  0.1570 -0.5884  0.0409
  604MOL0     C79606   7.491  10.352   9.229 -0.4125 -0.3041 -0.7033
  604MOL0     C79607   7.344  10.287   9.253 -0.7911  0.4845  1.2382
  604MOL0     C79608   7.230  10.394   9.233 -0.4198  1.1614 -0.2476
  604MOL0     C79609   7.113  10.364   9.323 -0.0871 -0.2219  0.6114
  604MOL0     C79610   6.994  10.464   9.335 -0.4233 -0.7288  0.8640
  604MOL0     C79611   6.903  10.425   9.449  0.8712  0.3759  0.4397
  604MOL0     C79612   6.781  10.525   9.466 -0.3931  0.5568  0.3406
  604MOL0     N79613   6.689  10.461   9.557  0.7338  0.2260  0.3159
  604MOL0     C79614   6.711  10.416   9.679 -0.1161 -0.0954 -1.3457
  604MOL0     C79615   6.592  10.372   9.721 -0.6989 -0.2538 -0.4453
  604MOL0     C79616   6.560  10.316   9.855 -0.0715 -0.9265 -0.7582
  604MOL0     C79617   6.499  10.419   9.941 -0.2458  0.4070 -0.2623
  604MOL0     C79618   6.357  10.451   9.920  0.3964 -0.1409 -0.2279
  604MOL0     C79619   6.338  10.599   9.887  0.2166  0.0990  1.3853
  604MOL0     O79620   6.211  10.659   9.874  0.5856  0.0967 -0.7792
  604MOL0     C79621   6.124  10.611   9.781  0.8207 -0.1028 -0.2043
  604MOL0     C79622   6.158  10.526   9.676  0.1426 -0.9219 -0.5396
  604MOL0     C79623   6.071  10.505   9.576  0.5205  0.4498  0.3751
  604MOL0     C79624   5.933  10.541   9.593  0.4934  0.3642  0.1090
  604MOL0     C79625   5.833  10.504   9.479  0.0019  0.7908 -0.1745
  604MOL0     O79626   5.699  10.514   9.496  0.8740 -0.2040 -0.1790
  604MOL0     C79627   5.605  10.460   9.399 -1.0334 -0.4675 -1.2756
  604MOL0     C79628   5.632  10.328   9.371  0.0807  0.2293  0.1690
  604MOL0     C79629   5.536  10.259   9.297 -0.5011 -0.7917 -0.8365
  604MOL0     C79630   5.421  10.332   9.241  0.6042  0.4023 -0.1165
  604MOL0     O79631   5.340  10.259   9.155  0.3871 -0.3402 -0.1769
  604MOL0     C79632   5.234  10.310   9.062  0.2599  0.3330 -1.2500
  604MOL0     C79633   5.264  10.256   8.925  0.5192  0.3812  0.0260
  604MOL0     C79634   5.238  10.102   8.931 -0.0856  0.5672 -0.2610
  604MOL0     C79635   5.239  10.032   8.792 -0.0664 -1.1768  0.2735
  604MOL0     C79636   5.198   9.881   8.796  0.2119  0.4511 -0.1620
  604MOL0     C79637   5.241   9.810   8.669 -0.2986  0.3950  0.2785
  604MOL0     C79638   5.223   9.661   8.683 -0.2607 -1.0753  0.5605
  604MOL0     C79639   5.148   9.598   8.570  0.4432  0.0218 -0.4003
  604MOL0    Cl79640   5.167   9.422   8.598 -0.2508  0.1559 -0.2390
  604MOL0     C79641   5.402  10.465   9.267  0.1448  1.0348  0.4268
  604MOL0     C79642   5.487  10.530   9.360 -0.8533  0.2387  0.7187
  604MOL0     O79643   5.887  10.465   9.374  0.4999  0.2880 -1.1040
  604MOL0     C79644   5.897  10.621   9.701  0.3082  0.1821 -0.2463
  604MOL0     C79645   5.993  10.660   9.795  0.8393  0.9067 -0.4612
  604MOL0     N79646   6.499  10.401   9.626 -0.6655 -0.2699 -0.8438
  604MOL0     N79647   6.553  10.462   9.538  0.9115  0.2809  0.4684
  604MOL0     C79648   7.860  10.136   9.153 -0.5019 -0.0027  0.3653
  604MOL0     C79649   7.972  10.055   9.165 -0.6424  0.3105 -0.1805
  604MOL0     C79650   8.272   9.799   9.392 -0.3359  0.5634  0.2090
  604MOL0     C79651   8.379   9.799   9.305 -0.7146 -0.0559  1.6137
  604MOL0     C79652   8.480   9.694   9.311  0.4509 -0.3655  0.4206
  604MOL0     C79653   8.465   9.592   9.402  0.4014  0.4952  0.0976
  604MOL0     O79654   8.572   9.514   9.397 -0.5017 -0.1097 -0.9775
  604MOL0     C79655   8.598   9.431   9.512 -0.2067  0.3995 -0.5000
  604MOL0     C79656   8.649   9.516   9.628 -0.1142  1.0726 -0.8122
  604MOL0     C79657   8.691   9.426   9.744  0.1587 -0.6044 -0.6456
  604MOL0     C79658   8.603   9.437   9.861  0.1931  0.0346 -1.0661
  604MOL0     C79659   8.467   9.388   9.837  0.2877 -0.0281  0.4282
  604MOL0     C79660   8.361   9.344   9.814  0.3443 -0.6067  0.1906
  604MOL0     C79661   8.353   9.590   9.491 -0.6980 -0.1599 -0.2630
  604MOL0     C79662   8.261   9.698   9.486 -0.7324 -0.3781  0.1953
  604MOL0     H79663   8.078  10.164   9.481  0.5852  0.6483  0.0721
  604MOL0     H79664   7.879  10.309   9.436 -0.2140 -0.3656  1.6166
  604MOL0     H79665   7.576  10.144   9.237  0.3051  0.6474  3.3823
  604MOL0     H79666   7.592  10.227   9.088  1.5901  1.7380 -0.3823
  604MOL0     H79667   7.477  10.432   9.156 -2.7924  0.2862  0.3135
  604MOL0     H79668   7.522  10.405   9.320 -0.7607  1.2257 -1.4426
  604MOL0     H79669   7.349  10.237   9.350  2.7838 -1.5350  0.1938
  604MOL0     H79670   7.329  10.203   9.185 -2.1691  0.2018  1.8526
  604MOL0     H79671   7.272  10.493   9.251  1.6670  0.4205 -0.7519
  604MOL0     H79672   7.197  10.402   9.129 -2.0965  0.4803  0.1924
  604MOL0     H79673   7.163  10.346   9.419  1.4855 -0.3724 -0.2079
  604MOL0     H79674   7.068  10.270   9.292 -1.8301  0.1488  1.8643
  604MOL0     H79675   6.947  10.481   9.237 -2.0893 -3.7630  1.0191
  604MOL0     H79676   7.032  10.566   9.347  0.1524 -0.8457  0.1571
  604MOL0     H79677   6.863  10.325   9.428 -0.5974  1.1160 -0.4771
  604MOL0     H79678   6.968  10.414   9.537 -0.9854  0.2369  1.8504
  604MOL0     H79679   6.726  10.553   9.376  0.2052 -1.6100 -0.7694
  604MOL0     H79680   6.817  10.615   9.517  1.6842  0.9202 -1.5993
  604MOL0     H79681   6.804  10.415   9.735 -1.6771 -1.1901  1.4380
  604MOL0     H79682   6.652  10.288   9.908 -1.0395  0.8958  2.1288
  604MOL0     H79683   6.490  10.231   9.861 -0.1520 -1.4209 -5.3363
  604MOL0     H79684   6.567  10.500   9.911  0.7695 -1.2365 -2.6948
  604MOL0     H79685   6.528  10.392  10.043 -3.5161 -0.4106  0.5666
  604MOL0     H79686   6.313  10.371   9.860  1.6285 -0.9969 -0.0133
  604MOL0     H79687   6.300  10.438  10.013  1.2843  1.1801  0.5234
  604MOL0     H79688   6.402  10.622   9.800 -0.9953  0.7044  0.6225
  604MOL0     H79689   6.387  10.666   9.958  1.4183  1.1915 -0.3818
  604MOL0     H79690   6.257  10.486   9.656  1.1739 -1.2479  4.1291
  604MOL0     H79691   6.111  10.453   9.489 -1.1836 -0.6793  0.2223
  604MOL0     H79692   5.703  10.262   9.420  0.7242  1.6935  1.2937
  604MOL0     H79693   5.554  10.154   9.276  0.7139 -0.6249 -0.6510
  604MOL0     H79694   5.257  10.417   9.049 -1.1040  0.7610 -0.3365
  604MOL0     H79695   5.130  10.294   9.092  0.1517  0.2920 -1.6409
  604MOL0     H79696   5.359  10.288   8.881 -0.0210  0.3619 -1.1939
  604MOL0     H79697   5.190  10.297   8.856  0.4581  1.8999  0.9402
  604MOL0     H79698   5.142  10.071   8.974 -0.1186 -0.6108 -1.1350
  604MOL0     H79699   5.316  10.068   9.000 -0.3098  2.0405  0.7729
  604MOL0     H79700   5.176  10.080   8.716 -0.1801 -1.7250  0.0196
  604MOL0     H79701   5.341  10.047   8.754 -0.3207  0.0728  0.0285
  604MOL0     H79702   5.089   9.881   8.805  0.2619 -0.4417  0.6297
  604MOL0     H79703   5.234   9.828   8.884 -0.3923  0.1674 -0.0838
  604MOL0     H79704   5.349   9.828   8.659  0.1238 -1.4569  1.1070
  604MOL0     H79705   5.189   9.852   8.583  0.3988  2.7041  0.9073
  604MOL0     H79706   5.325   9.625   8.693 -0.4365 -1.5015  0.8375
  604MOL0     H79707   5.169   9.634   8.775  2.4232 -0.9121  2.2851
  604MOL0     H79708   5.184   9.621   8.470  2.6333 -0.4867  0.2308
  604MOL0     H79709   5.041   9.617   8.583  0.5037 -0.6910  1.4710
  604MOL0     H79710   5.323  10.518   9.215  0.8051 -0.2404 -2.0152
  604MOL0     H79711   5.468  10.633   9.386  1.3458  1.0468 -0.5761
  604MOL0     H79712   5.794  10.652   9.717  0.5759  1.8740 -1.5020
  604MOL0     H79713   5.955  10.710   9.884  0.9069  0.1599 -0.0019
  604MOL0     H79714   7.804  10.119   9.062  0.2105  1.4164 -0.3709
  604MOL0     H79715   7.999   9.991   9.081 -0.9246 -0.6154  0.4105
  604MOL0     H79716   8.402   9.885   9.243 -0.8214  1.3743  3.4661
  604MOL0     H79717   8.565   9.692   9.243  0.3786  1.5722  0.2254
  604MOL0     H79718   8.678   9.370   9.469  0.0552  0.6038 -0.3042
  604MOL0     H79719   8.511   9.367   9.529  0.0946 -0.3069 -1.5150
  604MOL0     H79720   8.733   9.580   9.600  0.9663  0.8497  1.6066
  604MOL0     H79721   8.567   9.578   9.666 -2.1309 -3.1244  2.5522
  604MOL0     H79722   8.795   9.454   9.765 -0.2711  0.3257  0.2824
  604MOL0     H79723   8.700   9.321   9.713  2.7964 -0.5788 -0.2128
  604MOL0     H79724   8.650   9.395   9.951 -3.6654 -1.0246  0.6344
  604MOL0     H79725   8.593   9.543   9.885 -0.6779 -0.7615  2.7028
  604MOL0     H79726   8.259   9.315   9.800  0.4285 -2.7089  3.0862
  604MOL0     H79727   8.343   9.508   9.562  3.0561  0.6295  1.3887
  604MOL0     H79728   8.187   9.704   9.566 -1.0893  3.5249 -0.2449
  605MOL0     O79729   1.860   6.014   5.504 -0.3497 -0.3351  0.7976
  605MOL0     C79730   1.888   5.993   5.620  0.0301 -0.1554  0.5730
  605MOL0     O79731   2.007   5.936   5.656 -0.3810 -0.3884 -0.6893
  605MOL0     C79732   2.128   5.936   5.587  0.4947  0.2017  0.3959
  605MOL0     C79733   2.167   6.007   5.480 -0.0235 -0.6375  0.5779
  605MOL0     C79734   2.299   6.001   5.427 -0.2531 -0.7339  0.1022
  605MOL0     C79735   2.391   5.908   5.482 -0.2342 -0.6322 -0.2100
  605MOL0     O79736   2.510   5.892   5.414  0.3570 -0.5713 -0.3836
  605MOL0     C79737   2.603   5.792   5.455 -0.1923 -0.2267 -1.0735
  605MOL0     C79738   2.720   5.788   5.357 -0.6028  0.2557  0.5020
  605MOL0     C79739   2.840   5.729   5.425 -0.2642 -0.6471  0.4936
  605MOL0     C79740   2.964   5.726   5.329  0.4866  0.1154  0.2051
  605MOL0     C79741   3.102   5.692   5.404  0.7712 -0.4553 -0.3762
  605MOL0     C79742   3.118   5.561   5.478 -0.1086 -0.2626 -0.2926
  605MOL0     C79743   3.229   5.556   5.576 -0.1865  1.3310 -0.1781
  605MOL0     C79744   3.257   5.412   5.632 -0.3704 -0.4595 -0.1414
  605MOL0     N79745   3.374   5.412   5.731 -0.0317  0.0788 -0.5367
  605MOL0     C79746   3.501   5.366   5.698 -0.2388  0.4399 -0.5124
  605MOL0     C79747   3.570   5.354   5.814  0.6930  0.2797 -0.1004
  605MOL0     C79748   3.710   5.295   5.818 -0.2959  0.0594  0.1712
  605MOL0     C79749   3.785   5.315   5.683 -0.4755 -0.1024 -0.7463
  605MOL0     C79750   3.931   5.284   5.676 -0.8554  0.3265  0.0819
  605MOL0     C79751   3.981   5.305   5.531 -0.4037 -1.0143 -0.0623
  605MOL0     O79752   3.943   5.199   5.453 -0.7283  0.3388  0.7129
  605MOL0     C79753   4.023   5.091   5.434 -0.0097 -0.1297 -0.3636
  605MOL0     C79754   4.129   5.044   5.501  0.0485  0.8737 -0.4098
  605MOL0     C79755   4.208   4.945   5.461 -1.1801  0.5347  0.3335
  605MOL0     C79756   4.182   4.864   5.349 -0.2270 -0.5476  1.2337
  605MOL0     C79757   4.256   4.740   5.317 -0.1209  0.1296 -0.1444
  605MOL0     O79758   4.229   4.678   5.198  0.2916  0.0820  0.3453
  605MOL0     C79759   4.298   4.567   5.175 -0.3663 -0.7103 -0.1499
  605MOL0     C79760   4.236   4.447   5.206  0.6776  0.7434 -0.1198
  605MOL0     C79761   4.300   4.321   5.177 -0.3863  0.3926 -0.2205
  605MOL0     C79762   4.425   4.319   5.114  0.2907  0.3153  0.1199
  605MOL0     O79763   4.468   4.200   5.069  0.0996  0.4154 -0.4461
  605MOL0     C79764   4.595   4.195   4.996  0.1837 -0.5437 -0.0563
  605MOL0     C79765   4.615   4.063   4.922 -0.2178  0.4115 -0.3568
  605MOL0     C79766   4.588   3.936   5.016  0.1080  0.5163 -0.6978
  605MOL0     C79767   4.618   3.808   4.941 -0.8654  0.2205 -0.1418
  605MOL0     C79768   4.606   3.681   5.028 -0.4507  0.5372  0.5288
  605MOL0     C79769   4.459   3.639   5.071 -0.3139  0.3779  0.0833
  605MOL0     C79770   4.451   3.552   5.206 -0.5103 -0.1101  2.0245
  605MOL0     C79771   4.347   3.441   5.226 -0.1140  0.3954 -0.3649
  605MOL0    Cl79772   4.183   3.481   5.279 -0.4229 -0.3066 -0.2329
  605MOL0     C79773   4.488   4.442   5.092  0.4841 -0.7481  0.8751
  605MOL0     C79774   4.427   4.566   5.122  0.2756 -0.0776 -0.9773
  605MOL0     O79775   4.333   4.697   5.406 -0.4960  0.2712 -0.5708
  605MOL0     C79776   4.067   4.907   5.279  0.7362 -0.7171  0.3085
  605MOL0     C79777   3.996   5.017   5.319  0.0355 -0.5652 -0.6494
  605MOL0     N79778   3.483   5.401   5.909 -1.3208 -0.2006 -0.5486
  605MOL0     N79779   3.367   5.433   5.859 -0.7834  0.2922  0.6308
  605MOL0     C79780   2.345   5.834   5.597  0.1857  0.5439  1.5088
  605MOL0     C79781   2.221   5.863   5.657  0.2997  0.2469 -0.3562
  605MOL0     C79782   1.797   6.004   5.730 -0.5143  0.1565 -0.0909
  605MOL0     C79783   1.659   6.033   5.708 -0.5293 -0.4487 -0.4811
  605MOL0     C79784   1.570   6.011   5.812  0.1819 -0.5910  0.0338
  605MOL0     C79785   1.601   5.960   5.938 -0.1974 -0.1810  0.4756
  605MOL0     O79786   1.497   5.938   6.030  1.0699  0.5061  1.0324
  605MOL0     C79787   1.538   5.914   6.162 -0.2165 -0.1065 -0.1434
  605MOL0     C79788   1.414   5.917   6.253 -1.3600  0.3892 -0.5296
  605MOL0     C79789   1.422   6.006   6.384 -0.5628  0.4165 -0.8226
  605MOL0     C79790   1.550   5.968   6.468  1.3601 -0.0197 -0.2151
  605MOL0     C79791   1.516   6.002   6.615  0.0376 -0.0184  0.5413
  605MOL0     C79792   1.506   6.035   6.725 -0.2422 -1.2592  1.0050
  605MOL0     C79793   1.733   5.924   5.953 -0.3393 -0.6557 -0.3655
  605MOL0     C79794   1.830   5.944   5.854 -0.1116  0.7343  0.2245
  605MOL0     H79795   2.097   6.079   5.437 -1.4982 -1.9079  0.7475
  605MOL0     H79796   2.345   6.054   5.345  3.8149 -0.8095  2.0688
  605MOL0     H79797   2.557   5.692   5.450 -0.8781  0.1392 -2.8463
  605MOL0     H79798   2.639   5.806   5.557 -3.3818 -1.3647  0.3727
  605MOL0     H79799   2.758   5.887   5.330  2.7816 -0.9409  0.4326
  605MOL0     H79800   2.708   5.739   5.260  3.2849  2.5878 -1.4264
  605MOL0     H79801   2.805   5.628   5.449 -1.9761 -0.4305 -0.8897
  605MOL0     H79802   2.874   5.779   5.516 -1.3946  0.2663  0.4215
  605MOL0     H79803   2.951   5.656   5.246  3.6062 -0.4414  0.0562
  605MOL0     H79804   2.980   5.825   5.286 -0.4869 -0.3868 -1.4006
  605MOL0     H79805   3.136   5.776   5.465  1.7618 -2.0559  1.4050
  605MOL0     H79806   3.175   5.686   5.323 -1.1041 -1.8132 -2.0570
  605MOL0     H79807   3.131   5.486   5.400 -2.6910 -1.0497 -0.0501
  605MOL0     H79808   3.027   5.537   5.533  0.4945  1.1296  1.4209
  605MOL0     H79809   3.326   5.588   5.537  0.0035  1.1956  0.1784
  605MOL0     H79810   3.212   5.612   5.668  1.1638 -0.0268  0.9602
  605MOL0     H79811   3.264   5.345   5.547  3.5964  1.7239 -1.8496
  605MOL0     H79812   3.175   5.377   5.695  2.2495 -2.2728  2.5898
  605MOL0     H79813   3.542   5.356   5.598 -3.1003  0.7246 -1.8093
  605MOL0     H79814   3.712   5.191   5.851 -1.0308 -0.3460 -0.9928
  605MOL0     H79815   3.748   5.344   5.908 -2.0532  4.8165 -1.3321
  605MOL0     H79816   3.774   5.415   5.641  1.5176  0.1085 -0.8637
  605MOL0     H79817   3.734   5.243   5.618 -0.6063  1.2240 -2.1788
  605MOL0     H79818   3.984   5.354   5.742 -1.3703 -3.1862  4.7475
  605MOL0     H79819   3.951   5.184   5.715 -0.1270  0.1263 -0.7788
  605MOL0     H79820   4.090   5.316   5.533 -0.6782  2.5291  0.6262
  605MOL0     H79821   3.935   5.392   5.485 -0.3070 -2.0136 -2.1908
  605MOL0     H79822   4.158   5.105   5.586 -1.9183 -0.3717  1.2550
  605MOL0     H79823   4.301   4.925   5.514 -0.6981  1.2241 -0.2220
  605MOL0     H79824   4.140   4.461   5.256  1.5985  0.6339  1.7849
  605MOL0     H79825   4.260   4.223   5.199 -2.2483  1.1585  0.0222
  605MOL0     H79826   4.672   4.221   5.070  0.5456 -1.1543 -0.2149
  605MOL0     H79827   4.602   4.275   4.922  0.4160 -1.6992 -1.3183
  605MOL0     H79828   4.712   4.061   4.873 -0.7074 -0.8184 -1.3380
  605MOL0     H79829   4.540   4.054   4.843  0.2190 -0.1760 -0.7118
  605MOL0     H79830   4.490   3.938   5.065  1.2450 -1.3253  1.8592
  605MOL0     H79831   4.661   3.950   5.096 -0.5948  4.7620 -0.5352
  605MOL0     H79832   4.555   3.799   4.851  1.0064 -0.0855 -1.4787
  605MOL0     H79833   4.722   3.820   4.909  0.6996 -3.0822  3.0134
  605MOL0     H79834   4.673   3.700   5.112 -0.4013  1.5614  0.2762
  605MOL0     H79835   4.654   3.601   4.971  4.4715  3.3236  0.1380
  605MOL0     H79836   4.410   3.582   4.993  1.1929  1.3300 -1.6561
  605MOL0     H79837   4.398   3.730   5.077 -1.5142 -0.3507 -0.6664
  605MOL0     H79838   4.549   3.504   5.213  0.4774  1.6258  0.8224
  605MOL0     H79839   4.456   3.631   5.281  4.4448  2.5080 -0.5998
  605MOL0     H79840   4.400   3.374   5.294  0.6557 -0.2513 -1.5642
  605MOL0     H79841   4.339   3.384   5.133 -0.6980 -4.4472  2.3429
  605MOL0     H79842   4.587   4.444   5.046 -0.3107  0.4036 -0.8987
  605MOL0     H79843   4.483   4.657   5.103  0.6507  0.2887  1.5830
  605MOL0     H79844   4.031   4.859   5.188 -1.9101  1.5722  0.0267
  605MOL0     H79845   3.911   5.047   5.258 -0.8119  0.9570  1.1494
  605MOL0     H79846   2.408   5.758   5.643  1.1088 -0.2913 -0.9738
  605MOL0     H79847   2.208   5.821   5.757 -1.2876 -0.7741 -0.9560
  605MOL0     H79848   1.629   6.082   5.616 -0.6779  2.0529  0.8013
  605MOL0     H79849   1.468   6.046   5.796  1.1735  1.6450 -2.0730
  605MOL0     H79850   1.603   5.999   6.185 -1.4306  0.9116 -0.3812
  605MOL0     H79851   1.590   5.818   6.164 -0.6621 -0.3899 -1.2085
  605MOL0     H79852   1.326   5.951   6.198 -2.7183 -0.4455  1.0734
  605MOL0     H79853   1.381   5.819   6.288  2.2197 -0.9889 -0.5698
  605MOL0     H79854   1.337   5.984   6.449 -1.1944  0.1417 -1.7207
  605MOL0     H79855   1.418   6.114   6.371 -1.8161  0.3817 -0.8066
  605MOL0     H79856   1.588   5.866   6.468 -0.6215 -0.8248 -1.0627
  605MOL0     H79857   1.631   6.033   6.435  0.4916  1.2186 -0.0064
  605MOL0     H79858   1.479   6.065   6.825  0.0920  0.0610  0.7171
  605MOL0     H79859   1.779   5.890   6.046  0.3550 -1.2448 -0.9085
  605MOL0     H79860   1.930   5.908   5.875 -1.3168 -1.9375  1.8650
  606MOL0     O79861   2.013   2.974  10.169  0.0752 -0.4033 -0.0457
  606MOL0     C79862   2.071   3.077  10.133 -0.7538  0.4010  0.0090
  606MOL0     O79863   2.206   3.087  10.120 -0.0308 -0.5519 -0.0422
  606MOL0     C79864   2.285   2.978  10.132  0.3642  0.0999 -0.0667
  606MOL0     C79865   2.373   2.985  10.243  0.8222  0.2322 -0.2428
  606MOL0     C79866   2.467   2.890  10.266 -1.3658 -0.6748 -0.4980
  606MOL0     C79867   2.472   2.771  10.197 -0.5222  0.0330  0.8137
  606MOL0     O79868   2.567   2.682  10.246 -0.1283 -0.2430  0.2451
  606MOL0     C79869   2.638   2.603  10.153  0.4310  0.0074 -1.1182
  606MOL0     C79870   2.728   2.516  10.230  0.0550  0.1561 -0.5511
  606MOL0     C79871   2.838   2.452  10.148 -0.0440  0.2129  0.2678
  606MOL0     C79872   2.941   2.385  10.237 -0.7315 -1.0692  0.0373
  606MOL0     C79873   3.061   2.339  10.166 -0.2463  0.4214  0.5245
  606MOL0     C79874   3.155   2.253  10.254  0.4880 -0.0353 -0.4473
  606MOL0     C79875   3.275   2.212  10.170 -0.0521  0.2228 -0.6413
  606MOL0     C79876   3.396   2.166  10.257  0.0049  0.7405  0.3170
  606MOL0     N79877   3.487   2.067  10.191  0.3835 -0.6506  0.3261
  606MOL0     C79878   3.482   1.925  10.205  0.9231 -0.6646  0.2739
  606MOL0     C79879   3.595   1.880  10.146  0.7928 -0.0179  0.7878
  606MOL0     C79880   3.620   1.738  10.103 -0.3533  0.0358  0.8398
  606MOL0     C79881   3.551   1.714   9.976 -0.0434  0.0624 -0.4383
  606MOL0     C79882   3.584   1.796   9.848 -0.2367  0.3662  0.0533
  606MOL0     C79883   3.507   1.917   9.822 -0.4221 -0.0199 -0.4421
  606MOL0     O79884   3.384   1.889   9.759  0.0394 -1.1809 -0.5633
  606MOL0     C79885   3.286   1.989   9.780 -0.1434  0.2294 -0.5258
  606MOL0     C79886   3.299   2.122   9.740 -0.2324 -0.3446 -0.3574
  606MOL0     C79887   3.189   2.211   9.750  0.0743  0.1209 -0.5941
  606MOL0     C79888   3.063   2.160   9.796  0.5504 -0.2907  0.0305
  606MOL0     C79889   2.948   2.246   9.794  0.7203 -0.3383 -0.2215
  606MOL0     O79890   2.832   2.175   9.792  0.5696  1.5377  0.5036
  606MOL0     C79891   2.704   2.228   9.785  1.3389 -0.5334 -0.2733
  606MOL0     C79892   2.591   2.145   9.762  0.0123 -0.4080  0.3560
  606MOL0     C79893   2.457   2.194   9.750 -0.7441  0.3404 -0.0809
  606MOL0     C79894   2.434   2.324   9.775  0.3584 -0.2002 -0.1064
  606MOL0     O79895   2.306   2.380   9.783  0.3003  0.2402 -0.2102
  606MOL0     C79896   2.185   2.302   9.815 -0.0184 -0.5361  0.1644
  606MOL0     C79897   2.063   2.391   9.847 -0.6217 -0.6081 -0.2083
  606MOL0     C79898   2.001   2.462   9.731  0.4210  0.4220 -0.5216
  606MOL0     C79899   1.864   2.524   9.774  0.0130 -0.1931  0.6771
  606MOL0     C79900   1.821   2.658   9.694  0.0872  0.5293 -0.3078
  606MOL0     C79901   1.675   2.688   9.730  0.8229  0.6021 -0.5242
  606MOL0     C79902   1.627   2.830   9.703  0.7035  0.3500  0.4516
  606MOL0     C79903   1.706   2.959   9.751  0.4559 -0.3597  1.9839
  606MOL0    Cl79904   1.661   2.975   9.923  0.3745  0.0372 -0.3205
  606MOL0     C79905   2.535   2.413   9.795  0.1113  0.8374  0.7538
  606MOL0     C79906   2.667   2.364   9.803  0.0296  0.4219 -0.5793
  606MOL0     O79907   2.960   2.366   9.798  0.0479 -0.4102  0.6910
  606MOL0     C79908   3.047   2.026   9.831 -0.1772  0.1502 -0.4912
  606MOL0     C79909   3.157   1.941   9.822 -0.2878  0.4354 -0.2231
  606MOL0     N79910   3.666   1.993  10.104 -0.3294 -0.3853 -0.0780
  606MOL0     N79911   3.602   2.106  10.126  0.1387  0.1436 -0.3523
  606MOL0     C79912   2.373   2.748  10.103  0.0323  0.8215 -0.1356
  606MOL0     C79913   2.278   2.852  10.072  0.1789  0.8249 -1.3130
  606MOL0     C79914   2.010   3.203  10.148  1.5872  0.1007  0.2293
  606MOL0     C79915   2.088   3.318  10.166 -0.2606  0.0149  0.2707
  606MOL0     C79916   2.020   3.440  10.187  1.2866  0.5487 -1.0505
  606MOL0     C79917   1.880   3.441  10.188 -0.5524 -0.1916  0.0928
  606MOL0     O79918   1.824   3.563  10.198  0.6428 -0.0800 -0.6130
  606MOL0     C79919   1.749   3.614  10.086  0.5837  0.0218  0.7106
  606MOL0     C79920   1.695   3.750  10.131  0.3150 -0.2136 -0.3935
  606MOL0     C79921   1.649   3.856  10.025  0.2072  0.2958  0.1513
  606MOL0     C79922   1.514   3.819   9.966 -0.6057 -0.6607 -0.9847
  606MOL0     C79923   1.401   3.863  10.049  0.5170 -0.3639 -0.3111
  606MOL0     C79924   1.308   3.914  10.104 -0.9310 -1.3977  0.0088
  606MOL0     C79925   1.804   3.325  10.182  0.7721 -0.3524 -0.0465
  606MOL0     C79926   1.867   3.205  10.152  0.0383 -1.4855  0.7636
  606MOL0     H79927   2.363   3.073  10.306 -1.4499 -0.6819  0.7792
  606MOL0     H79928   2.542   2.919  10.339 -1.2625  1.9528 -1.5236
  606MOL0     H79929   2.684   2.668  10.077 -0.4850 -0.7203 -2.3327
  606MOL0     H79930   2.568   2.536  10.102  2.2036 -2.6395 -0.2863
  606MOL0     H79931   2.665   2.439  10.276  0.1472  0.8768  0.8585
  606MOL0     H79932   2.773   2.579  10.307  2.5457 -1.4730 -0.5393
  606MOL0     H79933   2.893   2.528  10.091 -0.3349  0.9101  0.8896
  606MOL0     H79934   2.797   2.376  10.081  2.9769  0.2287 -1.7827
  606MOL0     H79935   2.984   2.460  10.305  1.1839  0.7668 -2.9366
  606MOL0     H79936   2.898   2.298  10.287 -0.6580 -0.9884  0.2436
  606MOL0     H79937   3.118   2.425  10.132  0.4084  0.6108  2.0317
  606MOL0     H79938   3.026   2.277  10.082 -1.2755 -0.6658  1.6903
  606MOL0     H79939   3.098   2.175  10.307 -0.8194  1.1413 -0.0599
  606MOL0     H79940   3.199   2.320  10.328  2.2851 -2.1784  0.5486
  606MOL0     H79941   3.246   2.132  10.101  0.6789 -0.3164 -0.3375
  606MOL0     H79942   3.312   2.298  10.113 -0.3744 -0.3894 -1.7954
  606MOL0     H79943   3.357   2.128  10.351 -3.0670  1.0296 -0.7205
  606MOL0     H79944   3.453   2.259  10.272 -1.5666  2.2760 -2.3640
  606MOL0     H79945   3.391   1.883  10.249 -1.4788  2.0972 -1.6713
  606MOL0     H79946   3.578   1.669  10.178 -0.1733 -1.2888 -0.2448
  606MOL0     H79947   3.728   1.731  10.088 -0.4599  2.5054 -2.1563
  606MOL0     H79948   3.442   1.714   9.985 -0.1053 -1.1736 -1.0378
  606MOL0     H79949   3.581   1.615   9.941  1.9478 -0.3453  2.1002
  606MOL0     H79950   3.686   1.833   9.860 -0.4431  1.0458 -0.2687
  606MOL0     H79951   3.582   1.730   9.761  1.5105 -2.8968  2.2865
  606MOL0     H79952   3.567   1.968   9.745  1.7229  0.8159  1.6591
  606MOL0     H79953   3.481   1.972   9.912 -0.0815  1.6828 -1.3317
  606MOL0     H79954   3.389   2.163   9.694 -0.7612  0.7346 -0.4790
  606MOL0     H79955   3.206   2.317   9.735  1.3704  0.4000  2.2210
  606MOL0     H79956   2.621   2.042   9.744  0.5838 -0.3424  0.8681
  606MOL0     H79957   2.372   2.130   9.728  0.4949 -0.8528 -1.6545
  606MOL0     H79958   2.202   2.226   9.891 -0.9181 -1.5424 -0.6125
  606MOL0     H79959   2.154   2.247   9.726 -1.5676  1.0106 -0.3042
  606MOL0     H79960   2.088   2.472   9.917  0.5318  1.0105 -2.3882
  606MOL0     H79961   1.985   2.323   9.883 -1.9231  0.4811 -0.8891
  606MOL0     H79962   1.983   2.407   9.638  1.0392  1.1222 -1.0665
  606MOL0     H79963   2.060   2.548   9.698  2.7424 -1.1644 -0.7067
  606MOL0     H79964   1.782   2.452   9.779  0.9597 -1.2303  4.7451
  606MOL0     H79965   1.873   2.556   9.878 -3.2209 -0.9920  1.3269
  606MOL0     H79966   1.835   2.657   9.586  0.5200 -2.6607 -0.3371
  606MOL0     H79967   1.891   2.735   9.727 -0.1119 -0.6044  3.1962
  606MOL0     H79968   1.656   2.667   9.835  0.3093  1.1794 -0.4914
  606MOL0     H79969   1.604   2.619   9.684  0.2757  0.5500  0.3768
  606MOL0     H79970   1.623   2.836   9.594 -3.2906 -1.5451  0.3323
  606MOL0     H79971   1.520   2.836   9.724  0.3344 -2.7286 -0.1757
  606MOL0     H79972   1.671   3.051   9.702  0.9432 -1.2838 -0.2449
  606MOL0     H79973   1.814   2.961   9.736  0.0968  2.6757 -1.7536
  606MOL0     H79974   2.516   2.514   9.829 -4.2692  1.7534 -3.3537
  606MOL0     H79975   2.738   2.445   9.816 -1.0507  1.1101  1.4454
  606MOL0     H79976   2.957   1.975   9.865 -0.6583  1.1383 -0.2566
  606MOL0     H79977   3.162   1.838   9.855  3.6472  0.9824  1.3766
  606MOL0     H79978   2.372   2.649  10.059 -0.6220  1.9644 -2.9253
  606MOL0     H79979   2.200   2.831   9.999  0.0337  0.0261 -0.9419
  606MOL0     H79980   2.196   3.315  10.175 -0.0597  0.1149 -1.5719
  606MOL0     H79981   2.077   3.533  10.190  1.9349  0.2141 -2.2810
  606MOL0     H79982   1.669   3.551  10.047 -2.5045  4.4480 -0.8305
  606MOL0     H79983   1.817   3.628  10.002 -0.5148 -0.6678 -0.3221
  606MOL0     H79984   1.610   3.734  10.197  0.6598  0.7388  0.3056
  606MOL0     H79985   1.779   3.795  10.184  0.2340  0.1818 -0.5974
  606MOL0     H79986   1.724   3.870   9.947 -0.2434  0.3963 -0.2703
  606MOL0     H79987   1.631   3.952  10.073 -1.2341 -0.7668  1.8504
  606MOL0     H79988   1.506   3.872   9.870  0.9495  0.0871 -0.7357
  606MOL0     H79989   1.517   3.711   9.954  0.2488 -0.9201  1.1064
  606MOL0     H79990   1.228   3.971  10.147 -1.7952  0.5673 -3.7297
  606MOL0     H79991   1.696   3.323  10.199  0.9456 -2.4095  1.1677
  606MOL0     H79992   1.817   3.109  10.152 -1.5742 -0.6927 -0.3088
  607MOL0     O79993   7.884  11.154   0.833 -0.2371 -0.6557  0.0074
  607MOL0     C79994   7.887  11.271   0.800 -0.8600 -0.1861 -0.0187
  607MOL0     O79995   7.798  11.336   0.726 -0.2073  0.4050  1.0208
  607MOL0     C79996   7.676  11.272   0.707  1.1415  1.0051  0.0068
  607MOL0     C79997   7.552  11.319   0.756  0.2474 -0.6173 -0.0914
  607MOL0     C79998   7.429  11.259   0.720  0.0355 -0.0411  0.1920
  607MOL0     C79999   7.435  11.135   0.645 -0.0702 -0.2179 -0.4802
  607MOL0     O80000   7.323  11.059   0.612 -0.7225 -0.6851 -0.5579
  607MOL0     C80001   7.241  11.009   0.714  0.3307 -1.3983  1.1678
  607MOL0     C80002   7.092  11.024   0.681 -0.2880 -0.0622 -0.1194
  607MOL0     C80003   7.018  10.991   0.807 -0.0651 -0.2072  0.1325
  607MOL0     C80004   6.875  10.960   0.766 -0.9502 -0.6565 -0.4233
  607MOL0     C80005   6.838  10.812   0.768  0.3180 -0.5713  0.2071
  607MOL0     C80006   6.692  10.777   0.742  0.1574 -1.2840  0.5393
  607MOL0     C80007   6.672  10.623   0.737  0.4088  0.4411 -0.2572
  607MOL0     C80008   6.531  10.587   0.698  0.8826  0.4439 -0.6308
  607MOL0     N80009   6.434  10.620   0.803 -0.3472 -0.0088  0.4982
  607MOL0     C80010   6.451  10.664   0.940 -0.6577  0.4875 -0.7666
  607MOL0     C80011   6.335  10.726   0.973 -0.3538  0.0913 -1.2653
  607MOL0     C80012   6.297  10.799   1.102  0.9555  0.4937  0.7218
  607MOL0     C80013   6.420  10.810   1.203 -0.4220  0.3703  0.8640
  607MOL0     C80014   6.530  10.905   1.161  0.2652  0.4761 -0.0382
  607MOL0     C80015   6.628  10.928   1.277 -0.1508  0.1336  0.0222
  607MOL0     O80016   6.730  11.008   1.230 -0.1491 -0.2065 -0.3741
  607MOL0     C80017   6.806  11.089   1.310  0.7076  1.1077 -0.0510
  607MOL0     C80018   6.918  11.147   1.253 -0.0353 -0.1887  0.5058
  607MOL0     C80019   7.007  11.223   1.315 -0.1967  0.1391  0.1029
  607MOL0     C80020   6.980  11.246   1.455 -0.0649  0.0139 -0.3497
  607MOL0     C80021   7.083  11.311   1.540 -0.0678  0.3861 -0.3787
  607MOL0     O80022   7.149  11.419   1.475  0.1149  0.5937  0.3170
  607MOL0     C80023   7.247  11.488   1.535 -0.5784  0.2271 -0.6784
  607MOL0     C80024   7.253  11.620   1.496 -0.3845  0.5583 -0.0803
  607MOL0     C80025   7.355  11.701   1.550 -0.1371 -0.9225 -0.1428
  607MOL0     C80026   7.442  11.651   1.647  1.2398 -0.1664  0.0816
  607MOL0     O80027   7.539  11.734   1.697  0.3413 -0.2062  0.2289
  607MOL0     C80028   7.630  11.789   1.598 -0.2175 -0.3665 -0.0911
  607MOL0     C80029   7.747  11.705   1.638 -0.3217  0.4615 -0.0617
  607MOL0     C80030   7.879  11.757   1.568 -0.9100 -1.4514 -0.6813
  607MOL0     C80031   7.896  11.760   1.417 -0.3100 -0.1344 -0.5765
  607MOL0     C80032   7.902  11.612   1.350 -0.3845  0.1602 -0.2357
  607MOL0     C80033   7.995  11.530   1.430 -0.0734 -0.3604 -0.6655
  607MOL0     C80034   8.023  11.407   1.350 -0.1338  0.2297  0.4213
  607MOL0     C80035   7.908  11.312   1.343 -0.2072  0.4691  0.1105
  607MOL0    Cl80036   7.930  11.167   1.225 -0.4199 -0.1081 -0.1538
  607MOL0     C80037   7.433  11.526   1.688 -0.6200  1.6280  0.6330
  607MOL0     C80038   7.341  11.435   1.633  0.1618  0.2360  0.4786
  607MOL0     O80039   7.119  11.263   1.647 -0.4973  0.5249  0.0689
  607MOL0     C80040   6.870  11.194   1.520 -0.4391 -0.5321  0.4300
  607MOL0     C80041   6.780  11.105   1.451 -0.2954  0.3082 -0.0882
  607MOL0     N80042   6.248  10.717   0.865  0.7550  0.5610 -0.0347
  607MOL0     N80043   6.314  10.655   0.771 -0.6727  0.0735 -0.3014
  607MOL0     C80044   7.557  11.091   0.591 -0.6650 -0.5262  0.4677
  607MOL0     C80045   7.674  11.171   0.607  0.4146  0.8808  0.6181
  607MOL0     C80046   8.008  11.353   0.840  0.3103  1.0544 -0.7582
  607MOL0     C80047   7.999  11.486   0.809  0.0364 -0.9336 -0.3165
  607MOL0     C80048   8.101  11.567   0.865 -0.5272 -0.4864  0.6185
  607MOL0     C80049   8.197  11.521   0.956 -0.1958  0.4994  0.0552
  607MOL0     O80050   8.308  11.594   1.000  0.4316  0.5688  0.3957
  607MOL0     C80051   8.359  11.558   1.128 -0.0787 -1.0837  0.5812
  607MOL0     C80052   8.413  11.685   1.177 -0.1209 -0.6972 -0.3629
  607MOL0     C80053   8.322  11.807   1.218  0.4111  0.7595 -0.3058
  607MOL0     C80054   8.287  11.890   1.091  0.2987  0.2879  1.1725
  607MOL0     C80055   8.407  11.961   1.049 -0.4078 -0.8711  0.3781
  607MOL0     C80056   8.506  12.018   1.003 -0.7008 -0.2201 -0.6718
  607MOL0     C80057   8.200  11.387   0.982  0.1190 -0.2582  0.4119
  607MOL0     C80058   8.106  11.303   0.921 -0.0742  0.2053 -0.3771
  607MOL0     H80059   7.555  11.412   0.812  0.4850  0.7862 -2.3111
  607MOL0     H80060   7.341  11.295   0.772 -0.0617 -1.3554  0.9967
  607MOL0     H80061   7.260  11.069   0.803 -0.6187  0.4881  0.1557
  607MOL0     H80062   7.267  10.906   0.739 -2.2632 -2.0514  1.4800
  607MOL0     H80063   7.062  10.967   0.592  0.6413 -2.1871  0.8720
  607MOL0     H80064   7.067  11.129   0.660  0.6904 -0.0676 -1.3877
  607MOL0     H80065   7.017  11.064   0.888 -2.8375  0.3754 -0.3193
  607MOL0     H80066   7.074  10.905   0.844  1.7190  0.8486  0.0247
  607MOL0     H80067   6.820  11.010   0.847 -0.1777 -1.0988  0.4001
  607MOL0     H80068   6.854  11.010   0.671 -0.0351  0.0990 -0.2480
  607MOL0     H80069   6.862  10.767   0.865 -1.2553 -1.6473  0.1323
  607MOL0     H80070   6.900  10.767   0.690  0.2224 -2.4447  1.1577
  607MOL0     H80071   6.659  10.823   0.648 -1.5112 -1.5793  0.9368
  607MOL0     H80072   6.621  10.807   0.820  0.7915 -1.0753  1.0420
  607MOL0     H80073   6.736  10.577   0.661  1.0063 -1.2752  1.2151
  607MOL0     H80074   6.702  10.577   0.832  2.5571  0.0234 -1.0684
  607MOL0     H80075   6.518  10.479   0.684 -1.4370  0.6782 -0.6589
  607MOL0     H80076   6.512  10.636   0.603  2.0256 -0.4898 -1.3719
  607MOL0     H80077   6.531  10.659   1.012 -1.4743  1.9967  0.3050
  607MOL0     H80078   6.208  10.751   1.144  1.7974 -1.2847  0.5867
  607MOL0     H80079   6.262  10.898   1.074 -3.1758 -0.9695 -0.0533
  607MOL0     H80080   6.458  10.708   1.216  0.0985  0.0998 -2.1094
  607MOL0     H80081   6.377  10.858   1.291 -2.7177  3.8825 -1.8948
  607MOL0     H80082   6.582  10.869   1.071 -0.3602 -0.7660  0.0864
  607MOL0     H80083   6.480  11.001   1.146 -1.0289 -0.3576 -1.2957
  607MOL0     H80084   6.663  10.832   1.317 -2.1198 -1.2368 -1.3530
  607MOL0     H80085   6.575  10.970   1.363  0.5830 -1.1977  1.1729
  607MOL0     H80086   6.925  11.120   1.148 -1.3881 -1.1672  0.6346
  607MOL0     H80087   7.103  11.253   1.273 -0.6381  0.0571 -0.9908
  607MOL0     H80088   7.191  11.656   1.415 -0.9556  0.9904  0.5412
  607MOL0     H80089   7.365  11.804   1.517  0.6285 -0.6410  0.8951
  607MOL0     H80090   7.664  11.891   1.621  0.6387 -0.4678 -0.8361
  607MOL0     H80091   7.596  11.771   1.496 -0.6440  0.5428 -0.1194
  607MOL0     H80092   7.734  11.604   1.598  3.6652  0.4295 -1.7358
  607MOL0     H80093   7.760  11.695   1.746 -0.3808 -1.6277 -0.2062
  607MOL0     H80094   7.961  11.703   1.617 -2.6995 -1.5057  2.4602
  607MOL0     H80095   7.885  11.863   1.590 -3.1296 -1.2938 -0.6848
  607MOL0     H80096   7.808  11.810   1.376 -1.2848 -0.4856  1.0041
  607MOL0     H80097   7.991  11.805   1.387  0.6745 -1.9143 -0.2620
  607MOL0     H80098   7.924  11.623   1.243 -1.6235  0.4902 -0.4720
  607MOL0     H80099   7.803  11.570   1.367 -0.3339  0.0806 -0.1370
  607MOL0     H80100   7.950  11.508   1.527  0.0025 -0.5702 -0.6781
  607MOL0     H80101   8.085  11.586   1.458  0.8474 -2.7219  1.4168
  607MOL0     H80102   8.050  11.425   1.246 -1.0725  0.4637  0.2148
  607MOL0     H80103   8.100  11.351   1.404  2.1237  2.3832 -0.3608
  607MOL0     H80104   7.820  11.357   1.297 -1.4696 -1.6569  0.3043
  607MOL0     H80105   7.890  11.280   1.447 -0.3459  0.0403 -0.0427
  607MOL0     H80106   7.513  11.489   1.751  0.3542 -0.9382 -1.8811
  607MOL0     H80107   7.368  11.333   1.657  1.6878  0.8337  1.4569
  607MOL0     H80108   6.838  11.210   1.623 -0.9815  0.5722  0.1137
  607MOL0     H80109   6.704  11.056   1.512 -0.9059 -0.6428 -1.5396
  607MOL0     H80110   7.555  10.995   0.541 -2.3175 -0.0756 -0.3903
  607MOL0     H80111   7.767  11.138   0.560  0.7036  3.0397 -0.4636
  607MOL0     H80112   7.931  11.542   0.746 -0.9531  2.0317  3.0936
  607MOL0     H80113   8.109  11.668   0.826 -0.5515 -1.0003 -0.7624
  607MOL0     H80114   8.442  11.487   1.138  0.4621 -0.1680  3.6530
  607MOL0     H80115   8.282  11.508   1.188  0.7099  0.6950  3.2593
  607MOL0     H80116   8.487  11.655   1.252 -0.2934  1.3728  0.7031
  607MOL0     H80117   8.483  11.714   1.098 -2.1688 -0.2102 -2.1088
  607MOL0     H80118   8.382  11.871   1.283 -0.8060  0.1512  1.4936
  607MOL0     H80119   8.236  11.768   1.273 -0.5881  2.0189 -0.8976
  607MOL0     H80120   8.247  11.833   1.007  1.0423 -0.7915  1.5268
  607MOL0     H80121   8.216  11.968   1.117 -3.8684 -2.4779 -0.8357
  607MOL0     H80122   8.599  12.053   0.963 -0.2836 -2.3628 -1.7633
  607MOL0     H80123   8.263  11.327   1.046  0.4092 -1.5252 -0.9802
  607MOL0     H80124   8.118  11.200   0.954 -0.0729  0.9469  2.2224
  608MOL0     O80125   4.999   3.693  11.031 -0.3768 -1.2212 -0.3876
  608MOL0     C80126   5.084   3.767  10.971  0.7323  1.1412 -0.7238
  608MOL0     O80127   5.046   3.888  10.917  0.7297  0.1916 -0.2737
  608MOL0     C80128   4.921   3.943  10.939 -0.5300  0.6252  0.4303
  608MOL0     C80129   4.833   3.915  11.045 -0.0840  0.5098 -0.9440
  608MOL0     C80130   4.711   3.984  11.055  0.0984  0.5030 -0.6147
  608MOL0     C80131   4.658   4.067  10.954  0.2763  0.3113  0.0922
  608MOL0     O80132   4.544   4.146  10.935 -0.0588 -0.4052 -0.1319
  608MOL0     C80133   4.421   4.109  10.989 -0.0591  0.0620 -0.2253
  608MOL0     C80134   4.401   4.152  11.132 -0.3622 -0.5710  0.3333
  608MOL0     C80135   4.291   4.060  11.194  0.3670  1.1408 -0.5328
  608MOL0     C80136   4.254   4.105  11.342  0.3597  0.2743 -0.2843
  608MOL0     C80137   4.143   4.022  11.399  0.6145  0.5494  0.4317
  608MOL0     C80138   4.182   3.874  11.439 -0.6047 -0.7070 -0.1414
  608MOL0     C80139   4.068   3.807  11.515 -0.4292  1.7123  0.1808
  608MOL0     C80140   4.141   3.675  11.566 -0.1255 -0.4947 -0.5361
  608MOL0     N80141   4.056   3.614  11.664  0.5967  0.3404 -0.3436
  608MOL0     C80142   3.938   3.541  11.628  0.2228  0.2268 -0.2010
  608MOL0     C80143   3.874   3.507  11.745  0.0392  0.2094 -0.2218
  608MOL0     C80144   3.755   3.422  11.753  0.1258 -0.0752  0.3501
  608MOL0     C80145   3.615   3.483  11.717 -1.0033 -0.3232  0.2863
  608MOL0     C80146   3.613   3.523  11.573  0.6558 -0.1786 -0.0044
  608MOL0     C80147   3.464   3.572  11.537 -0.2365 -1.1778  0.2346
  608MOL0     O80148   3.416   3.678  11.623  0.0392  0.3572 -0.2944
  608MOL0     C80149   3.277   3.698  11.612 -0.5053  0.0567 -1.0310
  608MOL0     C80150   3.179   3.602  11.633 -0.6141  0.2732  0.2337
  608MOL0     C80151   3.044   3.634  11.632 -0.1230  0.2336 -0.0186
  608MOL0     C80152   3.001   3.764  11.600 -0.6220  0.3428 -0.6413
  608MOL0     C80153   2.858   3.797  11.614  0.0386 -0.5671  1.1636
  608MOL0     O80154   2.819   3.928  11.645 -0.7367 -0.0070 -0.4882
  608MOL0     C80155   2.691   3.964  11.649 -0.4078 -0.1629 -0.2852
  608MOL0     C80156   2.642   4.020  11.761  0.3922  0.0684  0.0768
  608MOL0     C80157   2.521   4.089  11.768 -0.4223 -0.5528  0.6029
  608MOL0     C80158   2.438   4.092  11.652 -0.1157  0.1030 -0.2116
  608MOL0     O80159   2.315   4.153  11.648  0.5251 -0.1788 -0.4319
  608MOL0     C80160   2.240   4.162  11.533 -0.6332 -0.3921  0.3877
  608MOL0     C80161   2.150   4.280  11.550 -0.4134  0.7364  0.3911
  608MOL0     C80162   2.045   4.287  11.433  0.3578  0.0787  0.0537
  608MOL0     C80163   1.934   4.390  11.467 -0.1081 -0.4571  0.4620
  608MOL0     C80164   1.855   4.364  11.588  0.3702 -0.3214  0.3538
  608MOL0     C80165   1.735   4.466  11.597 -1.1481 -0.0529 -0.9442
  608MOL0     C80166   1.765   4.618  11.601 -0.5328 -0.9584 -0.1206
  608MOL0     C80167   1.642   4.692  11.588  0.5965  0.8921 -0.6327
  608MOL0    Cl80168   1.536   4.657  11.732 -0.1545  0.1778  0.4074
  608MOL0     C80169   2.482   4.023  11.537  0.3219  0.6658  0.6654
  608MOL0     C80170   2.606   3.957  11.536  0.0886 -0.5478 -0.3630
  608MOL0     O80171   2.776   3.711  11.597 -0.0835  0.2948  0.4416
  608MOL0     C80172   3.096   3.869  11.582 -0.7892  0.0154 -0.0107
  608MOL0     C80173   3.234   3.832  11.592  0.6157 -0.1603  0.1094
  608MOL0     N80174   3.962   3.550  11.842  1.0369 -0.3628  0.2295
  608MOL0     N80175   4.060   3.615  11.798  0.4565  0.1265 -0.4298
  608MOL0     C80176   4.742   4.080  10.844 -0.5825 -0.2342  0.5575
  608MOL0     C80177   4.872   4.028  10.838  0.3436 -0.0755 -0.0315
  608MOL0     C80178   5.211   3.705  10.951 -0.1880  0.9643 -0.1881
  608MOL0     C80179   5.329   3.786  10.950  0.0323 -0.2349  0.2005
  608MOL0     C80180   5.459   3.736  10.939 -0.0212 -0.3419 -0.5523
  608MOL0     C80181   5.479   3.603  10.957 -0.8554  1.0483 -0.0926
  608MOL0     O80182   5.590   3.516  10.946 -0.3975  0.1348  0.0082
  608MOL0     C80183   5.711   3.567  10.881 -0.5597 -0.0512  0.2830
  608MOL0     C80184   5.781   3.448  10.823 -1.0219 -0.0321 -0.4364
  608MOL0     C80185   5.925   3.487  10.772 -0.5586 -0.4295  0.6163
  608MOL0     C80186   6.018   3.367  10.750  0.5738  0.2497  0.0017
  608MOL0     C80187   5.963   3.268  10.654 -0.3280 -0.4290 -0.3281
  608MOL0     C80188   5.920   3.185  10.575 -0.6315  0.3709  0.1395
  608MOL0     C80189   5.361   3.523  10.980  0.4566  0.0849  0.5595
  608MOL0     C80190   5.224   3.566  10.970 -0.9232  0.8613  0.1167
  608MOL0     H80191   4.854   3.856  11.133 -0.3184 -0.5483 -1.5758
  608MOL0     H80192   4.658   3.981  11.150  1.4225  2.0782  0.2209
  608MOL0     H80193   4.417   4.000  10.986 -1.5350  0.1033 -0.6316
  608MOL0     H80194   4.345   4.146  10.919  0.0226 -1.0324 -0.9123
  608MOL0     H80195   4.385   4.260  11.139  3.2379  0.0743  0.4907
  608MOL0     H80196   4.494   4.138  11.188 -0.9234 -0.1922  1.3862
  608MOL0     H80197   4.325   3.957  11.196  1.4617  1.4977 -0.0917
  608MOL0     H80198   4.202   4.061  11.131  0.9655 -0.3159 -1.4201
  608MOL0     H80199   4.344   4.092  11.403 -1.7466 -3.9452  2.4204
  608MOL0     H80200   4.212   4.206  11.332 -2.6861 -1.1613 -4.5753
  608MOL0     H80201   4.062   4.014  11.327  4.6464  0.3116 -4.7050
  608MOL0     H80202   4.117   4.074  11.491 -3.6237  4.3834 -2.4780
  608MOL0     H80203   4.274   3.886  11.496 -0.5445  0.2257 -0.4094
  608MOL0     H80204   4.199   3.808  11.353 -1.2065 -2.2993  0.9133
  608MOL0     H80205   4.037   3.866  11.601 -2.8636  0.2960  0.3626
  608MOL0     H80206   3.979   3.780  11.457 -1.2927  0.9550  1.7950
  608MOL0     H80207   4.237   3.704  11.611 -0.0037  0.6059 -1.4854
  608MOL0     H80208   4.176   3.609  11.486  1.0011  2.0567 -2.2549
  608MOL0     H80209   3.890   3.513  11.535 -0.9639  1.8263 -0.1218
  608MOL0     H80210   3.743   3.384  11.855 -2.1200  2.7829  1.2742
  608MOL0     H80211   3.754   3.333  11.689 -2.4464  0.2177 -0.0833
  608MOL0     H80212   3.601   3.579  11.768 -1.0393  1.1643 -2.3923
  608MOL0     H80213   3.538   3.410  11.743 -0.5266 -1.3499 -1.1238
  608MOL0     H80214   3.684   3.601  11.544  2.3509 -1.9772 -0.9627
  608MOL0     H80215   3.650   3.444  11.508  3.7748  0.6149  0.6498
  608MOL0     H80216   3.393   3.490  11.553 -0.3479 -1.0590  0.3613
  608MOL0     H80217   3.448   3.598  11.432 -1.7543  0.0523  0.7242
  608MOL0     H80218   3.200   3.501  11.667 -1.0877  0.6764  1.7660
  608MOL0     H80219   2.983   3.548  11.658 -1.2508  0.4065 -1.8904
  608MOL0     H80220   2.711   4.020  11.845 -0.0349  0.7067  0.4409
  608MOL0     H80221   2.494   4.154  11.851 -1.8788  2.4541 -2.0555
  608MOL0     H80222   2.174   4.077  11.515 -1.3013 -0.6236  3.4660
  608MOL0     H80223   2.299   4.188  11.444  1.2336 -1.4536  1.2726
  608MOL0     H80224   2.218   4.365  11.544  0.1170  0.2011 -2.5115
  608MOL0     H80225   2.096   4.280  11.645  0.2796  2.5891  0.8296
  608MOL0     H80226   1.993   4.195  11.408 -2.3550  1.6127 -0.3342
  608MOL0     H80227   2.093   4.315  11.339  0.5610  1.6039  0.5828
  608MOL0     H80228   1.994   4.477  11.494  1.4623 -1.3185 -0.1169
  608MOL0     H80229   1.866   4.407  11.383 -1.9414 -2.6804  1.3891
  608MOL0     H80230   1.916   4.372  11.679 -0.3683  0.1106  0.8242
  608MOL0     H80231   1.815   4.262  11.585 -2.2745  0.3842  3.7985
  608MOL0     H80232   1.680   4.425  11.682 -0.2361 -2.3596 -1.3841
  608MOL0     H80233   1.667   4.452  11.512  0.1331  3.2115 -2.6550
  608MOL0     H80234   1.819   4.641  11.693 -1.7790  2.0807 -0.0304
  608MOL0     H80235   1.826   4.647  11.515 -1.8885 -0.2152 -0.8647
  608MOL0     H80236   1.583   4.664  11.499 -1.5051 -0.6123  1.1214
  608MOL0     H80237   1.672   4.797  11.590  2.6191  0.3281  0.6579
  608MOL0     H80238   2.420   4.015  11.449  1.9700  0.8118 -0.5479
  608MOL0     H80239   2.652   3.905  11.452  0.6598  0.7925 -0.8971
  608MOL0     H80240   3.058   3.969  11.562 -0.2377  0.0951 -0.6754
  608MOL0     H80241   3.299   3.912  11.559 -0.2476 -0.4198 -2.4738
  608MOL0     H80242   4.700   4.139  10.763 -0.5952  1.8150  1.9810
  608MOL0     H80243   4.935   4.052  10.752  0.6347  1.9402  0.6760
  608MOL0     H80244   5.300   3.890  10.950 -2.5998 -0.8793  1.7689
  608MOL0     H80245   5.542   3.803  10.924  0.0413  1.0324  4.1788
  608MOL0     H80246   5.762   3.603  10.971  0.7486 -0.4211 -0.2924
  608MOL0     H80247   5.702   3.639  10.799  3.3687 -0.8733 -1.0307
  608MOL0     H80248   5.792   3.373  10.902 -0.9872  1.9677  1.5563
  608MOL0     H80249   5.734   3.411  10.732 -0.2302 -0.6029 -0.6203
  608MOL0     H80250   5.964   3.564  10.839 -0.5097 -0.1715  0.2922
  608MOL0     H80251   5.904   3.531  10.674 -0.8643 -1.9528 -0.0389
  608MOL0     H80252   6.110   3.403  10.703  1.1339  1.6806  2.0310
  608MOL0     H80253   6.042   3.318  10.846  0.8592 -1.3478 -0.8505
  608MOL0     H80254   5.879   3.117  10.504 -2.2143  0.8366  0.5657
  608MOL0     H80255   5.386   3.420  11.005  0.3518 -0.2158 -0.5342
  608MOL0     H80256   5.146   3.492  10.987 -0.8141  0.7570  0.1613
  609MOL0     O80257   3.061  10.099   7.949 -1.1002  1.2173  0.2799
  609MOL0     C80258   3.146  10.016   7.969 -0.6336  0.8501  0.4300
  609MOL0     O80259   3.170   9.908   7.889  0.4240  0.2037  0.1716
  609MOL0     C80260   3.086   9.883   7.786  0.4617 -0.4882 -0.5405
  609MOL0     C80261   3.103   9.929   7.654 -0.8641  0.2759 -0.0688
  609MOL0     C80262   3.000   9.914   7.565  0.0500 -0.4264  0.4431
  609MOL0     C80263   2.880   9.841   7.602 -0.1810 -0.0824  0.0170
  609MOL0     O80264   2.779   9.827   7.513 -0.1560 -0.4005 -0.7616
  609MOL0     C80265   2.790   9.860   7.373  1.0421  0.0899 -1.0506
  609MOL0     C80266   2.669   9.805   7.296  0.3397 -0.0667  0.4455
  609MOL0     C80267   2.532   9.847   7.343 -0.2217  0.1504 -1.2894
  609MOL0     C80268   2.411   9.785   7.265  0.0458 -0.0333 -0.4229
  609MOL0     C80269   2.415   9.638   7.240 -0.5814  0.5477  0.4291
  609MOL0     C80270   2.300   9.582   7.141 -0.6334 -0.5005 -1.3723
  609MOL0     C80271   2.151   9.619   7.185  0.1197 -0.1294  0.2493
  609MOL0     C80272   2.098   9.549   7.304 -0.9705 -0.1902  0.0152
  609MOL0     N80273   1.961   9.588   7.336  0.7924  0.9449  0.4581
  609MOL0     C80274   1.916   9.709   7.362  0.5012 -1.0813  1.0641
  609MOL0     C80275   1.787   9.717   7.313  0.2124  0.5915  0.4986
  609MOL0     C80276   1.689   9.829   7.310  0.6186 -1.0481  0.3504
  609MOL0     C80277   1.545   9.781   7.303  0.5341  0.4038 -0.0138
  609MOL0     C80278   1.511   9.698   7.433 -0.3766 -0.0290  0.4112
  609MOL0     C80279   1.360   9.682   7.441  0.0555  0.5797 -0.3071
  609MOL0     O80280   1.324   9.583   7.539 -0.0466  0.3679 -0.1109
  609MOL0     C80281   1.190   9.561   7.565  0.5898 -0.2283 -0.7708
  609MOL0     C80282   1.157   9.462   7.654 -0.2983  0.6951 -1.0119
  609MOL0     C80283   1.022   9.441   7.695 -0.4298  0.2776 -0.6695
  609MOL0     C80284   0.913   9.507   7.651 -0.7527 -0.5233  0.1163
  609MOL0     C80285   0.768   9.491   7.694 -0.4135 -0.2936  0.0102
  609MOL0     O80286   0.686   9.584   7.645  0.0476  0.7563 -0.1935
  609MOL0     C80287   0.549   9.584   7.682 -0.8118 -0.6920  0.3534
  609MOL0     C80288   0.490   9.534   7.801 -0.9118 -0.4163 -0.0296
  609MOL0     C80289   0.352   9.542   7.820 -0.2220  0.3240 -0.1725
  609MOL0     C80290   0.269   9.607   7.730 -0.8496  0.1754  0.7994
  609MOL0     O80291   0.143   9.627   7.761  0.0282  0.3589  0.2894
  609MOL0     C80292   0.045   9.575   7.667 -0.6301  0.2089  0.7450
  609MOL0     C80293  -0.082   9.549   7.725  0.2210 -0.0612  0.0174
  609MOL0     C80294  -0.183   9.530   7.614 -1.0958 -0.2969 -0.6853
  609MOL0     C80295  -0.326   9.525   7.665 -0.5544  0.1575 -0.4696
  609MOL0     C80296  -0.413   9.454   7.564 -0.7843 -0.4800 -0.6908
  609MOL0     C80297  -0.550   9.441   7.622  0.6214 -0.1748  0.6214
  609MOL0     C80298  -0.641   9.380   7.514  0.3816 -0.0326 -0.3806
  609MOL0     C80299  -0.783   9.445   7.522 -0.2207 -0.2564 -0.3222
  609MOL0    Cl80300  -0.807   9.572   7.412 -0.3879  0.3483  0.1766
  609MOL0     C80301   0.325   9.653   7.609  0.4119  0.8542 -0.0216
  609MOL0     C80302   0.460   9.646   7.585 -1.6765 -0.4344  0.1628
  609MOL0     O80303   0.739   9.397   7.773  0.1984  0.5489 -0.3725
  609MOL0     C80304   0.946   9.611   7.554  0.4847  0.6333  0.4372
  609MOL0     C80305   1.082   9.633   7.512 -0.0104 -0.7182  0.6809
  609MOL0     N80306   1.764   9.598   7.252 -0.3092 -0.3357 -0.4331
  609MOL0     N80307   1.863   9.518   7.280 -0.4808 -0.4202 -0.6625
  609MOL0     C80308   2.863   9.789   7.734 -0.2171 -0.4174 -0.2958
  609MOL0     C80309   2.965   9.823   7.824  0.0664 -0.4463  0.2024
  609MOL0     C80310   3.239  10.030   8.082 -0.6009  0.2692  0.1239
  609MOL0     C80311   3.230  10.145   8.158 -0.0451 -0.3000 -0.0789
  609MOL0     C80312   3.285  10.144   8.284 -0.0664 -0.2927 -0.5747
  609MOL0     C80313   3.352  10.034   8.350  0.7996 -0.8238  1.1509
  609MOL0     O80314   3.413  10.042   8.467  0.2274 -0.9798 -1.4235
  609MOL0     C80315   3.376   9.942   8.561  0.7156  0.3251 -0.0920
  609MOL0     C80316   3.405   9.997   8.703  0.8577 -0.8663  0.6516
  609MOL0     C80317   3.315  10.126   8.725 -0.6627  0.7464 -0.1817
  609MOL0     C80318   3.355  10.193   8.858 -0.0029 -0.3205  0.4032
  609MOL0     C80319   3.267  10.308   8.886  0.5102  0.5824  0.2325
  609MOL0     C80320   3.195  10.397   8.914  0.9833  0.1780 -0.0869
  609MOL0     C80321   3.365   9.921   8.264  0.3093 -0.1877  0.2025
  609MOL0     C80322   3.307   9.912   8.139  0.3340 -0.8593 -0.2342
  609MOL0     H80323   3.203   9.964   7.629  0.0376 -1.2914  1.1392
  609MOL0     H80324   3.018   9.951   7.465 -2.4569  0.2865  0.1692
  609MOL0     H80325   2.884   9.817   7.336  2.2702  1.7107  0.0633
  609MOL0     H80326   2.777   9.968   7.361  0.2725  0.1452  0.1121
  609MOL0     H80327   2.685   9.696   7.292  0.4441 -0.0250 -1.3557
  609MOL0     H80328   2.664   9.831   7.190 -2.2225 -1.4055  0.1685
  609MOL0     H80329   2.521   9.956   7.343 -1.3249  0.1321  1.6013
  609MOL0     H80330   2.530   9.813   7.447  1.0165 -0.8493 -1.5728
  609MOL0     H80331   2.315   9.802   7.316  1.0186  0.7610  1.2102
  609MOL0     H80332   2.408   9.831   7.166 -1.2607 -0.5299 -0.6331
  609MOL0     H80333   2.411   9.587   7.337  0.9718 -1.7924 -0.6270
  609MOL0     H80334   2.509   9.601   7.198 -0.9434 -1.0099  0.9054
  609MOL0     H80335   2.300   9.474   7.123 -0.6411 -0.7700  0.1302
  609MOL0     H80336   2.319   9.631   7.046  0.0899 -1.4691 -1.7466
  609MOL0     H80337   2.158   9.727   7.202  1.8722 -0.2336  0.4438
  609MOL0     H80338   2.090   9.591   7.099 -0.0335  0.8254  0.0320
  609MOL0     H80339   2.156   9.569   7.395 -3.0557  0.0390  1.3612
  609MOL0     H80340   2.103   9.442   7.279  1.9345  0.5142 -3.1162
  609MOL0     H80341   1.987   9.789   7.378 -0.7603 -0.3665  3.7169
  609MOL0     H80342   1.715   9.898   7.228 -0.0352 -0.8319  0.3248
  609MOL0     H80343   1.701   9.892   7.399 -0.5429 -1.2397  0.6578
  609MOL0     H80344   1.527   9.724   7.212  1.9324  1.2820 -0.8843
  609MOL0     H80345   1.476   9.866   7.313 -0.6771 -0.6476  0.8228
  609MOL0     H80346   1.567   9.604   7.430 -0.2019  0.0205  1.4584
  609MOL0     H80347   1.558   9.746   7.520 -1.4634  0.1536  0.9187
  609MOL0     H80348   1.327   9.651   7.342 -0.2432  0.5361 -0.1955
  609MOL0     H80349   1.319   9.776   7.479  0.6714  0.8606 -0.3306
  609MOL0     H80350   1.237   9.405   7.699  1.1553  1.4588 -2.5318
  609MOL0     H80351   1.005   9.370   7.776  1.0137  1.5299  0.7971
  609MOL0     H80352   0.556   9.504   7.882 -0.7554  3.9432  1.7006
  609MOL0     H80353   0.322   9.522   7.923  1.2605 -0.0322  0.2159
  609MOL0     H80354   0.078   9.485   7.616 -0.4348  0.4205  0.4942
  609MOL0     H80355   0.035   9.656   7.594  1.3133 -0.0589  0.1331
  609MOL0     H80356  -0.118   9.630   7.789 -2.3986 -0.1638 -1.1846
  609MOL0     H80357  -0.079   9.453   7.777 -0.6643  0.4536  1.0594
  609MOL0     H80358  -0.154   9.442   7.556  0.1097 -1.5606  1.6914
  609MOL0     H80359  -0.177   9.615   7.545  3.5080 -0.4070 -0.7084
  609MOL0     H80360  -0.330   9.485   7.767  2.7155  0.4050 -0.1273
  609MOL0     H80361  -0.366   9.625   7.683  0.0059  1.0391 -3.5272
  609MOL0     H80362  -0.378   9.353   7.540  0.9953  0.2569 -1.3850
  609MOL0     H80363  -0.398   9.507   7.469 -0.0039  0.0719 -0.2772
  609MOL0     H80364  -0.587   9.540   7.650  0.4208 -0.4987  1.5231
  609MOL0     H80365  -0.556   9.374   7.708  0.2156 -1.8510 -0.6689
  609MOL0     H80366  -0.600   9.406   7.416  0.9189 -1.8218 -0.6567
  609MOL0     H80367  -0.652   9.273   7.533  0.8121 -0.0286 -0.0925
  609MOL0     H80368  -0.796   9.485   7.622 -3.0766 -3.7381  0.9253
  609MOL0     H80369  -0.864   9.377   7.496 -0.8906  0.8092 -1.1204
  609MOL0     H80370   0.256   9.700   7.540 -0.8230 -2.3716 -1.1697
  609MOL0     H80371   0.512   9.693   7.502 -0.0472  2.0705  2.4436
  609MOL0     H80372   0.866   9.678   7.525 -0.1890 -0.7863 -1.2190
  609MOL0     H80373   1.093   9.723   7.453 -1.5779  1.0057  2.8545
  609MOL0     H80374   2.790   9.721   7.776  0.0857 -1.3879 -1.3040
  609MOL0     H80375   2.949   9.770   7.917 -2.1915  2.2520  1.5164
  609MOL0     H80376   3.179  10.233   8.120  2.5688  0.7227 -1.5248
  609MOL0     H80377   3.302  10.242   8.328 -0.6546 -1.2105  1.8933
  609MOL0     H80378   3.449   9.864   8.541  0.6228  0.2433 -0.1180
  609MOL0     H80379   3.275   9.904   8.544  1.2782 -1.5237  0.5235
  609MOL0     H80380   3.376   9.926   8.781  0.4847 -0.1311  1.1958
  609MOL0     H80381   3.505  10.037   8.719 -0.0437  3.5717 -2.7117
  609MOL0     H80382   3.213  10.090   8.739 -0.5441  0.9122  1.2277
  609MOL0     H80383   3.322  10.199   8.644 -0.1741  0.9917  0.0743
  609MOL0     H80384   3.350  10.120   8.940  0.8845  1.1033  1.7691
  609MOL0     H80385   3.461  10.221   8.862  0.2116 -1.2399  1.7787
  609MOL0     H80386   3.133  10.479   8.945  1.7394  0.3212  1.1027
  609MOL0     H80387   3.420   9.840   8.309 -1.4789 -1.6759 -0.1517
  609MOL0     H80388   3.314   9.816   8.088  1.4931 -1.5844  1.2362
  610MOL0     O80389   4.046   0.730   6.845 -0.6243  0.2640 -0.1197
  610MOL0     C80390   3.986   0.707   6.951  0.0149  0.4170  0.1746
  610MOL0     O80391   4.034   0.635   7.057 -0.3756 -0.0096  0.2576
  610MOL0     C80392   4.171   0.611   7.051  0.5451 -0.5755 -0.9993
  610MOL0     C80393   4.218   0.483   7.043  0.4001  0.8628  1.0147
  610MOL0     C80394   4.359   0.451   7.067 -0.6448  0.7821 -0.4794
  610MOL0     C80395   4.453   0.556   7.073  0.5148 -0.6887  0.8839
  610MOL0     O80396   4.585   0.521   7.074 -0.2706 -0.3491 -0.4484
  610MOL0     C80397   4.675   0.577   7.165 -0.5824  0.0572 -0.2635
  610MOL0     C80398   4.813   0.529   7.139 -0.8157 -0.8967 -0.3027
  610MOL0     C80399   4.831   0.368   7.149  0.3524 -0.1400 -1.3784
  610MOL0     C80400   4.978   0.335   7.134 -0.1218 -0.3202 -0.5781
  610MOL0     C80401   5.008   0.323   6.986 -0.1631 -0.7499  0.4075
  610MOL0     C80402   5.159   0.330   6.969  1.0400 -0.0588  0.1385
  610MOL0     C80403   5.197   0.254   6.841  0.3058  0.1326 -0.4235
  610MOL0     C80404   5.193   0.322   6.714 -0.3630  0.2081  0.5658
  610MOL0     N80405   5.050   0.336   6.674 -0.4166  0.9149 -0.9723
  610MOL0     C80406   4.993   0.452   6.652  0.6562 -0.3792  0.2630
  610MOL0     C80407   4.860   0.420   6.629 -0.6967 -0.5531 -0.0848
  610MOL0     C80408   4.755   0.524   6.592 -0.2142  0.2114  0.3849
  610MOL0     C80409   4.741   0.644   6.691 -0.6707  0.4543  0.4719
  610MOL0     C80410   4.679   0.757   6.607 -0.3329 -0.0286 -0.1924
  610MOL0     C80411   4.659   0.883   6.689 -0.0641  0.1829  0.0114
  610MOL0     O80412   4.595   0.984   6.604 -0.6286  0.3868  0.0050
  610MOL0     C80413   4.463   1.019   6.628 -0.4817  0.8518 -0.5559
  610MOL0     C80414   4.424   1.149   6.640  1.0534  0.3761 -0.6037
  610MOL0     C80415   4.287   1.179   6.661  0.2004  0.0045  0.2458
  610MOL0     C80416   4.189   1.080   6.665  0.6314  0.0952  1.1707
  610MOL0     C80417   4.046   1.117   6.688  0.1022  1.1205 -0.2738
  610MOL0     O80418   4.021   1.218   6.778 -0.0638 -0.6149  0.3399
  610MOL0     C80419   3.890   1.265   6.759 -0.4213  0.3945 -0.3333
  610MOL0     C80420   3.875   1.396   6.705  0.2023  1.0754 -0.4644
  610MOL0     C80421   3.750   1.447   6.674 -0.0909  1.1246  0.8754
  610MOL0     C80422   3.635   1.367   6.702 -0.1605  0.8277  0.6232
  610MOL0     O80423   3.505   1.411   6.686 -0.1392  0.4894 -0.9066
  610MOL0     C80424   3.495   1.547   6.681 -0.3433  0.4524 -0.0583
  610MOL0     C80425   3.374   1.609   6.747  0.1860 -0.4075  0.1499
  610MOL0     C80426   3.380   1.582   6.891  0.5655 -0.3283 -0.5830
  610MOL0     C80427   3.274   1.658   6.967 -0.4837  0.7119 -0.4178
  610MOL0     C80428   3.311   1.670   7.117  0.0869  1.0573  0.2096
  610MOL0     C80429   3.183   1.667   7.204  0.0494  0.4099 -0.9097
  610MOL0     C80430   3.191   1.604   7.337  0.0046  0.4187  0.3063
  610MOL0     C80431   3.308   1.646   7.414 -0.6829  0.4456  0.8514
  610MOL0    Cl80432   3.263   1.695   7.572 -0.0759  0.1406 -0.4705
  610MOL0     C80433   3.651   1.239   6.762 -0.5086 -0.0028 -0.4167
  610MOL0     C80434   3.779   1.189   6.795  0.1594 -0.3851 -0.3549
  610MOL0     O80435   3.960   1.041   6.634 -0.1877  0.0885  0.7109
  610MOL0     C80436   4.232   0.952   6.642  0.7825  0.4540  0.0582
  610MOL0     C80437   4.367   0.918   6.626 -0.4749 -0.4643 -0.3777
  610MOL0     N80438   4.852   0.285   6.636  0.3159 -0.5464  0.3821
  610MOL0     N80439   4.963   0.236   6.657  0.5428 -0.1794 -0.7854
  610MOL0     C80440   4.408   0.689   7.088  0.8559  0.3553  0.8703
  610MOL0     C80441   4.269   0.715   7.080  0.8903 -0.6020  0.3104
  610MOL0     C80442   3.836   0.725   6.945 -0.0454 -1.1629 -0.0720
  610MOL0     C80443   3.782   0.810   6.842 -0.1618 -0.6967 -0.0185
  610MOL0     C80444   3.646   0.822   6.818  0.1139 -0.1508 -0.4341
  610MOL0     C80445   3.555   0.757   6.916  0.6514 -0.5635 -0.1289
  610MOL0     O80446   3.424   0.772   6.890  0.1622 -0.7467 -0.4819
  610MOL0     C80447   3.315   0.750   6.980  0.9601 -0.1675 -0.5276
  610MOL0     C80448   3.284   0.599   6.972 -0.1158 -0.0790 -0.5615
  610MOL0     C80449   3.190   0.559   7.088 -0.9331  0.8682 -0.7588
  610MOL0     C80450   3.075   0.658   7.110  0.2673  0.4609 -0.3141
  610MOL0     C80451   2.979   0.597   7.204 -0.3904  0.3335 -0.4371
  610MOL0     C80452   2.898   0.552   7.275 -0.7427  0.3805 -0.1719
  610MOL0     C80453   3.609   0.675   7.012  0.6246 -0.5589 -0.5568
  610MOL0     C80454   3.746   0.671   7.033 -0.6240  0.2396  0.4255
  610MOL0     H80455   4.149   0.399   7.036 -0.7297  1.1734  5.3832
  610MOL0     H80456   4.397   0.352   7.047 -1.0020 -0.3667  3.7095
  610MOL0     H80457   4.628   0.556   7.262 -2.0259  2.2350 -0.4243
  610MOL0     H80458   4.688   0.686   7.168  1.3550 -0.1505  2.2097
  610MOL0     H80459   4.891   0.577   7.197 -3.1592 -0.3535  2.6121
  610MOL0     H80460   4.821   0.562   7.035 -1.9141  0.9260  0.1463
  610MOL0     H80461   4.775   0.320   7.068 -0.0932 -1.3056 -0.4092
  610MOL0     H80462   4.797   0.336   7.247  0.3444  0.1201 -1.2959
  610MOL0     H80463   5.039   0.415   7.177 -0.5274  0.4707 -1.4315
  610MOL0     H80464   5.001   0.242   7.186  0.5276 -0.2515 -0.7332
  610MOL0     H80465   4.948   0.397   6.932 -2.6663 -0.1535  3.7049
  610MOL0     H80466   4.976   0.223   6.956 -0.5756 -0.7174  0.7354
  610MOL0     H80467   5.199   0.295   7.065 -0.1659  2.4859  1.6673
  610MOL0     H80468   5.201   0.431   6.966  3.5921 -1.0235  0.4035
  610MOL0     H80469   5.299   0.223   6.865  0.8003  2.2418  0.4355
  610MOL0     H80470   5.145   0.159   6.830  1.5097 -0.5001 -0.7398
  610MOL0     H80471   5.241   0.269   6.632 -1.1544  0.3264  0.0076
  610MOL0     H80472   5.248   0.416   6.715  0.1559 -0.0326 -1.3666
  610MOL0     H80473   5.033   0.552   6.646 -1.2577  0.5216  1.4515
  610MOL0     H80474   4.654   0.484   6.581  0.1500 -0.6086 -0.0859
  610MOL0     H80475   4.797   0.554   6.496  0.3280 -2.5973 -0.3527
  610MOL0     H80476   4.844   0.668   6.719 -0.8615  1.9565 -0.0036
  610MOL0     H80477   4.675   0.619   6.774  1.3086 -0.9647  1.7113
  610MOL0     H80478   4.739   0.781   6.519 -0.9378 -3.9271 -1.8802
  610MOL0     H80479   4.586   0.714   6.570 -1.0060 -1.0371  2.4002
  610MOL0     H80480   4.755   0.926   6.718  1.0790 -0.2232 -2.8504
  610MOL0     H80481   4.597   0.867   6.777 -0.8977 -2.0255 -0.9064
  610MOL0     H80482   4.504   1.222   6.640  1.1502  0.2812 -1.4559
  610MOL0     H80483   4.280   1.287   6.665  1.2900  0.0591  1.0882
  610MOL0     H80484   3.963   1.454   6.684  2.3893 -2.2320 -1.2442
  610MOL0     H80485   3.750   1.548   6.634 -0.5460  1.7705  2.4379
  610MOL0     H80486   3.503   1.576   6.576  0.0719  1.0264  0.1224
  610MOL0     H80487   3.572   1.589   6.746  1.4213  0.8031 -2.2236
  610MOL0     H80488   3.277   1.566   6.717  0.8019 -2.3606  0.7891
  610MOL0     H80489   3.381   1.717   6.731 -1.9101 -0.1359  0.7957
  610MOL0     H80490   3.474   1.613   6.937 -0.1973 -0.2402  0.9814
  610MOL0     H80491   3.373   1.475   6.911  0.0167 -0.1343  0.3090
  610MOL0     H80492   3.249   1.763   6.945 -1.8370  0.7720  1.2705
  610MOL0     H80493   3.182   1.600   6.955  0.8789 -2.3102  2.4049
  610MOL0     H80494   3.361   1.765   7.137 -2.2998  2.7465 -1.2977
  610MOL0     H80495   3.371   1.586   7.153  0.9139 -0.1321 -3.4743
  610MOL0     H80496   3.099   1.615   7.156  0.4353  0.9534 -2.2091
  610MOL0     H80497   3.153   1.771   7.215  0.4394  0.3175  2.0543
  610MOL0     H80498   3.103   1.627   7.398 -0.8122 -0.0455 -0.6772
  610MOL0     H80499   3.188   1.495   7.328 -1.1060  0.3579  1.1429
  610MOL0     H80500   3.364   1.728   7.369  4.5816 -1.3823  3.2398
  610MOL0     H80501   3.382   1.565   7.415 -0.3806  0.7181  0.5430
  610MOL0     H80502   3.570   1.178   6.799  1.9326 -1.0829  3.9247
  610MOL0     H80503   3.775   1.087   6.831  2.7723  0.4163  2.7097
  610MOL0     H80504   4.155   0.879   6.617  2.8348 -1.2121 -1.8547
  610MOL0     H80505   4.406   0.820   6.602  1.8771  0.3931 -0.3872
  610MOL0     H80506   4.474   0.769   7.121  1.0787  0.7412 -0.4613
  610MOL0     H80507   4.233   0.817   7.089 -0.1347 -0.5799 -2.8466
  610MOL0     H80508   3.852   0.866   6.779  1.1941  0.2595  2.2130
  610MOL0     H80509   3.615   0.883   6.734  4.0592  1.2288 -1.1042
  610MOL0     H80510   3.235   0.820   6.957  1.9968  0.4285 -2.6313
  610MOL0     H80511   3.359   0.775   7.077  0.4965  3.5163 -1.1327
  610MOL0     H80512   3.232   0.575   6.879  0.4467 -1.8635 -0.4515
  610MOL0     H80513   3.371   0.533   6.968 -0.0167 -0.3062  2.6832
  610MOL0     H80514   3.242   0.540   7.182 -0.8837 -2.2975 -1.3120
  610MOL0     H80515   3.158   0.457   7.065  2.8413 -0.1351 -2.2581
  610MOL0     H80516   3.105   0.753   7.155 -1.0828 -0.6684  3.3322
  610MOL0     H80517   3.023   0.672   7.014 -0.0166  1.3557 -0.0359
  610MOL0     H80518   2.819   0.511   7.335  1.1013 -2.3117  0.5912
  610MOL0     H80519   3.548   0.625   7.087  1.5939 -1.6572 -0.4636
  610MOL0     H80520   3.780   0.610   7.115 -0.8082 -1.1197 -0.4767
  611MOL0     O80521   9.691   0.379   8.654 -0.3990 -0.4623 -0.6220
  611MOL0     C80522   9.797   0.439   8.623  0.3280  0.1358 -0.7631
  611MOL0     O80523   9.799   0.564   8.570 -0.1170  0.3075  0.5043
  611MOL0     C80524   9.693   0.646   8.564 -0.7026  0.0426  0.0575
  611MOL0     C80525   9.688   0.697   8.433  0.3050 -0.6119  0.1695
  611MOL0     C80526   9.571   0.760   8.398  0.2554  0.1889  0.3716
  611MOL0     C80527   9.463   0.782   8.484  0.1734 -0.8618 -0.2049
  611MOL0     O80528   9.358   0.861   8.440 -0.3775 -0.6159  0.5403
  611MOL0     C80529   9.249   0.894   8.536  0.3378 -0.0491  0.1144
  611MOL0     C80530   9.140   0.988   8.472 -0.1601  0.3816  0.6111
  611MOL0     C80531   9.190   1.133   8.431 -0.1721 -0.2856  0.7053
  611MOL0     C80532   9.085   1.228   8.386  0.7779  1.1702  0.1928
  611MOL0     C80533   8.966   1.234   8.480 -0.3485 -0.4744 -0.8280
  611MOL0     C80534   8.887   1.374   8.472 -0.4721 -0.4301  0.3527
  611MOL0     C80535   8.770   1.354   8.377  1.2298  0.5766 -0.1706
  611MOL0     C80536   8.664   1.250   8.427  0.1429 -0.5293 -0.2818
  611MOL0     N80537   8.533   1.293   8.383 -0.6168  0.1628  0.3981
  611MOL0     C80538   8.462   1.401   8.424  0.5754  0.3645 -0.4202
  611MOL0     C80539   8.334   1.370   8.394 -0.1503  0.7081 -0.5207
  611MOL0     C80540   8.211   1.452   8.441 -0.5309 -0.1423  0.6208
  611MOL0     C80541   8.203   1.580   8.361 -0.0589 -0.0993  0.1417
  611MOL0     C80542   8.100   1.676   8.426 -0.0116 -0.2960 -0.9354
  611MOL0     C80543   7.951   1.645   8.416 -0.1262  0.3487 -0.2549
  611MOL0     O80544   7.904   1.595   8.287 -0.2988 -0.3172  0.1609
  611MOL0     C80545   7.845   1.670   8.188 -0.8481 -0.1282 -0.3993
  611MOL0     C80546   7.723   1.614   8.133  0.1039 -1.5116 -0.3952
  611MOL0     C80547   7.646   1.689   8.048  0.1841 -0.4640  0.0295
  611MOL0     C80548   7.702   1.806   7.999  0.8192  0.4793 -0.6019
  611MOL0     C80549   7.614   1.883   7.907 -0.4129  0.4520  0.6861
  611MOL0     O80550   7.669   1.967   7.812 -0.1610 -0.2364  0.0477
  611MOL0     C80551   7.589   2.012   7.707  0.3613  0.3859 -0.2617
  611MOL0     C80552   7.658   2.054   7.596 -0.4793 -0.7210 -0.4509
  611MOL0     C80553   7.599   2.116   7.486 -0.0538 -0.0164 -0.1003
  611MOL0     C80554   7.459   2.106   7.470 -0.2527 -0.1325 -0.9581
  611MOL0     O80555   7.382   2.145   7.365 -0.0590  0.5351 -0.3943
  611MOL0     C80556   7.388   2.288   7.362  0.2127  0.9800  0.1329
  611MOL0     C80557   7.287   2.331   7.238  0.7124 -0.0633 -0.8210
  611MOL0     C80558   7.158   2.403   7.295 -0.1225 -0.6818  0.0130
  611MOL0     C80559   7.202   2.556   7.329  0.0078  0.3346  0.3800
  611MOL0     C80560   7.098   2.633   7.401 -0.3160  0.1998  0.0865
  611MOL0     C80561   7.121   2.786   7.403 -0.2404  0.0571 -0.3344
  611MOL0     C80562   7.054   2.862   7.517  0.1192  0.4780 -0.0548
  611MOL0     C80563   6.906   2.863   7.482  1.0099 -0.4267 -0.4386
  611MOL0    Cl80564   6.797   2.934   7.613  0.2269 -0.1595  0.5777
  611MOL0     C80565   7.386   2.041   7.572  0.9141 -0.6943  0.4373
  611MOL0     C80566   7.446   1.997   7.689  0.1206  0.2142  0.1343
  611MOL0     O80567   7.496   1.871   7.927  0.4562 -0.8522  0.2508
  611MOL0     C80568   7.823   1.862   8.046  0.0295 -0.5974 -0.2487
  611MOL0     C80569   7.886   1.798   8.147 -0.0896 -0.4938 -0.5366
  611MOL0     N80570   8.333   1.249   8.337 -0.0769 -0.0873  0.6459
  611MOL0     N80571   8.450   1.200   8.333  0.3017 -0.4273 -0.0178
  611MOL0     C80572   9.475   0.734   8.615  0.4529  0.3638 -0.3753
  611MOL0     C80573   9.597   0.666   8.656 -0.1955  0.2664  0.1651
  611MOL0     C80574   9.920   0.361   8.650 -0.7896 -1.1402 -0.1809
  611MOL0     C80575   9.906   0.247   8.731 -0.2805  0.1447  0.4882
  611MOL0     C80576  10.021   0.173   8.755  0.7467 -0.5104 -0.6890
  611MOL0     C80577  10.145   0.202   8.698  0.1416 -0.3270 -0.3590
  611MOL0     O80578  10.269   0.145   8.726  0.3512 -0.6112  0.0458
  611MOL0     C80579  10.275   0.003   8.743  0.2590 -0.0196 -0.6101
  611MOL0     C80580  10.385  -0.034   8.656 -0.0482  0.7341  0.0362
  611MOL0     C80581  10.515   0.030   8.691  0.4940  0.2371 -0.2968
  611MOL0     C80582  10.593  -0.043   8.808  0.1433 -0.2925  0.8366
  611MOL0     C80583  10.725   0.010   8.831  1.2337  0.3609  0.3621
  611MOL0     C80584  10.830   0.065   8.837  0.4779 -0.3528 -0.3395
  611MOL0     C80585  10.155   0.310   8.608  0.0467  0.0696 -0.2011
  611MOL0     C80586  10.046   0.391   8.584 -1.0329  0.2174  0.0486
  611MOL0     H80587   9.758   0.687   8.351  2.7533 -0.5461  2.1103
  611MOL0     H80588   9.564   0.780   8.292  1.4779 -3.5802 -0.5768
  611MOL0     H80589   9.278   0.942   8.630  3.2544  1.2328 -1.2970
  611MOL0     H80590   9.199   0.802   8.569  1.7261 -1.7292 -2.1285
  611MOL0     H80591   9.062   0.995   8.549 -0.7579 -0.9435  0.1587
  611MOL0     H80592   9.093   0.933   8.390  2.2380  1.4078 -1.5749
  611MOL0     H80593   9.276   1.130   8.363  0.0771  1.5745  0.8901
  611MOL0     H80594   9.226   1.184   8.520 -0.0813 -2.2156  1.8335
  611MOL0     H80595   9.126   1.328   8.369  2.6860  0.6084  1.2418
  611MOL0     H80596   9.047   1.190   8.291  2.8453  0.2194 -0.3051
  611MOL0     H80597   9.003   1.236   8.583 -0.9098  1.1932 -0.6221
  611MOL0     H80598   8.898   1.153   8.453 -1.7473  0.5563 -0.5130
  611MOL0     H80599   8.937   1.464   8.436 -0.5058 -0.7841 -0.6073
  611MOL0     H80600   8.845   1.389   8.573  0.1803 -2.9605  1.0711
  611MOL0     H80601   8.730   1.456   8.377  0.7483  0.4103  1.6685
  611MOL0     H80602   8.795   1.330   8.273  0.7215  1.2167 -0.4464
  611MOL0     H80603   8.672   1.247   8.536  0.5036  2.1390 -0.1783
  611MOL0     H80604   8.676   1.145   8.398  1.2802 -0.1308 -1.3357
  611MOL0     H80605   8.500   1.487   8.478  4.7597 -3.2314  3.1905
  611MOL0     H80606   8.207   1.471   8.549  0.9758  0.7992  0.5542
  611MOL0     H80607   8.126   1.386   8.423  0.2144 -1.0209  0.2430
  611MOL0     H80608   8.179   1.543   8.261  0.4956 -1.3395  0.4561
  611MOL0     H80609   8.300   1.630   8.347  1.1299 -2.5325 -0.9132
  611MOL0     H80610   8.125   1.689   8.531 -1.9754  2.2409 -0.6763
  611MOL0     H80611   8.113   1.777   8.386 -1.7871  0.8355  1.1315
  611MOL0     H80612   7.886   1.726   8.449 -0.4225 -0.2037  0.5596
  611MOL0     H80613   7.933   1.567   8.491 -1.4554  1.2855  0.4428
  611MOL0     H80614   7.690   1.517   8.169 -0.2317 -1.1278  0.3467
  611MOL0     H80615   7.547   1.656   8.020 -0.5521  2.3572 -1.1132
  611MOL0     H80616   7.766   2.057   7.608 -0.5284 -1.5991  0.3607
  611MOL0     H80617   7.672   2.159   7.418  0.5793  1.2161  1.3202
  611MOL0     H80618   7.485   2.321   7.323  0.0234  2.9605  1.2255
  611MOL0     H80619   7.360   2.340   7.454 -2.7159 -0.9712  0.4816
  611MOL0     H80620   7.248   2.244   7.183 -1.0040  0.3020 -0.2609
  611MOL0     H80621   7.339   2.400   7.170  1.2023  0.4517  0.0530
  611MOL0     H80622   7.121   2.354   7.386  0.7728 -0.2965  0.5955
  611MOL0     H80623   7.078   2.405   7.221  1.2785  2.4373 -1.6080
  611MOL0     H80624   7.299   2.560   7.378 -0.1713 -0.4436  0.8125
  611MOL0     H80625   7.228   2.609   7.237  1.7130  1.5065  1.4793
  611MOL0     H80626   7.079   2.589   7.499  2.1589 -0.8473  0.1713
  611MOL0     H80627   7.004   2.621   7.346 -1.7899  2.3794  1.9846
  611MOL0     H80628   7.086   2.833   7.311 -1.9286  2.0078  1.2149
  611MOL0     H80629   7.229   2.807   7.405  0.1821 -1.9497  0.4188
  611MOL0     H80630   7.059   2.815   7.616 -0.3950 -0.0525 -0.2765
  611MOL0     H80631   7.096   2.963   7.518  4.0909 -0.9425 -2.3045
  611MOL0     H80632   6.861   2.763   7.472  1.1386 -0.3189 -2.4864
  611MOL0     H80633   6.890   2.910   7.385  2.3589  0.2737 -0.3489
  611MOL0     H80634   7.280   2.029   7.549  0.8991  1.7855 -1.1277
  611MOL0     H80635   7.373   1.955   7.757 -2.0235  2.3576 -0.7069
  611MOL0     H80636   7.846   1.965   8.020  1.5204 -1.2389 -1.6352
  611MOL0     H80637   7.968   1.859   8.182  0.4702 -0.2796 -2.1663
  611MOL0     H80638   9.399   0.744   8.693  1.2260 -1.1798  0.6333
  611MOL0     H80639   9.614   0.627   8.756 -1.5643  1.2952  0.8373
  611MOL0     H80640   9.814   0.207   8.773  0.9312 -1.3405  1.8417
  611MOL0     H80641  10.013   0.098   8.833 -0.9786 -0.2273 -0.5714
  611MOL0     H80642  10.181  -0.050   8.721 -0.0871  0.0059  0.6840
  611MOL0     H80643  10.308  -0.029   8.843  3.3799 -0.2713 -1.6135
  611MOL0     H80644  10.411  -0.139   8.667 -1.4355  0.3820  0.1180
  611MOL0     H80645  10.362  -0.011   8.551 -2.4596  2.8628  0.9044
  611MOL0     H80646  10.508   0.139   8.699  0.7038  0.5769 -3.5119
  611MOL0     H80647  10.577   0.015   8.602  0.0004  0.5602 -0.6964
  611MOL0     H80648  10.524  -0.035   8.892 -2.3392 -2.3291 -0.8355
  611MOL0     H80649  10.609  -0.149   8.790  3.4076  0.2587 -0.0546
  611MOL0     H80650  10.928   0.108   8.852  0.1503  0.3148 -0.0792
  611MOL0     H80651  10.250   0.325   8.557  1.3482  1.9241  2.5597
  611MOL0     H80652  10.055   0.476   8.517 -0.9429  0.0191 -0.1892
  612MOL0     O80653   2.922   9.332   5.274 -0.2765 -0.6091 -0.6951
  612MOL0     C80654   3.005   9.323   5.184  0.4353 -0.1081 -0.4173
  612MOL0     O80655   3.137   9.363   5.195  0.1870  0.3418  0.4899
  612MOL0     C80656   3.189   9.422   5.303  0.3267 -0.0146  0.2929
  612MOL0     C80657   3.225   9.354   5.419 -0.1430 -0.3751  0.5376
  612MOL0     C80658   3.244   9.430   5.530  0.0677  1.2081  0.3350
  612MOL0     C80659   3.246   9.567   5.536  0.3883 -0.6308  0.1964
  612MOL0     O80660   3.268   9.632   5.665  0.0168  0.4410  0.3671
  612MOL0     C80661   3.293   9.776   5.667 -0.0770 -0.8901 -0.2746
  612MOL0     C80662   3.320   9.840   5.804 -0.3272 -0.6717  0.6161
  612MOL0     C80663   3.423   9.757   5.876 -0.5637  0.6088 -0.6306
  612MOL0     C80664   3.448   9.819   6.003 -0.8122  0.5862 -0.4942
  612MOL0     C80665   3.505   9.709   6.099 -0.0350 -0.4772 -0.4082
  612MOL0     C80666   3.579   9.767   6.225  0.0960  0.7819  0.1295
  612MOL0     C80667   3.723   9.819   6.187 -0.1191  0.2081 -0.2399
  612MOL0     C80668   3.788   9.886   6.311 -0.7279 -0.7610 -0.9251
  612MOL0     N80669   3.728  10.017   6.350 -0.9927  0.4820  0.4226
  612MOL0     C80670   3.767  10.146   6.331 -0.9104 -0.0996 -0.7799
  612MOL0     C80671   3.665  10.222   6.379 -0.2521  0.1392  0.7460
  612MOL0     C80672   3.663  10.366   6.374  0.5327 -0.3121 -0.3292
  612MOL0     C80673   3.523  10.426   6.393  0.7255 -0.3292  0.0591
  612MOL0     C80674   3.508  10.575   6.357  0.9519  0.6957 -0.8740
  612MOL0     C80675   3.595  10.660   6.448 -0.5190  0.6594  0.3176
  612MOL0     O80676   3.543  10.792   6.432 -0.3057 -0.0684 -0.1833
  612MOL0     C80677   3.576  10.872   6.531  0.2586  1.0234 -0.1624
  612MOL0     C80678   3.481  10.969   6.559 -0.1096 -0.3205  0.2085
  612MOL0     C80679   3.493  11.048   6.675 -0.2935  0.5247 -0.5914
  612MOL0     C80680   3.604  11.038   6.756 -0.1394 -0.1717 -0.8248
  612MOL0     C80681   3.595  11.106   6.892 -0.3455 -0.3787 -0.3457
  612MOL0     O80682   3.672  11.057   6.995  0.1604  0.3010 -0.4920
  612MOL0     C80683   3.683  11.115   7.128 -0.0478  0.2454  0.4537
  612MOL0     C80684   3.629  11.237   7.167  0.2452  0.1754 -0.2889
  612MOL0     C80685   3.652  11.292   7.287 -1.0974 -0.5581 -0.1830
  612MOL0     C80686   3.750  11.234   7.365  0.0654  0.6304 -1.0527
  612MOL0     O80687   3.762  11.283   7.494 -0.3156  0.8343  0.2142
  612MOL0     C80688   3.846  11.226   7.593 -0.5584 -0.4329  0.2710
  612MOL0     C80689   3.829  11.296   7.734 -0.2123 -0.1667 -0.7829
  612MOL0     C80690   3.856  11.442   7.741  0.1635 -0.7060  0.6797
  612MOL0     C80691   4.004  11.455   7.781  0.6302 -0.4402  0.7685
  612MOL0     C80692   4.046  11.604   7.800 -1.2370 -0.0701 -0.6698
  612MOL0     C80693   4.198  11.609   7.828 -0.1449 -0.4971  0.7475
  612MOL0     C80694   4.266  11.746   7.814 -0.2840  0.1994  0.3852
  612MOL0     C80695   4.224  11.846   7.929  0.5792 -0.0675  0.1821
  612MOL0    Cl80696   4.284  11.785   8.094  0.5464  0.3344  0.0766
  612MOL0     C80697   3.817  11.111   7.331 -0.7728  0.0531  0.5125
  612MOL0     C80698   3.780  11.054   7.208 -0.1846 -0.2299  0.1035
  612MOL0     O80699   3.531  11.205   6.892 -0.0989 -0.8850 -0.2569
  612MOL0     C80700   3.706  10.946   6.724  0.1547 -0.6083  0.1639
  612MOL0     C80701   3.693  10.862   6.609  0.2467  1.1216 -0.2848
  612MOL0     N80702   3.568  10.136   6.423 -0.3408 -0.0667  0.2793
  612MOL0     N80703   3.601  10.015   6.402  1.5553 -0.2121 -0.2689
  612MOL0     C80704   3.224   9.635   5.417 -0.3536 -0.1660 -0.0397
  612MOL0     C80705   3.191   9.566   5.302  0.3117  1.2587  0.9335
  612MOL0     C80706   2.946   9.270   5.053  0.0686  0.0519 -0.2522
  612MOL0     C80707   3.018   9.278   4.931 -0.4120 -0.4461 -0.1837
  612MOL0     C80708   2.977   9.226   4.811  0.1341 -0.6185  0.0152
  612MOL0     C80709   2.847   9.182   4.811 -0.0335 -0.2501 -0.3038
  612MOL0     O80710   2.776   9.151   4.700  0.5448  0.2976  0.8408
  612MOL0     C80711   2.855   9.137   4.574  0.4087  0.2658 -1.0100
  612MOL0     C80712   2.762   9.072   4.467  0.3970 -0.0487 -1.6530
  612MOL0     C80713   2.806   9.089   4.322  0.3917  0.5841  1.0910
  612MOL0     C80714   2.704   9.055   4.216 -0.1920  0.3833 -0.4395
  612MOL0     C80715   2.655   8.917   4.234  0.1436 -0.3406  0.8849
  612MOL0     C80716   2.607   8.807   4.255  0.2522 -0.1952  0.2994
  612MOL0     C80717   2.771   9.175   4.932  0.0296 -0.7742  1.3649
  612MOL0     C80718   2.818   9.219   5.051  0.7347 -0.8452 -0.2345
  612MOL0     H80719   3.232   9.246   5.426 -0.0501 -0.5694 -1.8691
  612MOL0     H80720   3.251   9.370   5.619 -1.9853  0.7363  0.2326
  612MOL0     H80721   3.211   9.832   5.621  0.8286 -0.3749 -1.3055
  612MOL0     H80722   3.379   9.790   5.602 -0.3038  0.3271 -0.3488
  612MOL0     H80723   3.224   9.848   5.856 -0.9368 -2.7119 -0.1020
  612MOL0     H80724   3.359   9.942   5.793  0.8430 -0.9867  1.6555
  612MOL0     H80725   3.517   9.746   5.821 -0.3972 -4.2304  0.2393
  612MOL0     H80726   3.387   9.655   5.890  2.0553 -0.3899 -0.6706
  612MOL0     H80727   3.520   9.902   6.008 -0.9546  0.6155  2.0981
  612MOL0     H80728   3.357   9.867   6.040 -0.7403  0.1687  0.2283
  612MOL0     H80729   3.570   9.638   6.047  3.0330 -0.4873  3.0178
  612MOL0     H80730   3.425   9.644   6.134  0.4531 -1.2480 -0.6811
  612MOL0     H80731   3.585   9.683   6.295  0.7264  0.8128  0.1175
  612MOL0     H80732   3.516   9.853   6.249  2.3708  2.8329 -0.9006
  612MOL0     H80733   3.785   9.732   6.164  0.9048  1.2637 -1.6732
  612MOL0     H80734   3.708   9.884   6.100 -3.8078  0.3889  0.3941
  612MOL0     H80735   3.897   9.894   6.298 -0.4623 -1.4217  0.6405
  612MOL0     H80736   3.775   9.818   6.396  0.2185 -0.6539 -0.6848
  612MOL0     H80737   3.851  10.194   6.280 -2.2683  1.4191 -1.6738
  612MOL0     H80738   3.695  10.396   6.274  2.7743  0.7993  0.6609
  612MOL0     H80739   3.738  10.403   6.443 -0.0873  2.6676 -1.1119
  612MOL0     H80740   3.486  10.412   6.495 -1.3480  2.0511 -0.2864
  612MOL0     H80741   3.448  10.374   6.333  0.0444  2.8954 -2.1592
  612MOL0     H80742   3.526  10.601   6.252 -1.2421 -1.4299 -1.8890
  612MOL0     H80743   3.407  10.610   6.376  2.0485  3.0951  0.9636
  612MOL0     H80744   3.692  10.648   6.399 -1.1798  3.2327 -1.8041
  612MOL0     H80745   3.593  10.621   6.550  3.9164  1.0790  0.7757
  612MOL0     H80746   3.397  10.980   6.492  2.4965 -1.9582 -3.6349
  612MOL0     H80747   3.408  11.111   6.699 -1.8066 -2.3659  2.4326
  612MOL0     H80748   3.570  11.298   7.099 -0.8587  0.3268  0.7819
  612MOL0     H80749   3.629  11.396   7.307  0.3899 -0.1075 -0.7615
  612MOL0     H80750   3.952  11.223   7.568  0.0967  2.1333  2.2977
  612MOL0     H80751   3.817  11.122   7.613  2.2138 -1.6796 -1.5420
  612MOL0     H80752   3.895  11.246   7.806 -1.1483  0.8509  0.8282
  612MOL0     H80753   3.727  11.278   7.767 -1.2468  3.7747 -1.2797
  612MOL0     H80754   3.798  11.482   7.824 -3.8126  1.8227 -2.9220
  612MOL0     H80755   3.832  11.488   7.644 -0.4943 -2.1306  0.1408
  612MOL0     H80756   4.031  11.396   7.869  0.9048  0.6715  1.4460
  612MOL0     H80757   4.062  11.414   7.697 -0.4215  2.0153 -1.2676
  612MOL0     H80758   3.987  11.638   7.886 -1.8089 -0.1938 -1.0021
  612MOL0     H80759   4.016  11.668   7.716 -0.3552  2.1468  0.6150
  612MOL0     H80760   4.243  11.552   7.747 -0.4636  1.6352 -1.0251
  612MOL0     H80761   4.220  11.562   7.925 -0.2326  1.6531  1.8768
  612MOL0     H80762   4.374  11.731   7.821 -0.8367 -5.3837  1.8606
  612MOL0     H80763   4.234  11.776   7.713 -0.5502 -1.8839 -0.1974
  612MOL0     H80764   4.116  11.863   7.939  0.4978 -0.1396 -0.5086
  612MOL0     H80765   4.268  11.945   7.917  2.4385 -0.8575  0.0831
  612MOL0     H80766   3.896  11.061   7.386 -2.5946  0.8798  4.1858
  612MOL0     H80767   3.830  10.967   7.166  1.7316  1.1191 -0.5297
  612MOL0     H80768   3.782  10.921   6.797  0.6945 -2.2380 -0.9005
  612MOL0     H80769   3.767  10.787   6.585 -1.5979 -0.7158 -0.5350
  612MOL0     H80770   3.210   9.742   5.406 -2.4820 -0.2641  1.0945
  612MOL0     H80771   3.173   9.627   5.215 -3.5279  1.1442  1.4949
  612MOL0     H80772   3.120   9.318   4.932 -0.3840 -0.3417  3.0010
  612MOL0     H80773   3.039   9.205   4.724  2.1125 -0.2496  1.2881
  612MOL0     H80774   2.943   9.072   4.581  0.4864  0.2467 -2.0469
  612MOL0     H80775   2.891   9.228   4.525  0.4108 -0.0727 -1.6408
  612MOL0     H80776   2.767   8.966   4.495 -2.7353 -0.1099 -0.9443
  612MOL0     H80777   2.663   9.119   4.470  0.7281  0.6240 -0.2337
  612MOL0     H80778   2.899   9.036   4.297 -0.6941 -0.5606 -0.7346
  612MOL0     H80779   2.834   9.193   4.299 -0.8475  0.8462  0.7062
  612MOL0     H80780   2.628   9.132   4.229 -1.7940 -1.0176 -1.1873
  612MOL0     H80781   2.747   9.057   4.116  0.1443 -0.7385 -0.3347
  612MOL0     H80782   2.553   8.715   4.269 -0.9300 -0.2809 -3.8012
  612MOL0     H80783   2.669   9.147   4.910 -0.4790  2.7626 -1.8846
  612MOL0     H80784   2.749   9.210   5.134 -2.2487 -0.9526 -2.5476
  613MOL0     O80785  10.215   2.348   8.516  0.3978 -0.1242  0.2278
  613MOL0     C80786  10.109   2.321   8.464  0.0415 -0.5388  0.3071
  613MOL0     O80787  10.058   2.377   8.351  0.1182  0.2726 -0.9821
  613MOL0     C80788  10.133   2.474   8.292 -0.7554  0.2827 -0.1504
  613MOL0     C80789  10.145   2.600   8.344 -0.3746  0.0314 -0.3790
  613MOL0     C80790  10.183   2.698   8.250 -0.2477 -0.5317 -0.0602
  613MOL0     C80791  10.219   2.670   8.117 -0.1111 -1.0507  0.1067
  613MOL0     O80792  10.246   2.762   8.017 -0.4203 -0.4754 -1.0598
  613MOL0     C80793  10.240   2.909   8.050 -0.6397 -0.1284 -0.0786
  613MOL0     C80794  10.289   2.984   7.933  0.1326 -0.3948  0.9907
  613MOL0     C80795  10.216   2.953   7.798 -0.3041  0.1369 -0.4929
  613MOL0     C80796  10.065   2.931   7.804  0.4346 -0.1068  0.0352
  613MOL0     C80797  10.001   2.972   7.672 -0.2916  0.7782  0.7198
  613MOL0     C80798   9.858   2.915   7.668 -0.4367  0.4331 -0.2075
  613MOL0     C80799   9.784   2.982   7.549  0.5231  0.5892 -0.4645
  613MOL0     C80800   9.854   2.956   7.413 -0.0323 -0.1097  0.1710
  613MOL0     N80801   9.774   3.019   7.303 -0.5753 -0.4078 -0.8972
  613MOL0     C80802   9.680   2.960   7.229 -0.3605 -0.4606 -0.5519
  613MOL0     C80803   9.647   3.042   7.125  0.9199  0.7030 -0.5598
  613MOL0     C80804   9.547   3.021   7.018 -0.9342 -1.0040 -1.1751
  613MOL0     C80805   9.624   3.010   6.884 -0.0795 -1.0591  0.8501
  613MOL0     C80806   9.522   3.006   6.764 -0.4407  0.5049 -0.3554
  613MOL0     C80807   9.418   3.115   6.764 -0.9819 -0.2096 -0.4695
  613MOL0     O80808   9.340   3.114   6.648 -0.0916 -0.5150  0.2188
  613MOL0     C80809   9.271   3.227   6.622  0.2407 -1.2283  0.1006
  613MOL0     C80810   9.230   3.237   6.489 -0.7645 -0.9762  0.2616
  613MOL0     C80811   9.152   3.346   6.436  0.7137 -0.1628 -0.2395
  613MOL0     C80812   9.133   3.459   6.518 -0.5810  0.3185  0.0099
  613MOL0     C80813   9.066   3.585   6.474 -0.1483 -0.3500  1.4369
  613MOL0     O80814   9.044   3.673   6.564  0.2039  0.7583 -0.4502
  613MOL0     C80815   8.989   3.795   6.546 -0.6190 -0.2328 -1.2025
  613MOL0     C80816   8.985   3.879   6.433 -0.6580  0.2184 -0.3400
  613MOL0     C80817   8.912   4.000   6.418 -0.1946  0.1405 -0.5977
  613MOL0     C80818   8.835   4.041   6.528  0.4807  0.0360 -0.3723
  613MOL0     O80819   8.774   4.166   6.512 -0.2230 -0.2376 -0.6114
  613MOL0     C80820   8.754   4.238   6.634 -0.1786 -0.0054  0.0820
  613MOL0     C80821   8.717   4.384   6.626 -1.1043  0.1649 -0.0436
  613MOL0     C80822   8.570   4.409   6.586 -0.0509 -0.6471 -0.1386
  613MOL0     C80823   8.560   4.565   6.548 -0.5262  0.0835 -0.4289
  613MOL0     C80824   8.421   4.591   6.490  0.5417 -0.7350  1.3029
  613MOL0     C80825   8.392   4.741   6.474 -0.4189  0.1134  0.1571
  613MOL0     C80826   8.386   4.826   6.605  0.4585 -0.0536 -0.8428
  613MOL0     C80827   8.311   4.958   6.575  0.4343  0.0269 -0.7988
  613MOL0    Cl80828   8.257   5.037   6.734  0.1875  0.2262 -0.2966
  613MOL0     C80829   8.831   3.959   6.646  0.3692  0.4089 -0.3700
  613MOL0     C80830   8.910   3.839   6.658  0.7290  0.6144  0.5309
  613MOL0     O80831   9.040   3.603   6.353 -0.0098 -0.2198 -1.1950
  613MOL0     C80832   9.173   3.449   6.656 -0.3681  0.4646  0.0616
  613MOL0     C80833   9.241   3.342   6.706  0.4003  0.3967  0.1437
  613MOL0     N80834   9.722   3.157   7.144 -0.3695 -0.1207 -0.0712
  613MOL0     N80835   9.794   3.141   7.253  0.1552  0.2183 -0.4246
  613MOL0     C80836  10.231   2.542   8.080 -0.8068  0.5335 -0.0075
  613MOL0     C80837  10.187   2.434   8.160  0.2146  0.6844  0.3486
  613MOL0     C80838  10.009   2.236   8.534 -0.7107  0.4238  0.4793
  613MOL0     C80839  10.054   2.130   8.618  0.0381 -0.1851  1.0075
  613MOL0     C80840   9.958   2.049   8.686  0.4359  0.5794 -0.2133
  613MOL0     C80841   9.824   2.077   8.660  0.0609  0.8213  0.3745
  613MOL0     O80842   9.727   1.998   8.727 -0.0696  0.0457  0.0458
  613MOL0     C80843   9.585   2.020   8.710  0.7698  0.2461  0.3223
  613MOL0     C80844   9.517   1.905   8.791 -0.4971 -0.3554  0.4864
  613MOL0     C80845   9.488   1.962   8.935 -0.2438 -0.0138 -0.6698
  613MOL0     C80846   9.348   2.000   8.968  0.5517 -0.4905  0.9082
  613MOL0     C80847   9.321   2.030   9.106  0.1040  0.0478  0.1152
  613MOL0     C80848   9.295   2.069   9.219 -0.0058 -0.3163 -0.6886
  613MOL0     C80849   9.780   2.178   8.569 -0.0810  0.5310 -0.2392
  613MOL0     C80850   9.873   2.257   8.506 -0.0754 -0.3659 -1.3759
  613MOL0     H80851  10.103   2.632   8.439  1.4364  1.1745  0.0836
  613MOL0     H80852  10.171   2.800   8.285  1.9505 -0.7020  1.3855
  613MOL0     H80853  10.309   2.922   8.134  0.6947 -2.8511 -0.6422
  613MOL0     H80854  10.142   2.941   8.087  0.1166  0.0096  1.9730
  613MOL0     H80855  10.396   2.971   7.919  0.1120 -0.7601  1.1805
  613MOL0     H80856  10.280   3.092   7.950 -1.1707 -0.5451  1.3750
  613MOL0     H80857  10.255   2.874   7.734 -2.6188  0.4021 -2.4051
  613MOL0     H80858  10.229   3.041   7.734 -1.4268 -0.1649 -1.1727
  613MOL0     H80859  10.044   2.824   7.815  0.8744 -0.3214 -1.0437
  613MOL0     H80860  10.021   3.002   7.874 -0.9909 -2.2445  1.4514
  613MOL0     H80861  10.059   2.933   7.588  1.5260  1.5614  1.5681
  613MOL0     H80862  10.013   3.078   7.647 -2.8309  0.7864 -0.8446
  613MOL0     H80863   9.804   2.949   7.757  0.7843 -1.3890  1.2766
  613MOL0     H80864   9.852   2.806   7.671 -2.5956  0.4149 -2.0446
  613MOL0     H80865   9.680   2.948   7.555  0.1999  1.7247  0.8179
  613MOL0     H80866   9.779   3.091   7.561 -3.5020  0.8569 -2.8109
  613MOL0     H80867   9.867   2.852   7.383 -0.0856  0.0842 -0.5342
  613MOL0     H80868   9.947   3.013   7.406  0.2902 -0.4466  1.3442
  613MOL0     H80869   9.647   2.857   7.235 -0.5265 -0.6647 -3.5974
  613MOL0     H80870   9.471   3.099   7.031 -2.2517 -2.4363 -0.0285
  613MOL0     H80871   9.482   2.934   7.027 -1.6149 -0.4764 -0.8548
  613MOL0     H80872   9.679   2.916   6.876  0.7057 -0.9340  3.6713
  613MOL0     H80873   9.700   3.088   6.879  0.7229 -1.8735  0.0100
  613MOL0     H80874   9.564   3.012   6.664  0.0930  3.9332 -0.0628
  613MOL0     H80875   9.470   2.910   6.767 -0.1462  0.3442 -0.3418
  613MOL0     H80876   9.467   3.212   6.774  0.6055 -0.6060 -3.4386
  613MOL0     H80877   9.346   3.096   6.844 -0.4910 -0.1653 -0.0120
  613MOL0     H80878   9.238   3.158   6.415 -0.2466 -0.7083  0.0210
  613MOL0     H80879   9.123   3.356   6.332 -0.1628 -2.1472 -0.2318
  613MOL0     H80880   9.056   3.856   6.354 -0.1460  1.9840 -0.4298
  613MOL0     H80881   8.913   4.054   6.324 -0.7959 -0.7267 -1.1192
  613MOL0     H80882   8.853   4.250   6.679  0.1524 -1.9540 -0.0027
  613MOL0     H80883   8.683   4.187   6.700 -2.3351 -0.2468 -2.2670
  613MOL0     H80884   8.784   4.438   6.559 -1.9854  3.2398  1.3503
  613MOL0     H80885   8.732   4.433   6.723  2.0533  0.8316 -0.7846
  613MOL0     H80886   8.506   4.391   6.673 -0.5208  3.6639  0.6464
  613MOL0     H80887   8.526   4.354   6.502 -2.7347  1.4025 -0.2076
  613MOL0     H80888   8.580   4.613   6.644  2.9351 -1.4714 -0.2208
  613MOL0     H80889   8.632   4.597   6.472  0.9850  1.9525  1.6597
  613MOL0     H80890   8.343   4.546   6.553 -0.9686  0.2622  0.2108
  613MOL0     H80891   8.425   4.538   6.394  1.5125  0.0000  0.9311
  613MOL0     H80892   8.296   4.760   6.424 -0.5090 -1.5807 -0.3849
  613MOL0     H80893   8.463   4.794   6.409 -0.7464 -1.3996 -1.5145
  613MOL0     H80894   8.336   4.769   6.684  1.9489 -0.1917  0.0513
  613MOL0     H80895   8.489   4.847   6.635 -0.1061  2.3380 -0.4296
  613MOL0     H80896   8.218   4.942   6.521  1.0930 -0.5129 -1.8055
  613MOL0     H80897   8.377   5.027   6.522 -0.0028  1.6004  0.6206
  613MOL0     H80898   8.762   3.979   6.728 -2.0374  3.5066 -2.8906
  613MOL0     H80899   8.911   3.763   6.736 -2.9946  1.1501  1.2777
  613MOL0     H80900   9.150   3.522   6.733  1.5189  0.9283  0.2386
  613MOL0     H80901   9.270   3.345   6.810 -0.6047 -3.1192  0.6857
  613MOL0     H80902  10.260   2.525   7.977 -0.2669 -0.9532  0.3715
  613MOL0     H80903  10.182   2.331   8.125 -3.9916  1.0340 -0.6357
  613MOL0     H80904  10.160   2.114   8.631  0.6210  1.7050 -0.8484
  613MOL0     H80905   9.989   1.964   8.747  1.2503  0.1242 -1.2330
  613MOL0     H80906   9.547   2.011   8.607 -3.3263  0.3015  1.6468
  613MOL0     H80907   9.552   2.122   8.734 -2.7968 -0.1709 -1.9448
  613MOL0     H80908   9.424   1.867   8.748 -1.5437  0.8790  1.5522
  613MOL0     H80909   9.587   1.822   8.801  2.1002  1.8055  1.1885
  613MOL0     H80910   9.549   2.052   8.946 -3.4675  2.2292  0.1855
  613MOL0     H80911   9.523   1.892   9.012  3.1237  1.4761 -0.6403
  613MOL0     H80912   9.329   2.077   8.892  3.1599 -4.2333 -4.0775
  613MOL0     H80913   9.280   1.920   8.938 -2.5925  2.1035  0.4174
  613MOL0     H80914   9.250   2.107   9.309 -1.1026 -2.4969 -0.2635
  613MOL0     H80915   9.674   2.184   8.550  0.3137  0.5245 -2.7027
  613MOL0     H80916   9.843   2.337   8.440 -4.6056 -0.5833  0.0931
  614MOL0     O80917   3.110   7.791   7.916 -1.1599  0.0947  0.2644
  614MOL0     C80918   3.059   7.725   8.004 -0.6839  0.5147 -0.0804
  614MOL0     O80919   2.941   7.660   8.000  0.6559 -0.5006 -0.0461
  614MOL0     C80920   2.859   7.658   7.889  0.1614 -0.6977 -0.1643
  614MOL0     C80921   2.897   7.671   7.753 -0.6964  0.8050  0.8146
  614MOL0     C80922   2.801   7.658   7.659 -1.5322 -0.2366  0.9754
  614MOL0     C80923   2.665   7.630   7.687  0.4971  0.1227 -0.2689
  614MOL0     O80924   2.569   7.608   7.586 -0.0760 -0.0447  0.7443
  614MOL0     C80925   2.561   7.715   7.483  0.4992  0.0104 -0.1252
  614MOL0     C80926   2.490   7.839   7.539 -1.3664  0.5104  1.1193
  614MOL0     C80927   2.348   7.802   7.580  0.0149 -0.6728 -0.4961
  614MOL0     C80928   2.254   7.921   7.615  0.4657  0.2073  1.0935
  614MOL0     C80929   2.105   7.878   7.651 -1.5201  0.4302 -0.4285
  614MOL0     C80930   2.033   7.997   7.710 -0.3384 -0.7587 -0.8373
  614MOL0     C80931   1.879   7.967   7.740  0.2174 -0.5986 -0.4101
  614MOL0     C80932   1.787   7.977   7.619  0.2970  0.7050 -0.8786
  614MOL0     N80933   1.650   7.955   7.683  0.2914 -0.0964  0.3628
  614MOL0     C80934   1.541   8.037   7.677  0.2857  0.5166  0.8130
  614MOL0     C80935   1.442   7.961   7.724  0.1881 -0.3917 -0.3696
  614MOL0     C80936   1.298   8.009   7.715  0.0780  0.1470  0.3580
  614MOL0     C80937   1.198   7.975   7.832  0.5366  0.4544 -0.3537
  614MOL0     C80938   1.111   7.851   7.799 -0.9715 -2.1675  0.1188
  614MOL0     C80939   0.987   7.853   7.890 -0.2602  0.2310 -0.8077
  614MOL0     O80940   1.013   7.877   8.030  0.4283 -0.6934  0.0300
  614MOL0     C80941   0.910   7.842   8.107 -0.0646 -0.2974  0.1662
  614MOL0     C80942   0.933   7.782   8.232  0.0433 -0.2105  0.1823
  614MOL0     C80943   0.833   7.723   8.304 -0.1699 -0.4546  0.0847
  614MOL0     C80944   0.698   7.720   8.257  0.7144 -0.6949 -0.5897
  614MOL0     C80945   0.603   7.633   8.313 -0.0280 -0.3134  0.8572
  614MOL0     O80946   0.488   7.622   8.246 -0.2061  0.3716 -0.7370
  614MOL0     C80947   0.372   7.560   8.303  0.1057  0.3855 -0.6342
  614MOL0     C80948   0.366   7.425   8.341 -0.1751 -1.0733  0.1000
  614MOL0     C80949   0.261   7.376   8.417 -0.2313  0.0265  0.2864
  614MOL0     C80950   0.148   7.458   8.449 -0.6334  0.1521 -0.0965
  614MOL0     O80951   0.046   7.406   8.528  0.7591 -0.1823 -0.0357
  614MOL0     C80952  -0.082   7.474   8.530  0.3043  0.6063 -0.0012
  614MOL0     C80953  -0.169   7.368   8.572 -0.4393  0.6380 -0.5085
  614MOL0     C80954  -0.300   7.418   8.597  1.0285 -0.2982 -0.3182
  614MOL0     C80955  -0.317   7.501   8.726  0.8756 -0.2856  0.7357
  614MOL0     C80956  -0.454   7.572   8.734 -0.5086  0.4024  0.7089
  614MOL0     C80957  -0.570   7.478   8.762  0.7052 -0.4657 -0.9938
  614MOL0     C80958  -0.697   7.558   8.795 -0.1437 -0.0890  0.1934
  614MOL0     C80959  -0.818   7.487   8.851 -0.2072 -0.2492 -0.4980
  614MOL0    Cl80960  -0.844   7.526   9.017  0.0947  0.3393 -0.1066
  614MOL0     C80961   0.141   7.595   8.394 -0.3640  0.0639 -0.3265
  614MOL0     C80962   0.258   7.640   8.329 -1.0231  0.9808  1.0438
  614MOL0     O80963   0.634   7.584   8.420  0.4633  0.6639 -0.6589
  614MOL0     C80964   0.669   7.791   8.145 -0.0701  0.3743  0.7490
  614MOL0     C80965   0.773   7.854   8.069 -0.7231  0.0247 -0.4723
  614MOL0     N80966   1.483   7.839   7.758 -0.5991  0.1355 -0.1698
  614MOL0     N80967   1.607   7.834   7.723  0.7305  0.0108  0.6609
  614MOL0     C80968   2.631   7.612   7.823  0.6161 -0.0276  0.3912
  614MOL0     C80969   2.722   7.620   7.920 -0.9485 -0.6437 -0.2400
  614MOL0     C80970   3.136   7.702   8.122 -0.0663 -0.5712 -0.2876
  614MOL0     C80971   3.277   7.739   8.126 -0.6948 -0.3379 -0.0726
  614MOL0     C80972   3.353   7.722   8.240  0.3126  0.9673  0.1508
  614MOL0     C80973   3.290   7.665   8.352  0.3492  1.1588 -0.3577
  614MOL0     O80974   3.386   7.641   8.449  0.0857 -0.1354 -1.1116
  614MOL0     C80975   3.394   7.500   8.485 -0.4119  0.0447 -0.1145
  614MOL0     C80976   3.509   7.444   8.391 -0.1458 -0.9707 -0.5100
  614MOL0     C80977   3.642   7.527   8.388 -0.2270  0.5238 -0.0171
  614MOL0     C80978   3.691   7.562   8.524 -0.4713  0.0469  0.7766
  614MOL0     C80979   3.745   7.454   8.615  0.0352  1.1907 -0.1207
  614MOL0     C80980   3.800   7.363   8.685 -0.0020 -1.0517  0.2611
  614MOL0     C80981   3.157   7.613   8.352  0.6447 -0.4312  1.0514
  614MOL0     C80982   3.074   7.645   8.241 -0.2669  0.5261  0.1729
  614MOL0     H80983   2.999   7.685   7.719 -0.1222 -0.7979  1.8113
  614MOL0     H80984   2.832   7.674   7.557 -3.3001  3.6097  0.8586
  614MOL0     H80985   2.513   7.664   7.399 -1.4151 -2.2072  2.1720
  614MOL0     H80986   2.661   7.746   7.451  0.7296 -2.3536 -2.0436
  614MOL0     H80987   2.493   7.912   7.457 -1.2997 -0.8622 -0.1490
  614MOL0     H80988   2.547   7.870   7.626  3.5948 -0.4309 -1.4286
  614MOL0     H80989   2.346   7.732   7.663 -0.8054  1.1562  1.0976
  614MOL0     H80990   2.295   7.752   7.498 -0.0017 -0.5509 -0.5612
  614MOL0     H80991   2.302   7.977   7.696  2.5040 -0.0829  0.1694
  614MOL0     H80992   2.251   7.977   7.521 -3.9829 -3.0534 -1.0339
  614MOL0     H80993   2.103   7.795   7.723 -1.5522 -1.2244 -2.2766
  614MOL0     H80994   2.055   7.837   7.563 -0.1746 -0.3666 -0.8437
  614MOL0     H80995   2.024   8.082   7.641 -1.6650 -1.5574 -1.7008
  614MOL0     H80996   2.073   8.028   7.807 -2.3114  0.2827 -0.2934
  614MOL0     H80997   1.863   7.872   7.792 -2.4591  0.2518  0.4758
  614MOL0     H80998   1.830   8.035   7.810 -2.3565 -1.8361 -0.8922
  614MOL0     H80999   1.809   7.896   7.549 -0.2871 -0.9752  0.7824
  614MOL0     H81000   1.804   8.073   7.571  1.5117 -0.6174 -3.2513
  614MOL0     H81001   1.532   8.128   7.618  0.9824 -1.3509 -2.4706
  614MOL0     H81002   1.254   7.962   7.627 -2.3147 -0.4292  1.7581
  614MOL0     H81003   1.298   8.118   7.707  1.9511  0.0581 -1.6948
  614MOL0     H81004   1.129   8.060   7.833 -1.2084 -0.8996 -1.2305
  614MOL0     H81005   1.251   7.976   7.929  0.6114  0.9889 -0.3989
  614MOL0     H81006   1.079   7.841   7.694 -1.8488  0.6498  0.0475
  614MOL0     H81007   1.177   7.769   7.828 -0.6286 -1.0126  2.9019
  614MOL0     H81008   0.942   7.754   7.877 -0.5792  0.4633 -1.5271
  614MOL0     H81009   0.919   7.926   7.847 -1.2914 -1.7907 -2.8049
  614MOL0     H81010   1.034   7.793   8.270  0.6719 -1.0368 -1.1786
  614MOL0     H81011   0.870   7.672   8.393  1.7102 -0.7778 -0.8244
  614MOL0     H81012   0.448   7.359   8.316  1.9610  1.4080  0.1139
  614MOL0     H81013   0.262   7.271   8.441 -1.2467 -0.9466 -3.2908
  614MOL0     H81014  -0.112   7.521   8.436  2.9956  3.3140  0.3238
  614MOL0     H81015  -0.080   7.561   8.597 -0.3244  0.8353 -0.2719
  614MOL0     H81016  -0.124   7.316   8.657 -0.7774  1.8284  0.4296
  614MOL0     H81017  -0.168   7.301   8.486 -0.0035  1.7450 -1.3949
  614MOL0     H81018  -0.378   7.341   8.600 -1.5515  1.9680 -2.9447
  614MOL0     H81019  -0.325   7.491   8.520 -2.0009 -1.7548 -0.8829
  614MOL0     H81020  -0.293   7.423   8.799  1.0134 -3.8133 -2.6897
  614MOL0     H81021  -0.245   7.582   8.741  2.2799 -1.6700  1.9881
  614MOL0     H81022  -0.470   7.615   8.634  0.4240  3.7055  1.8801
  614MOL0     H81023  -0.454   7.655   8.805  2.7991 -2.8827  5.1586
  614MOL0     H81024  -0.553   7.421   8.854 -2.0273  0.4455  0.1833
  614MOL0     H81025  -0.591   7.412   8.677 -5.3728  1.6576 -1.6772
  614MOL0     H81026  -0.663   7.641   8.858 -0.4249  0.3593 -0.2340
  614MOL0     H81027  -0.724   7.607   8.701  2.2905 -0.2661 -0.6451
  614MOL0     H81028  -0.819   7.378   8.847 -1.1138 -0.3644  1.5712
  614MOL0     H81029  -0.908   7.511   8.795  0.1499 -1.7484 -1.7869
  614MOL0     H81030   0.058   7.664   8.406 -1.1588 -0.8334 -0.5389
  614MOL0     H81031   0.268   7.745   8.303 -1.7222  0.6743 -0.5845
  614MOL0     H81032   0.571   7.798   8.100  0.1822 -1.6021 -0.2218
  614MOL0     H81033   0.754   7.906   7.976  0.0913  0.8352 -0.2024
  614MOL0     H81034   2.528   7.584   7.843  0.8828 -0.1285  1.7245
  614MOL0     H81035   2.692   7.593   8.021 -1.2458  1.2153  0.2093
  614MOL0     H81036   3.323   7.782   8.038  0.9391 -2.6996 -0.4586
  614MOL0     H81037   3.451   7.769   8.239 -0.1307  1.9190  0.0907
  614MOL0     H81038   3.294   7.458   8.470 -0.8701  2.3132 -6.3174
  614MOL0     H81039   3.429   7.491   8.588  1.3891  1.5785 -0.5449
  614MOL0     H81040   3.531   7.342   8.425  2.5271  0.2970  1.9653
  614MOL0     H81041   3.464   7.429   8.292  0.0078 -3.1386 -0.3032
  614MOL0     H81042   3.631   7.617   8.326 -2.2314  0.5966  0.3885
  614MOL0     H81043   3.720   7.464   8.344 -3.9354 -2.3060 -3.2957
  614MOL0     H81044   3.759   7.642   8.492 -3.2380  0.6882 -4.5201
  614MOL0     H81045   3.620   7.612   8.590  1.0733  3.5562  0.0189
  614MOL0     H81046   3.834   7.287   8.752  0.7999 -1.5184 -0.6482
  614MOL0     H81047   3.110   7.558   8.432 -0.3622  1.1062  1.5581
  614MOL0     H81048   2.970   7.615   8.245  0.4715 -2.5983 -1.0267
  615MOL0     O81049   8.036   1.741   3.253 -0.2726 -0.2341 -0.1694
  615MOL0     C81050   8.015   1.667   3.345  0.1705  0.6496 -0.1526
  615MOL0     O81051   8.096   1.658   3.453  0.1389 -0.2652  0.3111
  615MOL0     C81052   8.214   1.725   3.459 -1.1181 -0.3006 -0.8003
  615MOL0     C81053   8.306   1.661   3.544  0.3093 -0.4042 -0.2805
  615MOL0     C81054   8.435   1.715   3.563  0.7955 -0.5116  0.5863
  615MOL0     C81055   8.467   1.848   3.494  0.8145 -0.0958  0.3022
  615MOL0     O81056   8.593   1.889   3.524 -0.3391 -0.6808  0.7587
  615MOL0     C81057   8.632   2.015   3.465 -0.2316 -0.7572 -1.0871
  615MOL0     C81058   8.780   2.040   3.515 -0.0162  0.0607  0.8103
  615MOL0     C81059   8.772   2.111   3.650  0.1337 -0.0012 -0.3109
  615MOL0     C81060   8.900   2.189   3.697  0.1296  0.0843 -1.0562
  615MOL0     C81061   8.898   2.225   3.848 -0.3654 -0.3851 -1.0643
  615MOL0     C81062   9.023   2.320   3.870 -0.5949 -0.5287 -0.8369
  615MOL0     C81063   8.988   2.462   3.924 -0.2007 -0.0085  0.0528
  615MOL0     C81064   9.088   2.570   3.876  0.4311  0.5740  0.3148
  615MOL0     N81065   9.085   2.588   3.729 -0.3796 -0.1633 -0.2713
  615MOL0     C81066   9.182   2.543   3.644  0.5136  0.9566 -0.0096
  615MOL0     C81067   9.127   2.532   3.522 -0.0777  0.4521  0.2964
  615MOL0     C81068   9.191   2.496   3.404  0.1703  0.2282  0.0382
  615MOL0     C81069   9.262   2.363   3.410 -0.3217  0.0583 -0.4276
  615MOL0     C81070   9.343   2.354   3.278 -0.0304  0.2091 -0.7975
  615MOL0     C81071   9.394   2.208   3.260  0.4528  0.3884 -0.9146
  615MOL0     O81072   9.518   2.197   3.337 -0.5104 -0.5227 -0.7457
  615MOL0     C81073   9.623   2.139   3.273  0.1091 -1.1884  0.1504
  615MOL0     C81074   9.610   2.031   3.194 -1.4340 -0.1149 -0.1679
  615MOL0     C81075   9.728   1.956   3.150  0.5359  0.0483 -0.1648
  615MOL0     C81076   9.856   1.997   3.194  0.5905 -0.3069 -1.0602
  615MOL0     C81077   9.975   1.927   3.158  0.4561  0.1025 -0.4186
  615MOL0     O81078  10.090   1.975   3.205  0.2384 -0.0295  0.6918
  615MOL0     C81079  10.204   1.902   3.203 -0.8482  0.6235  0.7787
  615MOL0     C81080  10.284   1.887   3.314  0.2168 -0.6174 -0.7434
  615MOL0     C81081  10.393   1.807   3.317 -0.8430 -0.2916  0.3825
  615MOL0     C81082  10.452   1.755   3.194  0.2889  0.9162  1.0702
  615MOL0     O81083  10.577   1.689   3.204 -0.1417  0.0844 -0.3352
  615MOL0     C81084  10.639   1.661   3.079  0.1148 -0.1520  0.5593
  615MOL0     C81085  10.763   1.573   3.083  0.4914  1.0191 -1.2444
  615MOL0     C81086  10.731   1.413   3.090 -0.1596 -0.3545  0.1731
  615MOL0     C81087  10.866   1.344   3.065  0.8212  0.9365  0.0441
  615MOL0     C81088  10.856   1.194   3.096 -0.5203 -0.5602  0.4295
  615MOL0     C81089  10.997   1.128   3.111 -0.2772  0.2342  1.0682
  615MOL0     C81090  10.988   1.015   3.219 -0.2849 -0.6408  0.6719
  615MOL0     C81091  11.090   0.906   3.204  0.3666  0.5628  1.0171
  615MOL0    Cl81092  11.090   0.805   3.354  0.0375  0.0359  0.0378
  615MOL0     C81093  10.377   1.775   3.076 -0.2060  0.7811  0.1406
  615MOL0     C81094  10.258   1.843   3.079 -0.1418 -0.2852  0.0210
  615MOL0     O81095   9.955   1.830   3.083  0.3447  0.9502 -0.3892
  615MOL0     C81096   9.870   2.112   3.286  0.3448 -0.3481  0.1032
  615MOL0     C81097   9.751   2.173   3.328  0.4240 -0.4904  0.7020
  615MOL0     N81098   8.998   2.582   3.538  0.5998 -0.1985  0.2249
  615MOL0     N81099   8.972   2.626   3.661  0.2033 -0.1251  0.0749
  615MOL0     C81100   8.369   1.920   3.420  0.4665  0.5648 -0.0764
  615MOL0     C81101   8.240   1.851   3.406 -1.0567 -1.2324  0.2880
  615MOL0     C81102   7.886   1.597   3.350  0.0953 -0.0633  0.4402
  615MOL0     C81103   7.841   1.533   3.469 -0.1708  0.2822  0.8564
  615MOL0     C81104   7.710   1.478   3.475  0.4875  0.5718  0.3045
  615MOL0     C81105   7.624   1.492   3.371  0.0606 -0.2892 -0.7496
  615MOL0     O81106   7.499   1.438   3.366  0.0754  0.9703 -0.6489
  615MOL0     C81107   7.492   1.298   3.352 -0.4185  0.2700 -1.1660
  615MOL0     C81108   7.366   1.263   3.426  0.1657  0.1961 -0.1939
  615MOL0     C81109   7.398   1.256   3.577 -0.4678 -0.0907  0.0433
  615MOL0     C81110   7.287   1.197   3.651  0.2416  0.8393 -1.1483
  615MOL0     C81111   7.326   1.194   3.793 -0.1151 -0.3459 -0.4042
  615MOL0     C81112   7.343   1.203   3.908  0.2425  0.7785 -0.3378
  615MOL0     C81113   7.659   1.572   3.264  0.6104  0.3902 -0.6855
  615MOL0     C81114   7.789   1.616   3.250  0.7109 -0.1564 -0.8137
  615MOL0     H81115   8.276   1.573   3.601 -0.5020  0.3391  0.4581
  615MOL0     H81116   8.503   1.658   3.626  0.6201 -0.2565  1.0079
  615MOL0     H81117   8.563   2.097   3.489  1.1080  0.6152 -1.7101
  615MOL0     H81118   8.639   2.004   3.356 -2.2045 -2.7301 -1.0807
  615MOL0     H81119   8.832   2.099   3.439  0.6020 -0.4746  0.8052
  615MOL0     H81120   8.839   1.948   3.523 -1.3613 -0.8388  0.5862
  615MOL0     H81121   8.743   2.045   3.732  0.6585 -0.8810 -0.8196
  615MOL0     H81122   8.697   2.189   3.635  0.3656  0.5553  1.2813
  615MOL0     H81123   8.981   2.127   3.657 -0.0714 -0.8469 -0.0508
  615MOL0     H81124   8.890   2.272   3.626 -2.9239 -0.9241 -1.9905
  615MOL0     H81125   8.912   2.136   3.911  0.6693 -0.0251 -0.7733
  615MOL0     H81126   8.801   2.264   3.880 -0.5634 -2.8081  1.6887
  615MOL0     H81127   9.076   2.326   3.774  3.4599  0.0324  1.2207
  615MOL0     H81128   9.099   2.283   3.939  0.1304 -0.4814 -1.5872
  615MOL0     H81129   8.884   2.491   3.904  0.3880  1.0707 -1.7112
  615MOL0     H81130   8.992   2.464   4.033  1.7527 -0.8452  0.0404
  615MOL0     H81131   9.189   2.550   3.910  0.0259 -1.9640  0.2146
  615MOL0     H81132   9.050   2.663   3.920 -0.8823  0.6748 -0.9382
  615MOL0     H81133   9.285   2.526   3.675 -0.0627 -0.9128  1.0370
  615MOL0     H81134   9.264   2.577   3.390  0.7090 -0.1783  0.4311
  615MOL0     H81135   9.115   2.511   3.327  0.0794  1.3790  0.3351
  615MOL0     H81136   9.196   2.277   3.423 -0.0481 -0.2460 -1.0312
  615MOL0     H81137   9.330   2.355   3.495  0.1677 -0.4502 -0.8596
  615MOL0     H81138   9.275   2.360   3.192  0.0554  1.9824 -0.7684
  615MOL0     H81139   9.425   2.423   3.254  1.5895 -1.3066  0.1250
  615MOL0     H81140   9.405   2.209   3.151 -0.6251  2.6738 -1.0625
  615MOL0     H81141   9.319   2.132   3.283 -0.5211  2.3898  3.5795
  615MOL0     H81142   9.529   1.998   3.129  0.4736 -0.9344 -2.2829
  615MOL0     H81143   9.720   1.877   3.076 -0.2084 -1.6201  1.5838
  615MOL0     H81144  10.264   1.940   3.407  2.1379 -1.6998  0.3461
  615MOL0     H81145  10.437   1.784   3.413  3.1670  1.6939 -0.7872
  615MOL0     H81146  10.668   1.757   3.035 -2.4199  1.6342  2.4431
  615MOL0     H81147  10.574   1.599   3.016  2.3240 -0.8059 -1.1871
  615MOL0     H81148  10.822   1.600   3.171 -2.6993 -2.9746  2.5958
  615MOL0     H81149  10.826   1.587   2.995 -1.7664 -0.1829 -3.1887
  615MOL0     H81150  10.656   1.378   3.019 -0.2550 -2.0463  1.0593
  615MOL0     H81151  10.683   1.391   3.186  1.0179  0.3102  0.9386
  615MOL0     H81152  10.902   1.352   2.962 -0.2385 -2.7876 -0.7771
  615MOL0     H81153  10.940   1.395   3.127  0.5848 -1.8101  2.8056
  615MOL0     H81154  10.793   1.152   3.017 -1.9145 -0.1924  1.2994
  615MOL0     H81155  10.794   1.179   3.185 -2.6260 -0.0993 -0.8952
  615MOL0     H81156  11.072   1.204   3.135 -0.5137 -0.2068  3.4552
  615MOL0     H81157  11.020   1.083   3.014 -1.5628  3.0156 -0.6556
  615MOL0     H81158  11.015   1.081   3.303  0.1600 -0.1086  0.1192
  615MOL0     H81159  10.886   0.978   3.235 -1.4073  2.7415  2.5227
  615MOL0     H81160  11.185   0.953   3.177  0.6277 -0.7406 -0.4937
  615MOL0     H81161  11.066   0.844   3.117  1.1197 -1.1069  1.9367
  615MOL0     H81162  10.414   1.721   2.990 -0.1376  0.5154  0.3368
  615MOL0     H81163  10.215   1.890   2.991 -1.7745 -2.6573 -0.5285
  615MOL0     H81164   9.966   2.154   3.315  0.7161  1.3986 -3.1464
  615MOL0     H81165   9.751   2.250   3.405 -3.8055 -1.1538  1.6347
  615MOL0     H81166   8.396   2.008   3.361  4.5102 -1.9944 -2.4913
  615MOL0     H81167   8.160   1.909   3.361  2.6811  0.7132 -4.9165
  615MOL0     H81168   7.898   1.541   3.561 -2.3033 -0.7596  2.3539
  615MOL0     H81169   7.661   1.438   3.563 -0.3626  1.0044  0.0370
  615MOL0     H81170   7.580   1.248   3.392  1.8286  3.3613 -1.8579
  615MOL0     H81171   7.486   1.282   3.243  1.8413  1.1581 -1.4775
  615MOL0     H81172   7.299   1.350   3.426 -0.4597 -0.1556  3.1042
  615MOL0     H81173   7.318   1.178   3.375 -2.6096  0.8677  1.0803
  615MOL0     H81174   7.416   1.356   3.617 -1.4124 -0.1746  0.7051
  615MOL0     H81175   7.482   1.186   3.578  0.9816  1.4233 -2.8878
  615MOL0     H81176   7.205   1.269   3.650 -0.4325  0.0967 -0.5474
  615MOL0     H81177   7.254   1.098   3.617  1.8380 -0.0556 -0.1986
  615MOL0     H81178   7.345   1.216   4.014 -0.7680 -0.9903 -0.0619
  615MOL0     H81179   7.586   1.591   3.186  0.1909 -0.6370 -0.5585
  615MOL0     H81180   7.815   1.667   3.158 -1.3809  1.8645 -0.3986
  616MOL0     O81181   4.885   7.838   0.371  0.3894 -0.8584 -0.2439
  616MOL0     C81182   5.004   7.820   0.343  0.0427 -0.1790 -0.7028
  616MOL0     O81183   5.103   7.915   0.342 -0.2247  0.1613  0.3727
  616MOL0     C81184   5.056   8.039   0.377  0.5177  0.4358 -0.9498
  616MOL0     C81185   5.057   8.084   0.512 -0.7610  0.8521 -0.9230
  616MOL0     C81186   5.006   8.208   0.547  0.0819 -0.0084  0.5649
  616MOL0     C81187   4.944   8.287   0.453 -0.1369 -0.2281  0.6684
  616MOL0     O81188   4.900   8.420   0.473  0.0300 -0.0028  0.7023
  616MOL0     C81189   4.878   8.482   0.597  0.3518 -0.1627 -0.2670
  616MOL0     C81190   4.828   8.623   0.579 -0.0592  0.3614 -1.0615
  616MOL0     C81191   4.696   8.636   0.510  0.3028 -0.2906  0.8097
  616MOL0     C81192   4.660   8.781   0.486 -0.5905  0.1844 -0.1192
  616MOL0     C81193   4.552   8.786   0.388  0.5233 -0.0647  0.5815
  616MOL0     C81194   4.416   8.716   0.424  1.1508  0.3042  0.6059
  616MOL0     C81195   4.305   8.726   0.316 -0.5980  0.2426 -0.4442
  616MOL0     C81196   4.234   8.871   0.306 -0.1905 -0.6303 -0.0909
  616MOL0     N81197   4.148   8.883   0.188 -0.2137  1.3880 -0.6927
  616MOL0     C81198   4.069   8.778   0.143 -0.9753 -0.1601  0.3748
  616MOL0     C81199   4.010   8.827   0.030 -0.5595 -0.1182 -0.4431
  616MOL0     C81200   3.891   8.759  -0.024  0.5216 -0.1143 -0.4059
  616MOL0     C81201   3.779   8.765   0.076  0.1372 -0.5586  0.1043
  616MOL0     C81202   3.749   8.900   0.151  0.1437  1.0719 -0.4431
  616MOL0     C81203   3.737   9.019   0.060 -0.1189 -0.1737  0.0355
  616MOL0     O81204   3.775   9.138   0.130 -0.3563  0.1482  0.3561
  616MOL0     C81205   3.835   9.231   0.045  0.2446 -1.0269 -0.1192
  616MOL0     C81206   3.759   9.282  -0.055 -0.0547 -0.1985  0.4257
  616MOL0     C81207   3.825   9.360  -0.162  0.7973 -0.1023  0.4724
  616MOL0     C81208   3.955   9.402  -0.147 -0.3312  0.2976  0.5667
  616MOL0     C81209   4.017   9.492  -0.246  0.2052 -0.3465 -0.7255
  616MOL0     O81210   3.926   9.532  -0.339 -0.0096 -0.1186 -0.0625
  616MOL0     C81211   3.988   9.598  -0.445  0.2393  0.5362  0.5207
  616MOL0     C81212   3.993   9.737  -0.467 -0.4262  0.9741 -0.2423
  616MOL0     C81213   4.013   9.792  -0.598 -0.2664  1.0443  0.2052
  616MOL0     C81214   4.060   9.707  -0.702  0.3811 -0.0989  0.0800
  616MOL0     O81215   4.075   9.761  -0.824 -0.2302  0.2934  0.2087
  616MOL0     C81216   4.139   9.687  -0.926  0.9082 -0.4656 -0.3418
  616MOL0     C81217   4.288   9.673  -0.899 -0.5504  0.2866 -0.2246
  616MOL0     C81218   4.344   9.532  -0.924  1.0704 -0.1914 -1.0153
  616MOL0     C81219   4.474   9.513  -0.858 -0.3027  0.5829  0.0554
  616MOL0     C81220   4.547   9.394  -0.916  0.1374 -0.7344 -0.4765
  616MOL0     C81221   4.697   9.398  -0.885  0.0078 -0.7451 -1.0816
  616MOL0     C81222   4.767   9.264  -0.926 -0.5941  0.1311  0.5064
  616MOL0     C81223   4.801   9.247  -1.075 -0.1201  0.6741  0.4732
  616MOL0    Cl81224   4.907   9.110  -1.115  0.3407 -0.0314 -0.5126
  616MOL0     C81225   4.083   9.571  -0.672  1.1618 -0.4301 -0.5434
  616MOL0     C81226   4.041   9.521  -0.548 -0.0215 -0.0980 -0.0721
  616MOL0     O81227   4.135   9.513  -0.246 -0.2055 -0.2191 -0.4151
  616MOL0     C81228   4.028   9.361  -0.034 -0.0801  0.3872  0.2213
  616MOL0     C81229   3.969   9.266   0.052 -0.8854  0.3742 -0.6977
  616MOL0     N81230   4.063   8.957   0.001  0.6085 -0.1679 -0.0941
  616MOL0     N81231   4.161   8.982   0.086  0.0245  0.6660 -0.5177
  616MOL0     C81232   4.941   8.238   0.322  0.7175  0.6212  0.1545
  616MOL0     C81233   4.987   8.118   0.287 -0.1343  0.1031 -0.0347
  616MOL0     C81234   5.032   7.683   0.308  1.5527 -0.5301 -0.4539
  616MOL0     C81235   5.162   7.649   0.298 -0.4246 -0.8666  0.0116
  616MOL0     C81236   5.203   7.526   0.237  0.0248 -0.8423  0.0278
  616MOL0     C81237   5.114   7.434   0.197  1.0800  0.2460 -0.2031
  616MOL0     O81238   5.144   7.309   0.153 -0.0813 -0.2154  0.0937
  616MOL0     C81239   5.279   7.249   0.151  0.7789 -0.5058  0.4207
  616MOL0     C81240   5.374   7.290   0.036  0.7238 -0.5203 -0.1514
  616MOL0     C81241   5.520   7.249   0.045  0.6864  0.8370 -0.9050
  616MOL0     C81242   5.588   7.330   0.157  0.3615 -0.1347 -0.8872
  616MOL0     C81243   5.732   7.294   0.145 -0.5168  0.2667 -0.0776
  616MOL0     C81244   5.847   7.272   0.135  0.6833 -0.1314 -0.4586
  616MOL0     C81245   4.976   7.467   0.236 -0.4169  0.9890  0.4875
  616MOL0     C81246   4.935   7.590   0.279 -0.0782 -0.7043  1.0357
  616MOL0     H81247   5.114   8.028   0.585 -1.1094 -0.9507 -1.9609
  616MOL0     H81248   5.010   8.245   0.648 -0.8824  0.1447  0.5522
  616MOL0     H81249   4.975   8.478   0.648 -0.2150 -2.5641  0.7404
  616MOL0     H81250   4.810   8.430   0.665  2.2196  0.9437  2.6249
  616MOL0     H81251   4.900   8.664   0.508 -0.6462 -0.4898 -2.1766
  616MOL0     H81252   4.833   8.674   0.676 -0.6085 -2.7110  0.7191
  616MOL0     H81253   4.614   8.583   0.559 -1.0215  1.5884  0.7303
  616MOL0     H81254   4.703   8.590   0.411  0.0310 -0.9060  1.0717
  616MOL0     H81255   4.627   8.827   0.579 -1.1734  0.1164 -0.2872
  616MOL0     H81256   4.755   8.822   0.449 -0.4774  0.0231 -0.0120
  616MOL0     H81257   4.581   8.744   0.291 -0.1460 -0.4081  0.5204
  616MOL0     H81258   4.525   8.892   0.377  0.3969 -0.1488  0.0470
  616MOL0     H81259   4.371   8.763   0.512 -0.7874  1.4247 -0.8892
  616MOL0     H81260   4.438   8.609   0.438  0.9909  0.1282 -0.3764
  616MOL0     H81261   4.349   8.707   0.217  2.4102  3.3149  0.1026
  616MOL0     H81262   4.230   8.651   0.341  0.6814 -0.3544  1.9789
  616MOL0     H81263   4.306   8.953   0.311 -3.2269  2.4070 -1.7961
  616MOL0     H81264   4.167   8.875   0.392 -1.6095 -0.4982 -1.1715
  616MOL0     H81265   4.048   8.682   0.188  0.5716  0.8072  3.4302
  616MOL0     H81266   3.913   8.655  -0.050  1.7951 -0.9491  3.3649
  616MOL0     H81267   3.861   8.813  -0.114  1.4817  1.0740 -0.0481
  616MOL0     H81268   3.793   8.680   0.143  3.4815 -1.8753 -1.9976
  616MOL0     H81269   3.682   8.745   0.030 -1.5734  1.4821  2.5399
  616MOL0     H81270   3.661   8.882   0.212  1.1570 -2.3213  0.2052
  616MOL0     H81271   3.833   8.918   0.220 -0.6772 -2.0334  1.5233
  616MOL0     H81272   3.643   9.030   0.006  0.2480  1.5788 -0.3134
  616MOL0     H81273   3.811   9.007  -0.020  0.9750  0.4301  0.9113
  616MOL0     H81274   3.654   9.260  -0.068 -0.7663  2.1513  1.5731
  616MOL0     H81275   3.770   9.380  -0.253  1.4437  1.1717  0.3360
  616MOL0     H81276   3.958   9.800  -0.387 -0.7720 -0.3398  0.6808
  616MOL0     H81277   3.998   9.896  -0.626 -1.6796  0.1995 -2.5711
  616MOL0     H81278   4.130   9.744  -1.019 -0.0233  0.8107  0.4979
  616MOL0     H81279   4.083   9.596  -0.950  0.0177 -0.1181  0.3499
  616MOL0     H81280   4.316   9.713  -0.801  0.3797 -2.0065  0.5042
  616MOL0     H81281   4.338   9.745  -0.965 -0.1467 -0.3818 -0.6494
  616MOL0     H81282   4.362   9.520  -1.032 -1.8633 -1.3007 -1.4594
  616MOL0     H81283   4.265   9.467  -0.886 -0.3890  3.9233  4.1621
  616MOL0     H81284   4.536   9.601  -0.877  1.1636 -0.4881 -0.3838
  616MOL0     H81285   4.471   9.500  -0.750  1.5163 -0.0311  0.0797
  616MOL0     H81286   4.523   9.368  -1.019 -1.1588 -1.6462  0.0396
  616MOL0     H81287   4.515   9.307  -0.858  0.2206 -1.2823 -1.2479
  616MOL0     H81288   4.720   9.400  -0.779  0.2057 -0.3222 -1.1304
  616MOL0     H81289   4.752   9.482  -0.929  0.8735  0.2265  1.6559
  616MOL0     H81290   4.867   9.253  -0.881  0.8004  1.7253 -1.9632
  616MOL0     H81291   4.705   9.178  -0.897  0.2853 -0.6982  0.0201
  616MOL0     H81292   4.840   9.343  -1.111  0.3174 -0.2597 -1.7499
  616MOL0     H81293   4.708   9.238  -1.132 -1.4603  1.4940  2.4397
  616MOL0     H81294   4.128   9.502  -0.742  1.4253 -1.1809  0.3498
  616MOL0     H81295   4.053   9.414  -0.531 -0.0612 -0.0108  0.5169
  616MOL0     H81296   4.133   9.388  -0.027 -0.2528  2.5780 -3.3793
  616MOL0     H81297   4.029   9.216   0.128 -1.0317  2.2749  0.7388
  616MOL0     H81298   4.902   8.296   0.239  1.3176 -1.4517 -1.6777
  616MOL0     H81299   4.986   8.084   0.184 -2.7030  1.7621 -0.6260
  616MOL0     H81300   5.237   7.718   0.335 -0.4981 -1.6387  1.6772
  616MOL0     H81301   5.311   7.512   0.231  0.1004 -0.2972  0.0140
  616MOL0     H81302   5.268   7.141   0.142 -1.4697 -0.1952 -1.7793
  616MOL0     H81303   5.334   7.267   0.244  0.5358  3.3089 -0.0010
  616MOL0     H81304   5.329   7.252  -0.057 -0.0842  2.5618 -1.1240
  616MOL0     H81305   5.375   7.399   0.028 -1.7569 -0.4983 -0.9862
  616MOL0     H81306   5.563   7.281  -0.050  0.7196  1.7569 -0.5888
  616MOL0     H81307   5.539   7.143   0.059  1.4924  0.7501 -2.4032
  616MOL0     H81308   5.576   7.439   0.156  3.4835  0.4053  2.1935
  616MOL0     H81309   5.560   7.303   0.259 -0.6977 -0.2846 -1.2011
  616MOL0     H81310   5.953   7.252   0.132  0.6761 -0.4224  0.5969
  616MOL0     H81311   4.898   7.391   0.242  0.9262 -0.3571  2.0463
  616MOL0     H81312   4.830   7.608   0.297 -0.0471  0.8613 -0.0990
  617MOL0     O81313   9.189   9.793   0.197  0.5035 -0.8507 -0.5911
  617MOL0     C81314   9.304   9.794   0.244  0.2419 -0.2184 -0.3237
  617MOL0     O81315   9.357   9.703   0.317  0.2224  0.1984  0.4531
  617MOL0     C81316   9.296   9.583   0.337  0.7282  0.0968  0.0308
  617MOL0     C81317   9.202   9.519   0.260 -0.0619  0.2609  1.7128
  617MOL0     C81318   9.151   9.384   0.292  0.3094  0.1074 -0.5935
  617MOL0     C81319   9.188   9.320   0.405 -0.2521 -0.5442 -0.4568
  617MOL0     O81320   9.140   9.195   0.443  0.9714  0.5149  0.8866
  617MOL0     C81321   9.142   9.087   0.348 -0.7029 -0.0991  1.2179
  617MOL0     C81322   9.103   8.957   0.412  0.7533 -0.3764 -1.0561
  617MOL0     C81323   9.203   8.929   0.530 -0.5340  0.7465  1.1137
  617MOL0     C81324   9.222   8.775   0.539 -0.7247 -0.5702 -0.2926
  617MOL0     C81325   9.300   8.737   0.674  0.6010 -0.2615  0.6458
  617MOL0     C81326   9.335   8.580   0.686 -0.7559  0.1322  0.0079
  617MOL0     C81327   9.213   8.495   0.699  0.5672 -0.4734  0.2897
  617MOL0     C81328   9.236   8.340   0.729 -0.6150 -0.2557  0.2796
  617MOL0     N81329   9.298   8.271   0.616 -0.1259 -0.6690  0.3589
  617MOL0     C81330   9.427   8.217   0.611  0.3161 -0.7907 -0.4003
  617MOL0     C81331   9.426   8.148   0.498  0.4501  0.1700  0.2384
  617MOL0     C81332   9.540   8.061   0.450  0.3340  0.0939 -0.4511
  617MOL0     C81333   9.662   8.148   0.407 -0.1443 -0.1361 -0.7228
  617MOL0     C81334   9.649   8.241   0.289  0.7841 -0.1468  0.1840
  617MOL0     C81335   9.608   8.172   0.164  0.4730 -1.2325 -0.7137
  617MOL0     O81336   9.467   8.146   0.162  0.0268 -0.1311  0.1157
  617MOL0     C81337   9.422   8.083   0.047 -0.0584  0.2534  0.5162
  617MOL0     C81338   9.489   8.055  -0.077  0.0841 -0.3843  0.7449
  617MOL0     C81339   9.428   7.979  -0.181  1.3844 -0.2698 -0.1734
  617MOL0     C81340   9.298   7.925  -0.158 -0.5768  0.5473 -0.9668
  617MOL0     C81341   9.229   7.831  -0.254 -1.1638 -1.6153  0.2691
  617MOL0     O81342   9.115   7.774  -0.223  0.6429  0.4411 -0.7060
  617MOL0     C81343   9.038   7.715  -0.320  0.1086  0.5733 -0.1270
  617MOL0     C81344   8.994   7.587  -0.293  0.4896  0.2224 -0.4035
  617MOL0     C81345   8.930   7.519  -0.389 -0.3963  0.0549  0.0696
  617MOL0     C81346   8.902   7.562  -0.517  0.6855 -0.6366  0.1939
  617MOL0     O81347   8.808   7.485  -0.582  0.1129  0.6128  0.8300
  617MOL0     C81348   8.728   7.541  -0.695 -0.2755 -0.2234 -0.1440
  617MOL0     C81349   8.581   7.495  -0.667 -0.1245 -0.3004  0.1183
  617MOL0     C81350   8.557   7.344  -0.647 -0.3551 -0.2073  0.0939
  617MOL0     C81351   8.406   7.307  -0.632 -0.5452  0.8765 -0.3541
  617MOL0     C81352   8.367   7.157  -0.627 -0.0794  0.1067 -0.0090
  617MOL0     C81353   8.231   7.134  -0.560 -0.6886  0.2765 -0.1138
  617MOL0     C81354   8.180   6.984  -0.562  0.1369  0.1748 -1.1556
  617MOL0     C81355   8.032   6.988  -0.497 -0.3341 -0.3945  0.3421
  617MOL0    Cl81356   7.903   7.061  -0.596  0.0643 -0.0472 -0.1725
  617MOL0     C81357   8.926   7.701  -0.543 -0.0499 -0.0479  0.6390
  617MOL0     C81358   8.996   7.774  -0.449  0.4525  0.9302  0.5400
  617MOL0     O81359   9.290   7.816  -0.357 -0.1104  0.0780  0.7995
  617MOL0     C81360   9.233   7.956  -0.053  0.8932 -0.8389 -0.0900
  617MOL0     C81361   9.292   8.029   0.045  0.5920 -0.6514 -0.2450
  617MOL0     N81362   9.308   8.154   0.435  0.3607 -0.2116 -0.4172
  617MOL0     N81363   9.237   8.235   0.500 -0.2155 -1.0114  1.1113
  617MOL0     C81364   9.277   9.391   0.493 -0.2999 -0.2769  0.2111
  617MOL0     C81365   9.328   9.522   0.465 -0.0835 -0.2623  1.0138
  617MOL0     C81366   9.395   9.905   0.188 -0.4429  0.2290 -0.8626
  617MOL0     C81367   9.387   9.939   0.056  0.7460  0.3296  0.3114
  617MOL0     C81368   9.477  10.035  -0.001 -0.0058 -0.3328  0.2920
  617MOL0     C81369   9.584  10.087   0.072 -0.1524 -1.2033 -0.0075
  617MOL0     O81370   9.686  10.172   0.032 -0.1768  0.3768 -0.3036
  617MOL0     C81371   9.680  10.217  -0.101 -0.3235  0.1290  0.1468
  617MOL0     C81372   9.581  10.333  -0.117 -0.4436  0.4126  0.4013
  617MOL0     C81373   9.567  10.384  -0.263 -0.1090 -0.7526 -0.0374
  617MOL0     C81374   9.468  10.504  -0.263  0.1601 -0.6890  0.1961
  617MOL0     C81375   9.331  10.462  -0.221  0.1046 -0.2648  0.5576
  617MOL0     C81376   9.225  10.415  -0.178  0.0388  0.2923  0.3878
  617MOL0     C81377   9.596  10.046   0.202 -0.7604 -1.1139 -0.3538
  617MOL0     C81378   9.499   9.960   0.259 -0.3706 -0.2611 -0.1428
  617MOL0     H81379   9.174   9.553   0.161 -1.7354 -1.9728  1.3389
  617MOL0     H81380   9.083   9.326   0.230 -1.9531 -1.6707  3.1747
  617MOL0     H81381   9.249   9.080   0.326 -0.6523 -0.6335  1.6238
  617MOL0     H81382   9.089   9.112   0.255  0.0581  0.4812  0.9276
  617MOL0     H81383   9.105   8.877   0.338  2.2312 -1.9177  0.5652
  617MOL0     H81384   9.002   8.952   0.453  0.7077  0.1287 -1.1031
  617MOL0     H81385   9.162   8.976   0.620 -0.0730  1.2217  1.0872
  617MOL0     H81386   9.297   8.985   0.529  0.3721 -0.5357  4.0493
  617MOL0     H81387   9.136   8.711   0.516  1.8537 -4.2152 -0.7491
  617MOL0     H81388   9.288   8.746   0.457  1.2779  1.1495  0.6210
  617MOL0     H81389   9.237   8.771   0.756 -1.9299 -2.3827 -0.2928
  617MOL0     H81390   9.397   8.789   0.676  0.7073  0.0236 -3.1354
  617MOL0     H81391   9.401   8.566   0.771 -2.3789  0.7039  1.4145
  617MOL0     H81392   9.405   8.555   0.605 -1.0860 -0.3276 -0.1411
  617MOL0     H81393   9.145   8.527   0.778  1.2422 -4.7289  2.8895
  617MOL0     H81394   9.157   8.508   0.606 -0.3104  0.0047  0.8718
  617MOL0     H81395   9.144   8.287   0.755  0.4327 -2.1664  0.3106
  617MOL0     H81396   9.294   8.325   0.820 -2.9023 -0.6045  1.7606
  617MOL0     H81397   9.512   8.228   0.678 -0.2256 -0.8089  0.3024
  617MOL0     H81398   9.503   8.010   0.360 -2.7399  2.1610 -0.5101
  617MOL0     H81399   9.560   7.992   0.532  1.1727  1.2627  0.3604
  617MOL0     H81400   9.739   8.080   0.370 -0.6697  0.0660 -2.2689
  617MOL0     H81401   9.690   8.203   0.497 -3.5984 -2.5492  2.0884
  617MOL0     H81402   9.579   8.324   0.301 -0.1193 -0.4684 -2.3814
  617MOL0     H81403   9.744   8.287   0.261  0.6029 -0.7544 -1.5459
  617MOL0     H81404   9.658   8.077   0.143 -0.8395 -1.7002 -1.8366
  617MOL0     H81405   9.635   8.238   0.082 -0.2499 -0.6707 -0.5094
  617MOL0     H81406   9.585   8.098  -0.104 -0.2694  0.1877  0.3716
  617MOL0     H81407   9.474   7.957  -0.277 -2.1272  1.7202 -2.5340
  617MOL0     H81408   9.008   7.528  -0.203  1.4150 -0.6988 -1.1224
  617MOL0     H81409   8.888   7.422  -0.365  0.6055 -0.2644  0.5900
  617MOL0     H81410   8.768   7.497  -0.786 -1.6768 -3.3257  0.6127
  617MOL0     H81411   8.732   7.650  -0.695 -4.2524  0.0831  0.6910
  617MOL0     H81412   8.506   7.524  -0.741 -1.4344  2.2248  2.2239
  617MOL0     H81413   8.545   7.546  -0.577 -2.6963 -1.0103 -0.4275
  617MOL0     H81414   8.622   7.310  -0.565  0.4562  1.5227  0.2169
  617MOL0     H81415   8.593   7.289  -0.734  0.4963 -3.1069  2.1094
  617MOL0     H81416   8.358   7.357  -0.548 -1.9399  1.5732 -1.5111
  617MOL0     H81417   8.350   7.349  -0.716  1.1854 -0.5119 -2.3173
  617MOL0     H81418   8.442   7.102  -0.569 -2.4191 -1.1597  2.0127
  617MOL0     H81419   8.360   7.109  -0.725 -1.7988  1.2400 -0.4816
  617MOL0     H81420   8.153   7.193  -0.610 -2.5314 -1.3455  0.7301
  617MOL0     H81421   8.245   7.168  -0.457  3.3953  0.8319 -0.6573
  617MOL0     H81422   8.169   6.938  -0.660 -2.7375 -2.0593  0.0757
  617MOL0     H81423   8.247   6.926  -0.497  0.7638 -2.2786 -3.8110
  617MOL0     H81424   8.040   7.047  -0.406  3.3328  2.6507 -1.6836
  617MOL0     H81425   8.005   6.883  -0.478 -0.4238 -0.7717 -1.6079
  617MOL0     H81426   8.900   7.763  -0.628 -2.1415 -0.3303  1.0050
  617MOL0     H81427   9.031   7.875  -0.463 -2.1066  1.8835  0.6060
  617MOL0     H81428   9.131   7.926  -0.027  1.4055 -1.4758  1.3203
  617MOL0     H81429   9.230   8.058   0.129 -1.7409  2.1683 -2.7139
  617MOL0     H81430   9.304   9.348   0.589 -1.3123  2.0108  1.6190
  617MOL0     H81431   9.389   9.577   0.536  2.1067 -0.3545 -0.6797
  617MOL0     H81432   9.318   9.881  -0.006 -0.6161  2.8587 -0.6724
  617MOL0     H81433   9.469  10.051  -0.108  0.0347  0.5834  0.4216
  617MOL0     H81434   9.649  10.137  -0.169  0.3810  0.0852 -0.1327
  617MOL0     H81435   9.779  10.253  -0.129 -0.8776  0.1747 -1.9313
  617MOL0     H81436   9.484  10.302  -0.075 -1.3831 -0.5257 -2.2806
  617MOL0     H81437   9.614  10.425  -0.068  0.3672  2.1206 -3.0495
  617MOL0     H81438   9.539  10.309  -0.338  2.7630 -0.4336 -1.5819
  617MOL0     H81439   9.661  10.426  -0.300 -0.9072  0.6414 -0.5687
  617MOL0     H81440   9.494  10.575  -0.183 -0.4574  0.6505 -0.7491
  617MOL0     H81441   9.466  10.559  -0.358 -0.7221 -1.5343 -0.2870
  617MOL0     H81442   9.132  10.373  -0.146  1.8965 -3.7005  1.1451
  617MOL0     H81443   9.683  10.075   0.260 -1.7888 -0.3535  0.8762
  617MOL0     H81444   9.494   9.925   0.362 -1.2421  1.1937  0.3397
  618MOL0     O81445   5.707   1.303   9.215 -0.4233  0.0063  0.3255
  618MOL0     C81446   5.704   1.232   9.116  0.2699 -0.6381 -0.2746
  618MOL0     O81447   5.598   1.150   9.086 -0.1505  0.9601  0.3464
  618MOL0     C81448   5.478   1.186   9.140  0.1484 -0.2889  0.6195
  618MOL0     C81449   5.414   1.292   9.072  0.0151 -0.2199  0.5572
  618MOL0     C81450   5.271   1.316   9.085 -0.3721 -0.4289  0.0284
  618MOL0     C81451   5.193   1.232   9.175 -0.1749  0.1365  0.0455
  618MOL0     O81452   5.058   1.241   9.199  0.3610 -0.1573 -0.4432
  618MOL0     C81453   5.028   1.360   9.276  0.3060  1.0673  0.1875
  618MOL0     C81454   5.009   1.324   9.419  0.2920 -0.5883 -0.5103
  618MOL0     C81455   4.874   1.273   9.475  0.2591  0.9865  0.7660
  618MOL0     C81456   4.765   1.371   9.487  0.1562 -0.3048  0.6063
  618MOL0     C81457   4.647   1.322   9.573  0.7518 -0.0449  0.1501
  618MOL0     C81458   4.586   1.184   9.520  0.0837 -0.4915 -0.7133
  618MOL0     C81459   4.437   1.174   9.559  0.0519  0.2367  0.7036
  618MOL0     C81460   4.386   1.035   9.528  0.2733  0.1570  0.1672
  618MOL0     N81461   4.239   1.031   9.541  0.3760  0.0481  0.0081
  618MOL0     C81462   4.154   0.959   9.461  1.0507 -0.7152  0.1652
  618MOL0     C81463   4.034   0.960   9.526  0.1849 -0.4591 -0.5335
  618MOL0     C81464   3.916   0.872   9.487  0.4079  0.5964  0.6460
  618MOL0     C81465   3.782   0.941   9.510  0.0484 -0.7180 -0.0294
  618MOL0     C81466   3.670   0.838   9.491  0.1238  0.7237 -0.8608
  618MOL0     C81467   3.532   0.893   9.502 -0.1628  0.8792  0.8421
  618MOL0     O81468   3.519   0.958   9.634  1.0092 -0.2560  0.3458
  618MOL0     C81469   3.390   0.996   9.681  0.6367 -0.3126 -0.2094
  618MOL0     C81470   3.380   1.054   9.806 -0.3776  0.4116  0.2109
  618MOL0     C81471   3.261   1.078   9.865  1.0618 -0.1568  0.8168
  618MOL0     C81472   3.137   1.066   9.798  0.8852 -0.6402  0.4328
  618MOL0     C81473   3.011   1.122   9.858 -0.6259  0.6014  1.4564
  618MOL0     O81474   2.897   1.080   9.795 -0.8062 -0.3115  0.4935
  618MOL0     C81475   2.778   1.153   9.795 -0.6212 -0.7693 -0.5222
  618MOL0     C81476   2.667   1.110   9.872 -0.2035 -0.1075 -0.0670
  618MOL0     C81477   2.547   1.178   9.865 -0.2900 -0.3029 -0.3278
  618MOL0     C81478   2.535   1.294   9.787 -0.1326 -0.5099  0.6070
  618MOL0     O81479   2.421   1.362   9.758 -0.0120 -0.4665  0.1584
  618MOL0     C81480   2.296   1.300   9.802 -0.3511  1.4326  1.0313
  618MOL0     C81481   2.247   1.198   9.693  0.3242 -0.2110 -0.6706
  618MOL0     C81482   2.212   1.258   9.552 -0.3059  0.4363 -0.2075
  618MOL0     C81483   2.154   1.394   9.566  0.1063  0.2068 -0.5060
  618MOL0     C81484   2.087   1.449   9.440 -0.6275 -0.5257  0.0414
  618MOL0     C81485   1.944   1.398   9.413 -0.2158 -0.0307  0.2868
  618MOL0     C81486   1.880   1.480   9.298  0.1077 -0.0427 -0.0182
  618MOL0     C81487   1.780   1.400   9.214  0.0352  0.2368 -0.2348
  618MOL0    Cl81488   1.823   1.231   9.180 -0.1662 -0.0186 -0.4237
  618MOL0     C81489   2.645   1.325   9.704 -0.7972  0.7042 -1.0765
  618MOL0     C81490   2.761   1.247   9.709 -0.5517  0.5180 -0.1571
  618MOL0     O81491   3.020   1.209   9.942  0.5225  0.1530 -0.3381
  618MOL0     C81492   3.144   1.001   9.665  0.3305 -0.4011 -0.5974
  618MOL0     C81493   3.269   0.954   9.616  0.3093  0.0860 -0.2952
  618MOL0     N81494   4.052   1.018   9.647 -0.7810 -0.5476 -0.9441
  618MOL0     N81495   4.171   1.067   9.654  0.5326 -0.3440 -0.7109
  618MOL0     C81496   5.268   1.137   9.245 -0.1776  0.5116 -0.0300
  618MOL0     C81497   5.401   1.110   9.231  0.0652  0.2194  0.3018
  618MOL0     C81498   5.814   1.255   9.017 -0.4903 -1.1581 -0.5264
  618MOL0     C81499   5.826   1.185   8.892 -0.6421  0.4172  0.2942
  618MOL0     C81500   5.929   1.207   8.804  0.0537 -0.2090 -0.6036
  618MOL0     C81501   6.024   1.304   8.827  0.0029  0.3542  0.0448
  618MOL0     O81502   6.144   1.296   8.750  0.4626 -0.8414  0.3112
  618MOL0     C81503   6.152   1.284   8.607 -0.0716  0.0570 -0.0250
  618MOL0     C81504   6.297   1.253   8.567  0.6143  0.0248 -0.3649
  618MOL0     C81505   6.399   1.343   8.630 -0.1726  0.1956 -0.4727
  618MOL0     C81506   6.547   1.321   8.579 -0.5058  0.4137  0.8526
  618MOL0     C81507   6.593   1.181   8.581 -0.3117 -0.6112  0.1991
  618MOL0     C81508   6.627   1.068   8.587  1.0653  1.1278 -0.5385
  618MOL0     C81509   6.021   1.388   8.944  0.8698  0.1224  0.2828
  618MOL0     C81510   5.914   1.362   9.041 -0.4743 -0.5630  0.7425
  618MOL0     H81511   5.472   1.345   8.998 -0.0023 -2.4652 -1.1910
  618MOL0     H81512   5.224   1.394   9.026  4.0764  1.9118 -0.9274
  618MOL0     H81513   4.942   1.411   9.234  0.8298  1.1721 -0.7871
  618MOL0     H81514   5.112   1.430   9.275  1.7967 -0.4769  2.8761
  618MOL0     H81515   5.055   1.405   9.476  0.4544 -0.1265 -1.2748
  618MOL0     H81516   5.064   1.232   9.440  0.2029  0.1627  4.0502
  618MOL0     H81517   4.880   1.222   9.572 -1.2692 -2.3924 -0.7550
  618MOL0     H81518   4.840   1.192   9.410  0.2235  0.7652  1.0604
  618MOL0     H81519   4.811   1.461   9.529 -0.5449 -1.5694  4.5014
  618MOL0     H81520   4.730   1.395   9.386 -0.8054  4.8884  1.8886
  618MOL0     H81521   4.562   1.389   9.589 -2.4741 -3.8747  0.7521
  618MOL0     H81522   4.690   1.309   9.673 -0.6240 -1.3554  0.6055
  618MOL0     H81523   4.657   1.113   9.563 -0.6104  0.1863  1.7034
  618MOL0     H81524   4.589   1.177   9.411  0.8697 -1.5394 -0.6365
  618MOL0     H81525   4.426   1.202   9.664  1.0354  0.9784  0.6188
  618MOL0     H81526   4.373   1.235   9.494  0.2107 -0.7740 -0.4499
  618MOL0     H81527   4.430   0.965   9.600  2.9469  1.7883  0.2704
  618MOL0     H81528   4.414   1.006   9.426  1.7570 -0.4451  0.7233
  618MOL0     H81529   4.175   0.903   9.371 -1.2599 -1.5966  0.0975
  618MOL0     H81530   3.913   0.788   9.557 -0.5646 -0.2221 -0.3404
  618MOL0     H81531   3.912   0.830   9.386 -2.0013 -0.1372  0.9851
  618MOL0     H81532   3.776   1.018   9.433 -0.4341 -1.4343 -0.7359
  618MOL0     H81533   3.779   0.990   9.607 -0.1543 -0.1070 -0.3433
  618MOL0     H81534   3.677   0.800   9.388 -4.4821  1.0326 -1.4714
  618MOL0     H81535   3.672   0.750   9.556  0.0466  1.3407 -0.0129
  618MOL0     H81536   3.466   0.807   9.495 -0.2526  1.0743 -2.3103
  618MOL0     H81537   3.509   0.960   9.418 -0.7724 -1.3867 -0.8960
  618MOL0     H81538   3.474   1.072   9.858 -0.6200 -1.0369  1.2378
  618MOL0     H81539   3.253   1.136   9.957 -0.7811  0.5978  0.2436
  618MOL0     H81540   2.669   1.024   9.938 -1.1699  1.4681  2.1422
  618MOL0     H81541   2.471   1.134   9.929 -0.4538  1.1289  0.5153
  618MOL0     H81542   2.224   1.382   9.809 -0.9892  0.9760  0.0744
  618MOL0     H81543   2.286   1.256   9.901 -0.5512 -1.4777 -0.1933
  618MOL0     H81544   2.154   1.153   9.731  1.0509 -1.5152 -0.3725
  618MOL0     H81545   2.327   1.125   9.679  1.0120  0.0108  1.6015
  618MOL0     H81546   2.152   1.182   9.502  0.1300  2.3214 -3.9405
  618MOL0     H81547   2.306   1.255   9.495 -0.8466 -2.1016 -1.0506
  618MOL0     H81548   2.072   1.405   9.638  0.9709 -0.6161  0.6343
  618MOL0     H81549   2.237   1.459   9.596  0.2841 -1.2482  2.4745
  618MOL0     H81550   2.159   1.426   9.360  0.4879 -0.7336  1.0749
  618MOL0     H81551   2.083   1.558   9.434 -0.1192 -0.4559  0.8252
  618MOL0     H81552   1.888   1.394   9.507  0.7578 -2.4754  0.8249
  618MOL0     H81553   1.947   1.291   9.394  2.2664  0.1602 -0.8430
  618MOL0     H81554   1.824   1.562   9.343  0.2170  1.1866 -2.0060
  618MOL0     H81555   1.961   1.517   9.234  0.9490 -0.1368  0.9630
  618MOL0     H81556   1.769   1.454   9.119  0.7520  5.8952  2.4830
  618MOL0     H81557   1.686   1.416   9.268  1.7727  1.9552  2.5040
  618MOL0     H81558   2.630   1.409   9.637 -1.4002  0.8470 -0.7708
  618MOL0     H81559   2.838   1.283   9.641  0.0604 -1.6836 -0.6981
  618MOL0     H81560   3.048   0.972   9.624 -0.2696  1.0177 -0.2635
  618MOL0     H81561   3.271   0.911   9.516 -0.9721  2.1549 -1.2865
  618MOL0     H81562   5.220   1.072   9.317  1.7196  1.2649  2.0009
  618MOL0     H81563   5.449   1.023   9.275 -3.6111 -1.5749  1.2084
  618MOL0     H81564   5.749   1.111   8.876 -0.7139  0.3724  0.8156
  618MOL0     H81565   5.925   1.145   8.715 -0.4500 -2.0268  0.6357
  618MOL0     H81566   6.123   1.377   8.557 -0.2877  1.1341  1.9881
  618MOL0     H81567   6.085   1.209   8.564  1.5427 -0.4318 -1.8285
  618MOL0     H81568   6.305   1.150   8.603 -4.9027 -1.4048 -2.2655
  618MOL0     H81569   6.321   1.246   8.461 -0.1445 -0.3479 -0.5149
  618MOL0     H81570   6.395   1.327   8.738 -0.5208  0.6575 -0.4162
  618MOL0     H81571   6.363   1.443   8.605 -2.5072 -0.1778  1.1365
  618MOL0     H81572   6.555   1.341   8.472 -1.3141 -1.3640  0.4159
  618MOL0     H81573   6.606   1.383   8.646 -1.3110  0.0831  1.8873
  618MOL0     H81574   6.662   0.970   8.614 -1.4011  0.5846  0.9718
  618MOL0     H81575   6.091   1.469   8.961  1.5734 -0.8132  2.0741
  618MOL0     H81576   5.900   1.426   9.128  2.2446  0.5131  0.4858
  619MOL0     O81577   6.442   1.611  10.381 -0.4630  0.1136 -0.2878
  619MOL0     C81578   6.528   1.704  10.393  0.8010 -0.6800 -0.1652
  619MOL0     O81579   6.515   1.828  10.338  0.3368 -0.0898  0.7065
  619MOL0     C81580   6.395   1.845  10.263 -0.3249  1.0239 -0.1499
  619MOL0     C81581   6.384   1.826  10.128  0.3698 -0.0067  0.5855
  619MOL0     C81582   6.263   1.850  10.058  0.4223  0.7417 -0.4586
  619MOL0     C81583   6.143   1.892  10.128  0.3291  0.2314  0.5204
  619MOL0     O81584   6.034   1.901  10.043 -0.0732 -0.2267 -1.0098
  619MOL0     C81585   5.908   1.935  10.102  0.0445  0.0027 -0.0080
  619MOL0     C81586   5.809   1.950   9.983 -0.2990 -1.0064 -0.3985
  619MOL0     C81587   5.838   2.075   9.907 -0.9947  0.5666  0.4963
  619MOL0     C81588   5.755   2.089   9.782 -0.5378 -0.7811 -0.8024
  619MOL0     C81589   5.613   2.131   9.825  0.5577 -0.2980 -0.5188
  619MOL0     C81590   5.548   2.183   9.698  0.6076  0.3224  0.7413
  619MOL0     C81591   5.394   2.205   9.712  0.7632  1.0577 -0.8629
  619MOL0     C81592   5.360   2.296   9.591  1.1890 -0.4077 -0.1485
  619MOL0     N81593   5.215   2.276   9.560 -1.5092 -1.1696  0.2610
  619MOL0     C81594   5.150   2.163   9.516  0.0694  0.3779  0.5221
  619MOL0     C81595   5.020   2.202   9.520  1.1243 -0.5649 -0.6688
  619MOL0     C81596   4.903   2.100   9.504  0.3565 -0.6569  0.5421
  619MOL0     C81597   4.821   2.130   9.381  0.5329 -0.3069 -0.1331
  619MOL0     C81598   4.791   2.280   9.367 -0.6767  0.7667  0.4081
  619MOL0     C81599   4.705   2.348   9.466  0.3281  0.2692  0.2282
  619MOL0     O81600   4.564   2.307   9.465 -0.7783 -0.1899 -1.0232
  619MOL0     C81601   4.477   2.393   9.537  0.0126  0.6399  0.0129
  619MOL0     C81602   4.346   2.378   9.508 -0.4007  0.2601  0.3209
  619MOL0     C81603   4.246   2.449   9.571  0.7976 -1.1759  0.8597
  619MOL0     C81604   4.280   2.528   9.682  0.2846  0.6239  0.5203
  619MOL0     C81605   4.171   2.608   9.750  0.5544 -0.1962 -0.8501
  619MOL0     O81606   4.213   2.699   9.838  0.0682  0.0384 -1.2479
  619MOL0     C81607   4.115   2.776   9.902  0.1288  0.0623  1.0473
  619MOL0     C81608   4.149   2.908   9.930 -0.2492  0.3858 -0.3564
  619MOL0     C81609   4.072   2.990  10.007  0.3277 -0.3020 -0.9461
  619MOL0     C81610   3.949   2.946  10.052  0.0198  0.3329 -0.6157
  619MOL0     O81611   3.860   3.011  10.132  0.1044 -0.2195 -0.1517
  619MOL0     C81612   3.862   2.983  10.270 -0.5072 -0.4913  0.9697
  619MOL0     C81613   3.832   3.111  10.344 -0.8148  0.9964 -0.5615
  619MOL0     C81614   3.951   3.211  10.335 -0.3459 -0.1388 -0.4749
  619MOL0     C81615   3.923   3.341  10.409 -0.7328 -0.1905 -0.0384
  619MOL0     C81616   3.845   3.448  10.317 -0.3787 -0.7040 -0.3061
  619MOL0     C81617   3.777   3.557  10.400 -0.5229  0.4582 -0.2039
  619MOL0     C81618   3.699   3.658  10.327 -0.4903 -0.7192  0.0018
  619MOL0     C81619   3.629   3.757  10.419  0.1523 -0.5345 -0.7459
  619MOL0    Cl81620   3.748   3.847  10.515 -0.1146 -0.2412  0.1032
  619MOL0     C81621   3.905   2.817  10.016 -0.5296  0.1929  0.0107
  619MOL0     C81622   3.992   2.735   9.947 -0.1242 -0.2422 -0.4822
  619MOL0     O81623   4.049   2.590   9.720 -0.0059  1.0166 -0.9089
  619MOL0     C81624   4.417   2.549   9.712  0.1020 -0.7225  0.5060
  619MOL0     C81625   4.516   2.478   9.648 -0.1646 -0.0915  0.2461
  619MOL0     N81626   5.004   2.332   9.564  0.0324 -0.2211 -0.5219
  619MOL0     N81627   5.124   2.372   9.592  0.2805 -0.2877 -0.5841
  619MOL0     C81628   6.146   1.907  10.260 -0.7921  0.5563 -0.3954
  619MOL0     C81629   6.277   1.889  10.323 -0.0206  1.2054 -0.3201
  619MOL0     C81630   6.647   1.684  10.487  0.0657 -0.0214  0.1985
  619MOL0     C81631   6.626   1.609  10.606 -0.6898 -0.1782  0.0659
  619MOL0     C81632   6.741   1.589  10.682  0.1527  0.3754 -0.2526
  619MOL0     C81633   6.866   1.632  10.646 -0.2562  0.3196 -0.6400
  619MOL0     O81634   6.971   1.589  10.725  0.5671  0.4057  0.3929
  619MOL0     C81635   7.053   1.671  10.817 -0.7132  0.1499  0.5819
  619MOL0     C81636   6.999   1.678  10.953  0.0954 -0.5993 -0.4037
  619MOL0     C81637   7.011   1.553  11.036 -0.0696  0.3811  0.1997
  619MOL0     C81638   6.930   1.433  11.001 -0.3660  0.2731 -0.4441
  619MOL0     C81639   6.782   1.461  11.019  0.2115  0.1832 -0.2296
  619MOL0     C81640   6.673   1.501  11.048  0.6191  0.8181 -0.2428
  619MOL0     C81641   6.887   1.704  10.530  0.9666  0.1915 -0.2213
  619MOL0     C81642   6.777   1.732  10.453 -0.0874 -0.3107 -0.3911
  619MOL0     H81643   6.480   1.802  10.083  1.0909  0.9655  1.5587
  619MOL0     H81644   6.251   1.846   9.950  1.0615  2.0109 -0.5948
  619MOL0     H81645   5.919   2.018  10.171 -3.2284  1.3359 -0.9163
  619MOL0     H81646   5.878   1.846  10.158  0.6861 -1.5493 -1.9782
  619MOL0     H81647   5.709   1.951  10.025 -2.1685 -3.2396 -4.2290
  619MOL0     H81648   5.821   1.862   9.919 -2.1529 -2.4084  1.0719
  619MOL0     H81649   5.944   2.072   9.880 -0.7145 -0.0873  1.6009
  619MOL0     H81650   5.819   2.162   9.971  0.7285 -0.6286  2.7575
  619MOL0     H81651   5.789   2.169   9.715  0.8759  0.7362  1.5804
  619MOL0     H81652   5.761   1.995   9.727  2.9855 -3.4246  3.3894
  619MOL0     H81653   5.601   2.195   9.913 -0.4202 -1.6001  0.3341
  619MOL0     H81654   5.564   2.038   9.856  1.3317  0.1221  2.2370
  619MOL0     H81655   5.573   2.125   9.608  1.9900  0.1442  1.2064
  619MOL0     H81656   5.589   2.282   9.671  0.6113  0.6722  1.9808
  619MOL0     H81657   5.337   2.113   9.700  1.3272  0.4337  1.0367
  619MOL0     H81658   5.371   2.242   9.812 -1.7220 -2.2642 -0.0440
  619MOL0     H81659   5.418   2.270   9.502  1.4262 -1.9604  0.4138
  619MOL0     H81660   5.374   2.401   9.616 -0.0245  0.0839 -1.4171
  619MOL0     H81661   5.180   2.066   9.476 -2.3973 -1.2741  2.3757
  619MOL0     H81662   4.837   2.112   9.590  0.7643  5.4026  0.4666
  619MOL0     H81663   4.945   1.999   9.508  0.8774 -0.5274 -0.9511
  619MOL0     H81664   4.728   2.074   9.398 -0.0527  0.7575  0.3010
  619MOL0     H81665   4.863   2.093   9.287 -3.5581  0.1795 -2.4067
  619MOL0     H81666   4.885   2.335   9.362 -0.3230  0.5459  3.1725
  619MOL0     H81667   4.742   2.289   9.270  1.0945  0.7844 -0.5304
  619MOL0     H81668   4.706   2.455   9.442 -1.0701 -0.3883 -3.4266
  619MOL0     H81669   4.743   2.343   9.569  0.3990  3.2926  0.4393
  619MOL0     H81670   4.322   2.308   9.429 -4.7827 -1.2368  2.5946
  619MOL0     H81671   4.142   2.429   9.551  0.6379  0.3717 -0.0332
  619MOL0     H81672   4.240   2.952   9.889 -1.2920  1.3153 -1.7764
  619MOL0     H81673   4.123   3.078  10.044 -1.1246 -0.4928  1.7913
  619MOL0     H81674   3.960   2.951  10.305 -0.2364 -1.4644 -0.5728
  619MOL0     H81675   3.788   2.910  10.304 -0.3095 -0.9480  0.4485
  619MOL0     H81676   3.804   3.090  10.448 -0.2397  0.3552 -0.5259
  619MOL0     H81677   3.740   3.153  10.302 -2.1728 -2.2515 -1.1814
  619MOL0     H81678   3.981   3.235  10.232 -3.4972 -0.4733 -1.5795
  619MOL0     H81679   4.036   3.166  10.387 -1.2496 -0.0665  1.1282
  619MOL0     H81680   3.864   3.312  10.496 -1.5194 -1.7213 -1.0401
  619MOL0     H81681   4.021   3.368  10.448 -0.6136 -1.2885  0.4611
  619MOL0     H81682   3.770   3.386  10.267 -2.9024  0.5602  1.6584
  619MOL0     H81683   3.907   3.500  10.243  1.7394 -1.8743  0.5651
  619MOL0     H81684   3.853   3.621  10.446  0.4278 -2.0228  1.9511
  619MOL0     H81685   3.721   3.515  10.484  0.5314  0.0008  0.2886
  619MOL0     H81686   3.751   3.719  10.252 -0.4836 -0.4305  0.2359
  619MOL0     H81687   3.619   3.614  10.267 -0.5013  0.8293 -1.1709
  619MOL0     H81688   3.547   3.716  10.479 -0.6124 -0.1582 -1.4940
  619MOL0     H81689   3.575   3.832  10.359 -1.0870 -1.5634 -0.9699
  619MOL0     H81690   3.810   2.776  10.047  0.3981 -0.0286  2.8158
  619MOL0     H81691   3.948   2.637   9.934 -2.2987  0.2904  1.9425
  619MOL0     H81692   4.453   2.622   9.784 -0.5156 -1.3952  1.5219
  619MOL0     H81693   4.619   2.483   9.681 -0.1988  1.6586  0.1694
  619MOL0     H81694   6.064   1.950  10.318 -0.7952  1.1629 -0.8371
  619MOL0     H81695   6.277   1.909  10.430 -2.3081  1.4611 -0.3269
  619MOL0     H81696   6.528   1.574  10.636 -0.0047 -1.2396  1.1879
  619MOL0     H81697   6.739   1.539  10.778  1.7361  1.0432  0.1594
  619MOL0     H81698   7.069   1.771  10.775 -0.2680  0.7678  2.1278
  619MOL0     H81699   7.149   1.620  10.815 -0.2270  1.0726 -0.6626
  619MOL0     H81700   7.056   1.761  10.996 -0.7576  0.4885 -1.2999
  619MOL0     H81701   6.896   1.713  10.946 -0.1261 -0.8207  1.3597
  619MOL0     H81702   6.993   1.586  11.139  2.3203  1.9684  0.2165
  619MOL0     H81703   7.114   1.515  11.040 -1.0408 -2.3285  2.4707
  619MOL0     H81704   6.958   1.398  10.901  3.4731 -1.3548  1.0465
  619MOL0     H81705   6.933   1.350  11.072  0.9872 -0.1475 -0.9676
  619MOL0     H81706   6.581   1.539  11.087  2.2755  2.3432  2.5464
  619MOL0     H81707   6.991   1.722  10.504  1.3850 -0.1371  1.1343
  619MOL0     H81708   6.799   1.797  10.368 -0.0626  1.1965  0.7140
  620MOL0     O81709  10.157   4.164   5.836 -0.2088 -0.7010 -0.0626
  620MOL0     C81710  10.251   4.085   5.802  0.6292  0.6155 -0.6585
  620MOL0     O81711  10.244   3.950   5.800  0.2575 -0.0139  0.4993
  620MOL0     C81712  10.121   3.893   5.827  0.1294 -0.3623 -0.7492
  620MOL0     C81713  10.051   3.805   5.747 -0.1190 -0.3117  0.2109
  620MOL0     C81714   9.929   3.750   5.783  0.7906  0.5705 -0.2969
  620MOL0     C81715   9.874   3.789   5.901 -0.7998 -0.5064  0.2335
  620MOL0     O81716   9.743   3.748   5.931 -0.3984 -0.6654  0.5721
  620MOL0     C81717   9.648   3.852   5.917 -0.3593 -0.3948 -0.3191
  620MOL0     C81718   9.564   3.823   5.790  0.6577 -0.8147  0.1759
  620MOL0     C81719   9.466   3.951   5.762 -0.7466 -0.8125 -0.1213
  620MOL0     C81720   9.403   3.946   5.623 -0.1946  0.0125  0.1360
  620MOL0     C81721   9.275   3.859   5.610  1.0297 -0.5362  0.0675
  620MOL0     C81722   9.156   3.936   5.550 -0.7064  0.5512 -0.4002
  620MOL0     C81723   9.172   4.001   5.419  0.3440 -0.5045  0.8275
  620MOL0     C81724   9.048   4.025   5.343  0.7350 -0.3568  1.0179
  620MOL0     N81725   9.058   4.046   5.200  0.2485 -0.1424 -0.0687
  620MOL0     C81726   8.945   4.056   5.117 -0.2963  0.0732 -0.1755
  620MOL0     C81727   8.992   4.046   4.990  0.5828  0.3273  0.5612
  620MOL0     C81728   8.924   4.037   4.855 -0.5671 -0.2000 -0.7260
  620MOL0     C81729   8.922   4.166   4.780 -0.7650  0.1944  0.0313
  620MOL0     C81730   8.838   4.155   4.653  1.1069 -0.2877  0.8254
  620MOL0     C81731   8.685   4.136   4.673  0.0231 -1.2234 -0.7291
  620MOL0     O81732   8.621   4.148   4.544  0.3638  0.6676  0.1653
  620MOL0     C81733   8.557   4.259   4.509 -0.1387  0.4151  0.0384
  620MOL0     C81734   8.448   4.317   4.570 -0.6488  0.4826  0.4974
  620MOL0     C81735   8.386   4.426   4.504  0.0622  0.4351 -0.0982
  620MOL0     C81736   8.449   4.498   4.408  0.2398 -0.8677 -0.4292
  620MOL0     C81737   8.396   4.625   4.359  0.1319 -0.4705  0.1522
  620MOL0     O81738   8.474   4.721   4.319 -0.4410 -0.8217  0.9654
  620MOL0     C81739   8.444   4.809   4.206  0.7754 -0.2723 -0.7931
  620MOL0     C81740   8.479   4.947   4.226 -0.3708  0.1445 -0.4629
  620MOL0     C81741   8.423   5.051   4.147  0.1022  0.5367  0.3920
  620MOL0     C81742   8.368   5.014   4.026 -0.4391 -0.5118  0.9641
  620MOL0     O81743   8.338   5.116   3.941 -1.1210 -0.0642 -0.1811
  620MOL0     C81744   8.317   5.095   3.805  0.1682  0.3540 -0.8338
  620MOL0     C81745   8.261   5.226   3.746  0.1642  0.2476  0.9021
  620MOL0     C81746   8.117   5.268   3.787  0.4659 -0.0875 -0.1675
  620MOL0     C81747   8.015   5.270   3.669  0.4056  0.6281 -0.8583
  620MOL0     C81748   7.991   5.126   3.624  0.7342  0.3914 -0.0157
  620MOL0     C81749   7.892   5.120   3.502 -0.3980 -0.5012  1.0564
  620MOL0     C81750   7.874   4.974   3.456 -0.5598 -0.0266 -0.9728
  620MOL0     C81751   7.767   4.964   3.352 -0.2373 -0.2452  1.2851
  620MOL0    Cl81752   7.804   5.042   3.201  0.1679  0.3298 -0.0714
  620MOL0     C81753   8.359   4.877   3.996 -0.0079  0.0576  0.4121
  620MOL0     C81754   8.377   4.780   4.095  0.5249  0.7886 -0.3338
  620MOL0     O81755   8.273   4.624   4.356  0.5156  0.2797  0.3870
  620MOL0     C81756   8.564   4.445   4.357  0.7052  0.2940  0.5382
  620MOL0     C81757   8.611   4.323   4.405  0.3523  1.0046 -0.2277
  620MOL0     N81758   9.125   4.046   4.989 -0.5824  0.2601  0.2717
  620MOL0     N81759   9.167   4.038   5.109  0.3660 -0.4115  0.2341
  620MOL0     C81760   9.945   3.873   5.990  0.4131  0.4514  0.8046
  620MOL0     C81761  10.065   3.920   5.952 -0.6660  0.0484 -0.2097
  620MOL0     C81762  10.390   4.145   5.798  0.2667 -0.8137  0.5274
  620MOL0     C81763  10.510   4.069   5.798 -0.6300  0.4084 -0.4188
  620MOL0     C81764  10.637   4.128   5.812  0.7008  1.0206 -0.5962
  620MOL0     C81765  10.653   4.261   5.831  0.0624 -0.2432  0.6707
  620MOL0     O81766  10.786   4.293   5.843 -0.0724 -0.0586  1.0790
  620MOL0     C81767  10.806   4.414   5.925  0.3098 -0.7156  0.8338
  620MOL0     C81768  10.817   4.533   5.836  0.1789 -0.4293  0.0438
  620MOL0     C81769  10.894   4.650   5.912 -0.4445  0.8886 -0.7178
  620MOL0     C81770  10.910   4.773   5.831 -0.3083  0.2150 -0.3391
  620MOL0     C81771  11.007   4.861   5.904 -0.2212 -0.4733 -0.1199
  620MOL0     C81772  11.075   4.954   5.944  0.0111  0.2808 -0.3291
  620MOL0     C81773  10.538   4.342   5.830  0.2576  0.5994  0.8772
  620MOL0     C81774  10.410   4.287   5.813 -0.2293  0.4545  0.6280
  620MOL0     H81775  10.108   3.787   5.656  0.4862 -1.4604  0.7941
  620MOL0     H81776   9.873   3.696   5.707  1.2008 -0.8985  0.4070
  620MOL0     H81777   9.686   3.954   5.933 -3.4078  0.8066 -0.1881
  620MOL0     H81778   9.583   3.847   6.005  0.9186 -2.4093  0.5827
  620MOL0     H81779   9.520   3.728   5.820  0.6178 -0.3917  1.5499
  620MOL0     H81780   9.628   3.800   5.704 -0.7873  3.2600 -2.2579
  620MOL0     H81781   9.524   4.043   5.768 -3.6848  1.1483  0.8264
  620MOL0     H81782   9.387   3.953   5.838 -0.8857 -1.3293 -0.2488
  620MOL0     H81783   9.351   4.041   5.608 -0.9020 -0.4205 -0.2050
  620MOL0     H81784   9.475   3.932   5.542  2.0289  4.5002  1.0317
  620MOL0     H81785   9.239   3.821   5.707  2.3644  1.0881  1.2545
  620MOL0     H81786   9.290   3.771   5.547 -1.4551 -0.1017 -1.2602
  620MOL0     H81787   9.133   4.010   5.628 -1.1688 -1.3832  1.4168
  620MOL0     H81788   9.062   3.880   5.556 -0.4467  0.2174  1.1658
  620MOL0     H81789   9.241   4.084   5.432  0.0857 -0.3682  1.3523
  620MOL0     H81790   9.219   3.923   5.357 -0.2283 -0.0321 -0.2311
  620MOL0     H81791   8.989   4.107   5.385 -0.3054 -0.6062  0.0939
  620MOL0     H81792   8.985   3.936   5.348 -1.8208  1.1314 -1.4784
  620MOL0     H81793   8.841   4.045   5.147 -1.1050  1.8888 -2.0848
  620MOL0     H81794   8.828   3.988   4.876  0.1620 -0.9273  1.1304
  620MOL0     H81795   8.995   3.978   4.797  1.1647  0.3993  0.7080
  620MOL0     H81796   9.023   4.196   4.750 -0.6057  1.4123  1.6182
  620MOL0     H81797   8.889   4.240   4.853 -0.4313  0.2523  0.1264
  620MOL0     H81798   8.849   4.247   4.596 -1.2355 -0.9001 -0.7801
  620MOL0     H81799   8.880   4.073   4.595  0.5297 -1.7260  2.3628
  620MOL0     H81800   8.640   4.207   4.743  0.3126  1.2172 -2.8792
  620MOL0     H81801   8.672   4.032   4.707 -2.7930 -0.4950  0.7895
  620MOL0     H81802   8.402   4.287   4.663  2.5014 -1.1937  1.6460
  620MOL0     H81803   8.290   4.461   4.542 -0.6555 -0.1426 -1.3109
  620MOL0     H81804   8.535   4.974   4.316 -1.1041  3.4009 -0.8409
  620MOL0     H81805   8.444   5.155   4.171  1.5901  0.2228  0.5566
  620MOL0     H81806   8.237   5.023   3.789 -1.2242  0.9994  2.3131
  620MOL0     H81807   8.409   5.061   3.758 -0.3246  0.0564 -1.5976
  620MOL0     H81808   8.264   5.215   3.638  1.6473  1.9234  0.7371
  620MOL0     H81809   8.329   5.307   3.774  0.7059 -0.1912  0.8739
  620MOL0     H81810   8.123   5.373   3.818  0.5773  0.1732 -1.0533
  620MOL0     H81811   8.084   5.200   3.866  1.3462 -0.9969 -0.5563
  620MOL0     H81812   7.920   5.305   3.709 -0.3228 -3.0417  1.0582
  620MOL0     H81813   8.054   5.329   3.585 -0.2205 -0.5287 -1.9892
  620MOL0     H81814   7.953   5.065   3.707  0.0412  1.0355  0.1554
  620MOL0     H81815   8.081   5.086   3.578 -0.3839 -0.1778 -1.8136
  620MOL0     H81816   7.930   5.169   3.411 -0.2468  2.2338  2.4988
  620MOL0     H81817   7.796   5.162   3.532 -0.6359  1.1479 -1.6928
  620MOL0     H81818   7.962   4.925   3.414 -1.5660 -1.6954 -1.2485
  620MOL0     H81819   7.846   4.915   3.544 -0.9894 -1.0286 -1.7587
  620MOL0     H81820   7.677   5.002   3.401 -3.0734 -0.9977 -2.8243
  620MOL0     H81821   7.758   4.860   3.320 -0.5373  0.5801 -1.5571
  620MOL0     H81822   8.327   4.839   3.900 -0.0097 -0.3304  0.5665
  620MOL0     H81823   8.341   4.680   4.073 -3.9385  1.8118  1.2084
  620MOL0     H81824   8.610   4.493   4.272 -5.0821  2.0644 -2.1309
  620MOL0     H81825   8.708   4.286   4.374 -0.5489 -2.2298  0.4427
  620MOL0     H81826   9.909   3.890   6.090 -2.4213 -0.4087  0.0209
  620MOL0     H81827  10.126   3.979   6.020  2.2242 -0.0228 -2.5328
  620MOL0     H81828  10.493   3.963   5.785 -0.1514  0.4528 -1.4263
  620MOL0     H81829  10.715   4.054   5.796 -1.7262 -1.3889 -2.1608
  620MOL0     H81830  10.899   4.409   5.982  0.6143  0.9358  0.5414
  620MOL0     H81831  10.721   4.431   5.992  0.4714 -1.0030  1.1177
  620MOL0     H81832  10.887   4.490   5.764 -1.3168 -1.4556 -0.8566
  620MOL0     H81833  10.725   4.565   5.787 -1.9186 -4.3128  0.9987
  620MOL0     H81834  10.998   4.617   5.923 -1.3190 -3.0529 -2.3548
  620MOL0     H81835  10.856   4.669   6.012 -2.7502 -0.4070 -1.2914
  620MOL0     H81836  10.955   4.758   5.733  2.0000 -0.2717  0.7423
  620MOL0     H81837  10.811   4.821   5.826 -0.8047  0.0116  3.9542
  620MOL0     H81838  11.129   5.026   6.002 -0.9951 -2.0829  3.9689
  620MOL0     H81839  10.544   4.450   5.834  1.4595  0.6951 -1.5752
  620MOL0     H81840  10.322   4.351   5.806 -1.1549 -0.8753 -0.6452
  621MOL0     O81841   2.411   3.227   2.405  0.7635  0.0533  0.3564
  621MOL0     C81842   2.415   3.275   2.518 -0.4119 -0.5783  0.2969
  621MOL0     O81843   2.528   3.287   2.597  0.6005 -0.6315 -0.6023
  621MOL0     C81844   2.641   3.225   2.561 -0.1215  1.0140 -0.8770
  621MOL0     C81845   2.758   3.282   2.616 -0.5465 -0.2296 -0.8745
  621MOL0     C81846   2.885   3.227   2.603  0.4114  0.2865 -0.0642
  621MOL0     C81847   2.903   3.106   2.530 -1.1024  0.9795 -0.5068
  621MOL0     O81848   3.024   3.053   2.529  0.1830 -0.4051 -0.1706
  621MOL0     C81849   3.074   2.955   2.433 -0.0844  1.5485  0.4120
  621MOL0     C81850   3.217   2.922   2.477 -0.2203 -0.2285 -0.2949
  621MOL0     C81851   3.272   2.814   2.382 -0.3513  0.2736 -0.0174
  621MOL0     C81852   3.407   2.756   2.441  0.1487  0.3576  0.2259
  621MOL0     C81853   3.475   2.675   2.327 -0.3960 -0.2172  0.8064
  621MOL0     C81854   3.517   2.770   2.210 -0.2183 -0.6443 -0.0216
  621MOL0     C81855   3.628   2.702   2.126 -0.0973  0.6694 -0.8480
  621MOL0     C81856   3.661   2.789   2.007  0.2834  0.6290  0.5771
  621MOL0     N81857   3.724   2.920   2.034  0.0763 -0.0528 -0.0728
  621MOL0     C81858   3.671   3.045   2.042  0.0651 -0.5878 -0.1392
  621MOL0     C81859   3.777   3.120   2.090  0.5280 -0.3007 -0.7782
  621MOL0     C81860   3.774   3.266   2.124 -0.6348 -0.1085 -0.1621
  621MOL0     C81861   3.630   3.311   2.186  0.2493  0.5135  0.9185
  621MOL0     C81862   3.585   3.236   2.319  0.3419  0.2545  0.0393
  621MOL0     C81863   3.432   3.264   2.329  0.0541  1.1271  0.1464
  621MOL0     O81864   3.384   3.380   2.388 -0.9129 -0.3875  0.9417
  621MOL0     C81865   3.247   3.407   2.375  0.6255 -0.1246  0.8467
  621MOL0     C81866   3.152   3.319   2.322 -0.6707 -0.3431  0.4203
  621MOL0     C81867   3.022   3.359   2.288 -0.2369 -0.5962 -0.8246
  621MOL0     C81868   2.981   3.490   2.312  0.6272  0.0925  0.8565
  621MOL0     C81869   2.842   3.533   2.286  0.7049 -0.6440 -0.4778
  621MOL0     O81870   2.806   3.661   2.319 -0.5134 -0.5036  0.6268
  621MOL0     C81871   2.672   3.698   2.315 -0.2023  0.0927 -1.0909
  621MOL0     C81872   2.585   3.647   2.415  0.6444  0.5326  0.2459
  621MOL0     C81873   2.444   3.681   2.414  0.3294  0.0541  0.1274
  621MOL0     C81874   2.393   3.755   2.302 -0.6345 -0.4135  0.8033
  621MOL0     O81875   2.254   3.790   2.309  0.3747  0.1368 -0.1412
  621MOL0     C81876   2.227   3.906   2.387  0.1958  0.0062 -0.2693
  621MOL0     C81877   2.114   3.980   2.324  0.4045  0.3527 -0.0679
  621MOL0     C81878   2.085   4.107   2.394 -0.8815  0.3446  0.8847
  621MOL0     C81879   1.994   4.095   2.505  0.5373 -0.6206 -0.0804
  621MOL0     C81880   1.848   4.105   2.444 -0.3503 -0.0449  0.1428
  621MOL0     C81881   1.744   4.101   2.547 -0.7841  0.2499 -0.2727
  621MOL0     C81882   1.604   4.141   2.500 -0.0307  0.5317  0.9689
  621MOL0     C81883   1.508   4.157   2.618  0.0345 -0.2360 -0.4050
  621MOL0    Cl81884   1.466   3.992   2.669 -0.0612  0.3093  0.5779
  621MOL0     C81885   2.482   3.804   2.202 -0.1030  0.2164  0.4294
  621MOL0     C81886   2.619   3.778   2.211 -0.5634 -1.3042 -1.0724
  621MOL0     O81887   2.760   3.453   2.245 -0.6597 -0.2486  0.1681
  621MOL0     C81888   3.076   3.573   2.381  0.5683 -0.2048 -0.2085
  621MOL0     C81889   3.204   3.538   2.406 -0.2896  0.2435  0.0308
  621MOL0     N81890   3.883   3.041   2.115  0.3386 -0.2360 -0.2318
  621MOL0     N81891   3.857   2.918   2.076  0.6435 -0.6703 -0.5758
  621MOL0     C81892   2.794   3.041   2.482  0.0786 -0.2043  0.6042
  621MOL0     C81893   2.667   3.102   2.489  0.2971  0.0997  1.2306
  621MOL0     C81894   2.295   3.337   2.574 -0.5849  0.4656  0.3298
  621MOL0     C81895   2.200   3.388   2.484 -0.6937 -0.4013 -1.5026
  621MOL0     C81896   2.090   3.457   2.539  0.4048  1.3264  0.2614
  621MOL0     C81897   2.082   3.468   2.680  0.5338  0.5878  0.1814
  621MOL0     O81898   1.984   3.544   2.738  0.0479 -0.0118  0.1020
  621MOL0     C81899   1.901   3.629   2.648  0.1014  0.2465 -0.4949
  621MOL0     C81900   1.793   3.715   2.709  0.8458  0.1010 -0.5073
  621MOL0     C81901   1.681   3.636   2.770 -0.2200  0.1156  0.3730
  621MOL0     C81902   1.609   3.722   2.879  0.0489 -0.1877 -0.1399
  621MOL0     C81903   1.512   3.649   2.969 -0.6493 -0.3480  0.3348
  621MOL0     C81904   1.440   3.579   3.037  0.2569 -0.5750 -0.1234
  621MOL0     C81905   2.169   3.406   2.769 -0.3853 -1.4559  0.0652
  621MOL0     C81906   2.279   3.342   2.709 -0.0135  0.7646 -0.2769
  621MOL0     H81907   2.754   3.373   2.675  0.3001 -1.0975  0.5648
  621MOL0     H81908   2.964   3.283   2.651 -0.5692 -1.2848  3.8336
  621MOL0     H81909   3.074   2.989   2.329  1.7467 -3.5692 -1.5835
  621MOL0     H81910   3.015   2.864   2.450  0.6910  0.9201 -0.1923
  621MOL0     H81911   3.208   2.888   2.581  0.6737  0.3880  0.0083
  621MOL0     H81912   3.277   3.014   2.476 -1.9581  0.9551 -1.6092
  621MOL0     H81913   3.299   2.866   2.289  2.3889  0.4661  0.7859
  621MOL0     H81914   3.202   2.730   2.379  1.0728 -0.9378 -0.8509
  621MOL0     H81915   3.482   2.833   2.462  0.0376  1.8805 -3.9127
  621MOL0     H81916   3.383   2.696   2.528 -0.7437 -0.9313 -0.8605
  621MOL0     H81917   3.417   2.587   2.297  1.7059 -0.6419 -2.4549
  621MOL0     H81918   3.564   2.643   2.382  2.3535  2.6762 -1.6015
  621MOL0     H81919   3.563   2.861   2.248 -2.4401  0.3719  0.4096
  621MOL0     H81920   3.427   2.783   2.148  0.0570 -2.7481 -0.9654
  621MOL0     H81921   3.717   2.687   2.188 -0.2765  0.2692 -0.6882
  621MOL0     H81922   3.607   2.597   2.102 -0.1038  0.4696  0.0069
  621MOL0     H81923   3.572   2.795   1.943 -0.4689  1.3500  1.6482
  621MOL0     H81924   3.732   2.732   1.946 -0.3147  0.1359  0.3195
  621MOL0     H81925   3.570   3.064   2.007 -0.3419 -0.1046  1.2582
  621MOL0     H81926   3.803   3.323   2.036 -1.0107  0.5609  0.1335
  621MOL0     H81927   3.846   3.290   2.203  2.4784 -2.8428 -1.9527
  621MOL0     H81928   3.560   3.301   2.103 -0.2972 -1.9436  1.5821
  621MOL0     H81929   3.630   3.417   2.213 -2.1095 -0.0344  3.5571
  621MOL0     H81930   3.602   3.129   2.313 -0.5402 -0.1696  3.2360
  621MOL0     H81931   3.645   3.268   2.404 -1.0912  2.1664  0.4204
  621MOL0     H81932   3.395   3.181   2.390 -0.1394  0.5704 -0.7097
  621MOL0     H81933   3.392   3.247   2.229 -0.1264 -4.4171  0.8377
  621MOL0     H81934   3.174   3.216   2.296 -1.2504 -0.6971  1.3174
  621MOL0     H81935   2.954   3.287   2.242 -3.5432  1.8726 -0.2066
  621MOL0     H81936   2.627   3.587   2.495  2.1612 -1.8447 -2.1677
  621MOL0     H81937   2.369   3.650   2.486 -1.0167  2.1698 -0.2618
  621MOL0     H81938   2.311   3.974   2.399  0.5056 -0.4215  0.0021
  621MOL0     H81939   2.189   3.884   2.487 -0.2841  0.2537 -0.3964
  621MOL0     H81940   2.025   3.918   2.317 -1.1570  2.5543 -0.9807
  621MOL0     H81941   2.134   3.995   2.217  0.4538 -0.8998 -0.2442
  621MOL0     H81942   2.049   4.185   2.327 -2.4949 -0.7646  0.3968
  621MOL0     H81943   2.180   4.150   2.428 -1.8026  3.1525  0.1430
  621MOL0     H81944   2.012   4.007   2.567  2.3260 -0.4678 -0.3103
  621MOL0     H81945   2.015   4.185   2.564  5.5353 -1.6870  0.2273
  621MOL0     H81946   1.830   4.023   2.373 -0.8639 -1.7620  2.1740
  621MOL0     H81947   1.850   4.196   2.383  0.0549  0.4286  0.8466
  621MOL0     H81948   1.770   4.157   2.637 -2.0478  0.5663 -0.0865
  621MOL0     H81949   1.745   3.995   2.573  0.7246  0.5934  1.2594
  621MOL0     H81950   1.619   4.232   2.442  3.7854  0.0336  0.9329
  621MOL0     H81951   1.570   4.065   2.428  1.5414  2.9196 -2.6129
  621MOL0     H81952   1.415   4.206   2.588  0.2389  0.6268  0.3232
  621MOL0     H81953   1.538   4.230   2.694 -0.5229  1.7755 -2.0263
  621MOL0     H81954   2.453   3.876   2.126  2.5896  1.7287  0.7198
  621MOL0     H81955   2.683   3.813   2.131  0.4233  2.1302  1.0158
  621MOL0     H81956   3.035   3.660   2.432  0.0953 -0.3296 -0.3747
  621MOL0     H81957   3.276   3.610   2.445 -0.6202 -0.1628  1.4570
  621MOL0     H81958   2.804   2.942   2.438 -2.8113 -1.1833  1.9129
  621MOL0     H81959   2.579   3.056   2.447 -0.6810  0.8262  2.4026
  621MOL0     H81960   2.215   3.383   2.377 -0.6066  1.5914 -1.6260
  621MOL0     H81961   2.020   3.496   2.466  0.7710  0.1028 -0.7811
  621MOL0     H81962   1.844   3.572   2.573 -0.2958 -1.6457  1.1749
  621MOL0     H81963   1.974   3.693   2.597  0.9829 -1.6130 -1.6769
  621MOL0     H81964   1.840   3.771   2.791  2.7168 -0.5724 -1.0504
  621MOL0     H81965   1.747   3.782   2.636 -2.8829 -2.2389 -0.5343
  621MOL0     H81966   1.716   3.539   2.805  2.7064  0.2729 -1.7725
  621MOL0     H81967   1.614   3.618   2.685  0.2685  0.4074 -0.0812
  621MOL0     H81968   1.684   3.773   2.940 -1.3798  0.4219  1.1623
  621MOL0     H81969   1.555   3.804   2.830 -0.8439 -0.6034  0.1239
  621MOL0     H81970   1.376   3.522   3.102  2.7563 -2.6068  0.6872
  621MOL0     H81971   2.148   3.410   2.875  1.1730  1.4777  0.3558
  621MOL0     H81972   2.343   3.305   2.789 -4.4048 -1.9808  2.3479
  622MOL0     O81973   8.850   8.358   5.830 -0.0312 -0.2402  0.0139
  622MOL0     C81974   8.921   8.300   5.920 -0.3859  1.3859 -0.2166
  622MOL0     O81975   8.881   8.242   6.034 -0.0738 -0.6110 -0.0298
  622MOL0     C81976   8.748   8.267   6.074 -0.4096  0.2213  0.4652
  622MOL0     C81977   8.683   8.384   6.059  0.4903  0.3091 -0.2586
  622MOL0     C81978   8.538   8.395   6.087  0.0132  0.4452  0.7959
  622MOL0     C81979   8.466   8.285   6.131  0.5040  0.8034  0.8654
  622MOL0     O81980   8.336   8.303   6.144 -0.1449  0.3997  0.1310
  622MOL0     C81981   8.242   8.207   6.194 -0.3603 -0.2881 -0.3355
  622MOL0     C81982   8.151   8.161   6.075 -0.1779  0.0504 -0.5835
  622MOL0     C81983   8.222   8.088   5.960 -0.1179  0.5830 -0.0557
  622MOL0     C81984   8.119   8.029   5.864 -0.1837 -0.3706  0.2608
  622MOL0     C81985   8.097   8.087   5.726  0.2030 -0.4031 -1.3459
  622MOL0     C81986   8.041   8.227   5.738  0.1221  0.9648  0.4522
  622MOL0     C81987   8.002   8.292   5.606 -0.0188  0.1949  0.7705
  622MOL0     C81988   8.081   8.411   5.545  0.4452 -0.2190 -0.3463
  622MOL0     N81989   8.226   8.393   5.536 -0.9569 -0.2297 -0.7287
  622MOL0     C81990   8.308   8.434   5.631  0.0193 -0.4144 -0.6774
  622MOL0     C81991   8.430   8.417   5.585 -0.2004 -0.1801  0.2066
  622MOL0     C81992   8.543   8.479   5.668  0.6328 -0.3080  0.0860
  622MOL0     C81993   8.556   8.623   5.622  0.0592  0.3944 -0.6078
  622MOL0     C81994   8.643   8.711   5.723  0.0104 -0.0720  0.5483
  622MOL0     C81995   8.788   8.662   5.736 -0.0005 -0.1856  0.3389
  622MOL0     O81996   8.867   8.778   5.768  0.2469 -0.5230  0.1520
  622MOL0     C81997   9.004   8.760   5.809  0.9626  0.5179  0.6890
  622MOL0     C81998   9.089   8.647   5.768 -0.9663  0.0022  0.4238
  622MOL0     C81999   9.214   8.641   5.818  0.2184  0.6334  0.2035
  622MOL0     C82000   9.268   8.739   5.895 -0.4401 -0.4448 -0.2049
  622MOL0     C82001   9.408   8.714   5.933 -0.1652  0.3419 -0.3585
  622MOL0     O82002   9.457   8.585   5.946  0.1109 -0.1665  0.2116
  622MOL0     C82003   9.584   8.573   6.001  0.4010 -0.1895  0.2135
  622MOL0     C82004   9.685   8.520   5.925  0.6654 -0.0131  0.0282
  622MOL0     C82005   9.808   8.505   5.991 -0.1632  0.4860  0.5114
  622MOL0     C82006   9.819   8.522   6.131 -0.4958 -0.5878 -0.3026
  622MOL0     O82007   9.949   8.484   6.172  0.1420  0.2179 -0.1006
  622MOL0     C82008   9.991   8.517   6.307 -0.6399  0.2795 -0.5681
  622MOL0     C82009  10.127   8.459   6.342 -0.0479 -0.2739  0.0310
  622MOL0     C82010  10.178   8.498   6.486  0.2449  0.0842 -0.3631
  622MOL0     C82011  10.330   8.462   6.506  0.4897 -0.7822  0.0763
  622MOL0     C82012  10.324   8.304   6.520  1.2693  0.9443 -1.0748
  622MOL0     C82013  10.460   8.245   6.525 -0.2578  0.1812 -0.5600
  622MOL0     C82014  10.439   8.111   6.597  0.6417  0.1439  0.0882
  622MOL0     C82015  10.560   8.008   6.587  0.6149  0.5583  0.4867
  622MOL0    Cl82016  10.711   8.094   6.618  0.1332 -0.0195 -0.3415
  622MOL0     C82017   9.716   8.573   6.208  0.4527 -0.4500 -0.2571
  622MOL0     C82018   9.604   8.597   6.136  0.0129 -0.9728 -0.3337
  622MOL0     O82019   9.470   8.817   5.960 -0.7488 -0.4783  0.0079
  622MOL0     C82020   9.198   8.857   5.916  0.1986 -0.0698 -1.2266
  622MOL0     C82021   9.059   8.867   5.885  1.2411  0.1643  0.6207
  622MOL0     N82022   8.426   8.380   5.454  0.0792 -0.4156 -0.6052
  622MOL0     N82023   8.301   8.377   5.426  0.6736 -0.0405  0.2532
  622MOL0     C82024   8.537   8.159   6.146  0.0150 -0.4476 -0.8302
  622MOL0     C82025   8.677   8.160   6.121 -0.7607  0.2857 -0.3577
  622MOL0     C82026   9.070   8.283   5.894  0.0946  0.5671  0.1973
  622MOL0     C82027   9.167   8.244   5.994  0.2615 -0.1563 -1.1151
  622MOL0     C82028   9.295   8.211   5.950 -0.4492  1.1799 -0.3439
  622MOL0     C82029   9.341   8.222   5.820 -0.1159 -0.4104 -0.3899
  622MOL0     O82030   9.472   8.187   5.773  0.2489 -0.5608 -0.6073
  622MOL0     C82031   9.565   8.123   5.864  0.4279  0.3306 -0.9127
  622MOL0     C82032   9.686   8.080   5.785 -0.6495 -0.2288 -0.2385
  622MOL0     C82033   9.767   8.197   5.709  0.0975  0.5071 -0.7296
  622MOL0     C82034   9.913   8.161   5.715 -0.7130 -0.3591 -0.1391
  622MOL0     C82035   9.980   8.224   5.834 -1.1387  0.8573 -0.4405
  622MOL0     C82036  10.056   8.257   5.919 -0.4648 -0.4684 -1.0537
  622MOL0     C82037   9.254   8.275   5.730  0.0176 -0.5733  0.2590
  622MOL0     C82038   9.118   8.289   5.764  0.4737 -0.4071  0.1930
  622MOL0     H82039   8.725   8.481   6.035  0.0183  1.0454  1.6939
  622MOL0     H82040   8.487   8.489   6.070  0.7071  1.1841  2.5594
  622MOL0     H82041   8.190   8.270   6.266 -0.0321 -0.1074 -0.2590
  622MOL0     H82042   8.272   8.126   6.261  0.5771 -0.6795 -1.2094
  622MOL0     H82043   8.104   8.253   6.041  3.1322  1.8183 -0.8480
  622MOL0     H82044   8.071   8.093   6.105  0.2007  0.6849  2.1642
  622MOL0     H82045   8.294   8.014   5.996  2.2128  1.6891 -2.1076
  622MOL0     H82046   8.280   8.156   5.897 -0.4131 -0.0839 -1.0610
  622MOL0     H82047   8.158   7.931   5.835  1.4634  0.4402 -0.3825
  622MOL0     H82048   8.023   8.017   5.914  0.4168 -0.5145  1.4344
  622MOL0     H82049   8.021   8.029   5.673 -3.9555  1.6097  1.7881
  622MOL0     H82050   8.190   8.088   5.669  1.9150 -0.1683  1.2915
  622MOL0     H82051   8.104   8.293   5.798 -1.3918  1.6004  1.4321
  622MOL0     H82052   7.954   8.220   5.804  1.4577 -3.3782  2.0643
  622MOL0     H82053   8.001   8.212   5.530 -0.3713 -1.0284  2.0189
  622MOL0     H82054   7.900   8.329   5.614 -1.0828 -2.6236  1.3136
  622MOL0     H82055   8.060   8.502   5.603  2.7347  1.7647 -2.3892
  622MOL0     H82056   8.052   8.413   5.440 -1.7952 -1.9943  0.1529
  622MOL0     H82057   8.294   8.471   5.732  1.5807 -3.2059  0.6680
  622MOL0     H82058   8.636   8.429   5.639  1.1103 -0.5876  1.9605
  622MOL0     H82059   8.531   8.455   5.773 -0.6224 -4.0634 -0.7812
  622MOL0     H82060   8.463   8.680   5.616  1.0963  2.0266 -4.2639
  622MOL0     H82061   8.602   8.630   5.523  0.8860  1.8692 -0.1542
  622MOL0     H82062   8.644   8.814   5.685 -2.7087 -0.1151  0.1498
  622MOL0     H82063   8.595   8.717   5.821 -0.1476  0.3165  0.4499
  622MOL0     H82064   8.812   8.610   5.642 -0.6855 -0.4682  0.3152
  622MOL0     H82065   8.811   8.597   5.821  1.3958  0.7404  0.7037
  622MOL0     H82066   9.064   8.561   5.708  1.2521 -0.8371  0.6167
  622MOL0     H82067   9.281   8.560   5.792 -0.8245  0.3193 -1.6975
  622MOL0     H82068   9.662   8.500   5.821  0.1820  0.5165  0.0332
  622MOL0     H82069   9.885   8.467   5.925 -1.9168 -3.3558  0.4204
  622MOL0     H82070   9.912   8.483   6.375 -1.0915 -0.6774 -1.5387
  622MOL0     H82071  10.009   8.624   6.304 -1.6858  0.4670 -0.5953
  622MOL0     H82072  10.192   8.498   6.264 -0.1659  2.4278  1.1933
  622MOL0     H82073  10.127   8.350   6.331 -0.3011 -0.8215  3.9727
  622MOL0     H82074  10.121   8.449   6.566  2.3526 -1.2983  0.3746
  622MOL0     H82075  10.171   8.606   6.499 -0.8782 -0.0795  0.5483
  622MOL0     H82076  10.388   8.507   6.424 -0.8775  2.6324  0.7985
  622MOL0     H82077  10.374   8.506   6.595  0.9561 -0.6110 -0.2327
  622MOL0     H82078  10.259   8.254   6.448 -1.0114  0.4838  1.1264
  622MOL0     H82079  10.285   8.284   6.620  1.3739  1.0682 -1.0085
  622MOL0     H82080  10.524   8.308   6.586  0.3616 -0.3241 -0.6724
  622MOL0     H82081  10.504   8.237   6.425 -2.1155 -1.7546 -1.2957
  622MOL0     H82082  10.420   8.128   6.704 -1.4551  2.1857 -0.5152
  622MOL0     H82083  10.355   8.055   6.555  0.3870  0.0657  0.6964
  622MOL0     H82084  10.552   7.964   6.487 -1.8965  1.2507  0.3107
  622MOL0     H82085  10.550   7.925   6.657  1.3124 -1.1423 -1.3172
  622MOL0     H82086   9.735   8.616   6.306  1.0213  0.2311 -0.6509
  622MOL0     H82087   9.532   8.658   6.190  2.1814  0.4191  1.1419
  622MOL0     H82088   9.235   8.949   5.959 -0.5898 -0.1072 -0.4394
  622MOL0     H82089   8.999   8.956   5.896 -0.7091 -1.0788  0.5954
  622MOL0     H82090   8.488   8.070   6.185  2.6406 -1.3377  0.6830
  622MOL0     H82091   8.736   8.072   6.145 -0.9186  1.1552  4.1107
  622MOL0     H82092   9.145   8.238   6.100  0.4755 -1.6763 -1.1290
  622MOL0     H82093   9.366   8.177   6.024 -1.1393 -1.1133 -0.6717
  622MOL0     H82094   9.518   8.039   5.916  2.4927  0.3081  1.1016
  622MOL0     H82095   9.594   8.196   5.940 -1.4394  0.2170 -0.0306
  622MOL0     H82096   9.755   8.046   5.863 -0.7419 -0.3147 -0.1928
  622MOL0     H82097   9.664   7.991   5.725 -1.4253 -2.6065  3.2677
  622MOL0     H82098   9.760   8.289   5.767  0.9238 -0.9435  1.7924
  622MOL0     H82099   9.734   8.212   5.605 -0.3234 -0.0461 -0.6836
  622MOL0     H82100   9.929   8.052   5.718  1.1356 -0.1183 -0.0780
  622MOL0     H82101   9.962   8.197   5.624  0.3958  2.7927  1.5520
  622MOL0     H82102  10.125   8.288   5.996 -1.2647  0.7126 -0.7917
  622MOL0     H82103   9.269   8.286   5.623 -1.4785  1.9310  0.2364
  622MOL0     H82104   9.043   8.307   5.688 -0.0604 -0.4986  0.6962
  623MOL0     O82105  11.382   3.357  10.224  0.3711 -0.1641 -0.1205
  623MOL0     C82106  11.300   3.444  10.236  0.5115 -0.6966  1.3423
  623MOL0     O82107  11.168   3.430  10.227 -1.3964 -0.0443 -0.3458
  623MOL0     C82108  11.126   3.316  10.160 -0.2302 -0.3684  0.1500
  623MOL0     C82109  11.041   3.329  10.055 -0.5725 -0.3453  0.7439
  623MOL0     C82110  10.990   3.217   9.996 -0.7075 -0.6483 -0.4066
  623MOL0     C82111  11.011   3.090  10.047  0.6896  0.8231  0.3464
  623MOL0     O82112  10.954   2.972  10.018  0.4546 -0.0148 -0.0329
  623MOL0     C82113  10.926   2.938   9.885  0.7966  0.3313 -1.3787
  623MOL0     C82114  10.806   2.848   9.895  1.3189  0.7140  0.3848
  623MOL0     C82115  10.854   2.711   9.938  0.8901 -0.1890  0.7342
  623MOL0     C82116  10.726   2.620   9.940 -0.3117  0.2309 -0.6215
  623MOL0     C82117  10.743   2.488   9.999 -0.1450  0.1855  0.5100
  623MOL0     C82118  10.810   2.396   9.887  0.5124 -0.1177  0.2023
  623MOL0     C82119  10.809   2.256   9.926  0.6810  0.8821  0.2198
  623MOL0     C82120  10.887   2.227  10.060  0.0534 -1.0928  0.4074
  623MOL0     N82121  10.893   2.087  10.102  0.1743  0.6070 -0.2276
  623MOL0     C82122  10.782   2.013  10.148 -0.0802  0.3524  1.2228
  623MOL0     C82123  10.844   1.900  10.192  0.8319 -0.7597 -0.3666
  623MOL0     C82124  10.787   1.779  10.263  0.1057 -0.2676 -0.9810
  623MOL0     C82125  10.775   1.659  10.170 -0.6067 -0.6554 -0.3276
  623MOL0     C82126  10.635   1.607  10.171 -0.6523 -0.2819 -0.2727
  623MOL0     C82127  10.611   1.500  10.277  0.4232 -0.1783  0.2662
  623MOL0     O82128  10.683   1.378  10.259 -0.1953 -0.0037 -0.3173
  623MOL0     C82129  10.689   1.282  10.353 -1.5072 -0.1858 -0.0039
  623MOL0     C82130  10.792   1.184  10.337  0.5614  0.2977 -0.3701
  623MOL0     C82131  10.810   1.085  10.433 -0.6848  0.5377 -0.1391
  623MOL0     C82132  10.735   1.089  10.557 -0.4608 -0.4720  0.0451
  623MOL0     C82133  10.767   0.987  10.661  0.1658 -0.5389  0.6394
  623MOL0     O82134  10.847   0.878  10.628  0.0272 -0.5279 -0.7238
  623MOL0     C82135  10.857   0.785  10.725  0.4924  0.2030 -0.4120
  623MOL0     C82136  10.969   0.783  10.815  1.0229  0.0670 -0.1221
  623MOL0     C82137  10.976   0.672  10.898  0.5948 -0.5298 -0.6923
  623MOL0     C82138  10.878   0.572  10.905  0.0397 -0.0171  0.6958
  623MOL0     O82139  10.893   0.464  10.996 -0.7393  0.8529  1.3556
  623MOL0     C82140  10.768   0.409  11.042 -0.6927  0.2151  0.9059
  623MOL0     C82141  10.788   0.297  11.140 -0.2252  0.0656  0.5988
  623MOL0     C82142  10.839   0.345  11.279  0.3250 -1.0523  0.4346
  623MOL0     C82143  10.855   0.230  11.377 -0.2778 -0.4729  0.7091
  623MOL0     C82144  10.889   0.272  11.522  0.1766 -0.6598  1.2085
  623MOL0     C82145  11.031   0.323  11.541  0.7151 -0.6915  0.0415
  623MOL0     C82146  11.097   0.314  11.679  0.5069 -0.5855 -0.2543
  623MOL0     C82147  11.248   0.323  11.671 -1.1025  1.0566  0.5016
  623MOL0    Cl82148  11.321   0.167  11.616  0.4772 -0.1341 -0.4748
  623MOL0     C82149  10.770   0.577  10.819 -0.8455 -0.1351  0.4544
  623MOL0     C82150  10.763   0.674  10.722  0.0395  0.3101 -0.1270
  623MOL0     O82151  10.731   1.005  10.775 -0.2543 -0.4049  0.3145
  623MOL0     C82152  10.638   1.185  10.569  0.6334  0.2064 -0.9140
  623MOL0     C82153  10.619   1.279  10.473 -0.0988 -0.5579 -0.3052
  623MOL0     N82154  10.978   1.912  10.181 -0.5219 -0.5488 -0.4962
  623MOL0     N82155  11.006   2.024  10.122  0.2934 -0.3137 -1.0457
  623MOL0     C82156  11.075   3.078  10.172 -0.9209 -0.2487 -0.0008
  623MOL0     C82157  11.142   3.190  10.229  0.3432  0.1087  0.2708
  623MOL0     C82158  11.349   3.578  10.281  0.0995  1.2953 -0.1394
  623MOL0     C82159  11.484   3.603  10.273 -0.1036  0.9096  0.0851
  623MOL0     C82160  11.533   3.704  10.356  0.4132 -1.3565  0.6015
  623MOL0     C82161  11.445   3.788  10.435 -0.1131 -0.6887  0.1683
  623MOL0     O82162  11.498   3.876  10.526  0.4186  0.3420  0.4848
  623MOL0     C82163  11.622   3.940  10.501 -0.5568 -0.9778  0.8692
  623MOL0     C82164  11.632   4.077  10.568  0.3636  0.6169  1.0776
  623MOL0     C82165  11.766   4.144  10.538 -0.1985 -0.0424  0.2294
  623MOL0     C82166  11.774   4.271  10.625  0.0150  0.1923  0.8395
  623MOL0     C82167  11.897   4.340  10.600  0.3358 -0.1184  0.4034
  623MOL0     C82168  12.010   4.385  10.594  0.4022 -0.0802  0.2383
  623MOL0     C82169  11.313   3.754  10.444 -1.0528 -0.8499 -1.2338
  623MOL0     C82170  11.267   3.657  10.361 -0.0090  0.1384 -0.2482
  623MOL0     H82171  11.015   3.427  10.015 -0.7610  0.4247  2.6222
  623MOL0     H82172  10.921   3.228   9.913  0.4823  2.5547 -1.1429
  623MOL0     H82173  11.016   2.902   9.834 -0.5272 -2.4907 -1.9038
  623MOL0     H82174  10.872   3.016   9.830 -0.0258  1.7317  1.2617
  623MOL0     H82175  10.769   2.839   9.792 -0.7806 -2.0991  1.2448
  623MOL0     H82176  10.719   2.891   9.945  0.0105  2.6869 -3.1857
  623MOL0     H82177  10.882   2.709  10.044  0.2089  1.6475  0.9863
  623MOL0     H82178  10.931   2.664   9.877  1.0001  0.3762  0.4296
  623MOL0     H82179  10.644   2.660  10.001 -0.2314 -2.8818  1.7812
  623MOL0     H82180  10.685   2.598   9.842 -1.6615 -0.6024  0.0966
  623MOL0     H82181  10.656   2.441  10.047  0.0475 -1.2653 -0.5271
  623MOL0     H82182  10.817   2.506  10.078 -0.7063  5.3351  0.2495
  623MOL0     H82183  10.913   2.431   9.878  0.4471  0.7770  2.3951
  623MOL0     H82184  10.762   2.409   9.789  3.3227  1.3929 -1.0993
  623MOL0     H82185  10.708   2.222   9.948  0.8192  0.1770 -0.2186
  623MOL0     H82186  10.849   2.201   9.841  1.0256  1.6524 -0.1281
  623MOL0     H82187  10.821   2.268  10.137 -0.5380  1.4996 -1.3689
  623MOL0     H82188  10.981   2.283  10.069 -0.7936  0.1856  1.8788
  623MOL0     H82189  10.675   2.031  10.153 -0.2120  0.2010 -0.4998
  623MOL0     H82190  10.702   1.803  10.329  1.8124 -0.5211  1.4550
  623MOL0     H82191  10.859   1.743  10.338 -1.9859  0.5417  1.5766
  623MOL0     H82192  10.845   1.582  10.205 -0.8389 -1.1659 -0.9738
  623MOL0     H82193  10.801   1.691  10.069 -1.3897 -1.8776 -0.9482
  623MOL0     H82194  10.559   1.684  10.189  2.0222  2.2898  0.7663
  623MOL0     H82195  10.616   1.556  10.076 -0.1974  2.4627 -1.9464
  623MOL0     H82196  10.505   1.474  10.264 -0.0457  1.7441 -0.1152
  623MOL0     H82197  10.639   1.541  10.374  4.3282 -0.9465 -0.3746
  623MOL0     H82198  10.849   1.187  10.244 -2.2321  1.1553 -2.1815
  623MOL0     H82199  10.888   1.010  10.420 -1.6392 -0.8784  1.9864
  623MOL0     H82200  11.056   0.848  10.812  2.3645 -1.6176  0.6954
  623MOL0     H82201  11.062   0.666  10.963 -0.6103  1.1660  1.2050
  623MOL0     H82202  10.724   0.359  10.955  2.0291 -1.0034  0.1304
  623MOL0     H82203  10.703   0.485  11.087 -0.4326  0.6050  0.6298
  623MOL0     H82204  10.857   0.220  11.105 -2.5920 -1.8196 -0.2658
  623MOL0     H82205  10.689   0.249  11.142  0.4063 -1.3171  0.1231
  623MOL0     H82206  10.762   0.412  11.320 -0.1610 -0.5404 -1.2208
  623MOL0     H82207  10.936   0.395  11.270 -0.1868  0.1041  1.1363
  623MOL0     H82208  10.770   0.161  11.378 -1.6097  1.1089  0.4431
  623MOL0     H82209  10.933   0.162  11.341  1.2724  0.8074  1.5178
  623MOL0     H82210  10.866   0.178  11.574 -1.3842 -0.1222  1.5415
  623MOL0     H82211  10.809   0.345  11.536  0.7023  2.0792 -5.9545
  623MOL0     H82212  11.024   0.426  11.506 -2.4692  0.3808  3.1997
  623MOL0     H82213  11.095   0.275  11.467 -0.4300 -1.9403 -0.1879
  623MOL0     H82214  11.070   0.401  11.740 -2.0872 -2.1646  1.0515
  623MOL0     H82215  11.073   0.223  11.735  0.2095 -1.6844 -2.0686
  623MOL0     H82216  11.294   0.353  11.767 -2.4609  2.1435  0.8485
  623MOL0     H82217  11.278   0.401  11.600 -1.9425  3.9376  3.0587
  623MOL0     H82218  10.692   0.501  10.816 -0.8152 -0.1762  0.6341
  623MOL0     H82219  10.679   0.679  10.653 -0.9426 -0.2160  0.9981
  623MOL0     H82220  10.572   1.172  10.655 -0.9653 -2.2204 -2.3614
  623MOL0     H82221  10.536   1.347  10.489  0.8678  0.3195  1.2652
  623MOL0     H82222  11.083   2.978  10.214 -3.8601 -1.1322 -1.2858
  623MOL0     H82223  11.198   3.179  10.321 -1.6079  2.2002  1.8142
  623MOL0     H82224  11.541   3.538  10.207 -1.3212  2.8776 -3.1466
  623MOL0     H82225  11.639   3.721  10.372  0.1713 -0.6538  1.5640
  623MOL0     H82226  11.618   3.965  10.394 -4.4679  2.4752  1.5509
  623MOL0     H82227  11.709   3.879  10.526  1.8691  1.9105  0.0143
  623MOL0     H82228  11.549   4.136  10.529  1.2137  0.5499 -0.9736
  623MOL0     H82229  11.605   4.063  10.673 -0.9937  2.4626  1.0123
  623MOL0     H82230  11.763   4.163  10.431 -2.1503  0.1925  0.2891
  623MOL0     H82231  11.850   4.077  10.555  0.0919 -1.3163 -4.7011
  623MOL0     H82232  11.701   4.337  10.577  3.9802  2.1811 -3.1135
  623MOL0     H82233  11.755   4.247  10.730 -0.6105 -2.4388  0.2040
  623MOL0     H82234  12.108   4.428  10.586 -0.5686  1.9088 -2.6953
  623MOL0     H82235  11.256   3.797  10.526 -1.9244 -1.0118 -1.7488
  623MOL0     H82236  11.165   3.629  10.388  0.6230 -1.7185  0.3585
  624MOL0     O82237   0.834   0.805   1.192  0.2751  0.3987 -0.9416
  624MOL0     C82238   0.886   0.907   1.219 -0.1130 -0.5540 -1.3911
  624MOL0     O82239   0.825   1.015   1.272  0.5250 -0.0358 -0.7191
  624MOL0     C82240   0.689   1.016   1.269 -0.3236  0.2966  0.7542
  624MOL0     C82241   0.628   1.009   1.389  0.9915 -0.1740 -0.1849
  624MOL0     C82242   0.492   1.029   1.392  0.2927 -0.3459 -0.0631
  624MOL0     C82243   0.405   1.048   1.276 -1.2618 -0.0151  0.4346
  624MOL0     O82244   0.269   1.057   1.287 -0.5838 -0.6488 -0.0441
  624MOL0     C82245   0.203   1.000   1.402  0.3952  0.9360  0.4076
  624MOL0     C82246   0.057   1.003   1.377 -0.6761 -0.1713  0.9430
  624MOL0     C82247  -0.027   0.978   1.503  0.1110 -0.1380  0.5022
  624MOL0     C82248  -0.179   1.004   1.471 -1.0009 -0.5203 -0.3361
  624MOL0     C82249  -0.273   1.004   1.590 -0.6817  0.9728 -1.5723
  624MOL0     C82250  -0.258   0.869   1.666  0.7662  0.7621 -0.2134
  624MOL0     C82251  -0.319   0.746   1.597  0.2531  0.4629 -0.9590
  624MOL0     C82252  -0.472   0.768   1.560  0.0829  0.9260  0.2739
  624MOL0     N82253  -0.525   0.651   1.503  0.6397 -0.4145  0.7509
  624MOL0     C82254  -0.502   0.529   1.547  0.1589 -0.9596  0.1906
  624MOL0     C82255  -0.593   0.442   1.494 -0.0590  0.2621 -0.5872
  624MOL0     C82256  -0.595   0.294   1.524  0.5130 -1.1415  1.1415
  624MOL0     C82257  -0.655   0.209   1.404 -0.2693  0.2222  0.0515
  624MOL0     C82258  -0.809   0.181   1.436 -0.4068  0.6670  0.8751
  624MOL0     C82259  -0.884   0.140   1.314  0.7571  0.4432  0.3927
  624MOL0     O82260  -1.021   0.107   1.339  0.9623 -0.1475  0.2003
  624MOL0     C82261  -1.088   0.056   1.233  0.5841 -0.9841  0.3535
  624MOL0     C82262  -1.192  -0.037   1.266 -0.7658  0.4292 -0.2859
  624MOL0     C82263  -1.282  -0.087   1.172 -0.0971 -0.3317 -0.2821
  624MOL0     C82264  -1.276  -0.036   1.038  0.0941  0.3713  0.2513
  624MOL0     C82265  -1.372  -0.082   0.939 -0.4789 -0.1085 -0.0851
  624MOL0     O82266  -1.347  -0.045   0.807 -0.3424 -0.0431 -0.2239
  624MOL0     C82267  -1.430  -0.097   0.712 -0.0299 -0.6653  0.7870
  624MOL0     C82268  -1.396  -0.198   0.627 -0.3132 -0.3062 -0.2648
  624MOL0     C82269  -1.484  -0.247   0.527 -0.2716 -0.4014 -0.6579
  624MOL0     C82270  -1.603  -0.177   0.508  0.1328 -0.9282  0.3152
  624MOL0     O82271  -1.693  -0.214   0.417 -0.4750 -0.1570  0.5601
  624MOL0     C82272  -1.698  -0.344   0.363 -0.0492  0.3676 -1.1153
  624MOL0     C82273  -1.755  -0.453   0.475 -0.1072 -0.4972  0.5112
  624MOL0     C82274  -1.740  -0.600   0.439  0.3125  0.6770 -0.1344
  624MOL0     C82275  -1.842  -0.638   0.325  0.0032 -1.0855 -0.3237
  624MOL0     C82276  -1.865  -0.781   0.292 -0.4301  0.2678  0.0861
  624MOL0     C82277  -1.916  -0.863   0.413 -0.1934  0.7092  0.1890
  624MOL0     C82278  -1.946  -1.006   0.349 -0.9101  0.4328 -0.3342
  624MOL0     C82279  -1.974  -1.102   0.469  0.5380 -0.8910 -0.3266
  624MOL0    Cl82280  -1.833  -1.140   0.576  0.2171 -0.5620  0.0560
  624MOL0     C82281  -1.635  -0.063   0.588  0.0663 -0.4332  0.0473
  624MOL0     C82282  -1.545  -0.023   0.685 -0.0237  0.0830  0.0579
  624MOL0     O82283  -1.455  -0.164   0.974  0.4543  0.2856 -0.0031
  624MOL0     C82284  -1.184   0.065   1.009 -0.2738 -0.9678 -1.1075
  624MOL0     C82285  -1.090   0.111   1.105  0.2903 -0.0381  0.2649
  624MOL0     N82286  -0.680   0.515   1.420 -0.4519 -0.7811 -0.0939
  624MOL0     N82287  -0.643   0.644   1.435  0.0267 -0.5850 -0.2443
  624MOL0     C82288   0.477   1.053   1.152  0.0188  0.1965  0.0685
  624MOL0     C82289   0.617   1.035   1.146 -0.6208 -0.2068  0.3361
  624MOL0     C82290   1.035   0.908   1.197  0.9427  0.4070 -0.1229
  624MOL0     C82291   1.113   0.795   1.169 -0.7300 -0.5342  0.2599
  624MOL0     C82292   1.253   0.802   1.142 -0.6490 -0.6562 -0.9382
  624MOL0     C82293   1.309   0.927   1.143  0.0962  0.9551  0.1657
  624MOL0     O82294   1.447   0.955   1.131  1.1503  0.8992  0.0821
  624MOL0     C82295   1.542   0.867   1.176  0.2647 -0.3819  0.2977
  624MOL0     C82296   1.662   0.933   1.234  0.3456  0.3920 -0.5873
  624MOL0     C82297   1.743   0.848   1.338 -0.1075 -0.4752  0.1095
  624MOL0     C82298   1.811   0.736   1.274  1.0201  0.6468 -0.6007
  624MOL0     C82299   1.898   0.662   1.372  0.5662  0.8519  0.7189
  624MOL0     C82300   1.975   0.617   1.460  0.3832 -0.4578 -0.0669
  624MOL0     C82301   1.233   1.046   1.176  0.5708  0.4474 -0.1453
  624MOL0     C82302   1.096   1.036   1.202 -0.2462 -0.6696  0.8537
  624MOL0     H82303   0.693   0.984   1.473  1.2322  0.6303 -0.1213
  624MOL0     H82304   0.444   1.006   1.487  0.4565 -0.5254 -0.0239
  624MOL0     H82305   0.231   1.056   1.492  1.4919 -1.1607  1.4551
  624MOL0     H82306   0.246   0.900   1.415  0.0659  0.3422 -2.4814
  624MOL0     H82307   0.036   0.929   1.299  1.7947  3.0280 -3.1659
  624MOL0     H82308   0.024   1.099   1.338 -3.3747 -1.8332 -1.3206
  624MOL0     H82309  -0.006   1.051   1.581 -2.6155  4.8003 -2.8395
  624MOL0     H82310  -0.001   0.879   1.541  1.5139  0.1546  0.3636
  624MOL0     H82311  -0.188   1.104   1.428 -1.7915 -0.7108 -0.6395
  624MOL0     H82312  -0.216   0.934   1.396  0.3641 -4.0030  1.9852
  624MOL0     H82313  -0.376   1.029   1.561 -0.5445  3.0585 -0.4332
  624MOL0     H82314  -0.249   1.091   1.652  2.6668 -2.8146  3.0707
  624MOL0     H82315  -0.305   0.874   1.764  1.8133 -0.1279  0.3551
  624MOL0     H82316  -0.156   0.839   1.692 -0.7355 -1.8534  3.5081
  624MOL0     H82317  -0.265   0.705   1.512  2.2497  0.0987  0.4296
  624MOL0     H82318  -0.330   0.670   1.675 -3.1127  4.0662  2.5126
  624MOL0     H82319  -0.473   0.842   1.479 -1.3642 -0.0715 -0.6709
  624MOL0     H82320  -0.532   0.805   1.644  1.3486 -0.4074  1.8446
  624MOL0     H82321  -0.414   0.504   1.605 -0.5979 -2.5655  0.7293
  624MOL0     H82322  -0.661   0.290   1.612  0.1770  1.8101  1.1381
  624MOL0     H82323  -0.492   0.269   1.551  2.1720  2.1035 -1.4824
  624MOL0     H82324  -0.609   0.110   1.406 -0.9065 -0.1008 -0.8478
  624MOL0     H82325  -0.653   0.263   1.309  1.0491 -0.3051 -0.2409
  624MOL0     H82326  -0.806   0.095   1.503 -1.1993 -1.0527 -1.1780
  624MOL0     H82327  -0.864   0.265   1.480  0.2235  1.5715 -0.0032
  624MOL0     H82328  -0.828   0.056   1.273  0.8918  0.6560  0.1449
  624MOL0     H82329  -0.872   0.211   1.232  1.1604  0.6483  0.6298
  624MOL0     H82330  -1.201  -0.075   1.367 -1.3748 -1.3347 -0.9628
  624MOL0     H82331  -1.363  -0.149   1.210 -0.2535  1.0721  1.8358
  624MOL0     H82332  -1.299  -0.241   0.650 -0.9830 -1.6114  0.2405
  624MOL0     H82333  -1.444  -0.324   0.462  1.6990 -0.0077  0.0187
  624MOL0     H82334  -1.606  -0.380   0.315 -2.1684 -3.4791 -2.6828
  624MOL0     H82335  -1.768  -0.345   0.279  1.3311 -0.6908 -2.3139
  624MOL0     H82336  -1.861  -0.438   0.499 -0.1674 -2.0268  1.3178
  624MOL0     H82337  -1.695  -0.444   0.565 -1.1196 -0.2307  1.1777
  624MOL0     H82338  -1.771  -0.661   0.525  0.1464  3.4513  1.9097
  624MOL0     H82339  -1.644  -0.640   0.406 -1.3733 -2.0819 -2.1686
  624MOL0     H82340  -1.937  -0.607   0.370  0.8327  0.1750  0.6070
  624MOL0     H82341  -1.817  -0.575   0.239  0.7844 -1.6493 -0.5259
  624MOL0     H82342  -1.771  -0.836   0.276 -1.5972 -2.2619  1.4315
  624MOL0     H82343  -1.902  -0.783   0.189  4.2253  1.9248 -1.9138
  624MOL0     H82344  -2.004  -0.812   0.451  0.2782  2.2203 -0.6949
  624MOL0     H82345  -1.852  -0.888   0.499 -2.1016 -1.3083  1.1289
  624MOL0     H82346  -2.039  -1.001   0.291 -0.7230  0.5827 -0.6251
  624MOL0     H82347  -1.870  -1.050   0.284 -0.1991  0.5700  0.4024
  624MOL0     H82348  -2.001  -1.200   0.428  0.5591 -0.8572 -0.4244
  624MOL0     H82349  -2.052  -1.052   0.527  0.2601 -0.4905 -1.0301
  624MOL0     H82350  -1.729  -0.010   0.575  0.1788  0.2513  1.7767
  624MOL0     H82351  -1.564   0.067   0.743  1.1953  1.3448 -1.4103
  624MOL0     H82352  -1.176   0.107   0.909  1.4170 -0.3790 -0.7475
  624MOL0     H82353  -1.024   0.192   1.074 -0.1136  0.7257  1.3281
  624MOL0     H82354   0.425   1.072   1.059  0.4738  3.8465  0.4001
  624MOL0     H82355   0.687   1.029   1.063  1.1301 -0.4882  1.7928
  624MOL0     H82356   1.079   0.692   1.172 -0.7966 -0.4916  1.6341
  624MOL0     H82357   1.316   0.715   1.130  0.2309 -0.6768  2.6598
  624MOL0     H82358   1.567   0.802   1.092 -2.7963 -1.4057  0.0272
  624MOL0     H82359   1.508   0.809   1.263  1.3862 -2.0057 -0.2861
  624MOL0     H82360   1.732   0.949   1.151  0.5302 -6.4362 -2.2805
  624MOL0     H82361   1.639   1.024   1.291 -1.0653 -0.4401  0.2444
  624MOL0     H82362   1.679   0.811   1.419 -0.2683 -0.4017  0.0170
  624MOL0     H82363   1.814   0.917   1.384  0.0182 -0.8327  0.4643
  624MOL0     H82364   1.735   0.668   1.236  1.4765 -0.4548  0.3840
  624MOL0     H82365   1.877   0.769   1.193  2.8333 -0.5968  0.2972
  624MOL0     H82366   2.045   0.591   1.537 -0.0859  1.0956  0.9376
  624MOL0     H82367   1.290   1.137   1.190  0.0676  1.0417 -1.7313
  624MOL0     H82368   1.057   1.129   1.243  0.1580 -0.0360 -0.1502
  625MOL0     O82369   4.951   1.394   9.899  0.3837 -0.2396  0.2503
  625MOL0     C82370   4.985   1.500   9.837  0.1787 -0.1042  0.3059
  625MOL0     O82371   4.909   1.616   9.836 -0.2973 -0.5945 -0.3125
  625MOL0     C82372   4.778   1.616   9.885  0.3230 -0.5986 -0.0019
  625MOL0     C82373   4.729   1.736   9.932 -0.1035  0.0943  0.4508
  625MOL0     C82374   4.601   1.745   9.992 -0.1493 -0.2226 -0.1631
  625MOL0     C82375   4.510   1.637   9.980 -0.5443  0.0886 -0.5354
  625MOL0     O82376   4.387   1.672  10.016 -0.1162 -0.3425 -0.6135
  625MOL0     C82377   4.297   1.569  10.059  0.2151 -0.2286 -0.1147
  625MOL0     C82378   4.184   1.636  10.152 -0.5545  1.2201 -0.6782
  625MOL0     C82379   4.077   1.523  10.170 -0.7932 -0.9021  0.3770
  625MOL0     C82380   3.976   1.582  10.271  0.0137  1.5364 -0.4305
  625MOL0     C82381   4.011   1.543  10.414  1.3210  1.0292 -0.0028
  625MOL0     C82382   3.909   1.603  10.516 -1.0701 -0.1254  0.3519
  625MOL0     C82383   3.954   1.736  10.573  0.6485  0.2261 -0.6358
  625MOL0     C82384   3.863   1.844  10.515 -0.2176 -0.1356  0.1175
  625MOL0     N82385   3.874   1.983  10.561 -0.3420  0.7103 -0.3903
  625MOL0     C82386   3.829   2.094  10.498  0.1648 -0.1216  0.4027
  625MOL0     C82387   3.821   2.182  10.600 -0.5216  0.2350  0.4229
  625MOL0     C82388   3.794   2.325  10.584 -0.6996  0.3328 -0.7822
  625MOL0     C82389   3.708   2.376  10.694  0.1719  0.2422 -0.3628
  625MOL0     C82390   3.572   2.311  10.699 -0.9582 -0.0862  0.9251
  625MOL0     C82391   3.480   2.340  10.580  0.1810  0.0362  0.2349
  625MOL0     O82392   3.357   2.252  10.580  0.1409 -0.3133 -0.0287
  625MOL0     C82393   3.241   2.291  10.643 -0.7201  0.7771  0.1875
  625MOL0     C82394   3.205   2.426  10.665  0.2831  0.3364  0.5286
  625MOL0     C82395   3.076   2.448  10.724 -0.2690 -1.2007  0.8082
  625MOL0     C82396   3.006   2.349  10.790 -1.0722 -0.7125 -0.3346
  625MOL0     C82397   2.881   2.367  10.877 -0.4644  0.7908  0.4621
  625MOL0     O82398   2.831   2.255  10.930  0.5677 -0.3543  0.1226
  625MOL0     C82399   2.762   2.262  11.054 -0.4523 -0.0010  0.2423
  625MOL0     C82400   2.641   2.190  11.084 -0.0519  0.2156  0.0626
  625MOL0     C82401   2.576   2.202  11.214  0.2943 -0.4488 -0.4607
  625MOL0     C82402   2.630   2.282  11.317  0.0054  0.1073  1.2001
  625MOL0     O82403   2.562   2.291  11.436  0.2041 -0.3443 -0.3270
  625MOL0     C82404   2.630   2.362  11.534  0.2620  0.5239  0.6383
  625MOL0     C82405   2.543   2.367  11.664 -0.9444  0.2274 -0.8071
  625MOL0     C82406   2.476   2.498  11.668 -0.0330  0.0468 -0.3185
  625MOL0     C82407   2.356   2.518  11.562  0.0804  0.0794  0.4174
  625MOL0     C82408   2.304   2.673  11.561 -0.2851 -0.7863  0.0881
  625MOL0     C82409   2.206   2.695  11.458  0.3570  0.3137  0.0672
  625MOL0     C82410   2.139   2.835  11.456 -0.5859  0.0295  0.2526
  625MOL0     C82411   2.120   2.910  11.588  0.3715  0.0390  0.6265
  625MOL0    Cl82412   2.019   2.801  11.686 -0.3938 -0.3916  0.5325
  625MOL0     C82413   2.754   2.347  11.283  0.5753 -0.7549  1.2542
  625MOL0     C82414   2.817   2.345  11.157  0.7847  0.4623 -0.6037
  625MOL0     O82415   2.842   2.480  10.900 -0.6886 -0.1670 -0.8897
  625MOL0     C82416   3.049   2.219  10.765  0.0343 -0.3650  0.2712
  625MOL0     C82417   3.158   2.187  10.684  0.7936 -0.7572  0.3143
  625MOL0     N82418   3.870   2.127  10.716 -0.8429 -0.7834 -0.1513
  625MOL0     N82419   3.890   2.009  10.691 -0.1946  0.0312 -0.3575
  625MOL0     C82420   4.564   1.514   9.926  0.5658 -0.4662 -0.2671
  625MOL0     C82421   4.693   1.509   9.882 -0.3839  0.2353  0.7510
  625MOL0     C82422   5.111   1.499   9.767 -0.3910 -0.2090 -0.9460
  625MOL0     C82423   5.185   1.619   9.739  0.0547 -0.4081 -0.1234
  625MOL0     C82424   5.311   1.620   9.673  0.3334  0.0793  1.0090
  625MOL0     C82425   5.362   1.501   9.627  0.0372 -0.8118 -0.4409
  625MOL0     O82426   5.464   1.512   9.535  0.1487  0.1299 -1.0198
  625MOL0     C82427   5.562   1.405   9.531 -0.8479  0.8761  0.3290
  625MOL0     C82428   5.692   1.466   9.472 -0.1354 -0.3872 -0.6766
  625MOL0     C82429   5.761   1.547   9.585  0.0642  0.0167 -0.0405
  625MOL0     C82430   5.896   1.622   9.553 -0.6360  0.0431  0.4797
  625MOL0     C82431   5.957   1.698   9.657  0.1726  0.2039  0.0632
  625MOL0     C82432   5.996   1.776   9.747  0.2261  0.7460 -0.3262
  625MOL0     C82433   5.296   1.377   9.664 -0.7934 -0.3486 -0.6047
  625MOL0     C82434   5.176   1.376   9.732  0.3428 -0.2421  0.0689
  625MOL0     H82435   4.779   1.833   9.937 -1.9387  1.0231  2.1367
  625MOL0     H82436   4.568   1.834  10.045  1.5772 -0.6767  1.7748
  625MOL0     H82437   4.347   1.480  10.100  0.1837 -1.3541 -2.3793
  625MOL0     H82438   4.245   1.544   9.966 -1.9577  1.9978  0.4066
  625MOL0     H82439   4.151   1.727  10.101  1.8931  2.3957 -0.3522
  625MOL0     H82440   4.220   1.673  10.249  0.6615 -2.5676  0.4892
  625MOL0     H82441   4.118   1.433  10.216  5.1120 -0.5943 -3.2125
  625MOL0     H82442   4.032   1.491  10.076  2.3381 -0.1350 -1.5130
  625MOL0     H82443   3.975   1.692  10.273 -0.3377  1.5832 -1.7572
  625MOL0     H82444   3.879   1.542  10.239  0.2851 -0.9506  1.5824
  625MOL0     H82445   4.111   1.567  10.453  2.4273 -1.4290 -1.1137
  625MOL0     H82446   3.998   1.437  10.434 -0.3297  1.2135 -0.0310
  625MOL0     H82447   3.905   1.528  10.595  0.5139  0.9033  1.4626
  625MOL0     H82448   3.812   1.601  10.464  0.5143  2.1892 -3.1024
  625MOL0     H82449   3.928   1.734  10.679  1.6023  1.8668 -0.3327
  625MOL0     H82450   4.061   1.751  10.555  1.4979 -1.3660  2.3707
  625MOL0     H82451   3.759   1.811  10.505 -0.0272 -0.5641 -0.4835
  625MOL0     H82452   3.902   1.854  10.413 -2.6353 -0.0658 -0.8896
  625MOL0     H82453   3.806   2.106  10.392 -1.1930 -4.5434 -0.0060
  625MOL0     H82454   3.752   2.345  10.485 -0.4687  0.9093 -0.7735
  625MOL0     H82455   3.891   2.375  10.591 -0.7921  0.3075  0.9825
  625MOL0     H82456   3.697   2.485  10.693  0.1024  0.2509  0.6516
  625MOL0     H82457   3.756   2.358  10.790 -0.2442 -0.1455 -0.2258
  625MOL0     H82458   3.595   2.206  10.718 -1.2812 -0.0928  1.2986
  625MOL0     H82459   3.511   2.338  10.786 -1.1014  1.0820  0.4770
  625MOL0     H82460   3.534   2.313  10.489  1.5397 -3.6771  1.9394
  625MOL0     H82461   3.460   2.447  10.576  1.7487  0.4751  2.1732
  625MOL0     H82462   3.273   2.503  10.631  0.1599  0.3310  0.2632
  625MOL0     H82463   3.052   2.552  10.744  4.9513 -0.0974  3.0076
  625MOL0     H82464   2.585   2.130  11.013 -2.0356 -1.0176  2.4802
  625MOL0     H82465   2.479   2.152  11.219 -0.6159  1.3557  2.1518
  625MOL0     H82466   2.655   2.463  11.498 -0.4115 -0.4503 -2.9602
  625MOL0     H82467   2.716   2.302  11.562 -0.5904 -0.6601  0.7932
  625MOL0     H82468   2.608   2.362  11.752 -1.3524  1.7781 -0.3852
  625MOL0     H82469   2.472   2.284  11.676 -1.7580  0.7115 -2.0501
  625MOL0     H82470   2.553   2.573  11.650  0.3592  0.0787  1.3079
  625MOL0     H82471   2.435   2.514  11.768 -2.2837 -2.1285 -0.7770
  625MOL0     H82472   2.401   2.496  11.465 -1.0101  0.3082 -0.1533
  625MOL0     H82473   2.267   2.457  11.577  1.3505 -1.3269  2.9076
  625MOL0     H82474   2.385   2.743  11.542 -1.0630  0.1783  0.2504
  625MOL0     H82475   2.269   2.692  11.663  4.4572 -3.5275  2.6236
  625MOL0     H82476   2.129   2.622  11.483 -1.2645  1.3123 -1.7417
  625MOL0     H82477   2.241   2.672  11.357 -0.6086 -0.9170 -0.0061
  625MOL0     H82478   2.205   2.896  11.394  0.0566  0.4115  1.2903
  625MOL0     H82479   2.047   2.845  11.396 -0.1708 -1.5088 -0.6875
  625MOL0     H82480   2.070   3.005  11.562 -0.1062 -0.4443 -0.2839
  625MOL0     H82481   2.211   2.941  11.640  1.1275  0.8606 -1.0719
  625MOL0     H82482   2.794   2.424  11.348  4.1544 -1.8358  0.5481
  625MOL0     H82483   2.896   2.416  11.135 -0.0330  1.3027 -0.8778
  625MOL0     H82484   2.984   2.137  10.795 -2.0844  1.9970  2.6627
  625MOL0     H82485   3.181   2.083  10.664  1.3391 -0.6957  0.6069
  625MOL0     H82486   4.497   1.431   9.905  2.2081 -2.8065  2.9423
  625MOL0     H82487   4.712   1.409   9.846  3.4950  2.1012 -3.1900
  625MOL0     H82488   5.138   1.714   9.763 -3.1911 -1.0802 -3.0341
  625MOL0     H82489   5.351   1.718   9.650  0.9110 -0.4335 -0.2657
  625MOL0     H82490   5.528   1.327   9.462  1.1960  0.5135 -0.3447
  625MOL0     H82491   5.578   1.357   9.627  0.8100  0.0233 -0.3270
  625MOL0     H82492   5.766   1.389   9.450  1.8547  0.4995  2.3032
  625MOL0     H82493   5.676   1.530   9.384  1.4616 -0.4978 -1.0686
  625MOL0     H82494   5.780   1.472   9.662  0.6498  0.8705  0.6618
  625MOL0     H82495   5.694   1.625   9.624  1.3304  0.0348  2.2643
  625MOL0     H82496   5.972   1.547   9.531  1.8232  1.9706  1.8063
  625MOL0     H82497   5.878   1.696   9.475  1.2678  1.7842  1.5684
  625MOL0     H82498   6.036   1.849   9.815  1.6859 -0.6394  0.4057
  625MOL0     H82499   5.346   1.284   9.640  0.5193  0.7673 -2.4257
  625MOL0     H82500   5.147   1.279   9.771  0.7806 -0.7669 -0.8902
  626MOL0     O82501  11.260   3.627   0.985  0.0209 -0.4173  0.1184
  626MOL0     C82502  11.239   3.724   1.059  0.7038  0.1484 -0.5626
  626MOL0     O82503  11.326   3.767   1.152  0.5798 -0.0580 -0.3388
  626MOL0     C82504  11.447   3.716   1.180 -0.7047  0.2960  0.6750
  626MOL0     C82505  11.535   3.660   1.084  0.1661 -0.1809  0.1914
  626MOL0     C82506  11.658   3.611   1.124  0.0957 -0.9331  1.6450
  626MOL0     C82507  11.716   3.627   1.245  0.0109 -1.0438 -0.6826
  626MOL0     O82508  11.843   3.583   1.270  0.3470 -0.5726 -0.0081
  626MOL0     C82509  11.907   3.561   1.402  0.1712  0.2218 -1.1251
  626MOL0     C82510  11.854   3.441   1.473  0.2986  0.3654  0.0968
  626MOL0     C82511  11.914   3.416   1.612  0.7871 -0.0598  0.7865
  626MOL0     C82512  11.864   3.285   1.681  0.0980 -0.0666  0.6616
  626MOL0     C82513  11.976   3.219   1.753 -0.5447  0.0487  0.4370
  626MOL0     C82514  11.920   3.111   1.851  0.8365  1.0858  0.2278
  626MOL0     C82515  12.019   3.012   1.902  0.6019 -0.1309  0.3656
  626MOL0     C82516  12.066   3.041   2.048 -0.4288 -0.1027  0.2615
  626MOL0     N82517  12.206   2.983   2.066 -0.4408  0.0275  0.0250
  626MOL0     C82518  12.237   2.846   2.089  0.0673  0.1109  0.8385
  626MOL0     C82519  12.367   2.835   2.059  1.1272  0.1436  0.4450
  626MOL0     C82520  12.427   2.694   2.054 -0.5423 -0.9578  0.7212
  626MOL0     C82521  12.518   2.665   2.169 -0.5015  0.1412 -0.6254
  626MOL0     C82522  12.448   2.558   2.260 -0.4291  0.2508 -0.0220
  626MOL0     C82523  12.540   2.513   2.372  0.6412  1.1874  0.3776
  626MOL0     O82524  12.469   2.411   2.448  0.0631  0.7191 -0.3037
  626MOL0     C82525  12.539   2.342   2.535 -1.0110  0.6366 -0.3181
  626MOL0     C82526  12.467   2.241   2.595 -0.5884 -0.0309  0.2552
  626MOL0     C82527  12.520   2.153   2.686  0.6388 -0.3145 -0.2517
  626MOL0     C82528  12.653   2.162   2.718 -0.7149 -0.2159  0.1973
  626MOL0     C82529  12.719   2.058   2.803 -0.2766  0.2452  0.9859
  626MOL0     O82530  12.837   2.080   2.858 -0.6333 -0.6491 -0.0955
  626MOL0     C82531  12.880   1.975   2.944 -0.3307 -0.5565  0.3573
  626MOL0     C82532  12.817   1.951   3.061 -1.6792  0.4457  0.5989
  626MOL0     C82533  12.860   1.852   3.148 -0.4209 -0.2720  0.0307
  626MOL0     C82534  12.965   1.771   3.123 -0.0701 -0.6018  0.1096
  626MOL0     O82535  13.007   1.668   3.201 -0.4831  1.6137 -0.2254
  626MOL0     C82536  12.954   1.642   3.335 -0.9172  0.2443 -0.5054
  626MOL0     C82537  13.024   1.517   3.396 -0.3527  0.1489  1.1394
  626MOL0     C82538  12.979   1.488   3.533  0.0663  1.1004 -0.1440
  626MOL0     C82539  13.050   1.578   3.642  0.5663  0.0363  0.3574
  626MOL0     C82540  13.002   1.528   3.782 -0.3866  0.4745  0.2121
  626MOL0     C82541  13.043   1.615   3.899 -0.1977  0.0486  0.4836
  626MOL0     C82542  12.951   1.733   3.908  0.1978 -0.5317 -1.2133
  626MOL0     C82543  12.996   1.820   4.026  0.1160 -0.3346  0.7660
  626MOL0    Cl82544  13.147   1.904   3.980 -0.0612 -0.1456 -0.4294
  626MOL0     C82545  13.028   1.784   3.000 -0.1022 -0.2833 -0.6887
  626MOL0     C82546  12.991   1.892   2.909 -0.5174  0.4263 -0.6590
  626MOL0     O82547  12.653   1.952   2.813  0.1821 -0.1324 -0.4844
  626MOL0     C82548  12.729   2.270   2.673  0.1223 -0.2341 -0.2883
  626MOL0     C82549  12.674   2.354   2.569  0.0828  0.6941  0.2750
  626MOL0     N82550  12.408   2.955   2.006 -0.0078  0.0950  0.2711
  626MOL0     N82551  12.316   3.035   2.012  0.7239  0.4956 -0.3085
  626MOL0     C82552  11.639   3.696   1.335 -0.0892 -0.0041 -0.3255
  626MOL0     C82553  11.504   3.743   1.299 -0.5789 -0.0468  0.7381
  626MOL0     C82554  11.117   3.803   1.047  0.2111 -0.0128  0.1379
  626MOL0     C82555  11.089   3.909   1.130 -0.3650  0.2184 -0.3945
  626MOL0     C82556  10.990   4.003   1.095  0.1364 -1.0407  1.2578
  626MOL0     C82557  10.901   3.984   0.983  0.0241 -0.2411 -0.4686
  626MOL0     O82558  10.824   4.084   0.927 -0.0223  0.3582  0.1346
  626MOL0     C82559  10.823   4.217   0.990  1.1417 -0.6094  0.2232
  626MOL0     C82560  10.743   4.215   1.125  0.1188 -0.3469 -0.0331
  626MOL0     C82561  10.594   4.183   1.100  0.8464  0.1781  0.0418
  626MOL0     C82562  10.506   4.225   1.225  0.0488 -0.1629  0.5101
  626MOL0     C82563  10.460   4.362   1.218  0.0292 -0.9750  0.2229
  626MOL0     C82564  10.423   4.469   1.179 -0.7098 -0.6796 -0.5663
  626MOL0     C82565  10.916   3.865   0.915  1.5930  0.3534 -0.0956
  626MOL0     C82566  11.023   3.778   0.945  0.0620  0.2733 -0.2731
  626MOL0     H82567  11.509   3.633   0.982  0.7954 -0.8364  0.1950
  626MOL0     H82568  11.714   3.560   1.046 -1.0364  0.0394  0.1481
  626MOL0     H82569  11.896   3.638   1.479  0.6765 -2.5035  1.8798
  626MOL0     H82570  12.015   3.549   1.390  0.1746  0.7751 -1.7157
  626MOL0     H82571  11.858   3.358   1.402  0.0153  0.3779  0.0647
  626MOL0     H82572  11.746   3.454   1.487  0.4081  0.7395  0.6549
  626MOL0     H82573  11.912   3.502   1.679  0.7782 -1.1831  2.2728
  626MOL0     H82574  12.021   3.398   1.596  0.4770 -0.1708 -1.6157
  626MOL0     H82575  11.792   3.321   1.755  0.5465  0.0405  1.0495
  626MOL0     H82576  11.808   3.222   1.611 -4.5548  6.1666 -2.2341
  626MOL0     H82577  12.025   3.299   1.811 -1.2160  0.4329  0.4870
  626MOL0     H82578  12.043   3.179   1.677 -3.4643 -0.9461 -1.7562
  626MOL0     H82579  11.835   3.055   1.809  0.9500  0.9842  0.1348
  626MOL0     H82580  11.884   3.167   1.938  1.7860  1.0767  0.6278
  626MOL0     H82581  11.969   2.914   1.909 -3.4720  1.8355  3.0302
  626MOL0     H82582  12.098   2.987   1.831 -2.4569 -0.7000 -3.1436
  626MOL0     H82583  11.993   2.994   2.115  0.7543 -0.3258  1.4197
  626MOL0     H82584  12.062   3.146   2.077  0.7328 -0.2355  0.9669
  626MOL0     H82585  12.179   2.764   2.130  2.3824 -1.7344  0.6555
  626MOL0     H82586  12.478   2.692   1.957  0.5126  1.3553  1.1459
  626MOL0     H82587  12.337   2.632   2.054 -0.7710 -0.6351  1.0527
  626MOL0     H82588  12.535   2.752   2.234 -1.5922 -1.6536  2.2551
  626MOL0     H82589  12.618   2.639   2.133  0.3793 -0.7363  2.1797
  626MOL0     H82590  12.351   2.593   2.298 -0.0700 -0.6663  1.8856
  626MOL0     H82591  12.439   2.462   2.209  1.4574  0.4873 -0.8768
  626MOL0     H82592  12.567   2.602   2.430 -0.9282  2.3869 -0.6392
  626MOL0     H82593  12.634   2.484   2.325  0.8219  0.8913  0.9121
  626MOL0     H82594  12.361   2.231   2.576 -0.3651 -0.4979 -0.8454
  626MOL0     H82595  12.469   2.067   2.727  0.1327 -0.7038 -1.6561
  626MOL0     H82596  12.737   2.019   3.088 -1.3238 -0.0895  3.2489
  626MOL0     H82597  12.805   1.841   3.241  1.9899 -2.4844  1.3095
  626MOL0     H82598  12.845   1.630   3.337 -0.8428 -0.4250  0.2500
  626MOL0     H82599  12.984   1.721   3.405  0.0264  0.1937 -0.8430
  626MOL0     H82600  13.130   1.540   3.408 -0.1968  0.4293 -0.5484
  626MOL0     H82601  13.007   1.426   3.338  0.0148  1.0442 -0.4159
  626MOL0     H82602  13.023   1.392   3.560 -0.5234  1.3653  1.9626
  626MOL0     H82603  12.870   1.491   3.538 -0.0322 -1.6213  1.1046
  626MOL0     H82604  13.159   1.581   3.637  0.5752 -0.6279  0.0693
  626MOL0     H82605  13.014   1.681   3.645 -2.5744 -0.9896  1.7331
  626MOL0     H82606  13.050   1.431   3.797 -2.3308 -1.1435 -3.0058
  626MOL0     H82607  12.896   1.505   3.793 -0.8724  2.9884  1.7309
  626MOL0     H82608  13.145   1.646   3.877  0.5032 -2.1725  0.2974
  626MOL0     H82609  13.040   1.560   3.994  1.7422  2.0943  1.8348
  626MOL0     H82610  12.945   1.800   3.822  3.1523  2.1161  0.4379
  626MOL0     H82611  12.848   1.698   3.925 -0.2804  1.1966 -0.3425
  626MOL0     H82612  13.009   1.764   4.119 -3.6027  0.9728  2.2989
  626MOL0     H82613  12.927   1.906   4.026  2.1872  1.5826 -2.9179
  626MOL0     H82614  13.104   1.710   2.976  2.5392  1.8951  0.4245
  626MOL0     H82615  13.057   1.900   2.823 -0.5233  1.0298 -0.6114
  626MOL0     H82616  12.835   2.271   2.697  0.0717 -1.3564  0.0562
  626MOL0     H82617  12.729   2.436   2.525 -1.0861  0.1316 -2.4918
  626MOL0     H82618  11.671   3.714   1.437 -0.8359  3.7034 -0.6200
  626MOL0     H82619  11.458   3.811   1.370  1.0876  0.1194  1.7035
  626MOL0     H82620  11.162   3.912   1.210  2.7594  1.5702 -3.0850
  626MOL0     H82621  10.985   4.100   1.143 -3.6920  0.2942 -1.3629
  626MOL0     H82622  10.778   4.289   0.920  3.8789  1.2327  0.2226
  626MOL0     H82623  10.924   4.250   1.015  1.9759 -1.3786 -1.8904
  626MOL0     H82624  10.796   4.157   1.201  1.8438  4.0461  2.4802
  626MOL0     H82625  10.741   4.318   1.161 -0.1772  1.4068 -4.4460
  626MOL0     H82626  10.588   4.074   1.091 -1.6435  0.2343  0.2705
  626MOL0     H82627  10.552   4.220   1.006 -0.0688 -1.8613 -0.4165
  626MOL0     H82628  10.417   4.161   1.228 -1.0827  1.3443  0.1897
  626MOL0     H82629  10.558   4.200   1.318  1.0993 -1.4895 -0.3975
  626MOL0     H82630  10.385   4.558   1.132  0.7808  0.2286 -0.1263
  626MOL0     H82631  10.850   3.857   0.830 -1.2126  1.7567  1.8261
  626MOL0     H82632  11.018   3.693   0.877 -3.0738 -0.5635  0.8099
  627MOL0     O82633   9.238   9.792   5.140 -0.0171  0.4643  0.3816
  627MOL0     C82634   9.269   9.708   5.225 -0.5414  0.0058  0.6209
  627MOL0     O82635   9.192   9.599   5.253  0.5711 -0.2808 -0.3285
  627MOL0     C82636   9.075   9.569   5.179 -1.3587  1.0268  0.4399
  627MOL0     C82637   8.966   9.650   5.189  0.0429  0.1172  0.8388
  627MOL0     C82638   8.866   9.636   5.100  0.1592  0.0123 -0.6264
  627MOL0     C82639   8.861   9.522   5.013  0.6022  0.4084  0.6285
  627MOL0     O82640   8.741   9.477   4.950  0.3593  0.7320  0.3678
  627MOL0     C82641   8.679   9.574   4.875  1.1376  0.2695  0.1861
  627MOL0     C82642   8.587   9.516   4.763  0.6856 -0.5655  0.5720
  627MOL0     C82643   8.533   9.628   4.669 -0.3840  0.4444  0.4793
  627MOL0     C82644   8.422   9.565   4.585  0.7375  0.8666  0.2975
  627MOL0     C82645   8.340   9.678   4.520 -0.0100  0.3664  0.2007
  627MOL0     C82646   8.242   9.631   4.412 -0.0905 -0.2903 -0.7445
  627MOL0     C82647   8.162   9.744   4.363 -0.0558 -0.3106  0.9663
  627MOL0     C82648   8.123   9.718   4.220 -0.1973 -0.0080 -0.0934
  627MOL0     N82649   8.043   9.825   4.165 -0.4058  1.0174  0.3109
  627MOL0     C82650   7.911   9.860   4.197  0.2353 -0.2869 -0.4520
  627MOL0     C82651   7.887   9.972   4.122  0.4562 -0.1329  0.3973
  627MOL0     C82652   7.753  10.022   4.102  0.4123 -0.4557  0.3442
  627MOL0     C82653   7.673   9.951   3.989 -0.2341  0.0713  0.5239
  627MOL0     C82654   7.602   9.826   4.049  0.1026 -0.4299  0.3546
  627MOL0     C82655   7.449   9.853   4.052  0.4411  0.3368 -0.6872
  627MOL0     O82656   7.417   9.879   3.915 -0.2722 -0.0728  1.0162
  627MOL0     C82657   7.289   9.850   3.890 -1.5727 -0.4370 -0.4840
  627MOL0     C82658   7.270   9.731   3.829 -1.2142 -0.4521 -0.3360
  627MOL0     C82659   7.134   9.703   3.783  0.3234 -0.5136 -0.3096
  627MOL0     C82660   7.025   9.778   3.831 -1.2851  0.1160  0.3997
  627MOL0     C82661   6.889   9.733   3.821  0.0542 -0.4659 -0.6133
  627MOL0     O82662   6.791   9.826   3.793 -0.3292  0.0286 -0.7585
  627MOL0     C82663   6.664   9.780   3.814 -0.2792 -0.3269  0.3768
  627MOL0     C82664   6.593   9.734   3.703 -0.8378 -0.8280  0.5492
  627MOL0     C82665   6.464   9.682   3.713  0.1094 -0.5024  0.3744
  627MOL0     C82666   6.415   9.668   3.840  0.2717 -0.6328 -0.2739
  627MOL0     O82667   6.294   9.603   3.875  0.3465  1.0873  0.6176
  627MOL0     C82668   6.216   9.547   3.761 -0.7654 -0.0119 -0.9346
  627MOL0     C82669   6.106   9.470   3.829 -0.1794  0.6626  0.4561
  627MOL0     C82670   5.972   9.533   3.813  0.6371  0.5177  0.3983
  627MOL0     C82671   5.860   9.427   3.838 -0.0468  0.2088  0.6802
  627MOL0     C82672   5.721   9.489   3.819 -0.5765 -0.1789  0.7051
  627MOL0     C82673   5.625   9.383   3.858  0.6957 -0.4069 -0.2966
  627MOL0     C82674   5.492   9.442   3.920 -1.2314 -0.0796 -0.2900
  627MOL0     C82675   5.380   9.341   3.941  0.4965 -0.5955  0.3515
  627MOL0    Cl82676   5.419   9.164   3.965  0.3758  0.1272 -0.0050
  627MOL0     C82677   6.487   9.718   3.952 -0.5047  0.0507  0.8322
  627MOL0     C82678   6.611   9.769   3.937  0.7343 -0.5661  0.2105
  627MOL0     O82679   6.866   9.615   3.848 -0.1926 -0.3394  0.4363
  627MOL0     C82680   7.047   9.897   3.898 -0.0219 -0.5544  0.5725
  627MOL0     C82681   7.179   9.934   3.931 -0.3128 -0.3075 -0.2616
  627MOL0     N82682   8.003  10.001   4.049 -0.4872 -0.4739  0.4661
  627MOL0     N82683   8.098   9.919   4.078  0.8243 -0.9802  0.3292
  627MOL0     C82684   8.970   9.434   5.006  0.3101 -0.5605 -0.2843
  627MOL0     C82685   9.071   9.451   5.103  0.7169 -0.0780 -0.5555
  627MOL0     C82686   9.403   9.715   5.284 -0.8749 -0.9164  0.0457
  627MOL0     C82687   9.437   9.646   5.396 -0.6677  0.1021 -0.0703
  627MOL0     C82688   9.566   9.669   5.445 -0.7015  0.1182 -0.0649
  627MOL0     C82689   9.659   9.766   5.399 -1.8516  0.7142  0.2668
  627MOL0     O82690   9.786   9.767   5.450 -0.7242  0.6118 -0.6386
  627MOL0     C82691   9.892   9.840   5.390 -0.0929  0.9714 -1.0871
  627MOL0     C82692  10.010   9.851   5.489  0.2024  0.5577  0.6840
  627MOL0     C82693  10.064   9.712   5.540 -0.0449 -0.3631  0.0959
  627MOL0     C82694  10.152   9.720   5.668 -0.0136 -0.5098 -0.0395
  627MOL0     C82695  10.077   9.793   5.771  1.1216 -0.1704 -0.0420
  627MOL0     C82696  10.000   9.821   5.865 -0.3131  0.7508 -0.0548
  627MOL0     C82697   9.625   9.826   5.277 -0.0901  1.0706 -0.1503
  627MOL0     C82698   9.501   9.795   5.223 -0.0433 -0.6749  0.7097
  627MOL0     H82699   8.962   9.732   5.260 -1.7221 -0.6958  1.7374
  627MOL0     H82700   8.785   9.707   5.107 -0.6282 -0.8093 -1.1963
  627MOL0     H82701   8.748   9.642   4.824  1.7213  2.1293  3.1822
  627MOL0     H82702   8.614   9.625   4.947  0.1473  1.4657 -1.4852
  627MOL0     H82703   8.494   9.476   4.802 -1.9668  3.5866 -0.8091
  627MOL0     H82704   8.639   9.446   4.697  0.3149 -0.1306 -0.2006
  627MOL0     H82705   8.607   9.680   4.607  0.2905  0.8969  1.6241
  627MOL0     H82706   8.488   9.706   4.732 -1.8851  0.5842 -0.7037
  627MOL0     H82707   8.453   9.502   4.502  0.9142  0.3714  0.7293
  627MOL0     H82708   8.350   9.506   4.642 -1.0224  1.8766 -0.7875
  627MOL0     H82709   8.407   9.752   4.477 -0.0985  0.6181  0.4952
  627MOL0     H82710   8.286   9.712   4.609 -0.2440  1.5335 -0.3691
  627MOL0     H82711   8.176   9.552   4.450 -1.3366 -0.1248 -2.4779
  627MOL0     H82712   8.309   9.586   4.338 -1.3835 -1.8351 -1.0268
  627MOL0     H82713   8.071   9.759   4.421 -0.8912 -2.0502  0.1800
  627MOL0     H82714   8.221   9.836   4.366 -1.6889  0.8354 -0.1466
  627MOL0     H82715   8.069   9.623   4.220  0.2217 -0.2468 -0.0123
  627MOL0     H82716   8.208   9.691   4.156  0.7446 -2.5606  2.0332
  627MOL0     H82717   7.852   9.802   4.269  3.4379 -2.0636  0.9563
  627MOL0     H82718   7.760  10.129   4.079 -0.3821 -0.6616 -0.9839
  627MOL0     H82719   7.695  10.004   4.192  2.7668 -0.5025  1.9270
  627MOL0     H82720   7.745   9.925   3.911 -1.0591  0.2659 -0.3226
  627MOL0     H82721   7.606  10.021   3.937 -0.4567 -0.3073  0.2960
  627MOL0     H82722   7.620   9.734   3.993 -0.2955  0.8875 -2.0954
  627MOL0     H82723   7.646   9.794   4.144 -0.3064 -1.2845  0.2603
  627MOL0     H82724   7.418   9.938   4.114 -2.0413 -1.5606  0.8876
  627MOL0     H82725   7.401   9.762   4.090  0.3588  0.0778 -1.4034
  627MOL0     H82726   7.356   9.669   3.806 -1.7324 -1.0090 -0.8109
  627MOL0     H82727   7.096   9.613   3.737 -1.3399  1.3350 -2.7876
  627MOL0     H82728   6.650   9.741   3.610 -0.0633  1.1706  1.1189
  627MOL0     H82729   6.414   9.647   3.624  0.6173 -2.5194  0.8443
  627MOL0     H82730   6.288   9.485   3.707  1.7723 -0.3218  2.4606
  627MOL0     H82731   6.186   9.632   3.699 -3.2288  1.7024  2.2915
  627MOL0     H82732   6.132   9.464   3.935 -0.2597  0.2842  0.4553
  627MOL0     H82733   6.098   9.371   3.783  0.9729  1.0494 -0.6557
  627MOL0     H82734   5.958   9.580   3.715  2.4205  1.5786  0.6224
  627MOL0     H82735   5.956   9.603   3.895 -0.9054  1.4142 -0.6143
  627MOL0     H82736   5.859   9.349   3.762 -2.0113  1.2292 -0.4269
  627MOL0     H82737   5.885   9.383   3.935  1.0807  1.6049  1.0613
  627MOL0     H82738   5.686   9.520   3.720 -0.8352 -1.4482  0.3851
  627MOL0     H82739   5.694   9.578   3.877 -1.1523  1.9377 -2.5547
  627MOL0     H82740   5.675   9.328   3.939  2.0959 -1.6495 -1.9255
  627MOL0     H82741   5.610   9.302   3.787  0.7636 -2.8690  2.3005
  627MOL0     H82742   5.512   9.494   4.015  2.8911 -2.8992  0.6717
  627MOL0     H82743   5.465   9.516   3.844 -0.6298 -1.9221 -2.3969
  627MOL0     H82744   5.319   9.348   3.850 -1.5990 -0.4882  1.6840
  627MOL0     H82745   5.323   9.387   4.023  0.3580  2.8661 -1.4840
  627MOL0     H82746   6.455   9.700   4.054  0.8100 -0.8405  1.1044
  627MOL0     H82747   6.679   9.792   4.019  0.9685  0.8258 -0.3426
  627MOL0     H82748   6.963   9.951   3.941  1.1764  0.0903  2.1992
  627MOL0     H82749   7.198  10.015   4.000  1.0787  1.7068 -2.8622
  627MOL0     H82750   8.959   9.344   4.947  0.0495 -1.7329  1.4489
  627MOL0     H82751   9.154   9.381   5.106  0.7384 -0.0240  0.9858
  627MOL0     H82752   9.366   9.580   5.444 -0.6524 -2.7096 -3.4821
  627MOL0     H82753   9.592   9.626   5.541  0.1486  0.7393 -0.0003
  627MOL0     H82754   9.855   9.943   5.383 -1.6668  0.7173  1.8860
  627MOL0     H82755   9.921   9.806   5.290  1.7090  3.1238 -1.3840
  627MOL0     H82756  10.090   9.908   5.441 -0.2252  1.3584  0.9110
  627MOL0     H82757   9.970   9.907   5.574 -3.4921  1.0417 -1.1812
  627MOL0     H82758  10.112   9.661   5.456 -2.5206  1.6707 -2.7948
  627MOL0     H82759   9.972   9.657   5.564 -0.5871  0.3820 -0.2307
  627MOL0     H82760  10.188   9.619   5.692  0.5993 -0.0825  0.8795
  627MOL0     H82761  10.241   9.780   5.649 -1.4874  1.6125 -0.5796
  627MOL0     H82762   9.931   9.846   5.944 -1.8726 -0.3022 -1.0159
  627MOL0     H82763   9.688   9.900   5.228 -0.8674 -0.2659 -3.3513
  627MOL0     H82764   9.481   9.854   5.134 -1.8313  1.0438  2.1590
  628MOL0     O82765  11.307   6.750  10.496 -0.5319 -0.4005  0.0666
  628MOL0     C82766  11.273   6.856  10.449  0.1992 -0.0238  0.8616
  628MOL0     O82767  11.151   6.909  10.475  0.8238  0.3022  0.1502
  628MOL0     C82768  11.084   6.867  10.589  0.2719 -0.3142 -0.0628
  628MOL0     C82769  10.960   6.806  10.587  0.3386  0.4054 -0.1543
  628MOL0     C82770  10.897   6.765  10.699  0.3644  0.6084 -0.0051
  628MOL0     C82771  10.957   6.777  10.820  0.5260  0.4041 -0.4204
  628MOL0     O82772  10.917   6.728  10.937  0.4108 -0.1616 -0.5088
  628MOL0     C82773  10.884   6.582  10.943 -0.5697 -0.0485 -0.3321
  628MOL0     C82774  10.961   6.498  11.052 -0.3327 -0.6841 -0.3867
  628MOL0     C82775  11.113   6.517  11.022  0.1215  0.3050  0.4879
  628MOL0     C82776  11.150   6.478  10.878  1.0229 -0.6539 -1.2536
  628MOL0     C82777  11.302   6.460  10.860 -0.7425 -0.1303  0.1661
  628MOL0     C82778  11.388   6.576  10.897  0.4806  0.3946  0.4881
  628MOL0     C82779  11.532   6.537  10.891  0.2399  0.0514 -0.7049
  628MOL0     C82780  11.593   6.518  10.762 -0.0768 -0.8324  0.8197
  628MOL0     N82781  11.738   6.485  10.787 -0.2180 -0.5231  0.1212
  628MOL0     C82782  11.786   6.351  10.787  0.5553  0.3270  0.0783
  628MOL0     C82783  11.920   6.375  10.796  0.0598 -0.1692  0.0572
  628MOL0     C82784  12.041   6.282  10.767  0.6003 -0.7366  0.2802
  628MOL0     C82785  12.135   6.268  10.892  0.1340 -1.1115 -0.0709
  628MOL0     C82786  12.241   6.384  10.907 -0.7490  0.8662  0.3379
  628MOL0     C82787  12.340   6.362  10.793  0.5946  0.3503 -0.2000
  628MOL0     O82788  12.421   6.242  10.811  0.1110 -0.6605 -0.5661
  628MOL0     C82789  12.556   6.267  10.863  0.1582 -0.1781  0.3155
  628MOL0     C82790  12.599   6.386  10.925  0.5957  0.0610  1.1131
  628MOL0     C82791  12.731   6.399  10.958  0.0970 -0.6151  0.0271
  628MOL0     C82792  12.814   6.285  10.960 -0.0828  0.3388 -1.1505
  628MOL0     C82793  12.950   6.276  11.032  0.8042  1.2691 -0.0077
  628MOL0     O82794  13.039   6.174  10.990  0.3720  0.0621  0.0685
  628MOL0     C82795  13.150   6.152  11.068  0.8093  0.3642 -0.8110
  628MOL0     C82796  13.277   6.195  11.027  0.0327 -0.1687 -0.0559
  628MOL0     C82797  13.384   6.173  11.119  0.4962  0.3221  0.4860
  628MOL0     C82798  13.367   6.090  11.225 -0.6154  0.3622  0.4729
  628MOL0     O82799  13.479   6.055  11.297  0.1593  0.5914  0.4956
  628MOL0     C82800  13.500   5.922  11.355  0.0213 -0.2122  0.1707
  628MOL0     C82801  13.507   5.815  11.245  0.8747  0.2685 -0.5824
  628MOL0     C82802  13.637   5.808  11.172  0.0850 -0.1903  1.2777
  628MOL0     C82803  13.651   5.725  11.051  0.3542  0.2661  0.2857
  628MOL0     C82804  13.527   5.716  10.963 -0.4093 -0.7913  0.4329
  628MOL0     C82805  13.493   5.859  10.906 -0.5157  0.0918  0.1398
  628MOL0     C82806  13.365   5.834  10.819 -0.0994  0.1601 -0.0549
  628MOL0     C82807  13.344   5.959  10.740 -0.3752  0.4941 -0.2385
  628MOL0    Cl82808  13.491   5.998  10.635 -0.3651  0.1305  0.0515
  628MOL0     C82809  13.248   6.029  11.245  0.2306  0.4424  0.4419
  628MOL0     C82810  13.134   6.058  11.171 -0.1033  0.0856  0.4330
  628MOL0     O82811  12.971   6.351  11.125 -0.0735  0.2861 -0.8718
  628MOL0     C82812  12.773   6.172  10.893 -0.1471  0.0315 -0.1601
  628MOL0     C82813  12.643   6.158  10.849  1.0383  0.4522  0.1469
  628MOL0     N82814  11.946   6.503  10.837  0.0115  0.0085  0.1271
  628MOL0     N82815  11.838   6.570  10.824  0.5816 -1.1748 -0.4219
  628MOL0     C82816  11.078   6.842  10.827  1.0512  0.3943 -0.0295
  628MOL0     C82817  11.143   6.893  10.715 -0.0386 -0.2088  0.1977
  628MOL0     C82818  11.361   6.926  10.353 -0.3625 -0.1355 -0.4570
  628MOL0     C82819  11.318   7.053  10.291 -0.1646  0.9776  0.1032
  628MOL0     C82820  11.398   7.112  10.183 -0.8415  0.3073 -0.1198
  628MOL0     C82821  11.512   7.045  10.141 -0.0810  0.2675 -0.1573
  628MOL0     O82822  11.582   7.083  10.028  0.6336  0.0173 -0.7850
  628MOL0     C82823  11.548   7.207   9.957  0.2557 -0.2929 -0.3409
  628MOL0     C82824  11.613   7.229   9.818  0.3772 -0.5391 -1.0308
  628MOL0     C82825  11.761   7.180   9.800  0.1426 -0.8476 -0.5002
  628MOL0     C82826  11.844   7.245   9.689 -0.7597  0.4060 -0.1891
  628MOL0     C82827  11.782   7.190   9.568  0.4606 -0.0148 -0.3425
  628MOL0     C82828  11.718   7.147   9.474  0.4054 -1.1771 -0.3576
  628MOL0     C82829  11.555   6.934  10.207  0.2635  0.1806  0.6202
  628MOL0     C82830  11.479   6.874  10.304  0.7566 -0.0946  0.2944
  628MOL0     H82831  10.902   6.773  10.501  0.5765 -0.5985  0.0643
  628MOL0     H82832  10.796   6.725  10.704  0.2564  0.5595 -1.8425
  628MOL0     H82833  10.907   6.537  10.846  1.5543 -1.7261  0.8564
  628MOL0     H82834  10.779   6.568  10.967 -0.5426 -0.2341 -0.3193
  628MOL0     H82835  10.924   6.396  11.071 -1.7491  0.1071  1.5082
  628MOL0     H82836  10.949   6.554  11.146  2.0522 -1.1143  0.2273
  628MOL0     H82837  11.160   6.452  11.097 -0.1721  2.4445  2.6449
  628MOL0     H82838  11.144   6.621  11.033 -1.0730  1.0637 -2.3689
  628MOL0     H82839  11.106   6.380  10.854 -0.7329  0.0953 -1.2873
  628MOL0     H82840  11.115   6.550  10.803 -0.0679 -2.1462 -2.2551
  628MOL0     H82841  11.322   6.422  10.759 -1.2710  0.4552 -0.1713
  628MOL0     H82842  11.328   6.381  10.930  0.4489  1.0456  1.0769
  628MOL0     H82843  11.355   6.604  10.997 -0.6840 -0.9491  0.5087
  628MOL0     H82844  11.369   6.657  10.826  1.2341  0.5105  0.4076
  628MOL0     H82845  11.584   6.614  10.948 -0.9459  0.1830  0.2230
  628MOL0     H82846  11.538   6.448  10.954  0.7416 -0.3893 -1.3581
  628MOL0     H82847  11.584   6.610  10.704  0.7610  0.3858  2.5386
  628MOL0     H82848  11.544   6.432  10.716  1.9553 -0.7382 -1.7274
  628MOL0     H82849  11.731   6.264  10.753 -0.1283  1.0626 -0.7546
  628MOL0     H82850  12.099   6.325  10.685  2.7867  5.0565  4.2149
  628MOL0     H82851  12.010   6.181  10.736  3.0361 -1.8159  1.0567
  628MOL0     H82852  12.187   6.172  10.897  1.0588 -0.5829  1.0349
  628MOL0     H82853  12.075   6.279  10.983  0.6082  0.9961  0.0430
  628MOL0     H82854  12.182   6.476  10.898 -5.0205 -1.5043  1.3051
  628MOL0     H82855  12.288   6.376  11.006 -0.8574 -1.1375  0.2644
  628MOL0     H82856  12.406   6.448  10.779  2.3043 -0.0492  3.9981
  628MOL0     H82857  12.281   6.336  10.704  0.6107  1.3685 -0.5112
  628MOL0     H82858  12.527   6.466  10.940  2.2918  1.3163  3.1440
  628MOL0     H82859  12.784   6.477  11.013 -1.2463  0.6986 -0.4801
  628MOL0     H82860  13.283   6.271  10.950  1.1715 -0.7075 -0.5159
  628MOL0     H82861  13.486   6.211  11.111  0.1983  0.9762 -0.4459
  628MOL0     H82862  13.411   5.909  11.416 -1.5248  1.7533 -1.5101
  628MOL0     H82863  13.597   5.924  11.407 -0.0198  3.2353  0.3899
  628MOL0     H82864  13.422   5.832  11.179  1.3324  0.3410 -1.1601
  628MOL0     H82865  13.493   5.718  11.295 -0.6339  0.1998 -1.0915
  628MOL0     H82866  13.717   5.779  11.240  2.7495  0.5476 -1.3118
  628MOL0     H82867  13.656   5.911  11.139 -0.1805 -0.1882  1.1310
  628MOL0     H82868  13.731   5.765  10.989 -0.9890 -2.0970 -3.2811
  628MOL0     H82869  13.679   5.624  11.084 -0.1407 -0.1018 -0.3754
  628MOL0     H82870  13.442   5.661  11.005 -2.1074  1.5329  0.2299
  628MOL0     H82871  13.546   5.661  10.870  2.4515 -0.5769  0.8132
  628MOL0     H82872  13.582   5.895  10.852 -2.0514  0.0481 -2.6018
  628MOL0     H82873  13.481   5.926  10.992 -1.5450 -2.3196  1.9730
  628MOL0     H82874  13.373   5.741  10.762 -2.2718  2.0856 -3.8589
  628MOL0     H82875  13.285   5.826  10.893  1.3545  2.8083  2.0114
  628MOL0     H82876  13.315   6.042  10.805  0.4826  1.7339 -1.3967
  628MOL0     H82877  13.256   5.953  10.676  1.7510  1.1143 -3.4336
  628MOL0     H82878  13.239   5.962  11.330  0.7471  0.1634  0.2768
  628MOL0     H82879  13.032   6.022  11.182 -0.1764  0.3146  0.4984
  628MOL0     H82880  12.839   6.086  10.893  0.5035  0.4911  1.2545
  628MOL0     H82881  12.606   6.064  10.811 -1.4306  1.6926 -0.7326
  628MOL0     H82882  11.127   6.868  10.921 -0.8941  1.3255  0.7902
  628MOL0     H82883  11.227   6.961  10.720 -0.5564  0.5601 -1.1460
  628MOL0     H82884  11.230   7.107  10.324 -2.2282 -1.4815 -0.9583
  628MOL0     H82885  11.393   7.213  10.142  4.4362  1.0008  0.2735
  628MOL0     H82886  11.582   7.286  10.024  2.0291 -1.7570  0.5572
  628MOL0     H82887  11.438   7.214   9.954  0.0637 -0.2031  2.8985
  628MOL0     H82888  11.549   7.168   9.752 -2.3248 -2.2554  2.8193
  628MOL0     H82889  11.601   7.334   9.789  2.4962 -0.1563 -0.6580
  628MOL0     H82890  11.763   7.073   9.776  2.2156 -0.8894 -0.3883
  628MOL0     H82891  11.819   7.190   9.893  2.3724  0.8191 -1.9696
  628MOL0     H82892  11.855   7.354   9.701  5.1120 -0.1359  2.4154
  628MOL0     H82893  11.946   7.206   9.684 -0.1117  1.4449  3.0046
  628MOL0     H82894  11.660   7.107   9.393 -1.5530  0.9579 -0.0969
  628MOL0     H82895  11.635   6.879  10.160  0.0073  0.0910  0.2855
  628MOL0     H82896  11.494   6.772  10.339 -0.4800 -0.6331 -0.6864
  629MOL0     O82897   4.868  10.343   9.614  0.0761  0.2901 -0.3027
  629MOL0     C82898   4.971  10.335   9.546 -0.3213 -0.3290  0.6642
  629MOL0     O82899   4.975  10.367   9.415  0.0210 -0.0108 -0.1558
  629MOL0     C82900   4.854  10.397   9.359  1.4674 -0.1272  0.5550
  629MOL0     C82901   4.849  10.514   9.280  0.4052 -0.7516  0.2995
  629MOL0     C82902   4.726  10.548   9.213  0.3137 -0.5177  0.7126
  629MOL0     C82903   4.610  10.471   9.238  0.4511 -1.0134 -0.1432
  629MOL0     O82904   4.494  10.504   9.167 -0.5133 -0.0700  0.8012
  629MOL0     C82905   4.494  10.505   9.027 -0.3030  0.1129 -0.1958
  629MOL0     C82906   4.353  10.512   8.978  0.0474  0.1757 -0.2451
  629MOL0     C82907   4.260  10.406   9.053 -0.0627 -0.0408  0.0170
  629MOL0     C82908   4.291  10.263   8.997 -0.0474 -0.7930 -0.2918
  629MOL0     C82909   4.187  10.163   9.055  0.5608 -0.0223  0.0269
  629MOL0     C82910   4.042  10.196   9.021 -0.4306 -0.6754 -0.0163
  629MOL0     C82911   3.970  10.059   9.029 -0.5759  0.0283 -0.9607
  629MOL0     C82912   3.828  10.073   8.972 -0.7408 -0.2579 -0.3476
  629MOL0     N82913   3.774   9.939   8.941  0.4786  0.3393  0.9673
  629MOL0     C82914   3.783   9.823   9.022  0.1085 -0.9815  1.1864
  629MOL0     C82915   3.692   9.736   8.984 -1.0945 -1.1331 -0.3046
  629MOL0     C82916   3.678   9.598   9.032  0.5154 -0.0552 -0.3092
  629MOL0     C82917   3.540   9.536   9.002  0.3192  1.3431 -0.0438
  629MOL0     C82918   3.557   9.381   8.993 -0.2203 -0.0694 -0.2412
  629MOL0     C82919   3.415   9.319   9.009  0.6761 -0.3052 -0.6099
  629MOL0     O82920   3.340   9.350   8.890  0.5288  0.1271  0.5612
  629MOL0     C82921   3.212   9.309   8.882 -0.2037 -0.2960  0.5815
  629MOL0     C82922   3.136   9.364   8.778  0.8561 -0.7964  0.2468
  629MOL0     C82923   3.002   9.329   8.741 -0.0041  0.0400  0.2324
  629MOL0     C82924   2.940   9.235   8.822  0.6231  0.9690  1.1534
  629MOL0     C82925   2.803   9.199   8.778 -0.4699 -0.1025  0.7129
  629MOL0     O82926   2.747   9.277   8.678  0.5409  0.6753  0.4396
  629MOL0     C82927   2.611   9.265   8.641  0.3599  1.2344  0.4971
  629MOL0     C82928   2.514   9.170   8.684 -0.6673 -0.4089  0.3330
  629MOL0     C82929   2.391   9.174   8.630 -0.2460 -0.0760  0.2469
  629MOL0     C82930   2.354   9.274   8.546  0.1036  0.1165  0.6521
  629MOL0     O82931   2.229   9.244   8.495 -0.1920 -0.7927  0.4965
  629MOL0     C82932   2.183   9.299   8.364 -0.7202 -0.3135  0.4339
  629MOL0     C82933   2.265   9.247   8.242 -0.5306  0.8984 -0.1286
  629MOL0     C82934   2.193   9.254   8.108  0.5458  0.3706  0.8461
  629MOL0     C82935   2.073   9.165   8.112  0.4707  0.0479  0.2262
  629MOL0     C82936   1.999   9.173   7.981  0.5091  0.2307  0.4649
  629MOL0     C82937   1.875   9.096   7.971  0.3478 -0.1582  0.2208
  629MOL0     C82938   1.790   9.124   7.852 -0.1674 -0.0882 -0.0762
  629MOL0     C82939   1.653   9.063   7.859  0.2516  0.1653 -0.2179
  629MOL0    Cl82940   1.674   8.882   7.869 -0.4151  0.2256 -0.1288
  629MOL0     C82941   2.446   9.368   8.498  0.6904 -0.0866 -1.3672
  629MOL0     C82942   2.575   9.362   8.548  0.2023 -0.1785 -0.1243
  629MOL0     O82943   2.754   9.099   8.823  0.9015 -0.2660 -0.1334
  629MOL0     C82944   3.007   9.192   8.940  0.4059  0.1504 -0.9736
  629MOL0     C82945   3.142   9.219   8.963 -0.1974  0.1124  0.4737
  629MOL0     N82946   3.625   9.791   8.881 -0.0488  0.6671  0.0500
  629MOL0     N82947   3.660   9.917   8.866 -0.5304 -0.5097 -0.4720
  629MOL0     C82948   4.616  10.352   9.317  0.7828 -0.3515 -0.2589
  629MOL0     C82949   4.734  10.319   9.375 -0.4835 -1.0628  0.3126
  629MOL0     C82950   5.093  10.302   9.623  1.2130 -0.1955  0.8551
  629MOL0     C82951   5.211  10.263   9.562 -0.2302  0.0044  0.3029
  629MOL0     C82952   5.330  10.239   9.640  1.0576  0.0403 -0.3942
  629MOL0     C82953   5.327  10.236   9.779  0.5352 -0.5637  0.1110
  629MOL0     O82954   5.431  10.217   9.851 -0.3674 -0.0000  0.1397
  629MOL0     C82955   5.533  10.117   9.804  0.0976  0.0339 -0.3511
  629MOL0     C82956   5.659  10.184   9.758  0.4596  0.2284 -0.0639
  629MOL0     C82957   5.705  10.303   9.842  0.9431  0.1052 -0.5764
  629MOL0     C82958   5.718  10.264   9.994 -0.0578  1.0044 -1.2564
  629MOL0     C82959   5.793  10.360  10.067  0.4911 -0.4393  0.5535
  629MOL0     C82960   5.877  10.436  10.112  0.0494 -1.0977 -0.7733
  629MOL0     C82961   5.204  10.277   9.840  0.5387 -0.9069  0.6150
  629MOL0     C82962   5.093  10.316   9.760  0.3617 -0.1790  0.5554
  629MOL0     H82963   4.942  10.569   9.268 -0.1099  0.8592  2.8601
  629MOL0     H82964   4.738  10.632   9.145  2.1784  0.8142  2.5394
  629MOL0     H82965   4.542  10.411   8.998 -0.7818 -0.1259 -0.2260
  629MOL0     H82966   4.546  10.591   8.983 -0.1404  0.6493  1.0102
  629MOL0     H82967   4.355  10.493   8.870  2.1107 -0.4308 -0.1296
  629MOL0     H82968   4.315  10.615   8.981  1.0841  0.6600 -2.2113
  629MOL0     H82969   4.159  10.435   9.021  0.0291  0.0584 -0.1807
  629MOL0     H82970   4.263  10.416   9.162  0.5371  2.5871 -0.1693
  629MOL0     H82971   4.291  10.265   8.888 -1.2999  2.6601 -0.3557
  629MOL0     H82972   4.389  10.246   9.045 -1.3083 -1.5518  2.2176
  629MOL0     H82973   4.200  10.170   9.163  1.9491 -0.3679 -0.1039
  629MOL0     H82974   4.212  10.059   9.035  1.1388 -0.2219  1.6378
  629MOL0     H82975   4.043  10.212   8.912  2.1783 -0.9821 -0.1146
  629MOL0     H82976   3.992  10.274   9.079 -0.5597  2.2123 -3.6421
  629MOL0     H82977   4.023  10.001   8.953  0.2556  0.0452 -0.3941
  629MOL0     H82978   3.969  10.012   9.128  0.3182  2.0765  0.0688
  629MOL0     H82979   3.826  10.129   8.878 -0.9883 -0.6605 -0.5857
  629MOL0     H82980   3.766  10.125   9.045  0.1534  3.0044 -1.7435
  629MOL0     H82981   3.852   9.811   9.106  1.3027 -3.4506 -0.0385
  629MOL0     H82982   3.690   9.607   9.140  2.4575 -0.2587 -0.4654
  629MOL0     H82983   3.761   9.538   8.993  0.6248  0.4049 -0.8044
  629MOL0     H82984   3.511   9.572   8.902  1.3373  4.8771  0.7787
  629MOL0     H82985   3.464   9.567   9.074  1.6689  0.3184  1.9190
  629MOL0     H82986   3.613   9.354   8.903  0.5320 -0.8075  0.4371
  629MOL0     H82987   3.618   9.343   9.075 -0.8966 -1.7869 -0.4796
  629MOL0     H82988   3.360   9.359   9.095  0.8822 -2.6605  0.6888
  629MOL0     H82989   3.416   9.211   9.027 -1.6365 -0.3805 -0.5965
  629MOL0     H82990   3.186   9.442   8.721 -0.7447  2.2291  2.6136
  629MOL0     H82991   2.966   9.376   8.650  1.5819  1.0721  0.0989
  629MOL0     H82992   2.533   9.085   8.749 -0.9860 -0.6573  0.1032
  629MOL0     H82993   2.318   9.095   8.645  1.0972 -1.5924 -0.8693
  629MOL0     H82994   2.173   9.408   8.368 -1.7729 -0.4116  0.9181
  629MOL0     H82995   2.080   9.263   8.364 -0.5645 -0.7628  0.7014
  629MOL0     H82996   2.293   9.142   8.249 -1.9254  0.5146 -0.1415
  629MOL0     H82997   2.359   9.303   8.242  0.3117 -0.4433 -0.9980
  629MOL0     H82998   2.256   9.215   8.027 -0.1133  2.1218 -0.5753
  629MOL0     H82999   2.165   9.357   8.086  1.9126  1.2304  2.8427
  629MOL0     H83000   2.104   9.061   8.125 -4.5274 -1.5862  1.4944
  629MOL0     H83001   1.999   9.191   8.189 -1.9762  1.2589 -2.3293
  629MOL0     H83002   2.069   9.164   7.897  1.1708  2.1719  0.7590
  629MOL0     H83003   1.960   9.275   7.978 -0.1164 -0.0305 -0.6339
  629MOL0     H83004   1.812   9.124   8.056  3.4308  1.3052  2.1982
  629MOL0     H83005   1.894   8.988   7.981 -0.8678 -0.5095 -0.9915
  629MOL0     H83006   1.775   9.230   7.829  1.6799  0.4562  1.0490
  629MOL0     H83007   1.837   9.083   7.762 -1.4973  0.7509 -1.1950
  629MOL0     H83008   1.582   9.088   7.779  0.7381 -3.3329 -1.9680
  629MOL0     H83009   1.612   9.094   7.955  0.3130  2.1357 -0.7908
  629MOL0     H83010   2.422   9.441   8.421  0.9332 -2.6772 -4.1208
  629MOL0     H83011   2.649   9.436   8.517 -2.8381  2.4687 -1.5891
  629MOL0     H83012   2.950   9.135   9.012 -0.9274 -0.2865 -2.3050
  629MOL0     H83013   3.189   9.177   9.051 -0.3061 -1.0986 -0.0312
  629MOL0     H83014   4.530  10.287   9.315  1.8106 -1.7769  0.3357
  629MOL0     H83015   4.758  10.222   9.419 -0.0911 -1.9522 -1.7298
  629MOL0     H83016   5.215  10.236   9.457 -2.5687 -1.1012  0.4214
  629MOL0     H83017   5.413  10.201   9.581 -0.2240 -3.1174 -0.4025
  629MOL0     H83018   5.487  10.048   9.733 -0.8597 -1.9906  2.0831
  629MOL0     H83019   5.557  10.062   9.895  0.5146  1.8971  0.7060
  629MOL0     H83020   5.740  10.110   9.750 -0.8126 -1.1721 -0.6525
  629MOL0     H83021   5.643  10.217   9.655  0.6054 -0.9031 -0.4698
  629MOL0     H83022   5.644  10.393   9.830 -2.5043 -1.8708  0.6517
  629MOL0     H83023   5.807  10.329   9.810  1.5161  0.0224  1.1073
  629MOL0     H83024   5.617  10.250  10.034  0.7374 -0.2480  0.4382
  629MOL0     H83025   5.768  10.169  10.015  0.4502  1.9301  2.3695
  629MOL0     H83026   5.951  10.501  10.154  0.6299 -1.4723 -1.2050
  629MOL0     H83027   5.205  10.267   9.948  1.3463 -0.4384  0.6582
  629MOL0     H83028   5.001  10.337   9.815  0.4443  0.3041  0.5164
  630MOL0     O83029   6.158   7.351   9.836 -0.6559  0.2681 -0.3599
  630MOL0     C83030   6.232   7.382   9.737  0.3008  0.5998  0.3898
  630MOL0     O83031   6.268   7.501   9.702  0.7825  0.5945  0.6842
  630MOL0     C83032   6.216   7.620   9.753  0.1136  0.4613 -0.0562
  630MOL0     C83033   6.086   7.629   9.812 -0.2144  0.2205  1.2542
  630MOL0     C83034   6.036   7.747   9.877  0.2426  0.1549  0.0746
  630MOL0     C83035   6.113   7.866   9.872  0.0292  0.0601 -0.9228
  630MOL0     O83036   6.082   7.978   9.939 -0.3365 -0.8676 -0.2797
  630MOL0     C83037   5.947   8.024   9.925  0.2154 -0.6005 -0.6947
  630MOL0     C83038   5.936   8.179   9.930 -0.6967  0.2676  0.1060
  630MOL0     C83039   6.032   8.239  10.038 -0.8028 -1.0070  0.0114
  630MOL0     C83040   6.026   8.176  10.171  0.1414  0.5375 -0.4934
  630MOL0     C83041   6.068   8.252  10.287  0.5004  0.5015 -0.3240
  630MOL0     C83042   6.057   8.170  10.419  0.5918  0.6439 -0.2820
  630MOL0     C83043   6.151   8.213  10.531  0.6513 -0.1847  0.2450
  630MOL0     C83044   6.248   8.105  10.579 -0.1917 -0.7265 -0.0774
  630MOL0     N83045   6.311   8.144  10.713 -0.4204  0.2425  0.0112
  630MOL0     C83046   6.248   8.163  10.828 -0.3464 -0.5035  0.2200
  630MOL0     C83047   6.342   8.195  10.918 -0.1076 -0.4315 -1.3808
  630MOL0     C83048   6.322   8.259  11.050  0.1013  0.3394 -0.2196
  630MOL0     C83049   6.309   8.153  11.156  0.2091  0.2811  0.5927
  630MOL0     C83050   6.444   8.089  11.182  0.3580  0.6715 -0.2250
  630MOL0     C83051   6.436   7.982  11.290  0.4982 -0.2930  0.0713
  630MOL0     O83052   6.558   7.904  11.288  0.3274 -0.1727 -0.4294
  630MOL0     C83053   6.578   7.799  11.369  0.5314  0.0678 -0.0806
  630MOL0     C83054   6.491   7.753  11.470 -0.1286 -0.1991  1.1169
  630MOL0     C83055   6.530   7.648  11.559  0.1377 -0.2857 -0.6122
  630MOL0     C83056   6.649   7.575  11.532  0.2404 -0.6301  0.0770
  630MOL0     C83057   6.687   7.459  11.620 -0.8660  0.5825  0.7177
  630MOL0     O83058   6.617   7.433  11.737  0.0918  0.1764  0.1119
  630MOL0     C83059   6.682   7.371  11.836  0.0341  0.9628  0.7545
  630MOL0     C83060   6.605   7.281  11.917  0.2453  0.2346  0.5438
  630MOL0     C83061   6.662   7.223  12.028 -0.2392  1.3035  0.8706
  630MOL0     C83062   6.797   7.248  12.068  0.2274 -0.1648 -0.3575
  630MOL0     O83063   6.843   7.192  12.185 -0.9712 -0.6723 -0.6149
  630MOL0     C83064   6.986   7.169  12.218  1.1847 -0.2321  0.2432
  630MOL0     C83065   7.010   7.023  12.250  0.2620 -0.6271 -0.1945
  630MOL0     C83066   7.130   7.010  12.338  0.0128  0.3766  0.0151
  630MOL0     C83067   7.264   7.078  12.289  0.9871 -0.2066  0.2110
  630MOL0     C83068   7.385   7.057  12.380  0.3404 -0.2618  0.3157
  630MOL0     C83069   7.498   7.138  12.315  0.3085  0.5255  0.3082
  630MOL0     C83070   7.645   7.100  12.356 -0.2850 -0.1803  0.1131
  630MOL0     C83071   7.668   7.142  12.503 -0.6398  1.0061 -0.8140
  630MOL0    Cl83072   7.836   7.106  12.554  0.0258  0.0338 -0.0583
  630MOL0     C83073   6.869   7.343  11.987 -0.2733  0.1951  0.2327
  630MOL0     C83074   6.814   7.406  11.871 -0.3938 -0.5946 -0.6223
  630MOL0     O83075   6.780   7.389  11.573 -0.3735 -0.1264  0.0293
  630MOL0     C83076   6.737   7.617  11.429  0.4562 -1.1952 -0.1321
  630MOL0     C83077   6.707   7.734  11.348 -0.7808 -0.2085  0.0937
  630MOL0     N83078   6.465   8.190  10.860 -0.2737 -0.6164 -1.1647
  630MOL0     N83079   6.449   8.158  10.740  1.5598  0.4056  0.1024
  630MOL0     C83080   6.241   7.855   9.809  0.6567  0.4504 -0.1847
  630MOL0     C83081   6.290   7.739   9.754 -0.0788  0.4505 -0.3222
  630MOL0     C83082   6.273   7.262   9.648 -0.1962 -0.5183 -0.8263
  630MOL0     C83083   6.381   7.249   9.559 -0.0210 -0.3989  0.4145
  630MOL0     C83084   6.413   7.144   9.480  0.3896 -0.0323  1.1557
  630MOL0     C83085   6.330   7.032   9.476 -0.5544  0.0171  0.7515
  630MOL0     O83086   6.360   6.927   9.386  0.3501  0.1678  1.1320
  630MOL0     C83087   6.264   6.824   9.400  0.1629  0.5807  0.5859
  630MOL0     C83088   6.282   6.699   9.309  0.1982  0.0293  0.0453
  630MOL0     C83089   6.387   6.598   9.363 -0.1597 -0.0239  0.2636
  630MOL0     C83090   6.381   6.459   9.296  0.5077  0.9185  0.6803
  630MOL0     C83091   6.518   6.401   9.306  0.4895 -0.7289  0.6777
  630MOL0     C83092   6.617   6.340   9.297  0.4091 -0.1185 -0.1200
  630MOL0     C83093   6.225   7.036   9.561 -0.5768  0.3133 -0.1375
  630MOL0     C83094   6.184   7.155   9.639 -0.8559  0.2398  0.1804
  630MOL0     H83095   6.018   7.544   9.816  0.4392 -0.3835  0.1280
  630MOL0     H83096   5.939   7.753   9.926 -0.5436  0.1874 -1.4151
  630MOL0     H83097   5.897   7.993  10.017 -0.6588  3.6064  0.4305
  630MOL0     H83098   5.897   7.993   9.832  0.9011  0.3292 -1.3864
  630MOL0     H83099   5.835   8.220   9.929 -1.6937 -1.8980  2.1820
  630MOL0     H83100   5.976   8.211   9.833  1.8756 -0.4585  0.8273
  630MOL0     H83101   6.015   8.347  10.048  5.9274  0.3253  1.7451
  630MOL0     H83102   6.133   8.229   9.998  0.1795 -0.9256  2.2908
  630MOL0     H83103   5.928   8.136  10.196 -1.4783  4.7586  0.7211
  630MOL0     H83104   6.100   8.095  10.172  0.9674  1.1434 -2.9573
  630MOL0     H83105   6.003   8.338  10.306 -0.8970 -1.2452  4.4483
  630MOL0     H83106   6.167   8.297  10.274  1.1263  0.2524  2.6683
  630MOL0     H83107   6.075   8.064  10.403 -1.8344  0.4542 -2.5712
  630MOL0     H83108   5.949   8.167  10.436  0.4922 -0.2027 -1.0368
  630MOL0     H83109   6.199   8.307  10.503  1.1202 -0.4565  0.1288
  630MOL0     H83110   6.087   8.244  10.614 -0.0957  1.8598 -1.0150
  630MOL0     H83111   6.319   8.091  10.497 -1.1666  0.2076 -1.1213
  630MOL0     H83112   6.205   8.005  10.592  2.3503 -2.3270 -2.8227
  630MOL0     H83113   6.139   8.167  10.834 -0.5522 -4.2899  1.0336
  630MOL0     H83114   6.225   8.310  11.048 -1.8902 -2.6930  4.0095
  630MOL0     H83115   6.398   8.335  11.073  1.5748 -0.9100 -0.7526
  630MOL0     H83116   6.226   8.085  11.136 -0.0077  0.2987  1.3781
  630MOL0     H83117   6.283   8.200  11.252  1.2082 -2.6606  2.4432
  630MOL0     H83118   6.460   8.031  11.091 -2.7467 -1.3415  0.3603
  630MOL0     H83119   6.516   8.165  11.214 -1.8383  3.5879 -1.7812
  630MOL0     H83120   6.347   7.918  11.282  0.6532 -0.6199  0.8169
  630MOL0     H83121   6.409   8.044  11.376  0.3839  1.0807 -0.9273
  630MOL0     H83122   6.390   7.785  11.492  0.2924  0.6802  1.8525
  630MOL0     H83123   6.463   7.601  11.630  0.0048 -2.1193 -1.8818
  630MOL0     H83124   6.500   7.272  11.891  0.2678  2.0283 -0.2900
  630MOL0     H83125   6.601   7.161  12.093  1.1719  0.8974  1.8530
  630MOL0     H83126   7.011   7.217  12.313  5.3312 -0.7681 -0.4279
  630MOL0     H83127   7.066   7.204  12.152  2.8549 -1.3058  1.6115
  630MOL0     H83128   7.037   6.968  12.159  1.6457 -1.7632  0.8573
  630MOL0     H83129   6.919   6.973  12.284 -0.0781  1.9483  3.0868
  630MOL0     H83130   7.153   6.906  12.361 -2.7822  0.2179  2.6345
  630MOL0     H83131   7.109   7.065  12.431 -1.4404 -0.3297  0.1250
  630MOL0     H83132   7.290   7.038  12.191 -0.7142 -0.7016 -0.0685
  630MOL0     H83133   7.255   7.186  12.275  0.4471 -0.4794 -1.7976
  630MOL0     H83134   7.405   6.949  12.376  0.6842 -0.2024  0.4283
  630MOL0     H83135   7.357   7.087  12.482 -1.0714  2.3898 -0.7619
  630MOL0     H83136   7.483   7.245  12.333 -3.5739 -0.0793  1.6094
  630MOL0     H83137   7.479   7.134  12.207 -1.5595 -1.2986  0.6303
  630MOL0     H83138   7.659   6.993  12.343  2.4402  0.0871  0.3825
  630MOL0     H83139   7.720   7.155  12.299  1.2455  1.5041  3.4523
  630MOL0     H83140   7.611   7.077  12.570  2.1199 -2.0045 -1.0812
  630MOL0     H83141   7.651   7.249  12.516  0.9979  1.1000  1.0121
  630MOL0     H83142   6.974   7.360  12.005  0.5013  0.7421 -3.7934
  630MOL0     H83143   6.859   7.484  11.810 -1.7480 -0.2700 -1.2403
  630MOL0     H83144   6.835   7.573  11.414  0.0904 -1.4559 -1.9858
  630MOL0     H83145   6.780   7.757  11.271  0.5722  0.6345  1.5669
  630MOL0     H83146   6.300   7.945   9.822  0.3813  0.2672  3.6072
  630MOL0     H83147   6.391   7.735   9.716 -0.1213  1.6328 -0.5779
  630MOL0     H83148   6.430   7.346   9.560 -3.1393  1.3077 -0.1229
  630MOL0     H83149   6.502   7.147   9.418  0.3758  0.7227  1.1577
  630MOL0     H83150   6.165   6.867   9.382  1.3314  2.8809 -0.7587
  630MOL0     H83151   6.268   6.783   9.502  4.2556  3.3518  1.7533
  630MOL0     H83152   6.182   6.653   9.306 -0.3299  1.1895 -2.0984
  630MOL0     H83153   6.306   6.727   9.206 -3.8496  4.0064 -0.1369
  630MOL0     H83154   6.390   6.583   9.471 -1.3471 -0.8442  0.2045
  630MOL0     H83155   6.483   6.644   9.340 -0.5695  2.3686  2.7642
  630MOL0     H83156   6.315   6.385   9.341  1.1665 -1.2686 -1.6968
  630MOL0     H83157   6.361   6.475   9.189  3.0037 -0.1070 -0.0240
  630MOL0     H83158   6.717   6.301   9.306 -1.0574 -3.9784  2.4558
  630MOL0     H83159   6.154   6.955   9.574 -1.1161  0.6749 -0.8047
  630MOL0     H83160   6.109   7.142   9.715  2.2416 -0.6032  3.3856
  631MOL0     O83161   9.146  10.982  10.657 -0.5654  0.2599 -0.1479
  631MOL0     C83162   9.174  11.055  10.563 -0.2550  0.1644 -1.0567
  631MOL0     O83163   9.114  11.050  10.438  0.2180  0.0099 -0.1159
  631MOL0     C83164   9.004  10.969  10.428  1.2654 -0.0962 -0.4478
  631MOL0     C83165   8.879  11.001  10.486 -0.2945 -0.8095 -1.1152
  631MOL0     C83166   8.772  10.929  10.490 -0.4361  1.0752 -0.0736
  631MOL0     C83167   8.776  10.806  10.418 -0.0688  0.0313  0.3385
  631MOL0     O83168   8.661  10.738  10.403 -0.2917 -0.4156 -0.6082
  631MOL0     C83169   8.586  10.782  10.290  0.6085 -0.0496 -0.2158
  631MOL0     C83170   8.501  10.897  10.337 -0.0454  0.2932  0.0312
  631MOL0     C83171   8.399  10.922  10.223 -0.4088 -0.1646 -1.4611
  631MOL0     C83172   8.330  11.065  10.247 -0.4644 -0.1592 -0.9138
  631MOL0     C83173   8.260  11.076  10.386 -0.4846  0.6822  0.5483
  631MOL0     C83174   8.155  11.184  10.394  0.1445  0.4350 -0.6554
  631MOL0     C83175   8.048  11.183  10.278 -0.0863  0.8954 -0.0573
  631MOL0     C83176   8.005  11.030  10.258  0.4576 -0.1699 -0.5292
  631MOL0     N83177   7.875  11.008  10.205  0.0564 -0.4238 -0.0913
  631MOL0     C83178   7.818  11.076  10.104  0.5379  0.2477 -0.2452
  631MOL0     C83179   7.686  11.043  10.104 -0.0370 -0.0725  0.7121
  631MOL0     C83180   7.605  11.116   9.999  0.3515  0.6691  0.0030
  631MOL0     C83181   7.487  11.186  10.062  0.2205 -0.4134 -1.2350
  631MOL0     C83182   7.425  11.095  10.175 -0.0260  0.0543  0.9468
  631MOL0     C83183   7.287  11.130  10.211 -0.4672 -0.6334  0.1981
  631MOL0     O83184   7.194  11.103  10.107  0.4513 -0.1416  0.6981
  631MOL0     C83185   7.057  11.117  10.134  0.2593 -0.0715 -0.0356
  631MOL0     C83186   6.970  11.066  10.043  0.9155 -0.1852 -0.0088
  631MOL0     C83187   6.835  11.079  10.072  0.3779  0.0788  0.3909
  631MOL0     C83188   6.787  11.133  10.196 -0.2985 -1.0603 -0.3581
  631MOL0     C83189   6.646  11.134  10.220  1.0600 -0.0388  0.8024
  631MOL0     O83190   6.589  11.245  10.264 -0.2651 -0.3858  0.4736
  631MOL0     C83191   6.461  11.245  10.304  0.0585 -0.0530 -0.6097
  631MOL0     C83192   6.430  11.199  10.439  0.8396 -0.2153  0.1056
  631MOL0     C83193   6.296  11.221  10.484 -0.6044 -0.5323 -0.8533
  631MOL0     C83194   6.202  11.281  10.405  0.1706  0.7758  0.4217
  631MOL0     O83195   6.074  11.290  10.459  0.4447 -0.4161 -1.3901
  631MOL0     C83196   5.965  11.349  10.384 -1.0020 -0.6556 -0.0608
  631MOL0     C83197   5.839  11.300  10.446 -0.3377 -0.4061  0.0660
  631MOL0     C83198   5.812  11.315  10.600 -0.9250  0.6048 -0.4397
  631MOL0     C83199   5.681  11.244  10.633  1.0336  0.2421  0.7633
  631MOL0     C83200   5.621  11.290  10.763  0.3975 -0.8329  0.2466
  631MOL0     C83201   5.473  11.356  10.737 -0.3260 -0.0494  0.1654
  631MOL0     C83202   5.416  11.415  10.868  0.3283 -0.1983 -0.2032
  631MOL0     C83203   5.287  11.494  10.831 -0.3068 -0.5828  0.1167
  631MOL0    Cl83204   5.342  11.625  10.724 -0.1139  0.0267  0.4297
  631MOL0     C83205   6.243  11.316  10.275  0.0678 -0.3398  1.0276
  631MOL0     C83206   6.369  11.309  10.231 -0.6085 -0.0249  0.8958
  631MOL0     O83207   6.588  11.030  10.207 -0.1534 -0.0569 -0.2911
  631MOL0     C83208   6.879  11.202  10.278  0.8170 -0.3471  1.3141
  631MOL0     C83209   7.009  11.187  10.252 -0.0747  0.3588  0.3166
  631MOL0     N83210   7.663  10.947  10.206  0.0801 -0.3081  0.4760
  631MOL0     N83211   7.778  10.932  10.264 -0.3537 -0.3792  0.4478
  631MOL0     C83212   8.894  10.761  10.351  0.4049 -0.6263 -0.1202
  631MOL0     C83213   9.012  10.845  10.366 -0.2388  0.8642  0.7504
  631MOL0     C83214   9.268  11.163  10.576  0.8781 -0.2477  0.1077
  631MOL0     C83215   9.300  11.246  10.472 -0.5975  0.4785  0.8434
  631MOL0     C83216   9.391  11.346  10.486  0.9983 -0.4311  0.0440
  631MOL0     C83217   9.463  11.367  10.605 -0.1447  0.6607 -0.4252
  631MOL0     O83218   9.549  11.479  10.605  0.1192  0.6986 -0.5578
  631MOL0     C83219   9.569  11.531  10.728 -0.2297  0.5570 -0.2022
  631MOL0     C83220   9.447  11.617  10.779  0.0401  0.5834  0.5296
  631MOL0     C83221   9.483  11.684  10.916  0.1690  0.3419 -0.3925
  631MOL0     C83222   9.354  11.710  10.993  0.2019  0.0561 -0.0802
  631MOL0     C83223   9.294  11.833  10.935  0.6817 -0.1178 -1.1143
  631MOL0     C83224   9.267  11.940  10.881  0.2810  0.8163  0.7443
  631MOL0     C83225   9.435  11.273  10.708  0.1313  0.0927 -0.2063
  631MOL0     C83226   9.332  11.179  10.695 -0.6884  0.8996 -0.0442
  631MOL0     H83227   8.871  11.098  10.534  0.2482 -0.8572 -0.9106
  631MOL0     H83228   8.683  10.962  10.542 -1.0247 -2.8410  1.7648
  631MOL0     H83229   8.522  10.701  10.254  1.2005 -1.5036  1.8247
  631MOL0     H83230   8.653  10.813  10.210  1.8803 -1.1200  0.4039
  631MOL0     H83231   8.565  10.984  10.353  0.9886 -0.7855  2.0412
  631MOL0     H83232   8.437  10.869  10.421 -0.1606 -5.7077 -1.5827
  631MOL0     H83233   8.332  10.837  10.206  1.0289 -2.1871  2.0700
  631MOL0     H83234   8.455  10.936  10.130  0.7851 -2.5027 -1.1690
  631MOL0     H83235   8.402  11.147  10.238 -1.8013  0.9122 -2.1221
  631MOL0     H83236   8.260  11.075  10.164 -1.6950 -0.6996  0.0375
  631MOL0     H83237   8.336  11.094  10.463  0.0552  4.3009 -0.6499
  631MOL0     H83238   8.217  10.976  10.399  0.5986  0.1358  0.1022
  631MOL0     H83239   8.187  11.288  10.390  2.2559 -0.1751 -0.7608
  631MOL0     H83240   8.105  11.166  10.490  1.0693 -0.5264 -0.3364
  631MOL0     H83241   7.962  11.247  10.298 -0.8799 -0.5400  1.3230
  631MOL0     H83242   8.082  11.228  10.184 -1.1617  3.9943  0.9077
  631MOL0     H83243   8.005  10.977  10.354  2.0100  1.0604  0.2011
  631MOL0     H83244   8.080  10.988  10.191  0.8687 -0.5366  0.1445
  631MOL0     H83245   7.872  11.137  10.032 -0.2593 -0.7618 -1.7369
  631MOL0     H83246   7.572  11.037   9.931  1.4751  1.6585 -1.7708
  631MOL0     H83247   7.668  11.187   9.944 -0.0017 -0.4872 -2.0003
  631MOL0     H83248   7.407  11.215   9.993 -0.6558 -1.8873 -0.8769
  631MOL0     H83249   7.527  11.277  10.107 -0.4532 -0.4112 -0.6164
  631MOL0     H83250   7.428  10.991  10.139  0.1991 -0.4647  2.4137
  631MOL0     H83251   7.476  11.099  10.271  0.6592  2.7629  0.5532
  631MOL0     H83252   7.274  11.237  10.229 -1.4990 -0.9146  1.2490
  631MOL0     H83253   7.264  11.069  10.299 -0.2594 -0.9536  0.0342
  631MOL0     H83254   7.010  11.021   9.952 -1.9399  1.5760 -2.3128
  631MOL0     H83255   6.760  11.026  10.014  0.6875 -3.1380  2.7153
  631MOL0     H83256   6.511  11.157  10.498  0.1316  0.2489  1.4234
  631MOL0     H83257   6.265  11.193  10.584 -0.6936  0.5433 -0.5749
  631MOL0     H83258   5.961  11.303  10.285 -0.1723 -2.7781  0.8358
  631MOL0     H83259   5.976  11.458  10.379  1.4710 -0.9128 -1.9506
  631MOL0     H83260   5.828  11.194  10.420 -0.5909 -0.8664  1.9010
  631MOL0     H83261   5.757  11.352  10.397  0.8037  0.1309 -1.3292
  631MOL0     H83262   5.791  11.417  10.635  0.5870 -0.4136  4.1993
  631MOL0     H83263   5.895  11.267  10.653  2.8340  4.5003 -2.1604
  631MOL0     H83264   5.605  11.271  10.559 -0.7873 -1.5021  1.9078
  631MOL0     H83265   5.695  11.136  10.637 -1.6856 -0.2728 -1.0385
  631MOL0     H83266   5.687  11.366  10.806 -1.3352  1.3047 -0.6519
  631MOL0     H83267   5.626  11.215  10.842  1.0023 -0.4492  0.5745
  631MOL0     H83268   5.409  11.272  10.709 -2.4191  0.7709  2.0899
  631MOL0     H83269   5.497  11.423  10.655 -2.1960 -0.9024 -1.1590
  631MOL0     H83270   5.407  11.332  10.939  5.1788 -2.0374 -1.3972
  631MOL0     H83271   5.477  11.491  10.917 -1.4740  0.3908  1.2738
  631MOL0     H83272   5.245  11.541  10.920  2.6249  1.0428  0.7545
  631MOL0     H83273   5.217  11.430  10.777 -0.9357 -0.0920  0.3387
  631MOL0     H83274   6.164  11.357  10.213 -0.4400  1.9108  2.9774
  631MOL0     H83275   6.408  11.357  10.142  2.0388 -2.5166  0.5694
  631MOL0     H83276   6.831  11.253  10.360  2.0989  2.4074  0.4747
  631MOL0     H83277   7.083  11.233  10.316 -2.8722  0.5654  3.6674
  631MOL0     H83278   8.901  10.665  10.301 -0.0926 -0.1459 -1.1520
  631MOL0     H83279   9.109  10.807  10.335 -0.5628 -0.6537  1.5017
  631MOL0     H83280   9.250  11.222  10.379  0.8224 -3.3091  0.8676
  631MOL0     H83281   9.408  11.421  10.408  0.9707 -2.5832 -2.1604
  631MOL0     H83282   9.646  11.607  10.732  0.4644 -0.1507  0.1652
  631MOL0     H83283   9.593  11.455  10.803 -0.9544 -0.8217 -1.2950
  631MOL0     H83284   9.438  11.695  10.704  1.1473  2.3429  2.1400
  631MOL0     H83285   9.358  11.555  10.789  0.6164 -0.3371  0.1032
  631MOL0     H83286   9.531  11.781  10.904 -2.1881  1.5149 -1.0187
  631MOL0     H83287   9.537  11.610  10.976 -0.8970 -1.1133 -1.1604
  631MOL0     H83288   9.291  11.622  10.979 -0.8914  1.0697 -1.8286
  631MOL0     H83289   9.363  11.727  11.101 -0.9542 -0.2824  0.0853
  631MOL0     H83290   9.248  12.031  10.827  2.1756 -0.0055 -1.4590
  631MOL0     H83291   9.487  11.272  10.803 -2.0720  0.1230  1.0763
  631MOL0     H83292   9.313  11.107  10.774  1.5873  1.8876  1.5152
  632MOL0     O83293  10.747   5.821   7.049  0.1509  0.0091  0.6102
  632MOL0     C83294  10.682   5.823   6.939 -0.3358  0.2113  0.3360
  632MOL0     O83295  10.728   5.816   6.812  0.7387  0.1709  0.1640
  632MOL0     C83296  10.860   5.824   6.791  0.1669  0.6422  0.0755
  632MOL0     C83297  10.941   5.720   6.846 -0.6616 -0.1310  0.5411
  632MOL0     C83298  11.072   5.704   6.800 -0.8674 -0.4753  0.1682
  632MOL0     C83299  11.128   5.801   6.703  0.2766  0.4546 -0.8562
  632MOL0     O83300  11.255   5.778   6.646 -0.6872 -0.7678  0.3483
  632MOL0     C83301  11.304   5.881   6.554  0.7656 -0.1564  0.2961
  632MOL0     C83302  11.452   5.878   6.545 -0.3793 -0.9694 -0.4215
  632MOL0     C83303  11.501   5.977   6.441 -0.1693  0.0881 -0.1796
  632MOL0     C83304  11.635   6.026   6.471  0.0074 -0.5817  0.4032
  632MOL0     C83305  11.750   5.926   6.442  0.5805 -0.0527  0.8476
  632MOL0     C83306  11.883   5.970   6.484 -0.1174  0.8660  0.5525
  632MOL0     C83307  11.941   6.085   6.384 -0.3560 -0.3608  0.1179
  632MOL0     C83308  12.093   6.077   6.400  0.3984 -0.3049  0.4696
  632MOL0     N83309  12.160   5.995   6.295  0.3084 -0.0226 -0.4854
  632MOL0     C83310  12.256   6.046   6.222 -0.2121  0.0247  0.4555
  632MOL0     C83311  12.315   5.932   6.174  0.1732 -1.3047 -0.9442
  632MOL0     C83312  12.427   5.948   6.081  0.3134  1.1319  0.9534
  632MOL0     C83313  12.373   5.964   5.932 -0.4215  0.1064 -0.4553
  632MOL0     C83314  12.489   5.979   5.839  0.2086  0.4804 -0.4333
  632MOL0     C83315  12.534   6.125   5.815  0.3674 -0.0554 -0.7413
  632MOL0     O83316  12.616   6.128   5.700  0.6579  0.8135  0.8586
  632MOL0     C83317  12.587   6.236   5.616 -0.5585  0.7662  0.9663
  632MOL0     C83318  12.626   6.363   5.647 -0.7199  0.0024  0.0704
  632MOL0     C83319  12.599   6.472   5.570  0.2178  0.0348 -0.1410
  632MOL0     C83320  12.531   6.454   5.451 -0.7083 -0.9714  0.6133
  632MOL0     C83321  12.488   6.567   5.358  0.4101 -0.0878 -0.2635
  632MOL0     O83322  12.483   6.536   5.228 -0.2054  0.7618  0.3014
  632MOL0     C83323  12.431   6.626   5.135  1.2498 -0.1559  1.2502
  632MOL0     C83324  12.298   6.664   5.131  0.3071  0.4912 -0.8311
  632MOL0     C83325  12.253   6.729   5.019 -0.0318  0.6222  0.4610
  632MOL0     C83326  12.332   6.773   4.915 -0.8856 -0.9590  0.2177
  632MOL0     O83327  12.261   6.825   4.812  0.1286 -0.3000 -0.2218
  632MOL0     C83328  12.338   6.881   4.701  0.7856 -0.0083 -0.9273
  632MOL0     C83329  12.253   6.941   4.594  0.0409 -0.7825 -0.3067
  632MOL0     C83330  12.171   6.826   4.524  0.1745  0.0859  0.4656
  632MOL0     C83331  12.092   6.872   4.410 -0.2871 -0.0711  0.3974
  632MOL0     C83332  12.013   6.758   4.350 -0.4142  0.2184 -0.2926
  632MOL0     C83333  11.904   6.800   4.248  0.8672 -0.1574 -0.0397
  632MOL0     C83334  11.789   6.892   4.306  0.0121 -0.4505  0.8454
  632MOL0     C83335  11.701   6.963   4.206 -1.1130 -0.1380 -0.2113
  632MOL0    Cl83336  11.658   6.835   4.078  0.0087  0.1886 -0.2053
  632MOL0     C83337  12.475   6.745   4.926 -0.0230 -0.2391 -0.3578
  632MOL0     C83338  12.517   6.671   5.040 -0.1757 -0.1060 -0.1030
  632MOL0     O83339  12.455   6.675   5.410 -0.1380 -0.2342  0.1439
  632MOL0     C83340  12.483   6.327   5.418 -0.3377 -0.0053 -0.3182
  632MOL0     C83341  12.520   6.212   5.493 -1.2277  0.7812 -0.0705
  632MOL0     N83342  12.245   5.823   6.213  0.2120 -0.3819  0.7222
  632MOL0     N83343  12.152   5.866   6.289 -0.4513  0.1240 -0.3403
  632MOL0     C83344  11.046   5.902   6.657 -0.8397 -0.2917 -0.5298
  632MOL0     C83345  10.917   5.912   6.708 -0.4882 -0.5392  0.0392
  632MOL0     C83346  10.538   5.837   6.966 -0.4832  0.0891  0.0483
  632MOL0     C83347  10.478   5.856   7.102  0.1947 -0.6168  0.1783
  632MOL0     C83348  10.345   5.831   7.120  1.3478 -0.9978  0.0552
  632MOL0     C83349  10.254   5.811   7.008  0.4785 -0.3972 -0.3759
  632MOL0     O83350  10.119   5.807   7.024 -0.4922  0.0379 -0.9801
  632MOL0     C83351  10.070   5.733   7.139  1.0816 -0.0987  0.7826
  632MOL0     C83352   9.983   5.816   7.231  0.4772 -0.2738 -0.4061
  632MOL0     C83353   9.926   5.737   7.352  0.6147 -1.7618 -0.5317
  632MOL0     C83354   9.858   5.817   7.460 -0.1556 -0.3720 -0.1600
  632MOL0     C83355   9.725   5.765   7.489 -0.8371  0.5779  0.2199
  632MOL0     C83356   9.626   5.722   7.535  0.3172  0.4122 -0.4585
  632MOL0     C83357  10.311   5.820   6.882  0.7140 -0.3694  0.8886
  632MOL0     C83358  10.451   5.835   6.860 -0.6247  0.8214 -0.4103
  632MOL0     H83359  10.904   5.661   6.929 -0.7859 -1.6755 -0.5900
  632MOL0     H83360  11.140   5.641   6.855 -1.0841 -0.2935  0.6539
  632MOL0     H83361  11.277   5.981   6.589  0.4087 -0.0811 -0.1739
  632MOL0     H83362  11.255   5.868   6.457 -0.3280  0.9303  0.6755
  632MOL0     H83363  11.480   5.777   6.515 -2.5328 -0.9674 -2.7490
  632MOL0     H83364  11.502   5.898   6.640 -1.6774  0.3486  0.0179
  632MOL0     H83365  11.428   6.058   6.444 -0.0730  0.1656  0.0975
  632MOL0     H83366  11.492   5.940   6.338 -0.3075  1.5760 -0.7357
  632MOL0     H83367  11.657   6.114   6.410 -1.6145 -1.2191 -1.2158
  632MOL0     H83368  11.637   6.059   6.575 -1.5242 -0.9969  0.5887
  632MOL0     H83369  11.760   5.908   6.334  3.5013  3.1386  0.4050
  632MOL0     H83370  11.720   5.835   6.494 -1.6536 -0.8302 -1.6049
  632MOL0     H83371  11.947   5.880   6.485 -1.9741 -0.5102  0.3615
  632MOL0     H83372  11.867   6.007   6.585 -0.8405  0.4896  0.5790
  632MOL0     H83373  11.918   6.059   6.280  0.3711  1.1892 -0.4812
  632MOL0     H83374  11.905   6.187   6.398 -0.7028 -0.5042  0.2568
  632MOL0     H83375  12.119   6.026   6.493  1.5928 -1.8785 -0.6647
  632MOL0     H83376  12.124   6.182   6.399 -5.4853  1.9968 -5.1410
  632MOL0     H83377  12.290   6.149   6.212  0.7034 -0.3208 -0.1535
  632MOL0     H83378  12.490   5.859   6.088 -0.9579 -0.0581 -1.3410
  632MOL0     H83379  12.486   6.038   6.103  1.5832  0.9450 -1.3413
  632MOL0     H83380  12.315   6.057   5.940 -0.4560 -0.0679  3.5827
  632MOL0     H83381  12.313   5.877   5.902  0.1096  0.1458 -1.6843
  632MOL0     H83382  12.570   5.918   5.880 -1.9519 -3.4785 -1.5547
  632MOL0     H83383  12.469   5.919   5.750 -0.1189 -2.0419  1.2333
  632MOL0     H83384  12.584   6.160   5.906 -1.6413 -0.0682  0.4178
  632MOL0     H83385  12.450   6.192   5.796 -1.0274 -0.6462  2.5517
  632MOL0     H83386  12.694   6.387   5.728  0.7541 -0.7617 -0.8880
  632MOL0     H83387  12.639   6.569   5.597  3.0126 -0.4929 -1.9683
  632MOL0     H83388  12.227   6.637   5.209  2.0575  3.5447  2.0542
  632MOL0     H83389  12.146   6.741   5.006  0.1302  0.3926 -1.4008
  632MOL0     H83390  12.404   6.801   4.666 -0.5789 -0.7241 -1.9820
  632MOL0     H83391  12.401   6.964   4.732 -0.4730  1.1711 -1.4173
  632MOL0     H83392  12.311   6.990   4.515 -0.7577 -2.7674 -2.1970
  632MOL0     H83393  12.192   7.019   4.641  2.5516  0.2987  1.3913
  632MOL0     H83394  12.104   6.777   4.596 -1.1108  0.6796 -0.2966
  632MOL0     H83395  12.239   6.746   4.493  1.2726  0.5285  1.6252
  632MOL0     H83396  12.035   6.961   4.439  3.5463  3.0434 -0.6221
  632MOL0     H83397  12.163   6.905   4.334  2.8925 -0.8790  2.8120
  632MOL0     H83398  11.964   6.702   4.430  0.7698 -0.4693 -0.0182
  632MOL0     H83399  12.078   6.687   4.297 -1.0818  1.5645 -3.1235
  632MOL0     H83400  11.867   6.703   4.213  3.2078 -2.6586  3.6899
  632MOL0     H83401  11.951   6.856   4.166  0.8201  1.5501  1.0497
  632MOL0     H83402  11.718   6.837   4.369 -0.3434 -0.3058  0.5760
  632MOL0     H83403  11.827   6.977   4.362 -2.1782  0.3730  1.1897
  632MOL0     H83404  11.761   7.035   4.150 -0.6178 -1.7985 -1.9745
  632MOL0     H83405  11.611   7.008   4.248 -1.9135 -2.6003  0.9094
  632MOL0     H83406  12.542   6.771   4.845  0.1329 -1.3618 -0.5965
  632MOL0     H83407  12.625   6.670   5.052 -0.3704  0.0319  2.0594
  632MOL0     H83408  12.428   6.306   5.327  0.3612 -0.8869 -0.5557
  632MOL0     H83409  12.506   6.106   5.471 -2.4778  0.6468  1.2329
  632MOL0     H83410  11.072   5.977   6.584 -0.4625  2.2090  1.9999
  632MOL0     H83411  10.852   5.994   6.676  0.1728  0.0378  0.1528
  632MOL0     H83412  10.547   5.888   7.180 -3.5577  0.5133  3.3625
  632MOL0     H83413  10.305   5.835   7.221 -4.5310 -1.8239 -1.8907
  632MOL0     H83414  10.146   5.693   7.207  0.3082  1.1944  2.4858
  632MOL0     H83415  10.001   5.654   7.107  0.3376 -0.1930  2.5180
  632MOL0     H83416  10.042   5.898   7.274  1.8637 -1.7926  0.6891
  632MOL0     H83417   9.899   5.868   7.183  1.0742 -0.0324 -1.2233
  632MOL0     H83418  10.006   5.677   7.397  0.8843 -1.6516 -0.8606
  632MOL0     H83419   9.852   5.668   7.310 -0.7322  0.5365 -2.1290
  632MOL0     H83420   9.916   5.830   7.552 -2.9674  3.7931  1.3292
  632MOL0     H83421   9.838   5.918   7.424  0.2644 -0.5036 -0.7759
  632MOL0     H83422   9.536   5.675   7.569  1.0690 -1.1738 -0.5980
  632MOL0     H83423  10.248   5.826   6.794 -0.0884 -0.2445  1.4692
  632MOL0     H83424  10.480   5.834   6.756 -0.3579 -1.6839 -0.3544
  633MOL0     O83425   4.603   0.680   4.154 -0.6051  0.6303  0.0594
  633MOL0     C83426   4.656   0.668   4.258  0.6492  0.8087  0.0141
  633MOL0     O83427   4.590   0.611   4.366 -0.0438 -0.7542 -0.6497
  633MOL0     C83428   4.472   0.541   4.360 -0.5619 -0.3243  0.1617
  633MOL0     C83429   4.434   0.444   4.261  0.4156 -0.2960 -0.3869
  633MOL0     C83430   4.305   0.380   4.278  0.2397 -1.2912  0.6149
  633MOL0     C83431   4.225   0.401   4.391 -0.4052 -0.5524 -0.1361
  633MOL0     O83432   4.104   0.344   4.395  0.2974  0.1626 -0.5894
  633MOL0     C83433   4.023   0.355   4.515 -0.1195 -0.0234 -0.8377
  633MOL0     C83434   3.892   0.284   4.493 -0.1115 -0.7210 -0.1949
  633MOL0     C83435   3.912   0.131   4.465 -0.0014 -0.1884 -0.1510
  633MOL0     C83436   3.774   0.051   4.467  0.2442 -0.0262  0.7011
  633MOL0     C83437   3.790  -0.097   4.460  0.1172 -0.5208 -0.6772
  633MOL0     C83438   3.844  -0.163   4.346  1.5461 -0.4257  0.6397
  633MOL0     C83439   3.754  -0.167   4.226  0.2782  0.1342  0.4083
  633MOL0     C83440   3.635  -0.266   4.244  0.2810 -0.2388  0.1059
  633MOL0     N83441   3.669  -0.397   4.188 -0.8055 -0.1204  0.1698
  633MOL0     C83442   3.726  -0.499   4.260 -0.5568  0.2935  0.7349
  633MOL0     C83443   3.765  -0.591   4.165  0.4432  0.0514 -0.9885
  633MOL0     C83444   3.844  -0.722   4.183 -0.0361  0.2532 -0.1536
  633MOL0     C83445   3.742  -0.845   4.197 -0.2080  0.8242 -0.1558
  633MOL0     C83446   3.687  -0.889   4.323  0.5394  0.7877  0.0759
  633MOL0     C83447   3.541  -0.936   4.315 -0.2680  0.3878 -1.1966
  633MOL0     O83448   3.527  -1.050   4.217 -0.8421 -0.1742 -0.1088
  633MOL0     C83449   3.404  -1.063   4.170 -0.1909  0.0037 -1.0512
  633MOL0     C83450   3.397  -1.138   4.050 -0.1407  0.4768 -0.6078
  633MOL0     C83451   3.278  -1.173   3.997  0.5655  0.6618  0.2537
  633MOL0     C83452   3.158  -1.140   4.079 -1.1255 -0.1793 -0.5214
  633MOL0     C83453   3.032  -1.206   4.047 -0.9687 -0.1977 -0.2807
  633MOL0     O83454   2.925  -1.172   4.132  0.6516 -0.2101 -0.7365
  633MOL0     C83455   2.816  -1.261   4.116 -0.5710  0.0023 -0.2643
  633MOL0     C83456   2.708  -1.220   4.036  0.6122  0.9737 -0.5528
  633MOL0     C83457   2.599  -1.311   4.025  0.0733 -0.0462 -0.2547
  633MOL0     C83458   2.595  -1.433   4.096 -1.6151  0.0997 -0.3533
  633MOL0     O83459   2.512  -1.541   4.079  0.7985 -0.4336  0.0766
  633MOL0     C83460   2.388  -1.541   3.999 -0.9643 -0.1700 -0.4320
  633MOL0     C83461   2.273  -1.469   4.069  0.0205  0.5652 -0.2330
  633MOL0     C83462   2.143  -1.493   3.984  1.1214  0.2420 -0.8135
  633MOL0     C83463   2.030  -1.388   4.012  0.2671  0.1049  0.0435
  633MOL0     C83464   2.078  -1.245   3.968 -0.4595  0.2332 -0.0374
  633MOL0     C83465   1.963  -1.147   3.958 -1.0123 -0.1306  0.2403
  633MOL0     C83466   1.879  -1.173   3.833 -0.0801  0.0506 -0.8202
  633MOL0     C83467   1.767  -1.068   3.807  0.2223  0.6548 -0.4255
  633MOL0    Cl83468   1.840  -0.903   3.776 -0.2391  0.2206  0.4281
  633MOL0     C83469   2.702  -1.460   4.180 -0.0562  0.0742  0.2553
  633MOL0     C83470   2.814  -1.372   4.189  0.4590  0.3605 -0.5783
  633MOL0     O83471   3.029  -1.271   3.940 -0.5320 -0.1804 -0.0833
  633MOL0     C83472   3.161  -1.045   4.185 -0.0580  0.6621  0.1176
  633MOL0     C83473   3.290  -1.015   4.240 -0.3204  0.7517  0.4070
  633MOL0     N83474   3.718  -0.543   4.043  0.8777  0.2897  0.2622
  633MOL0     N83475   3.648  -0.435   4.057 -0.7616  0.4469 -0.4099
  633MOL0     C83476   4.278   0.478   4.490 -0.9635  0.0825  0.0741
  633MOL0     C83477   4.398   0.548   4.481  0.3946  0.9914  1.3120
  633MOL0     C83478   4.796   0.714   4.247 -0.2374 -0.8943  1.0409
  633MOL0     C83479   4.885   0.660   4.335 -0.2566  1.1663  0.0475
  633MOL0     C83480   5.020   0.704   4.334  0.0569  1.1624  0.2690
  633MOL0     C83481   5.073   0.795   4.245  0.8155 -0.8312 -0.4459
  633MOL0     O83482   5.198   0.838   4.236 -0.4355 -0.7432  0.0412
  633MOL0     C83483   5.303   0.753   4.305 -0.3385 -0.0130  0.1507
  633MOL0     C83484   5.438   0.810   4.296  0.7936  0.8319 -0.4457
  633MOL0     C83485   5.488   0.801   4.160 -0.2299 -0.6102  0.5482
  633MOL0     C83486   5.627   0.860   4.148  0.1853  0.0823 -0.2143
  633MOL0     C83487   5.687   0.810   4.020  0.6442  0.5569  0.1335
  633MOL0     C83488   5.726   0.770   3.909 -0.5141  0.3080 -0.5458
  633MOL0     C83489   4.979   0.847   4.160 -0.1707  0.3627 -0.4041
  633MOL0     C83490   4.843   0.808   4.154  0.3137 -0.4973 -0.1384
  633MOL0     H83491   4.510   0.416   4.188  0.1890 -4.3693  0.6999
  633MOL0     H83492   4.283   0.299   4.210  1.1054 -1.6260  0.7143
  633MOL0     H83493   3.999   0.458   4.543 -4.9097 -1.3211  0.7426
  633MOL0     H83494   4.073   0.299   4.595 -0.6911 -0.1578 -0.5677
  633MOL0     H83495   3.841   0.343   4.417  0.9217 -1.2854 -1.3471
  633MOL0     H83496   3.830   0.297   4.583  0.1417 -0.1868 -0.0966
  633MOL0     H83497   3.980   0.091   4.541 -1.3100  0.3924  1.4013
  633MOL0     H83498   3.950   0.114   4.364  1.1739 -2.1187  0.5660
  633MOL0     H83499   3.714   0.078   4.555  0.6978 -0.2384  1.0837
  633MOL0     H83500   3.719   0.077   4.377  1.4984 -0.2995 -0.1808
  633MOL0     H83501   3.694  -0.135   4.497  0.9410  0.0619  2.2909
  633MOL0     H83502   3.860  -0.117   4.542 -0.8313 -0.6812  0.1175
  633MOL0     H83503   3.873  -0.267   4.364 -1.6745 -1.8975 -1.6549
  633MOL0     H83504   3.933  -0.109   4.314  0.8442  0.4736  0.1789
  633MOL0     H83505   3.709  -0.073   4.196  0.1054 -0.1578 -0.2716
  633MOL0     H83506   3.810  -0.203   4.139  2.1853  0.1201  1.5651
  633MOL0     H83507   3.546  -0.239   4.186 -0.0085  0.7000  0.9603
  633MOL0     H83508   3.606  -0.275   4.349  2.2366  0.4769  0.7423
  633MOL0     H83509   3.754  -0.502   4.365  0.8736 -0.4097  0.3538
  633MOL0     H83510   3.915  -0.727   4.266 -0.1621 -1.3130 -0.1156
  633MOL0     H83511   3.893  -0.736   4.087  0.3574 -0.4406  0.1414
  633MOL0     H83512   3.788  -0.933   4.152 -0.0730  0.7013  0.2129
  633MOL0     H83513   3.651  -0.831   4.138 -2.4737  1.8155  3.2646
  633MOL0     H83514   3.754  -0.966   4.361  0.5719  0.7994  0.0426
  633MOL0     H83515   3.701  -0.800   4.384 -0.8696  2.5580 -2.0002
  633MOL0     H83516   3.485  -0.851   4.275 -0.3448  0.8816 -0.0694
  633MOL0     H83517   3.527  -0.975   4.416  4.6770  1.6705  0.2797
  633MOL0     H83518   3.488  -1.181   4.010  0.3466 -0.8088  1.7040
  633MOL0     H83519   3.269  -1.234   3.908  1.3997 -0.8980  1.1726
  633MOL0     H83520   2.719  -1.135   3.970  3.7345 -1.1874 -3.1496
  633MOL0     H83521   2.518  -1.287   3.957  0.4293  0.6331 -0.4460
  633MOL0     H83522   2.376  -1.645   3.966 -0.7170  0.2361 -1.8291
  633MOL0     H83523   2.411  -1.486   3.908  2.3233  2.2519  1.6219
  633MOL0     H83524   2.293  -1.361   4.063 -1.1466  0.9426  1.7738
  633MOL0     H83525   2.269  -1.494   4.175  0.4760 -1.4041 -0.6344
  633MOL0     H83526   2.104  -1.594   4.003  1.4505  0.6952  3.3575
  633MOL0     H83527   2.180  -1.487   3.882  5.2458 -2.0744  0.3361
  633MOL0     H83528   1.955  -1.427   3.943  0.3234 -1.6940  0.9387
  633MOL0     H83529   1.994  -1.394   4.115  6.2362  1.6779  2.6155
  633MOL0     H83530   2.111  -1.255   3.864  0.1774  2.3411 -0.0874
  633MOL0     H83531   2.159  -1.208   4.033 -0.1453 -1.3892  0.5295
  633MOL0     H83532   1.999  -1.044   3.953 -0.3930 -0.2704  1.4075
  633MOL0     H83533   1.912  -1.157   4.054 -1.4254  2.0694  0.3079
  633MOL0     H83534   1.934  -1.176   3.739 -1.5532 -0.6648 -1.7064
  633MOL0     H83535   1.838  -1.274   3.850 -2.0229  0.8849 -0.2072
  633MOL0     H83536   1.700  -1.065   3.893  2.5576 -1.0977  1.5637
  633MOL0     H83537   1.710  -1.109   3.723 -0.0929 -3.6885  1.6573
  633MOL0     H83538   2.692  -1.550   4.239 -1.2449  0.1114  0.1444
  633MOL0     H83539   2.900  -1.419   4.235 -0.6547 -0.8765  0.3024
  633MOL0     H83540   3.075  -1.012   4.242 -0.0612 -0.0943  0.5641
  633MOL0     H83541   3.290  -0.941   4.319  0.9302  2.0358 -0.7437
  633MOL0     H83542   4.218   0.488   4.580  0.3137 -0.0939  0.9613
  633MOL0     H83543   4.416   0.619   4.562  2.0586 -0.7317  2.5235
  633MOL0     H83544   4.846   0.599   4.416  0.8517  3.1360  2.1531
  633MOL0     H83545   5.084   0.647   4.400  0.1811  0.7598 -0.1928
  633MOL0     H83546   5.299   0.655   4.256  0.8162  0.7084 -1.4541
  633MOL0     H83547   5.283   0.737   4.411  1.3049 -1.1897  0.3295
  633MOL0     H83548   5.431   0.914   4.329  0.3070  0.7548 -0.3089
  633MOL0     H83549   5.495   0.752   4.369 -2.8740 -1.7410  0.6074
  633MOL0     H83550   5.420   0.866   4.104  2.5818  1.3279 -0.8433
  633MOL0     H83551   5.485   0.700   4.118  1.3646 -0.5501  0.2231
  633MOL0     H83552   5.622   0.969   4.153 -1.8139 -0.0189  1.2492
  633MOL0     H83553   5.688   0.816   4.227  2.3307  0.2068 -1.7148
  633MOL0     H83554   5.755   0.729   3.815  0.5100 -4.7252  1.6345
  633MOL0     H83555   5.015   0.928   4.098 -0.9808  0.5985 -0.5800
  633MOL0     H83556   4.775   0.854   4.082  0.1546 -3.8923 -2.3575
  634MOL0     O83557  10.117   8.244   3.601  0.4125  0.7181  0.4810
  634MOL0     C83558  10.058   8.141   3.633  0.1631  0.8484  0.0073
  634MOL0     O83559  10.101   8.014   3.600 -0.7733 -0.2325 -0.1231
  634MOL0     C83560  10.225   7.978   3.546 -0.0930 -0.7814 -0.7008
  634MOL0     C83561  10.259   7.847   3.557 -0.7990  0.0054  0.9607
  634MOL0     C83562  10.379   7.795   3.500 -0.6671 -0.4978 -0.0458
  634MOL0     C83563  10.471   7.887   3.435 -0.1885 -0.4608 -0.5628
  634MOL0     O83564  10.591   7.855   3.370  0.1025  0.2021 -0.3935
  634MOL0     C83565  10.657   7.736   3.411  0.3987 -0.6286 -0.3791
  634MOL0     C83566  10.645   7.633   3.307 -0.6221  0.5197 -0.1017
  634MOL0     C83567  10.665   7.675   3.158  0.7734  0.4934  0.4420
  634MOL0     C83568  10.809   7.709   3.132 -0.8138  0.8646  0.0248
  634MOL0     C83569  10.841   7.767   2.987 -0.3212  0.0067 -0.2314
  634MOL0     C83570  10.799   7.668   2.881 -0.1148 -0.5550  0.4316
  634MOL0     C83571  10.833   7.690   2.739 -0.1598 -0.4396  0.0714
  634MOL0     C83572  10.812   7.565   2.644 -0.0108 -0.5899  0.7364
  634MOL0     N83573  10.842   7.582   2.503  0.2181 -0.1918  1.0496
  634MOL0     C83574  10.827   7.704   2.444  0.6924  0.2287 -0.2771
  634MOL0     C83575  10.902   7.696   2.327  0.5280  0.2008  0.1227
  634MOL0     C83576  10.907   7.798   2.225  0.8095  0.4175 -0.7183
  634MOL0     C83577  11.058   7.817   2.195  0.6858  0.7394 -0.3961
  634MOL0     C83578  11.068   7.916   2.068 -0.1086  0.3210  0.6241
  634MOL0     C83579  11.210   7.958   2.033 -0.6559 -0.0777 -0.4932
  634MOL0     O83580  11.229   8.070   1.945  0.0950  0.6827 -0.5037
  634MOL0     C83581  11.225   8.062   1.807  0.0983 -0.2514  0.4214
  634MOL0     C83582  11.264   8.171   1.737  0.6541 -0.3006  0.3591
  634MOL0     C83583  11.276   8.176   1.599  0.0711  0.7509  0.5893
  634MOL0     C83584  11.247   8.062   1.522  0.4895  0.2495 -1.2798
  634MOL0     C83585  11.251   8.049   1.380  0.8358 -0.2323  0.9971
  634MOL0     O83586  11.230   7.927   1.318 -0.1679 -0.1503 -0.7266
  634MOL0     C83587  11.260   7.905   1.189 -1.0005  0.6434  0.0649
  634MOL0     C83588  11.390   7.860   1.160 -1.1250 -0.0659  0.0859
  634MOL0     C83589  11.417   7.808   1.031 -0.8318 -0.5668 -0.1690
  634MOL0     C83590  11.320   7.820   0.933  0.4475 -0.2767  0.4985
  634MOL0     O83591  11.332   7.758   0.811  0.2587 -0.4417  0.1296
  634MOL0     C83592  11.245   7.801   0.708 -0.7153  0.4769 -0.0370
  634MOL0     C83593  11.297   7.746   0.575  0.6463 -1.0387  0.8311
  634MOL0     C83594  11.288   7.595   0.560  0.0233  0.0266  0.4957
  634MOL0     C83595  11.311   7.544   0.418 -0.8639 -0.1712  0.2117
  634MOL0     C83596  11.224   7.408   0.404 -0.5005 -0.0574 -0.3635
  634MOL0     C83597  11.269   7.336   0.276  0.9914  0.4060 -0.8332
  634MOL0     C83598  11.167   7.238   0.234 -0.5683  0.6044  0.6426
  634MOL0     C83599  11.145   7.125   0.336  0.8223  0.5454 -0.4547
  634MOL0    Cl83600  11.282   7.039   0.398 -0.1927  0.3554  0.0645
  634MOL0     C83601  11.199   7.884   0.966 -0.6290 -0.1767  1.2283
  634MOL0     C83602  11.164   7.920   1.092  0.1889 -0.0102  0.5050
  634MOL0     O83603  11.281   8.149   1.319  0.2428  0.6225 -0.1937
  634MOL0     C83604  11.218   7.947   1.599  0.3554 -0.0215 -0.0187
  634MOL0     C83605  11.197   7.949   1.738  0.0904 -0.1741 -0.0248
  634MOL0     N83606  10.950   7.561   2.320  1.2978 -0.2481 -0.4993
  634MOL0     N83607  10.920   7.503   2.429 -0.1649  0.6816 -0.4360
  634MOL0     C83608  10.430   8.015   3.414  0.5243 -0.4300  0.4948
  634MOL0     C83609  10.311   8.061   3.473  0.6299 -1.0271  0.6741
  634MOL0     C83610   9.925   8.149   3.678  1.3928  0.4939 -0.1516
  634MOL0     C83611   9.856   8.270   3.658  0.9425 -0.8151 -0.3797
  634MOL0     C83612   9.727   8.271   3.722  0.4917 -0.3193 -0.5843
  634MOL0     C83613   9.676   8.163   3.793  0.1067  0.1983  0.5710
  634MOL0     O83614   9.558   8.151   3.850  0.4567 -0.1505  0.0950
  634MOL0     C83615   9.490   8.253   3.927 -0.7938 -0.2237 -0.7218
  634MOL0     C83616   9.578   8.337   4.015 -0.4914 -0.1591  0.6857
  634MOL0     C83617   9.495   8.415   4.118 -0.6408 -0.1539  0.3268
  634MOL0     C83618   9.576   8.488   4.224 -1.1950  0.1531 -0.3399
  634MOL0     C83619   9.634   8.383   4.312 -0.4117 -0.3990 -0.7159
  634MOL0     C83620   9.677   8.292   4.377  0.6584  0.1498 -0.2367
  634MOL0     C83621   9.741   8.039   3.803 -1.1416  0.1448 -0.2624
  634MOL0     C83622   9.876   8.039   3.755  0.3054  0.2423  0.1510
  634MOL0     H83623  10.182   7.776   3.587 -0.3982 -1.7434 -1.7452
  634MOL0     H83624  10.386   7.687   3.506  1.7888 -0.3250  1.6947
  634MOL0     H83625  10.611   7.685   3.496  0.4099 -2.9030 -1.6643
  634MOL0     H83626  10.757   7.762   3.447 -0.4469 -0.9782  2.4642
  634MOL0     H83627  10.542   7.598   3.305 -1.5384  3.0079 -2.8440
  634MOL0     H83628  10.717   7.553   3.326 -0.0609  0.1012 -3.3243
  634MOL0     H83629  10.603   7.761   3.131 -0.2285  0.0292  1.2392
  634MOL0     H83630  10.629   7.590   3.100  1.9109 -0.2253  0.7490
  634MOL0     H83631  10.841   7.779   3.210 -0.8578  0.3485  0.5118
  634MOL0     H83632  10.869   7.618   3.141 -0.2843  1.1452 -0.5686
  634MOL0     H83633  10.949   7.785   2.988 -0.5454  1.4835  0.7316
  634MOL0     H83634  10.789   7.862   2.970  2.3950  1.3012 -2.0967
  634MOL0     H83635  10.690   7.658   2.877 -0.4884  2.6217  0.5980
  634MOL0     H83636  10.846   7.572   2.907 -0.9811 -2.4790 -4.1984
  634MOL0     H83637  10.769   7.769   2.699  0.3551 -0.4128 -0.7215
  634MOL0     H83638  10.941   7.704   2.728 -0.3100  0.2651 -0.5514
  634MOL0     H83639  10.705   7.545   2.645 -0.2793  0.2331  4.5886
  634MOL0     H83640  10.849   7.468   2.680 -0.8029 -1.0668  0.2774
  634MOL0     H83641  10.752   7.773   2.481 -0.1013 -0.7746  0.0544
  634MOL0     H83642  10.869   7.896   2.257  0.5013  0.3079 -0.7548
  634MOL0     H83643  10.851   7.771   2.135 -0.5442  0.1828  0.1698
  634MOL0     H83644  11.102   7.720   2.169 -0.5131  0.1789 -0.4048
  634MOL0     H83645  11.107   7.865   2.280 -1.0017  0.1154  0.9846
  634MOL0     H83646  11.019   7.876   1.979 -3.0754  2.3121  1.2071
  634MOL0     H83647  11.008   8.006   2.085 -1.6361 -0.7008  0.9059
  634MOL0     H83648  11.276   7.874   2.008  0.2470 -0.0720  1.6354
  634MOL0     H83649  11.257   7.996   2.124 -0.2940 -2.1204  0.2322
  634MOL0     H83650  11.299   8.255   1.797 -1.5169  1.0649 -0.1879
  634MOL0     H83651  11.292   8.265   1.539 -0.4251 -0.1778 -0.9816
  634MOL0     H83652  11.464   7.845   1.239 -1.7565  3.1143  1.4240
  634MOL0     H83653  11.500   7.751   0.990 -0.3066  1.2229 -1.7346
  634MOL0     H83654  11.250   7.910   0.694 -1.3854  0.3843 -1.1703
  634MOL0     H83655  11.144   7.766   0.728 -0.7722  1.3434  1.3390
  634MOL0     H83656  11.402   7.776   0.565  0.3354 -0.4648 -1.3353
  634MOL0     H83657  11.238   7.786   0.492  0.6745 -1.0416  0.8088
  634MOL0     H83658  11.188   7.572   0.596 -0.0245  2.1795  1.9260
  634MOL0     H83659  11.356   7.543   0.628  1.3465 -1.6136 -1.9242
  634MOL0     H83660  11.272   7.611   0.340  2.1061  0.3978 -0.8953
  634MOL0     H83661  11.418   7.532   0.400 -0.5860  3.5157 -1.4379
  634MOL0     H83662  11.117   7.423   0.425 -0.1079  2.0753  0.3383
  634MOL0     H83663  11.264   7.341   0.480  1.7080  0.4198 -1.0565
  634MOL0     H83664  11.369   7.293   0.270  0.1237 -1.5832 -2.4959
  634MOL0     H83665  11.268   7.412   0.197  1.3357  1.4061  0.1194
  634MOL0     H83666  11.076   7.287   0.196 -0.5585 -1.5616 -2.5777
  634MOL0     H83667  11.218   7.194   0.148 -0.6545 -0.3042  1.0439
  634MOL0     H83668  11.088   7.045   0.287  0.1104  1.3125 -0.8912
  634MOL0     H83669  11.100   7.174   0.422  0.9616 -0.6652  0.3226
  634MOL0     H83670  11.119   7.904   0.896  1.3609 -3.1424 -2.2384
  634MOL0     H83671  11.072   7.969   1.124  0.0416 -0.8716  1.4315
  634MOL0     H83672  11.197   7.849   1.556 -1.1732 -1.1762  3.0979
  634MOL0     H83673  11.162   7.864   1.796  1.5489 -0.1598  0.9222
  634MOL0     H83674  10.491   8.084   3.357  3.3617 -0.9194  2.6709
  634MOL0     H83675  10.292   8.163   3.443  4.2252 -1.2226 -3.1346
  634MOL0     H83676   9.887   8.362   3.611 -2.3910 -0.6094 -2.5560
  634MOL0     H83677   9.665   8.360   3.730  1.6065  0.4244  5.7367
  634MOL0     H83678   9.419   8.192   3.985  0.0007  1.2461  1.9420
  634MOL0     H83679   9.430   8.323   3.868  0.3570  2.0572  0.6830
  634MOL0     H83680   9.665   8.289   4.061  1.9396  1.4428 -1.9106
  634MOL0     H83681   9.615   8.412   3.944 -0.2627 -2.0910 -1.3402
  634MOL0     H83682   9.414   8.358   4.165 -1.1794  1.7694  1.8898
  634MOL0     H83683   9.446   8.496   4.063  0.7271 -0.7024 -1.7758
  634MOL0     H83684   9.661   8.540   4.179  1.2232 -3.7936 -0.8501
  634MOL0     H83685   9.516   8.555   4.286 -1.9231 -0.7993  0.0213
  634MOL0     H83686   9.714   8.215   4.442 -0.3326  0.6009  0.8951
  634MOL0     H83687   9.710   7.950   3.857  1.5826 -0.5244  0.3595
  634MOL0     H83688   9.936   7.954   3.787 -0.2851 -0.7896 -1.3855
  635MOL0     O83689   6.766   3.754   4.871  0.8066  0.1189 -0.1239
  635MOL0     C83690   6.774   3.794   4.758 -0.5884 -0.3180 -0.4446
  635MOL0     O83691   6.888   3.797   4.680 -0.6563 -0.3210 -0.5998
  635MOL0     C83692   7.000   3.729   4.721 -0.6929 -0.6245 -0.2000
  635MOL0     C83693   7.117   3.805   4.729 -0.2294  0.3683 -0.1105
  635MOL0     C83694   7.227   3.730   4.781  0.2615 -0.0693 -0.5151
  635MOL0     C83695   7.226   3.592   4.808  0.7591  0.0838  0.5044
  635MOL0     O83696   7.335   3.513   4.837  0.0090  0.2093  0.0611
  635MOL0     C83697   7.461   3.548   4.785 -0.5507  0.9296  0.0824
  635MOL0     C83698   7.504   3.454   4.677 -0.6488  0.5499 -0.4763
  635MOL0     C83699   7.628   3.379   4.724 -0.5825 -0.0877 -0.5466
  635MOL0     C83700   7.764   3.456   4.734  0.8497 -0.4041 -0.9496
  635MOL0     C83701   7.794   3.522   4.592  0.5997  0.1543  0.2015
  635MOL0     C83702   7.927   3.602   4.602 -0.3723  0.2462  0.1025
  635MOL0     C83703   7.979   3.651   4.465  1.1104 -0.3730  0.1683
  635MOL0     C83704   8.121   3.724   4.483 -0.3555  0.3086  0.1878
  635MOL0     N83705   8.105   3.868   4.517  0.5407  0.0979  0.4320
  635MOL0     C83706   8.068   3.957   4.412 -0.5248  0.0601  0.3778
  635MOL0     C83707   8.045   4.077   4.477  0.1903 -0.8180  0.2961
  635MOL0     C83708   8.007   4.206   4.412  0.6962 -0.0684 -0.8653
  635MOL0     C83709   7.950   4.304   4.523  0.5049 -0.0613 -0.5443
  635MOL0     C83710   7.896   4.435   4.459  0.3540  0.3278  0.2855
  635MOL0     C83711   7.896   4.563   4.544  0.2160  0.3940 -0.4097
  635MOL0     O83712   7.813   4.551   4.661 -0.2947  0.7618 -0.5955
  635MOL0     C83713   7.693   4.612   4.653 -0.4024 -0.0334 -0.4885
  635MOL0     C83714   7.603   4.618   4.544  0.4377  0.1960 -0.5614
  635MOL0     C83715   7.476   4.670   4.551  0.6687  0.1667  0.0626
  635MOL0     C83716   7.414   4.685   4.679  0.6475 -0.2319 -0.1058
  635MOL0     C83717   7.275   4.727   4.696 -0.0284 -0.1723 -0.5909
  635MOL0     O83718   7.226   4.730   4.820  0.0621  0.0409  0.8029
  635MOL0     C83719   7.092   4.712   4.839 -1.1196  0.2615  0.2951
  635MOL0     C83720   7.016   4.621   4.771 -0.7615 -0.0306 -0.0413
  635MOL0     C83721   6.882   4.609   4.793 -0.3834 -0.6453 -0.8494
  635MOL0     C83722   6.827   4.673   4.897  0.5844 -0.2276  1.1704
  635MOL0     O83723   6.699   4.632   4.927 -0.3551 -0.7028 -0.2060
  635MOL0     C83724   6.622   4.699   5.027 -0.4959  0.0942 -0.2402
  635MOL0     C83725   6.486   4.633   5.039 -0.1794  0.6076  0.4959
  635MOL0     C83726   6.384   4.744   5.077 -0.4777  0.1230  0.6140
  635MOL0     C83727   6.246   4.682   5.087  0.4010 -0.0645  0.1807
  635MOL0     C83728   6.154   4.789   5.143 -0.8376 -0.5066 -0.6626
  635MOL0     C83729   6.015   4.733   5.182  0.2718  0.2443  0.5739
  635MOL0     C83730   5.931   4.853   5.244 -0.9276 -0.1120  0.2770
  635MOL0     C83731   5.824   4.794   5.333  0.2775  0.3971 -0.6207
  635MOL0    Cl83732   5.702   4.919   5.369  0.4748  0.1813  0.3752
  635MOL0     C83733   6.899   4.756   4.973  0.2136  0.8088  0.8475
  635MOL0     C83734   7.031   4.773   4.944 -0.7342 -0.2248  0.5004
  635MOL0     O83735   7.220   4.770   4.593 -0.1900  0.1913 -0.2474
  635MOL0     C83736   7.501   4.672   4.791  0.2991 -0.9607  0.5885
  635MOL0     C83737   7.633   4.633   4.775 -0.4101 -1.2118  0.2520
  635MOL0     N83738   8.052   4.058   4.613 -0.1194  0.0169 -0.0604
  635MOL0     N83739   8.078   3.930   4.635  0.0464  0.2137 -0.0221
  635MOL0     C83740   7.108   3.523   4.788  0.1092  0.8697 -0.0300
  635MOL0     C83741   6.991   3.598   4.755 -0.0728  1.7538 -0.4862
  635MOL0     C83742   6.650   3.844   4.685  0.5378 -0.2637  0.6612
  635MOL0     C83743   6.674   3.905   4.560  0.0029  0.1562  0.4281
  635MOL0     C83744   6.570   3.938   4.476  0.1837 -0.6356  0.5295
  635MOL0     C83745   6.439   3.912   4.514  1.0759  0.0860 -0.4491
  635MOL0     O83746   6.324   3.936   4.429 -0.4322 -0.0015 -0.4336
  635MOL0     C83747   6.303   4.075   4.413 -0.1822 -1.2089 -0.6481
  635MOL0     C83748   6.158   4.090   4.370  0.2728  0.6950 -1.1922
  635MOL0     C83749   6.147   4.070   4.223  0.3977  0.2060  0.0819
  635MOL0     C83750   6.029   4.151   4.167 -0.0454 -0.5520 -0.4918
  635MOL0     C83751   5.898   4.119   4.227 -0.2979 -0.4210 -0.7754
  635MOL0     C83752   5.795   4.100   4.288  0.4138 -0.3263  0.4669
  635MOL0     C83753   6.416   3.853   4.641  0.1821  0.2441 -0.3497
  635MOL0     C83754   6.523   3.812   4.725  0.9748 -0.3072 -0.9229
  635MOL0     H83755   7.114   3.906   4.688 -0.4016  0.2994 -0.2679
  635MOL0     H83756   7.316   3.788   4.806 -2.2772  3.7184  0.5977
  635MOL0     H83757   7.527   3.552   4.873  0.2616  0.2335 -0.4842
  635MOL0     H83758   7.463   3.645   4.734  1.5891 -0.7437 -3.3536
  635MOL0     H83759   7.526   3.505   4.583  3.1903  2.0187  1.0211
  635MOL0     H83760   7.425   3.385   4.643 -0.8324  0.5145  0.0032
  635MOL0     H83761   7.649   3.293   4.660 -0.2710 -2.4963  2.5084
  635MOL0     H83762   7.603   3.321   4.814  3.4728 -3.8092 -1.4511
  635MOL0     H83763   7.768   3.540   4.803  0.3755 -1.0930 -0.0566
  635MOL0     H83764   7.837   3.385   4.774  4.1499  1.5643 -3.0701
  635MOL0     H83765   7.720   3.594   4.555  0.4759 -1.3657 -2.8045
  635MOL0     H83766   7.796   3.436   4.525  0.5862  0.5762 -0.3415
  635MOL0     H83767   8.004   3.533   4.637  1.2268  2.3139  0.8532
  635MOL0     H83768   7.918   3.676   4.682  3.7713  0.6114  0.4592
  635MOL0     H83769   7.996   3.569   4.394 -3.3458  0.0881 -1.7906
  635MOL0     H83770   7.915   3.733   4.431  0.0127 -1.5315 -0.6827
  635MOL0     H83771   8.176   3.722   4.388  1.6006  0.8232  1.2603
  635MOL0     H83772   8.175   3.667   4.559 -3.4542 -3.1365  0.1009
  635MOL0     H83773   8.061   3.953   4.304  0.0234  0.7907  0.3083
  635MOL0     H83774   7.938   4.190   4.329 -0.5816  0.3610  0.0899
  635MOL0     H83775   8.098   4.249   4.367  1.6214 -2.6092 -1.5989
  635MOL0     H83776   8.029   4.323   4.597  1.5330 -1.0287 -1.3625
  635MOL0     H83777   7.855   4.268   4.564 -0.5549 -0.2959 -3.0185
  635MOL0     H83778   7.960   4.442   4.370  0.7569 -0.4198  0.5034
  635MOL0     H83779   7.795   4.422   4.419  0.2142 -1.7757  1.1640
  635MOL0     H83780   7.873   4.653   4.486 -0.2012  1.1667  0.9115
  635MOL0     H83781   8.000   4.572   4.579 -0.1208  3.8368  0.0624
  635MOL0     H83782   7.624   4.590   4.441 -0.1965 -0.4946 -0.5138
  635MOL0     H83783   7.422   4.692   4.459  1.1168  0.7728 -0.0564
  635MOL0     H83784   7.052   4.571   4.681 -1.0545  0.3130 -0.3514
  635MOL0     H83785   6.824   4.532   4.743  1.0661 -0.8873 -2.2219
  635MOL0     H83786   6.608   4.804   4.998 -1.1567  0.2455  0.5795
  635MOL0     H83787   6.676   4.684   5.121 -2.2560  0.5591  0.8921
  635MOL0     H83788   6.500   4.557   5.116  4.0511  2.1037  1.4640
  635MOL0     H83789   6.464   4.582   4.945 -0.5122  2.0199 -0.2271
  635MOL0     H83790   6.376   4.823   5.001  1.4688 -1.2887 -1.2002
  635MOL0     H83791   6.417   4.776   5.175 -0.5573  0.4690  0.5283
  635MOL0     H83792   6.215   4.652   4.987  3.5226 -1.2010 -0.5571
  635MOL0     H83793   6.251   4.594   5.151  0.7043 -0.3038 -0.1696
  635MOL0     H83794   6.143   4.866   5.066  2.4241  1.2762  0.4816
  635MOL0     H83795   6.198   4.848   5.224 -0.3551 -2.1238  0.2881
  635MOL0     H83796   6.030   4.656   5.258 -1.5584 -2.1573 -1.3506
  635MOL0     H83797   5.960   4.698   5.095 -0.2736  1.5718  0.3510
  635MOL0     H83798   5.999   4.920   5.296 -0.9527 -2.6484  3.9966
  635MOL0     H83799   5.883   4.903   5.160 -2.7449 -2.9910 -0.5358
  635MOL0     H83800   5.865   4.762   5.429  0.9736  1.2721 -0.6128
  635MOL0     H83801   5.784   4.707   5.281  0.2594 -0.2023  0.3626
  635MOL0     H83802   6.859   4.802   5.063  1.4602 -0.1156  1.9136
  635MOL0     H83803   7.099   4.839   4.997  0.4915 -0.8208 -0.2773
  635MOL0     H83804   7.460   4.699   4.888  1.4024  3.2752  0.0724
  635MOL0     H83805   7.697   4.620   4.862 -0.1690 -1.2464  0.0710
  635MOL0     H83806   7.093   3.421   4.823  1.2277  1.1343  1.2982
  635MOL0     H83807   6.893   3.551   4.755  1.2786 -1.4064  1.0169
  635MOL0     H83808   6.773   3.940   4.531 -0.8342  1.9302 -0.4163
  635MOL0     H83809   6.591   3.986   4.381  0.4416  2.6108  2.1203
  635MOL0     H83810   6.372   4.127   4.345 -0.0226  1.5639  1.4363
  635MOL0     H83811   6.315   4.134   4.505  3.4959 -1.3358 -0.8965
  635MOL0     H83812   6.090   4.023   4.422  1.0948  0.3697 -0.5145
  635MOL0     H83813   6.123   4.189   4.398 -2.6732 -0.9134  1.4455
  635MOL0     H83814   6.128   3.966   4.198  1.6363  0.5012 -2.3603
  635MOL0     H83815   6.233   4.112   4.171  0.9204 -1.0617 -0.1051
  635MOL0     H83816   6.057   4.255   4.186  2.4598 -0.9682 -1.5036
  635MOL0     H83817   6.021   4.150   4.058  2.6015  1.1841 -0.8118
  635MOL0     H83818   5.701   4.093   4.340  0.1663  2.0006  0.4363
  635MOL0     H83819   6.321   3.833   4.689  1.3154 -3.3578  0.7330
  635MOL0     H83820   6.496   3.768   4.820  1.7509 -3.7376 -2.1334
  636MOL0     O83821   5.505   9.732   0.676  0.1989  0.2666  0.0904
  636MOL0     C83822   5.537   9.632   0.615 -0.7755  0.1231 -0.6206
  636MOL0     O83823   5.656   9.565   0.632 -0.2307  0.2694 -1.1004
  636MOL0     C83824   5.766   9.629   0.689 -0.1087  0.4319  0.3020
  636MOL0     C83825   5.879   9.625   0.613 -0.0476  0.2554  0.2823
  636MOL0     C83826   5.997   9.677   0.657  0.3025  0.7555 -0.8597
  636MOL0     C83827   6.006   9.734   0.793  0.2618 -0.0300  0.5998
  636MOL0     O83828   6.119   9.769   0.864 -0.1596  0.0674  0.3090
  636MOL0     C83829   6.246   9.748   0.793  0.2731 -0.1095 -0.0759
  636MOL0     C83830   6.286   9.878   0.732 -1.2445 -0.2683 -0.3469
  636MOL0     C83831   6.414   9.869   0.650 -0.4165 -0.0177 -0.2523
  636MOL0     C83832   6.458  10.009   0.602 -0.2960 -0.8666  0.7835
  636MOL0     C83833   6.563  10.080   0.690 -0.0606  0.5124  0.2718
  636MOL0     C83834   6.550  10.073   0.839  0.6259  0.3044 -0.0752
  636MOL0     C83835   6.634  10.177   0.917  0.3297  1.0070 -0.5325
  636MOL0     C83836   6.543  10.253   1.015  0.3594 -0.6723  0.2239
  636MOL0     N83837   6.615  10.334   1.116 -0.4944 -0.2273  0.2710
  636MOL0     C83838   6.678  10.278   1.220 -0.8605 -1.0020 -0.7391
  636MOL0     C83839   6.751  10.374   1.280 -0.2948 -0.8785 -0.1274
  636MOL0     C83840   6.846  10.367   1.395  1.6488 -0.1483 -0.6342
  636MOL0     C83841   6.787  10.416   1.527 -0.7743  0.3192 -0.6594
  636MOL0     C83842   6.802  10.558   1.553  0.5785  0.2802 -0.1999
  636MOL0     C83843   6.749  10.596   1.700 -0.1984  0.2749  0.7943
  636MOL0     O83844   6.822  10.521   1.796 -0.7319 -0.3137  0.0877
  636MOL0     C83845   6.812  10.552   1.929  0.7216 -0.4617  0.2984
  636MOL0     C83846   6.728  10.650   1.968  0.0951 -1.1436 -0.1866
  636MOL0     C83847   6.726  10.678   2.110 -0.5177 -0.6948 -0.8538
  636MOL0     C83848   6.814  10.611   2.201  0.4923  0.9399  0.0451
  636MOL0     C83849   6.817  10.640   2.348 -0.0419 -0.6871 -0.8434
  636MOL0     O83850   6.910  10.575   2.413  0.1220  0.0983  0.0035
  636MOL0     C83851   6.929  10.588   2.555  0.1054  0.2343 -1.5070
  636MOL0     C83852   6.901  10.699   2.643  0.5204 -0.7412  0.9923
  636MOL0     C83853   6.940  10.708   2.771 -0.1528 -0.6816 -0.1299
  636MOL0     C83854   7.016  10.605   2.828 -1.9208  0.3517  1.0241
  636MOL0     O83855   7.057  10.609   2.960 -0.2858  0.2237  0.0678
  636MOL0     C83856   7.033  10.728   3.037 -0.1572  0.2449  1.2180
  636MOL0     C83857   7.080  10.707   3.175  0.7576  0.2552 -0.7130
  636MOL0     C83858   7.225  10.662   3.180  0.0287  0.2176  0.6661
  636MOL0     C83859   7.265  10.685   3.325  0.2305 -0.8385  0.7943
  636MOL0     C83860   7.403  10.620   3.347 -0.9716 -0.9213 -0.3558
  636MOL0     C83861   7.469  10.655   3.481 -0.4218  0.7028  0.4854
  636MOL0     C83862   7.612  10.595   3.492  0.0544  0.4348 -0.3790
  636MOL0     C83863   7.671  10.646   3.624 -0.7603 -0.3481  0.0137
  636MOL0    Cl83864   7.838  10.576   3.615 -0.0390  0.1074 -0.1936
  636MOL0     C83865   7.060  10.497   2.744 -0.1164 -0.2290 -0.8922
  636MOL0     C83866   7.000  10.482   2.618 -0.6422  0.0455 -0.4544
  636MOL0     O83867   6.739  10.723   2.400  0.5300 -0.3001  0.6418
  636MOL0     C83868   6.887  10.496   2.147 -0.9221 -0.2024 -0.6589
  636MOL0     C83869   6.883  10.461   2.013  0.0618  0.5053 -0.2067
  636MOL0     N83870   6.725  10.492   1.210  0.0439  0.6979 -0.2365
  636MOL0     N83871   6.647  10.470   1.103  0.1630 -0.3058 -0.2521
  636MOL0     C83872   5.880   9.747   0.860  0.4516 -0.5446 -0.5253
  636MOL0     C83873   5.765   9.688   0.811  0.0229 -0.6238  0.6029
  636MOL0     C83874   5.456   9.571   0.509  0.3222 -0.1362 -0.5763
  636MOL0     C83875   5.328   9.624   0.459  0.6352  1.0922 -0.8449
  636MOL0     C83876   5.268   9.573   0.347 -0.7105  1.2531 -0.7602
  636MOL0     C83877   5.324   9.472   0.273 -0.0916  1.0134  0.6217
  636MOL0     O83878   5.272   9.426   0.154  0.3081 -0.3657  0.1227
  636MOL0     C83879   5.156   9.493   0.095  0.4489  0.8694 -0.3577
  636MOL0     C83880   5.147   9.423  -0.043 -0.6259 -0.7005  0.1516
  636MOL0     C83881   5.025   9.455  -0.123  0.7765  0.2499  0.0465
  636MOL0     C83882   5.016   9.376  -0.249  0.0336  0.3385 -1.0030
  636MOL0     C83883   4.997   9.230  -0.224 -0.2754  0.2080 -0.6256
  636MOL0     C83884   4.980   9.112  -0.200  0.1098 -0.4309 -0.9804
  636MOL0     C83885   5.448   9.420   0.322 -0.4042  0.1053 -0.5086
  636MOL0     C83886   5.513   9.461   0.439  0.9203  0.0905  0.0174
  636MOL0     H83887   5.882   9.566   0.522  0.1847  0.7225 -0.0202
  636MOL0     H83888   6.087   9.677   0.595  3.8134  0.0860  3.7257
  636MOL0     H83889   6.246   9.671   0.715  2.8370 -1.1332  0.8414
  636MOL0     H83890   6.315   9.727   0.875 -1.0540  1.8553  1.6270
  636MOL0     H83891   6.288   9.963   0.801  0.1119 -0.0854 -0.5795
  636MOL0     H83892   6.211   9.903   0.657  0.8916  2.4841 -1.7569
  636MOL0     H83893   6.405   9.800   0.565  1.2518  1.4868 -1.7381
  636MOL0     H83894   6.487   9.831   0.722 -4.1126 -4.0677  1.7958
  636MOL0     H83895   6.501  10.004   0.502 -0.4130 -0.4495  0.7076
  636MOL0     H83896   6.367  10.067   0.582 -0.7022 -1.1871  1.6213
  636MOL0     H83897   6.565  10.182   0.650 -1.1028 -0.0414 -1.2794
  636MOL0     H83898   6.660  10.040   0.659  2.4002  1.7162  5.2794
  636MOL0     H83899   6.587   9.978   0.879 -2.3907 -0.4314  1.2779
  636MOL0     H83900   6.444  10.090   0.858 -0.3050 -0.6180 -3.6176
  636MOL0     H83901   6.707  10.132   0.985 -0.3266 -0.5079 -0.7926
  636MOL0     H83902   6.686  10.241   0.844 -0.7210  0.3874 -1.8735
  636MOL0     H83903   6.470  10.187   1.063 -2.3314  1.7641 -0.2252
  636MOL0     H83904   6.477  10.318   0.956 -4.9179 -4.3334  1.2868
  636MOL0     H83905   6.677  10.173   1.249 -0.1012 -0.3952  1.7739
  636MOL0     H83906   6.939  10.421   1.376  0.9325  1.3373 -0.0796
  636MOL0     H83907   6.885  10.266   1.407  0.6823 -0.6432 -1.4367
  636MOL0     H83908   6.828  10.365   1.615 -4.0122  3.6750  3.2244
  636MOL0     H83909   6.683  10.383   1.527 -0.9205  0.6778  1.2262
  636MOL0     H83910   6.906  10.589   1.534  0.8524  0.5595  1.6385
  636MOL0     H83911   6.737  10.612   1.483 -3.1383 -1.0332  2.0255
  636MOL0     H83912   6.642  10.572   1.697 -0.5634  1.8940 -0.5318
  636MOL0     H83913   6.755  10.704   1.720  0.1240 -0.0283  2.5090
  636MOL0     H83914   6.663  10.706   1.902  0.1825 -1.8945 -0.9211
  636MOL0     H83915   6.659  10.754   2.150 -0.4026 -1.1516  0.2247
  636MOL0     H83916   6.841  10.783   2.608  3.2512  0.9117 -0.0423
  636MOL0     H83917   6.904  10.794   2.825 -0.2091  0.3167 -1.7074
  636MOL0     H83918   6.924  10.734   3.030 -0.3871 -3.4689 -2.0939
  636MOL0     H83919   7.077  10.817   2.990 -4.6064  3.0249  1.7070
  636MOL0     H83920   7.009  10.634   3.214  0.2013  0.2546 -1.6826
  636MOL0     H83921   7.073  10.800   3.233  1.5348 -0.6158  0.8317
  636MOL0     H83922   7.287  10.729   3.120  0.8267 -0.3214  0.8799
  636MOL0     H83923   7.246  10.557   3.162  3.8780  1.1858 -1.6128
  636MOL0     H83924   7.273  10.792   3.350  0.7337 -0.4517 -0.9010
  636MOL0     H83925   7.201  10.634   3.397  3.0888 -1.0528  3.4442
  636MOL0     H83926   7.470  10.659   3.271 -0.3178  2.1459  1.6155
  636MOL0     H83927   7.394  10.512   3.336 -1.3081 -1.3755  3.0989
  636MOL0     H83928   7.403  10.618   3.560  0.4637 -0.0215  0.9080
  636MOL0     H83929   7.479  10.763   3.486 -0.2984  0.7805 -1.0287
  636MOL0     H83930   7.611  10.486   3.483  0.2917  0.3741  0.2976
  636MOL0     H83931   7.677  10.638   3.415 -1.7481  1.3641 -1.4573
  636MOL0     H83932   7.616  10.611   3.712 -0.4567 -3.3262 -0.8702
  636MOL0     H83933   7.688  10.754   3.621  2.0664 -0.7370 -1.4088
  636MOL0     H83934   7.121  10.419   2.789  0.0382  0.0122 -0.6856
  636MOL0     H83935   7.036  10.393   2.568 -0.5745 -0.6340  0.7450
  636MOL0     H83936   6.957  10.439   2.208 -1.8489  0.4844  1.0922
  636MOL0     H83937   6.923  10.369   1.972 -0.6676  1.3975 -3.1312
  636MOL0     H83938   5.857   9.786   0.959 -1.0499  0.7216 -1.3390
  636MOL0     H83939   5.674   9.680   0.869  0.3651 -3.9508  0.8839
  636MOL0     H83940   5.281   9.711   0.504 -2.7171  1.6145 -4.7469
  636MOL0     H83941   5.176   9.624   0.319 -1.8471  2.2255  3.8554
  636MOL0     H83942   5.169   9.602   0.092 -0.8217  1.0326 -0.5630
  636MOL0     H83943   5.066   9.465   0.151  0.2301 -1.2957 -1.6764
  636MOL0     H83944   5.238   9.462  -0.090 -0.6934  1.1200  1.4190
  636MOL0     H83945   5.163   9.316  -0.031 -0.7362 -0.6551  0.7391
  636MOL0     H83946   5.030   9.557  -0.161 -1.1541 -0.3547 -2.0085
  636MOL0     H83947   4.938   9.434  -0.061  1.0970 -1.9266 -0.1609
  636MOL0     H83948   4.938   9.406  -0.320  1.0475  3.1692 -1.0728
  636MOL0     H83949   5.112   9.392  -0.298  0.6310 -1.9385 -0.6422
  636MOL0     H83950   4.971   9.010  -0.166  0.9174 -0.6701 -1.4568
  636MOL0     H83951   5.495   9.330   0.282 -0.3913  0.4787 -1.3624
  636MOL0     H83952   5.611   9.422   0.467  1.4204  2.2562  1.5670
  637MOL0     O83953   9.516   5.936   4.696 -0.1859 -0.1612 -0.4246
  637MOL0     C83954   9.411   5.908   4.755 -0.2948 -0.0379  0.2961
  637MOL0     O83955   9.377   5.779   4.784 -0.7530  0.5497  0.7894
  637MOL0     C83956   9.471   5.684   4.755  0.4991  0.5875 -0.1336
  637MOL0     C83957   9.517   5.650   4.629  0.0833 -0.0435 -0.3799
  637MOL0     C83958   9.612   5.547   4.618 -0.5206 -0.1222  0.6972
  637MOL0     C83959   9.671   5.479   4.734  0.1052 -0.8130  0.4700
  637MOL0     O83960   9.767   5.383   4.733 -0.3643 -0.4237  0.0790
  637MOL0     C83961   9.828   5.371   4.603  1.0938  0.2373 -0.7034
  637MOL0     C83962   9.924   5.247   4.620  0.5495  0.2278  0.6264
  637MOL0     C83963   9.849   5.111   4.612  1.2869 -0.3754 -0.9012
  637MOL0     C83964   9.770   5.084   4.480 -0.1636  0.4379 -0.0282
  637MOL0     C83965   9.680   4.952   4.488 -0.6574 -0.4419  0.2792
  637MOL0     C83966   9.603   4.936   4.357  0.4974  0.3593  0.9418
  637MOL0     C83967   9.499   4.814   4.364  0.2013 -0.1051  0.3514
  637MOL0     C83968   9.525   4.708   4.261  0.3087 -0.2716 -0.5556
  637MOL0     N83969   9.440   4.580   4.290 -0.9875 -0.3448  0.5305
  637MOL0     C83970   9.335   4.569   4.384 -0.7272 -1.0688 -0.1393
  637MOL0     C83971   9.293   4.442   4.368  0.2748  0.7779  1.0734
  637MOL0     C83972   9.189   4.360   4.448 -0.0226 -0.2825  0.0651
  637MOL0     C83973   9.071   4.447   4.493  0.2179 -0.2787 -0.5458
  637MOL0     C83974   8.965   4.469   4.385  0.7476  0.1162 -0.1872
  637MOL0     C83975   9.012   4.522   4.246 -0.5275  0.8067 -0.3662
  637MOL0     O83976   9.080   4.647   4.247 -0.3488  0.4033 -0.2735
  637MOL0     C83977   9.021   4.768   4.290 -0.0675  0.3696  0.1747
  637MOL0     C83978   9.101   4.884   4.276 -0.3449 -0.1733 -0.4440
  637MOL0     C83979   9.050   5.013   4.307 -0.5988  0.1831  0.6654
  637MOL0     C83980   8.916   5.038   4.339 -1.4816 -0.4575  0.4823
  637MOL0     C83981   8.866   5.175   4.351  0.1762  0.8537 -0.5145
  637MOL0     O83982   8.954   5.276   4.329 -0.0038 -0.0896  0.5063
  637MOL0     C83983   8.915   5.400   4.380 -1.0924  0.1297 -0.5226
  637MOL0     C83984   8.905   5.506   4.294 -0.2512 -0.6007 -0.5037
  637MOL0     C83985   8.882   5.641   4.349  0.1805  0.4515  0.3853
  637MOL0     C83986   8.888   5.663   4.485  0.0996 -0.7394  0.3639
  637MOL0     O83987   8.886   5.782   4.555 -0.5052 -0.4488 -0.1628
  637MOL0     C83988   8.866   5.903   4.479 -0.1248 -0.0613 -0.3604
  637MOL0     C83989   8.996   5.956   4.416  1.2203  0.0175  0.9743
  637MOL0     C83990   8.996   6.113   4.400 -0.0303  0.1781  0.4366
  637MOL0     C83991   9.037   6.196   4.532  0.6068  0.2461  0.2836
  637MOL0     C83992   9.033   6.347   4.517 -0.2190 -0.1430 -0.0601
  637MOL0     C83993   9.022   6.418   4.655 -0.1125  1.1920  0.0355
  637MOL0     C83994   9.070   6.562   4.666 -0.1890 -0.0735 -0.1329
  637MOL0     C83995   9.078   6.626   4.804  0.1213 -0.0270 -1.1431
  637MOL0    Cl83996   9.120   6.791   4.776  0.0181 -0.2321  0.3346
  637MOL0     C83997   8.895   5.557   4.569  0.0199  0.9701 -0.5538
  637MOL0     C83998   8.919   5.431   4.518  0.2945 -0.4174  0.4221
  637MOL0     O83999   8.748   5.187   4.395  0.6055  0.5378  0.2978
  637MOL0     C84000   8.831   4.929   4.339 -0.0727  0.5278 -0.3593
  637MOL0     C84001   8.882   4.798   4.313 -0.0240 -0.0013  0.5828
  637MOL0     N84002   9.375   4.382   4.267  0.0191 -1.0134 -0.8230
  637MOL0     N84003   9.460   4.468   4.223 -0.5209  1.1766  0.2680
  637MOL0     C84004   9.606   5.504   4.857  1.0635  0.2753 -0.1388
  637MOL0     C84005   9.516   5.608   4.869  0.3052 -0.4069  0.0844
  637MOL0     C84006   9.326   6.017   4.810  0.0681 -0.1686 -0.6957
  637MOL0     C84007   9.340   6.148   4.768 -0.2924  1.0784 -0.4844
  637MOL0     C84008   9.278   6.254   4.824  0.1456 -0.0894  0.4118
  637MOL0     C84009   9.182   6.236   4.929 -1.1223  0.7559 -0.4063
  637MOL0     O84010   9.125   6.334   4.986  0.1202 -0.6416  0.6602
  637MOL0     C84011   9.168   6.345   5.124  0.3858  0.5896  0.0945
  637MOL0     C84012   9.160   6.497   5.153 -0.0038  0.2055 -0.8158
  637MOL0     C84013   9.183   6.533   5.309 -0.3866  0.2084 -0.8005
  637MOL0     C84014   9.190   6.671   5.354  0.3749 -0.4549 -0.3824
  637MOL0     C84015   9.170   6.783   5.254  0.6157  0.1690  0.1560
  637MOL0     C84016   9.158   6.865   5.169  0.2887 -0.3548  0.1080
  637MOL0     C84017   9.151   6.096   4.959  0.4978 -0.5663 -0.9236
  637MOL0     C84018   9.231   5.994   4.908  1.1068 -0.1078  0.7977
  637MOL0     H84019   9.482   5.717   4.551 -1.9433  0.7233  1.1168
  637MOL0     H84020   9.636   5.516   4.517  1.4683  0.9491  0.7957
  637MOL0     H84021   9.874   5.466   4.575 -0.1961  1.2670  0.5324
  637MOL0     H84022   9.762   5.349   4.518  0.6736 -2.7218  0.2792
  637MOL0     H84023   9.979   5.263   4.713  3.9924  0.2987 -1.2785
  637MOL0     H84024   9.995   5.254   4.537  0.3666 -1.6715  0.2472
  637MOL0     H84025   9.773   5.109   4.690  2.7795  0.2217  0.6292
  637MOL0     H84026   9.916   5.028   4.638  1.4579  1.2334  5.2385
  637MOL0     H84027   9.706   5.168   4.451 -1.4659 -0.2928  0.6135
  637MOL0     H84028   9.839   5.059   4.399 -0.9828 -1.0264 -0.3086
  637MOL0     H84029   9.615   4.962   4.575 -1.0164  1.2439 -0.1478
  637MOL0     H84030   9.745   4.869   4.517  0.7985  0.9687  1.2568
  637MOL0     H84031   9.676   4.915   4.279  1.0313 -1.6235  1.8897
  637MOL0     H84032   9.557   5.035   4.350  2.9960  1.5074 -0.4568
  637MOL0     H84033   9.506   4.766   4.462  1.7435  1.0012  0.8199
  637MOL0     H84034   9.400   4.859   4.347 -0.8393 -0.9204  3.5411
  637MOL0     H84035   9.631   4.680   4.259  0.7854  0.8312  2.6392
  637MOL0     H84036   9.489   4.742   4.163 -1.9223  2.0206  0.9282
  637MOL0     H84037   9.300   4.635   4.463  1.1159  0.8752 -0.8291
  637MOL0     H84038   9.239   4.318   4.536 -1.7863  0.4358  1.4538
  637MOL0     H84039   9.146   4.278   4.389 -5.0798  2.0815 -0.0229
  637MOL0     H84040   9.114   4.539   4.535 -1.9251  0.0141  1.1824
  637MOL0     H84041   9.022   4.392   4.573 -0.1179 -0.1064 -0.6324
  637MOL0     H84042   8.922   4.370   4.371  0.2659  0.5712 -2.1265
  637MOL0     H84043   8.880   4.528   4.420  0.2890 -2.3067  3.3436
  637MOL0     H84044   8.925   4.552   4.187 -0.8932  2.2212  0.8393
  637MOL0     H84045   9.072   4.446   4.195  1.7808  4.6797 -3.9972
  637MOL0     H84046   9.206   4.870   4.254 -0.1965  0.3061 -0.0520
  637MOL0     H84047   9.120   5.097   4.302 -4.1077  3.2931 -2.3108
  637MOL0     H84048   8.912   5.486   4.187  1.9493  0.2630 -0.5714
  637MOL0     H84049   8.864   5.719   4.276 -2.3405 -1.0015 -0.7196
  637MOL0     H84050   8.815   5.984   4.532  1.6995  2.1436 -1.7952
  637MOL0     H84051   8.801   5.874   4.396  1.0483 -1.0437 -0.9626
  637MOL0     H84052   9.001   5.905   4.320 -0.9773 -2.1625  1.9232
  637MOL0     H84053   9.084   5.928   4.475  1.5726  0.5913  0.7291
  637MOL0     H84054   8.896   6.133   4.361  0.1049 -0.9491 -0.5358
  637MOL0     H84055   9.061   6.140   4.316 -3.8511 -1.8383 -3.5556
  637MOL0     H84056   8.971   6.157   4.610  1.3427 -1.4507  0.1075
  637MOL0     H84057   9.139   6.166   4.558  1.0090  0.5442 -0.8954
  637MOL0     H84058   8.942   6.363   4.458 -0.9339 -2.6286  0.2724
  637MOL0     H84059   9.114   6.384   4.454  0.5116 -1.1230  0.2761
  637MOL0     H84060   9.074   6.355   4.728  1.4185  0.9401 -1.2063
  637MOL0     H84061   8.916   6.425   4.677  0.2637 -1.5713  3.6111
  637MOL0     H84062   9.167   6.572   4.616 -0.2978  1.9323  0.0004
  637MOL0     H84063   9.002   6.625   4.607 -3.3697 -1.3623  1.8870
  637MOL0     H84064   9.154   6.581   4.868 -0.6120  0.7577  0.3402
  637MOL0     H84065   8.987   6.627   4.865 -0.5690  1.8031 -2.1345
  637MOL0     H84066   8.901   5.566   4.677  1.6957  2.1771 -0.7047
  637MOL0     H84067   8.952   5.353   4.586  0.6222  0.3912  1.2150
  637MOL0     H84068   8.730   4.947   4.376 -0.5325 -0.1014 -1.2876
  637MOL0     H84069   8.811   4.716   4.308  2.7327 -2.7449  2.9204
  637MOL0     H84070   9.632   5.455   4.950  1.6210 -0.0152 -0.4448
  637MOL0     H84071   9.481   5.650   4.963 -2.8090  0.6578 -1.4332
  637MOL0     H84072   9.414   6.172   4.693 -1.9121  1.3217 -2.0812
  637MOL0     H84073   9.301   6.354   4.791 -0.5751 -0.7615 -2.3777
  637MOL0     H84074   9.269   6.306   5.134  1.7177  2.7148 -3.2914
  637MOL0     H84075   9.105   6.303   5.202  1.8345 -1.6627  0.1485
  637MOL0     H84076   9.237   6.552   5.097 -0.8703 -1.4535 -3.8738
  637MOL0     H84077   9.058   6.525   5.124 -0.2847 -0.2441 -0.2817
  637MOL0     H84078   9.247   6.462   5.362 -1.8343  0.7826  1.9445
  637MOL0     H84079   9.091   6.497   5.356  2.0583 -1.0288  3.7287
  637MOL0     H84080   9.122   6.694   5.437  0.4770  1.3709 -0.7580
  637MOL0     H84081   9.291   6.676   5.395  1.1845  0.2182 -2.3317
  637MOL0     H84082   9.146   6.943   5.097  0.1908 -1.3199 -0.9481
  637MOL0     H84083   9.079   6.073   5.037  1.3326  0.9834  0.3612
  637MOL0     H84084   9.218   5.892   4.943  0.2694 -0.0217  0.7583
  638MOL0     O84085   5.708   0.779   3.318  0.0032  0.4386  0.8887
  638MOL0     C84086   5.595   0.726   3.290 -0.0839  0.0294  0.2497
  638MOL0     O84087   5.537   0.715   3.170  1.2749  0.0967  0.1810
  638MOL0     C84088   5.609   0.718   3.051  0.0091 -0.9549 -0.5379
  638MOL0     C84089   5.704   0.819   3.020  0.0422 -0.6132 -0.0837
  638MOL0     C84090   5.775   0.816   2.899 -0.0601  0.3413  0.3319
  638MOL0     C84091   5.744   0.728   2.796 -0.1963 -0.1593 -0.4341
  638MOL0     O84092   5.803   0.757   2.673  0.0668 -0.3417  0.0969
  638MOL0     C84093   5.751   0.674   2.560 -0.6448  0.1669  0.0277
  638MOL0     C84094   5.821   0.724   2.439  0.2876 -0.6692  0.2941
  638MOL0     C84095   5.784   0.660   2.301 -0.4500  1.4813  0.0022
  638MOL0     C84096   5.827   0.731   2.179 -0.0025 -0.1986  0.6020
  638MOL0     C84097   5.741   0.684   2.063 -0.2068  0.3079  0.4449
  638MOL0     C84098   5.788   0.750   1.921 -0.4250  0.0663  0.0836
  638MOL0     C84099   5.688   0.741   1.816  0.0679  1.4946  0.5361
  638MOL0     C84100   5.735   0.808   1.684  0.1276  0.6128  0.2585
  638MOL0     N84101   5.646   0.782   1.573  0.0726  0.2067  0.1341
  638MOL0     C84102   5.651   0.662   1.500  0.8064 -0.1527 -0.1786
  638MOL0     C84103   5.544   0.674   1.430  0.6197  0.1584  0.6772
  638MOL0     C84104   5.493   0.577   1.333 -0.3852  0.1797  0.8494
  638MOL0     C84105   5.449   0.448   1.409 -0.5227  0.1693  0.8310
  638MOL0     C84106   5.402   0.343   1.316  0.1548 -0.1113 -0.0654
  638MOL0     C84107   5.251   0.349   1.280  0.6659 -0.8768 -0.2652
  638MOL0     O84108   5.164   0.306   1.386 -0.3400  0.3234  0.3859
  638MOL0     C84109   5.029   0.339   1.372 -0.5730 -1.1144  0.0719
  638MOL0     C84110   4.952   0.341   1.253 -0.6069 -0.6732  0.4212
  638MOL0     C84111   4.828   0.398   1.254 -0.0308 -0.4690  0.0258
  638MOL0     C84112   4.776   0.479   1.362 -0.3305 -0.7103  0.7323
  638MOL0     C84113   4.660   0.561   1.341 -0.4370 -0.0697  0.3039
  638MOL0     O84114   4.653   0.684   1.411 -0.7688  0.0142  0.1194
  638MOL0     C84115   4.568   0.781   1.363  0.1740  0.5541  0.0961
  638MOL0     C84116   4.567   0.814   1.229  0.1926 -0.6590  0.1056
  638MOL0     C84117   4.473   0.902   1.173  0.1306  0.5919 -0.3433
  638MOL0     C84118   4.396   0.974   1.266  0.4629 -0.8611 -0.8101
  638MOL0     O84119   4.298   1.072   1.237 -0.3339  0.9000 -0.3788
  638MOL0     C84120   4.350   1.191   1.162 -0.1728  0.2914 -0.7130
  638MOL0     C84121   4.247   1.306   1.180 -0.8494 -0.7533 -0.3884
  638MOL0     C84122   4.319   1.441   1.140 -0.3605 -1.2412 -0.3352
  638MOL0     C84123   4.212   1.542   1.105  0.3132  0.1937  0.5664
  638MOL0     C84124   4.287   1.679   1.077 -0.0051 -0.6141 -0.5635
  638MOL0     C84125   4.201   1.767   0.980  0.0513  0.1869 -0.0703
  638MOL0     C84126   4.263   1.908   0.974  0.1699  0.2151  0.4059
  638MOL0     C84127   4.183   2.005   0.890 -0.8923 -0.4225  0.4222
  638MOL0    Cl84128   4.208   1.957   0.727  0.3616  0.2590 -0.4286
  638MOL0     C84129   4.398   0.946   1.402 -0.5016 -0.3435  0.1217
  638MOL0     C84130   4.482   0.850   1.452  0.1755  0.3671  0.2790
  638MOL0     O84131   4.583   0.529   1.247 -0.0492 -0.4436  0.0991
  638MOL0     C84132   4.852   0.469   1.482 -0.4243  0.3082 -0.3235
  638MOL0     C84133   4.972   0.396   1.492  0.4613 -0.3397 -0.3137
  638MOL0     N84134   5.478   0.790   1.451 -0.5849  0.1857  0.6546
  638MOL0     N84135   5.545   0.860   1.537  0.3054  0.2936  1.0225
  638MOL0     C84136   5.639   0.635   2.829  0.5529  0.1745  0.0727
  638MOL0     C84137   5.567   0.632   2.949  0.1197 -1.4998 -0.7233
  638MOL0     C84138   5.525   0.663   3.407 -0.8068  0.0627  0.5974
  638MOL0     C84139   5.550   0.712   3.535  0.3547  0.3040  0.5241
  638MOL0     C84140   5.493   0.653   3.651  0.6863  0.7358 -0.3398
  638MOL0     C84141   5.397   0.552   3.637 -0.0814  0.9435 -0.3774
  638MOL0     O84142   5.333   0.498   3.747 -0.5278  0.1119  1.0704
  638MOL0     C84143   5.377   0.529   3.876 -0.0665 -0.4962 -0.5907
  638MOL0     C84144   5.296   0.459   3.990  0.0598 -0.2730  0.8939
  638MOL0     C84145   5.148   0.496   3.983 -0.3875  0.3758 -0.4844
  638MOL0     C84146   5.072   0.454   4.110  0.6632 -0.2582  1.0292
  638MOL0     C84147   4.930   0.455   4.075  0.4635  0.2903 -0.5301
  638MOL0     C84148   4.807   0.455   4.059 -0.8446  0.2750 -0.4683
  638MOL0     C84149   5.355   0.511   3.514 -0.6453  0.2867  0.9021
  638MOL0     C84150   5.426   0.562   3.401  0.0505 -0.4450  0.0423
  638MOL0     H84151   5.728   0.890   3.099 -3.3554  2.4551 -1.5098
  638MOL0     H84152   5.863   0.878   2.886  1.2755 -1.3820  0.7603
  638MOL0     H84153   5.643   0.665   2.548 -0.7426 -0.8137  1.4854
  638MOL0     H84154   5.787   0.573   2.579 -0.8132  0.5360  2.5376
  638MOL0     H84155   5.929   0.719   2.448  0.6850  1.1830 -2.2906
  638MOL0     H84156   5.791   0.829   2.428 -0.0591 -1.0638 -5.2333
  638MOL0     H84157   5.675   0.646   2.301 -0.3017  0.2680 -0.9744
  638MOL0     H84158   5.830   0.562   2.291 -4.1592 -0.3616 -0.5577
  638MOL0     H84159   5.822   0.840   2.181  3.0107  0.0224  0.8935
  638MOL0     H84160   5.933   0.712   2.159  0.2162  1.5813 -0.0742
  638MOL0     H84161   5.643   0.725   2.088 -0.1790  0.6483  0.0246
  638MOL0     H84162   5.729   0.575   2.063 -1.5526  0.4390  0.5302
  638MOL0     H84163   5.878   0.701   1.885 -0.9206  1.2512 -3.0585
  638MOL0     H84164   5.812   0.856   1.931 -1.8922  0.7800 -2.8957
  638MOL0     H84165   5.665   0.636   1.796  2.5736  1.3302 -2.0764
  638MOL0     H84166   5.600   0.797   1.849  1.1730  3.5574  0.1126
  638MOL0     H84167   5.839   0.788   1.659 -0.5306 -3.0306 -0.1138
  638MOL0     H84168   5.728   0.914   1.712 -0.5010  0.6333  0.0397
  638MOL0     H84169   5.725   0.585   1.480  0.7246 -0.2125 -0.2535
  638MOL0     H84170   5.578   0.559   1.267 -0.9349 -0.6200  0.3543
  638MOL0     H84171   5.404   0.619   1.285  1.5526  3.1211 -0.4297
  638MOL0     H84172   5.375   0.473   1.486 -0.3513  1.0446  0.7219
  638MOL0     H84173   5.536   0.404   1.458  0.0704 -0.4209 -0.7049
  638MOL0     H84174   5.462   0.350   1.225  1.7520  0.7220  1.0184
  638MOL0     H84175   5.429   0.249   1.365  2.2333  1.0889  1.2144
  638MOL0     H84176   5.235   0.301   1.183 -2.6571 -2.3257  0.8470
  638MOL0     H84177   5.226   0.454   1.263  2.4612 -0.7285 -2.3705
  638MOL0     H84178   4.995   0.285   1.169  1.3791  1.3143  0.0105
  638MOL0     H84179   4.776   0.393   1.159 -2.5892 -1.6504  1.3813
  638MOL0     H84180   4.630   0.755   1.164  3.4167 -0.2215  2.5910
  638MOL0     H84181   4.481   0.923   1.067  0.7996  3.0202  0.1188
  638MOL0     H84182   4.368   1.176   1.055  2.5007  1.2938 -0.4659
  638MOL0     H84183   4.446   1.214   1.207  0.2493 -4.2044  1.2139
  638MOL0     H84184   4.202   1.307   1.279  3.2281  0.5082  1.6790
  638MOL0     H84185   4.163   1.279   1.115  0.4623 -3.2497 -1.1950
  638MOL0     H84186   4.389   1.443   1.056  1.1082  2.9246  0.7284
  638MOL0     H84187   4.372   1.473   1.231  0.4151 -2.0280 -0.4907
  638MOL0     H84188   4.162   1.505   1.015  0.2187  0.7737  0.3735
  638MOL0     H84189   4.133   1.559   1.178 -2.1313 -3.5005 -0.9290
  638MOL0     H84190   4.384   1.653   1.033  1.8449 -1.1155  3.3644
  638MOL0     H84191   4.309   1.727   1.172  0.2106 -1.9618  0.0933
  638MOL0     H84192   4.096   1.773   1.012 -0.0136 -0.9154 -0.0523
  638MOL0     H84193   4.204   1.708   0.888 -0.4840 -3.9969  2.3329
  638MOL0     H84194   4.260   1.947   1.076 -4.8515  0.6155  0.3560
  638MOL0     H84195   4.365   1.906   0.936  0.1533 -3.5352  0.1619
  638MOL0     H84196   4.231   2.103   0.885  2.2466 -1.8834 -1.7228
  638MOL0     H84197   4.076   2.002   0.912 -1.1165  0.6389 -0.4409
  638MOL0     H84198   4.332   0.997   1.472 -0.9604 -1.3194  0.4246
  638MOL0     H84199   4.475   0.844   1.561 -1.8834  1.1738  0.2525
  638MOL0     H84200   4.823   0.526   1.569  1.8454 -0.4539  1.0237
  638MOL0     H84201   5.017   0.389   1.590 -1.1454  2.4974  0.7685
  638MOL0     H84202   5.597   0.562   2.761 -0.3608 -0.6744  1.4890
  638MOL0     H84203   5.482   0.571   2.977 -1.5058  1.5451  1.7267
  638MOL0     H84204   5.617   0.797   3.534 -0.2743  0.8540 -1.9925
  638MOL0     H84205   5.534   0.680   3.748  0.5906 -1.4025  0.3353
  638MOL0     H84206   5.366   0.637   3.884 -1.0849 -0.6879  0.9692
  638MOL0     H84207   5.485   0.523   3.897 -0.1147  0.4854 -0.0083
  638MOL0     H84208   5.292   0.350   3.986 -0.1718 -0.2334 -0.4776
  638MOL0     H84209   5.349   0.480   4.084  2.0527  1.7104 -0.5565
  638MOL0     H84210   5.111   0.452   3.890 -0.0460  0.7051 -0.7831
  638MOL0     H84211   5.146   0.604   3.999  1.5968 -0.0250  4.2236
  638MOL0     H84212   5.114   0.361   4.151  0.3989  0.3015  2.6266
  638MOL0     H84213   5.094   0.530   4.185  1.1578 -1.5248  2.2160
  638MOL0     H84214   4.705   0.460   4.027  0.0653  2.7821 -3.4072
  638MOL0     H84215   5.267   0.446   3.514 -0.4566 -0.0449 -1.0812
  638MOL0     H84216   5.397   0.530   3.301 -1.3735 -3.6184  1.3569
  639MOL0     O84217   3.339   1.917  10.531  0.2324  0.2800 -0.5546
  639MOL0     C84218   3.354   1.796  10.506  0.4282  0.5408  0.3374
  639MOL0     O84219   3.282   1.719  10.409 -0.0982 -0.4429 -0.1859
  639MOL0     C84220   3.177   1.767  10.331 -1.0339 -0.5885 -0.1674
  639MOL0     C84221   3.094   1.875  10.352  0.6078 -0.1733 -0.6011
  639MOL0     C84222   2.993   1.910  10.260 -0.3775 -0.1587  0.2533
  639MOL0     C84223   2.973   1.834  10.149 -0.1217 -0.5651 -0.4073
  639MOL0     O84224   2.878   1.848  10.063 -0.5610  0.3852  1.2886
  639MOL0     C84225   2.748   1.888  10.092 -0.0305 -0.4268  0.0721
  639MOL0     C84226   2.699   2.032  10.110 -0.1701  0.2533 -0.2661
  639MOL0     C84227   2.552   2.041  10.136  0.1730  0.6750 -0.2437
  639MOL0     C84228   2.504   2.182  10.149 -0.0195  0.2469  0.3974
  639MOL0     C84229   2.361   2.194  10.198  0.7666 -0.7662  0.2875
  639MOL0     C84230   2.323   2.341  10.225 -0.7389  0.6783 -0.0456
  639MOL0     C84231   2.174   2.363  10.203  0.3232 -0.2828  0.3933
  639MOL0     C84232   2.128   2.506  10.212 -0.3896 -0.2225 -0.6047
  639MOL0     N84233   1.984   2.525  10.211 -0.0154 -0.2384 -0.6396
  639MOL0     C84234   1.937   2.646  10.216 -0.5293 -0.1921 -0.1243
  639MOL0     C84235   1.804   2.636  10.226 -0.3096  0.9067  0.5331
  639MOL0     C84236   1.700   2.741  10.249 -0.4353 -0.5755  0.5422
  639MOL0     C84237   1.735   2.855  10.343  0.9163  0.0084  0.2205
  639MOL0     C84238   1.619   2.956  10.352 -0.7505 -0.3473  0.2696
  639MOL0     C84239   1.612   3.052  10.472 -0.4883 -0.9326 -0.9690
  639MOL0     O84240   1.507   3.153  10.461  0.0276 -0.9030  0.6070
  639MOL0     C84241   1.466   3.214  10.575 -0.5066 -0.9508  0.5734
  639MOL0     C84242   1.542   3.240  10.691  0.1546  0.1915 -0.2012
  639MOL0     C84243   1.488   3.293  10.803 -0.5530  0.4577  0.3388
  639MOL0     C84244   1.361   3.361  10.789 -0.9970  0.3791 -0.1189
  639MOL0     C84245   1.316   3.445  10.899  0.6812 -0.3962  0.1476
  639MOL0     O84246   1.231   3.547  10.868  0.2561 -0.1715 -0.1986
  639MOL0     C84247   1.199   3.638  10.966 -0.6153  0.2363 -0.2541
  639MOL0     C84248   1.112   3.614  11.076  0.3786  0.8096 -1.3007
  639MOL0     C84249   1.103   3.706  11.186  0.8043 -0.3303  0.5670
  639MOL0     C84250   1.162   3.830  11.171 -0.9878 -0.6779 -0.1464
  639MOL0     O84251   1.122   3.930  11.257 -0.3904 -0.1445  0.2931
  639MOL0     C84252   1.060   4.041  11.197  0.7225  0.1643  0.0597
  639MOL0     C84253   0.943   4.084  11.276  0.2671 -0.2644 -0.0398
  639MOL0     C84254   0.962   4.091  11.430  0.3303 -0.4287  0.5615
  639MOL0     C84255   0.849   4.088  11.520  0.6298  0.3345 -0.2912
  639MOL0     C84256   0.741   4.197  11.493 -0.0920 -0.5029  0.1880
  639MOL0     C84257   0.637   4.222  11.610 -0.4550  0.3891  0.5720
  639MOL0     C84258   0.547   4.331  11.561  0.8797 -0.0384  0.6747
  639MOL0     C84259   0.433   4.358  11.656 -0.8894  0.2258  0.0880
  639MOL0    Cl84260   0.317   4.219  11.641  0.1933  0.6624 -0.3315
  639MOL0     C84261   1.254   3.858  11.059  0.1467 -0.3627 -0.6042
  639MOL0     C84262   1.266   3.762  10.954  0.3037 -0.8164  0.1312
  639MOL0     O84263   1.358   3.420  11.008  0.0351 -0.4055 -0.2427
  639MOL0     C84264   1.287   3.336  10.673 -0.4130  0.6709  0.5368
  639MOL0     C84265   1.343   3.269  10.564  0.4028  0.4940  0.3279
  639MOL0     N84266   1.771   2.501  10.227 -0.9294  0.0538  0.5329
  639MOL0     N84267   1.883   2.436  10.217 -1.2291  0.8122  0.4608
  639MOL0     C84268   3.061   1.733  10.117 -0.1215 -0.7734 -0.7458
  639MOL0     C84269   3.162   1.698  10.210 -0.0071  0.3622 -0.4990
  639MOL0     C84270   3.460   1.720  10.587 -0.3381 -0.2212  0.6584
  639MOL0     C84271   3.501   1.593  10.562  0.1490  0.9285 -0.4293
  639MOL0     C84272   3.602   1.532  10.643  0.0059 -0.1264  0.0709
  639MOL0     C84273   3.660   1.595  10.749 -0.1882 -0.8948  0.0207
  639MOL0     O84274   3.737   1.556  10.848 -0.0674 -0.3835 -0.2860
  639MOL0     C84275   3.753   1.412  10.850 -0.6644 -0.4856 -0.1702
  639MOL0     C84276   3.771   1.360  10.989 -0.6146 -0.2891  0.0729
  639MOL0     C84277   3.909   1.404  11.046  0.6685 -0.4590 -0.4673
  639MOL0     C84278   3.924   1.355  11.185 -0.4456 -0.4172 -0.1399
  639MOL0     C84279   4.025   1.445  11.251  0.6260  0.8655  0.3524
  639MOL0     C84280   4.091   1.506  11.322 -0.5473 -0.7003  0.5800
  639MOL0     C84281   3.629   1.737  10.760 -0.1161 -0.1853  0.6299
  639MOL0     C84282   3.530   1.800  10.689  0.3747 -0.5900  0.9266
  639MOL0     H84283   3.090   1.922  10.450 -4.4832 -1.0926 -0.0570
  639MOL0     H84284   2.915   1.984  10.280 -1.6755 -1.5964  0.6869
  639MOL0     H84285   2.728   1.833  10.185  3.7704  0.1242  1.4036
  639MOL0     H84286   2.677   1.850  10.017 -2.4312  1.8669  1.0262
  639MOL0     H84287   2.731   2.082  10.019  0.6683  2.5878  1.2078
  639MOL0     H84288   2.757   2.073  10.193 -0.1431  0.7884 -0.5435
  639MOL0     H84289   2.525   1.979  10.222 -1.9884  1.5480 -0.2228
  639MOL0     H84290   2.506   2.000  10.045 -0.3248  0.1026  0.2606
  639MOL0     H84291   2.565   2.237  10.220 -1.2414  0.7128  1.1061
  639MOL0     H84292   2.496   2.227  10.049  2.3539 -0.5027 -0.1906
  639MOL0     H84293   2.340   2.140  10.290 -1.9595  1.6650  1.2415
  639MOL0     H84294   2.279   2.157  10.136 -1.5683 -1.0315  3.3107
  639MOL0     H84295   2.378   2.405  10.155  1.0166  1.6224  2.0917
  639MOL0     H84296   2.351   2.372  10.325  2.2278  3.0663 -1.4519
  639MOL0     H84297   2.146   2.340  10.100  1.3630 -2.3365  0.5189
  639MOL0     H84298   2.117   2.291  10.262  3.3760 -0.3521  3.5854
  639MOL0     H84299   2.184   2.553  10.131  0.5571 -1.3486 -0.6356
  639MOL0     H84300   2.159   2.544  10.310 -2.6054  0.7393 -0.2205
  639MOL0     H84301   2.001   2.734  10.216  3.0029 -2.5114  1.1128
  639MOL0     H84302   1.608   2.690  10.279 -1.2783 -0.0712 -1.0433
  639MOL0     H84303   1.676   2.789  10.154 -1.8692 -0.2813  1.0399
  639MOL0     H84304   1.833   2.899  10.321 -0.2228  1.3797 -2.6969
  639MOL0     H84305   1.746   2.814  10.444  0.7492  1.5429  0.8821
  639MOL0     H84306   1.612   3.023  10.266  1.6658 -2.3046 -1.5787
  639MOL0     H84307   1.527   2.897  10.355 -0.6201 -0.6534 -1.0976
  639MOL0     H84308   1.709   3.101  10.476 -0.7065 -0.4459  3.0139
  639MOL0     H84309   1.588   2.982  10.553 -0.8620 -0.7247 -0.8979
  639MOL0     H84310   1.646   3.207  10.692 -0.0073 -0.3593  1.0171
  639MOL0     H84311   1.546   3.300  10.894  0.6993  2.0393 -0.5243
  639MOL0     H84312   1.066   3.518  11.096 -1.4572  1.9480  0.2467
  639MOL0     H84313   1.043   3.684  11.274 -0.7201  0.2425 -0.2779
  639MOL0     H84314   1.027   4.006  11.099 -2.5416 -5.9721  2.7919
  639MOL0     H84315   1.137   4.119  11.192 -1.4690  2.3590 -2.4259
  639MOL0     H84316   0.859   4.016  11.259  0.5279 -1.1438  1.8378
  639MOL0     H84317   0.917   4.184  11.242 -2.5238 -0.5434  0.9467
  639MOL0     H84318   1.027   4.175  11.456 -1.4086  1.0239  0.3995
  639MOL0     H84319   1.023   4.004  11.456 -0.6860 -0.4916  3.0354
  639MOL0     H84320   0.798   3.991  11.518 -1.3504  1.2947  1.1012
  639MOL0     H84321   0.886   4.106  11.621  0.6984  1.8087 -0.5659
  639MOL0     H84322   0.684   4.157  11.409  0.8148 -2.3334  0.4016
  639MOL0     H84323   0.781   4.294  11.462 -2.2986  0.5419  0.3997
  639MOL0     H84324   0.694   4.245  11.700  0.7946 -0.0486 -0.0700
  639MOL0     H84325   0.586   4.130  11.639  1.1431  0.3536  3.7108
  639MOL0     H84326   0.601   4.425  11.544 -1.4292  1.0764 -1.2269
  639MOL0     H84327   0.500   4.307  11.465 -1.4332 -0.6805  1.8777
  639MOL0     H84328   0.383   4.452  11.632 -4.0610 -1.5466 -0.8733
  639MOL0     H84329   0.461   4.351  11.762  0.5123  1.6890 -0.1518
  639MOL0     H84330   1.316   3.946  11.054  1.7966 -1.1463  2.9759
  639MOL0     H84331   1.334   3.767  10.870 -3.6629 -1.2423 -3.4752
  639MOL0     H84332   1.190   3.384  10.665  0.5887  2.4862 -2.7281
  639MOL0     H84333   1.276   3.252  10.480 -0.5085 -0.8934  1.2780
  639MOL0     H84334   3.054   1.679  10.023 -0.9457 -2.0060 -0.0163
  639MOL0     H84335   3.230   1.620  10.180 -1.4387 -0.5146 -1.5362
  639MOL0     H84336   3.459   1.537  10.479  1.0258 -2.0868  1.0103
  639MOL0     H84337   3.613   1.429  10.611 -1.0986  0.4773 -2.5046
  639MOL0     H84338   3.842   1.378  10.797  0.3682 -1.2639  1.9264
  639MOL0     H84339   3.665   1.359  10.813 -0.0049 -1.9584  0.3328
  639MOL0     H84340   3.690   1.399  11.051  1.6515  3.0072  1.2528
  639MOL0     H84341   3.762   1.251  10.982  0.2110 -0.3299 -0.6073
  639MOL0     H84342   3.910   1.513  11.038 -0.9729 -0.4149 -0.3935
  639MOL0     H84343   3.985   1.366  10.977  0.4568 -0.9094 -0.4569
  639MOL0     H84344   3.830   1.378  11.236  0.0417 -1.3239  1.2300
  639MOL0     H84345   3.964   1.255  11.206  0.2264 -0.2242 -0.4802
  639MOL0     H84346   4.151   1.567  11.387  0.0966  2.8695 -2.9851
  639MOL0     H84347   3.676   1.792  10.841  0.2349  0.0419  0.2804
  639MOL0     H84348   3.496   1.900  10.714 -0.6746  0.0333 -2.5414
  640MOL0     O84349   1.863   7.283   9.475  0.0352  0.9577 -0.2396
  640MOL0     C84350   1.940   7.270   9.570  1.1902 -0.4556  0.3735
  640MOL0     O84351   1.898   7.209   9.688 -0.2517  0.5526  0.2860
  640MOL0     C84352   1.778   7.138   9.689 -0.6587  0.4223  0.3325
  640MOL0     C84353   1.738   7.054   9.585  0.6846  0.0844 -0.2107
  640MOL0     C84354   1.623   6.974   9.595  1.4619  0.7133  0.2362
  640MOL0     C84355   1.546   6.983   9.709  0.6886  0.2594  0.4677
  640MOL0     O84356   1.416   6.928   9.717  0.2068 -0.1060 -0.5002
  640MOL0     C84357   1.336   6.880   9.602  0.5308  0.0294  0.4433
  640MOL0     C84358   1.189   6.879   9.657 -0.8820  0.0041 -0.1554
  640MOL0     C84359   1.076   6.866   9.545 -0.3304  0.6251 -0.9386
  640MOL0     C84360   0.949   6.844   9.618  0.0067 -0.0111  0.1904
  640MOL0     C84361   0.830   6.881   9.531  0.8789  0.2983  0.4297
  640MOL0     C84362   0.793   7.024   9.530 -0.0341 -0.1156  0.5940
  640MOL0     C84363   0.679   7.046   9.431 -0.0129  0.4978  0.2754
  640MOL0     C84364   0.715   7.022   9.280  0.3253  0.1175 -0.3489
  640MOL0     N84365   0.640   7.115   9.194 -0.0026 -0.2541  0.8920
  640MOL0     C84366   0.692   7.232   9.132  0.4173  0.6222 -0.3049
  640MOL0     C84367   0.576   7.292   9.074  0.8294 -0.2983  0.2790
  640MOL0     C84368   0.578   7.433   9.011 -0.6797  0.5820 -0.1969
  640MOL0     C84369   0.729   7.488   8.983 -0.1037  0.4068 -0.6647
  640MOL0     C84370   0.716   7.615   8.895  0.3398  0.0288  0.8743
  640MOL0     C84371   0.842   7.698   8.878  0.3930  0.1462 -1.1390
  640MOL0     O84372   0.954   7.625   8.818 -0.0347  0.2249  0.1686
  640MOL0     C84373   1.083   7.681   8.835 -0.9336  0.2692 -0.2031
  640MOL0     C84374   1.104   7.821   8.834  0.5299  0.6276 -0.1928
  640MOL0     C84375   1.231   7.875   8.853 -0.5427  0.4889  1.1938
  640MOL0     C84376   1.347   7.792   8.861 -0.3376  0.4067 -0.0556
  640MOL0     C84377   1.485   7.847   8.873  0.5018 -0.2980 -1.3856
  640MOL0     O84378   1.495   7.982   8.881 -0.0373 -0.6153  0.9356
  640MOL0     C84379   1.619   8.049   8.901  0.2317 -0.2863  0.1765
  640MOL0     C84380   1.613   8.162   8.977 -0.5438 -0.3302 -0.0856
  640MOL0     C84381   1.733   8.229   9.010  0.0550  0.4102 -0.3145
  640MOL0     C84382   1.858   8.172   8.978  0.5446 -0.1501  0.6375
  640MOL0     O84383   1.988   8.225   9.001  0.1995  0.4659 -0.4581
  640MOL0     C84384   2.015   8.358   8.958  0.5702 -0.3315  0.6399
  640MOL0     C84385   2.144   8.406   9.008  0.9150 -0.8747  0.3607
  640MOL0     C84386   2.163   8.556   8.972  0.7331  0.0226  0.5877
  640MOL0     C84387   2.258   8.615   9.076  0.1001 -0.4132 -1.0703
  640MOL0     C84388   2.318   8.755   9.047  0.4203 -0.4221  0.3128
  640MOL0     C84389   2.441   8.800   9.129  0.2143  0.0893  0.1127
  640MOL0     C84390   2.504   8.931   9.073  0.8154  0.1004  0.3632
  640MOL0     C84391   2.643   8.964   9.119  0.2530 -0.3351  0.0272
  640MOL0    Cl84392   2.629   9.087   9.262  0.3999 -0.2910 -0.1117
  640MOL0     C84393   1.859   8.052   8.906  0.3645 -0.6147 -0.2560
  640MOL0     C84394   1.741   7.995   8.865 -0.9536  0.5611  0.8492
  640MOL0     O84395   1.575   7.766   8.893 -0.0618  0.8195  0.1688
  640MOL0     C84396   1.324   7.651   8.857  0.1683 -0.0214 -0.1364
  640MOL0     C84397   1.192   7.604   8.846  0.2844 -0.3185  0.2203
  640MOL0     N84398   0.469   7.197   9.089 -0.8003  0.3965  0.0674
  640MOL0     N84399   0.510   7.095   9.162 -0.0551 -0.2088  0.4185
  640MOL0     C84400   1.579   7.053   9.810 -0.5818 -0.1137 -0.3131
  640MOL0     C84401   1.694   7.139   9.799  0.4797  0.4656 -0.1312
  640MOL0     C84402   2.078   7.315   9.547  0.8579  0.1400 -0.0635
  640MOL0     C84403   2.122   7.381   9.429  0.4325 -0.1123 -0.7742
  640MOL0     C84404   2.256   7.415   9.403  0.5759  0.8703 -0.1467
  640MOL0     C84405   2.357   7.374   9.500 -0.6976 -0.7125  0.1888
  640MOL0     O84406   2.489   7.410   9.456 -0.2151 -0.1062  0.4455
  640MOL0     C84407   2.590   7.400   9.563  0.3541 -0.1887 -0.3964
  640MOL0     C84408   2.710   7.477   9.536 -0.4759  0.3589 -0.5394
  640MOL0     C84409   2.761   7.439   9.394 -0.3853  0.0723  0.3447
  640MOL0     C84410   2.894   7.520   9.382  0.3603 -0.1036 -0.0521
  640MOL0     C84411   2.883   7.581   9.243  0.4874 -0.6660 -1.0439
  640MOL0     C84412   2.869   7.611   9.127 -0.9031  0.9955 -0.3287
  640MOL0     C84413   2.314   7.308   9.625 -0.1149  0.0063 -0.0263
  640MOL0     C84414   2.173   7.295   9.646  0.3517 -0.6722  0.2346
  640MOL0     H84415   1.793   7.062   9.492 -1.9114  3.4614 -1.6676
  640MOL0     H84416   1.588   6.906   9.518 -1.0016 -2.3534  3.7059
  640MOL0     H84417   1.379   6.784   9.570 -0.9584 -0.0412 -1.5550
  640MOL0     H84418   1.338   6.954   9.522 -0.9755 -3.2322 -2.9619
  640MOL0     H84419   1.180   6.972   9.714 -0.1184  1.0198 -1.6284
  640MOL0     H84420   1.183   6.798   9.730  0.1200 -0.0763 -0.1435
  640MOL0     H84421   1.106   6.780   9.486  3.4277  2.5743 -2.1784
  640MOL0     H84422   1.073   6.953   9.479  0.2800  3.4319  2.4272
  640MOL0     H84423   0.927   6.739   9.640  0.6641 -1.5102 -4.8336
  640MOL0     H84424   0.947   6.899   9.712 -2.1530 -1.1620  0.8783
  640MOL0     H84425   0.732   6.836   9.555  0.2589  1.2333 -0.2786
  640MOL0     H84426   0.853   6.842   9.432  1.0771 -1.7325  1.2081
  640MOL0     H84427   0.879   7.088   9.513  0.3162  0.1795  3.1203
  640MOL0     H84428   0.762   7.047   9.632  2.9612  1.5201  1.2401
  640MOL0     H84429   0.590   6.987   9.454  0.2148 -0.4986 -1.2788
  640MOL0     H84430   0.639   7.147   9.444 -1.8472 -0.4568  2.6997
  640MOL0     H84431   0.691   6.920   9.248 -2.0215  0.3771  0.4179
  640MOL0     H84432   0.822   7.044   9.271  0.3574  2.2564  3.5503
  640MOL0     H84433   0.791   7.276   9.137  0.1788  1.7397 -3.2424
  640MOL0     H84434   0.521   7.502   9.074 -0.4667  0.2297  0.3890
  640MOL0     H84435   0.520   7.429   8.918 -1.0817  1.4640  0.0028
  640MOL0     H84436   0.794   7.412   8.938 -1.6542 -1.6267  0.3733
  640MOL0     H84437   0.764   7.512   9.084  0.9539 -2.4312 -0.2519
  640MOL0     H84438   0.684   7.596   8.792  0.1575  0.5572  0.8333
  640MOL0     H84439   0.635   7.669   8.945 -3.3535 -3.3531 -0.9156
  640MOL0     H84440   0.865   7.760   8.965 -1.3723 -0.4313 -0.2085
  640MOL0     H84441   0.813   7.777   8.808 -0.7737 -1.1633 -2.1969
  640MOL0     H84442   1.012   7.873   8.811 -0.0432 -0.1601  0.2462
  640MOL0     H84443   1.247   7.983   8.850 -0.0036  0.4207 -2.3088
  640MOL0     H84444   1.517   8.201   9.011  0.8324  1.2347  2.2553
  640MOL0     H84445   1.725   8.321   9.068  2.2427 -0.1460  0.9886
  640MOL0     H84446   1.928   8.418   8.988 -1.4819 -1.7462 -2.0783
  640MOL0     H84447   2.013   8.358   8.849  1.5853 -1.0905  0.6085
  640MOL0     H84448   2.223   8.342   8.968  1.2011 -0.9853  1.0707
  640MOL0     H84449   2.138   8.406   9.118 -0.7868  5.9311  0.6779
  640MOL0     H84450   2.066   8.608   8.975 -1.3774 -3.6129  1.1487
  640MOL0     H84451   2.213   8.576   8.877  1.9050  1.7595  1.5113
  640MOL0     H84452   2.210   8.621   9.174 -0.7568  1.8147 -1.5607
  640MOL0     H84453   2.341   8.544   9.087  0.2097 -0.3524 -1.4823
  640MOL0     H84454   2.242   8.832   9.058  1.4308  0.8316 -1.0698
  640MOL0     H84455   2.350   8.749   8.942  3.4881 -4.0063  1.2310
  640MOL0     H84456   2.505   8.712   9.139 -0.7270 -0.9998 -2.4333
  640MOL0     H84457   2.389   8.816   9.224 -2.2050 -0.9918 -0.9311
  640MOL0     H84458   2.504   8.926   8.964 -1.8938  1.0835  0.2563
  640MOL0     H84459   2.443   9.020   9.089 -2.4810 -1.0731 -3.9552
  640MOL0     H84460   2.696   9.004   9.032 -1.4631  1.7986 -0.1119
  640MOL0     H84461   2.696   8.874   9.152 -0.1338 -0.4449  0.3527
  640MOL0     H84462   1.952   8.001   8.884  2.0012  1.6649  0.9197
  640MOL0     H84463   1.757   7.913   8.797  1.1546  0.7062  1.1010
  640MOL0     H84464   1.400   7.575   8.876  3.3149  3.1137  1.0571
  640MOL0     H84465   1.179   7.496   8.851 -1.0793 -0.1385  1.0431
  640MOL0     H84466   1.509   7.049   9.892 -0.7943 -2.7563 -0.5173
  640MOL0     H84467   1.739   7.169   9.893  1.6682  2.3542 -1.2509
  640MOL0     H84468   2.044   7.407   9.358 -0.2916  3.6676  1.1478
  640MOL0     H84469   2.269   7.456   9.304  0.8766  0.9500 -0.0746
  640MOL0     H84470   2.613   7.296   9.586 -0.3596 -0.8938 -2.6340
  640MOL0     H84471   2.551   7.451   9.652 -0.5368 -0.4849 -0.6055
  640MOL0     H84472   2.690   7.584   9.544 -1.1591  0.1952  0.1146
  640MOL0     H84473   2.784   7.447   9.610  0.3612 -1.3307 -1.9822
  640MOL0     H84474   2.686   7.478   9.325 -0.8547 -0.7071  0.4059
  640MOL0     H84475   2.782   7.333   9.377 -1.5593  0.0944 -1.4796
  640MOL0     H84476   2.912   7.591   9.463  1.9229 -1.2359  0.6364
  640MOL0     H84477   2.975   7.447   9.389  0.7284  0.4259  1.7584
  640MOL0     H84478   2.849   7.618   9.022  2.6649 -3.1763 -1.5818
  640MOL0     H84479   2.385   7.266   9.696  2.3148  1.9480 -1.1592
  640MOL0     H84480   2.139   7.236   9.731 -0.6439  2.0663  1.8686
  641MOL0     O84481   1.972   0.039   7.810  0.2197  0.3957 -0.6613
  641MOL0     C84482   1.849   0.064   7.815  0.7363  0.8562 -0.4107
  641MOL0     O84483   1.790   0.175   7.761 -0.1547 -0.4817  0.1751
  641MOL0     C84484   1.860   0.258   7.670  0.3771 -0.0832 -0.8909
  641MOL0     C84485   1.814   0.389   7.662 -0.1085  0.7921 -0.2554
  641MOL0     C84486   1.873   0.486   7.573 -1.5842  0.6629 -0.0189
  641MOL0     C84487   1.964   0.433   7.477  0.2380 -1.4332  0.2290
  641MOL0     O84488   2.010   0.523   7.388  0.1266  0.3841  0.3020
  641MOL0     C84489   2.104   0.476   7.287  0.2959  0.3993 -0.0065
  641MOL0     C84490   2.116   0.584   7.180  0.1117  0.5147 -0.4729
  641MOL0     C84491   2.188   0.523   7.053  0.7934 -0.7843  0.2038
  641MOL0     C84492   2.209   0.641   6.954 -0.7865  0.1119 -0.4296
  641MOL0     C84493   2.323   0.618   6.850 -0.7188  0.5964 -0.7154
  641MOL0     C84494   2.469   0.639   6.922 -0.4247 -0.3370 -0.4634
  641MOL0     C84495   2.577   0.611   6.823 -0.3746 -0.3454 -0.3687
  641MOL0     C84496   2.726   0.633   6.875 -0.6537  0.5334 -0.4349
  641MOL0     N84497   2.817   0.681   6.767  0.5602 -0.5728  0.2067
  641MOL0     C84498   2.878   0.612   6.671 -0.9884  0.4737  0.0011
  641MOL0     C84499   2.980   0.686   6.626 -0.8067 -0.3657  1.0025
  641MOL0     C84500   3.065   0.648   6.508  0.6443 -0.4225 -0.8317
  641MOL0     C84501   3.184   0.569   6.566 -0.2632  0.6975 -0.1807
  641MOL0     C84502   3.132   0.434   6.630  0.4299  0.0539  0.4158
  641MOL0     C84503   3.241   0.333   6.628 -0.6499  0.3533  0.5424
  641MOL0     O84504   3.347   0.381   6.720  0.0729 -0.1486 -0.8873
  641MOL0     C84505   3.456   0.311   6.744  0.1709 -1.0137  0.6892
  641MOL0     C84506   3.578   0.385   6.758  1.0822 -0.0133 -0.6376
  641MOL0     C84507   3.694   0.303   6.782  0.6880  0.2184 -0.0930
  641MOL0     C84508   3.693   0.165   6.781  0.3681 -0.1665 -0.3410
  641MOL0     C84509   3.820   0.093   6.805  0.2970  0.2106  0.4452
  641MOL0     O84510   3.805  -0.038   6.777  0.1525 -0.5672 -0.4971
  641MOL0     C84511   3.915  -0.115   6.791  0.4584 -0.0234 -0.1219
  641MOL0     C84512   3.944  -0.195   6.684 -0.0532 -0.6948  0.1541
  641MOL0     C84513   4.063  -0.258   6.664 -0.8723  0.3881 -0.2143
  641MOL0     C84514   4.160  -0.259   6.763  0.4680 -0.1221  0.6940
  641MOL0     O84515   4.276  -0.329   6.739  0.0064  0.7353  0.7419
  641MOL0     C84516   4.372  -0.242   6.676 -0.0929  0.2952  0.7762
  641MOL0     C84517   4.512  -0.316   6.654 -0.4497 -0.3119  0.1125
  641MOL0     C84518   4.613  -0.206   6.645 -1.0657  0.5253  0.7033
  641MOL0     C84519   4.757  -0.259   6.636  0.0840  0.8612 -0.9683
  641MOL0     C84520   4.839  -0.124   6.610 -0.7912  0.1822 -0.8276
  641MOL0     C84521   4.988  -0.135   6.590 -0.2458  0.3495  0.9473
  641MOL0     C84522   5.059  -0.175   6.714 -0.1787 -0.4927 -0.1827
  641MOL0     C84523   5.211  -0.151   6.686 -0.6271 -0.0960 -0.3014
  641MOL0    Cl84524   5.274  -0.188   6.846 -0.8378  0.4995 -0.4909
  641MOL0     C84525   4.126  -0.201   6.880  0.0012 -0.0230  0.3035
  641MOL0     C84526   4.006  -0.129   6.900  0.2250  0.4293 -0.1073
  641MOL0     O84527   3.926   0.149   6.835  0.0017  0.3121  1.5042
  641MOL0     C84528   3.568   0.097   6.754 -0.4947  0.4344 -0.0921
  641MOL0     C84529   3.450   0.172   6.742 -0.4415  0.2118  0.3941
  641MOL0     N84530   2.974   0.812   6.679 -0.3882 -0.1830  0.1631
  641MOL0     N84531   2.883   0.803   6.769 -0.6653 -0.5044 -0.0468
  641MOL0     C84532   2.004   0.301   7.477 -0.0900  0.4034  1.0493
  641MOL0     C84533   1.949   0.213   7.568  0.6550  0.1585  0.1424
  641MOL0     C84534   1.752  -0.028   7.875  0.2856 -0.5218  0.2894
  641MOL0     C84535   1.661   0.011   7.976  0.2096  0.1106 -0.1279
  641MOL0     C84536   1.587  -0.086   8.049 -0.1512 -0.5313 -0.1800
  641MOL0     C84537   1.586  -0.219   8.003 -1.2490 -0.2387  0.5600
  641MOL0     O84538   1.492  -0.305   8.051  0.5979 -0.2533  0.7200
  641MOL0     C84539   1.450  -0.417   7.979  0.0096  1.3326  0.1121
  641MOL0     C84540   1.352  -0.371   7.870  0.2415 -0.7453  0.5648
  641MOL0     C84541   1.253  -0.485   7.840 -1.0439 -0.0472 -0.2486
  641MOL0     C84542   1.141  -0.458   7.732  0.0523  0.7434 -0.3990
  641MOL0     C84543   1.062  -0.575   7.704  0.4792  0.9733  0.1133
  641MOL0     C84544   1.002  -0.677   7.672 -0.5378  0.1219 -0.1206
  641MOL0     C84545   1.680  -0.255   7.908  0.4856  0.6607  0.8132
  641MOL0     C84546   1.763  -0.165   7.851  1.1537  0.3631 -0.4937
  641MOL0     H84547   1.741   0.429   7.731 -2.0607  0.6814 -2.1489
  641MOL0     H84548   1.847   0.591   7.578  0.0856  1.1475 -0.8486
  641MOL0     H84549   2.084   0.378   7.244 -0.8648  0.5621  0.1261
  641MOL0     H84550   2.204   0.469   7.331  0.4228  0.5437 -0.2671
  641MOL0     H84551   2.182   0.661   7.221  0.0297  0.0612  0.5192
  641MOL0     H84552   2.018   0.622   7.151 -0.3023  0.1732  0.4639
  641MOL0     H84553   2.123   0.447   7.008 -1.7362  2.1343 -1.4630
  641MOL0     H84554   2.280   0.472   7.082  0.6207 -3.1999 -2.8724
  641MOL0     H84555   2.119   0.656   6.894  1.0437 -0.9064 -3.6699
  641MOL0     H84556   2.225   0.729   7.017 -3.0536 -1.1269  2.1011
  641MOL0     H84557   2.312   0.696   6.775 -1.5767  1.1479 -0.0327
  641MOL0     H84558   2.307   0.518   6.808 -1.7542  1.1804 -1.7776
  641MOL0     H84559   2.477   0.572   7.009 -0.0874  3.0955  2.3850
  641MOL0     H84560   2.469   0.744   6.953 -0.0349 -0.6619  0.6813
  641MOL0     H84561   2.559   0.512   6.779 -3.3120  0.5564 -1.4044
  641MOL0     H84562   2.568   0.687   6.745  3.0734 -0.1493 -0.7286
  641MOL0     H84563   2.771   0.546   6.923 -1.2184 -0.4980 -1.7134
  641MOL0     H84564   2.726   0.714   6.949 -0.5162 -0.0963  0.2627
  641MOL0     H84565   2.857   0.509   6.646 -1.5540  0.9055 -1.4212
  641MOL0     H84566   3.101   0.732   6.448 -0.5288 -0.0405 -1.0148
  641MOL0     H84567   3.009   0.583   6.440 -2.5749  1.5802 -0.2678
  641MOL0     H84568   3.232   0.621   6.650 -0.2053 -0.8526  0.7962
  641MOL0     H84569   3.260   0.549   6.490 -1.0544 -1.7583 -0.4313
  641MOL0     H84570   3.111   0.449   6.736 -1.1446 -1.0687  0.2920
  641MOL0     H84571   3.042   0.391   6.586  0.1376 -0.3509  1.4035
  641MOL0     H84572   3.290   0.335   6.530  1.3127  2.5525  1.4999
  641MOL0     H84573   3.208   0.231   6.653 -1.0732 -0.7675 -3.7993
  641MOL0     H84574   3.583   0.493   6.748  3.2632  0.3202  2.7051
  641MOL0     H84575   3.784   0.361   6.795  0.9293  0.8195 -3.6345
  641MOL0     H84576   3.865  -0.199   6.609  0.3469  0.7676 -0.3668
  641MOL0     H84577   4.079  -0.302   6.566  2.0898  1.2434 -0.2150
  641MOL0     H84578   4.380  -0.146   6.729 -1.7005  1.0477 -0.2791
  641MOL0     H84579   4.331  -0.226   6.576 -1.4115 -5.1907  0.1258
  641MOL0     H84580   4.507  -0.382   6.566  3.0855 -2.7004  1.4745
  641MOL0     H84581   4.534  -0.380   6.740 -0.5448 -2.7698 -1.5736
  641MOL0     H84582   4.608  -0.141   6.733  1.6926  0.5911  0.9061
  641MOL0     H84583   4.586  -0.149   6.556 -3.9740 -2.4430 -0.5636
  641MOL0     H84584   4.767  -0.317   6.728 -1.0061 -1.7298 -2.4009
  641MOL0     H84585   4.772  -0.330   6.554 -0.9079 -0.6721  0.1321
  641MOL0     H84586   4.821  -0.047   6.686 -1.4312 -0.2764 -0.4979
  641MOL0     H84587   4.804  -0.091   6.512 -1.0710 -0.0159 -0.7973
  641MOL0     H84588   5.035  -0.038   6.573  0.8200 -0.0795  1.3203
  641MOL0     H84589   4.994  -0.205   6.506 -0.4741  0.4141  0.8768
  641MOL0     H84590   5.039  -0.115   6.803  0.9871 -1.8481  1.0440
  641MOL0     H84591   5.030  -0.277   6.742 -1.8385  0.5391  2.1532
  641MOL0     H84592   5.239  -0.052   6.648  1.2161 -1.0614 -1.6096
  641MOL0     H84593   5.232  -0.223   6.606  1.0473 -2.4175  2.0874
  641MOL0     H84594   4.193  -0.218   6.964  2.6208 -1.1887 -1.8648
  641MOL0     H84595   3.983  -0.085   6.997 -1.2250 -0.7496  0.1267
  641MOL0     H84596   3.578  -0.010   6.742  1.0079  0.7305 -1.9995
  641MOL0     H84597   3.357   0.115   6.739  1.3654 -2.9725 -0.5773
  641MOL0     H84598   2.064   0.251   7.401  2.1775  1.2373  2.2161
  641MOL0     H84599   1.973   0.107   7.560 -1.0112 -0.2178 -0.1341
  641MOL0     H84600   1.656   0.115   8.006 -0.2856 -0.8375  3.6157
  641MOL0     H84601   1.514  -0.067   8.127 -1.1653 -4.4576  0.0509
  641MOL0     H84602   1.391  -0.485   8.042  1.6593 -0.3580 -0.0610
  641MOL0     H84603   1.524  -0.488   7.941 -1.2493 -1.1277  1.9598
  641MOL0     H84604   1.296  -0.285   7.907 -4.9970 -2.6840 -1.9683
  641MOL0     H84605   1.418  -0.345   7.787 -1.3869 -1.5162 -1.0326
  641MOL0     H84606   1.203  -0.530   7.926  1.3711 -0.3010  1.0959
  641MOL0     H84607   1.327  -0.550   7.794 -1.9849 -0.7342 -0.8356
  641MOL0     H84608   1.071  -0.383   7.772  1.4148  1.2000  1.2631
  641MOL0     H84609   1.193  -0.414   7.646 -0.6704  3.2892  0.3743
  641MOL0     H84610   0.972  -0.777   7.649  1.6288 -0.2887 -1.3934
  641MOL0     H84611   1.682  -0.353   7.862  0.4926  1.0963 -0.1415
  641MOL0     H84612   1.834  -0.196   7.775 -2.3706  1.2454 -4.4937
  642MOL0     O84613   5.456   5.829   3.099 -0.5928  0.3534  0.4941
  642MOL0     C84614   5.513   5.739   3.042 -0.0875  0.8920  0.1003
  642MOL0     O84615   5.456   5.617   3.005  0.0376  0.2283  0.3618
  642MOL0     C84616   5.338   5.590   3.069  0.8466 -0.1327  0.6607
  642MOL0     C84617   5.222   5.663   3.047 -0.1631  0.7114 -0.2519
  642MOL0     C84618   5.099   5.642   3.116  0.9151  0.1205  0.7114
  642MOL0     C84619   5.084   5.534   3.204 -0.1976 -0.1390 -0.0099
  642MOL0     O84620   4.965   5.524   3.265 -0.1479 -0.0957  0.2836
  642MOL0     C84621   4.949   5.450   3.385 -0.5552 -0.2093  0.6294
  642MOL0     C84622   4.806   5.447   3.425  0.5179  0.2025 -0.0504
  642MOL0     C84623   4.726   5.346   3.335 -0.0771 -0.9210  0.2724
  642MOL0     C84624   4.574   5.378   3.371 -0.2998 -1.0569 -0.8757
  642MOL0     C84625   4.470   5.292   3.300 -0.3256 -0.7686 -0.2809
  642MOL0     C84626   4.324   5.337   3.333  0.7484 -0.2591 -0.3226
  642MOL0     C84627   4.213   5.249   3.272 -0.6277  0.1259 -0.5190
  642MOL0     C84628   4.099   5.191   3.363  0.5401  0.2949 -0.3944
  642MOL0     N84629   4.020   5.308   3.402 -0.1701  0.1566 -0.3246
  642MOL0     C84630   3.940   5.367   3.314  0.1963  0.1913  1.0265
  642MOL0     C84631   3.931   5.492   3.360  0.2133  0.0915 -1.2413
  642MOL0     C84632   3.875   5.622   3.289 -0.3673  0.1381 -0.5444
  642MOL0     C84633   3.993   5.693   3.221  0.0811  0.3752 -0.8648
  642MOL0     C84634   3.961   5.838   3.176  0.2643  0.1483  0.2533
  642MOL0     C84635   3.822   5.852   3.111 -0.8140 -0.8790  0.1198
  642MOL0     O84636   3.823   5.774   2.984 -0.7777  0.2032 -0.3386
  642MOL0     C84637   3.725   5.790   2.897  0.5404 -1.0788  0.3634
  642MOL0     C84638   3.611   5.865   2.920  0.7678 -0.0803  0.9329
  642MOL0     C84639   3.525   5.887   2.808  0.0314 -0.0606  0.8080
  642MOL0     C84640   3.539   5.825   2.679  1.0853  0.1815 -0.1290
  642MOL0     C84641   3.434   5.845   2.573 -0.5255  0.0382 -0.6442
  642MOL0     O84642   3.460   5.815   2.439  0.2246  0.2689  0.3958
  642MOL0     C84643   3.354   5.854   2.355 -0.1542 -0.1757  0.5741
  642MOL0     C84644   3.364   5.964   2.269 -0.4845  0.5412  0.1231
  642MOL0     C84645   3.257   5.999   2.184  0.2083  0.0166  0.6922
  642MOL0     C84646   3.139   5.927   2.181  0.0754 -0.1895 -0.2949
  642MOL0     O84647   3.050   5.975   2.089  0.4798 -0.1418  0.0766
  642MOL0     C84648   2.921   5.919   2.066  0.1511 -0.0405  0.2608
  642MOL0     C84649   2.840   6.002   1.972  0.5369 -0.5399  0.1973
  642MOL0     C84650   2.719   5.937   1.911  0.3128 -0.1104 -0.3855
  642MOL0     C84651   2.595   5.972   1.995  0.9646 -1.2305  0.7982
  642MOL0     C84652   2.454   5.934   1.939 -0.3968 -0.4350  0.2008
  642MOL0     C84653   2.408   6.034   1.824  0.0489 -0.3265  1.2832
  642MOL0     C84654   2.284   5.988   1.735 -0.9117 -0.5661 -0.4011
  642MOL0     C84655   2.229   6.091   1.641  0.3897  0.7951  0.5634
  642MOL0    Cl84656   2.081   6.008   1.590  0.0904  0.0073 -0.7905
  642MOL0     C84657   3.134   5.813   2.254 -0.0963  0.3370 -0.8904
  642MOL0     C84658   3.237   5.780   2.344  0.4158  0.0490  0.5364
  642MOL0     O84659   3.329   5.895   2.615 -0.0869  0.0024 -0.4312
  642MOL0     C84660   3.655   5.750   2.664  0.2049 -0.2321  0.2545
  642MOL0     C84661   3.750   5.742   2.766 -0.3547  0.9773 -0.5872
  642MOL0     N84662   4.016   5.498   3.467  0.8512 -0.2623 -0.3168
  642MOL0     N84663   4.062   5.387   3.502  0.5601  0.5413 -0.3924
  642MOL0     C84664   5.209   5.458   3.220  0.1942 -0.2891  0.6397
  642MOL0     C84665   5.329   5.488   3.157  0.4516  0.4930 -0.1934
  642MOL0     C84666   5.651   5.767   3.002 -0.8848  1.3390  0.4030
  642MOL0     C84667   5.699   5.904   2.991  0.4457  0.0362 -0.3601
  642MOL0     C84668   5.814   5.918   2.923  0.5085  0.3728  0.2894
  642MOL0     C84669   5.907   5.812   2.889 -1.0750  0.2444 -0.1064
  642MOL0     O84670   6.029   5.839   2.837 -0.5080 -0.5982 -0.4483
  642MOL0     C84671   6.117   5.738   2.782 -1.2727 -0.2042  0.2903
  642MOL0     C84672   6.265   5.790   2.752 -0.3045 -0.0423 -0.0133
  642MOL0     C84673   6.350   5.706   2.671 -0.1682  0.3547 -0.3368
  642MOL0     C84674   6.503   5.750   2.673  0.2991  0.0013  0.9729
  642MOL0     C84675   6.566   5.745   2.549 -1.3440 -0.5359  0.7737
  642MOL0     C84676   6.620   5.741   2.442  0.5017  0.2951 -0.1781
  642MOL0     C84677   5.858   5.685   2.908  0.3930 -0.2695  0.3514
  642MOL0     C84678   5.728   5.662   2.956  0.1737  0.4955 -0.0042
  642MOL0     H84679   5.230   5.750   2.983 -0.2446 -1.5159 -3.6018
  642MOL0     H84680   5.019   5.713   3.096 -0.6075 -1.3039  1.4591
  642MOL0     H84681   5.011   5.495   3.463  1.7294  0.3486 -1.3975
  642MOL0     H84682   4.982   5.345   3.379  0.9701  0.1904  1.5246
  642MOL0     H84683   4.768   5.549   3.426 -0.3740 -0.0055  3.5110
  642MOL0     H84684   4.781   5.408   3.525  0.2166 -1.7093 -0.8237
  642MOL0     H84685   4.748   5.245   3.372  0.5989 -1.8932 -2.5031
  642MOL0     H84686   4.749   5.372   3.231 -0.8754  1.1891  0.5874
  642MOL0     H84687   4.551   5.379   3.477 -0.8512 -2.0481 -0.9714
  642MOL0     H84688   4.548   5.483   3.353 -1.6759 -1.0581  0.8951
  642MOL0     H84689   4.488   5.186   3.317  1.4245 -0.4700 -0.0333
  642MOL0     H84690   4.503   5.305   3.196  1.8567 -0.0614  0.4251
  642MOL0     H84691   4.322   5.440   3.296  3.5747  0.3650  0.9873
  642MOL0     H84692   4.307   5.326   3.441  1.4955 -0.1653 -0.1881
  642MOL0     H84693   4.166   5.310   3.195 -2.0825 -0.7527 -0.3693
  642MOL0     H84694   4.272   5.166   3.231  3.4704  3.1085 -1.2475
  642MOL0     H84695   4.145   5.145   3.451  2.7081  0.2161 -1.5043
  642MOL0     H84696   4.037   5.119   3.310 -1.4126  1.1986  0.5701
  642MOL0     H84697   3.906   5.340   3.215  1.3764  1.7048  0.1836
  642MOL0     H84698   3.833   5.686   3.368  3.7685  1.2399  0.9785
  642MOL0     H84699   3.803   5.596   3.210  0.4016  0.1859 -1.2758
  642MOL0     H84700   4.020   5.642   3.128 -0.6964 -1.8956  0.1030
  642MOL0     H84701   4.081   5.690   3.286 -1.5936  2.3050  1.6895
  642MOL0     H84702   3.958   5.886   3.275  2.1441 -0.8398  0.8384
  642MOL0     H84703   4.042   5.876   3.114  1.5630 -3.9982 -0.9049
  642MOL0     H84704   3.815   5.954   3.073  2.0547 -1.9113 -3.8792
  642MOL0     H84705   3.737   5.823   3.174 -2.6863  0.6160 -1.5528
  642MOL0     H84706   3.577   5.915   3.011  3.3994  0.5309  1.6762
  642MOL0     H84707   3.446   5.959   2.826  0.3194 -0.1801  2.7634
  642MOL0     H84708   3.453   6.026   2.256 -0.9192  1.0625 -0.3932
  642MOL0     H84709   3.269   6.086   2.120 -4.2565 -1.0776 -2.0647
  642MOL0     H84710   2.868   5.918   2.162  0.6209  0.0856  0.5238
  642MOL0     H84711   2.935   5.815   2.033  0.1598  1.0857 -3.8065
  642MOL0     H84712   2.913   6.011   1.891  1.6082 -0.4787  1.1436
  642MOL0     H84713   2.827   6.102   2.016 -0.0224 -0.9404  0.9609
  642MOL0     H84714   2.736   5.833   1.882  2.2632 -0.6269  2.1785
  642MOL0     H84715   2.718   6.000   1.822 -0.2935  1.6345  0.7926
  642MOL0     H84716   2.595   5.933   2.097 -2.4247 -0.3272  1.2505
  642MOL0     H84717   2.583   6.081   2.001  1.7321 -0.9966 -0.9864
  642MOL0     H84718   2.382   5.921   2.020 -2.6777  3.3652 -0.9788
  642MOL0     H84719   2.472   5.834   1.898  0.7423  0.0774 -0.6028
  642MOL0     H84720   2.488   6.052   1.751 -0.0139 -1.9953  0.7554
  642MOL0     H84721   2.371   6.127   1.866 -2.3867 -0.9032  0.5737
  642MOL0     H84722   2.314   5.899   1.680  0.0410 -1.7082  1.8197
  642MOL0     H84723   2.218   5.958   1.817  0.7697  0.1068  1.2794
  642MOL0     H84724   2.297   6.111   1.557  1.4319 -1.4588  0.7930
  642MOL0     H84725   2.205   6.184   1.695 -0.0161  0.9589  0.1043
  642MOL0     H84726   3.041   5.757   2.248 -0.1954 -0.0550  2.5338
  642MOL0     H84727   3.218   5.696   2.409  1.3708  2.3246  4.0003
  642MOL0     H84728   3.681   5.689   2.578 -1.7687  0.4374 -0.8907
  642MOL0     H84729   3.844   5.691   2.747 -0.8738  0.3970 -1.6839
  642MOL0     H84730   5.204   5.377   3.292 -1.8623 -0.9457 -0.1586
  642MOL0     H84731   5.412   5.422   3.180 -0.5077 -1.2607 -1.5599
  642MOL0     H84732   5.637   5.985   3.025  2.2594  1.8885 -1.1976
  642MOL0     H84733   5.855   6.014   2.895  2.0681 -0.2740  0.2140
  642MOL0     H84734   6.084   5.692   2.689  1.4680 -1.5697 -0.1078
  642MOL0     H84735   6.132   5.652   2.848  2.0377 -1.3847 -1.7562
  642MOL0     H84736   6.243   5.872   2.683 -0.1077 -1.6331 -2.0881
  642MOL0     H84737   6.313   5.819   2.845  0.5348 -0.9477 -0.1518
  642MOL0     H84738   6.315   5.693   2.569  4.1069  1.8268 -2.2087
  642MOL0     H84739   6.345   5.605   2.714  2.1452  1.5988  3.4041
  642MOL0     H84740   6.516   5.853   2.706  0.8923 -0.5031  2.3736
  642MOL0     H84741   6.566   5.692   2.741  3.6295  1.5590 -0.5637
  642MOL0     H84742   6.666   5.737   2.345  2.0351 -0.0259  0.5223
  642MOL0     H84743   5.915   5.601   2.869  0.9383 -0.1326  0.8586
  642MOL0     H84744   5.703   5.557   2.948 -0.2329  0.5469  0.5343
  643MOL0     O84745   8.891   6.969   6.383  0.2545  0.0395  0.0179
  643MOL0     C84746   8.870   6.849   6.390 -0.2939  0.2928  0.9018
  643MOL0     O84747   8.763   6.777   6.336  0.2476  0.2004  0.0016
  643MOL0     C84748   8.653   6.839   6.279 -0.1577  0.1339 -0.5927
  643MOL0     C84749   8.602   6.968   6.319  0.4740 -0.2294 -0.1605
  643MOL0     C84750   8.493   7.027   6.249 -0.0823  0.3237  0.0693
  643MOL0     C84751   8.430   6.963   6.143 -0.1940 -0.1639  0.4578
  643MOL0     O84752   8.329   7.015   6.068  0.5556 -0.6055 -0.7939
  643MOL0     C84753   8.348   7.153   6.031  0.4587 -0.0230 -0.4943
  643MOL0     C84754   8.217   7.162   5.932 -1.0244 -0.7366 -0.2435
  643MOL0     C84755   8.189   7.313   5.906 -0.4244  0.4325 -1.4300
  643MOL0     C84756   8.069   7.317   5.827 -0.1146  0.1523  0.8468
  643MOL0     C84757   8.058   7.452   5.749  0.0055 -0.3392  0.3651
  643MOL0     C84758   7.932   7.440   5.658  0.4495  0.3995 -0.5365
  643MOL0     C84759   7.900   7.582   5.604  0.5541  0.5428 -0.6296
  643MOL0     C84760   7.996   7.653   5.507 -0.1858  0.8342  0.5232
  643MOL0     N84761   7.937   7.743   5.407  0.8261 -0.1113  0.1312
  643MOL0     C84762   7.931   7.706   5.278 -0.3559  0.0768  0.6208
  643MOL0     C84763   7.891   7.819   5.212  0.2099 -0.0419 -0.4959
  643MOL0     C84764   7.868   7.826   5.066 -0.8790  0.3951  0.3442
  643MOL0     C84765   7.910   7.953   5.002 -0.1245 -0.5253  0.2756
  643MOL0     C84766   7.845   7.968   4.864 -0.2878  0.1021  1.1773
  643MOL0     C84767   7.694   8.002   4.877  0.5890  0.2772  0.6343
  643MOL0     O84768   7.669   8.095   4.990 -0.6043  1.0108 -1.0165
  643MOL0     C84769   7.540   8.119   5.037  0.0499  0.3452 -0.2873
  643MOL0     C84770   7.523   8.193   5.155 -0.8164  1.0693  0.4636
  643MOL0     C84771   7.392   8.211   5.199 -0.2027 -0.1354 -0.0301
  643MOL0     C84772   7.280   8.162   5.127  0.2255  0.0457  0.1853
  643MOL0     C84773   7.143   8.165   5.196  0.0751 -0.2360 -0.4398
  643MOL0     O84774   7.128   8.251   5.292 -0.2141 -0.0622 -0.1473
  643MOL0     C84775   7.012   8.239   5.370  0.9458 -0.5222 -0.2484
  643MOL0     C84776   7.007   8.215   5.513  0.0930 -0.7514 -0.4383
  643MOL0     C84777   6.887   8.237   5.582  0.3296  0.6782 -0.5193
  643MOL0     C84778   6.771   8.272   5.517 -0.2996  0.7235 -1.2253
  643MOL0     O84779   6.647   8.299   5.565  0.6397  0.4024 -0.3631
  643MOL0     C84780   6.624   8.292   5.702  0.2482  0.2014  0.4850
  643MOL0     C84781   6.468   8.324   5.710 -0.1224  0.9743  0.3666
  643MOL0     C84782   6.372   8.224   5.645  0.4538  0.3241 -0.3918
  643MOL0     C84783   6.231   8.274   5.660  0.4406  0.7628  0.9572
  643MOL0     C84784   6.127   8.156   5.646  0.1206 -0.6587 -0.9375
  643MOL0     C84785   5.989   8.205   5.699 -0.7388 -0.5302  0.8366
  643MOL0     C84786   5.888   8.097   5.649  0.4022  0.3381 -0.1471
  643MOL0     C84787   5.742   8.126   5.675  0.4332  0.1725 -0.2691
  643MOL0    Cl84788   5.641   7.992   5.619 -0.4794 -0.0421 -0.1926
  643MOL0     C84789   6.778   8.281   5.375  0.4350  1.1987 -0.2974
  643MOL0     C84790   6.891   8.253   5.300  0.2355  0.1596 -0.7338
  643MOL0     O84791   7.062   8.078   5.164  0.0391  0.1483  0.8137
  643MOL0     C84792   7.301   8.091   5.017 -0.7910  0.3071  0.1546
  643MOL0     C84793   7.426   8.063   4.966 -0.1812 -0.7115  0.2141
  643MOL0     N84794   7.881   7.918   5.313  0.8026 -0.0658 -0.0593
  643MOL0     N84795   7.907   7.872   5.426 -0.5961 -0.3685 -0.0684
  643MOL0     C84796   8.484   6.845   6.105 -0.3067  0.1811  0.0628
  643MOL0     C84797   8.592   6.780   6.172 -0.2690 -0.6557  0.6865
  643MOL0     C84798   8.973   6.770   6.459 -0.8166 -0.6896  0.2747
  643MOL0     C84799   9.115   6.822   6.482  0.6082 -0.0883 -0.8888
  643MOL0     C84800   9.203   6.726   6.525  0.1300 -1.4620  0.6412
  643MOL0     C84801   9.169   6.600   6.569  0.2900 -0.0470  0.2026
  643MOL0     O84802   9.272   6.528   6.618  0.1216  0.4604 -0.0874
  643MOL0     C84803   9.248   6.383   6.626  0.7957 -0.0989  0.1552
  643MOL0     C84804   9.389   6.312   6.636  1.0384  0.3518  0.4283
  643MOL0     C84805   9.369   6.167   6.635  0.9025 -0.2955 -0.4564
  643MOL0     C84806   9.485   6.109   6.699 -0.3010 -0.0249 -0.1724
  643MOL0     C84807   9.463   6.126   6.841  0.4762 -0.0184  0.5109
  643MOL0     C84808   9.435   6.117   6.955 -1.3422 -0.2138  0.0282
  643MOL0     C84809   9.041   6.557   6.549 -0.3171  0.3937 -0.4547
  643MOL0     C84810   8.950   6.638   6.489 -0.8704  0.8548  0.4279
  643MOL0     H84811   8.649   7.019   6.403  1.3167  0.4422 -1.0232
  643MOL0     H84812   8.469   7.128   6.283  0.0344  0.5283 -0.4477
  643MOL0     H84813   8.441   7.182   5.981  1.1404 -1.6077 -0.2402
  643MOL0     H84814   8.334   7.227   6.110  0.6891  0.5110 -0.9493
  643MOL0     H84815   8.140   7.105   5.985 -0.8681 -0.0657  0.7221
  643MOL0     H84816   8.236   7.112   5.836 -2.7942 -2.4269  0.2072
  643MOL0     H84817   8.275   7.361   5.858  0.2628  1.8039  1.0079
  643MOL0     H84818   8.174   7.365   6.001 -1.0059  1.6386 -2.1579
  643MOL0     H84819   8.067   7.232   5.758 -2.9088  0.6116  0.2430
  643MOL0     H84820   7.982   7.312   5.893  0.5264  1.0476  1.7924
  643MOL0     H84821   8.145   7.459   5.683 -1.8356 -0.3573 -2.2372
  643MOL0     H84822   8.055   7.533   5.822 -2.1221 -0.8504  0.9067
  643MOL0     H84823   7.853   7.405   5.725  1.8913 -0.4112  0.8157
  643MOL0     H84824   7.943   7.368   5.576  5.3257 -0.7204  0.7484
  643MOL0     H84825   7.801   7.575   5.558  0.5631 -3.0580 -0.3328
  643MOL0     H84826   7.896   7.653   5.688 -1.7756  2.1010 -1.9478
  643MOL0     H84827   8.051   7.579   5.447 -1.6941  0.3921 -0.3524
  643MOL0     H84828   8.062   7.706   5.577  1.3545 -2.4651  1.7828
  643MOL0     H84829   7.946   7.611   5.229 -1.7987 -1.3091  2.6883
  643MOL0     H84830   7.761   7.812   5.045 -0.6393 -0.0649 -0.5993
  643MOL0     H84831   7.919   7.744   5.016  0.3347  1.4553 -0.2269
  643MOL0     H84832   8.018   7.944   4.982  0.0156 -1.3509  1.3270
  643MOL0     H84833   7.896   8.045   5.059 -2.3365  2.3029 -4.2438
  643MOL0     H84834   7.895   8.046   4.806  1.7744 -1.4152  0.7762
  643MOL0     H84835   7.859   7.874   4.811 -0.8207  0.9479 -0.5332
  643MOL0     H84836   7.639   7.909   4.893 -0.3350  1.0126  1.9717
  643MOL0     H84837   7.644   8.043   4.789  0.4521  0.4543  0.7942
  643MOL0     H84838   7.616   8.229   5.198  0.0867 -0.4526 -0.1680
  643MOL0     H84839   7.382   8.261   5.294 -1.0969  0.1073 -0.2422
  643MOL0     H84840   7.099   8.210   5.570 -0.6748 -0.8842  0.8192
  643MOL0     H84841   6.899   8.239   5.690  2.2919  2.6662 -0.6889
  643MOL0     H84842   6.681   8.369   5.755  2.0084 -1.4281  1.0773
  643MOL0     H84843   6.653   8.191   5.736  1.5255  0.3878  0.0069
  643MOL0     H84844   6.449   8.424   5.669  3.1860  1.8765  0.7310
  643MOL0     H84845   6.456   8.334   5.818  4.3270 -0.6674  1.2154
  643MOL0     H84846   6.389   8.131   5.702  4.2267 -1.1566 -3.4680
  643MOL0     H84847   6.394   8.199   5.541 -2.3432  1.5859 -1.3706
  643MOL0     H84848   6.219   8.318   5.759 -0.8349  2.8519 -0.0611
  643MOL0     H84849   6.207   8.351   5.587 -3.8250  1.1210  2.4405
  643MOL0     H84850   6.162   8.068   5.702  1.9613  0.7579  0.2499
  643MOL0     H84851   6.134   8.127   5.540  0.3944 -1.6746 -0.6570
  643MOL0     H84852   5.952   8.301   5.662 -3.4126 -2.5366 -2.2843
  643MOL0     H84853   5.995   8.200   5.808  2.3855 -4.8417  0.7347
  643MOL0     H84854   5.905   8.095   5.541  0.6971 -0.2996 -0.0905
  643MOL0     H84855   5.915   8.001   5.695 -1.2816 -0.5400 -0.8983
  643MOL0     H84856   5.717   8.221   5.626  1.3025  0.3132 -0.4550
  643MOL0     H84857   5.729   8.122   5.784  0.1364 -0.4788 -0.3249
  643MOL0     H84858   6.686   8.308   5.323 -0.7074 -3.5875 -1.2149
  643MOL0     H84859   6.891   8.252   5.191 -1.4465  1.5896 -0.7935
  643MOL0     H84860   7.217   8.052   4.960 -0.9940  1.1400 -0.1322
  643MOL0     H84861   7.433   8.003   4.876 -3.7689 -1.7132  0.4470
  643MOL0     H84862   8.419   6.787   6.040 -1.3676  1.4025 -0.0059
  643MOL0     H84863   8.602   6.673   6.165 -3.0998 -0.9957  0.5195
  643MOL0     H84864   9.135   6.926   6.459 -3.4639  1.5574  1.7630
  643MOL0     H84865   9.306   6.754   6.545  0.2604 -2.1356  0.9391
  643MOL0     H84866   9.199   6.333   6.542  3.0483  0.5570 -1.6790
  643MOL0     H84867   9.175   6.374   6.706 -4.7027  5.8891 -3.2066
  643MOL0     H84868   9.453   6.344   6.554 -0.9521 -1.3917 -1.9536
  643MOL0     H84869   9.434   6.347   6.729  0.9471 -0.9091  0.9702
  643MOL0     H84870   9.353   6.128   6.534  0.3210  0.4553 -0.6702
  643MOL0     H84871   9.282   6.147   6.698  1.6466 -2.0412  0.0826
  643MOL0     H84872   9.494   6.002   6.673 -2.0139 -0.1316 -0.4106
  643MOL0     H84873   9.580   6.160   6.683 -1.2029  2.4700  1.7959
  643MOL0     H84874   9.415   6.115   7.060  2.9308 -0.6000  1.0252
  643MOL0     H84875   9.003   6.458   6.572 -2.0690  0.4662 -2.6684
  643MOL0     H84876   8.849   6.602   6.471 -0.6029  1.3873 -2.5328
  644MOL0     O84877   8.261  11.068   9.489 -0.5069 -0.3981  0.4054
  644MOL0     C84878   8.381  11.109   9.476  0.4745 -0.5971  0.5238
  644MOL0     O84879   8.491  11.036   9.504 -0.0798  0.8239 -0.9425
  644MOL0     C84880   8.485  10.929   9.597 -0.8730  0.1939  0.4188
  644MOL0     C84881   8.380  10.915   9.688 -0.9423 -0.1536 -0.3045
  644MOL0     C84882   8.374  10.805   9.780  0.8254 -1.4377  0.5224
  644MOL0     C84883   8.477  10.707   9.775  0.3449 -0.1035  0.2102
  644MOL0     O84884   8.489  10.601   9.855 -0.2192  0.1006 -0.3490
  644MOL0     C84885   8.428  10.606   9.986  0.0694 -0.4056  0.9363
  644MOL0     C84886   8.481  10.500  10.069  0.2605  0.3930  0.1721
  644MOL0     C84887   8.450  10.361  10.011 -0.2007 -0.8973  0.3263
  644MOL0     C84888   8.302  10.324  10.004  0.2740  0.2209 -0.0940
  644MOL0     C84889   8.281  10.189   9.934  1.1240 -0.3071  0.4880
  644MOL0     C84890   8.129  10.178   9.904  0.1873  0.1363  1.2671
  644MOL0     C84891   8.104  10.065   9.805  0.1398  0.2535 -0.4535
  644MOL0     C84892   7.957  10.007   9.801 -0.7355 -0.5744  0.4380
  644MOL0     N84893   7.858  10.108   9.803  1.2748 -0.3862 -0.0843
  644MOL0     C84894   7.807  10.165   9.688  0.3402 -0.8112 -0.0667
  644MOL0     C84895   7.734  10.269   9.723  0.4033 -0.2424  0.1900
  644MOL0     C84896   7.664  10.382   9.651  0.8368  0.5223 -0.4483
  644MOL0     C84897   7.511  10.361   9.642  0.1539  0.7956 -0.2845
  644MOL0     C84898   7.449  10.336   9.781  0.7650 -0.0890 -0.0643
  644MOL0     C84899   7.303  10.335   9.797  0.7868 -0.3238 -0.4765
  644MOL0     O84900   7.238  10.269   9.690  0.4032 -0.0326 -0.0367
  644MOL0     C84901   7.118  10.202   9.703  0.5204 -1.2449  0.2303
  644MOL0     C84902   7.040  10.194   9.822  0.3694 -0.4445  0.4691
  644MOL0     C84903   6.922  10.116   9.826  0.9595  0.2217  0.2509
  644MOL0     C84904   6.871  10.051   9.716 -0.3677  0.3007  1.2015
  644MOL0     C84905   6.732   9.987   9.719 -0.1131 -0.2340 -0.2216
  644MOL0     O84906   6.685   9.959   9.597 -0.1634 -0.6426  0.5548
  644MOL0     C84907   6.554   9.902   9.575 -0.3023 -1.2882  0.5342
  644MOL0     C84908   6.553   9.831   9.459  0.9589  0.7514 -0.3642
  644MOL0     C84909   6.436   9.766   9.410 -0.5914  0.0228  0.2468
  644MOL0     C84910   6.311   9.782   9.471 -0.0889 -0.5324  1.1394
  644MOL0     O84911   6.196   9.740   9.413  0.0170 -0.1725  0.4312
  644MOL0     C84912   6.183   9.767   9.273  0.3141 -0.7149  0.0021
  644MOL0     C84913   6.035   9.769   9.253  0.5477 -0.0338 -0.0015
  644MOL0     C84914   5.948   9.878   9.327  0.3845 -0.5376 -0.6240
  644MOL0     C84915   5.809   9.820   9.357  1.2136 -0.4388 -0.5200
  644MOL0     C84916   5.735   9.943   9.423 -0.3817 -0.0945  0.1613
  644MOL0     C84917   5.593   9.895   9.479  0.3439 -0.0678  0.4653
  644MOL0     C84918   5.517   9.826   9.365  0.8256 -0.5755 -0.6559
  644MOL0     C84919   5.368   9.799   9.393 -0.8237  0.3676 -0.0235
  644MOL0    Cl84920   5.355   9.719   9.555  0.0026 -0.0246 -0.7432
  644MOL0     C84921   6.314   9.858   9.594 -1.2020  0.3212 -0.1250
  644MOL0     C84922   6.436   9.911   9.645  0.8385  0.2417 -0.4077
  644MOL0     O84923   6.663   9.978   9.823 -0.0586 -0.6183 -0.0109
  644MOL0     C84924   6.945  10.062   9.592 -0.2979 -0.0373 -0.5637
  644MOL0     C84925   7.060  10.135   9.595 -0.3030 -0.6252 -0.7379
  644MOL0     N84926   7.741  10.273   9.860  0.0983 -0.2888  0.1279
  644MOL0     N84927   7.817  10.183   9.905  0.5786 -0.8178 -0.0705
  644MOL0     C84928   8.578  10.720   9.681  0.3658 -0.3835  0.3475
  644MOL0     C84929   8.586  10.828   9.598 -0.5533  0.3929  0.2514
  644MOL0     C84930   8.414  11.245   9.427 -0.4000 -0.5849  0.2713
  644MOL0     C84931   8.552  11.287   9.391  0.2351 -0.1056  0.5310
  644MOL0     C84932   8.580  11.425   9.369 -1.7147  0.0452 -0.2974
  644MOL0     C84933   8.476  11.517   9.372 -0.0544 -0.2846 -0.1711
  644MOL0     O84934   8.485  11.651   9.349  0.2081  0.5603  0.4370
  644MOL0     C84935   8.616  11.696   9.304  0.3031 -0.4145  0.1017
  644MOL0     C84936   8.604  11.830   9.239 -0.1609 -0.1139  0.6991
  644MOL0     C84937   8.562  11.951   9.330  0.0688  0.6535  0.4358
  644MOL0     C84938   8.608  12.089   9.265 -0.3828  0.3326 -0.2409
  644MOL0     C84939   8.749  12.133   9.272  0.1587 -0.0503  0.2000
  644MOL0     C84940   8.871  12.161   9.298 -0.2708 -0.5644  0.0031
  644MOL0     C84941   8.344  11.481   9.416 -0.7492 -0.0006  0.1948
  644MOL0     C84942   8.318  11.347   9.439 -0.3922 -1.0915 -0.0742
  644MOL0     H84943   8.309  10.997   9.697 -2.3926 -1.2316 -1.3743
  644MOL0     H84944   8.298  10.804   9.857  0.0848 -0.0974 -0.1532
  644MOL0     H84945   8.319  10.605   9.973  0.4139 -1.6182 -6.1390
  644MOL0     H84946   8.454  10.701  10.032  0.0761  0.3344 -0.5181
  644MOL0     H84947   8.433  10.509  10.167  2.4048 -0.3676  1.3665
  644MOL0     H84948   8.589  10.512  10.078  0.4786 -0.9889 -0.3989
  644MOL0     H84949   8.499  10.284  10.073  1.5064 -2.1246 -2.3733
  644MOL0     H84950   8.493  10.361   9.911  1.9878  2.3381  1.1253
  644MOL0     H84951   8.253  10.309  10.101 -2.4758  2.2860 -1.0194
  644MOL0     H84952   8.242  10.400   9.953 -0.4824  0.1722  0.6889
  644MOL0     H84953   8.322  10.106   9.994 -0.4306 -3.1187 -2.0733
  644MOL0     H84954   8.328  10.170   9.838  0.1381 -0.9131  0.1062
  644MOL0     H84955   8.093  10.273   9.863 -1.7822 -2.2178 -3.1634
  644MOL0     H84956   8.071  10.160   9.996 -2.1187  2.3235  0.3454
  644MOL0     H84957   8.129  10.100   9.704 -0.1415  0.3904 -0.4783
  644MOL0     H84958   8.162   9.976   9.830 -1.0752 -0.0288  1.6277
  644MOL0     H84959   7.963   9.954   9.896  1.1023  0.0698  0.7227
  644MOL0     H84960   7.942   9.941   9.715  1.9401  0.8107 -1.2505
  644MOL0     H84961   7.817  10.115   9.592 -1.9485  1.1501 -1.4435
  644MOL0     H84962   7.696  10.382   9.547  1.8840  1.7557 -0.1474
  644MOL0     H84963   7.681  10.479   9.697  0.3806  0.6417 -0.5248
  644MOL0     H84964   7.491  10.272   9.583  1.1069 -0.1529  0.7837
  644MOL0     H84965   7.460  10.451   9.605  1.9704  1.8784 -0.3037
  644MOL0     H84966   7.469  10.234   9.814 -2.9559 -0.9567 -0.1347
  644MOL0     H84967   7.496  10.414   9.841 -1.3347  0.3706  1.0336
  644MOL0     H84968   7.268  10.437   9.817  2.0089  0.2978 -1.4139
  644MOL0     H84969   7.287  10.281   9.891 -0.7618 -2.7757 -2.0601
  644MOL0     H84970   7.084  10.249   9.905  3.7070 -3.3418  0.8240
  644MOL0     H84971   6.871  10.103   9.921 -0.8225 -1.3726 -0.8477
  644MOL0     H84972   6.635   9.839   9.389  1.0666  1.5153 -0.1529
  644MOL0     H84973   6.441   9.718   9.313 -0.7991 -0.2113  0.3491
  644MOL0     H84974   6.238   9.699   9.207  4.0998  0.9540  1.1589
  644MOL0     H84975   6.225   9.864   9.246 -0.1964 -1.4279 -3.9727
  644MOL0     H84976   5.992   9.672   9.276  1.5272 -1.0005 -1.9523
  644MOL0     H84977   6.005   9.776   9.148  0.9522  1.9005 -0.0231
  644MOL0     H84978   5.938   9.971   9.269  2.8803  1.2870  1.6151
  644MOL0     H84979   6.005   9.910   9.415 -0.9270  0.0547  0.0417
  644MOL0     H84980   5.756   9.772   9.275  0.2236 -1.0439  0.4545
  644MOL0     H84981   5.816   9.733   9.423 -2.9443 -2.2810 -2.1672
  644MOL0     H84982   5.716  10.027   9.356  3.4083  2.9554  2.5116
  644MOL0     H84983   5.797   9.990   9.499  2.2655 -0.4475 -1.6452
  644MOL0     H84984   5.543   9.986   9.513  3.5767  3.9671 -4.2880
  644MOL0     H84985   5.608   9.838   9.571 -2.2339 -1.5786  0.0622
  644MOL0     H84986   5.516   9.895   9.280  0.6171  1.6527  1.0572
  644MOL0     H84987   5.559   9.728   9.340  0.8362 -0.5470 -0.7479
  644MOL0     H84988   5.336   9.729   9.315 -0.3866 -2.5451  2.2170
  644MOL0     H84989   5.318   9.896   9.386  0.2861  0.8828 -1.1263
  644MOL0     H84990   6.214   9.875   9.632 -1.3711  0.9672 -0.8300
  644MOL0     H84991   6.430   9.973   9.734 -0.8102  0.1118 -0.3837
  644MOL0     H84992   6.913  10.004   9.506 -0.1579  1.0457 -1.3699
  644MOL0     H84993   7.122  10.129   9.505 -0.1000  2.5279 -0.9460
  644MOL0     H84994   8.649  10.638   9.682 -0.4167 -1.1170 -0.9318
  644MOL0     H84995   8.669  10.837   9.530 -0.1479 -0.1380  0.6674
  644MOL0     H84996   8.630  11.212   9.386  0.8545  0.5724 -0.2729
  644MOL0     H84997   8.682  11.460   9.359 -2.2938  1.1496 -3.3301
  644MOL0     H84998   8.667  11.628   9.236 -1.2590  0.1932 -1.7728
  644MOL0     H84999   8.693  11.705   9.381  0.4390 -1.5505  0.1063
  644MOL0     H85000   8.703  11.855   9.201  0.3235  1.9930  3.0650
  644MOL0     H85001   8.537  11.828   9.152  1.1663  3.1365 -0.5660
  644MOL0     H85002   8.599  11.947   9.433 -1.4219  0.5463  0.9911
  644MOL0     H85003   8.454  11.958   9.339  0.1022  0.0613  1.4573
  644MOL0     H85004   8.571  12.089   9.162 -0.2799 -0.5744 -0.2915
  644MOL0     H85005   8.559  12.169   9.321  1.2201  1.3884 -0.2905
  644MOL0     H85006   8.971  12.180   9.329 -0.6959 -0.2725  1.2382
  644MOL0     H85007   8.266  11.555   9.433 -1.5795 -0.2697 -2.1181
  644MOL0     H85008   8.217  11.327   9.472 -0.3560  0.5224  1.1623
  645MOL0     O85009   4.873   3.893   8.889  0.1861 -0.1028  0.6402
  645MOL0     C85010   4.814   3.960   8.969  0.2552 -1.2004 -0.0570
  645MOL0     O85011   4.674   3.957   8.996  0.2659 -0.6394 -0.1036
  645MOL0     C85012   4.604   3.864   8.921 -0.1365 -0.3901  0.1797
  645MOL0     C85013   4.552   3.754   8.986  0.3790  0.5571 -0.0587
  645MOL0     C85014   4.467   3.662   8.908 -0.1126  0.3128 -1.1525
  645MOL0     C85015   4.417   3.691   8.781 -0.9412  0.0362 -0.6228
  645MOL0     O85016   4.313   3.618   8.712 -0.5419  1.2279  1.2647
  645MOL0     C85017   4.221   3.539   8.794 -0.5281  0.3658 -0.6161
  645MOL0     C85018   4.093   3.512   8.712  0.3039 -0.1490  1.2276
  645MOL0     C85019   3.972   3.456   8.772  0.1942  0.4146 -0.3740
  645MOL0     C85020   3.900   3.561   8.864  0.7603 -0.2899 -0.8249
  645MOL0     C85021   3.754   3.535   8.900  0.0410  0.0113  0.4689
  645MOL0     C85022   3.720   3.408   8.965 -0.0295 -0.0958 -0.1648
  645MOL0     C85023   3.587   3.415   9.035 -0.0869  0.5233  0.0604
  645MOL0     C85024   3.470   3.397   8.941  0.2310  0.2090 -0.0172
  645MOL0     N85025   3.352   3.350   9.017  0.0442 -0.7653  0.4807
  645MOL0     C85026   3.297   3.221   9.012 -0.0551  0.2389  0.0399
  645MOL0     C85027   3.192   3.231   9.086 -0.2109  0.2432 -0.4353
  645MOL0     C85028   3.103   3.117   9.120 -0.1216 -0.7438  0.0771
  645MOL0     C85029   2.968   3.144   9.056  0.3296  0.1696  0.1851
  645MOL0     C85030   2.864   3.032   9.105 -0.7136 -0.3634  0.0016
  645MOL0     C85031   2.733   3.059   9.043 -0.1526  0.4260 -0.0342
  645MOL0     O85032   2.657   2.954   9.087  0.2322 -0.3800 -0.3476
  645MOL0     C85033   2.524   2.930   9.038 -0.8419  0.0456 -0.7610
  645MOL0     C85034   2.455   3.005   8.942 -0.0707  0.1933  0.0565
  645MOL0     C85035   2.334   2.969   8.900 -0.3714  1.1475  0.6194
  645MOL0     C85036   2.276   2.854   8.955  0.2743 -0.6614  0.4410
  645MOL0     C85037   2.142   2.817   8.908 -0.6422 -0.1252  0.8228
  645MOL0     O85038   2.105   2.877   8.790 -0.8408 -0.7636  0.3260
  645MOL0     C85039   1.970   2.856   8.764 -0.1473 -0.6027 -0.1523
  645MOL0     C85040   1.880   2.948   8.813 -0.1534  0.1365 -0.4543
  645MOL0     C85041   1.742   2.918   8.794 -0.7380  0.1465  0.3327
  645MOL0     C85042   1.693   2.805   8.710  0.5834 -0.7934  0.4370
  645MOL0     O85043   1.567   2.767   8.683  0.2991 -0.2637  1.0313
  645MOL0     C85044   1.467   2.833   8.757  0.4985  0.1913 -0.2870
  645MOL0     C85045   1.331   2.796   8.684 -0.4947  0.0119  0.7787
  645MOL0     C85046   1.221   2.880   8.748  0.0530  0.1574  0.4419
  645MOL0     C85047   1.153   2.811   8.877  0.2984 -0.5284  0.1417
  645MOL0     C85048   1.066   2.890   8.974  0.7482 -1.0371  0.1549
  645MOL0     C85049   0.961   2.976   8.900 -0.7572 -0.1471 -0.2202
  645MOL0     C85050   0.873   3.024   9.024  1.1965 -0.5718 -0.5510
  645MOL0     C85051   0.731   3.083   9.001 -0.2007  0.5725  0.4455
  645MOL0    Cl85052   0.638   2.950   8.920 -0.0425  0.0889  0.1494
  645MOL0     C85053   1.795   2.735   8.653  0.7616  0.6382 -0.7385
  645MOL0     C85054   1.927   2.749   8.682  0.8446 -0.1846  0.4228
  645MOL0     O85055   2.078   2.734   8.972 -0.0721  0.2114  0.9878
  645MOL0     C85056   2.337   2.783   9.042  1.0256  0.0999 -0.9228
  645MOL0     C85057   2.460   2.813   9.084  0.1679 -0.2028  0.9133
  645MOL0     N85058   3.171   3.366   9.125 -0.2745  0.3369 -0.3171
  645MOL0     N85059   3.268   3.437   9.077 -0.1393 -0.1922  0.2186
  645MOL0     C85060   4.474   3.809   8.723 -0.2446 -0.2322 -0.1723
  645MOL0     C85061   4.574   3.890   8.783 -0.2524  1.2349 -0.0810
  645MOL0     C85062   4.893   4.071   9.028  0.6049  0.1105  0.8524
  645MOL0     C85063   5.029   4.050   9.070  0.0125 -0.9463 -0.0988
  645MOL0     C85064   5.091   4.144   9.153 -0.0139  0.1659  1.0432
  645MOL0     C85065   5.017   4.261   9.186  0.3948 -0.2072  0.8290
  645MOL0     O85066   5.087   4.366   9.247 -0.0964 -0.1109  0.5309
  645MOL0     C85067   5.032   4.489   9.301  0.1521  0.6810  0.0320
  645MOL0     C85068   5.072   4.592   9.198  0.3433 -0.0095 -0.3341
  645MOL0     C85069   5.043   4.738   9.242  0.4343  0.3659  1.2281
  645MOL0     C85070   5.100   4.856   9.150 -0.4263  0.4478  0.3593
  645MOL0     C85071   5.117   4.826   9.005  0.9755  0.0963  0.2239
  645MOL0     C85072   5.120   4.795   8.889 -0.3131 -0.7188  0.8363
  645MOL0     C85073   4.886   4.279   9.145  0.3740 -1.1044 -0.3342
  645MOL0     C85074   4.822   4.190   9.060  0.0880  1.0303  0.3870
  645MOL0     H85075   4.571   3.733   9.091 -1.1052 -0.1994  0.0834
  645MOL0     H85076   4.438   3.571   8.960  1.7772 -0.6545 -1.6793
  645MOL0     H85077   4.188   3.610   8.871  1.9657  1.1850 -0.2025
  645MOL0     H85078   4.261   3.456   8.852  2.1119  3.0080  1.6774
  645MOL0     H85079   4.123   3.445   8.630  0.4896 -1.5604  2.3967
  645MOL0     H85080   4.059   3.605   8.666 -4.3826 -2.4256 -0.5345
  645MOL0     H85081   3.998   3.367   8.830 -4.4396 -0.9844 -0.0746
  645MOL0     H85082   3.899   3.426   8.696  2.1280  1.5674 -2.8552
  645MOL0     H85083   3.951   3.587   8.957  0.2584  1.6348 -1.0546
  645MOL0     H85084   3.900   3.663   8.824  0.2122  1.1640  2.5652
  645MOL0     H85085   3.690   3.542   8.812  0.6531  0.6997  0.0628
  645MOL0     H85086   3.728   3.627   8.954  0.5302 -0.9880  2.4879
  645MOL0     H85087   3.794   3.374   9.038  0.3160 -2.2811 -1.4348
  645MOL0     H85088   3.725   3.330   8.889  0.3627  2.4992 -3.0375
  645MOL0     H85089   3.581   3.327   9.099  2.5219 -0.9145 -1.4899
  645MOL0     H85090   3.574   3.496   9.107 -1.7441  2.0299 -1.8201
  645MOL0     H85091   3.487   3.311   8.875 -2.9628 -0.9894  0.5355
  645MOL0     H85092   3.461   3.492   8.887 -1.0699  0.2480  0.2487
  645MOL0     H85093   3.335   3.131   8.967  1.2802  2.1467 -2.9537
  645MOL0     H85094   3.098   3.095   9.227  0.4521  0.6193  0.4041
  645MOL0     H85095   3.145   3.021   9.089 -0.2768 -0.7523 -0.1090
  645MOL0     H85096   2.970   3.145   8.947 -2.9457 -2.2518 -0.0575
  645MOL0     H85097   2.938   3.240   9.099  1.8242  0.2766  1.0414
  645MOL0     H85098   2.887   2.925   9.094  0.5525 -0.1595  0.4791
  645MOL0     H85099   2.852   3.037   9.214 -3.9644  0.8846 -0.2997
  645MOL0     H85100   2.744   3.055   8.934 -2.6402  1.7267 -0.4118
  645MOL0     H85101   2.690   3.159   9.059 -2.1685 -0.3450 -0.2633
  645MOL0     H85102   2.496   3.092   8.891  0.3191  1.4341  2.3645
  645MOL0     H85103   2.285   3.036   8.830  1.2725  0.1834 -1.5720
  645MOL0     H85104   1.922   3.031   8.869  0.6257 -0.4569 -0.1373
  645MOL0     H85105   1.677   2.991   8.841  2.6941  1.4383  3.4945
  645MOL0     H85106   1.479   2.942   8.750  2.8505 -0.0397 -0.5485
  645MOL0     H85107   1.460   2.806   8.863 -0.2576  2.3591  0.2738
  645MOL0     H85108   1.320   2.688   8.693  2.4895 -0.4357  0.0835
  645MOL0     H85109   1.336   2.812   8.576 -0.7919 -0.7983  0.6373
  645MOL0     H85110   1.141   2.900   8.676 -0.0668 -0.6227  0.3516
  645MOL0     H85111   1.266   2.977   8.771  0.6316  0.0870 -0.3457
  645MOL0     H85112   1.097   2.725   8.840  0.0927  0.5009 -2.0729
  645MOL0     H85113   1.244   2.769   8.921  2.7050  2.3332 -1.7428
  645MOL0     H85114   1.130   2.963   9.025 -0.4330  0.1759 -0.0591
  645MOL0     H85115   1.026   2.819   9.047 -0.6002 -1.0986 -0.6297
  645MOL0     H85116   0.887   2.923   8.839 -0.9197 -0.5440  0.3162
  645MOL0     H85117   0.991   3.067   8.847 -1.8825  1.9941  2.5709
  645MOL0     H85118   0.862   2.947   9.101 -1.2539 -1.0288 -1.2592
  645MOL0     H85119   0.932   3.106   9.066  1.5654  0.1965 -2.4482
  645MOL0     H85120   0.750   3.161   8.927  0.1146  2.0814  2.0566
  645MOL0     H85121   0.666   3.124   9.078 -2.0445  1.5457 -1.5444
  645MOL0     H85122   1.773   2.653   8.586 -2.0468 -1.4369  2.4185
  645MOL0     H85123   1.997   2.684   8.631 -0.4352 -1.6853  0.4809
  645MOL0     H85124   2.289   2.697   9.088  1.6256  1.8967  3.6198
  645MOL0     H85125   2.514   2.753   9.157  1.0756  0.1172  0.5298
  645MOL0     H85126   4.441   3.828   8.621 -0.4885 -0.7474 -0.1918
  645MOL0     H85127   4.633   3.968   8.737 -0.3296  2.0005  1.0761
  645MOL0     H85128   5.079   3.955   9.053 -4.1222 -3.5608  1.0834
  645MOL0     H85129   5.191   4.141   9.196  0.2059 -2.1641  0.4957
  645MOL0     H85130   5.078   4.505   9.399  1.7829 -1.1444 -0.3632
  645MOL0     H85131   4.925   4.496   9.318  0.5584  2.0780  2.3629
  645MOL0     H85132   5.178   4.572   9.180  0.4680 -0.3090  0.6735
  645MOL0     H85133   5.018   4.576   9.103 -1.8361 -1.2111  1.0230
  645MOL0     H85134   5.083   4.750   9.344  0.9344  1.7888  0.8907
  645MOL0     H85135   4.934   4.743   9.250  0.2662 -0.7115 -0.1069
  645MOL0     H85136   5.035   4.941   9.174  1.1697  0.9512  3.2441
  645MOL0     H85137   5.201   4.873   9.187  1.2892 -3.9725 -1.5565
  645MOL0     H85138   5.119   4.757   8.789 -2.5444  0.8220  0.1856
  645MOL0     H85139   4.840   4.372   9.177  2.4092  0.0090 -0.4832
  645MOL0     H85140   4.717   4.198   9.035 -0.1791 -1.3418  0.4737
  646MOL0     O85141   5.505   1.899   8.601 -0.4626  0.6271  0.4568
  646MOL0     C85142   5.403   1.858   8.546 -0.2809 -0.0683  0.6472
  646MOL0     O85143   5.390   1.798   8.415 -0.1656 -0.3807 -0.4891
  646MOL0     C85144   5.480   1.821   8.318 -0.4497  1.2598  0.3203
  646MOL0     C85145   5.500   1.727   8.217 -0.1796 -0.0108  0.2673
  646MOL0     C85146   5.604   1.737   8.123  1.1131 -0.6598  0.5996
  646MOL0     C85147   5.694   1.844   8.125  0.2980 -0.8336 -0.4863
  646MOL0     O85148   5.781   1.855   8.012  0.5385 -0.3203  0.5579
  646MOL0     C85149   5.828   1.980   7.974  0.3699  0.7240  0.2838
  646MOL0     C85150   5.868   1.960   7.828 -0.6673 -0.0645  0.6779
  646MOL0     C85151   5.931   2.089   7.793  0.6586  0.1889 -0.6393
  646MOL0     C85152   5.996   2.099   7.652  0.2046 -0.3975 -0.8656
  646MOL0     C85153   6.008   2.247   7.614 -0.2776  0.3191 -0.0278
  646MOL0     C85154   6.063   2.270   7.471  0.5544 -0.0162 -0.7550
  646MOL0     C85155   6.076   2.416   7.455 -0.0635  0.0461 -0.3667
  646MOL0     C85156   6.143   2.440   7.327 -0.7696 -0.3335  0.0532
  646MOL0     N85157   6.289   2.432   7.347 -0.3694 -0.4322  0.3545
  646MOL0     C85158   6.355   2.521   7.421 -0.2853  0.8573 -0.4129
  646MOL0     C85159   6.480   2.464   7.431  0.3890  0.4102 -0.3261
  646MOL0     C85160   6.603   2.524   7.487 -0.1877  0.0209 -0.4624
  646MOL0     C85161   6.658   2.450   7.609 -0.4651  0.4892  0.4679
  646MOL0     C85162   6.577   2.452   7.739 -0.5993 -0.1298 -0.0292
  646MOL0     C85163   6.646   2.368   7.845 -0.2198 -0.9308 -0.4113
  646MOL0     O85164   6.599   2.395   7.982 -0.7765  0.2747  0.1521
  646MOL0     C85165   6.480   2.360   8.030  1.5591 -0.1301  0.7835
  646MOL0     C85166   6.444   2.420   8.148  0.6866  0.0723 -0.0987
  646MOL0     C85167   6.321   2.392   8.199  0.3120  0.9955 -0.6296
  646MOL0     C85168   6.222   2.312   8.133  0.3176  0.0712 -0.8268
  646MOL0     C85169   6.088   2.275   8.194 -0.4598 -0.5544  0.2993
  646MOL0     O85170   6.059   2.342   8.309 -0.0383  0.1275 -0.2917
  646MOL0     C85171   5.957   2.295   8.393  0.1375  0.2818 -0.1697
  646MOL0     C85172   5.911   2.387   8.484  0.4659  0.1818  0.4832
  646MOL0     C85173   5.814   2.361   8.580 -0.5964 -0.7852 -0.5554
  646MOL0     C85174   5.769   2.230   8.590  0.3676  0.0025 -0.0477
  646MOL0     O85175   5.711   2.178   8.706 -0.4266 -0.7547 -0.5720
  646MOL0     C85176   5.618   2.272   8.774 -0.7260  0.0818  0.1293
  646MOL0     C85177   5.542   2.194   8.891  0.6793  0.3772 -0.5561
  646MOL0     C85178   5.428   2.274   8.972 -0.4883 -0.4399 -0.2911
  646MOL0     C85179   5.327   2.179   9.036 -0.7246  0.6284  0.6542
  646MOL0     C85180   5.197   2.253   9.072 -0.0572 -0.0453  0.1174
  646MOL0     C85181   5.093   2.283   8.962  0.0949  0.3784  0.7728
  646MOL0     C85182   4.951   2.321   9.015  0.2761  0.8024  0.2287
  646MOL0     C85183   4.860   2.366   8.905 -0.3104  0.5341  0.7628
  646MOL0    Cl85184   4.837   2.265   8.753  0.1600  0.5163  0.1636
  646MOL0     C85185   5.802   2.137   8.497 -0.5684 -0.0584 -1.0224
  646MOL0     C85186   5.895   2.171   8.399  0.0346 -0.2059  0.6281
  646MOL0     O85187   6.007   2.216   8.125 -0.0666 -0.4583  0.0875
  646MOL0     C85188   6.255   2.257   8.021 -0.0953  0.8743  1.1037
  646MOL0     C85189   6.383   2.278   7.958  0.2018 -1.7926 -0.9631
  646MOL0     N85190   6.473   2.336   7.387 -0.3302  0.2132 -0.4003
  646MOL0     N85191   6.359   2.319   7.325 -1.0728 -0.1406 -1.1972
  646MOL0     C85192   5.665   1.947   8.213 -0.0396  0.5265 -0.5418
  646MOL0     C85193   5.565   1.933   8.311 -0.4340  0.1480  0.7337
  646MOL0     C85194   5.284   1.859   8.628  0.3667 -0.5462 -0.3633
  646MOL0     C85195   5.159   1.852   8.563  0.2225 -0.1434  0.5372
  646MOL0     C85196   5.040   1.857   8.638  0.2309  0.6342 -0.5310
  646MOL0     C85197   5.042   1.857   8.775  0.8595  0.2849  0.7882
  646MOL0     O85198   4.934   1.871   8.854  0.1458  0.5243  0.0032
  646MOL0     C85199   4.810   1.904   8.794  0.7658  0.0181 -0.8632
  646MOL0     C85200   4.726   1.960   8.898  0.5645 -0.1631  0.1714
  646MOL0     C85201   4.585   1.984   8.842  1.0263 -0.0592  0.1462
  646MOL0     C85202   4.513   2.090   8.925  0.2928 -0.1866 -0.8330
  646MOL0     C85203   4.495   2.055   9.070  0.0897 -0.3730  0.3292
  646MOL0     C85204   4.483   2.030   9.187  0.1053  0.2630  0.3179
  646MOL0     C85205   5.161   1.869   8.846  0.3844  0.3555 -0.1704
  646MOL0     C85206   5.285   1.869   8.771 -0.1861  0.5953  0.0544
  646MOL0     H85207   5.441   1.636   8.216  1.6430 -1.2343  0.1571
  646MOL0     H85208   5.605   1.653   8.054 -2.3283 -2.3038  2.2592
  646MOL0     H85209   5.921   1.985   8.032  0.8355  1.6424 -0.5209
  646MOL0     H85210   5.756   2.062   7.985 -1.2814 -0.8734  2.6579
  646MOL0     H85211   5.785   1.935   7.761  1.7578 -1.2454 -2.1394
  646MOL0     H85212   5.957   1.897   7.815  0.3377  1.3930  0.1239
  646MOL0     H85213   6.010   2.104   7.867  0.8322 -0.1606 -0.7548
  646MOL0     H85214   5.851   2.162   7.810 -2.4478 -3.6367  3.1821
  646MOL0     H85215   6.085   2.036   7.654  0.8207  0.4713 -0.2644
  646MOL0     H85216   5.924   2.046   7.587 -1.7982 -0.7952  1.5152
  646MOL0     H85217   6.095   2.277   7.674  1.0357  1.5187 -2.3856
  646MOL0     H85218   5.920   2.305   7.644  0.8763  3.4957 -2.2728
  646MOL0     H85219   6.005   2.226   7.390  0.9463 -3.5898  0.7527
  646MOL0     H85220   6.160   2.221   7.460  0.4012 -0.9762  1.5289
  646MOL0     H85221   5.977   2.460   7.439 -0.3445 -0.7556 -0.8534
  646MOL0     H85222   6.130   2.463   7.538  3.1112  2.1962 -3.3551
  646MOL0     H85223   6.123   2.541   7.289 -0.1467 -0.0771  0.3858
  646MOL0     H85224   6.110   2.365   7.255 -1.0702 -0.7039  0.5703
  646MOL0     H85225   6.336   2.626   7.441 -2.1472  0.2116  1.5788
  646MOL0     H85226   6.562   2.622   7.513 -0.3800  0.5060 -2.4475
  646MOL0     H85227   6.689   2.533   7.421  2.5461 -1.3076  2.6207
  646MOL0     H85228   6.758   2.487   7.633  0.8243 -1.5690 -1.3653
  646MOL0     H85229   6.675   2.346   7.581  0.9933  0.6259  0.7286
  646MOL0     H85230   6.559   2.554   7.774 -4.5512 -1.3234  2.0641
  646MOL0     H85231   6.481   2.406   7.713 -0.0900 -2.1703  1.4101
  646MOL0     H85232   6.751   2.398   7.838 -1.5175  4.3261 -2.2407
  646MOL0     H85233   6.647   2.261   7.824 -1.4506 -0.9679 -0.3338
  646MOL0     H85234   6.517   2.482   8.198  1.0648 -2.0460  2.1299
  646MOL0     H85235   6.283   2.437   8.290 -1.0402  0.7703 -1.0629
  646MOL0     H85236   5.956   2.485   8.472 -0.1151  0.4903  0.7946
  646MOL0     H85237   5.792   2.440   8.651  1.0496 -0.3872 -0.4389
  646MOL0     H85238   5.552   2.304   8.694 -0.5920 -1.4766 -0.6580
  646MOL0     H85239   5.683   2.343   8.826 -1.4002 -1.5915  3.5836
  646MOL0     H85240   5.620   2.147   8.951 -0.3186 -4.8374 -2.7355
  646MOL0     H85241   5.505   2.100   8.848  1.9268 -0.2342 -0.3212
  646MOL0     H85242   5.377   2.351   8.914  0.8548  1.1264  0.5385
  646MOL0     H85243   5.477   2.338   9.045 -0.1725  0.0169 -0.8948
  646MOL0     H85244   5.314   2.097   8.965 -0.7467  2.6736 -1.8679
  646MOL0     H85245   5.386   2.139   9.119 -1.5020  1.6607  1.7516
  646MOL0     H85246   5.214   2.345   9.129  0.8547  1.6497 -2.7059
  646MOL0     H85247   5.181   2.182   9.153  7.4890 -1.7567  0.7698
  646MOL0     H85248   5.088   2.195   8.897 -0.1041 -1.2836  2.9216
  646MOL0     H85249   5.126   2.369   8.902  1.1789  0.1838  1.0742
  646MOL0     H85250   4.903   2.234   9.059  0.3251  1.5238  1.7770
  646MOL0     H85251   4.954   2.390   9.100 -0.8373 -0.3674  1.2382
  646MOL0     H85252   4.906   2.462   8.882  2.4603 -1.1515 -1.4980
  646MOL0     H85253   4.758   2.383   8.940 -1.7231 -2.8266 -1.2413
  646MOL0     H85254   5.770   2.035   8.509 -0.3338  0.1405  1.8540
  646MOL0     H85255   5.922   2.090   8.332  0.9516  1.4015 -1.0489
  646MOL0     H85256   6.194   2.184   7.968  4.0007 -2.3722  0.4174
  646MOL0     H85257   6.389   2.245   7.855 -0.9802  0.1688 -1.7195
  646MOL0     H85258   5.709   2.045   8.193 -0.2884  0.4391 -1.6168
  646MOL0     H85259   5.557   2.021   8.373  3.3360  0.3093  1.1771
  646MOL0     H85260   5.149   1.844   8.455  0.7690  0.0550  0.4670
  646MOL0     H85261   4.949   1.853   8.580 -0.0904  0.0042 -0.0035
  646MOL0     H85262   4.778   1.811   8.749  2.4515 -2.1383  2.0224
  646MOL0     H85263   4.809   1.984   8.719 -1.3617  0.8925  0.0328
  646MOL0     H85264   4.712   1.883   8.975 -4.3111  0.5428  0.2953
  646MOL0     H85265   4.757   2.049   8.953 -0.6554  0.5118 -0.1963
  646MOL0     H85266   4.526   1.891   8.843 -0.8591  1.0423 -1.3501
  646MOL0     H85267   4.570   2.018   8.739 -1.4154  1.8377  1.0147
  646MOL0     H85268   4.563   2.187   8.921 -0.5310  0.2220 -2.7799
  646MOL0     H85269   4.412   2.093   8.881 -0.6331 -1.4558  1.0692
  646MOL0     H85270   4.500   1.988   9.284  3.1474 -3.7667 -1.6280
  646MOL0     H85271   5.166   1.856   8.954 -0.7233  0.0105 -0.1532
  646MOL0     H85272   5.381   1.868   8.820  1.3829 -2.4800 -2.6891
  647MOL0     O85273   2.438   1.980   8.406  0.6703 -0.2212 -0.2921
  647MOL0     C85274   2.508   2.033   8.317 -0.2800 -0.0080  0.4991
  647MOL0     O85275   2.471   2.027   8.186  0.8137 -0.5019 -0.1336
  647MOL0     C85276   2.368   1.935   8.154 -0.2184 -0.3743  0.1176
  647MOL0     C85277   2.391   1.820   8.083  0.1083  2.3227  1.0847
  647MOL0     C85278   2.286   1.735   8.036  0.6908  0.7414 -0.7126
  647MOL0     C85279   2.153   1.757   8.081  0.4649  0.1667 -0.1233
  647MOL0     O85280   2.038   1.681   8.062 -0.7532 -0.4275  0.0281
  647MOL0     C85281   2.035   1.608   7.940 -0.9551 -0.6224 -1.1154
  647MOL0     C85282   2.045   1.692   7.810  0.1050 -0.0079  0.4353
  647MOL0     C85283   1.916   1.781   7.804  0.2105 -0.5294 -0.3737
  647MOL0     C85284   1.781   1.724   7.763 -2.0528  0.1797  1.2640
  647MOL0     C85285   1.665   1.821   7.784  0.2352  0.2201  0.0748
  647MOL0     C85286   1.535   1.745   7.808 -1.3645  0.0367  0.1291
  647MOL0     C85287   1.421   1.848   7.818 -0.1272 -0.0937 -0.2700
  647MOL0     C85288   1.286   1.777   7.837  0.6876  0.8354 -0.3221
  647MOL0     N85289   1.261   1.694   7.718 -0.2001 -0.0530 -0.6940
  647MOL0     C85290   1.215   1.560   7.721  0.1444 -0.3126  0.0309
  647MOL0     C85291   1.217   1.520   7.593  0.5371 -1.0839 -0.3363
  647MOL0     C85292   1.194   1.384   7.547 -0.2400  0.4953 -0.3029
  647MOL0     C85293   1.253   1.277   7.629  0.5615  0.2081 -0.9018
  647MOL0     C85294   1.219   1.141   7.552 -0.1692  0.8390 -0.0977
  647MOL0     C85295   1.298   1.020   7.592 -0.2306  1.1012 -0.5029
  647MOL0     O85296   1.436   1.029   7.569 -0.3129 -0.5230 -0.0187
  647MOL0     C85297   1.503   0.932   7.488  0.9711 -0.7884  0.1270
  647MOL0     C85298   1.596   0.981   7.401  0.1666  0.0355  0.3401
  647MOL0     C85299   1.654   0.888   7.312  0.3266 -0.4005 -0.0387
  647MOL0     C85300   1.614   0.755   7.313 -0.7009  0.0691 -0.6837
  647MOL0     C85301   1.676   0.658   7.215  1.3784 -0.6004 -0.5345
  647MOL0     O85302   1.646   0.529   7.222  0.2517  0.5406 -0.0004
  647MOL0     C85303   1.691   0.441   7.122 -0.5990 -0.4507  0.1074
  647MOL0     C85304   1.746   0.314   7.149 -0.3259 -0.5817 -0.5909
  647MOL0     C85305   1.792   0.240   7.044  0.0083 -0.2573  0.5093
  647MOL0     C85306   1.797   0.269   6.912 -0.0986 -0.2043 -0.2989
  647MOL0     O85307   1.857   0.191   6.812  0.0994  0.9055  1.1624
  647MOL0     C85308   2.003   0.185   6.822  0.7129  0.0909  0.0501
  647MOL0     C85309   2.071   0.301   6.746 -0.4426 -0.5086 -0.5189
  647MOL0     C85310   2.048   0.300   6.593  0.6782 -0.4377  0.0341
  647MOL0     C85311   2.120   0.175   6.525 -0.1231 -0.2280 -0.2792
  647MOL0     C85312   2.104   0.174   6.379 -0.3187 -0.3269  0.4985
  647MOL0     C85313   2.146   0.035   6.323 -0.6772 -0.5021 -0.8826
  647MOL0     C85314   2.124   0.029   6.177 -0.1027 -0.0987  0.6120
  647MOL0     C85315   2.185  -0.102   6.118  0.2327 -0.0796  0.2541
  647MOL0    Cl85316   2.173  -0.082   5.943  0.0451 -0.1591 -0.4525
  647MOL0     C85317   1.751   0.395   6.883  0.6331 -0.4835 -0.2049
  647MOL0     C85318   1.694   0.478   6.990 -0.3050  0.4773  0.1535
  647MOL0     O85319   1.766   0.702   7.148 -0.2716 -0.4708  0.3314
  647MOL0     C85320   1.526   0.703   7.409 -0.0588 -0.3816 -0.5545
  647MOL0     C85321   1.470   0.798   7.498  0.0801  0.2610 -0.5958
  647MOL0     N85322   1.259   1.624   7.517  0.7646  0.9669 -0.1824
  647MOL0     N85323   1.279   1.730   7.590 -1.0703 -0.4719  0.3582
  647MOL0     C85324   2.131   1.887   8.145 -0.1934  0.0948  0.0993
  647MOL0     C85325   2.237   1.970   8.180 -0.0277 -0.7051 -0.4226
  647MOL0     C85326   2.624   2.122   8.359  0.6849  0.0515 -1.0527
  647MOL0     C85327   2.622   2.186   8.482 -0.9654  0.5159 -0.0341
  647MOL0     C85328   2.729   2.260   8.530  0.3732  0.0642  0.7421
  647MOL0     C85329   2.843   2.277   8.450  0.0603  0.1159  0.4573
  647MOL0     O85330   2.941   2.351   8.509 -1.1692 -0.5268  0.2263
  647MOL0     C85331   3.034   2.417   8.419  0.0258 -0.0571 -0.7824
  647MOL0     C85332   3.134   2.512   8.491 -0.0461  0.4953 -0.3027
  647MOL0     C85333   3.277   2.458   8.511  0.0397 -0.1681 -0.0604
  647MOL0     C85334   3.374   2.551   8.599  0.5800  0.5944 -0.1423
  647MOL0     C85335   3.451   2.646   8.512 -0.5788 -0.5771  0.9498
  647MOL0     C85336   3.516   2.738   8.470 -0.2371 -0.5654 -0.3801
  647MOL0     C85337   2.847   2.209   8.323  0.0107 -1.0171  0.1607
  647MOL0     C85338   2.732   2.139   8.281 -0.6743 -0.0201  0.1254
  647MOL0     H85339   2.491   1.787   8.055 -0.9608 -0.3205  0.0471
  647MOL0     H85340   2.315   1.646   7.981 -0.8202  0.2611 -0.7764
  647MOL0     H85341   1.944   1.547   7.938 -0.8934 -0.6879 -2.2944
  647MOL0     H85342   2.112   1.532   7.953 -1.7697 -0.9317  3.7014
  647MOL0     H85343   2.049   1.632   7.718 -0.5848  1.3656 -0.5286
  647MOL0     H85344   2.130   1.760   7.813 -1.6300  2.3107 -0.2041
  647MOL0     H85345   1.949   1.852   7.728 -3.6838  0.5384 -1.3020
  647MOL0     H85346   1.910   1.839   7.897  0.9831  2.3384 -1.9958
  647MOL0     H85347   1.787   1.708   7.655 -2.1349  3.0171  0.7496
  647MOL0     H85348   1.771   1.629   7.816 -1.2843 -1.2841 -1.0450
  647MOL0     H85349   1.660   1.887   7.696 -1.1212 -0.8320 -0.6836
  647MOL0     H85350   1.689   1.890   7.865  2.8510 -1.2407  0.6495
  647MOL0     H85351   1.539   1.682   7.897  0.8031  1.6632  1.2586
  647MOL0     H85352   1.517   1.676   7.725 -1.6556  1.8931 -1.4200
  647MOL0     H85353   1.436   1.908   7.908 -0.3903 -0.5162  0.0608
  647MOL0     H85354   1.395   1.905   7.728 -0.3210  0.1163 -0.0831
  647MOL0     H85355   1.201   1.846   7.844 -0.9083 -0.4594 -4.2466
  647MOL0     H85356   1.279   1.709   7.922  0.5620  1.3129  0.0591
  647MOL0     H85357   1.216   1.488   7.802  0.7863  1.0734  1.3094
  647MOL0     H85358   1.229   1.380   7.444 -2.3262  2.6232 -1.1784
  647MOL0     H85359   1.086   1.367   7.551  0.0813 -1.7196  1.8355
  647MOL0     H85360   1.211   1.271   7.730  1.6741 -0.4637 -0.4606
  647MOL0     H85361   1.359   1.298   7.642  1.1955 -2.3606 -1.3493
  647MOL0     H85362   1.114   1.110   7.547  0.3787 -1.1973  0.1356
  647MOL0     H85363   1.236   1.153   7.445 -1.7826 -0.7068 -0.5906
  647MOL0     H85364   1.252   0.935   7.539  1.6740 -2.5901  3.1666
  647MOL0     H85365   1.275   1.000   7.697  0.3902 -0.0632 -0.5716
  647MOL0     H85366   1.626   1.084   7.415  4.6805 -0.7870 -1.5027
  647MOL0     H85367   1.733   0.922   7.246 -2.5148  3.9406 -1.6680
  647MOL0     H85368   1.757   0.296   7.255  1.9613  0.2031 -0.6397
  647MOL0     H85369   1.822   0.141   7.074 -2.1434 -1.1179  0.0088
  647MOL0     H85370   2.036   0.084   6.794  1.4770  0.2872  0.2231
  647MOL0     H85371   2.034   0.199   6.926  0.0920 -0.6320  0.3450
  647MOL0     H85372   2.179   0.305   6.765 -0.6789 -1.6420  1.2766
  647MOL0     H85373   2.030   0.393   6.790 -0.4223 -0.7500  0.0075
  647MOL0     H85374   2.091   0.392   6.552  2.2191 -1.1372  0.0098
  647MOL0     H85375   1.944   0.284   6.563  1.0000 -1.6564 -0.4969
  647MOL0     H85376   2.227   0.172   6.550  0.0627 -1.7015 -1.1733
  647MOL0     H85377   2.075   0.096   6.587  1.9631 -1.7096 -0.5546
  647MOL0     H85378   2.156   0.250   6.319 -0.8940 -1.4315 -1.4937
  647MOL0     H85379   1.997   0.191   6.358  0.4151  1.7242 -2.1990
  647MOL0     H85380   2.094  -0.050   6.368 -1.7778 -0.1081 -1.3502
  647MOL0     H85381   2.250   0.016   6.347 -0.8924 -1.1312 -0.4429
  647MOL0     H85382   2.018   0.034   6.155  0.5111 -0.3391 -2.9296
  647MOL0     H85383   2.182   0.117   6.149  2.5601 -1.1336  2.3896
  647MOL0     H85384   2.124  -0.182   6.160 -0.2675  0.4646  0.5877
  647MOL0     H85385   2.286  -0.109   6.159 -0.3533  3.2411  2.6703
  647MOL0     H85386   1.756   0.433   6.781 -1.0536 -1.7871 -0.8193
  647MOL0     H85387   1.650   0.572   6.959 -2.0271 -0.3538 -0.0306
  647MOL0     H85388   1.506   0.596   7.401 -1.2823 -0.2313  0.2282
  647MOL0     H85389   1.401   0.764   7.575  2.1885 -1.5864  0.6060
  647MOL0     H85390   2.028   1.920   8.151  0.2069  3.1095 -4.7168
  647MOL0     H85391   2.219   2.059   8.240 -0.7110 -1.6541  0.8200
  647MOL0     H85392   2.539   2.181   8.552 -0.1010  3.7052  1.4434
  647MOL0     H85393   2.733   2.303   8.630 -1.3634 -1.0043  1.3268
  647MOL0     H85394   2.970   2.476   8.353 -2.4985  0.9710  2.3041
  647MOL0     H85395   3.082   2.337   8.362  0.3051 -0.3318 -0.1731
  647MOL0     H85396   3.136   2.605   8.434 -0.4049 -0.2714 -1.6009
  647MOL0     H85397   3.096   2.547   8.588  0.5513  1.2654 -0.3365
  647MOL0     H85398   3.320   2.441   8.413 -1.7830 -0.0968 -0.9247
  647MOL0     H85399   3.264   2.365   8.568  0.4783  0.0970  0.4879
  647MOL0     H85400   3.307   2.609   8.663  1.5181 -0.6623  2.0937
  647MOL0     H85401   3.451   2.495   8.653 -1.7106  0.2698  3.0412
  647MOL0     H85402   3.580   2.804   8.415  0.7492 -3.2212 -2.6460
  647MOL0     H85403   2.933   2.217   8.258 -1.8008 -0.6833 -2.3128
  647MOL0     H85404   2.733   2.080   8.190  0.7219 -2.7196  1.7605
  648MOL0     O85405   6.792   1.231   6.650  0.4519  0.4954 -0.1046
  648MOL0     C85406   6.830   1.205   6.537 -0.1260 -0.3980  0.4539
  648MOL0     O85407   6.752   1.205   6.424  0.0925 -0.9387 -0.1466
  648MOL0     C85408   6.644   1.297   6.426 -1.0843  0.3397  0.5058
  648MOL0     C85409   6.655   1.429   6.467 -0.4138 -0.5682 -0.8838
  648MOL0     C85410   6.542   1.516   6.479 -0.0248 -0.6511  0.7124
  648MOL0     C85411   6.416   1.463   6.443 -0.2172 -0.5119 -1.4489
  648MOL0     O85412   6.318   1.554   6.480 -0.0377 -0.0437  0.1960
  648MOL0     C85413   6.177   1.546   6.442 -0.8659 -0.1159  0.0449
  648MOL0     C85414   6.170   1.581   6.294  0.2723 -0.6971  0.7642
  648MOL0     C85415   6.195   1.734   6.268 -0.1561 -0.8779 -0.4969
  648MOL0     C85416   6.105   1.825   6.349  0.1838  0.5028 -0.4426
  648MOL0     C85417   5.960   1.816   6.314  0.8573  0.0011  0.1792
  648MOL0     C85418   5.885   1.912   6.400  0.2644 -0.0999  0.1794
  648MOL0     C85419   5.735   1.888   6.387  1.0433  0.2596 -0.7357
  648MOL0     C85420   5.664   2.020   6.421 -0.2711 -0.5916  0.3677
  648MOL0     N85421   5.622   2.030   6.563  0.2659 -0.4764 -1.2807
  648MOL0     C85422   5.587   1.927   6.646 -0.1835 -0.2576 -0.0684
  648MOL0     C85423   5.566   1.994   6.759  0.2594  0.6715 -0.0018
  648MOL0     C85424   5.536   1.944   6.899  0.2345  0.1399 -0.1530
  648MOL0     C85425   5.650   1.864   6.947  0.4336  0.1437  0.0233
  648MOL0     C85426   5.614   1.785   7.080  0.2054 -0.4671 -1.0619
  648MOL0     C85427   5.731   1.694   7.140  1.3523 -0.3757  0.5699
  648MOL0     O85428   5.720   1.575   7.065 -0.1447  0.0845 -0.3591
  648MOL0     C85429   5.817   1.478   7.087 -0.1244 -0.2190 -0.0733
  648MOL0     C85430   5.923   1.488   7.179 -0.0026 -0.9767  0.5803
  648MOL0     C85431   6.017   1.386   7.197 -0.6437 -0.3564  0.4378
  648MOL0     C85432   5.994   1.271   7.129  1.0161  0.6932 -0.0298
  648MOL0     C85433   6.074   1.152   7.161 -0.2792 -0.4271 -0.9647
  648MOL0     O85434   6.182   1.179   7.247  0.5882 -0.0076  0.7051
  648MOL0     C85435   6.238   1.068   7.286  0.2669 -0.1009  1.2297
  648MOL0     C85436   6.186   0.977   7.374 -0.3892 -1.0238  0.1650
  648MOL0     C85437   6.264   0.876   7.428 -0.1135  0.0197  0.6868
  648MOL0     C85438   6.401   0.856   7.398  0.3362 -0.4058  0.5552
  648MOL0     O85439   6.471   0.759   7.478 -0.0629 -0.0575 -0.1998
  648MOL0     C85440   6.612   0.773   7.478 -0.5222  0.1519  0.5635
  648MOL0     C85441   6.665   0.693   7.587  0.4121 -1.0720  0.4943
  648MOL0     C85442   6.812   0.657   7.556 -1.4590 -0.8043  0.1108
  648MOL0     C85443   6.882   0.619   7.686 -0.7499  0.0800  0.2229
  648MOL0     C85444   7.012   0.534   7.676 -0.4674 -0.4291  0.8159
  648MOL0     C85445   7.034   0.468   7.812  0.8760 -0.5143  0.5665
  648MOL0     C85446   7.163   0.391   7.817 -0.2416 -0.5948 -0.4588
  648MOL0     C85447   7.285   0.469   7.780  0.1050 -0.0590  1.0743
  648MOL0    Cl85448   7.287   0.618   7.877 -0.1108 -0.5693  0.3347
  648MOL0     C85449   6.454   0.944   7.292 -0.6007  0.7052  0.2254
  648MOL0     C85450   6.375   1.052   7.241  0.6296  0.2040 -0.4462
  648MOL0     O85451   6.038   1.044   7.114 -0.1701 -0.0452 -0.5560
  648MOL0     C85452   5.882   1.259   7.039 -0.0303  0.5820  0.8430
  648MOL0     C85453   5.795   1.363   7.015 -0.1867 -0.5643  1.1698
  648MOL0     N85454   5.573   2.127   6.743 -0.4993 -0.9164 -0.7411
  648MOL0     N85455   5.600   2.150   6.624 -0.8620 -0.1728  1.2888
  648MOL0     C85456   6.406   1.342   6.387 -0.4163 -0.1257  0.2941
  648MOL0     C85457   6.518   1.253   6.385 -0.2695  0.3235  0.5751
  648MOL0     C85458   6.978   1.178   6.521 -0.8060  0.2419  0.7505
  648MOL0     C85459   7.066   1.196   6.630 -0.4607 -0.4143  1.1632
  648MOL0     C85460   7.204   1.183   6.621 -0.0060  0.8634  0.3999
  648MOL0     C85461   7.261   1.142   6.494 -0.8590  0.3754  0.8818
  648MOL0     O85462   7.401   1.118   6.490 -0.0625  0.5267 -0.0489
  648MOL0     C85463   7.477   1.077   6.605 -0.2812  0.3023 -0.2704
  648MOL0     C85464   7.602   1.014   6.563 -0.0742 -0.0900  0.5512
  648MOL0     C85465   7.701   0.997   6.683 -0.3318  0.0504  0.6078
  648MOL0     C85466   7.831   0.938   6.630  0.6668  0.3028  0.1340
  648MOL0     C85467   7.914   1.036   6.574 -0.1018  0.1225  0.0885
  648MOL0     C85468   7.985   1.128   6.532  0.8747 -0.4162 -0.8777
  648MOL0     C85469   7.180   1.125   6.385  0.1888 -0.2133  0.1097
  648MOL0     C85470   7.039   1.145   6.396  0.0101  0.4120 -0.0398
  648MOL0     H85471   6.751   1.463   6.504 -0.8962 -0.7648  0.6337
  648MOL0     H85472   6.532   1.617   6.518 -4.8172 -1.9938  3.7238
  648MOL0     H85473   6.119   1.616   6.504 -1.2164 -0.7017  0.3880
  648MOL0     H85474   6.137   1.446   6.454  0.3913 -0.7353 -0.7141
  648MOL0     H85475   6.071   1.565   6.249  0.2528 -0.3676  0.6830
  648MOL0     H85476   6.246   1.523   6.241  0.8030  1.7245 -1.3272
  648MOL0     H85477   6.194   1.763   6.163  0.9117  1.3527  0.0568
  648MOL0     H85478   6.296   1.751   6.308 -1.0398 -1.3799  2.1846
  648MOL0     H85479   6.128   1.809   6.455  0.9438  1.7711 -0.4022
  648MOL0     H85480   6.146   1.926   6.337 -0.1968  0.8660  1.0559
  648MOL0     H85481   5.921   1.722   6.354  0.6215  0.1132  0.2130
  648MOL0     H85482   5.942   1.831   6.207  3.1443  0.0574 -0.2476
  648MOL0     H85483   5.923   2.008   6.364  0.2896 -0.2127 -0.0971
  648MOL0     H85484   5.907   1.903   6.507 -0.1764  0.2900  0.3090
  648MOL0     H85485   5.719   1.883   6.279 -0.8753 -2.3719 -0.4121
  648MOL0     H85486   5.696   1.799   6.437 -1.3574  1.4455 -0.3896
  648MOL0     H85487   5.581   2.020   6.350  3.2958 -1.4016 -4.3257
  648MOL0     H85488   5.732   2.102   6.397  1.8266 -2.4094 -0.2907
  648MOL0     H85489   5.581   1.827   6.606  1.1735  0.0944 -1.2250
  648MOL0     H85490   5.448   1.882   6.882  2.8829 -3.9526 -0.5656
  648MOL0     H85491   5.531   2.026   6.970  2.1794 -0.3618  0.6446
  648MOL0     H85492   5.731   1.937   6.959  0.6180  0.2851 -1.8300
  648MOL0     H85493   5.689   1.795   6.872  2.6088 -0.7322  1.8419
  648MOL0     H85494   5.592   1.844   7.169  1.6933 -3.8313  1.8262
  648MOL0     H85495   5.529   1.723   7.049  0.9665 -1.3301 -1.4921
  648MOL0     H85496   5.724   1.675   7.248 -1.9856 -0.5376  0.4244
  648MOL0     H85497   5.825   1.743   7.113 -0.4947  1.4719 -3.3552
  648MOL0     H85498   5.932   1.569   7.250  1.6666 -2.0675  1.6849
  648MOL0     H85499   6.092   1.403   7.273 -0.3355 -2.9598  0.8059
  648MOL0     H85500   6.079   0.991   7.380 -0.1666  0.5528  1.2379
  648MOL0     H85501   6.207   0.813   7.496 -0.5170  0.3736  0.6838
  648MOL0     H85502   6.653   0.874   7.483  0.6405 -0.3371  1.1904
  648MOL0     H85503   6.655   0.740   7.383  3.7795  3.7788  0.9266
  648MOL0     H85504   6.600   0.613   7.625  0.6952 -0.8790  1.4238
  648MOL0     H85505   6.663   0.755   7.677 -0.0154 -2.8066  1.7459
  648MOL0     H85506   6.853   0.750   7.516 -1.4083  0.0713  2.0335
  648MOL0     H85507   6.818   0.576   7.484  3.2526  0.0775 -0.8345
  648MOL0     H85508   6.908   0.710   7.740 -3.6558  0.4991  1.1490
  648MOL0     H85509   6.805   0.567   7.745  1.8832 -1.0398  2.9221
  648MOL0     H85510   7.102   0.593   7.655 -0.6381 -0.2847  0.4884
  648MOL0     H85511   7.003   0.455   7.600 -2.7170  1.8536 -1.5163
  648MOL0     H85512   6.958   0.392   7.827  0.7171 -0.8655 -1.7590
  648MOL0     H85513   7.031   0.551   7.883 -3.9484  1.0664 -1.1051
  648MOL0     H85514   7.185   0.362   7.920 -1.7892  2.3232  0.8119
  648MOL0     H85515   7.164   0.301   7.755  1.9677 -0.3012 -0.9268
  648MOL0     H85516   7.281   0.484   7.672 -0.6065 -2.5917  0.6790
  648MOL0     H85517   7.375   0.408   7.793  0.1951 -0.6853 -1.8625
  648MOL0     H85518   6.559   0.928   7.272 -0.4606  0.3042  1.2242
  648MOL0     H85519   6.421   1.126   7.177  1.8967 -0.4546 -0.3416
  648MOL0     H85520   5.870   1.166   6.984  3.0994  1.4827 -1.6820
  648MOL0     H85521   5.705   1.346   6.958 -1.2961 -0.6457  2.8703
  648MOL0     H85522   6.314   1.308   6.341  0.8937 -0.6812 -2.0793
  648MOL0     H85523   6.511   1.153   6.346 -1.7474  0.2572  0.9501
  648MOL0     H85524   7.040   1.231   6.729  1.1285  1.0584  1.1162
  648MOL0     H85525   7.270   1.197   6.706  0.6190  0.6937 -0.0520
  648MOL0     H85526   7.412   1.007   6.657 -0.1627 -1.0015 -1.7842
  648MOL0     H85527   7.494   1.157   6.678 -0.5051  0.9589 -0.9215
  648MOL0     H85528   7.579   0.924   6.505 -0.3364  0.8872 -0.9247
  648MOL0     H85529   7.659   1.068   6.487 -2.2005 -3.4045 -3.8597
  648MOL0     H85530   7.656   0.933   6.759 -1.8838  0.7942  0.3381
  648MOL0     H85531   7.725   1.094   6.727  1.4657  0.3770 -0.9448
  648MOL0     H85532   7.885   0.887   6.710  2.6673  1.3233 -0.5068
  648MOL0     H85533   7.813   0.866   6.549 -0.1957 -1.2601  1.6478
  648MOL0     H85534   8.056   1.199   6.494 -0.0039  1.0796  0.1935
  648MOL0     H85535   7.226   1.100   6.290 -0.0048  1.5187 -0.4749
  648MOL0     H85536   6.990   1.157   6.300  1.2606  1.8497 -0.5398
  649MOL0     O85537   2.248   1.245   6.180  0.0279  0.2961  0.3680
  649MOL0     C85538   2.348   1.266   6.242 -0.6308  0.9428 -0.0568
  649MOL0     O85539   2.461   1.202   6.218 -0.2781  0.3259 -0.1899
  649MOL0     C85540   2.475   1.138   6.093 -0.2131 -0.0983 -0.6993
  649MOL0     C85541   2.577   1.186   6.000  1.3718 -1.3281  0.4580
  649MOL0     C85542   2.594   1.113   5.883  0.3236  0.3384 -0.6170
  649MOL0     C85543   2.517   0.997   5.853 -0.8915 -1.1108 -0.8027
  649MOL0     O85544   2.535   0.916   5.754 -0.6095 -0.3155  0.3538
  649MOL0     C85545   2.603   0.977   5.635 -0.1803  0.3209 -0.0695
  649MOL0     C85546   2.567   0.879   5.524 -0.3448 -0.1491 -1.1106
  649MOL0     C85547   2.655   0.885   5.410 -0.0089 -0.2028  0.2614
  649MOL0     C85548   2.611   0.794   5.287 -0.0623 -0.0043  0.7339
  649MOL0     C85549   2.724   0.791   5.178  0.0197 -0.0861  0.8710
  649MOL0     C85550   2.705   0.683   5.057 -0.3209 -0.3472  0.5028
  649MOL0     C85551   2.596   0.743   4.967  0.3671 -0.1574 -0.0306
  649MOL0     C85552   2.533   0.637   4.878 -0.5594 -0.0635 -0.2247
  649MOL0     N85553   2.612   0.625   4.746  0.2451 -0.3202 -0.3989
  649MOL0     C85554   2.643   0.721   4.649 -0.3690  0.9981  0.5441
  649MOL0     C85555   2.676   0.645   4.544  0.1485 -0.7293 -0.0217
  649MOL0     C85556   2.740   0.697   4.417 -0.1840 -0.2302 -0.9763
  649MOL0     C85557   2.893   0.640   4.415  0.4799  0.0353  0.3937
  649MOL0     C85558   2.972   0.656   4.548  0.5788 -0.0112 -0.3432
  649MOL0     C85559   2.974   0.802   4.603 -0.0576 -0.3521  1.0166
  649MOL0     O85560   2.989   0.904   4.498 -0.4395  0.5588  0.0390
  649MOL0     C85561   3.120   0.942   4.462 -0.0210 -0.0310 -1.0282
  649MOL0     C85562   3.127   1.064   4.389 -0.4785 -0.0560  0.6221
  649MOL0     C85563   3.243   1.113   4.345 -0.0449 -0.7664  0.3680
  649MOL0     C85564   3.369   1.052   4.369  0.8448 -0.1823 -0.2864
  649MOL0     C85565   3.494   1.106   4.314  0.1087  0.0341  0.0730
  649MOL0     O85566   3.605   1.035   4.338  0.6197 -0.3193  0.2723
  649MOL0     C85567   3.718   1.099   4.309  0.8242 -0.1021  0.9654
  649MOL0     C85568   3.785   1.063   4.189 -0.3710  0.3701  0.3075
  649MOL0     C85569   3.905   1.127   4.164 -0.0548 -0.6095  0.8450
  649MOL0     C85570   3.961   1.226   4.248  0.3106 -0.4086 -0.2724
  649MOL0     O85571   4.086   1.285   4.246  0.6027 -0.0639  1.2129
  649MOL0     C85572   4.194   1.210   4.203 -0.7061 -0.5097 -0.8467
  649MOL0     C85573   4.298   1.294   4.133 -0.3377 -1.1391  0.7650
  649MOL0     C85574   4.349   1.413   4.225  1.0896  0.1691 -0.9681
  649MOL0     C85575   4.419   1.518   4.151 -0.8607 -0.5835 -0.4504
  649MOL0     C85576   4.559   1.475   4.089 -0.0603  0.0217 -1.0163
  649MOL0     C85577   4.665   1.578   4.090 -0.2197 -0.8580  0.1758
  649MOL0     C85578   4.788   1.522   4.022  0.3114  0.1845  0.0942
  649MOL0     C85579   4.894   1.624   3.988  0.3807 -0.5688 -0.5951
  649MOL0    Cl85580   4.926   1.726   4.140 -0.1607 -0.6933 -0.3961
  649MOL0     C85581   3.882   1.259   4.360  0.1670 -0.4320 -1.0533
  649MOL0     C85582   3.762   1.200   4.387 -0.4944  0.0800  0.5817
  649MOL0     O85583   3.482   1.213   4.255  0.9252 -0.5105 -0.1338
  649MOL0     C85584   3.361   0.932   4.440  0.2135 -0.1535  1.0169
  649MOL0     C85585   3.238   0.876   4.484 -0.2943 -0.0271  0.4304
  649MOL0     N85586   2.681   0.505   4.577  0.0653 -0.1998 -0.1233
  649MOL0     N85587   2.638   0.500   4.700  0.3721  0.2027 -1.1300
  649MOL0     C85588   2.413   0.962   5.942 -0.9471  0.4001  0.9869
  649MOL0     C85589   2.404   1.018   6.061 -0.7974 -0.4089 -1.1111
  649MOL0     C85590   2.353   1.378   6.342  0.3365  0.7110  1.0928
  649MOL0     C85591   2.472   1.424   6.399  1.0687  0.3536  0.1809
  649MOL0     C85592   2.482   1.528   6.485  0.0092 -0.4388 -0.4490
  649MOL0     C85593   2.366   1.599   6.517  0.4033  0.3198 -0.0239
  649MOL0     O85594   2.382   1.713   6.597 -1.2318  0.3569 -0.0683
  649MOL0     C85595   2.272   1.793   6.627  0.3923  0.5564 -0.1387
  649MOL0     C85596   2.309   1.888   6.734  0.5177 -0.5561 -0.3063
  649MOL0     C85597   2.182   1.973   6.768 -0.2907  0.8604  0.3385
  649MOL0     C85598   2.217   2.102   6.838  0.4627 -0.1797 -0.4940
  649MOL0     C85599   2.100   2.161   6.900  0.2753  0.8560 -0.6676
  649MOL0     C85600   2.005   2.197   6.966 -0.7840 -0.5255  0.0033
  649MOL0     C85601   2.246   1.548   6.471  0.5670 -0.0666  0.0943
  649MOL0     C85602   2.235   1.442   6.380 -0.2814 -0.2123 -0.3364
  649MOL0     H85603   2.646   1.269   6.015 -0.7155  0.7963 -0.9915
  649MOL0     H85604   2.661   1.155   5.808  0.3780 -0.3156 -0.9437
  649MOL0     H85605   2.707   0.997   5.662 -0.3864  0.8302  0.3595
  649MOL0     H85606   2.564   1.077   5.613 -1.5542 -0.3475 -0.7991
  649MOL0     H85607   2.473   0.915   5.483 -0.7940 -0.0001  0.0196
  649MOL0     H85608   2.568   0.777   5.564 -0.1656  0.0591 -0.5828
  649MOL0     H85609   2.755   0.858   5.446 -1.1975 -1.9547  2.5549
  649MOL0     H85610   2.655   0.987   5.371 -4.1471  0.4271  1.4700
  649MOL0     H85611   2.586   0.696   5.329  0.7221 -0.3357  0.4504
  649MOL0     H85612   2.514   0.827   5.247  1.3508  0.2502 -2.8671
  649MOL0     H85613   2.819   0.760   5.224  0.9249 -1.0137 -1.4209
  649MOL0     H85614   2.754   0.885   5.130 -1.4839 -1.3998 -3.0580
  649MOL0     H85615   2.675   0.595   5.114 -1.6351 -1.7278 -2.1467
  649MOL0     H85616   2.798   0.660   5.003  1.4763  1.5165  2.5769
  649MOL0     H85617   2.515   0.787   5.025  2.7522  4.0422  0.5141
  649MOL0     H85618   2.628   0.831   4.910 -4.0571  0.1848 -2.4041
  649MOL0     H85619   2.428   0.655   4.853 -1.5208 -2.1419  1.9157
  649MOL0     H85620   2.545   0.540   4.929  1.1768  1.6470  2.9519
  649MOL0     H85621   2.636   0.829   4.646  0.0712  1.0118 -0.2181
  649MOL0     H85622   2.742   0.806   4.406 -0.8872 -0.2670 -1.5386
  649MOL0     H85623   2.685   0.654   4.333  2.9353 -0.8248 -2.8762
  649MOL0     H85624   2.958   0.702   4.352 -0.7747  2.4279  1.3282
  649MOL0     H85625   2.896   0.540   4.371  5.3115  0.5620 -1.1427
  649MOL0     H85626   2.932   0.587   4.623 -0.6518  0.1338 -0.8328
  649MOL0     H85627   3.073   0.620   4.524 -0.8208 -3.2659 -2.0398
  649MOL0     H85628   3.052   0.814   4.679 -1.0483  0.9806  1.8932
  649MOL0     H85629   2.885   0.831   4.660 -0.3095 -1.0388  0.9791
  649MOL0     H85630   3.034   1.117   4.372  1.1870  2.2624 -1.9998
  649MOL0     H85631   3.227   1.200   4.282 -0.6829 -1.4380 -0.4332
  649MOL0     H85632   3.758   0.972   4.135 -0.9153  0.0264  1.1325
  649MOL0     H85633   3.952   1.111   4.067 -0.1394  3.3200 -0.0199
  649MOL0     H85634   4.156   1.135   4.133 -2.0548 -0.1180 -0.5599
  649MOL0     H85635   4.236   1.159   4.291 -0.0719  3.3406  1.3148
  649MOL0     H85636   4.249   1.343   4.049  1.6751 -0.6939 -0.2310
  649MOL0     H85637   4.383   1.237   4.092  0.1499 -0.9404  1.4860
  649MOL0     H85638   4.414   1.367   4.300 -0.1952 -1.8239 -0.9965
  649MOL0     H85639   4.266   1.459   4.279  1.3213 -1.3766  0.7720
  649MOL0     H85640   4.358   1.557   4.070  0.6983 -0.9243 -1.8336
  649MOL0     H85641   4.435   1.605   4.216  0.6877 -0.4245 -0.9971
  649MOL0     H85642   4.564   1.449   3.983  3.3235  1.1108 -1.2389
  649MOL0     H85643   4.597   1.392   4.149 -1.2036 -0.0565 -0.3660
  649MOL0     H85644   4.688   1.599   4.195  1.7094  0.5200 -0.4535
  649MOL0     H85645   4.620   1.672   4.055  0.8415 -0.2833  0.3052
  649MOL0     H85646   4.837   1.441   4.076 -2.2159  0.1946  2.6228
  649MOL0     H85647   4.756   1.491   3.922  1.2810  4.0445 -1.6265
  649MOL0     H85648   4.859   1.687   3.906  2.0076 -1.2333 -1.8618
  649MOL0     H85649   4.994   1.587   3.962 -1.2921 -2.9657 -4.4192
  649MOL0     H85650   3.920   1.328   4.435 -0.5641 -3.0697  1.9731
  649MOL0     H85651   3.698   1.241   4.464  0.8774 -0.0599  1.8395
  649MOL0     H85652   3.443   0.869   4.472 -0.0662  0.0349  2.1468
  649MOL0     H85653   3.237   0.779   4.534 -0.8059 -1.3463 -2.0034
  649MOL0     H85654   2.333   0.893   5.918  1.2636 -1.5523 -1.4105
  649MOL0     H85655   2.340   0.976   6.138 -2.4241  2.7174 -0.5738
  649MOL0     H85656   2.561   1.367   6.375  1.7986  1.8704 -0.8668
  649MOL0     H85657   2.572   1.573   6.527 -0.6163  1.8781 -1.4016
  649MOL0     H85658   2.194   1.721   6.657  1.5855 -0.6488  0.1844
  649MOL0     H85659   2.245   1.846   6.536 -3.1444  0.4143  0.6798
  649MOL0     H85660   2.334   1.828   6.823  0.2499 -1.7307 -0.9959
  649MOL0     H85661   2.398   1.946   6.711 -0.9203  1.9179 -0.0336
  649MOL0     H85662   2.109   1.917   6.827 -1.8139  1.5846 -0.7910
  649MOL0     H85663   2.142   1.998   6.669  0.7421  1.1997 -0.0002
  649MOL0     H85664   2.294   2.094   6.915  0.2146  1.6076 -0.0084
  649MOL0     H85665   2.261   2.167   6.761  1.7934 -0.9975 -0.4507
  649MOL0     H85666   1.930   2.239   7.030  0.1799 -1.2057  1.6734
  649MOL0     H85667   2.148   1.585   6.501  0.7347  0.1655  0.3567
  649MOL0     H85668   2.144   1.408   6.333 -1.1201  0.3705  0.8033
  650MOL0     O85669   8.446   4.319   2.466  0.3938 -0.9097 -0.7845
  650MOL0     C85670   8.539   4.279   2.400  0.0067 -1.1648  0.3694
  650MOL0     O85671   8.534   4.232   2.280  0.4426  0.2099  0.1643
  650MOL0     C85672   8.424   4.256   2.199  1.0622  0.2438  0.0335
  650MOL0     C85673   8.374   4.153   2.106 -0.5473 -0.1646 -0.0419
  650MOL0     C85674   8.271   4.180   2.008  0.4387 -0.0926  0.1274
  650MOL0     C85675   8.225   4.310   1.987 -0.0559 -0.0271  0.2505
  650MOL0     O85676   8.124   4.352   1.911  0.9797  0.0276  0.7652
  650MOL0     C85677   8.035   4.262   1.841  0.8610  0.0175  0.4679
  650MOL0     C85678   8.103   4.203   1.713  0.5601 -1.2590  0.0264
  650MOL0     C85679   7.998   4.148   1.623 -0.5624 -0.3835  1.0340
  650MOL0     C85680   8.075   4.103   1.495 -0.3296 -0.1709  0.4807
  650MOL0     C85681   7.989   4.020   1.404 -0.5336 -0.2061 -0.7215
  650MOL0     C85682   8.053   4.015   1.261  0.2392  0.1353 -0.9693
  650MOL0     C85683   7.961   3.911   1.182 -0.2199 -0.4954 -0.9102
  650MOL0     C85684   7.820   3.957   1.139 -0.3338 -0.0568  0.3863
  650MOL0     N85685   7.734   3.839   1.150 -0.1715  0.1624 -0.2244
  650MOL0     C85686   7.683   3.764   1.044 -0.0488  0.3449  0.7956
  650MOL0     C85687   7.621   3.661   1.087 -0.5296  0.5030  0.3331
  650MOL0     C85688   7.529   3.569   1.005  0.6319 -0.5115 -0.7870
  650MOL0     C85689   7.383   3.632   1.001 -0.5473  0.1800  0.1120
  650MOL0     C85690   7.309   3.604   1.137  0.0391  0.2687  0.0045
  650MOL0     C85691   7.159   3.598   1.130 -0.3420 -0.7534  0.5754
  650MOL0     O85692   7.117   3.569   1.262  0.1170  0.0005 -0.1795
  650MOL0     C85693   7.095   3.676   1.345 -0.1501 -1.2057 -0.0840
  650MOL0     C85694   7.157   3.682   1.470  0.0071 -0.6322 -1.3155
  650MOL0     C85695   7.134   3.791   1.550  0.0967 -0.5584  0.2552
  650MOL0     C85696   7.045   3.896   1.510 -0.3226  0.0935  0.0722
  650MOL0     C85697   7.035   4.025   1.570  0.5870  0.0011  0.7745
  650MOL0     O85698   7.124   4.051   1.657  0.0496 -0.1724 -0.0623
  650MOL0     C85699   7.127   4.173   1.717  0.5692 -0.1505 -0.6056
  650MOL0     C85700   7.129   4.185   1.860  0.9180 -0.2122 -0.0339
  650MOL0     C85701   7.133   4.314   1.919  0.2067  0.4863  0.4487
  650MOL0     C85702   7.152   4.431   1.846 -0.6459  0.3469  0.2644
  650MOL0     O85703   7.154   4.551   1.904  0.4079  0.2477  0.4484
  650MOL0     C85704   7.101   4.663   1.832  0.4584 -0.7819 -0.3266
  650MOL0     C85705   7.114   4.794   1.921 -0.1711  0.8020 -0.6845
  650MOL0     C85706   7.014   4.783   2.032  0.2327  0.5228 -0.1907
  650MOL0     C85707   7.024   4.904   2.136  0.7764 -0.0111  0.2990
  650MOL0     C85708   6.941   4.900   2.257  0.5255  0.1892  0.2928
  650MOL0     C85709   6.981   4.999   2.361  0.0215 -0.5997  0.3573
  650MOL0     C85710   7.110   4.957   2.442  0.3332  0.3607 -0.2081
  650MOL0     C85711   7.073   4.842   2.535  0.5154  0.3706  0.0539
  650MOL0    Cl85712   6.985   4.923   2.669 -0.6614 -0.2213  0.0203
  650MOL0     C85713   7.170   4.410   1.698 -0.0692  1.2374 -0.0459
  650MOL0     C85714   7.146   4.285   1.634  0.2167  0.0701 -0.5958
  650MOL0     O85715   6.941   4.097   1.539 -0.0683  0.0480  0.3414
  650MOL0     C85716   6.982   3.884   1.385 -0.3840  0.3676  0.4121
  650MOL0     C85717   7.000   3.774   1.304 -1.3817  0.1401 -0.3462
  650MOL0     N85718   7.635   3.668   1.226  0.2379  1.0451  0.2325
  650MOL0     N85719   7.703   3.771   1.264  0.1518  0.1717  0.6213
  650MOL0     C85720   8.274   4.411   2.068  0.0321  0.2580 -1.1365
  650MOL0     C85721   8.360   4.382   2.180 -0.2632 -0.0245 -0.2418
  650MOL0     C85722   8.672   4.274   2.460 -0.4745 -0.3680 -0.2994
  650MOL0     C85723   8.695   4.320   2.585  0.9875 -0.5143 -0.0420
  650MOL0     C85724   8.822   4.323   2.646  0.2822 -0.4413  0.5234
  650MOL0     C85725   8.929   4.266   2.581  0.5281 -0.0512  0.8059
  650MOL0     O85726   9.058   4.276   2.613  0.0061  0.2031 -0.5454
  650MOL0     C85727   9.105   4.341   2.729  0.4713 -0.0780 -0.6985
  650MOL0     C85728   9.260   4.332   2.759 -0.5375  0.7029 -0.4629
  650MOL0     C85729   9.302   4.432   2.869  0.3537  0.1069  0.2412
  650MOL0     C85730   9.447   4.406   2.935 -0.5833 -0.0628 -0.0479
  650MOL0     C85731   9.483   4.261   2.965 -0.2319 -0.0502  0.9226
  650MOL0     C85732   9.531   4.154   2.982 -0.3323 -0.1267 -0.1226
  650MOL0     C85733   8.909   4.201   2.458  0.0288 -0.6208  0.7575
  650MOL0     C85734   8.780   4.199   2.403 -0.0115 -0.9978 -0.3635
  650MOL0     H85735   8.425   4.057   2.108  0.1773  0.1545 -1.6763
  650MOL0     H85736   8.233   4.096   1.951 -0.1170 -0.1568  0.5861
  650MOL0     H85737   7.943   4.316   1.818 -0.2267 -2.4340 -1.3796
  650MOL0     H85738   8.006   4.183   1.911 -1.6044  0.3206 -0.1175
  650MOL0     H85739   8.179   4.129   1.740  1.1877 -0.0495  1.7684
  650MOL0     H85740   8.162   4.281   1.663  0.1543  0.0662  1.5318
  650MOL0     H85741   7.922   4.225   1.609  0.6691  0.7219  0.0950
  650MOL0     H85742   7.939   4.064   1.661 -4.9118 -0.5222 -4.7932
  650MOL0     H85743   8.097   4.197   1.444 -0.2303 -0.4304  0.0430
  650MOL0     H85744   8.163   4.046   1.525  0.2882 -0.1041 -1.1393
  650MOL0     H85745   7.889   4.062   1.401  0.4491  2.4045 -0.0475
  650MOL0     H85746   7.983   3.921   1.450  0.2658 -1.7963 -3.7881
  650MOL0     H85747   8.156   3.977   1.260 -0.6707 -2.5205 -0.4159
  650MOL0     H85748   8.048   4.114   1.216  0.3079  0.9554  0.7582
  650MOL0     H85749   8.019   3.890   1.092  0.9911  0.8510 -0.4699
  650MOL0     H85750   7.959   3.820   1.242  2.8079 -2.7513 -3.8767
  650MOL0     H85751   7.842   3.995   1.039  0.6636 -0.4812  0.4281
  650MOL0     H85752   7.785   4.044   1.194  0.1616  1.5219 -1.6564
  650MOL0     H85753   7.694   3.791   0.940 -1.9922 -0.7900  0.2597
  650MOL0     H85754   7.523   3.471   1.054  2.2825 -0.5239 -0.5264
  650MOL0     H85755   7.564   3.544   0.905  2.7250  0.1016 -0.2679
  650MOL0     H85756   7.325   3.594   0.917  0.9671  2.5883 -2.1866
  650MOL0     H85757   7.391   3.739   0.978 -2.6762  0.5522  0.8522
  650MOL0     H85758   7.337   3.506   1.176 -1.8461 -0.6999 -0.9338
  650MOL0     H85759   7.334   3.678   1.214  0.2650 -0.1196  0.3040
  650MOL0     H85760   7.125   3.522   1.060  1.5781 -0.8784 -0.2648
  650MOL0     H85761   7.117   3.688   1.082  3.4711  0.1182 -1.5666
  650MOL0     H85762   7.229   3.610   1.509 -0.9125 -0.2353  1.3065
  650MOL0     H85763   7.182   3.796   1.648 -1.0598  1.5300  0.7661
  650MOL0     H85764   7.115   4.096   1.920  1.0014 -0.3861 -0.2724
  650MOL0     H85765   7.126   4.315   2.027 -0.4282 -1.7004  0.4767
  650MOL0     H85766   6.997   4.637   1.812  0.6190 -0.7521 -1.2390
  650MOL0     H85767   7.161   4.672   1.741 -0.1235 -4.1442 -1.1797
  650MOL0     H85768   7.105   4.884   1.860  3.2926  0.7490 -1.4807
  650MOL0     H85769   7.215   4.791   1.961 -0.1753 -2.7557 -0.5970
  650MOL0     H85770   7.040   4.697   2.093 -0.7022  1.2605  1.3133
  650MOL0     H85771   6.910   4.776   1.997  0.3570  2.6611 -1.1989
  650MOL0     H85772   7.127   4.914   2.171 -0.1172  1.7699  2.6514
  650MOL0     H85773   7.000   4.991   2.075  0.8149 -0.1190  0.1279
  650MOL0     H85774   6.941   4.798   2.296 -0.9895 -2.3194 -5.2604
  650MOL0     H85775   6.838   4.918   2.226 -0.1255 -1.1233  1.6151
  650MOL0     H85776   6.896   5.010   2.428  0.8043 -0.4247  1.3358
  650MOL0     H85777   6.992   5.098   2.314  2.9434 -0.8559  0.3252
  650MOL0     H85778   7.186   4.922   2.372  1.3422  0.2366  0.9075
  650MOL0     H85779   7.156   5.045   2.486  0.0266  0.0603  0.7511
  650MOL0     H85780   7.160   4.793   2.579  0.3938  0.7243  0.7073
  650MOL0     H85781   7.009   4.765   2.490 -1.0903  0.3061  2.2419
  650MOL0     H85782   7.185   4.493   1.630 -3.1646  2.6899  0.8227
  650MOL0     H85783   7.169   4.279   1.528  2.7294 -0.2996 -0.0937
  650MOL0     H85784   6.908   3.955   1.348 -1.2497 -1.5870 -1.9063
  650MOL0     H85785   6.942   3.767   1.213 -1.6049  0.2220 -0.2089
  650MOL0     H85786   8.241   4.514   2.052  0.4153  0.8513  1.3832
  650MOL0     H85787   8.386   4.458   2.254 -1.4281  2.0158 -1.8209
  650MOL0     H85788   8.609   4.369   2.629  1.8733 -0.1391  1.3350
  650MOL0     H85789   8.841   4.373   2.740 -1.7297  3.1898 -0.7977
  650MOL0     H85790   9.060   4.296   2.818  0.7121 -0.8915 -0.9762
  650MOL0     H85791   9.070   4.445   2.726  1.0207  0.1021 -1.0406
  650MOL0     H85792   9.291   4.229   2.779 -3.3180 -0.0642  0.3463
  650MOL0     H85793   9.302   4.366   2.664 -2.9385 -0.4620 -2.0578
  650MOL0     H85794   9.235   4.426   2.955  1.8379  0.4973  1.4702
  650MOL0     H85795   9.309   4.529   2.819  2.5904 -1.3337 -2.5258
  650MOL0     H85796   9.532   4.455   2.887 -2.8882  0.9711 -3.4718
  650MOL0     H85797   9.450   4.454   3.034  2.3266 -1.0602  0.4501
  650MOL0     H85798   9.561   4.053   3.005 -2.7093 -0.6581  0.8825
  650MOL0     H85799   8.991   4.160   2.401 -0.0738  1.3783 -0.9714
  650MOL0     H85800   8.761   4.157   2.305  2.6275 -1.5001 -0.7337
  651MOL0     O85801   7.997  10.732   0.198  0.1171 -0.4472 -0.1864
  651MOL0     C85802   7.916  10.810   0.247 -0.1627  0.2440  0.0143
  651MOL0     O85803   7.940  10.895   0.358  0.7044 -0.3926 -0.0354
  651MOL0     C85804   8.066  10.931   0.402 -0.5654  0.1889 -0.8313
  651MOL0     C85805   8.074  10.950   0.540 -0.5872  0.4128  0.1211
  651MOL0     C85806   8.189  10.998   0.601  0.0021 -0.6143 -0.0565
  651MOL0     C85807   8.296  11.038   0.515 -0.2781 -0.1441 -0.9028
  651MOL0     O85808   8.415  11.108   0.560 -0.2949  0.6491  0.4004
  651MOL0     C85809   8.375  11.227   0.631  0.8001 -0.2415 -0.5344
  651MOL0     C85810   8.467  11.234   0.755 -0.4064 -0.5647 -0.0014
  651MOL0     C85811   8.617  11.266   0.710  0.5934  0.3296 -0.7916
  651MOL0     C85812   8.699  11.286   0.836  0.0634 -1.1483 -0.4626
  651MOL0     C85813   8.687  11.420   0.906 -0.3641 -0.3583 -0.0540
  651MOL0     C85814   8.784  11.524   0.849 -0.4475  0.2579 -0.2798
  651MOL0     C85815   8.764  11.658   0.908  0.7760 -1.0452 -0.4387
  651MOL0     C85816   8.893  11.750   0.903  0.6992  0.3933  0.3456
  651MOL0     N85817   8.899  11.843   0.786 -0.2415  0.4402  0.3278
  651MOL0     C85818   8.889  11.979   0.796  0.0521  0.3463 -0.7962
  651MOL0     C85819   8.914  12.014   0.669  0.0164 -0.3436  0.9198
  651MOL0     C85820   8.916  12.160   0.626 -0.2862 -0.9325  0.4158
  651MOL0     C85821   9.061  12.214   0.613  1.1805  0.6935 -0.5889
  651MOL0     C85822   9.128  12.147   0.492  0.7209 -0.2320  0.2022
  651MOL0     C85823   9.201  12.260   0.419  0.6760 -0.5410 -0.0326
  651MOL0     O85824   9.326  12.293   0.490  0.0543  0.2067  0.7753
  651MOL0     C85825   9.407  12.385   0.428 -0.0724  0.0778 -0.3062
  651MOL0     C85826   9.393  12.450   0.306 -0.4581  0.4354 -1.5205
  651MOL0     C85827   9.484  12.541   0.249  0.4924 -0.8703  0.0667
  651MOL0     C85828   9.601  12.582   0.325  0.8247 -0.9042 -0.3714
  651MOL0     C85829   9.700  12.690   0.286 -0.9762 -0.4260 -0.0341
  651MOL0     O85830   9.800  12.711   0.380  0.8811 -0.3674  0.3437
  651MOL0     C85831   9.871  12.824   0.373 -0.8595 -0.8152 -1.2877
  651MOL0     C85832   9.823  12.940   0.430  0.0833  0.1338 -0.5787
  651MOL0     C85833   9.907  13.054   0.426  1.2146 -0.0836 -0.7518
  651MOL0     C85834  10.031  13.044   0.353 -0.5630  0.3101 -0.2140
  651MOL0     O85835  10.113  13.143   0.320  0.0512 -0.6073 -0.8221
  651MOL0     C85836  10.123  13.178   0.183 -0.6438 -0.2135 -0.0720
  651MOL0     C85837  10.246  13.269   0.164 -0.9170 -0.2539 -0.4076
  651MOL0     C85838  10.374  13.185   0.136 -0.3579 -0.2912 -0.0178
  651MOL0     C85839  10.493  13.195   0.239  0.4798 -0.1188  0.3245
  651MOL0     C85840  10.445  13.142   0.379 -0.6947  0.0547  0.6199
  651MOL0     C85841  10.553  13.150   0.489  0.2182 -0.2843 -1.5898
  651MOL0     C85842  10.607  13.292   0.521  0.0286 -0.2233 -0.1272
  651MOL0     C85843  10.493  13.398   0.518 -0.2595 -0.8265  0.2215
  651MOL0    Cl85844  10.546  13.556   0.588  0.4982 -0.1706 -0.6231
  651MOL0     C85845  10.068  12.924   0.292 -0.1148  0.6086 -0.6409
  651MOL0     C85846   9.987  12.817   0.307  1.0023  0.0832  0.4365
  651MOL0     O85847   9.692  12.744   0.173 -0.2486 -0.7314 -0.8050
  651MOL0     C85848   9.610  12.522   0.456  0.6981  0.7788  0.3322
  651MOL0     C85849   9.516  12.425   0.503 -0.1830 -0.5102 -0.3066
  651MOL0     N85850   8.922  11.911   0.585  0.0403  0.2666  0.4182
  651MOL0     N85851   8.913  11.801   0.656 -0.8542  0.1414 -0.3947
  651MOL0     C85852   8.285  11.010   0.376 -0.7987 -0.4524  0.2991
  651MOL0     C85853   8.177  10.952   0.316  0.1322 -0.0841  0.1607
  651MOL0     C85854   7.791  10.809   0.187 -0.0024 -0.4281  0.1316
  651MOL0     C85855   7.734  10.692   0.127 -0.1403  0.1878 -0.7822
  651MOL0     C85856   7.600  10.686   0.090  0.0798  0.1371  0.4451
  651MOL0     C85857   7.514  10.794   0.106 -0.6420 -0.3108 -0.6847
  651MOL0     O85858   7.386  10.763   0.066  0.7575  0.3970 -0.0009
  651MOL0     C85859   7.276  10.847   0.066 -0.1047 -0.0410 -0.9832
  651MOL0     C85860   7.196  10.828   0.195  0.1106  0.7382  0.1219
  651MOL0     C85861   7.161  10.680   0.219 -0.0248 -0.5021 -0.5126
  651MOL0     C85862   7.079  10.666   0.351  0.7786  0.5319  0.4647
  651MOL0     C85863   7.173  10.662   0.470 -0.8961 -0.3966  0.2742
  651MOL0     C85864   7.233  10.661   0.581  0.9695 -0.8359 -1.0714
  651MOL0     C85865   7.568  10.914   0.159  0.1201 -0.7509  0.3689
  651MOL0     C85866   7.703  10.916   0.202 -0.4223  0.0061  0.2456
  651MOL0     H85867   7.994  10.926   0.610 -0.2136  2.3545  1.3068
  651MOL0     H85868   8.187  11.008   0.709  3.5122 -1.6564  0.2248
  651MOL0     H85869   8.269  11.234   0.657  0.9211 -1.1150  0.1988
  651MOL0     H85870   8.400  11.312   0.565  1.5897 -1.5578 -1.9992
  651MOL0     H85871   8.455  11.141   0.812  0.8524  0.3218  1.7879
  651MOL0     H85872   8.432  11.314   0.820 -2.0248 -2.5213  1.7006
  651MOL0     H85873   8.614  11.363   0.659  1.3557  0.0449 -1.4003
  651MOL0     H85874   8.663  11.202   0.634  4.2603  0.4571  1.0838
  651MOL0     H85875   8.661  11.217   0.911  0.2549  0.6138  1.3119
  651MOL0     H85876   8.803  11.258   0.814  0.9685  2.1947 -0.9828
  651MOL0     H85877   8.707  11.405   1.012  0.8143 -0.2741 -0.2496
  651MOL0     H85878   8.588  11.466   0.896 -1.1723 -1.9401  0.3098
  651MOL0     H85879   8.772  11.541   0.741 -1.3076  0.0782 -0.2209
  651MOL0     H85880   8.881  11.478   0.873 -0.2994  0.1068 -1.1229
  651MOL0     H85881   8.688  11.710   0.850  2.1768 -0.8269 -2.1614
  651MOL0     H85882   8.725  11.647   1.010 -0.7286  2.6277 -0.4489
  651MOL0     H85883   8.986  11.692   0.902  0.7693  0.4566  1.9532
  651MOL0     H85884   8.896  11.806   0.996 -2.4078  1.5468 -0.1422
  651MOL0     H85885   8.881  12.042   0.885  0.0642 -0.7980  0.0344
  651MOL0     H85886   8.869  12.223   0.703  1.4486 -0.4431  1.1259
  651MOL0     H85887   8.869  12.149   0.528  0.4848 -1.1403  0.0602
  651MOL0     H85888   9.111  12.181   0.705 -3.2864 -0.4229  1.7196
  651MOL0     H85889   9.069  12.322   0.598  1.4347  0.3206 -3.8942
  651MOL0     H85890   9.200  12.075   0.530  3.0189  1.9288  0.1748
  651MOL0     H85891   9.054  12.108   0.421 -0.1199  0.7725  0.4822
  651MOL0     H85892   9.150  12.356   0.410  1.8352  0.0893 -0.1324
  651MOL0     H85893   9.216  12.221   0.318 -0.4931  0.0765 -0.4588
  651MOL0     H85894   9.295  12.445   0.259 -1.5261  2.2874  0.3458
  651MOL0     H85895   9.470  12.565   0.144  0.7084 -1.1844 -0.0356
  651MOL0     H85896   9.724  12.935   0.473 -0.0420  0.1829 -0.8600
  651MOL0     H85897   9.866  13.143   0.473 -2.3513 -2.6028  1.4106
  651MOL0     H85898  10.029  13.226   0.154 -1.3351 -2.1747 -1.3234
  651MOL0     H85899  10.145  13.097   0.113  0.3999 -0.3423  0.3826
  651MOL0     H85900  10.258  13.332   0.253 -0.7098  0.8139 -1.1767
  651MOL0     H85901  10.237  13.328   0.073  0.1073 -2.6296 -2.1470
  651MOL0     H85902  10.416  13.203   0.037  0.2150  1.6635  0.5360
  651MOL0     H85903  10.351  13.078   0.133 -2.3275 -0.1783  4.2537
  651MOL0     H85904  10.572  13.129   0.202  2.4249  1.7306  1.0034
  651MOL0     H85905  10.536  13.295   0.245 -0.1875  0.2353 -0.6142
  651MOL0     H85906  10.398  13.043   0.369 -1.8605  0.7100 -0.8367
  651MOL0     H85907  10.357  13.197   0.413 -1.0246  2.1035 -3.0797
  651MOL0     H85908  10.645  13.092   0.478  0.9413  0.2687  0.9898
  651MOL0     H85909  10.508  13.120   0.584 -1.5007  4.0144 -0.8062
  651MOL0     H85910  10.648  13.303   0.622 -1.0377 -0.6633  0.3574
  651MOL0     H85911  10.679  13.321   0.443  0.6023  1.2705  0.9020
  651MOL0     H85912  10.397  13.367   0.561 -1.5535  2.2186 -0.1804
  651MOL0     H85913  10.469  13.426   0.415  4.2359 -0.6898 -0.9969
  651MOL0     H85914  10.166  12.911   0.246  0.2229  0.7754  0.0178
  651MOL0     H85915  10.040  12.733   0.262 -0.0600  1.3008 -3.5145
  651MOL0     H85916   9.705  12.534   0.507  0.4159 -0.6376  1.2331
  651MOL0     H85917   9.536  12.382   0.600  1.4597  1.9845  0.5511
  651MOL0     H85918   8.366  11.055   0.319 -0.9040  2.3021  2.1433
  651MOL0     H85919   8.190  10.932   0.210  2.4705  2.8687 -0.2440
  651MOL0     H85920   7.802  10.607   0.120  1.8966  1.5921  0.9074
  651MOL0     H85921   7.561  10.595   0.046 -2.3319  1.1903  0.2770
  651MOL0     H85922   7.212  10.834  -0.022  2.6115 -0.2749 -3.0315
  651MOL0     H85923   7.298  10.954   0.055  1.3628 -0.4668 -2.6717
  651MOL0     H85924   7.264  10.863   0.273  0.5217 -0.0099  0.1071
  651MOL0     H85925   7.108  10.892   0.203 -2.7312 -2.8873  0.2770
  651MOL0     H85926   7.251  10.619   0.208 -0.1081 -0.7759  0.2923
  651MOL0     H85927   7.094  10.667   0.134 -0.5396  2.0469 -0.5994
  651MOL0     H85928   7.002  10.743   0.360  1.6101  1.5138 -0.4558
  651MOL0     H85929   7.027  10.570   0.346  0.7062  0.5650  0.6009
  651MOL0     H85930   7.261  10.665   0.684  3.2227  0.2209 -1.6526
  651MOL0     H85931   7.506  11.003   0.153 -0.9430 -1.5138 -0.4717
  651MOL0     H85932   7.730  11.009   0.252 -2.5548 -0.5766  2.6985
  652MOL0     O85933   4.409   9.598   8.989 -0.3518  0.5348 -0.0475
  652MOL0     C85934   4.498   9.654   8.921  0.7827  1.0319 -0.2141
  652MOL0     O85935   4.475   9.713   8.807 -0.1362  0.1089  0.8522
  652MOL0     C85936   4.348   9.737   8.762 -0.9972 -0.5163  0.2582
  652MOL0     C85937   4.269   9.626   8.722 -0.7977  0.4413 -0.1716
  652MOL0     C85938   4.150   9.646   8.667 -0.4708  0.5667 -0.6999
  652MOL0     C85939   4.100   9.772   8.653  0.0978 -0.7833  1.1159
  652MOL0     O85940   3.975   9.788   8.598  0.4959  1.0317  0.0834
  652MOL0     C85941   3.932   9.904   8.530 -0.0848  0.0272 -0.2726
  652MOL0     C85942   3.801   9.875   8.457  0.6704  1.0343  0.3796
  652MOL0     C85943   3.717   9.998   8.411  0.2244  0.3962 -0.3518
  652MOL0     C85944   3.793  10.099   8.341  0.0326  0.3836  0.8816
  652MOL0     C85945   3.706  10.214   8.284 -0.0267  0.6747  0.3346
  652MOL0     C85946   3.655  10.160   8.149 -0.1748  0.6115  0.8908
  652MOL0     C85947   3.569  10.272   8.091  1.2949  0.4013  0.1767
  652MOL0     C85948   3.558  10.241   7.947  0.9514 -0.4916  0.1088
  652MOL0     N85949   3.470  10.331   7.865 -0.6834  0.3238  0.6923
  652MOL0     C85950   3.337  10.363   7.890 -0.6661 -0.5283  0.5746
  652MOL0     C85951   3.289  10.410   7.777  0.1899  0.3126  0.4405
  652MOL0     C85952   3.156  10.448   7.732 -0.9658 -0.4314  0.3140
  652MOL0     C85953   3.051  10.337   7.743  0.0460 -0.0080  0.6943
  652MOL0     C85954   2.915  10.356   7.669 -0.3421 -0.6441  0.5791
  652MOL0     C85955   2.818  10.244   7.694  0.2283  0.2719 -0.6001
  652MOL0     O85956   2.690  10.271   7.629  0.2739 -0.4284 -0.1899
  652MOL0     C85957   2.594  10.172   7.631 -0.5195 -0.6324  0.1691
  652MOL0     C85958   2.604  10.060   7.708  0.2696 -0.5884  0.3907
  652MOL0     C85959   2.498   9.968   7.709  0.1503  0.3352 -0.5682
  652MOL0     C85960   2.386   9.979   7.632  0.4942  0.5219  0.5078
  652MOL0     C85961   2.263   9.893   7.642  0.6446  0.1432 -0.8794
  652MOL0     O85962   2.217   9.843   7.759 -0.1842  0.3323 -0.2722
  652MOL0     C85963   2.117   9.751   7.755 -0.0500  0.1914  0.2886
  652MOL0     C85964   2.010   9.771   7.845  0.4709  0.1914  0.0807
  652MOL0     C85965   1.901   9.681   7.836 -0.4568  0.8545 -0.4701
  652MOL0     C85966   1.894   9.572   7.752  0.8149  0.1477  0.6227
  652MOL0     O85967   1.787   9.479   7.770  0.1775 -0.1622  0.4107
  652MOL0     C85968   1.656   9.527   7.734  0.3966  1.0144  0.2503
  652MOL0     C85969   1.557   9.456   7.832 -0.3997 -0.0029  0.5061
  652MOL0     C85970   1.574   9.500   7.985 -0.5553  0.0400  0.6359
  652MOL0     C85971   1.462   9.437   8.067  0.7436  0.0763  0.3643
  652MOL0     C85972   1.471   9.477   8.217 -0.5235 -0.3526  0.5885
  652MOL0     C85973   1.376   9.396   8.310 -1.4921 -0.8296  0.8177
  652MOL0     C85974   1.399   9.446   8.448 -0.0637 -0.0286 -0.0733
  652MOL0     C85975   1.357   9.334   8.551 -0.0914  0.3858  0.6938
  652MOL0    Cl85976   1.506   9.230   8.576 -0.2931 -0.2843 -0.2078
  652MOL0     C85977   2.001   9.547   7.672  0.5042  0.8206  0.6499
  652MOL0     C85978   2.112   9.631   7.677  0.1293  0.5830 -0.1052
  652MOL0     O85979   2.210   9.876   7.534  0.8444 -0.3410  0.0529
  652MOL0     C85980   2.375  10.096   7.550 -0.7304  0.1451 -0.2185
  652MOL0     C85981   2.479  10.186   7.550  0.6077 -1.1217 -0.5864
  652MOL0     N85982   3.387  10.405   7.683  0.3045  0.6160  0.0021
  652MOL0     N85983   3.498  10.357   7.731  0.0068  0.4414 -0.3662
  652MOL0     C85984   4.171   9.886   8.693 -0.4644  0.8565  1.1030
  652MOL0     C85985   4.301   9.865   8.745 -0.1232  0.0458 -0.4979
  652MOL0     C85986   4.636   9.615   8.950  0.1804  0.6578 -0.7838
  652MOL0     C85987   4.679   9.565   9.076  0.9863  0.6206  0.9830
  652MOL0     C85988   4.813   9.523   9.095  0.2293 -0.0113  0.3877
  652MOL0     C85989   4.906   9.523   8.986  0.3641  0.9955 -0.8517
  652MOL0     O85990   5.038   9.483   8.983  0.2449  0.4939  0.4656
  652MOL0     C85991   5.094   9.436   9.109  0.3165 -0.2928  0.4614
  652MOL0     C85992   5.232   9.385   9.088  0.3353 -0.0474  0.5204
  652MOL0     C85993   5.237   9.246   9.011 -0.4386 -0.4249 -0.7045
  652MOL0     C85994   5.375   9.188   9.009 -0.4262 -0.5627  0.3799
  652MOL0     C85995   5.453   9.234   8.892 -0.3761 -0.6053  0.1284
  652MOL0     C85996   5.517   9.263   8.792 -0.4044 -0.6368 -0.0622
  652MOL0     C85997   4.854   9.577   8.866 -0.7168  0.4115 -0.5645
  652MOL0     C85998   4.727   9.615   8.846 -0.6530  0.0550 -0.3026
  652MOL0     H85999   4.328   9.535   8.732  1.0171  1.5436 -0.3250
  652MOL0     H86000   4.109   9.554   8.627 -0.4524 -0.0614  0.6596
  652MOL0     H86001   4.002   9.938   8.453  1.4265  0.1697  1.1192
  652MOL0     H86002   3.896   9.971   8.608 -0.6974 -0.6040 -0.0040
  652MOL0     H86003   3.740   9.822   8.531  1.1573 -1.1879 -0.7077
  652MOL0     H86004   3.822   9.812   8.370 -0.2913  2.6225 -1.0558
  652MOL0     H86005   3.669  10.032   8.503  1.9589  0.6641  0.5021
  652MOL0     H86006   3.639   9.954   8.349  0.5710 -1.0155  0.1765
  652MOL0     H86007   3.868  10.139   8.411  0.8316 -0.6956  0.6753
  652MOL0     H86008   3.846  10.041   8.265 -2.3314 -0.6059 -0.1256
  652MOL0     H86009   3.774  10.297   8.262 -0.1269  0.0441 -2.7498
  652MOL0     H86010   3.625  10.248   8.349 -1.7963 -0.4043 -1.2006
  652MOL0     H86011   3.602  10.064   8.157  1.9194 -0.6656  0.2188
  652MOL0     H86012   3.736  10.145   8.077 -0.1238  2.0411  0.6337
  652MOL0     H86013   3.474  10.284   8.144  1.2221  0.6975 -0.0200
  652MOL0     H86014   3.626  10.364   8.109  0.8938  0.9096 -1.0614
  652MOL0     H86015   3.529  10.140   7.918  3.5433 -1.7364  1.5055
  652MOL0     H86016   3.659  10.247   7.907  2.9445  0.6045  4.6747
  652MOL0     H86017   3.270  10.345   7.974  0.1739 -0.8954  1.1807
  652MOL0     H86018   3.164  10.488   7.630 -1.3360  0.8628  0.7705
  652MOL0     H86019   3.119  10.526   7.799 -0.4164  1.0395 -1.0254
  652MOL0     H86020   3.050  10.312   7.849 -0.7467 -4.3059 -0.1269
  652MOL0     H86021   3.096  10.247   7.700  2.2106  0.8463  1.0267
  652MOL0     H86022   2.870  10.444   7.716  0.5134 -0.4628  1.0772
  652MOL0     H86023   2.924  10.377   7.562 -0.3611 -1.8874  0.3190
  652MOL0     H86024   2.813  10.229   7.802  3.0588 -0.6847 -0.5256
  652MOL0     H86025   2.860  10.160   7.639  0.9233 -0.8717  1.5791
  652MOL0     H86026   2.679  10.047   7.785 -1.1529 -0.5495  1.8355
  652MOL0     H86027   2.510   9.897   7.790  0.7577  1.4584  0.3611
  652MOL0     H86028   2.008   9.853   7.916 -0.6476 -1.0526  1.5507
  652MOL0     H86029   1.816   9.704   7.899 -0.4167  0.2602 -0.1867
  652MOL0     H86030   1.629   9.493   7.634 -0.3440 -1.8460  1.3213
  652MOL0     H86031   1.647   9.636   7.745  2.0808  1.2723 -0.5423
  652MOL0     H86032   1.570   9.348   7.819  2.4852  0.4849 -1.7904
  652MOL0     H86033   1.454   9.482   7.805 -1.1612 -1.2668  2.0580
  652MOL0     H86034   1.579   9.608   7.996  2.0175  0.0668 -0.2111
  652MOL0     H86035   1.670   9.465   8.023 -1.3031 -2.0214  0.7532
  652MOL0     H86036   1.372   9.475   8.019  1.0169  1.4941  0.9121
  652MOL0     H86037   1.475   9.330   8.049 -0.0090  0.0284  0.0620
  652MOL0     H86038   1.442   9.581   8.228  1.5842  0.0339  4.1351
  652MOL0     H86039   1.578   9.468   8.241 -0.1650  0.0405 -0.7783
  652MOL0     H86040   1.385   9.287   8.303  1.8738 -0.7158  1.6666
  652MOL0     H86041   1.274   9.419   8.277 -1.1380 -0.1979  0.1318
  652MOL0     H86042   1.501   9.471   8.475 -0.3550 -1.8392  3.1553
  652MOL0     H86043   1.336   9.535   8.458 -2.1788 -1.0939 -2.5283
  652MOL0     H86044   1.280   9.268   8.511  0.0624  1.4030 -1.3919
  652MOL0     H86045   1.325   9.385   8.642 -3.0152 -0.5657  0.2893
  652MOL0     H86046   2.000   9.461   7.606  2.9498  2.4871 -1.8109
  652MOL0     H86047   2.190   9.615   7.603 -0.7254  1.9383 -1.3601
  652MOL0     H86048   2.284  10.120   7.496  0.0698  2.1079 -0.8057
  652MOL0     H86049   2.475  10.272   7.484 -0.2864 -1.1233 -0.5393
  652MOL0     H86050   4.129   9.986   8.701  4.3969  3.1049  1.8989
  652MOL0     H86051   4.363   9.947   8.779 -1.8377  0.4417  1.9302
  652MOL0     H86052   4.606   9.560   9.156  0.1208 -2.1855  0.1467
  652MOL0     H86053   4.845   9.489   9.193  2.8306  0.4782 -0.2085
  652MOL0     H86054   5.027   9.362   9.154  0.6279 -2.4944 -2.3748
  652MOL0     H86055   5.095   9.524   9.174 -0.6045 -0.4018  0.6359
  652MOL0     H86056   5.280   9.459   9.024 -1.9919  0.0271 -1.2535
  652MOL0     H86057   5.274   9.386   9.189  2.2792  4.3114 -0.1012
  652MOL0     H86058   5.197   9.257   8.910  1.5805  1.8935 -1.3551
  652MOL0     H86059   5.168   9.176   9.057 -1.6047 -0.4290 -2.3836
  652MOL0     H86060   5.428   9.227   9.097 -1.4619 -0.1924  0.8512
  652MOL0     H86061   5.366   9.079   9.013 -0.3193 -0.6714 -1.5271
  652MOL0     H86062   5.580   9.297   8.713  0.3372 -1.0463  0.3523
  652MOL0     H86063   4.924   9.568   8.782 -1.2200 -2.4225 -0.7928
  652MOL0     H86064   4.708   9.645   8.743 -1.9011  2.3685  0.5424
  653MOL0     O86065   2.338   3.706  10.169 -0.4864 -0.3416 -0.3827
  653MOL0     C86066   2.372   3.623  10.086  0.2279 -0.0836  0.5792
  653MOL0     O86067   2.319   3.608   9.965  0.0651  0.0453 -0.2413
  653MOL0     C86068   2.229   3.701   9.915 -0.1874 -0.5648 -1.0961
  653MOL0     C86069   2.241   3.843   9.939  0.2448  0.1635  0.3374
  653MOL0     C86070   2.142   3.933   9.898 -0.3006 -0.4030  0.7668
  653MOL0     C86071   2.027   3.873   9.826 -1.4950 -0.9010  0.0320
  653MOL0     O86072   1.920   3.956   9.777 -0.3596  0.4069 -0.1043
  653MOL0     C86073   1.937   4.096   9.782  0.5153  1.2367  0.8008
  653MOL0     C86074   1.822   4.160   9.703 -0.2697  0.0361  0.4895
  653MOL0     C86075   1.778   4.301   9.748  0.7073 -0.6617  0.5897
  653MOL0     C86076   1.653   4.336   9.644  0.0001 -0.6413 -0.2250
  653MOL0     C86077   1.571   4.466   9.669 -0.3205 -0.0889  0.0301
  653MOL0     C86078   1.434   4.451   9.598  0.7382  0.4367 -0.5825
  653MOL0     C86079   1.356   4.586   9.594  0.3283  0.1361 -0.1220
  653MOL0     C86080   1.336   4.645   9.733 -0.0275 -0.8024 -0.9420
  653MOL0     N86081   1.247   4.567   9.818  1.1896  0.5126 -0.0933
  653MOL0     C86082   1.284   4.461   9.903 -0.2797 -0.1103  0.4335
  653MOL0     C86083   1.163   4.422   9.949  0.7585 -0.9683 -0.6262
  653MOL0     C86084   1.143   4.310  10.055 -0.3518 -0.1548  0.4099
  653MOL0     C86085   1.089   4.358  10.190 -0.2955  0.1929 -0.3919
  653MOL0     C86086   1.170   4.473  10.262 -0.6476 -0.8470  0.3798
  653MOL0     C86087   1.314   4.445  10.304 -0.2156 -0.1193  0.1873
  653MOL0     O86088   1.401   4.445  10.186  0.3971 -1.1324 -0.3754
  653MOL0     C86089   1.523   4.389  10.219 -0.0169 -1.0924  0.0225
  653MOL0     C86090   1.591   4.397  10.337  0.0131  0.5632  0.1359
  653MOL0     C86091   1.707   4.317  10.355 -0.4917 -0.6958  0.4373
  653MOL0     C86092   1.761   4.245  10.246  0.4365 -1.2128 -0.8878
  653MOL0     C86093   1.874   4.158  10.269  0.1891 -0.1119  0.3590
  653MOL0     O86094   1.922   4.147  10.398 -0.2821 -0.4043 -0.4109
  653MOL0     C86095   2.021   4.052  10.441  0.3954  0.0555 -0.0023
  653MOL0     C86096   2.089   3.958  10.366 -0.4246  0.2088  0.0316
  653MOL0     C86097   2.158   3.854  10.427 -0.2430  0.1923 -0.1426
  653MOL0     C86098   2.158   3.837  10.568 -0.0330 -0.7741 -0.4090
  653MOL0     O86099   2.231   3.756  10.649 -0.1600  0.6104 -0.1996
  653MOL0     C86100   2.294   3.638  10.599  0.0151 -0.5882  0.2548
  653MOL0     C86101   2.287   3.526  10.704 -0.1577 -0.4171  0.6069
  653MOL0     C86102   2.319   3.583  10.846 -0.5409  0.2888 -0.1433
  653MOL0     C86103   2.377   3.461  10.930  0.3951  1.2107 -0.9259
  653MOL0     C86104   2.290   3.340  10.965 -0.0763  0.2011 -0.2923
  653MOL0     C86105   2.376   3.211  11.006  0.3668 -0.2275 -0.1460
  653MOL0     C86106   2.284   3.098  11.047 -0.0720  0.2081 -0.1044
  653MOL0     C86107   2.195   3.055  10.934  0.3360 -0.0801 -0.3573
  653MOL0    Cl86108   2.100   2.914  11.000 -0.1773  0.0319 -0.0370
  653MOL0     C86109   2.107   3.929  10.646  0.5134 -0.1580 -0.2013
  653MOL0     C86110   2.041   4.043  10.583  1.0076  0.4010  0.2108
  653MOL0     O86111   1.931   4.108  10.176  0.2700  0.0723  0.0261
  653MOL0     C86112   1.700   4.246  10.122 -0.6383 -0.8596  1.0611
  653MOL0     C86113   1.587   4.311  10.111 -0.0772 -0.0582 -0.0618
  653MOL0     N86114   1.062   4.497   9.893  0.3759 -0.6800 -0.2677
  653MOL0     N86115   1.114   4.580   9.813  0.2197 -0.5663 -1.0776
  653MOL0     C86116   2.013   3.738   9.802 -1.0836 -0.2062 -1.3271
  653MOL0     C86117   2.114   3.655   9.844  0.2708  0.0695 -1.1600
  653MOL0     C86118   2.461   3.514  10.124 -0.2521  0.3679 -0.1186
  653MOL0     C86119   2.541   3.518  10.241  0.3113  0.4954 -0.4350
  653MOL0     C86120   2.617   3.414  10.280  0.8650  0.1551 -0.7355
  653MOL0     C86121   2.625   3.295  10.211 -0.1735 -0.1598  0.0471
  653MOL0     O86122   2.709   3.204  10.255 -1.3544  0.7531  0.5946
  653MOL0     C86123   2.756   3.111  10.163  0.2846  0.3202  0.1559
  653MOL0     C86124   2.871   3.035  10.206  0.0953  0.5601 -0.7526
  653MOL0     C86125   3.003   3.113  10.230  0.6180 -0.6737  0.7285
  653MOL0     C86126   3.098   3.038  10.317  0.7392 -0.1562  0.0869
  653MOL0     C86127   3.227   3.081  10.282 -0.7359  1.0377  0.5981
  653MOL0     C86128   3.333   3.110  10.235 -0.7607  0.1579 -0.0668
  653MOL0     C86129   2.532   3.284  10.099 -0.4698 -0.6797 -0.2234
  653MOL0     C86130   2.450   3.385  10.057 -0.4874 -0.1981 -0.1320
  653MOL0     H86131   2.328   3.884   9.988  0.9803 -1.8154  0.7572
  653MOL0     H86132   2.172   4.037   9.907 -0.5196  0.1362 -3.0457
  653MOL0     H86133   2.037   4.126   9.748 -0.1589  2.0306 -0.5716
  653MOL0     H86134   1.938   4.137   9.883 -0.9635  1.8657  0.5866
  653MOL0     H86135   1.740   4.089   9.714 -0.6971 -0.0834 -2.6305
  653MOL0     H86136   1.843   4.156   9.596  2.4511 -1.2268  0.9948
  653MOL0     H86137   1.857   4.377   9.736 -1.6958  1.7419 -1.1848
  653MOL0     H86138   1.743   4.302   9.852 -0.0011  0.6812  0.3701
  653MOL0     H86139   1.694   4.351   9.544 -1.3659  0.5626 -0.6474
  653MOL0     H86140   1.584   4.253   9.627 -2.8153  0.2570  4.8992
  653MOL0     H86141   1.634   4.546   9.629  0.9762  0.7072  3.3616
  653MOL0     H86142   1.565   4.473   9.778  2.8480  0.8762  0.2517
  653MOL0     H86143   1.375   4.381   9.658 -0.8011  2.6487  0.6230
  653MOL0     H86144   1.435   4.409   9.497 -0.5229 -0.1263 -0.3787
  653MOL0     H86145   1.412   4.653   9.527 -1.4248  2.1542  0.3273
  653MOL0     H86146   1.261   4.569   9.543  2.3981  1.5956 -5.0434
  653MOL0     H86147   1.289   4.743   9.718  0.9103  0.2627  2.3616
  653MOL0     H86148   1.431   4.670   9.780 -0.6707 -2.4578  1.3901
  653MOL0     H86149   1.375   4.404   9.918 -1.6715 -1.9054  2.9889
  653MOL0     H86150   1.239   4.259  10.069 -0.3350 -0.1679  0.2512
  653MOL0     H86151   1.076   4.236  10.010 -0.8879  0.8436 -0.4924
  653MOL0     H86152   1.086   4.274  10.259 -0.5435 -0.4220 -1.1394
  653MOL0     H86153   0.985   4.386  10.172 -0.1508  0.1464 -1.3712
  653MOL0     H86154   1.166   4.565  10.203  0.7477 -0.0761  1.4243
  653MOL0     H86155   1.131   4.515  10.355  0.7397  2.2551 -0.2984
  653MOL0     H86156   1.303   4.348  10.352  0.6351 -0.6212 -0.6127
  653MOL0     H86157   1.346   4.528  10.368  1.5159  2.5106 -3.7354
  653MOL0     H86158   1.552   4.440  10.429  0.4079 -0.6378  0.8818
  653MOL0     H86159   1.744   4.320  10.457  0.0378 -0.5002  0.2399
  653MOL0     H86160   2.087   3.958  10.257  1.8562 -0.7828 -0.0891
  653MOL0     H86161   2.204   3.782  10.360  0.3595  2.1795 -1.9845
  653MOL0     H86162   2.397   3.660  10.567  1.0768 -2.3122  2.2185
  653MOL0     H86163   2.238   3.602  10.512 -2.1102 -0.6677  1.6032
  653MOL0     H86164   2.366   3.459  10.668  0.2965  0.5458 -0.2418
  653MOL0     H86165   2.190   3.475  10.703 -0.4774  0.0146 -2.6873
  653MOL0     H86166   2.227   3.630  10.883 -1.6637  1.8237 -4.3770
  653MOL0     H86167   2.395   3.662  10.839  1.1767 -1.4671 -3.9727
  653MOL0     H86168   2.461   3.415  10.876 -0.1824 -1.3325  0.2188
  653MOL0     H86169   2.418   3.501  11.023 -1.2665  1.2353 -0.1777
  653MOL0     H86170   2.221   3.323  10.882 -1.5360 -0.7919  1.0570
  653MOL0     H86171   2.228   3.366  11.052 -0.0136 -2.4743  0.6496
  653MOL0     H86172   2.447   3.225  11.088  0.4331 -0.8454 -0.0923
  653MOL0     H86173   2.432   3.173  10.920  0.3593 -5.2097  1.6899
  653MOL0     H86174   2.354   3.019  11.073  0.8033  0.9672 -0.0990
  653MOL0     H86175   2.227   3.138  11.132  2.2507  3.0535  0.2604
  653MOL0     H86176   2.255   3.023  10.849  1.0296 -2.4358  0.9311
  653MOL0     H86177   2.131   3.139  10.905 -1.4457 -1.4643 -0.6719
  653MOL0     H86178   2.109   3.922  10.754 -1.5061 -0.6522 -0.1565
  653MOL0     H86179   1.976   4.115  10.634 -1.2047 -0.8854 -0.6258
  653MOL0     H86180   1.737   4.196  10.034 -2.3566 -0.3172 -0.0221
  653MOL0     H86181   1.551   4.323  10.009 -0.9661  2.6481  0.5012
  653MOL0     H86182   1.932   3.702   9.738  0.8378  0.6144 -4.4508
  653MOL0     H86183   2.113   3.549   9.818  0.4955  0.1348 -1.4249
  653MOL0     H86184   2.525   3.604  10.306 -4.9412 -0.9484  0.7074
  653MOL0     H86185   2.669   3.413  10.375  1.3186  2.2303 -0.9151
  653MOL0     H86186   2.787   3.151  10.067 -2.0703 -1.4110 -1.4302
  653MOL0     H86187   2.668   3.046  10.158 -2.7654  4.1754 -0.6798
  653MOL0     H86188   2.850   2.994  10.306 -1.4561  5.7393  1.3723
  653MOL0     H86189   2.900   2.952  10.141  2.0043  1.1368 -0.7024
  653MOL0     H86190   2.999   3.215  10.268  0.8015 -0.0119 -0.9549
  653MOL0     H86191   3.046   3.125  10.130 -2.5884  0.6259 -0.6111
  653MOL0     H86192   3.072   3.073  10.418 -3.2145 -0.2026 -0.7451
  653MOL0     H86193   3.090   2.931  10.297 -0.6275  0.0268 -0.4212
  653MOL0     H86194   3.417   3.153  10.185 -1.0268  2.0730  1.0369
  653MOL0     H86195   2.518   3.189  10.047 -0.0387 -0.0518 -1.5360
  653MOL0     H86196   2.387   3.377   9.969  1.6764  2.5292 -2.1072
  654MOL0     O86197  10.724   3.159   2.224 -0.6186  0.4484 -0.4105
  654MOL0     C86198  10.803   3.250   2.241 -0.6289  0.4157 -1.2972
  654MOL0     O86199  10.787   3.369   2.303 -0.1484 -0.2589 -0.4704
  654MOL0     C86200  10.660   3.398   2.342 -0.2248  0.2833 -0.6427
  654MOL0     C86201  10.540   3.378   2.270 -0.1887  0.6522  0.5300
  654MOL0     C86202  10.408   3.411   2.304 -0.9293  0.5873  0.3255
  654MOL0     C86203  10.393   3.480   2.425 -0.7313  0.0965  0.8350
  654MOL0     O86204  10.275   3.531   2.470 -0.9581  0.3358  0.9957
  654MOL0     C86205  10.156   3.498   2.393  0.1515  0.6995  0.0692
  654MOL0     C86206  10.032   3.518   2.472  0.1787  0.2947  0.9106
  654MOL0     C86207   9.986   3.655   2.495  0.5763 -0.2008  0.0242
  654MOL0     C86208  10.079   3.747   2.584  0.4057  0.0210  0.7433
  654MOL0     C86209  10.021   3.886   2.626 -0.0248 -0.4877 -0.5152
  654MOL0     C86210  10.138   3.978   2.657  0.8680 -0.1136  0.2422
  654MOL0     C86211  10.083   4.111   2.719 -0.6111  0.1624  0.2739
  654MOL0     C86212  10.038   4.103   2.867  0.5354  0.1612  0.5064
  654MOL0     N86213  10.017   4.238   2.918  0.5308 -0.1131  0.8493
  654MOL0     C86214   9.923   4.323   2.876  0.4100  0.2495  0.2178
  654MOL0     C86215   9.938   4.445   2.927 -0.7748 -0.2541  0.8362
  654MOL0     C86216   9.856   4.570   2.892 -0.3707 -0.5046 -0.7050
  654MOL0     C86217   9.761   4.609   3.002 -0.2055  0.0880 -0.7030
  654MOL0     C86218   9.656   4.713   2.971 -0.8157 -0.4940  0.8155
  654MOL0     C86219   9.713   4.859   2.987  0.1871 -0.1210 -0.1458
  654MOL0     O86220   9.822   4.890   2.898  0.6360 -0.6092 -1.2346
  654MOL0     C86221   9.809   4.905   2.759 -0.9028  0.0738 -0.2852
  654MOL0     C86222   9.679   4.923   2.693  0.5841 -0.0306 -0.4209
  654MOL0     C86223   9.668   4.960   2.562 -0.3025 -1.1036  0.2270
  654MOL0     C86224   9.779   4.956   2.479 -0.3864  0.6510  0.4277
  654MOL0     C86225   9.766   4.977   2.334  0.1168  0.1835 -0.0060
  654MOL0     O86226   9.836   4.890   2.249 -0.5084  0.3356  0.6384
  654MOL0     C86227   9.807   4.878   2.116  0.8133 -0.9423  0.3302
  654MOL0     C86228   9.681   4.920   2.055 -0.0715 -0.2480 -0.6324
  654MOL0     C86229   9.671   4.916   1.914  0.2170 -0.3413 -0.9970
  654MOL0     C86230   9.767   4.854   1.836 -0.2170  0.0066  0.0367
  654MOL0     O86231   9.752   4.844   1.704  1.0696 -0.4486  0.4295
  654MOL0     C86232   9.679   4.729   1.670 -0.3807  0.1293 -0.2586
  654MOL0     C86233   9.631   4.713   1.533 -0.5773  0.1142  1.2407
  654MOL0     C86234   9.745   4.732   1.436 -0.2627 -0.7657  0.0962
  654MOL0     C86235   9.882   4.674   1.471 -0.7698  0.2911  0.4296
  654MOL0     C86236   9.969   4.713   1.360  0.5817  0.2150  0.9731
  654MOL0     C86237   9.953   4.630   1.225 -0.2058  0.2593 -0.1619
  654MOL0     C86238  10.019   4.685   1.101 -0.5212 -0.7806  0.7419
  654MOL0     C86239  10.025   4.583   0.986  0.4778  0.1287 -0.1572
  654MOL0    Cl86240  10.101   4.437   1.045 -0.0826  0.3051  0.2374
  654MOL0     C86241   9.885   4.809   1.899 -0.1343  0.2098 -0.3132
  654MOL0     C86242   9.911   4.821   2.033 -0.0347 -0.0015 -0.3886
  654MOL0     O86243   9.695   5.067   2.300  0.4403  0.5440  0.1578
  654MOL0     C86244   9.904   4.945   2.535  0.0683  0.8588 -0.1284
  654MOL0     C86245   9.919   4.922   2.680 -0.2247  0.1823  0.2361
  654MOL0     N86246  10.054   4.436   3.001 -0.0059 -0.1974  0.2305
  654MOL0     N86247  10.106   4.320   2.975 -0.0413  0.3816 -0.3317
  654MOL0     C86248  10.515   3.502   2.499  0.4358  0.6466  0.2068
  654MOL0     C86249  10.641   3.463   2.457  0.3223 -0.1642 -0.0369
  654MOL0     C86250  10.942   3.212   2.180 -0.2983 -0.0350 -0.6914
  654MOL0     C86251  10.977   3.077   2.144 -0.5986  0.6495 -0.0722
  654MOL0     C86252  11.109   3.044   2.119  0.7485  0.3152 -0.4095
  654MOL0     C86253  11.210   3.137   2.103  0.5659  0.3165 -0.4408
  654MOL0     O86254  11.341   3.102   2.081  0.6011 -0.4802 -0.4326
  654MOL0     C86255  11.391   3.113   1.941 -0.4214  0.3156 -0.1854
  654MOL0     C86256  11.342   2.992   1.860 -0.4600 -0.4695  0.2474
  654MOL0     C86257  11.395   2.854   1.901 -0.7302  0.4886 -0.7303
  654MOL0     C86258  11.548   2.834   1.871 -0.6536 -0.2644  1.0997
  654MOL0     C86259  11.577   2.863   1.733 -0.0440  0.0320 -0.3100
  654MOL0     C86260  11.593   2.894   1.618  0.3577 -1.0398  0.4125
  654MOL0     C86261  11.183   3.272   2.138  0.3397 -0.4077 -0.2065
  654MOL0     C86262  11.046   3.306   2.171 -0.3918 -0.3926  0.3141
  654MOL0     H86263  10.553   3.327   2.175 -0.1672  0.1245  0.8114
  654MOL0     H86264  10.326   3.385   2.238 -2.3574 -1.1563  2.6470
  654MOL0     H86265  10.156   3.391   2.371  3.0934  0.7775 -0.7233
  654MOL0     H86266  10.160   3.543   2.294  3.4706 -0.0057 -0.2321
  654MOL0     H86267  10.038   3.456   2.563 -3.6729  0.4546  1.4478
  654MOL0     H86268   9.956   3.456   2.425  2.2503 -0.6461 -1.4250
  654MOL0     H86269   9.884   3.654   2.535 -0.9816  0.1650 -3.5712
  654MOL0     H86270   9.989   3.706   2.399 -0.8932 -0.1855 -0.0485
  654MOL0     H86271  10.132   3.697   2.665  1.4903  1.6721  1.1008
  654MOL0     H86272  10.161   3.770   2.515 -1.2485  2.1234 -0.6616
  654MOL0     H86273   9.955   3.876   2.713  4.1045  0.9627  3.1060
  654MOL0     H86274   9.970   3.934   2.542  1.9000  0.1730 -1.3609
  654MOL0     H86275  10.184   4.003   2.561  0.7477  1.1828  0.5046
  654MOL0     H86276  10.212   3.927   2.719 -1.3283  1.3582  4.4861
  654MOL0     H86277  10.164   4.181   2.698 -1.5374  0.4560 -2.8391
  654MOL0     H86278  10.010   4.154   2.650  0.5215 -1.0374 -1.7876
  654MOL0     H86279  10.119   4.057   2.924  0.0590 -0.7726  0.4359
  654MOL0     H86280   9.948   4.042   2.873 -0.5409  1.8405  4.2664
  654MOL0     H86281   9.854   4.290   2.799 -1.0991  0.9288  1.2249
  654MOL0     H86282   9.799   4.550   2.801 -1.0626  0.5115 -0.5116
  654MOL0     H86283   9.930   4.649   2.879 -1.0841  0.3701  0.2954
  654MOL0     H86284   9.809   4.633   3.098 -0.7869 -1.4211  0.0107
  654MOL0     H86285   9.704   4.518   3.025  2.5637 -1.3815  0.9418
  654MOL0     H86286   9.628   4.693   2.867  1.1368  2.2721 -0.3466
  654MOL0     H86287   9.570   4.698   3.037 -0.2550 -1.5074  1.3381
  654MOL0     H86288   9.749   4.862   3.091  0.2381 -1.1147 -0.1298
  654MOL0     H86289   9.630   4.930   2.979  0.4948  0.0554 -2.6700
  654MOL0     H86290   9.589   4.918   2.754  1.5123  0.7122  1.0704
  654MOL0     H86291   9.570   4.978   2.519  0.0365  0.8207  0.1841
  654MOL0     H86292   9.598   4.940   2.121 -0.4963  3.7738 -2.1544
  654MOL0     H86293   9.577   4.957   1.878  0.0103  1.9706  1.8463
  654MOL0     H86294   9.584   4.732   1.724  0.0988 -2.2354  0.8423
  654MOL0     H86295   9.738   4.644   1.707 -0.2354  1.4232  2.8024
  654MOL0     H86296   9.558   4.788   1.501  0.2013 -0.7236 -3.2528
  654MOL0     H86297   9.579   4.618   1.523 -2.5356  0.9397  3.0324
  654MOL0     H86298   9.756   4.841   1.426 -2.8086 -0.4761 -0.2009
  654MOL0     H86299   9.715   4.698   1.337 -0.4542 -1.3789  0.3620
  654MOL0     H86300   9.927   4.732   1.552  2.8960  1.1153 -1.9202
  654MOL0     H86301   9.867   4.573   1.509  0.0436 -0.0558 -0.1407
  654MOL0     H86302  10.072   4.690   1.391  0.7574 -0.3669  0.0311
  654MOL0     H86303   9.962   4.819   1.335  1.3288  0.5254  2.0222
  654MOL0     H86304   9.846   4.633   1.207 -0.4486  1.8833  1.2686
  654MOL0     H86305   9.982   4.526   1.242  0.9771  0.0214 -3.0019
  654MOL0     H86306   9.975   4.776   1.059  3.6362  1.6502  1.1047
  654MOL0     H86307  10.121   4.716   1.126  0.0313 -1.2340 -0.8282
  654MOL0     H86308  10.069   4.631   0.898 -2.7918 -1.0668 -2.6315
  654MOL0     H86309   9.921   4.564   0.959  0.3697 -0.5853  0.7317
  654MOL0     H86310   9.960   4.754   1.844  2.8068  3.0801  0.4876
  654MOL0     H86311  10.005   4.786   2.075 -1.1529 -0.3619  2.0133
  654MOL0     H86312   9.992   4.949   2.471 -1.4189  0.0219 -2.3466
  654MOL0     H86313  10.024   4.918   2.704  0.2035  1.6402 -1.2395
  654MOL0     H86314  10.506   3.558   2.591  3.3674  1.8070 -0.0966
  654MOL0     H86315  10.739   3.482   2.500  0.3338  1.6562 -0.7918
  654MOL0     H86316  10.904   2.997   2.144  0.1965 -0.0950  0.1654
  654MOL0     H86317  11.140   2.943   2.093  1.2528  0.3762 -0.0647
  654MOL0     H86318  11.500   3.119   1.948 -0.5664  1.0092  3.4483
  654MOL0     H86319  11.368   3.212   1.900  0.3758  1.4349  1.8992
  654MOL0     H86320  11.234   2.986   1.875 -0.6165 -0.0919 -0.6581
  654MOL0     H86321  11.358   2.999   1.752  1.3061 -0.7110  0.4623
  654MOL0     H86322  11.335   2.777   1.852  3.0796 -1.7292 -2.4276
  654MOL0     H86323  11.375   2.839   2.007 -1.7889 -0.2145 -1.0233
  654MOL0     H86324  11.610   2.895   1.937 -1.1841  2.3395 -0.6217
  654MOL0     H86325  11.567   2.727   1.884 -0.7815 -0.5851 -0.9390
  654MOL0     H86326  11.597   2.917   1.513  2.6151 -2.3926  0.1248
  654MOL0     H86327  11.269   3.339   2.137  1.8784 -2.3029 -0.4813
  654MOL0     H86328  11.021   3.407   2.203 -1.9989 -1.1660  1.6386
  655MOL0     O86329  10.763  10.371  11.174  0.6068  0.7381 -0.6147
  655MOL0     C86330  10.667  10.420  11.228 -0.1060 -0.4564  0.9470
  655MOL0     O86331  10.606  10.522  11.163 -0.8075 -0.2017 -0.3340
  655MOL0     C86332  10.596  10.534  11.024  1.0532 -0.5861 -0.1459
  655MOL0     C86333  10.654  10.643  10.961 -0.0552  0.7015 -0.0213
  655MOL0     C86334  10.637  10.662  10.825 -0.1278 -0.3387  0.1379
  655MOL0     C86335  10.561  10.579  10.741 -0.6346  0.3739  0.6730
  655MOL0     O86336  10.556  10.612  10.604 -0.1077 -0.3383  0.1406
  655MOL0     C86337  10.562  10.508  10.504  0.0356  0.0735  0.7263
  655MOL0     C86338  10.472  10.554  10.392  0.7056 -0.4064  0.5999
  655MOL0     C86339  10.470  10.456  10.273  0.2458  0.3903  0.4693
  655MOL0     C86340  10.467  10.306  10.310  0.3331 -0.0906  0.8620
  655MOL0     C86341  10.445  10.229  10.181 -0.0340 -0.1817  0.3321
  655MOL0     C86342  10.463  10.074  10.202 -0.9431 -0.3418 -0.2336
  655MOL0     C86343  10.378   9.988  10.105  0.2020 -0.7878 -0.3420
  655MOL0     C86344  10.414   9.995   9.960 -0.3539 -0.0330 -0.1758
  655MOL0     N86345  10.521   9.909   9.924 -0.0050 -0.4374  0.3457
  655MOL0     C86346  10.659   9.942   9.941 -0.7668  0.5593  0.0051
  655MOL0     C86347  10.724   9.843   9.884 -0.7779  0.2357  1.8283
  655MOL0     C86348  10.875   9.860   9.857  0.7544  0.9109 -0.2277
  655MOL0     C86349  10.930   9.718   9.840  0.0077  0.2896  0.3714
  655MOL0     C86350  10.909   9.663   9.692  0.5714  0.5890  0.1447
  655MOL0     C86351  10.917   9.516   9.666 -0.1633 -0.0871 -0.2270
  655MOL0     O86352  10.828   9.450   9.756  0.2081  0.0538 -0.4867
  655MOL0     C86353  10.816   9.317   9.770  0.2366 -0.4158  0.4423
  655MOL0     C86354  10.729   9.261   9.858  0.2277  0.1509 -0.3382
  655MOL0     C86355  10.726   9.121   9.879 -0.8318  0.2733 -0.9385
  655MOL0     C86356  10.814   9.028   9.816  0.1601 -0.2090  0.1415
  655MOL0     C86357  10.823   8.882   9.842 -0.1127  0.7698  0.2580
  655MOL0     O86358  10.725   8.821   9.910  0.4042  0.1119  0.1992
  655MOL0     C86359  10.747   8.685   9.940 -0.1779 -0.3019  0.6151
  655MOL0     C86360  10.862   8.615   9.947  0.3445 -0.1862 -0.1248
  655MOL0     C86361  10.862   8.479   9.987 -0.4823  0.7294 -0.5737
  655MOL0     C86362  10.748   8.401   9.983  0.3204  0.3009  0.4850
  655MOL0     O86363  10.744   8.266   9.991  1.2752  0.2136 -0.0690
  655MOL0     C86364  10.846   8.210  10.070  0.5327  1.1526 -0.4171
  655MOL0     C86365  10.815   8.062  10.056  0.4314 -0.4148  0.1278
  655MOL0     C86366  10.929   7.976  10.108 -0.5841  0.7047  0.5194
  655MOL0     C86367  10.887   7.816  10.099 -1.1249  0.3168 -1.0223
  655MOL0     C86368  10.999   7.717  10.111 -0.1307  0.7740 -0.3466
  655MOL0     C86369  11.117   7.763  10.031  0.0647 -0.0728  0.4078
  655MOL0     C86370  11.226   7.654  10.036 -0.2333 -0.1312  0.0936
  655MOL0     C86371  11.345   7.686   9.933  1.3300  0.7152  0.7299
  655MOL0    Cl86372  11.309   7.597   9.776  0.0849 -0.5445 -0.6197
  655MOL0     C86373  10.625   8.467   9.962 -0.9651 -0.6992  0.7145
  655MOL0     C86374  10.625   8.613   9.947 -0.1374  0.6334  0.0550
  655MOL0     O86375  10.920   8.828   9.786 -0.2633  0.2838 -0.4334
  655MOL0     C86376  10.893   9.085   9.716 -0.8847  0.0085 -0.3713
  655MOL0     C86377  10.900   9.227   9.696  0.7695 -0.1032  0.1778
  655MOL0     N86378  10.631   9.756   9.824 -0.0305 -0.6590  0.6584
  655MOL0     N86379  10.515   9.807   9.838 -0.0721 -0.7089 -0.3981
  655MOL0     C86380  10.489  10.487  10.813 -1.1577  0.4244  0.9681
  655MOL0     C86381  10.518  10.452  10.943  0.4152  0.2158 -1.0374
  655MOL0     C86382  10.639  10.394  11.370 -0.1960 -0.1876  0.1472
  655MOL0     C86383  10.706  10.296  11.446 -1.3166 -0.3681  0.0211
  655MOL0     C86384  10.656  10.234  11.565  0.4103 -0.0666  0.1366
  655MOL0     C86385  10.522  10.273  11.602  0.0933  0.4960  0.0964
  655MOL0     O86386  10.436  10.217  11.699 -0.7954  0.3241 -0.1795
  655MOL0     C86387  10.498  10.118  11.792  0.1424 -0.4835  0.3605
  655MOL0     C86388  10.384  10.064  11.877 -0.2567  0.5079  0.2749
  655MOL0     C86389  10.266  10.005  11.794  0.7935 -0.5325 -0.0604
  655MOL0     C86390  10.155   9.938  11.890 -0.4694  0.3080  0.3122
  655MOL0     C86391  10.196   9.817  11.973  0.7325  0.2476 -0.8518
  655MOL0     C86392  10.216   9.722  12.049  0.0721 -0.1069 -0.4854
  655MOL0     C86393  10.466  10.387  11.537  0.1581  0.4061  0.4601
  655MOL0     C86394  10.518  10.448  11.422  0.4535 -0.9851 -0.0598
  655MOL0     H86395  10.718  10.716  11.009  1.9538 -1.4117  0.7127
  655MOL0     H86396  10.680  10.754  10.785 -5.6873  2.1937 -0.9449
  655MOL0     H86397  10.520  10.414  10.542 -1.9738  0.3766 -0.6173
  655MOL0     H86398  10.666  10.498  10.470 -0.5546 -0.1228 -1.1590
  655MOL0     H86399  10.495  10.655  10.357 -0.7211  0.2449  1.4129
  655MOL0     H86400  10.370  10.552  10.432 -0.1647  1.7748 -1.3184
  655MOL0     H86401  10.558  10.470  10.209  0.1225 -1.5453 -0.1856
  655MOL0     H86402  10.381  10.478  10.214  1.2492 -3.9188 -3.1602
  655MOL0     H86403  10.557  10.272  10.362  0.8665 -1.8751 -1.0578
  655MOL0     H86404  10.388  10.292  10.383 -0.6624  4.1804  0.8421
  655MOL0     H86405  10.509  10.259  10.098 -0.3249 -0.8561 -0.1525
  655MOL0     H86406  10.341  10.237  10.148  0.0795 -0.6794 -0.1720
  655MOL0     H86407  10.446  10.043  10.305 -0.7997 -0.4286 -0.2355
  655MOL0     H86408  10.567  10.049  10.182 -1.4066 -1.0162 -2.0200
  655MOL0     H86409  10.375   9.881  10.129 -1.2480 -0.6306  0.3030
  655MOL0     H86410  10.272  10.012  10.121  0.4794 -0.6965  1.7034
  655MOL0     H86411  10.418  10.097   9.923  1.7244  0.7310  1.9098
  655MOL0     H86412  10.330   9.943   9.913  0.0076 -0.4053 -0.4142
  655MOL0     H86413  10.718  10.019   9.989 -0.2930 -0.2179  0.7016
  655MOL0     H86414  10.926   9.904   9.943  0.8109 -1.2701  0.9454
  655MOL0     H86415  10.887   9.914   9.763 -3.3388  0.5032 -1.1775
  655MOL0     H86416  10.879   9.648   9.907 -0.7320 -1.5664 -1.9897
  655MOL0     H86417  11.038   9.714   9.856  0.8662 -1.7101 -4.2437
  655MOL0     H86418  10.809   9.700   9.666  0.2257 -0.1708  0.3567
  655MOL0     H86419  10.981   9.703   9.621  0.7363  3.3762  1.7316
  655MOL0     H86420  11.021   9.483   9.660  0.3619  1.6492 -1.5780
  655MOL0     H86421  10.885   9.506   9.562  3.7339 -0.2079 -1.5816
  655MOL0     H86422  10.656   9.326   9.906 -0.5361 -0.9818  0.0748
  655MOL0     H86423  10.658   9.068   9.944 -0.4559 -0.2352 -0.9535
  655MOL0     H86424  10.955   8.670   9.946  1.1652 -1.5099 -0.2303
  655MOL0     H86425  10.962   8.443  10.009 -1.0488 -0.0650  0.8077
  655MOL0     H86426  10.848   8.242  10.175  0.9949 -0.4280  0.0937
  655MOL0     H86427  10.940   8.232  10.018 -0.1019  0.1447 -2.0530
  655MOL0     H86428  10.788   8.040   9.952  1.7169  1.2139 -0.5944
  655MOL0     H86429  10.725   8.047  10.116 -0.2412 -3.7885 -1.4845
  655MOL0     H86430  10.953   7.994  10.213 -0.0444 -0.5937  0.6377
  655MOL0     H86431  11.014   7.995  10.042  2.1779 -3.1771  2.5761
  655MOL0     H86432  10.816   7.803  10.181  0.5642  3.1921  1.0965
  655MOL0     H86433  10.843   7.788  10.003 -1.4669  0.1598 -0.8238
  655MOL0     H86434  10.969   7.615  10.085 -0.5694  1.2016 -1.5972
  655MOL0     H86435  11.035   7.703  10.213  3.1302 -2.9669 -1.7723
  655MOL0     H86436  11.151   7.854  10.082 -2.3798 -0.7296  3.5294
  655MOL0     H86437  11.083   7.776   9.928 -2.4214  2.4530  1.4362
  655MOL0     H86438  11.274   7.650  10.134 -0.2604  2.8082  0.3102
  655MOL0     H86439  11.191   7.551  10.021 -1.0002  0.1703 -0.2847
  655MOL0     H86440  11.439   7.659   9.982  0.4591 -1.9990  1.0959
  655MOL0     H86441  11.363   7.788   9.898  1.9552  0.5788  0.6468
  655MOL0     H86442  10.535   8.406   9.958  1.8646 -5.2962 -1.5195
  655MOL0     H86443  10.527   8.659   9.938  0.1757  1.1995 -0.4703
  655MOL0     H86444  10.968   9.023   9.667 -2.3120 -3.2494  1.2339
  655MOL0     H86445  10.982   9.258   9.632  1.6598  1.5729  2.0334
  655MOL0     H86446  10.418  10.415  10.774  2.3378 -3.1160  0.5454
  655MOL0     H86447  10.476  10.362  10.987  1.9619 -0.9314 -1.8022
  655MOL0     H86448  10.809  10.269  11.424 -1.0343 -1.1031  2.0044
  655MOL0     H86449  10.703  10.160  11.629  0.7150  1.1111  1.3180
  655MOL0     H86450  10.570  10.172  11.854  2.1589  1.5115 -3.3330
  655MOL0     H86451  10.548  10.044  11.729  1.6606  3.1348 -3.0820
  655MOL0     H86452  10.422   9.990  11.948  2.0179  1.2612 -0.0609
  655MOL0     H86453  10.346  10.152  11.930  2.1124  1.1033  1.1130
  655MOL0     H86454  10.306   9.926  11.728  5.6301  0.9225  0.7274
  655MOL0     H86455  10.208  10.076  11.735  2.5854  1.4698  0.4770
  655MOL0     H86456  10.114  10.002  11.969  1.2184 -1.6409  2.9468
  655MOL0     H86457  10.065   9.912  11.834 -0.4323 -0.0877  0.4356
  655MOL0     H86458  10.236   9.646  12.121 -1.5203  0.7895  0.9622
  655MOL0     H86459  10.362  10.415  11.555  0.2629  1.2619 -0.1759
  655MOL0     H86460  10.448  10.510  11.366 -1.5180 -1.5511  1.6490
  656MOL0     O86461   8.721   8.019   8.791 -0.3088  0.6518 -0.0312
  656MOL0     C86462   8.738   8.091   8.891 -0.5714 -0.1269  0.0553
  656MOL0     O86463   8.665   8.195   8.926 -0.1837 -0.8426  0.2003
  656MOL0     C86464   8.528   8.224   8.892  0.2504  0.3337  1.1813
  656MOL0     C86465   8.432   8.125   8.858  0.0876  0.7167 -1.0235
  656MOL0     C86466   8.305   8.158   8.818  0.4069  0.2495  1.1804
  656MOL0     C86467   8.260   8.289   8.820 -0.3704  0.5281 -0.0949
  656MOL0     O86468   8.136   8.315   8.781  1.1858  1.0256 -0.4405
  656MOL0     C86469   8.114   8.432   8.697 -0.5181  0.4814  0.5796
  656MOL0     C86470   7.977   8.442   8.635  0.9083  0.2246 -0.3679
  656MOL0     C86471   7.853   8.447   8.735  0.1702  0.3390 -0.2100
  656MOL0     C86472   7.860   8.571   8.826 -0.1754  0.7058 -0.9062
  656MOL0     C86473   7.732   8.580   8.903 -0.0413  0.2093  0.1375
  656MOL0     C86474   7.727   8.715   8.988 -0.1437 -0.2978  0.6548
  656MOL0     C86475   7.601   8.721   9.082 -0.3819  0.3514  0.7418
  656MOL0     C86476   7.581   8.875   9.101 -0.4759 -0.6923 -0.5187
  656MOL0     N86477   7.467   8.901   9.185 -0.0181  0.3773  0.3719
  656MOL0     C86478   7.344   8.937   9.142  0.7577  0.3150 -0.8211
  656MOL0     C86479   7.280   8.975   9.261 -1.0248 -0.1250 -0.2576
  656MOL0     C86480   7.135   9.020   9.271  0.1899 -0.1621 -0.1289
  656MOL0     C86481   7.126   9.124   9.387  0.0389 -0.2014 -0.6256
  656MOL0     C86482   6.984   9.165   9.411  0.7140  0.0502 -0.2178
  656MOL0     C86483   6.977   9.300   9.487  0.1825 -1.1077  0.0184
  656MOL0     O86484   7.016   9.408   9.405 -0.1674 -0.1887 -0.2944
  656MOL0     C86485   6.938   9.469   9.316  0.1207 -0.0203 -0.2163
  656MOL0     C86486   6.808   9.436   9.285 -1.0709 -0.3426  0.6093
  656MOL0     C86487   6.723   9.510   9.192 -0.2032  0.0430  0.2329
  656MOL0     C86488   6.786   9.631   9.135  0.1585  0.1290  0.7694
  656MOL0     C86489   6.692   9.734   9.068 -0.6859  0.1192  0.3657
  656MOL0     O86490   6.567   9.693   9.040  0.3062  0.7935 -0.0815
  656MOL0     C86491   6.469   9.769   8.992 -0.0932 -1.2594  1.5933
  656MOL0     C86492   6.366   9.716   8.913  0.3998  0.3258  0.3710
  656MOL0     C86493   6.248   9.781   8.872 -0.7296  0.9685  0.0726
  656MOL0     C86494   6.232   9.916   8.917  0.4118 -0.4520  0.6292
  656MOL0     O86495   6.125   9.989   8.879  0.2628 -0.3546 -0.0857
  656MOL0     C86496   6.143  10.120   8.837  0.1482 -0.4927  0.1480
  656MOL0     C86497   6.090  10.146   8.699  0.8796  1.0726  0.7156
  656MOL0     C86498   6.123  10.288   8.646 -1.4719 -0.0776 -1.0637
  656MOL0     C86499   6.071  10.342   8.509  0.6507 -0.2174  0.2919
  656MOL0     C86500   6.176  10.389   8.405 -0.3411 -0.6834 -0.4031
  656MOL0     C86501   6.242  10.269   8.343  1.0118 -0.2449 -0.2068
  656MOL0     C86502   6.357  10.312   8.250  0.4229  0.1067 -0.2703
  656MOL0     C86503   6.415  10.182   8.188 -0.3071  0.6143  0.2637
  656MOL0    Cl86504   6.292  10.116   8.071 -0.5119 -0.1739 -0.4260
  656MOL0     C86505   6.325   9.959   9.009 -0.8909  0.5837 -0.1719
  656MOL0     C86506   6.437   9.892   9.055 -0.1352  0.4983  0.4664
  656MOL0     O86507   6.732   9.845   9.057 -0.6801 -0.7148  0.3175
  656MOL0     C86508   6.916   9.662   9.175 -0.0174 -0.3857  0.8013
  656MOL0     C86509   6.990   9.580   9.258 -0.6714  1.2234  0.5690
  656MOL0     N86510   7.365   8.957   9.370 -0.3305 -0.0150  0.0409
  656MOL0     N86511   7.481   8.911   9.318 -0.7839 -0.2575 -0.6988
  656MOL0     C86512   8.357   8.388   8.852 -0.3449  0.0328 -0.6960
  656MOL0     C86513   8.488   8.356   8.887  0.7372 -0.2246 -0.1799
  656MOL0     C86514   8.845   8.050   8.986  0.4455  0.5109  0.2780
  656MOL0     C86515   8.922   7.937   8.945 -0.3755  0.3992  0.4332
  656MOL0     C86516   8.993   7.870   9.045  1.0112  0.4389  0.6730
  656MOL0     C86517   8.999   7.909   9.175 -0.2690 -0.4581 -1.2644
  656MOL0     O86518   9.066   7.837   9.272 -0.1826 -0.3022  0.0823
  656MOL0     C86519   9.162   7.728   9.242  0.8071  0.6160  0.1854
  656MOL0     C86520   9.297   7.790   9.203 -0.6301  0.0383  0.0369
  656MOL0     C86521   9.395   7.673   9.176 -1.0120 -0.3374  0.1462
  656MOL0     C86522   9.518   7.712   9.082  0.3084 -0.6572 -0.8232
  656MOL0     C86523   9.626   7.756   9.173 -1.1327  0.2102  0.4264
  656MOL0     C86524   9.714   7.787   9.244  0.2047 -1.7412 -0.0125
  656MOL0     C86525   8.950   8.041   9.204 -0.0958  0.2804 -0.6165
  656MOL0     C86526   8.873   8.114   9.111 -0.3670 -0.1688 -0.9151
  656MOL0     H86527   8.463   8.021   8.849  3.0343  1.4281 -0.3507
  656MOL0     H86528   8.235   8.085   8.779  3.0325 -2.2722  0.8261
  656MOL0     H86529   8.178   8.422   8.609  1.0447 -1.5781  1.8404
  656MOL0     H86530   8.135   8.527   8.747 -0.9580  1.4977 -1.0899
  656MOL0     H86531   7.967   8.351   8.576 -3.4529 -1.2378  2.1374
  656MOL0     H86532   7.986   8.532   8.573 -0.8034  0.2509 -0.6406
  656MOL0     H86533   7.846   8.357   8.797  0.9982  0.2788 -0.1994
  656MOL0     H86534   7.762   8.445   8.674  0.5139 -0.7906 -0.7173
  656MOL0     H86535   7.943   8.548   8.894 -1.8937 -0.0498  1.0565
  656MOL0     H86536   7.865   8.664   8.770 -3.8560  2.9079  1.9304
  656MOL0     H86537   7.732   8.494   8.971 -1.6041 -0.2287 -0.3586
  656MOL0     H86538   7.638   8.576   8.847  0.3940 -2.4005 -0.5179
  656MOL0     H86539   7.729   8.799   8.917  0.4999 -0.2547  0.7147
  656MOL0     H86540   7.813   8.728   9.053 -0.6613 -0.6238  1.4094
  656MOL0     H86541   7.514   8.681   9.028  3.1050 -1.6834 -4.1133
  656MOL0     H86542   7.618   8.668   9.176 -0.4935  0.2278  0.6931
  656MOL0     H86543   7.561   8.917   9.002  0.0159 -1.0236 -0.7606
  656MOL0     H86544   7.672   8.928   9.131 -1.4056  1.3741 -1.1398
  656MOL0     H86545   7.319   8.948   9.037 -0.0825 -0.8710 -0.7628
  656MOL0     H86546   7.066   8.935   9.282  0.8486 -0.4828  1.9328
  656MOL0     H86547   7.101   9.075   9.183 -0.3013 -0.7348 -0.3094
  656MOL0     H86548   7.189   9.210   9.363  0.4188 -0.6929 -1.4092
  656MOL0     H86549   7.157   9.085   9.485 -0.5125  0.4955 -0.1641
  656MOL0     H86550   6.927   9.158   9.318  2.8572 -0.7627 -1.5292
  656MOL0     H86551   6.927   9.098   9.477 -0.5855  0.1256 -1.2187
  656MOL0     H86552   7.046   9.287   9.571 -0.0737 -0.1132  0.3956
  656MOL0     H86553   6.879   9.309   9.535  0.2955 -2.8516  0.6467
  656MOL0     H86554   6.769   9.347   9.332  0.8148  0.7826  4.7312
  656MOL0     H86555   6.624   9.481   9.161  0.4327 -0.9071 -0.9925
  656MOL0     H86556   6.376   9.615   8.873  0.2115  0.5825 -0.3258
  656MOL0     H86557   6.170   9.733   8.814 -0.1413  0.5920 -0.4157
  656MOL0     H86558   6.248  10.150   8.836  0.4764 -1.3939 -3.2146
  656MOL0     H86559   6.099  10.182   8.916  0.7443  3.2315 -2.2340
  656MOL0     H86560   5.981  10.141   8.707  0.8254  1.8262  0.4617
  656MOL0     H86561   6.120  10.074   8.622 -1.7305  1.1617 -0.4986
  656MOL0     H86562   6.231  10.298   8.642 -1.6096  2.5794  0.1207
  656MOL0     H86563   6.083  10.355   8.722  0.1977  0.1687 -0.3731
  656MOL0     H86564   6.003  10.265   8.472  1.1823 -1.4918  1.8430
  656MOL0     H86565   6.004  10.425   8.531  0.0389 -1.1506  2.1693
  656MOL0     H86566   6.249  10.447   8.463 -2.5840  1.8123  0.1436
  656MOL0     H86567   6.114  10.438   8.330 -4.2695 -2.4102  1.4201
  656MOL0     H86568   6.172  10.219   8.275  2.0961 -1.3423 -0.5525
  656MOL0     H86569   6.271  10.190   8.413 -1.0156  1.9565  3.3942
  656MOL0     H86570   6.316  10.386   8.181  1.4933 -1.3268 -2.5582
  656MOL0     H86571   6.433  10.360   8.313  0.5896  0.9193 -1.0722
  656MOL0     H86572   6.439  10.107   8.264  1.4400 -0.5329 -1.3092
  656MOL0     H86573   6.508  10.193   8.130  1.9761 -3.4650  2.6599
  656MOL0     H86574   6.294  10.042   9.071  1.9311  2.5362 -1.1487
  656MOL0     H86575   6.489   9.934   9.141  0.4845  0.6322  0.0325
  656MOL0     H86576   6.954   9.757   9.137  1.3473 -0.3564  2.0986
  656MOL0     H86577   7.085   9.609   9.301  0.0428  3.7872 -2.3778
  656MOL0     H86578   8.313   8.486   8.865  0.1561 -0.0216  1.8258
  656MOL0     H86579   8.573   8.424   8.886  0.1209  0.7789 -4.2803
  656MOL0     H86580   8.907   7.881   8.854  1.1590 -1.7744  1.4377
  656MOL0     H86581   9.048   7.781   9.015  2.2521  0.6748  2.0849
  656MOL0     H86582   9.124   7.662   9.163  0.4112 -1.7152  2.1792
  656MOL0     H86583   9.177   7.667   9.332 -0.3007  1.6423  1.1003
  656MOL0     H86584   9.277   7.856   9.118 -1.2562  0.1802  0.2907
  656MOL0     H86585   9.349   7.844   9.282 -1.4790 -1.2975  1.5646
  656MOL0     H86586   9.341   7.595   9.123 -1.3216 -1.2508  1.7483
  656MOL0     H86587   9.429   7.633   9.272  0.3527 -1.8519 -0.9057
  656MOL0     H86588   9.548   7.624   9.023  3.5027 -0.3175  0.1006
  656MOL0     H86589   9.484   7.792   9.016  1.3834 -0.5287 -1.2413
  656MOL0     H86590   9.778   7.833   9.317 -1.5126  1.6311 -0.4130
  656MOL0     H86591   8.988   8.091   9.293 -0.3066  2.3561 -1.6294
  656MOL0     H86592   8.824   8.208   9.135  0.0888 -0.0529 -0.4370
  657MOL0     O86593   0.100  11.108   2.133 -0.3134  0.6503  0.9462
  657MOL0     C86594   0.022  11.056   2.051 -0.0238  0.6302  1.2677
  657MOL0     O86595  -0.040  10.931   2.066  0.2677 -0.2675 -0.9735
  657MOL0     C86596  -0.020  10.874   2.190 -0.3944 -1.0375  0.0876
  657MOL0     C86597  -0.070  10.916   2.312  0.1358 -0.0407  0.6085
  657MOL0     C86598  -0.067  10.837   2.428 -1.3828 -0.1782  0.1348
  657MOL0     C86599  -0.011  10.708   2.433  0.1687 -0.4173  0.0503
  657MOL0     O86600  -0.030  10.633   2.548 -0.1741  0.0823 -0.3388
  657MOL0     C86601   0.011  10.491   2.539  0.6332 -0.8623 -0.1864
  657MOL0     C86602   0.161  10.471   2.562  0.6017 -0.3668  0.2493
  657MOL0     C86603   0.174  10.445   2.710 -0.3650  0.2351  0.1376
  657MOL0     C86604   0.319  10.443   2.769 -0.4670 -0.1982  0.1804
  657MOL0     C86605   0.305  10.452   2.922  0.2833  0.0493 -0.3866
  657MOL0     C86606   0.439  10.459   2.989  0.1325 -0.6454 -0.3743
  657MOL0     C86607   0.474  10.603   3.007 -0.7121 -0.1172  0.2319
  657MOL0     C86608   0.607  10.617   3.054 -0.2183  0.3165 -0.2944
  657MOL0     N86609   0.633  10.735   3.124  0.1442 -0.1749  0.0104
  657MOL0     C86610   0.676  10.859   3.070 -0.2102 -0.1996 -0.3144
  657MOL0     C86611   0.715  10.922   3.185 -0.0905  0.5438  0.2062
  657MOL0     C86612   0.748  11.064   3.179 -0.2202  0.0143  0.5386
  657MOL0     C86613   0.900  11.096   3.168  0.4384  0.3044 -0.4808
  657MOL0     C86614   0.908  11.250   3.196  0.1768  0.3936 -0.0874
  657MOL0     C86615   1.046  11.307   3.157  0.7177  0.1695  0.1806
  657MOL0     O86616   1.049  11.440   3.222  0.3069  0.5128  0.6880
  657MOL0     C86617   1.149  11.526   3.186 -0.4099  0.0902 -0.4660
  657MOL0     C86618   1.193  11.550   3.057  0.1186  0.3617 -0.0542
  657MOL0     C86619   1.277  11.640   3.019  0.2387 -0.3680  1.2706
  657MOL0     C86620   1.322  11.734   3.110 -0.2633  1.1461  0.1904
  657MOL0     C86621   1.415  11.840   3.062 -0.2825 -0.0761  0.3007
  657MOL0     O86622   1.446  11.837   2.927  0.2036 -0.3888 -0.6074
  657MOL0     C86623   1.467  11.961   2.873 -0.0856  0.8289  0.1396
  657MOL0     C86624   1.373  12.061   2.882 -0.2470 -0.1209  0.2070
  657MOL0     C86625   1.390  12.188   2.832  0.0215  0.2633  1.0149
  657MOL0     C86626   1.515  12.215   2.756 -0.1219  0.4479  0.3307
  657MOL0     O86627   1.554  12.329   2.693 -0.7663 -0.7022 -0.1757
  657MOL0     C86628   1.462  12.444   2.691  0.0989  0.9044  0.0894
  657MOL0     C86629   1.365  12.427   2.572 -0.3619 -0.3995 -0.2188
  657MOL0     C86630   1.256  12.542   2.562  0.0131 -0.6026  0.1301
  657MOL0     C86631   1.152  12.515   2.451 -0.8755  0.0648  0.1559
  657MOL0     C86632   1.208  12.554   2.318  0.0424  0.1313  0.0481
  657MOL0     C86633   1.128  12.527   2.191 -0.4674  0.7780  0.3968
  657MOL0     C86634   1.184  12.589   2.059  0.3590  0.5836  0.5878
  657MOL0     C86635   1.078  12.568   1.946  0.1287 -0.2021 -0.7085
  657MOL0    Cl86636   1.016  12.393   1.925 -0.4719  0.2973  0.7795
  657MOL0     C86637   1.611  12.112   2.743  0.9241 -0.5929  0.5309
  657MOL0     C86638   1.583  11.985   2.797  0.0018  0.0960 -0.6075
  657MOL0     O86639   1.468  11.923   3.140 -0.3383  0.5378  0.6161
  657MOL0     C86640   1.288  11.721   3.247  0.3989  0.4141 -0.0083
  657MOL0     C86641   1.213  11.606   3.285 -0.0737  1.4986  0.5198
  657MOL0     N86642   0.712  10.836   3.305 -0.0633 -1.2760  0.8728
  657MOL0     N86643   0.657  10.727   3.259 -0.7406  0.7048 -0.3708
  657MOL0     C86644   0.039  10.666   2.308 -0.5373 -0.0170  0.1340
  657MOL0     C86645   0.033  10.746   2.187  0.6985 -0.0991 -1.2567
  657MOL0     C86646   0.025  11.113   1.918  0.7746 -0.0104  0.4643
  657MOL0     C86647  -0.085  11.078   1.830 -1.0939 -0.3606 -0.3344
  657MOL0     C86648  -0.096  11.158   1.710  0.6757 -0.4951 -0.4103
  657MOL0     C86649  -0.019  11.273   1.687  0.0425  1.1641 -0.5291
  657MOL0     O86650  -0.024  11.343   1.568 -0.4865 -0.0642 -0.1849
  657MOL0     C86651  -0.133  11.317   1.472 -0.8102 -0.4017 -0.0018
  657MOL0     C86652  -0.091  11.380   1.339 -0.4274 -0.1580 -0.8455
  657MOL0     C86653  -0.203  11.362   1.239 -0.1691  0.3602  0.5125
  657MOL0     C86654  -0.169  11.402   1.092 -1.2203 -0.5133 -0.3846
  657MOL0     C86655  -0.086  11.311   1.011 -0.3922  0.2845 -0.2938
  657MOL0     C86656  -0.014  11.232   0.952 -0.3260 -0.7453 -0.0592
  657MOL0     C86657   0.086  11.294   1.771 -0.7361 -0.4515  0.5371
  657MOL0     C86658   0.107  11.217   1.880  0.7516  0.0454 -0.4268
  657MOL0     H86659  -0.117  11.013   2.320  2.1060  1.0053  0.0892
  657MOL0     H86660  -0.109  10.881   2.518 -3.5772 -2.0206  0.0893
  657MOL0     H86661  -0.019  10.466   2.436 -0.4359  0.8533 -0.3287
  657MOL0     H86662  -0.045  10.424   2.605  1.1427  0.2116  1.3811
  657MOL0     H86663   0.211  10.563   2.529 -1.8346  0.0007 -2.8461
  657MOL0     H86664   0.197  10.383   2.509 -3.7862 -2.8339  0.9321
  657MOL0     H86665   0.122  10.351   2.733 -0.8827  0.6390  0.6510
  657MOL0     H86666   0.118  10.527   2.757 -0.5435  0.1400  0.0950
  657MOL0     H86667   0.374  10.352   2.745 -0.6276 -0.5394  1.0688
  657MOL0     H86668   0.377  10.531   2.737  0.9334 -0.9134  0.6935
  657MOL0     H86669   0.241  10.371   2.959 -0.3079  0.1545 -1.1637
  657MOL0     H86670   0.251  10.542   2.952 -0.9471 -1.3797  2.0614
  657MOL0     H86671   0.512  10.401   2.932  0.5541 -0.8042  0.3260
  657MOL0     H86672   0.420  10.405   3.081 -0.4427 -0.8769 -0.6235
  657MOL0     H86673   0.469  10.646   2.906  0.8866 -0.8939 -0.2145
  657MOL0     H86674   0.408  10.656   3.076 -1.7005  0.3258 -1.0025
  657MOL0     H86675   0.686  10.597   2.981  1.4409 -0.4362  1.5881
  657MOL0     H86676   0.634  10.536   3.123 -0.8068  1.0004  0.7733
  657MOL0     H86677   0.666  10.896   2.969 -1.8193 -3.7504 -1.6030
  657MOL0     H86678   0.709  11.114   3.268 -1.9173 -0.9166  0.3592
  657MOL0     H86679   0.701  11.114   3.094  2.0182 -1.2682 -1.5788
  657MOL0     H86680   0.921  11.064   3.066 -1.5025 -1.2881 -0.4321
  657MOL0     H86681   0.960  11.036   3.237  0.2609  0.3622 -0.2756
  657MOL0     H86682   0.829  11.304   3.142 -1.5575 -1.7101  0.2253
  657MOL0     H86683   0.890  11.271   3.301  1.3462 -1.1945  0.4631
  657MOL0     H86684   1.061  11.299   3.049 -0.6698  1.1619 -0.1150
  657MOL0     H86685   1.120  11.237   3.197 -0.3417 -2.0782 -1.5304
  657MOL0     H86686   1.162  11.501   2.965  1.7553  2.4810 -1.8544
  657MOL0     H86687   1.306  11.647   2.915 -0.2744  0.5382  1.1754
  657MOL0     H86688   1.288  12.043   2.947  0.0866 -3.5109 -0.0929
  657MOL0     H86689   1.313  12.262   2.854 -2.4948 -1.6816 -0.5788
  657MOL0     H86690   1.512  12.540   2.678  1.1480  0.1013 -2.2681
  657MOL0     H86691   1.401  12.449   2.782  1.2091 -4.3300  1.4230
  657MOL0     H86692   1.319  12.332   2.599  0.8636 -0.4485  1.9135
  657MOL0     H86693   1.432  12.424   2.486  2.4671 -0.8140  1.8472
  657MOL0     H86694   1.304  12.639   2.550  0.5568 -0.5841  2.1164
  657MOL0     H86695   1.202  12.550   2.657  2.0170  3.2006  1.1572
  657MOL0     H86696   1.135  12.407   2.461  1.0146 -0.0790  3.4308
  657MOL0     H86697   1.065  12.580   2.467  0.1269  1.8365 -1.2871
  657MOL0     H86698   1.302  12.502   2.297  0.4226  0.6458  0.4619
  657MOL0     H86699   1.219  12.662   2.330  0.9010 -0.1763  2.8824
  657MOL0     H86700   1.027  12.563   2.216 -0.1477  1.3606  0.8946
  657MOL0     H86701   1.131  12.418   2.188 -0.5771  0.7801  0.2006
  657MOL0     H86702   1.215  12.690   2.089 -0.1167  0.6607  0.8345
  657MOL0     H86703   1.276  12.532   2.041 -0.5754 -1.1051  0.9782
  657MOL0     H86704   1.132  12.596   1.855  1.4204  1.3122  0.4608
  657MOL0     H86705   0.990  12.630   1.961 -0.8977 -1.1574 -2.5115
  657MOL0     H86706   1.689  12.134   2.671 -0.5361  2.7596 -0.1773
  657MOL0     H86707   1.650  11.900   2.793  1.7720  1.4241 -0.5133
  657MOL0     H86708   1.318  11.798   3.317 -0.3095  2.7787 -2.1618
  657MOL0     H86709   1.193  11.598   3.391 -3.2390  3.6016  0.1897
  657MOL0     H86710   0.083  10.570   2.283  2.5145  1.8921 -2.5413
  657MOL0     H86711   0.072  10.685   2.106  0.2600 -2.2861  0.0771
  657MOL0     H86712  -0.148  10.992   1.850  0.8241 -0.9963  3.7969
  657MOL0     H86713  -0.180  11.130   1.647  0.2838 -0.3199  0.0308
  657MOL0     H86714  -0.228  11.354   1.512 -1.3080 -2.1214  0.4671
  657MOL0     H86715  -0.149  11.212   1.449  0.3187 -0.7063  0.5119
  657MOL0     H86716  -0.072  11.487   1.356 -0.0006 -0.5983  1.8196
  657MOL0     H86717  -0.004  11.326   1.301 -1.2037 -0.1686 -2.7568
  657MOL0     H86718  -0.292  11.417   1.272  0.3620  1.8449 -0.4247
  657MOL0     H86719  -0.228  11.256   1.244 -0.0635  0.3757  2.0039
  657MOL0     H86720  -0.257  11.385   1.029 -4.2516  2.8244  2.5677
  657MOL0     H86721  -0.125  11.502   1.087  1.9629 -1.8445 -1.7011
  657MOL0     H86722   0.061  11.165   0.913 -1.2000 -1.8009  0.0214
  657MOL0     H86723   0.156  11.370   1.739 -1.3122 -0.7277 -1.5201
  657MOL0     H86724   0.187  11.249   1.946  1.4914 -0.8193 -0.8934
  658MOL0     O86725   7.986   7.256   0.048  0.2701 -0.7669 -0.4310
  658MOL0     C86726   8.004   7.325   0.147 -0.0615 -0.0695 -0.5735
  658MOL0     O86727   7.909   7.398   0.211  0.5972  0.2031 -0.1577
  658MOL0     C86728   7.778   7.412   0.167  0.4340 -0.1410  0.2230
  658MOL0     C86729   7.668   7.356   0.242 -0.6001  0.6085 -0.6668
  658MOL0     C86730   7.539   7.350   0.199 -0.5182 -0.8001  0.7649
  658MOL0     C86731   7.510   7.400   0.066 -0.4328  0.1867  1.2421
  658MOL0     O86732   7.382   7.419   0.019  0.6619 -0.1811  0.6172
  658MOL0     C86733   7.272   7.439   0.114 -0.8865  0.3706  0.0983
  658MOL0     C86734   7.128   7.468   0.046  0.3486 -0.2509 -0.3635
  658MOL0     C86735   7.087   7.358  -0.049  0.3019  0.2327 -0.3438
  658MOL0     C86736   7.089   7.213   0.013  0.9409 -0.5778  0.3636
  658MOL0     C86737   6.991   7.122  -0.062  0.3212 -0.7821  0.8034
  658MOL0     C86738   7.048   7.085  -0.200  0.5958  0.2970  0.0605
  658MOL0     C86739   6.952   6.981  -0.265 -0.3765 -0.0260  0.7534
  658MOL0     C86740   6.998   6.928  -0.400 -1.1080 -0.4900  0.3017
  658MOL0     N86741   6.917   6.809  -0.421 -0.3933 -0.5216  0.4809
  658MOL0     C86742   6.783   6.798  -0.423  1.0259  0.8072  0.3867
  658MOL0     C86743   6.758   6.664  -0.449  0.3132 -0.6536  0.3028
  658MOL0     C86744   6.618   6.605  -0.465 -0.2798 -0.0035 -0.9165
  658MOL0     C86745   6.545   6.653  -0.589  0.4849  0.3843 -0.4592
  658MOL0     C86746   6.593   6.577  -0.718 -0.6626  0.2087  0.3362
  658MOL0     C86747   6.548   6.434  -0.723 -0.4525  0.4090 -0.5702
  658MOL0     O86748   6.404   6.430  -0.721 -0.6706 -0.0051 -0.5453
  658MOL0     C86749   6.340   6.319  -0.759  0.7585  0.7008  0.0769
  658MOL0     C86750   6.394   6.195  -0.795  0.3463  0.4658 -0.3550
  658MOL0     C86751   6.311   6.080  -0.826 -0.1541 -0.2617  0.4471
  658MOL0     C86752   6.170   6.095  -0.823  0.0223 -0.4209  0.8802
  658MOL0     C86753   6.073   5.984  -0.849 -0.3876  0.3681 -0.4587
  658MOL0     O86754   5.937   6.006  -0.843 -0.4919  0.9791  1.0705
  658MOL0     C86755   5.850   5.905  -0.890 -0.9467 -0.5379 -0.1143
  658MOL0     C86756   5.846   5.788  -0.825  0.3556  0.5070  0.1923
  658MOL0     C86757   5.751   5.692  -0.860 -0.6238 -0.1605 -0.2248
  658MOL0     C86758   5.658   5.712  -0.960 -0.7876  0.7634  0.1681
  658MOL0     O86759   5.569   5.600  -0.990 -0.4272  0.6635 -0.1127
  658MOL0     C86760   5.461   5.624  -1.077 -1.0528 -0.9016 -0.6513
  658MOL0     C86761   5.381   5.501  -1.095  0.3365  0.1099  0.1499
  658MOL0     C86762   5.279   5.462  -0.977 -0.6763 -0.3490  0.1891
  658MOL0     C86763   5.194   5.579  -0.927 -0.4027 -0.2754  0.0908
  658MOL0     C86764   5.099   5.649  -1.032  0.4125  1.2382 -0.5940
  658MOL0     C86765   5.013   5.545  -1.099  1.1880 -0.7625 -0.6561
  658MOL0     C86766   4.943   5.604  -1.230 -0.0714 -0.1234  0.0193
  658MOL0     C86767   4.834   5.509  -1.286 -0.1808 -0.4933  0.4173
  658MOL0    Cl86768   4.768   5.591  -1.437  0.4025  0.2920  0.0955
  658MOL0     C86769   5.675   5.829  -1.035 -0.4779  0.0194 -0.0250
  658MOL0     C86770   5.759   5.930  -0.993 -0.2426  0.5280  0.4324
  658MOL0     O86771   6.120   5.875  -0.867  0.5803 -0.0933 -0.3404
  658MOL0     C86772   6.115   6.219  -0.798  0.7417 -0.9672  0.4265
  658MOL0     C86773   6.196   6.329  -0.770 -0.0294  0.3427  0.6316
  658MOL0     N86774   6.878   6.605  -0.452  0.6478  0.1955  0.2778
  658MOL0     N86775   6.976   6.686  -0.443  0.3210 -0.7667 -0.4206
  658MOL0     C86776   7.610   7.471  -0.008  0.1277  0.5411  0.1380
  658MOL0     C86777   7.746   7.471   0.037 -0.7848  1.5849 -0.4118
  658MOL0     C86778   8.138   7.320   0.209 -0.6950  0.1221 -0.0772
  658MOL0     C86779   8.171   7.404   0.310 -0.4519  0.1518  0.4198
  658MOL0     C86780   8.296   7.396   0.370  0.1324  0.7361  0.5814
  658MOL0     C86781   8.397   7.303   0.331  0.0728 -0.1728  0.9614
  658MOL0     O86782   8.526   7.317   0.381 -0.0069 -0.2013 -0.3490
  658MOL0     C86783   8.633   7.260   0.305  0.6775  0.8645  0.8914
  658MOL0     C86784   8.753   7.261   0.402  0.1728 -0.0175  0.3366
  658MOL0     C86785   8.842   7.385   0.379 -0.1236 -0.3051 -0.5472
  658MOL0     C86786   8.982   7.368   0.437  0.4238  0.1474  0.2151
  658MOL0     C86787   8.983   7.347   0.583 -0.7937 -0.9141 -0.2084
  658MOL0     C86788   8.972   7.343   0.698  0.3582  0.0239 -0.1228
  658MOL0     C86789   8.353   7.216   0.231 -0.5029  0.3513 -0.3346
  658MOL0     C86790   8.232   7.219   0.168 -0.8178  0.6180 -0.3085
  658MOL0     H86791   7.692   7.296   0.329 -0.3576  0.6307 -0.7198
  658MOL0     H86792   7.467   7.292   0.255 -0.8149 -0.3004  0.9098
  658MOL0     H86793   7.294   7.516   0.188  1.1289  0.3419 -0.4112
  658MOL0     H86794   7.265   7.344   0.168  3.0107 -1.8637 -2.7676
  658MOL0     H86795   7.137   7.565  -0.002 -2.3999 -0.4213 -1.3537
  658MOL0     H86796   7.055   7.477   0.127  0.9507 -2.6776  0.5443
  658MOL0     H86797   7.154   7.366  -0.135  0.4781 -0.1827 -0.2492
  658MOL0     H86798   6.984   7.371  -0.084 -0.0612 -2.2385 -0.3994
  658MOL0     H86799   7.190   7.172   0.014  0.6358 -1.3538  2.0711
  658MOL0     H86800   7.063   7.228   0.118  1.6437 -4.0516  1.1476
  658MOL0     H86801   6.898   7.180  -0.063  0.7971  0.0075 -0.3522
  658MOL0     H86802   6.971   7.026  -0.015 -1.4731 -1.0630 -0.4100
  658MOL0     H86803   7.146   7.037  -0.201  1.4497  1.9576  0.6870
  658MOL0     H86804   7.048   7.178  -0.257  1.0690 -0.0129 -0.4538
  658MOL0     H86805   6.935   6.889  -0.208  3.1581 -1.5098 -0.2738
  658MOL0     H86806   6.856   7.029  -0.280 -0.7242 -1.0508 -0.4965
  658MOL0     H86807   7.101   6.893  -0.398 -2.0733 -3.6394  2.5959
  658MOL0     H86808   6.989   7.003  -0.479 -3.1595 -0.4344  0.5181
  658MOL0     H86809   6.709   6.878  -0.420  0.9277  0.8144 -1.3506
  658MOL0     H86810   6.561   6.628  -0.374  1.8312  1.3068  0.1605
  658MOL0     H86811   6.621   6.495  -0.464  1.1909  0.0260 -0.1178
  658MOL0     H86812   6.578   6.757  -0.600 -1.6712  1.3909  1.5919
  658MOL0     H86813   6.436   6.656  -0.574  0.5540 -2.6356  1.5356
  658MOL0     H86814   6.544   6.638  -0.795 -2.6483  1.6030  2.5615
  658MOL0     H86815   6.702   6.579  -0.723 -0.6270 -1.6867 -0.5347
  658MOL0     H86816   6.584   6.370  -0.641  0.9233 -0.7993 -2.0486
  658MOL0     H86817   6.579   6.390  -0.818 -1.6078  1.4508 -1.4512
  658MOL0     H86818   6.502   6.184  -0.787  0.2129 -1.9702 -1.1011
  658MOL0     H86819   6.344   5.980  -0.852  1.2664  0.5209 -0.8959
  658MOL0     H86820   5.913   5.756  -0.746 -0.5495 -1.8356  0.1106
  658MOL0     H86821   5.753   5.597  -0.809 -1.8147  0.4086  0.9715
  658MOL0     H86822   5.491   5.663  -1.175  0.8666  0.2676  0.3462
  658MOL0     H86823   5.408   5.712  -1.036  1.0951  0.6215 -0.9853
  658MOL0     H86824   5.431   5.406  -1.118 -0.9049 -0.6928  0.6569
  658MOL0     H86825   5.314   5.530  -1.176 -0.1106 -0.0641  0.4540
  658MOL0     H86826   5.335   5.431  -0.889 -2.1204  0.4612  1.4505
  658MOL0     H86827   5.213   5.379  -1.004 -0.6292 -1.5997  3.4375
  658MOL0     H86828   5.124   5.538  -0.853 -1.9105 -1.0270 -1.6779
  658MOL0     H86829   5.264   5.651  -0.883  2.1416 -2.8819  0.6487
  658MOL0     H86830   5.161   5.701  -1.105  2.5390  1.5878  1.3482
  658MOL0     H86831   5.047   5.726  -0.974  0.4348  1.0781 -0.3568
  658MOL0     H86832   4.934   5.499  -1.039  2.3160 -0.6657  0.9640
  658MOL0     H86833   5.072   5.462  -1.139  0.3892 -2.1724  0.9574
  658MOL0     H86834   4.894   5.701  -1.222 -1.2395 -0.4279 -2.4193
  658MOL0     H86835   5.020   5.612  -1.307 -0.4159 -0.8474 -0.4149
  658MOL0     H86836   4.752   5.491  -1.216  1.6688 -3.4759  2.0281
  658MOL0     H86837   4.869   5.409  -1.314 -0.2697  0.4479 -3.7190
  658MOL0     H86838   5.607   5.838  -1.118 -0.9804 -3.6476 -0.1787
  658MOL0     H86839   5.745   6.012  -1.063 -0.3948 -1.4458 -1.9874
  658MOL0     H86840   6.008   6.235  -0.797  1.2023  3.2494  1.0124
  658MOL0     H86841   6.151   6.422  -0.739 -0.5987 -0.3637  2.0065
  658MOL0     H86842   7.578   7.511  -0.104 -1.9012  1.5059  1.1279
  658MOL0     H86843   7.824   7.507  -0.029  1.0917  0.2552  0.9602
  658MOL0     H86844   8.114   7.488   0.350  1.5097  1.0892  1.3793
  658MOL0     H86845   8.320   7.484   0.429 -1.3578  1.5589  0.0059
  658MOL0     H86846   8.654   7.314   0.213 -2.7658 -0.2318 -0.6825
  658MOL0     H86847   8.613   7.155   0.280  0.5394  0.6838  1.7043
  658MOL0     H86848   8.720   7.253   0.506 -2.2552 -2.1233 -0.4869
  658MOL0     H86849   8.798   7.165   0.375  0.0590  0.3029 -1.0769
  658MOL0     H86850   8.798   7.479   0.414 -0.9242 -0.6161 -0.6805
  658MOL0     H86851   8.866   7.410   0.276  4.0838  3.0689  0.9594
  658MOL0     H86852   9.024   7.276   0.395  0.7474 -0.8076  2.5265
  658MOL0     H86853   9.039   7.458   0.412  0.3109  0.3596  0.7298
  658MOL0     H86854   8.952   7.340   0.804 -4.5121 -2.5712 -0.8161
  658MOL0     H86855   8.427   7.144   0.194 -0.2224 -0.2594  1.3426
  658MOL0     H86856   8.204   7.166   0.078 -1.1234 -0.0496  0.1687
  659MOL0     O86857   7.178  11.167   7.073 -0.1359  0.4608 -0.1310
  659MOL0     C86858   7.166  11.122   7.186 -0.4618  0.0244 -0.0895
  659MOL0     O86859   7.058  11.043   7.232 -0.7243 -0.1033  0.1401
  659MOL0     C86860   6.982  10.974   7.140  0.5977 -0.2918 -0.0914
  659MOL0     C86861   6.856  11.025   7.110  0.2847 -0.3794  0.0944
  659MOL0     C86862   6.780  10.957   7.015  0.7952  0.4542 -0.2621
  659MOL0     C86863   6.833  10.832   6.945 -0.6807 -1.1020  0.6569
  659MOL0     O86864   6.769  10.770   6.833 -0.0672 -0.2658 -0.9507
  659MOL0     C86865   6.632  10.786   6.819  0.1832 -0.8015  0.2300
  659MOL0     C86866   6.595  10.688   6.710  1.3595 -1.1813  1.0935
  659MOL0     C86867   6.437  10.679   6.707 -0.4473 -0.1144 -0.9012
  659MOL0     C86868   6.357  10.794   6.650  0.7814  0.2885 -0.6591
  659MOL0     C86869   6.208  10.788   6.659  0.3595  0.0024 -0.8823
  659MOL0     C86870   6.150  10.897   6.568  0.4078 -0.3823  0.4579
  659MOL0     C86871   5.998  10.903   6.565 -0.8484 -0.2475 -0.9665
  659MOL0     C86872   5.926  10.761   6.545 -0.3758 -1.0201 -0.3797
  659MOL0     N86873   5.786  10.769   6.500 -0.0034  0.3391 -0.4011
  659MOL0     C86874   5.694  10.678   6.544  0.2842 -0.6682  0.6345
  659MOL0     C86875   5.583  10.709   6.476  0.4122  0.2127 -0.4100
  659MOL0     C86876   5.457  10.622   6.478 -0.5149  0.9048 -0.0820
  659MOL0     C86877   5.333  10.696   6.435 -1.2054 -0.2701 -0.2511
  659MOL0     C86878   5.204  10.628   6.456  0.3015  0.6125  0.4091
  659MOL0     C86879   5.145  10.566   6.323  0.3880  0.8156 -0.6401
  659MOL0     O86880   5.009  10.515   6.361 -0.1465 -0.0664  0.0096
  659MOL0     C86881   4.935  10.473   6.256 -0.3976 -0.4588  0.6021
  659MOL0     C86882   4.982  10.464   6.124  0.1633  0.8059 -0.1993
  659MOL0     C86883   4.906  10.408   6.020  0.6735  0.5911 -0.3737
  659MOL0     C86884   4.769  10.361   6.050 -0.4972  0.6872  0.7621
  659MOL0     C86885   4.687  10.294   5.944 -0.1243  0.2023  0.1547
  659MOL0     O86886   4.555  10.284   5.963 -0.0934  0.0729  0.1554
  659MOL0     C86887   4.473  10.210   5.877  0.5555  0.0736  0.3535
  659MOL0     C86888   4.495  10.172   5.742  0.2135 -0.3226  0.3349
  659MOL0     C86889   4.399  10.091   5.678 -0.0793  0.8516  0.3125
  659MOL0     C86890   4.280  10.047   5.738 -1.0553 -0.6405 -0.6214
  659MOL0     O86891   4.185   9.967   5.679  0.8949  0.2142 -0.5166
  659MOL0     C86892   4.186   9.936   5.540  0.4824  1.0113 -0.7820
  659MOL0     C86893   4.114   9.808   5.521  0.0714  0.4125 -0.2198
  659MOL0     C86894   3.965   9.815   5.451  0.1124  0.3024  1.0052
  659MOL0     C86895   3.928   9.684   5.369 -0.1041  0.4123  0.2836
  659MOL0     C86896   3.791   9.687   5.327 -1.1694 -0.1253  0.4634
  659MOL0     C86897   3.762   9.550   5.262 -0.5947 -0.9826 -0.0050
  659MOL0     C86898   3.622   9.544   5.205 -0.7797  0.3816 -0.0094
  659MOL0     C86899   3.600   9.407   5.146  0.3248 -0.0611 -0.0861
  659MOL0    Cl86900   3.509   9.436   4.988 -0.5561 -0.3632 -0.1201
  659MOL0     C86901   4.251  10.090   5.870  1.5670 -1.0212 -0.2560
  659MOL0     C86902   4.345  10.175   5.931 -0.8164  0.0755  0.8867
  659MOL0     O86903   4.759  10.244   5.854  0.5185  0.1214  0.3923
  659MOL0     C86904   4.717  10.390   6.177  1.0344 -0.0064 -1.0516
  659MOL0     C86905   4.803  10.440   6.281 -0.2277  0.1127  0.0734
  659MOL0     N86906   5.604  10.822   6.396 -0.0375 -0.7403  0.0071
  659MOL0     N86907   5.729  10.853   6.411  0.2409 -0.0169 -0.3178
  659MOL0     C86908   6.954  10.786   6.994 -0.5028 -0.0746  0.0726
  659MOL0     C86909   7.036  10.861   7.079  0.0610 -0.2814  0.0264
  659MOL0     C86910   7.272  11.161   7.289  0.0813  0.6225 -0.0648
  659MOL0     C86911   7.381  11.244   7.260  1.7899 -0.3717  0.1105
  659MOL0     C86912   7.473  11.291   7.361  0.8259  0.3298 -0.3784
  659MOL0     C86913   7.461  11.238   7.486 -0.6145  0.1885  0.1275
  659MOL0     O86914   7.539  11.256   7.593 -0.4630 -0.0346 -0.2997
  659MOL0     C86915   7.675  11.302   7.578 -0.9661  0.7292  0.2572
  659MOL0     C86916   7.760  11.202   7.668  0.7014 -0.4427  1.0245
  659MOL0     C86917   7.763  11.060   7.592 -0.5816 -0.1126  0.5396
  659MOL0     C86918   7.854  11.059   7.467  0.0180  0.1522 -1.2710
  659MOL0     C86919   7.991  11.113   7.486  0.1057  0.0589 -0.8357
  659MOL0     C86920   8.111  11.142   7.491 -0.7413 -0.1682 -0.0918
  659MOL0     C86921   7.355  11.149   7.517 -0.3256 -0.3091 -0.3887
  659MOL0     C86922   7.260  11.117   7.418  0.3819 -0.6963 -0.5099
  659MOL0     H86923   6.819  11.107   7.169 -0.9289 -0.0338 -1.1039
  659MOL0     H86924   6.688  11.010   6.994  1.2662  1.8798  1.1159
  659MOL0     H86925   6.610  10.889   6.788  0.5660 -0.4095  1.2299
  659MOL0     H86926   6.584  10.767   6.915  1.0944 -1.5742  0.5503
  659MOL0     H86927   6.626  10.585   6.732  0.0326 -1.7650  0.3982
  659MOL0     H86928   6.627  10.711   6.608 -1.8878 -1.4029 -0.0952
  659MOL0     H86929   6.398  10.653   6.806 -2.2170 -2.7981 -2.1774
  659MOL0     H86930   6.414  10.593   6.642  0.3491 -0.6798 -0.4561
  659MOL0     H86931   6.376  10.890   6.699 -3.9949  1.1244 -0.0079
  659MOL0     H86932   6.380  10.789   6.543  3.3619 -1.0784 -0.1230
  659MOL0     H86933   6.177  10.797   6.763  0.6763  1.9653 -0.9278
  659MOL0     H86934   6.165  10.693   6.626  2.0432 -0.8337 -0.7961
  659MOL0     H86935   6.175  10.882   6.462  2.1038 -0.8654  0.8848
  659MOL0     H86936   6.187  10.993   6.604  2.0628 -1.1271  0.8393
  659MOL0     H86937   5.960  10.946   6.658  3.8089 -1.2911  1.7528
  659MOL0     H86938   5.962  10.975   6.491 -1.1887 -1.0731 -1.6244
  659MOL0     H86939   5.935  10.702   6.637  2.7686 -2.5838 -1.5695
  659MOL0     H86940   5.980  10.706   6.468  0.2839 -1.3783  0.3198
  659MOL0     H86941   5.710  10.597   6.614  1.0211 -0.3445  0.8477
  659MOL0     H86942   5.453  10.616   6.587  1.0030  1.7601  0.0607
  659MOL0     H86943   5.481  10.525   6.433 -2.1738  0.1606  0.5699
  659MOL0     H86944   5.345  10.708   6.327 -2.5943  2.2794 -0.2106
  659MOL0     H86945   5.329  10.795   6.481 -1.7314 -0.9597  1.2515
  659MOL0     H86946   5.216  10.540   6.520 -1.2923 -1.3467 -1.8187
  659MOL0     H86947   5.129  10.694   6.500 -1.1024 -1.9407  2.0972
  659MOL0     H86948   5.200  10.475   6.298 -1.4486  0.4850 -4.0393
  659MOL0     H86949   5.149  10.635   6.238  2.4899 -1.8189 -2.8733
  659MOL0     H86950   5.083  10.494   6.095  0.3294 -0.2532 -0.7346
  659MOL0     H86951   4.947  10.400   5.920 -1.2158 -0.0102 -1.1512
  659MOL0     H86952   4.590  10.197   5.696  1.1967 -0.3001  2.2734
  659MOL0     H86953   4.403  10.062   5.574 -2.1173  2.7383 -0.3638
  659MOL0     H86954   4.287   9.915   5.506 -0.1764 -4.6189 -0.1080
  659MOL0     H86955   4.150  10.012   5.470  0.2535 -1.6704 -3.7576
  659MOL0     H86956   4.111   9.747   5.613  0.6621  0.3905 -0.2112
  659MOL0     H86957   4.172   9.754   5.446 -1.1798  1.2384 -1.8199
  659MOL0     H86958   3.969   9.892   5.374 -4.2277 -0.8817 -0.7055
  659MOL0     H86959   3.890   9.852   5.521  0.6412 -1.1805  2.4218
  659MOL0     H86960   4.000   9.655   5.292 -0.6213 -1.9861  0.6095
  659MOL0     H86961   3.946   9.594   5.429  1.5098 -2.1892 -3.6417
  659MOL0     H86962   3.772   9.764   5.251  0.3667 -1.1024 -0.9844
  659MOL0     H86963   3.724   9.716   5.408 -0.4402  1.5893  0.4988
  659MOL0     H86964   3.784   9.474   5.338 -0.0002 -1.0317 -0.2187
  659MOL0     H86965   3.825   9.535   5.173  0.5668  2.1428  0.1672
  659MOL0     H86966   3.552   9.564   5.287 -1.2996  1.0160 -0.6010
  659MOL0     H86967   3.616   9.619   5.126 -1.6747 -0.4646 -0.7725
  659MOL0     H86968   3.549   9.336   5.212  1.4241 -2.7373 -1.9720
  659MOL0     H86969   3.693   9.356   5.120  0.2114  0.0211 -0.6538
  659MOL0     H86970   4.156  10.064   5.915  1.8766 -1.4644  0.1436
  659MOL0     H86971   4.323  10.216   6.029 -2.3946 -0.8191  0.9492
  659MOL0     H86972   4.618  10.355   6.205  1.0669 -0.1700 -1.1434
  659MOL0     H86973   4.763  10.439   6.382  0.4698  1.6524  0.3906
  659MOL0     H86974   7.002  10.699   6.952  2.8927  1.0127  1.4087
  659MOL0     H86975   7.136  10.826   7.103  0.8885 -0.9588 -3.8479
  659MOL0     H86976   7.397  11.279   7.158 -2.6662 -0.9977 -1.0022
  659MOL0     H86977   7.554  11.354   7.326  0.8144  0.1229 -0.7741
  659MOL0     H86978   7.673  11.406   7.611  0.2398  0.7032  0.4597
  659MOL0     H86979   7.711  11.277   7.478 -1.0261 -3.1935  1.0347
  659MOL0     H86980   7.856  11.253   7.683 -1.1398  3.8201  0.0687
  659MOL0     H86981   7.717  11.193   7.769 -1.6535  1.6272  0.3179
  659MOL0     H86982   7.664  11.024   7.561 -0.2441 -0.1819 -0.4876
  659MOL0     H86983   7.797  10.987   7.666 -1.7332 -0.6843  0.5215
  659MOL0     H86984   7.852  10.953   7.441  0.7911 -0.2391  0.1461
  659MOL0     H86985   7.825  11.121   7.382  3.4877  1.1340 -1.9077
  659MOL0     H86986   8.213  11.158   7.465 -0.8605 -0.1219 -0.5357
  659MOL0     H86987   7.357  11.107   7.616 -1.8109  2.1705  0.7843
  659MOL0     H86988   7.180  11.049   7.446 -1.9719  1.6372 -1.1439
  660MOL0     O86989   7.919   4.383   7.795 -0.0420 -0.3064 -0.8767
  660MOL0     C86990   7.965   4.281   7.833  0.7628  0.5717 -0.4864
  660MOL0     O86991   7.928   4.210   7.944  0.0513 -0.1147 -0.1687
  660MOL0     C86992   7.852   4.267   8.048 -1.0591  0.3899 -0.6210
  660MOL0     C86993   7.831   4.404   8.084 -0.2577  0.2955 -0.1128
  660MOL0     C86994   7.763   4.440   8.204 -0.3727 -0.6425  0.3651
  660MOL0     C86995   7.711   4.346   8.286  0.0476  0.1863 -0.2312
  660MOL0     O86996   7.656   4.377   8.405 -0.4792 -0.0393  0.0146
  660MOL0     C86997   7.531   4.320   8.445  0.2668 -0.0267 -0.0659
  660MOL0     C86998   7.416   4.419   8.446  1.1668 -0.6665 -0.0784
  660MOL0     C86999   7.443   4.548   8.528 -0.4123  0.0255 -0.6428
  660MOL0     C87000   7.451   4.515   8.678  0.9795 -1.0122  0.1418
  660MOL0     C87001   7.452   4.637   8.772  0.2889 -0.0550 -0.4289
  660MOL0     C87002   7.310   4.709   8.776  0.1686  0.0348  0.2748
  660MOL0     C87003   7.190   4.615   8.831  0.3378  0.9165  0.8467
  660MOL0     C87004   7.215   4.547   8.962 -0.0604 -0.6470  0.7023
  660MOL0     N87005   7.091   4.540   9.043 -0.3727 -1.3001  0.1559
  660MOL0     C87006   6.974   4.470   9.018 -0.1032  0.4264 -0.8642
  660MOL0     C87007   6.898   4.470   9.134 -0.8500  0.6805  0.2234
  660MOL0     C87008   6.763   4.414   9.155 -0.4596 -0.4825  0.2238
  660MOL0     C87009   6.793   4.258   9.148  0.1340 -0.0224 -1.0747
  660MOL0     C87010   6.853   4.196   9.276  0.1096  0.3111 -0.1607
  660MOL0     C87011   6.860   4.043   9.266  0.0369 -0.5429 -0.4248
  660MOL0     O87012   6.911   3.982   9.387  0.5266 -0.6492 -0.0710
  660MOL0     C87013   7.044   3.986   9.415  0.0552 -0.6548 -1.2004
  660MOL0     C87014   7.143   4.019   9.319 -0.6217 -0.6041 -0.1212
  660MOL0     C87015   7.282   4.022   9.353 -0.6593  0.0638 -0.8284
  660MOL0     C87016   7.331   3.972   9.478 -0.9967  0.2054  0.3760
  660MOL0     C87017   7.477   3.980   9.522  0.2115  0.2161 -0.3368
  660MOL0     O87018   7.580   4.005   9.428  0.1638 -0.3704 -0.1427
  660MOL0     C87019   7.707   4.038   9.463 -0.1499  0.7629  1.0107
  660MOL0     C87020   7.775   4.109   9.364 -0.1653  0.1168  0.1947
  660MOL0     C87021   7.917   4.122   9.361 -0.3945 -0.0020 -0.3566
  660MOL0     C87022   7.986   4.068   9.471 -0.8577 -1.4036 -0.2777
  660MOL0     O87023   8.120   4.070   9.494 -0.2908  0.2627 -0.1193
  660MOL0     C87024   8.199   4.170   9.421  0.4309  0.6505 -0.2949
  660MOL0     C87025   8.340   4.170   9.483  0.2377  0.2398 -0.1028
  660MOL0     C87026   8.423   4.280   9.414  0.2702 -0.5284 -0.3528
  660MOL0     C87027   8.515   4.237   9.298 -0.0217  0.5929 -0.3864
  660MOL0     C87028   8.605   4.355   9.254  0.2286  0.6674 -1.0182
  660MOL0     C87029   8.667   4.338   9.121  0.2166  0.0433  1.1603
  660MOL0     C87030   8.769   4.449   9.086  0.1005 -0.2578  0.5236
  660MOL0     C87031   8.717   4.595   9.087 -0.5815  0.1786  0.4874
  660MOL0    Cl87032   8.581   4.632   8.984  0.2041 -0.2515  0.4073
  660MOL0     C87033   7.918   4.000   9.573  0.2098 -0.5249 -0.0521
  660MOL0     C87034   7.775   3.994   9.572  0.2514  0.5731 -0.4023
  660MOL0     O87035   7.492   3.969   9.645 -0.2207  0.0928  0.0528
  660MOL0     C87036   7.219   3.937   9.573 -0.2412  0.2009  0.5415
  660MOL0     C87037   7.086   3.937   9.540  0.1201  0.6431  0.5132
  660MOL0     N87038   6.975   4.524   9.227 -0.0709  0.1646  0.3641
  660MOL0     N87039   7.089   4.575   9.177  0.3405  0.1031  0.2187
  660MOL0     C87040   7.737   4.212   8.258  0.2417  0.1291 -0.1467
  660MOL0     C87041   7.801   4.172   8.142  0.2703 -0.5127  0.5729
  660MOL0     C87042   8.032   4.203   7.728 -0.5645  0.2612 -0.3377
  660MOL0     C87043   8.029   4.058   7.710  0.3500  0.2313 -1.0059
  660MOL0     C87044   8.091   3.994   7.603 -0.1110 -0.7058  0.2786
  660MOL0     C87045   8.171   4.071   7.515 -0.2622  0.3521  0.0309
  660MOL0     O87046   8.238   4.010   7.413 -0.3932  0.1594  0.1893
  660MOL0     C87047   8.384   4.030   7.418  0.0741 -1.0511  0.5830
  660MOL0     C87048   8.460   3.897   7.382  0.1339 -0.2120 -0.7600
  660MOL0     C87049   8.421   3.797   7.489 -0.1826 -0.4957  0.9691
  660MOL0     C87050   8.528   3.699   7.517 -0.5256  0.3185  0.0119
  660MOL0     C87051   8.483   3.589   7.608  0.0587  1.0266  0.2094
  660MOL0     C87052   8.463   3.497   7.688  0.8002  0.5003 -1.2682
  660MOL0     C87053   8.171   4.211   7.533 -0.5202  0.2454  0.7089
  660MOL0     C87054   8.110   4.283   7.637 -0.1324 -0.4067 -0.0329
  660MOL0     H87055   7.888   4.471   8.020  0.2076  1.2054  1.2268
  660MOL0     H87056   7.763   4.548   8.220  3.9755  0.1252 -3.0454
  660MOL0     H87057   7.528   4.279   8.547 -5.0899 -4.7564 -1.6025
  660MOL0     H87058   7.504   4.242   8.374  0.9512 -0.0588 -0.2920
  660MOL0     H87059   7.322   4.366   8.464  0.7905 -0.3883 -1.1408
  660MOL0     H87060   7.411   4.464   8.346  1.6199  0.2466  0.2921
  660MOL0     H87061   7.353   4.607   8.508 -0.8418 -0.9053 -1.6113
  660MOL0     H87062   7.536   4.601   8.505  0.1986 -1.1231 -0.8880
  660MOL0     H87063   7.364   4.458   8.712  0.0283  1.9283  3.1375
  660MOL0     H87064   7.546   4.464   8.699  0.8217  0.1162  4.3134
  660MOL0     H87065   7.525   4.711   8.742  3.9630 -2.6335  1.3474
  660MOL0     H87066   7.474   4.612   8.876 -0.2070  1.4459  0.0610
  660MOL0     H87067   7.290   4.730   8.671 -0.0289 -2.7362 -0.3232
  660MOL0     H87068   7.307   4.801   8.835 -0.1523 -0.2766  0.7643
  660MOL0     H87069   7.104   4.679   8.856 -2.9941 -3.1924  1.1451
  660MOL0     H87070   7.148   4.550   8.754 -0.1709 -0.3303  2.1285
  660MOL0     H87071   7.292   4.595   9.023 -2.5107  2.9652  1.2493
  660MOL0     H87072   7.246   4.445   8.938 -2.3200 -0.8597 -1.6891
  660MOL0     H87073   6.964   4.423   8.921  2.1247  0.3156 -1.0959
  660MOL0     H87074   6.694   4.440   9.075 -1.8507  1.8583  2.0409
  660MOL0     H87075   6.716   4.455   9.245  0.8712  0.6035  0.4654
  660MOL0     H87076   6.847   4.225   9.060  1.5510 -0.2014 -0.1703
  660MOL0     H87077   6.693   4.215   9.133  0.4948 -0.2156 -3.1470
  660MOL0     H87078   6.955   4.233   9.289 -0.5657  1.7883  1.3916
  660MOL0     H87079   6.790   4.207   9.365 -2.1869 -0.1786 -1.6389
  660MOL0     H87080   6.923   4.018   9.180 -0.3689  0.0278 -0.9028
  660MOL0     H87081   6.755   4.017   9.250 -0.9781  3.1676 -0.7822
  660MOL0     H87082   7.127   4.035   9.213 -1.2903  0.2197  0.0946
  660MOL0     H87083   7.348   4.039   9.268  1.4910 -3.0996  0.0514
  660MOL0     H87084   7.721   4.156   9.282 -1.2694 -2.3816 -0.6132
  660MOL0     H87085   7.958   4.176   9.277 -0.0628 -2.5882 -1.9940
  660MOL0     H87086   8.154   4.269   9.430 -1.6727 -0.4508  3.4626
  660MOL0     H87087   8.210   4.147   9.314 -2.0759  0.4728 -0.5632
  660MOL0     H87088   8.387   4.074   9.460  0.5436  0.2552  0.4257
  660MOL0     H87089   8.335   4.196   9.590  1.6483  0.3167 -0.0307
  660MOL0     H87090   8.486   4.339   9.482  0.6201 -0.8046 -0.4320
  660MOL0     H87091   8.353   4.338   9.353 -2.3995  2.0866  4.5254
  660MOL0     H87092   8.582   4.153   9.322  0.9044  1.5401  0.4651
  660MOL0     H87093   8.449   4.206   9.216 -0.7869 -1.2255  0.8398
  660MOL0     H87094   8.687   4.360   9.326 -0.0224 -0.0045 -0.6765
  660MOL0     H87095   8.543   4.445   9.256 -2.4186 -1.0663  0.7617
  660MOL0     H87096   8.591   4.325   9.044  0.8451 -0.9189  0.6794
  660MOL0     H87097   8.723   4.244   9.121  0.4911  0.2016  1.3761
  660MOL0     H87098   8.860   4.432   9.144 -0.5519  0.2602  1.7464
  660MOL0     H87099   8.799   4.430   8.983 -1.4979 -1.6705  0.2849
  660MOL0     H87100   8.800   4.665   9.070 -1.1748  0.3142 -2.3021
  660MOL0     H87101   8.688   4.606   9.192 -1.8333  0.6788  0.0987
  660MOL0     H87102   7.965   3.960   9.662 -0.8835  1.1411  1.3416
  660MOL0     H87103   7.726   3.936   9.650  0.1456  1.1492 -0.0376
  660MOL0     H87104   7.236   3.888   9.668 -4.2268 -0.9416  0.8776
  660MOL0     H87105   7.009   3.914   9.614  2.1264 -3.2208  1.6913
  660MOL0     H87106   7.704   4.136   8.328 -1.4981  0.6524 -0.3619
  660MOL0     H87107   7.816   4.064   8.140 -0.2841 -0.5767 -0.3002
  660MOL0     H87108   7.995   3.992   7.790  1.8353  0.2838 -0.3045
  660MOL0     H87109   8.090   3.886   7.592  2.5327 -0.6708 -1.2707
  660MOL0     H87110   8.417   4.073   7.513 -0.9104 -2.3999  1.5827
  660MOL0     H87111   8.419   4.095   7.338  2.4999 -4.0445 -1.0268
  660MOL0     H87112   8.443   3.895   7.273 -1.5477  0.0828 -0.5362
  660MOL0     H87113   8.564   3.923   7.401 -0.5665  0.5656  2.6524
  660MOL0     H87114   8.336   3.737   7.454 -2.1352  0.9213  3.0029
  660MOL0     H87115   8.377   3.844   7.577 -0.6345 -0.9422  0.9908
  660MOL0     H87116   8.557   3.649   7.424  2.3059 -0.1571  1.0696
  660MOL0     H87117   8.613   3.751   7.560  0.3819  0.4154 -1.7940
  660MOL0     H87118   8.450   3.410   7.751 -1.2981  3.6378  3.1905
  660MOL0     H87119   8.226   4.271   7.462 -0.6946  0.4101  0.7094
  660MOL0     H87120   8.102   4.391   7.642 -0.3753 -0.4650  2.9008
  661MOL0     O87121   2.575   9.922   2.443 -0.3861  0.2179 -0.1066
  661MOL0     C87122   2.555  10.034   2.415  0.0120  0.0447  0.1020
  661MOL0     O87123   2.437  10.087   2.434  0.4132  0.0703  0.4907
  661MOL0     C87124   2.338  10.004   2.476 -0.6595  0.4859 -0.2120
  661MOL0     C87125   2.234   9.988   2.384 -0.1322 -0.2573  0.3540
  661MOL0     C87126   2.116   9.920   2.424  0.3898  0.7229 -0.2026
  661MOL0     C87127   2.113   9.836   2.539 -0.1898  0.4613 -0.5811
  661MOL0     O87128   2.014   9.747   2.549 -0.1320 -0.8065  0.7229
  661MOL0     C87129   2.011   9.661   2.664  0.7536 -0.7184  0.1961
  661MOL0     C87130   1.864   9.617   2.689  0.4876 -0.3900 -0.2966
  661MOL0     C87131   1.831   9.570   2.837  0.4719 -0.6257 -1.2000
  661MOL0     C87132   1.693   9.520   2.859  0.8601  0.3147 -0.3869
  661MOL0     C87133   1.648   9.491   3.005 -0.7108 -0.6957 -0.7932
  661MOL0     C87134   1.511   9.419   3.017  0.3843 -1.1238  0.6765
  661MOL0     C87135   1.522   9.268   3.028  0.2183 -0.6842  0.4298
  661MOL0     C87136   1.406   9.175   3.070  0.5798 -0.9326  0.3125
  661MOL0     N87137   1.294   9.176   2.971  0.0700  0.6270 -0.6040
  661MOL0     C87138   1.209   9.279   2.944  0.6256  0.5528 -0.1738
  661MOL0     C87139   1.127   9.236   2.847 -0.4464 -0.3835  0.0022
  661MOL0     C87140   1.003   9.310   2.784 -0.1356  0.2441  0.0554
  661MOL0     C87141   0.980   9.272   2.641  0.2864  0.6955  1.0169
  661MOL0     C87142   0.845   9.337   2.595  0.1161 -0.5836  0.9343
  661MOL0     C87143   0.718   9.255   2.638 -0.3596  0.5698  0.6301
  661MOL0     O87144   0.731   9.110   2.637 -0.3861 -0.6155  0.1060
  661MOL0     C87145   0.634   9.036   2.700 -0.5308  0.3997 -0.7433
  661MOL0     C87146   0.496   9.067   2.734  0.3007 -0.1096  0.6036
  661MOL0     C87147   0.411   8.975   2.782 -0.6982 -0.0640  0.1284
  661MOL0     C87148   0.441   8.838   2.771  0.7639 -0.5386 -0.3482
  661MOL0     C87149   0.353   8.731   2.810 -0.2783  0.0768 -1.1654
  661MOL0     O87150   0.241   8.766   2.862  0.8978 -0.0876  0.7381
  661MOL0     C87151   0.161   8.677   2.926 -0.3692  0.3626  1.4708
  661MOL0     C87152   0.098   8.733   3.032  0.5675 -0.3977  0.8652
  661MOL0     C87153   0.019   8.660   3.116  0.7458  0.3667 -0.4886
  661MOL0     C87154  -0.016   8.530   3.084 -0.7687 -0.4879 -0.2029
  661MOL0     O87155  -0.071   8.455   3.183 -0.2537  0.0866 -0.1204
  661MOL0     C87156  -0.014   8.330   3.218  0.8184 -0.3056  0.0160
  661MOL0     C87157  -0.043   8.306   3.363  0.5591  0.5659 -0.0895
  661MOL0     C87158   0.032   8.415   3.451 -1.3152  0.2923 -0.1671
  661MOL0     C87159   0.007   8.390   3.601 -0.4096 -0.1542 -1.0838
  661MOL0     C87160   0.080   8.478   3.698 -0.2975 -0.4641  0.5966
  661MOL0     C87161   0.229   8.452   3.713  0.2557 -0.6665 -1.0521
  661MOL0     C87162   0.286   8.541   3.826 -0.7962 -0.1800  0.2215
  661MOL0     C87163   0.431   8.503   3.835  0.4436  0.0742 -0.0921
  661MOL0    Cl87164   0.520   8.613   3.724  0.1185  0.4967 -0.2106
  661MOL0     C87165   0.029   8.476   2.971  0.0464  0.0782  0.4547
  661MOL0     C87166   0.123   8.550   2.888  0.8432  0.6635 -0.5072
  661MOL0     O87167   0.388   8.615   2.789 -0.5676 -0.5229  0.3519
  661MOL0     C87168   0.579   8.808   2.752 -0.4052  0.0928  0.1076
  661MOL0     C87169   0.671   8.905   2.726 -0.3876 -0.3966  0.8649
  661MOL0     N87170   1.165   9.108   2.818 -0.0094  0.5428  0.5562
  661MOL0     N87171   1.269   9.072   2.884 -0.0258 -0.2483 -0.2552
  661MOL0     C87172   2.226   9.845   2.624 -0.6165  0.5723  0.7434
  661MOL0     C87173   2.326   9.941   2.604  0.2119  0.5738  0.7482
  661MOL0     C87174   2.650  10.102   2.318  0.2820 -0.1996 -0.1958
  661MOL0     C87175   2.620  10.235   2.269  0.3247 -0.3115 -1.1176
  661MOL0     C87176   2.707  10.313   2.188 -0.8063  0.1362 -0.9127
  661MOL0     C87177   2.831  10.258   2.159 -0.8483  0.2294  0.6991
  661MOL0     O87178   2.918  10.328   2.081  0.1813 -0.4869  0.3018
  661MOL0     C87179   2.960  10.245   1.969  0.0232  1.0174  0.5047
  661MOL0     C87180   3.031  10.324   1.870 -0.1994 -0.3590 -0.9345
  661MOL0     C87181   2.963  10.442   1.789 -0.8199 -0.2056  0.1967
  661MOL0     C87182   2.931  10.551   1.893 -0.5105  0.5794 -0.3006
  661MOL0     C87183   2.908  10.681   1.819 -0.7935  0.4708 -0.1263
  661MOL0     C87184   2.874  10.787   1.778 -0.3954 -0.3952 -0.0534
  661MOL0     C87185   2.866  10.130   2.208  0.1320 -0.3523 -1.4025
  661MOL0     C87186   2.773  10.053   2.284 -0.4346 -0.4719 -0.3872
  661MOL0     H87187   2.234  10.047   2.292  3.0795  0.9957  1.0274
  661MOL0     H87188   2.035   9.928   2.352 -0.1464 -1.2163  0.1490
  661MOL0     H87189   2.044   9.712   2.755  2.3936  0.3019 -0.9241
  661MOL0     H87190   2.071   9.573   2.641 -0.8906 -2.0458  0.7311
  661MOL0     H87191   1.842   9.533   2.622  1.8513  0.1900 -1.5064
  661MOL0     H87192   1.802   9.706   2.673  3.2121  1.5542 -0.6611
  661MOL0     H87193   1.836   9.661   2.897 -2.4477  1.6044 -4.0028
  661MOL0     H87194   1.909   9.499   2.867  0.6642  0.6479  1.5725
  661MOL0     H87195   1.628   9.601   2.825  1.7324  1.4308  0.4971
  661MOL0     H87196   1.671   9.432   2.798  0.1033  0.5247 -0.4331
  661MOL0     H87197   1.629   9.581   3.064  2.3361  0.3532 -1.2139
  661MOL0     H87198   1.730   9.430   3.045 -1.3543 -1.4919 -0.6534
  661MOL0     H87199   1.451   9.453   2.932  1.7165 -0.2877  0.0382
  661MOL0     H87200   1.466   9.456   3.110  0.9896  2.5820 -0.3105
  661MOL0     H87201   1.558   9.237   2.929 -2.0399  0.9100 -0.9969
  661MOL0     H87202   1.608   9.248   3.093  3.6592  0.1471 -3.4778
  661MOL0     H87203   1.380   9.204   3.172 -0.0374 -0.4410  0.0261
  661MOL0     H87204   1.445   9.075   3.050  1.4152 -0.9032  1.6944
  661MOL0     H87205   1.209   9.368   3.006  2.6515 -1.2501  2.6270
  661MOL0     H87206   1.020   9.418   2.795  1.0990 -0.0953  2.0206
  661MOL0     H87207   0.920   9.273   2.845 -0.6434 -0.5160 -1.0721
  661MOL0     H87208   0.977   9.164   2.626  1.4647  1.0661 -3.5285
  661MOL0     H87209   1.064   9.298   2.576  0.4524 -1.1161  0.4626
  661MOL0     H87210   0.840   9.443   2.618  2.7986  0.4226 -2.3061
  661MOL0     H87211   0.834   9.349   2.487 -0.7013  3.4368  1.3259
  661MOL0     H87212   0.647   9.290   2.563  0.1984 -0.4456 -0.4034
  661MOL0     H87213   0.687   9.292   2.737 -0.7763 -0.6994  0.9816
  661MOL0     H87214   0.453   9.165   2.716  0.6482 -0.4420 -2.7580
  661MOL0     H87215   0.312   9.004   2.816 -0.1194 -0.7803  2.5758
  661MOL0     H87216   0.105   8.840   3.051 -5.8948  1.3112 -3.1454
  661MOL0     H87217  -0.022   8.713   3.201 -2.0240  1.4682 -2.3571
  661MOL0     H87218   0.090   8.317   3.185  1.1385 -0.4129  1.0311
  661MOL0     H87219  -0.065   8.252   3.162  0.6826 -0.6154  0.5626
  661MOL0     H87220   0.005   8.210   3.386  0.6566 -0.2346 -3.1719
  661MOL0     H87221  -0.149   8.294   3.384 -0.1160 -0.3436 -3.3565
  661MOL0     H87222   0.016   8.518   3.418  1.8414 -0.2916 -4.4138
  661MOL0     H87223   0.140   8.410   3.435 -0.7179  0.6502  3.1451
  661MOL0     H87224  -0.097   8.412   3.629  0.3358  0.8342  1.2295
  661MOL0     H87225   0.025   8.288   3.637  0.0673  1.1853  3.1099
  661MOL0     H87226   0.035   8.468   3.798 -0.4529  0.1558  0.5890
  661MOL0     H87227   0.074   8.583   3.668 -0.8457 -0.6717 -0.0301
  661MOL0     H87228   0.283   8.469   3.619  0.7941 -1.9490 -0.9949
  661MOL0     H87229   0.245   8.347   3.741  2.6763 -0.3717 -1.0831
  661MOL0     H87230   0.279   8.650   3.813 -1.2766 -0.2978 -0.6087
  661MOL0     H87231   0.243   8.511   3.922  3.1333 -1.2915  1.8436
  661MOL0     H87232   0.453   8.401   3.802 -0.8407  0.0578 -0.9878
  661MOL0     H87233   0.471   8.512   3.936 -0.5134 -0.0064  0.3120
  661MOL0     H87234  -0.009   8.380   2.939  0.0922 -0.6606  2.4284
  661MOL0     H87235   0.157   8.493   2.802  2.2151 -2.0685  1.6970
  661MOL0     H87236   0.618   8.707   2.741  0.5372  0.2368  1.7271
  661MOL0     H87237   0.772   8.867   2.712 -1.3246 -2.0953 -2.3963
  661MOL0     H87238   2.242   9.780   2.709  0.1883 -2.5081 -1.5908
  661MOL0     H87239   2.420   9.940   2.658  2.7606 -4.2874 -2.9362
  661MOL0     H87240   2.535  10.284   2.314  0.7165  1.2802 -2.0155
  661MOL0     H87241   2.684  10.416   2.163 -0.7542  1.3751  3.4393
  661MOL0     H87242   2.869  10.211   1.920  0.6683  0.0827 -0.0895
  661MOL0     H87243   3.033  10.169   2.001  1.7826  2.0605 -0.8369
  661MOL0     H87244   3.127  10.351   1.914  1.9575 -3.5490 -3.1806
  661MOL0     H87245   3.052  10.244   1.798 -2.7179 -1.4313 -0.5775
  661MOL0     H87246   2.865  10.414   1.749 -2.5186  0.3662  3.6009
  661MOL0     H87247   3.028  10.476   1.707  0.0315 -0.2032  0.8622
  661MOL0     H87248   2.837  10.529   1.945 -0.3253  1.2097  0.3220
  661MOL0     H87249   3.009  10.566   1.968 -0.2607  0.2820 -0.4982
  661MOL0     H87250   2.840  10.880   1.737  0.9063 -0.7185 -2.0118
  661MOL0     H87251   2.964  10.091   2.182  0.9220 -0.4020  1.3083
  661MOL0     H87252   2.804   9.950   2.301 -2.2637 -1.7604 -3.8123
  662MOL0     O87253   8.410   4.235  10.553 -0.1417  0.5289 -0.1787
  662MOL0     C87254   8.430   4.320  10.643  0.6356  0.0525 -0.7100
  662MOL0     O87255   8.488   4.449  10.632 -0.6910  0.0858 -0.4843
  662MOL0     C87256   8.542   4.479  10.509 -0.3664  0.6306 -0.7519
  662MOL0     C87257   8.468   4.484  10.391 -0.1647 -0.2149 -1.0331
  662MOL0     C87258   8.534   4.510  10.271 -0.2210  0.1862  0.1175
  662MOL0     C87259   8.673   4.516  10.258 -0.2907  0.2201  1.8564
  662MOL0     O87260   8.731   4.540  10.133 -0.2416 -0.2285  0.7691
  662MOL0     C87261   8.643   4.570  10.023 -0.2458 -0.2055 -0.8563
  662MOL0     C87262   8.708   4.617   9.895 -1.1412 -0.0363  0.2769
  662MOL0     C87263   8.803   4.512   9.836  1.1352 -0.4490  0.5371
  662MOL0     C87264   8.892   4.570   9.722  0.3861  0.5213 -0.0979
  662MOL0     C87265   8.811   4.627   9.597  0.2383  0.4719 -0.9341
  662MOL0     C87266   8.905   4.694   9.498 -0.5346  0.2146  0.7337
  662MOL0     C87267   8.997   4.587   9.448 -0.2633  0.6401  0.4371
  662MOL0     C87268   9.072   4.628   9.322 -0.3667  0.4382  0.3743
  662MOL0     N87269   9.162   4.742   9.335 -0.0452 -0.6572 -0.1946
  662MOL0     C87270   9.288   4.749   9.282 -0.2292  0.4013 -1.0624
  662MOL0     C87271   9.331   4.873   9.312 -1.2392 -0.1041  0.5282
  662MOL0     C87272   9.460   4.938   9.280  0.0379 -0.0142 -0.3429
  662MOL0     C87273   9.458   4.990   9.138  0.5586  0.0374 -0.0409
  662MOL0     C87274   9.424   5.143   9.133 -0.9918 -0.1021 -0.0709
  662MOL0     C87275   9.444   5.197   8.990  0.0300  0.6478  0.1892
  662MOL0     O87276   9.388   5.329   8.975 -0.2058  1.0493 -0.5684
  662MOL0     C87277   9.253   5.353   9.008 -0.6183 -0.1241  0.1350
  662MOL0     C87278   9.159   5.262   8.982 -0.4153 -0.2994 -0.4787
  662MOL0     C87279   9.025   5.278   9.018 -0.0385  0.4181 -0.0685
  662MOL0     C87280   8.972   5.402   9.057  0.2528 -0.3312  0.1366
  662MOL0     C87281   8.828   5.438   9.064 -0.5254  0.0652  0.5127
  662MOL0     O87282   8.750   5.390   8.959  0.2130 -0.9696 -0.4657
  662MOL0     C87283   8.613   5.417   8.968 -0.1462 -0.2118 -0.2000
  662MOL0     C87284   8.536   5.317   9.022 -0.4151  0.5217  0.4798
  662MOL0     C87285   8.397   5.322   9.027 -1.3339 -1.0265 -0.0882
  662MOL0     C87286   8.337   5.442   8.990  0.8679 -0.6583 -0.1794
  662MOL0     O87287   8.200   5.464   8.990 -0.1899  0.5614  0.7825
  662MOL0     C87288   8.114   5.353   8.969 -0.5706  0.3076 -0.2034
  662MOL0     C87289   7.968   5.401   8.956  0.2824  1.2256 -1.2764
  662MOL0     C87290   7.965   5.523   8.871 -0.6755 -0.1392 -0.3237
  662MOL0     C87291   7.822   5.543   8.824 -0.6579  0.1055 -0.1355
  662MOL0     C87292   7.824   5.676   8.754 -0.3559  0.4645 -0.4839
  662MOL0     C87293   7.688   5.726   8.714  0.1048 -1.2320  0.2739
  662MOL0     C87294   7.628   5.793   8.833 -0.4699 -0.5547 -0.1152
  662MOL0     C87295   7.487   5.860   8.811  0.6019  0.0446 -1.0510
  662MOL0    Cl87296   7.522   6.003   8.720 -0.2746 -0.3897  0.3093
  662MOL0     C87297   8.412   5.548   8.950 -0.9664 -1.2874 -0.6624
  662MOL0     C87298   8.555   5.534   8.934  1.0687  0.2867 -0.1202
  662MOL0     O87299   8.792   5.508   9.154  0.5018  0.7100  0.5402
  662MOL0     C87300   9.071   5.496   9.083 -0.1490 -0.0573 -0.7464
  662MOL0     C87301   9.215   5.470   9.063  0.5622  1.0573 -0.3268
  662MOL0     N87302   9.231   4.934   9.383 -0.4763 -1.1239  0.0303
  662MOL0     N87303   9.130   4.862   9.389  0.7136  0.0723  0.1572
  662MOL0     C87304   8.744   4.509  10.376  0.3080 -0.2832  0.3208
  662MOL0     C87305   8.677   4.502  10.498  0.0304  0.4890  0.2054
  662MOL0     C87306   8.380   4.277  10.779 -1.1215 -0.6935 -0.1379
  662MOL0     C87307   8.317   4.158  10.795 -0.5150 -0.4377 -0.2222
  662MOL0     C87308   8.259   4.112  10.915  0.1141  0.2282  0.2525
  662MOL0     C87309   8.271   4.200  11.024 -0.3832 -0.4968 -0.2517
  662MOL0     O87310   8.220   4.171  11.149  0.4613 -0.1410 -0.3626
  662MOL0     C87311   8.088   4.202  11.177 -1.1501 -0.3077 -0.9464
  662MOL0     C87312   8.065   4.354  11.177 -0.3017  0.7574 -0.8018
  662MOL0     C87313   7.941   4.375  11.265 -0.2966  0.9277 -0.0452
  662MOL0     C87314   7.814   4.348  11.188  0.7166  0.6735  0.7005
  662MOL0     C87315   7.703   4.392  11.275  0.0657 -0.4143 -0.2467
  662MOL0     C87316   7.628   4.447  11.354  1.1968  0.1672 -1.2480
  662MOL0     C87317   8.346   4.313  11.014  1.1405  0.1602  0.6906
  662MOL0     C87318   8.402   4.357  10.893  0.0998 -0.2914  0.4895
  662MOL0     H87319   8.364   4.452  10.391 -0.9683  1.7884  2.7689
  662MOL0     H87320   8.471   4.511  10.183  1.4009 -2.2729 -1.1785
  662MOL0     H87321   8.568   4.647  10.044 -0.4171  0.5677 -3.9026
  662MOL0     H87322   8.587   4.476  10.017  0.9247 -0.9932  0.0643
  662MOL0     H87323   8.768   4.707   9.910 -2.6106  1.5504 -2.5451
  662MOL0     H87324   8.631   4.653   9.826  1.2619  0.0299 -2.5674
  662MOL0     H87325   8.736   4.432   9.803  1.9390 -0.9532  0.0888
  662MOL0     H87326   8.859   4.456   9.910 -1.3669 -0.8777  2.2383
  662MOL0     H87327   8.962   4.650   9.750  2.4738 -0.0864 -3.0865
  662MOL0     H87328   8.969   4.493   9.711  0.8650  1.0824 -0.6894
  662MOL0     H87329   8.735   4.699   9.629 -0.7612  1.0330 -4.1691
  662MOL0     H87330   8.756   4.550   9.540 -0.4907  1.3460 -1.4345
  662MOL0     H87331   8.954   4.780   9.545 -0.2336  0.3247  0.2200
  662MOL0     H87332   8.857   4.722   9.404  1.3200 -1.1772 -0.7111
  662MOL0     H87333   9.067   4.568   9.529 -1.7768  0.6001  1.7716
  662MOL0     H87334   8.958   4.486   9.432  2.9653 -0.6967  0.2894
  662MOL0     H87335   8.995   4.655   9.250 -1.0029  0.0343  0.8905
  662MOL0     H87336   9.140   4.551   9.285 -2.0926 -0.4822 -1.0101
  662MOL0     H87337   9.345   4.688   9.213  2.1120  0.8001  0.3739
  662MOL0     H87338   9.539   4.863   9.290 -0.3110 -0.3964 -0.4086
  662MOL0     H87339   9.487   5.006   9.362  2.0007 -1.3910  0.2270
  662MOL0     H87340   9.393   4.932   9.072  0.1451 -1.7591  1.8581
  662MOL0     H87341   9.557   4.972   9.093 -0.0530  0.9980 -1.8821
  662MOL0     H87342   9.323   5.169   9.167  0.1444  1.5693  2.3304
  662MOL0     H87343   9.495   5.193   9.199  1.4533  0.5339 -2.9890
  662MOL0     H87344   9.397   5.139   8.910  2.7868  0.8258 -1.6803
  662MOL0     H87345   9.548   5.175   8.965 -0.6401 -4.0915  0.6565
  662MOL0     H87346   9.197   5.167   8.946  1.9148  0.5974 -0.5689
  662MOL0     H87347   8.956   5.197   8.996  0.5038  0.3736 -1.7280
  662MOL0     H87348   8.584   5.224   9.050 -1.0013 -0.0367 -0.3400
  662MOL0     H87349   8.326   5.246   9.057 -1.0943 -0.8721  0.9195
  662MOL0     H87350   8.116   5.277   9.048 -0.5934 -0.5802 -1.0378
  662MOL0     H87351   8.142   5.310   8.872 -0.0986 -0.2672  0.1779
  662MOL0     H87352   7.931   5.420   9.058  2.4899  0.9038 -0.3531
  662MOL0     H87353   7.908   5.318   8.920  1.7098 -1.6438  2.3311
  662MOL0     H87354   8.031   5.514   8.785  0.1134 -0.3520  0.2934
  662MOL0     H87355   7.983   5.610   8.934 -0.1111 -1.5377  1.5439
  662MOL0     H87356   7.786   5.461   8.762 -3.0579  1.0133 -0.0714
  662MOL0     H87357   7.756   5.543   8.911  0.5357 -2.5473  0.8536
  662MOL0     H87358   7.890   5.681   8.668  3.6086  3.5029  2.3319
  662MOL0     H87359   7.879   5.746   8.818 -0.6528 -2.0942  2.8652
  662MOL0     H87360   7.627   5.642   8.680  1.8309 -3.6808  2.7317
  662MOL0     H87361   7.705   5.798   8.633  1.4203  0.3713  1.9018
  662MOL0     H87362   7.614   5.721   8.915 -1.4862 -1.0392 -0.6987
  662MOL0     H87363   7.692   5.873   8.870 -1.5712 -0.4777  1.7462
  662MOL0     H87364   7.444   5.883   8.909 -0.0265  0.5198 -1.4362
  662MOL0     H87365   7.419   5.787   8.768  0.1800 -0.8205  0.9441
  662MOL0     H87366   8.360   5.640   8.928 -0.5426 -1.8293 -4.6534
  662MOL0     H87367   8.620   5.613   8.897 -1.4386  2.0188 -1.0852
  662MOL0     H87368   9.037   5.597   9.105  1.6775  0.8266 -1.8036
  662MOL0     H87369   9.290   5.546   9.082  0.8690  0.6586  0.1007
  662MOL0     H87370   8.852   4.516  10.371  0.1758  1.9597 -0.1337
  662MOL0     H87371   8.729   4.502  10.593 -0.6943  3.9788  0.7445
  662MOL0     H87372   8.304   4.085  10.716  2.0898  1.0160 -2.1359
  662MOL0     H87373   8.227   4.009  10.922  1.1050 -0.0360  1.1269
  662MOL0     H87374   8.067   4.148  11.270  0.1825 -1.2073 -1.1445
  662MOL0     H87375   8.035   4.151  11.096  0.2441 -2.3566 -0.6295
  662MOL0     H87376   8.144   4.416  11.220 -0.8919  0.3687  0.9058
  662MOL0     H87377   8.062   4.384  11.071 -3.5760 -0.0553 -1.0388
  662MOL0     H87378   7.937   4.483  11.281  1.6779  1.2165 -1.2063
  662MOL0     H87379   7.943   4.316  11.357  2.0254 -1.8129 -1.6841
  662MOL0     H87380   7.798   4.400  11.094 -1.4805  0.6903  1.0434
  662MOL0     H87381   7.811   4.246  11.149  2.9516  0.0551  1.9224
  662MOL0     H87382   7.557   4.508  11.407 -0.7042 -2.4801 -0.5754
  662MOL0     H87383   8.366   4.362  11.109 -1.9457  1.0620  0.9831
  662MOL0     H87384   8.451   4.454  10.885 -1.9381  0.7369 -0.2655
  663MOL0     O87385   3.892   4.694   2.452  0.0651  0.1525 -0.3172
  663MOL0     C87386   3.964   4.795   2.481  0.3411 -1.0290 -0.4715
  663MOL0     O87387   4.104   4.789   2.500  0.5223  0.0485 -1.0142
  663MOL0     C87388   4.179   4.677   2.483  0.1112  1.0514 -0.7274
  663MOL0     C87389   4.205   4.639   2.352 -0.2625 -0.2085  0.6608
  663MOL0     C87390   4.279   4.513   2.330 -0.6042 -0.5703 -0.3330
  663MOL0     C87391   4.327   4.444   2.441  0.5937 -0.9192 -0.5950
  663MOL0     O87392   4.390   4.327   2.436 -0.4207 -0.2235 -0.2115
  663MOL0     C87393   4.392   4.239   2.323 -0.4800  1.7204 -0.4990
  663MOL0     C87394   4.470   4.105   2.360  0.3055  0.5586  0.6820
  663MOL0     C87395   4.618   4.135   2.392 -0.1892 -1.0526 -0.5563
  663MOL0     C87396   4.695   4.012   2.414 -0.1169 -1.0845  0.6089
  663MOL0     C87397   4.733   4.016   2.561 -0.2995 -0.1409 -0.4022
  663MOL0     C87398   4.840   4.130   2.595  0.2427  0.8646 -0.4105
  663MOL0     C87399   4.810   4.196   2.733 -0.1452  0.0200 -0.0726
  663MOL0     C87400   4.904   4.301   2.781 -0.7781  0.0551 -0.0531
  663MOL0     N87401   4.901   4.409   2.683  0.2836  0.3118  0.6876
  663MOL0     C87402   4.786   4.487   2.668  0.3343  0.7378  0.5642
  663MOL0     C87403   4.818   4.589   2.586  0.6928  0.7896 -0.3485
  663MOL0     C87404   4.745   4.712   2.564 -0.0473 -0.5528  0.5626
  663MOL0     C87405   4.648   4.718   2.448  0.3388 -0.2735 -0.4552
  663MOL0     C87406   4.587   4.849   2.432  1.1840 -0.1023 -0.0616
  663MOL0     C87407   4.637   4.933   2.315 -0.0527 -0.4094  0.5415
  663MOL0     O87408   4.547   5.045   2.301 -0.6874  0.6987 -0.2051
  663MOL0     C87409   4.426   5.039   2.243 -0.8317  0.3741  0.4923
  663MOL0     C87410   4.384   4.919   2.175 -0.5017 -0.4751  0.7096
  663MOL0     C87411   4.257   4.908   2.110  0.3829  0.8415  0.6349
  663MOL0     C87412   4.178   5.026   2.105 -0.7896 -0.3462  0.0918
  663MOL0     C87413   4.041   5.015   2.049  0.8916 -0.0258 -0.5725
  663MOL0     O87414   3.965   5.138   2.049  0.5278  0.0779  0.4618
  663MOL0     C87415   3.835   5.124   2.002 -0.1720 -0.4312 -0.4666
  663MOL0     C87416   3.756   5.028   2.050 -0.6229  0.7205  0.4349
  663MOL0     C87417   3.624   5.012   2.002 -1.0352 -0.0429 -0.1647
  663MOL0     C87418   3.559   5.107   1.927 -0.2945  0.2314 -0.2108
  663MOL0     O87419   3.424   5.095   1.893  0.4251  0.4844  0.3156
  663MOL0     C87420   3.339   4.978   1.899  0.0508 -0.0020 -0.3010
  663MOL0     C87421   3.256   4.959   2.026 -0.4285  0.6521  0.1927
  663MOL0     C87422   3.192   4.816   2.037 -0.7758 -1.0285 -0.2678
  663MOL0     C87423   3.103   4.829   2.157 -0.3124 -0.0660  0.5127
  663MOL0     C87424   3.058   4.691   2.197 -0.1420  0.3685  0.0687
  663MOL0     C87425   2.939   4.701   2.300  0.3918 -0.1938  0.4007
  663MOL0     C87426   2.878   4.559   2.328 -1.1399 -0.0303 -0.3840
  663MOL0     C87427   2.797   4.492   2.214 -0.0729  0.5605 -0.4490
  663MOL0    Cl87428   2.622   4.516   2.234  0.4319  0.0564 -0.3991
  663MOL0     C87429   3.639   5.217   1.883  0.0982 -0.4336 -0.6661
  663MOL0     C87430   3.778   5.218   1.909  0.8035 -0.0777  0.0808
  663MOL0     O87431   3.998   4.901   2.014 -0.1360  0.6344  0.1879
  663MOL0     C87432   4.222   5.137   2.183 -0.9468  0.3586 -0.1414
  663MOL0     C87433   4.342   5.140   2.243  0.2126 -0.8227  0.3945
  663MOL0     N87434   4.954   4.566   2.556  0.8830 -0.5261  0.4388
  663MOL0     N87435   5.001   4.457   2.604 -0.3793 -0.2575 -0.8746
  663MOL0     C87436   4.320   4.500   2.572  0.6175  0.2189 -0.4840
  663MOL0     C87437   4.242   4.613   2.593  0.2239  0.8002  0.0333
  663MOL0     C87438   3.902   4.928   2.479  0.6161 -0.4221  0.5433
  663MOL0     C87439   3.977   5.045   2.499  0.3104 -0.1869  0.6059
  663MOL0     C87440   3.921   5.178   2.488  0.5605  0.9158  0.0661
  663MOL0     C87441   3.794   5.189   2.441 -0.0994  0.8290 -0.4102
  663MOL0     O87442   3.731   5.311   2.411 -0.3584  0.8830 -1.1039
  663MOL0     C87443   3.777   5.442   2.454 -0.4687  0.6920 -0.0952
  663MOL0     C87444   3.857   5.515   2.342 -0.5227 -0.0882  0.5560
  663MOL0     C87445   3.791   5.536   2.200 -0.2398 -0.4783  0.2671
  663MOL0     C87446   3.652   5.610   2.207  0.8118 -0.3361 -0.1951
  663MOL0     C87447   3.593   5.650   2.075 -0.2262  0.3170 -0.2846
  663MOL0     C87448   3.538   5.677   1.973 -0.3626 -0.3875  0.7966
  663MOL0     C87449   3.728   5.076   2.406  0.1194  0.4189  0.5307
  663MOL0     C87450   3.776   4.947   2.434  0.3882  0.2005  0.3040
  663MOL0     H87451   4.181   4.699   2.265  1.1195  1.2087  1.2034
  663MOL0     H87452   4.307   4.483   2.230 -0.8731  0.8533 -0.8565
  663MOL0     H87453   4.443   4.287   2.239 -0.2180  2.3792  0.0245
  663MOL0     H87454   4.288   4.224   2.293 -0.2093 -1.8081 -0.0497
  663MOL0     H87455   4.470   4.033   2.278  1.5878 -1.0552  2.0292
  663MOL0     H87456   4.427   4.060   2.450  1.4180  1.0691  1.4924
  663MOL0     H87457   4.627   4.200   2.479 -0.4388  0.5528 -1.6898
  663MOL0     H87458   4.670   4.191   2.315  5.5731 -1.9221  2.2137
  663MOL0     H87459   4.629   3.927   2.396 -2.7084  0.6441  1.3211
  663MOL0     H87460   4.775   3.998   2.340  0.1517 -1.9352  1.0458
  663MOL0     H87461   4.786   3.921   2.573  0.7355  0.4765  0.0536
  663MOL0     H87462   4.647   4.025   2.627  0.4740  0.1538  0.5985
  663MOL0     H87463   4.849   4.206   2.517  1.7725  1.4267  0.2816
  663MOL0     H87464   4.940   4.087   2.593  1.0561  2.6735 -0.6178
  663MOL0     H87465   4.709   4.236   2.721  0.4223  1.6344  0.2280
  663MOL0     H87466   4.798   4.125   2.816 -1.4526 -0.7707 -0.9038
  663MOL0     H87467   5.007   4.263   2.787 -0.2677  1.1829 -1.2554
  663MOL0     H87468   4.880   4.332   2.883 -1.1171 -1.3786  0.3257
  663MOL0     H87469   4.690   4.479   2.719 -0.9190 -0.3598 -1.7597
  663MOL0     H87470   4.815   4.793   2.539 -1.9332  0.5271 -1.6809
  663MOL0     H87471   4.693   4.725   2.659  0.2500 -3.0407  1.1326
  663MOL0     H87472   4.570   4.641   2.457  1.6234 -1.4834  0.6835
  663MOL0     H87473   4.697   4.687   2.355  0.6326  0.0539 -0.4083
  663MOL0     H87474   4.478   4.848   2.423  1.1378  0.8278  0.2541
  663MOL0     H87475   4.607   4.916   2.516 -3.9269  2.7424 -0.7149
  663MOL0     H87476   4.640   4.889   2.215 -0.2102  3.3536 -1.2706
  663MOL0     H87477   4.734   4.980   2.335 -0.1755  0.0067  0.1578
  663MOL0     H87478   4.446   4.830   2.168  1.2618  0.8373 -1.3101
  663MOL0     H87479   4.240   4.817   2.054  0.2034  0.7258  0.8793
  663MOL0     H87480   3.785   4.954   2.124 -0.0080 -0.4915 -0.9706
  663MOL0     H87481   3.565   4.928   2.038 -2.6325  0.0855 -2.2906
  663MOL0     H87482   3.414   4.900   1.880  1.2419  1.5178 -2.3420
  663MOL0     H87483   3.261   4.983   1.822  0.2539  0.3059 -0.4878
  663MOL0     H87484   3.180   5.037   2.021 -2.0096 -0.8080  0.3861
  663MOL0     H87485   3.325   4.968   2.111  2.9501  2.1859 -2.4378
  663MOL0     H87486   3.270   4.738   2.034  1.5263  1.1514 -0.0315
  663MOL0     H87487   3.136   4.808   1.943  0.5446  4.8500 -1.9492
  663MOL0     H87488   3.146   4.873   2.248  0.2083 -1.0168  0.7422
  663MOL0     H87489   3.030   4.897   2.113  3.0642  1.1054 -4.0565
  663MOL0     H87490   3.128   4.619   2.240  1.4527  2.5024  1.2517
  663MOL0     H87491   3.027   4.644   2.104  1.9477  2.0891 -1.5969
  663MOL0     H87492   2.863   4.770   2.263  0.5222 -1.5411 -2.6688
  663MOL0     H87493   2.982   4.739   2.394  1.1248 -1.0631  0.4301
  663MOL0     H87494   2.964   4.494   2.346  0.1883  1.8374  0.2326
  663MOL0     H87495   2.810   4.559   2.414 -0.9231 -4.7261  0.0297
  663MOL0     H87496   2.816   4.384   2.210 -0.8005  0.4139 -0.1527
  663MOL0     H87497   2.826   4.525   2.114  0.3638 -0.8720 -0.8240
  663MOL0     H87498   3.602   5.297   1.819  1.6446  1.0821  0.2246
  663MOL0     H87499   3.850   5.286   1.865 -0.2116  0.9433 -0.0612
  663MOL0     H87500   4.159   5.225   2.187 -1.5110 -0.0148 -0.6259
  663MOL0     H87501   4.369   5.227   2.302  0.4791 -1.8791  1.9021
  663MOL0     H87502   4.379   4.464   2.656  0.4989 -0.6059 -0.7504
  663MOL0     H87503   4.236   4.637   2.698 -0.1587  1.5158 -0.1495
  663MOL0     H87504   4.082   5.035   2.522 -0.1267  1.5579  3.9752
  663MOL0     H87505   3.993   5.259   2.501  1.5375 -0.0574  1.0015
  663MOL0     H87506   3.837   5.427   2.545  1.3263  2.4789 -0.9031
  663MOL0     H87507   3.688   5.497   2.484 -1.8015 -1.8497  0.8879
  663MOL0     H87508   3.889   5.610   2.387 -1.8457  0.8009 -0.2965
  663MOL0     H87509   3.943   5.453   2.317  0.3191  0.3063  2.2926
  663MOL0     H87510   3.777   5.435   2.159 -0.5155  0.1055 -1.1387
  663MOL0     H87511   3.856   5.591   2.132  0.8207 -0.4894  1.2335
  663MOL0     H87512   3.581   5.540   2.253  1.3601  0.3843  1.8597
  663MOL0     H87513   3.663   5.696   2.274  0.5389 -1.3499  1.2040
  663MOL0     H87514   3.478   5.693   1.886 -0.1160 -0.8172  0.5444
  663MOL0     H87515   3.636   5.078   2.348  0.9832  0.1687 -0.8829
  663MOL0     H87516   3.723   4.855   2.406  1.9530 -0.7084  0.2174
  664MOL0     O87517   1.272   7.539   9.690  0.1126  0.4351  0.0711
  664MOL0     C87518   1.377   7.490   9.653  0.5677 -0.3188 -0.5950
  664MOL0     O87519   1.502   7.538   9.691 -0.3728 -0.3732  0.6600
  664MOL0     C87520   1.525   7.637   9.780  0.0404 -1.1233 -0.0779
  664MOL0     C87521   1.485   7.618   9.911 -0.0504 -0.3438  0.1678
  664MOL0     C87522   1.516   7.725   9.998  0.3677 -0.1459 -0.3022
  664MOL0     C87523   1.594   7.840   9.971  0.6557 -0.2223 -0.1114
  664MOL0     O87524   1.621   7.942  10.061  0.4091  0.3666 -0.2994
  664MOL0     C87525   1.751   7.968  10.103 -0.9167  0.0401 -0.3874
  664MOL0     C87526   1.810   7.835  10.170 -0.0916  0.5038 -0.6627
  664MOL0     C87527   1.708   7.795  10.286 -0.2022  1.5345 -0.6695
  664MOL0     C87528   1.730   7.646  10.335  0.5073  0.1827 -0.5561
  664MOL0     C87529   1.628   7.612  10.452 -0.2077 -0.1705  0.3328
  664MOL0     C87530   1.677   7.501  10.547 -0.5061  0.1152  0.1203
  664MOL0     C87531   1.571   7.456  10.650  0.3897  0.4805  0.4212
  664MOL0     C87532   1.530   7.558  10.744  0.9253 -0.3998  0.8200
  664MOL0     N87533   1.634   7.614  10.827 -0.1107  0.6262 -0.1942
  664MOL0     C87534   1.725   7.707  10.792 -0.3145  0.6790 -0.5778
  664MOL0     C87535   1.806   7.717  10.897 -0.3990 -0.4239 -0.0129
  664MOL0     C87536   1.925   7.819  10.909  0.6750  0.2680 -0.6976
  664MOL0     C87537   1.875   7.960  10.941  1.3105 -0.5625  0.1488
  664MOL0     C87538   1.785   7.979  11.067 -0.0553 -0.4194 -0.1033
  664MOL0     C87539   1.752   8.123  11.112  0.6387  0.7041 -0.0806
  664MOL0     O87540   1.645   8.181  11.019  0.1145  0.2683 -0.2746
  664MOL0     C87541   1.516   8.126  11.011 -0.1014  0.3503 -0.5942
  664MOL0     C87542   1.437   8.168  10.906  0.1233  0.0323  0.2181
  664MOL0     C87543   1.299   8.145  10.911  0.1865  0.4111 -0.4413
  664MOL0     C87544   1.236   8.075  11.016  0.6513 -0.4531  0.6774
  664MOL0     C87545   1.092   8.044  11.012  0.5827  0.5392  0.0688
  664MOL0     O87546   1.037   7.998  11.138  0.6015  0.9704 -0.5590
  664MOL0     C87547   0.901   7.965  11.136  0.4280 -0.9397  0.6294
  664MOL0     C87548   0.796   8.040  11.189  0.1443  0.3212  0.0747
  664MOL0     C87549   0.662   7.981  11.196 -0.5177 -0.2629 -0.2430
  664MOL0     C87550   0.635   7.852  11.142 -0.6564 -0.3844 -0.6215
  664MOL0     O87551   0.510   7.798  11.143 -0.2844 -0.5089  0.0641
  664MOL0     C87552   0.402   7.881  11.095  0.1711 -0.2102 -0.0922
  664MOL0     C87553   0.307   7.913  11.209 -0.4286 -0.6167 -0.9355
  664MOL0     C87554   0.182   8.000  11.174 -0.1516  0.5460  0.5075
  664MOL0     C87555   0.213   8.149  11.157 -0.9883  1.1375  0.0789
  664MOL0     C87556   0.102   8.226  11.104 -1.4081  0.3227  0.4413
  664MOL0     C87557   0.004   8.252  11.215  0.0315  0.4057 -1.1499
  664MOL0     C87558   0.065   8.349  11.320 -0.2203  0.0472  0.5563
  664MOL0     C87559  -0.044   8.445  11.367  0.0049 -1.3617 -0.2401
  664MOL0    Cl87560  -0.026   8.489  11.543 -0.0030 -0.6132 -0.2493
  664MOL0     C87561   0.740   7.783  11.087 -0.4531 -0.0477 -0.4834
  664MOL0     C87562   0.867   7.845  11.080 -0.2854  0.2153  0.0225
  664MOL0     O87563   1.019   8.080  10.919 -0.0623 -0.5049 -0.1809
  664MOL0     C87564   1.313   8.022  11.119 -0.0293 -0.2373 -0.2947
  664MOL0     C87565   1.454   8.051  11.116 -1.1798 -0.0691  0.3880
  664MOL0     N87566   1.762   7.640  11.002 -0.7766 -0.6318  0.1238
  664MOL0     N87567   1.651   7.584  10.958 -0.1728 -0.1895  0.7503
  664MOL0     C87568   1.615   7.863   9.835  0.0476  0.9082  0.0222
  664MOL0     C87569   1.578   7.766   9.732 -0.7177 -0.1299  0.0110
  664MOL0     C87570   1.363   7.382   9.548  0.9285 -0.5542 -1.8498
  664MOL0     C87571   1.482   7.322   9.503  0.5700  0.5212  0.5397
  664MOL0     C87572   1.475   7.229   9.398 -0.5280  0.1751 -0.3116
  664MOL0     C87573   1.355   7.170   9.356  0.3604  0.0709 -0.2086
  664MOL0     O87574   1.321   7.063   9.270 -0.6008 -0.0113 -0.3000
  664MOL0     C87575   1.425   7.006   9.202 -1.5112 -0.1114  0.0519
  664MOL0     C87576   1.373   6.893   9.112 -0.1869  0.9109  0.3875
  664MOL0     C87577   1.476   6.828   9.021 -0.9238 -0.5739 -0.5540
  664MOL0     C87578   1.500   6.893   8.882  0.1493 -0.4007  0.3643
  664MOL0     C87579   1.387   6.886   8.790 -0.8105  0.8229 -0.0374
  664MOL0     C87580   1.297   6.863   8.711  0.9902  0.3830  0.5287
  664MOL0     C87581   1.237   7.224   9.413 -0.3589  1.5618  0.2572
  664MOL0     C87582   1.237   7.331   9.502  0.1305 -0.2185 -0.2257
  664MOL0     H87583   1.437   7.528   9.946  2.7069 -1.0016  2.6718
  664MOL0     H87584   1.480   7.713  10.100 -1.5525 -2.1469 -1.1376
  664MOL0     H87585   1.754   8.047  10.179  4.7065 -0.0287 -0.1176
  664MOL0     H87586   1.819   8.005  10.025  0.7497 -0.6878  0.6729
  664MOL0     H87587   1.918   7.830  10.188 -0.1654 -4.1528 -0.4078
  664MOL0     H87588   1.815   7.758  10.093  0.1404  1.0890 -1.2364
  664MOL0     H87589   1.605   7.813  10.255 -1.8459 -2.3818  1.8334
  664MOL0     H87590   1.736   7.855  10.373  2.5270  0.5039 -0.7222
  664MOL0     H87591   1.712   7.586  10.245 -0.7995 -5.8076  3.1242
  664MOL0     H87592   1.833   7.630  10.369  0.5237  0.9862 -0.2083
  664MOL0     H87593   1.539   7.587  10.393 -1.1247 -0.8301  1.9239
  664MOL0     H87594   1.596   7.696  10.513 -2.0873 -1.1192  0.7297
  664MOL0     H87595   1.763   7.523  10.611 -0.3713 -0.7289  0.2409
  664MOL0     H87596   1.706   7.408  10.498 -2.6218 -0.3663 -0.3212
  664MOL0     H87597   1.489   7.417  10.589  0.2920 -0.3122  1.0436
  664MOL0     H87598   1.599   7.370  10.711 -1.8506 -0.2103  0.5689
  664MOL0     H87599   1.464   7.508  10.815  0.9874  2.4304  3.0587
  664MOL0     H87600   1.482   7.645  10.698  2.3497  0.1605  0.3223
  664MOL0     H87601   1.734   7.756  10.696 -0.4936  3.1264  0.5830
  664MOL0     H87602   1.975   7.811  10.812  1.9071  1.7553 -0.2118
  664MOL0     H87603   1.990   7.790  10.992  2.1296  0.9043 -1.5763
  664MOL0     H87604   1.823   7.993  10.850  1.2793  1.3120  0.7881
  664MOL0     H87605   1.961   8.026  10.953  0.4929  0.4669  0.5271
  664MOL0     H87606   1.698   7.915  11.050  0.8911 -1.6596 -0.4418
  664MOL0     H87607   1.827   7.928  11.154  0.9411  3.3400  1.8398
  664MOL0     H87608   1.830   8.196  11.089 -1.1465  2.0335 -2.4280
  664MOL0     H87609   1.717   8.132  11.215 -3.1941  0.6069 -1.2056
  664MOL0     H87610   1.490   8.212  10.822  0.2914  1.0520  0.8451
  664MOL0     H87611   1.227   8.180  10.837 -1.5612 -1.3300  0.3306
  664MOL0     H87612   0.825   8.137  11.228  3.8867 -0.8845  0.6293
  664MOL0     H87613   0.584   8.040  11.242 -1.4485 -0.8541 -1.0350
  664MOL0     H87614   0.343   7.831  11.018 -2.8862  1.2087  1.1796
  664MOL0     H87615   0.443   7.977  11.062  1.0910 -0.3777  0.5171
  664MOL0     H87616   0.355   7.955  11.297 -1.7467 -3.1194  1.1353
  664MOL0     H87617   0.262   7.815  11.230 -0.4038 -0.3036  0.6587
  664MOL0     H87618   0.113   7.985  11.256 -0.0619  1.9429  0.8613
  664MOL0     H87619   0.144   7.973  11.075 -2.2594  2.1642  0.8185
  664MOL0     H87620   0.263   8.198  11.241 -0.6287  2.4651 -0.8848
  664MOL0     H87621   0.291   8.145  11.080  1.9507  2.2874  2.7920
  664MOL0     H87622   0.043   8.165  11.034 -2.0275 -0.2222  1.4128
  664MOL0     H87623   0.137   8.313  11.048  0.1495  0.6308  1.8301
  664MOL0     H87624  -0.037   8.166  11.268  2.9288 -0.9305 -0.8907
  664MOL0     H87625  -0.077   8.291  11.152 -2.0572 -1.2179  0.4261
  664MOL0     H87626   0.096   8.293  11.409  1.7524  2.1709  1.2875
  664MOL0     H87627   0.155   8.403  11.291 -2.2996  3.4457 -0.1482
  664MOL0     H87628  -0.144   8.402  11.361 -1.7973  2.0008  2.4556
  664MOL0     H87629  -0.040   8.536  11.306 -0.3004 -0.2963  1.2760
  664MOL0     H87630   0.730   7.683  11.045  0.9028 -0.7729  0.8417
  664MOL0     H87631   0.941   7.783  11.031 -1.1532  0.2426 -1.3828
  664MOL0     H87632   1.276   7.949  11.190  2.2123  0.5200  1.8017
  664MOL0     H87633   1.517   8.012  11.196 -0.3521 -1.7644 -1.0391
  664MOL0     H87634   1.653   7.961   9.807 -1.7361  2.8508  3.6824
  664MOL0     H87635   1.604   7.782   9.628  0.9868  2.6194  0.7641
  664MOL0     H87636   1.581   7.358   9.528  1.4420 -1.0223 -0.4604
  664MOL0     H87637   1.577   7.204   9.371 -0.3458  0.4616  0.0996
  664MOL0     H87638   1.494   6.951   9.266 -1.1986 -1.7803 -1.6442
  664MOL0     H87639   1.472   7.083   9.140  0.2600  0.3328  1.8420
  664MOL0     H87640   1.320   6.816   9.169 -0.6928  2.0039  1.4575
  664MOL0     H87641   1.296   6.934   9.046 -1.1205 -0.7374  0.4023
  664MOL0     H87642   1.444   6.724   9.010  1.0634 -1.8033  3.4348
  664MOL0     H87643   1.577   6.822   9.062 -0.8441 -1.6415 -0.8737
  664MOL0     H87644   1.524   6.999   8.898 -2.0627 -0.0538  1.8091
  664MOL0     H87645   1.587   6.841   8.840  1.8980  1.5937  1.2910
  664MOL0     H87646   1.218   6.841   8.643  2.0338  1.3666 -1.0607
  664MOL0     H87647   1.142   7.191   9.373  0.0002 -1.4344  1.6373
  664MOL0     H87648   1.149   7.381   9.541 -1.9960 -1.4250 -3.0943
  665MOL0     O87649   4.216   3.572   9.201  0.4151 -0.3125  0.4159
  665MOL0     C87650   4.225   3.481   9.280  0.3162  0.1568  0.0919
  665MOL0     O87651   4.126   3.409   9.335 -0.4691  0.5706 -0.6768
  665MOL0     C87652   3.985   3.426   9.337  0.1795  0.1846 -0.8379
  665MOL0     C87653   3.918   3.548   9.305 -0.0599  0.4546 -0.4794
  665MOL0     C87654   3.784   3.564   9.331 -0.3492  0.1173 -0.0674
  665MOL0     C87655   3.714   3.459   9.404 -1.6841 -0.3855 -0.2148
  665MOL0     O87656   3.588   3.445   9.444  0.1936  0.1820  0.6522
  665MOL0     C87657   3.487   3.542   9.415 -0.5193 -0.4685  0.1497
  665MOL0     C87658   3.493   3.654   9.516 -0.0273  0.0414  0.8431
  665MOL0     C87659   3.482   3.604   9.660  0.6924  0.3929  0.6483
  665MOL0     C87660   3.552   3.684   9.770 -0.8918  0.1917  0.0632
  665MOL0     C87661   3.465   3.814   9.797 -0.4444  0.3077 -0.7996
  665MOL0     C87662   3.353   3.786   9.905  0.1803 -0.8892 -0.0180
  665MOL0     C87663   3.260   3.910   9.914 -0.6180  0.8428  0.2092
  665MOL0     C87664   3.128   3.860   9.852  0.3256  0.6883 -0.5919
  665MOL0     N87665   3.128   3.855   9.700  0.5161 -0.1538 -0.2739
  665MOL0     C87666   3.135   3.735   9.628  0.0809  0.2918  1.1591
  665MOL0     C87667   3.108   3.773   9.502 -0.0769 -1.3930  0.1391
  665MOL0     C87668   3.103   3.692   9.380 -0.0521  0.3211 -0.7893
  665MOL0     C87669   2.992   3.717   9.289 -0.3253  0.1170  0.1085
  665MOL0     C87670   2.982   3.621   9.178  0.2358 -0.7514 -0.7195
  665MOL0     C87671   2.873   3.662   9.081  0.3993 -0.9619  0.3672
  665MOL0     O87672   2.741   3.661   9.141  0.2257 -0.0341  0.0054
  665MOL0     C87673   2.626   3.697   9.070 -1.5825  0.0045 -0.2084
  665MOL0     C87674   2.518   3.744   9.138 -0.3714  0.7281 -0.2610
  665MOL0     C87675   2.406   3.786   9.077 -0.2583  0.5636  0.7310
  665MOL0     C87676   2.400   3.800   8.941 -0.3429  0.1771  1.0326
  665MOL0     C87677   2.284   3.860   8.875 -0.3811 -0.0459 -0.5636
  665MOL0     O87678   2.182   3.902   8.957  0.1557  0.4677  1.2468
  665MOL0     C87679   2.069   3.961   8.903  0.0831 -0.1907 -0.2461
  665MOL0     C87680   1.943   3.895   8.920  0.2715  0.2673  0.3213
  665MOL0     C87681   1.828   3.943   8.851  0.2886  1.1567  0.1054
  665MOL0     C87682   1.838   4.066   8.783  0.8121 -0.2152 -0.3553
  665MOL0     O87683   1.726   4.129   8.724  0.0341  0.5543  0.1486
  665MOL0     C87684   1.678   4.256   8.776  0.2189  0.8168 -0.2688
  665MOL0     C87685   1.559   4.305   8.707  0.2868  0.3624 -0.6256
  665MOL0     C87686   1.432   4.258   8.777 -0.1540 -0.2189 -0.9839
  665MOL0     C87687   1.388   4.321   8.918 -0.1629  0.0925  0.1587
  665MOL0     C87688   1.242   4.281   8.946 -0.2300 -1.3438 -0.1382
  665MOL0     C87689   1.186   4.343   9.079 -0.0785  1.2084 -0.1622
  665MOL0     C87690   1.211   4.494   9.092 -0.7959  0.5448  0.0272
  665MOL0     C87691   1.286   4.539   9.225  0.3480 -1.0301  0.0212
  665MOL0    Cl87692   1.455   4.477   9.237 -0.7180 -0.0389  0.8566
  665MOL0     C87693   1.953   4.133   8.781 -0.1661  0.1721  0.0419
  665MOL0     C87694   2.066   4.083   8.831 -0.4131 -0.4829  0.5512
  665MOL0     O87695   2.284   3.862   8.752  0.0160 -0.1507 -0.4767
  665MOL0     C87696   2.514   3.777   8.866  0.7085  0.1536 -0.8239
  665MOL0     C87697   2.628   3.722   8.930  0.8130 -0.5936 -0.0495
  665MOL0     N87698   3.105   3.918   9.498 -0.6260  0.5979  0.5531
  665MOL0     N87699   3.116   3.962   9.612  0.0654  0.7345 -0.6200
  665MOL0     C87700   3.783   3.353   9.439  1.0258 -0.9215 -0.0948
  665MOL0     C87701   3.918   3.327   9.404  0.8587  0.6087 -0.4783
  665MOL0     C87702   4.362   3.464   9.318 -0.0721  0.0010  0.5763
  665MOL0     C87703   4.395   3.339   9.377  0.1815  0.2990  0.5169
  665MOL0     C87704   4.529   3.310   9.413  0.2040 -0.1041  0.1688
  665MOL0     C87705   4.628   3.407   9.394  0.7410  0.3373 -0.6757
  665MOL0     O87706   4.762   3.401   9.422 -0.2275 -0.4711  0.4131
  665MOL0     C87707   4.807   3.307   9.518  0.9392 -0.4948 -0.1312
  665MOL0     C87708   4.922   3.369   9.600 -0.1854 -0.4457 -0.7304
  665MOL0     C87709   4.970   3.277   9.714  1.0594 -0.7724 -0.1643
  665MOL0     C87710   5.009   3.130   9.662  0.0278  0.2652 -0.1922
  665MOL0     C87711   5.051   3.051   9.775  0.4635  0.2673  0.1725
  665MOL0     C87712   5.087   3.002   9.877  0.9530  0.6999  0.6765
  665MOL0     C87713   4.589   3.527   9.340  0.4596 -0.5251 -0.8041
  665MOL0     C87714   4.459   3.565   9.304 -0.6152 -0.3941 -0.6751
  665MOL0     H87715   3.973   3.613   9.238 -1.1357 -0.3053 -2.1753
  665MOL0     H87716   3.736   3.661   9.327 -0.0333  0.2758 -0.0887
  665MOL0     H87717   3.388   3.502   9.438 -1.1586  0.6743 -0.5453
  665MOL0     H87718   3.499   3.579   9.313  1.8830 -1.4225  0.0241
  665MOL0     H87719   3.415   3.727   9.494  1.7355  1.5553 -0.7671
  665MOL0     H87720   3.581   3.717   9.498  0.1199 -0.4790 -0.3877
  665MOL0     H87721   3.521   3.503   9.667  1.4238  0.4978 -1.3001
  665MOL0     H87722   3.375   3.593   9.682  1.0890  0.8156  3.0331
  665MOL0     H87723   3.562   3.621   9.859  0.4293  3.5956  2.5365
  665MOL0     H87724   3.651   3.718   9.740  0.8330 -1.2556  3.5133
  665MOL0     H87725   3.428   3.840   9.698  2.5689  1.2353 -1.7756
  665MOL0     H87726   3.536   3.888   9.836 -0.2881 -0.9965  1.6301
  665MOL0     H87727   3.394   3.765  10.004  3.3812 -0.6625 -1.1958
  665MOL0     H87728   3.305   3.692   9.876  1.0741 -1.0862 -0.8938
  665MOL0     H87729   3.245   3.951  10.015  1.0215  0.9622  0.4343
  665MOL0     H87730   3.293   3.993   9.851 -0.0446  1.1122  0.8475
  665MOL0     H87731   3.053   3.931   9.890  1.3403  1.4637  0.0207
  665MOL0     H87732   3.103   3.766   9.902  3.5969  0.3122  0.5853
  665MOL0     H87733   3.169   3.642   9.672 -0.6242  0.0066  1.1233
  665MOL0     H87734   3.111   3.586   9.407  0.4449  0.5673  0.0489
  665MOL0     H87735   3.197   3.715   9.329 -0.9164  0.4170 -2.4197
  665MOL0     H87736   3.014   3.813   9.242  1.7937 -0.2901  0.1581
  665MOL0     H87737   2.896   3.714   9.341  0.2682 -0.2965  1.2315
  665MOL0     H87738   3.080   3.627   9.130  0.7870 -0.6447  0.3804
  665MOL0     H87739   2.953   3.522   9.214  0.3762 -0.3654  0.4874
  665MOL0     H87740   2.875   3.593   8.996 -2.1295  0.7214 -1.1877
  665MOL0     H87741   2.887   3.766   9.050 -2.9676  0.6914  3.6008
  665MOL0     H87742   2.525   3.741   9.246 -0.0171 -1.0267 -0.3008
  665MOL0     H87743   2.339   3.831   9.149 -0.9739  0.0582  0.3875
  665MOL0     H87744   1.936   3.812   8.989 -0.9251 -0.3866 -0.5384
  665MOL0     H87745   1.735   3.888   8.855  0.3523  0.7596 -2.2888
  665MOL0     H87746   1.757   4.330   8.763  0.4536  1.0088  1.8548
  665MOL0     H87747   1.660   4.251   8.884 -0.1688 -0.6587 -0.3709
  665MOL0     H87748   1.561   4.264   8.605  0.1443 -1.6516  0.1387
  665MOL0     H87749   1.549   4.413   8.710 -1.5498  0.1927  1.2187
  665MOL0     H87750   1.445   4.151   8.794  1.5142  0.0358 -0.3863
  665MOL0     H87751   1.348   4.274   8.709 -0.8409  0.9304  0.1144
  665MOL0     H87752   1.454   4.277   8.994 -0.7549 -1.4405 -0.1855
  665MOL0     H87753   1.401   4.429   8.916  5.2592 -0.2920  0.0603
  665MOL0     H87754   1.216   4.175   8.937 -1.6968 -1.2411  2.0472
  665MOL0     H87755   1.182   4.312   8.860  0.3203 -0.1855 -0.1187
  665MOL0     H87756   1.230   4.288   9.163 -0.1834 -1.1261 -1.5503
  665MOL0     H87757   1.083   4.310   9.087  1.4289 -4.2226  1.0992
  665MOL0     H87758   1.257   4.552   9.011  2.2508  0.6891  1.7117
  665MOL0     H87759   1.111   4.530   9.119 -1.1024 -0.6430  0.5452
  665MOL0     H87760   1.217   4.503   9.302 -1.1099  1.0502 -0.2224
  665MOL0     H87761   1.290   4.648   9.220 -2.0333 -0.8892 -0.3200
  665MOL0     H87762   1.975   4.227   8.731  0.1880  0.2328  0.3011
  665MOL0     H87763   2.155   4.145   8.819 -1.4792  0.7214 -1.5472
  665MOL0     H87764   2.506   3.794   8.759  0.2517  1.0684 -0.6512
  665MOL0     H87765   2.709   3.700   8.860 -0.8391  2.0373 -3.0816
  665MOL0     H87766   3.731   3.272   9.488  0.4758  0.9905  2.7561
  665MOL0     H87767   3.975   3.243   9.443  1.7736  1.9877  1.3189
  665MOL0     H87768   4.321   3.262   9.393  1.8178 -1.2557  0.9027
  665MOL0     H87769   4.553   3.218   9.466 -1.9955 -1.0530 -0.3253
  665MOL0     H87770   4.828   3.206   9.481  0.6175 -0.3969 -0.5880
  665MOL0     H87771   4.725   3.289   9.589  0.7728 -1.1635 -0.4958
  665MOL0     H87772   5.008   3.390   9.536 -1.0253  1.0062 -1.4422
  665MOL0     H87773   4.891   3.461   9.650 -0.3039 -1.4538  1.1833
  665MOL0     H87774   4.884   3.269   9.782  0.6057 -2.0380 -0.8637
  665MOL0     H87775   5.059   3.317   9.764 -3.2425  3.4866  5.5533
  665MOL0     H87776   4.921   3.079   9.621 -0.4490 -0.9939  2.2232
  665MOL0     H87777   5.080   3.139   9.580 -1.6577 -1.2992 -1.9140
  665MOL0     H87778   5.125   2.980   9.975 -0.7769 -1.6356  0.8814
  665MOL0     H87779   4.668   3.600   9.325  0.4328 -0.1623  0.6450
  665MOL0     H87780   4.432   3.663   9.266 -1.6748  0.6276  2.3750
  666MOL0     O87781   4.424   8.483   3.297  0.5502  0.2917 -0.1075
  666MOL0     C87782   4.432   8.558   3.395  0.1763  0.9239  1.3575
  666MOL0     O87783   4.538   8.642   3.410 -0.5096 -0.6484 -0.6724
  666MOL0     C87784   4.640   8.640   3.316  0.1055  1.3052  0.0252
  666MOL0     C87785   4.688   8.758   3.262 -0.5473 -0.5758 -0.4863
  666MOL0     C87786   4.785   8.766   3.167  0.2572  0.7983 -0.1021
  666MOL0     C87787   4.855   8.653   3.123  0.0548  0.1425  0.1738
  666MOL0     O87788   4.956   8.676   3.036 -0.8115 -0.2613  1.2764
  666MOL0     C87789   5.020   8.557   2.977  0.9684  0.2646  0.2971
  666MOL0     C87790   5.100   8.585   2.858 -0.4077  0.1717  0.5847
  666MOL0     C87791   5.196   8.699   2.878 -0.9754 -1.2287  0.9437
  666MOL0     C87792   5.265   8.749   2.759  0.1094  0.5999  0.0087
  666MOL0     C87793   5.341   8.874   2.797 -0.8929  1.0474 -0.6988
  666MOL0     C87794   5.466   8.909   2.713 -0.2538  0.4413  1.5006
  666MOL0     C87795   5.429   8.874   2.569 -0.4291 -0.1175 -0.8066
  666MOL0     C87796   5.531   8.936   2.469  0.4351  0.2616  0.0227
  666MOL0     N87797   5.500   8.886   2.335  0.3040  0.7832 -0.1900
  666MOL0     C87798   5.393   8.905   2.250  0.1708 -0.1189  0.3605
  666MOL0     C87799   5.415   8.825   2.144 -0.6703 -0.7329  0.3718
  666MOL0     C87800   5.317   8.807   2.034 -0.0116  0.5209 -0.2835
  666MOL0     C87801   5.172   8.762   2.080 -0.4458 -0.1216 -0.1455
  666MOL0     C87802   5.074   8.770   1.971 -0.6177  0.3831  0.1955
  666MOL0     C87803   4.930   8.702   1.997  0.3298 -0.2707  0.2786
  666MOL0     O87804   4.858   8.765   2.106 -0.0498  0.3778  0.0976
  666MOL0     C87805   4.722   8.765   2.090 -0.6909 -0.4661  0.4786
  666MOL0     C87806   4.657   8.644   2.105  0.1829 -0.0506  0.7847
  666MOL0     C87807   4.523   8.633   2.067 -0.0382  0.3787 -0.3711
  666MOL0     C87808   4.442   8.739   2.021 -0.5008 -0.6017 -0.0939
  666MOL0     C87809   4.296   8.726   1.996 -0.3394  0.2096  0.3700
  666MOL0     O87810   4.233   8.626   2.063  0.5210  0.4869 -0.1727
  666MOL0     C87811   4.094   8.634   2.071  0.4599  0.5911  0.9132
  666MOL0     C87812   4.026   8.753   2.102 -0.5636  0.1327 -0.6348
  666MOL0     C87813   3.896   8.758   2.127  0.8154 -0.0409 -0.3406
  666MOL0     C87814   3.819   8.657   2.073 -0.5707  0.1876 -0.3093
  666MOL0     O87815   3.685   8.668   2.069 -0.1968 -0.0068  0.2678
  666MOL0     C87816   3.615   8.632   2.188 -0.7733  0.0671  0.8388
  666MOL0     C87817   3.559   8.493   2.171 -0.5885 -0.4990 -0.3609
  666MOL0     C87818   3.452   8.475   2.273  0.3227 -0.2830 -0.3702
  666MOL0     C87819   3.321   8.547   2.238  0.6893  0.1459 -0.0162
  666MOL0     C87820   3.215   8.516   2.341  0.4537 -0.8242 -1.3099
  666MOL0     C87821   3.093   8.604   2.357 -0.0268  0.3858 -0.1017
  666MOL0     C87822   2.974   8.531   2.429  0.0380 -1.8331 -0.1503
  666MOL0     C87823   2.866   8.626   2.405 -0.0548 -1.1538  0.0106
  666MOL0    Cl87824   2.806   8.597   2.233 -0.6870  0.6533  0.1681
  666MOL0     C87825   3.885   8.543   2.033 -0.1149  0.2883  0.5331
  666MOL0     C87826   4.018   8.531   2.038 -0.1054  0.6555 -0.5657
  666MOL0     O87827   4.243   8.813   1.922 -0.2618  0.3310 -0.1827
  666MOL0     C87828   4.512   8.861   2.008 -0.1001  0.5822  0.4219
  666MOL0     C87829   4.655   8.874   2.039  1.4292  0.0049 -0.4822
  666MOL0     N87830   5.537   8.761   2.163  0.1499  0.5721  0.5645
  666MOL0     N87831   5.585   8.793   2.277  0.0205  0.1099 -0.7138
  666MOL0     C87832   4.818   8.531   3.178 -0.6369 -0.1393 -0.0235
  666MOL0     C87833   4.716   8.519   3.274  0.0311  0.2565 -0.1649
  666MOL0     C87834   4.325   8.544   3.493  0.5539 -0.6045 -0.0147
  666MOL0     C87835   4.343   8.624   3.606  0.0655 -0.3959 -0.8177
  666MOL0     C87836   4.232   8.618   3.690 -0.1407 -0.7079  0.2744
  666MOL0     C87837   4.110   8.539   3.677 -0.2031 -0.6335 -0.7639
  666MOL0     O87838   4.021   8.525   3.777 -0.0119  0.3712 -0.6411
  666MOL0     C87839   4.010   8.631   3.877  0.0381 -0.0700 -0.2299
  666MOL0     C87840   3.890   8.592   3.969  0.6939  0.0496 -0.6762
  666MOL0     C87841   3.850   8.703   4.066  0.1362 -0.7885 -0.0480
  666MOL0     C87842   3.711   8.683   4.127 -0.2174  0.0104  0.3466
  666MOL0     C87843   3.594   8.719   4.041  0.0565 -0.5865  1.4519
  666MOL0     C87844   3.517   8.761   3.960  0.0888 -0.6060  0.2286
  666MOL0     C87845   4.101   8.463   3.561 -0.4769  0.0391 -1.1602
  666MOL0     C87846   4.207   8.467   3.466  0.4955 -0.3772 -0.2682
  666MOL0     H87847   4.645   8.856   3.281  1.4951  0.1385  0.7025
  666MOL0     H87848   4.803   8.864   3.122  0.6865  0.9572  0.4053
  666MOL0     H87849   4.938   8.490   2.949 -0.4701 -0.9459  6.0337
  666MOL0     H87850   5.075   8.490   3.045  4.3418 -1.5576 -3.7490
  666MOL0     H87851   5.039   8.592   2.767 -0.9845 -0.8994  0.8766
  666MOL0     H87852   5.173   8.504   2.845 -1.0997 -0.2843 -0.6634
  666MOL0     H87853   5.260   8.660   2.959 -1.9900 -1.6176  1.5756
  666MOL0     H87854   5.142   8.787   2.915  0.3464  0.9780 -1.9717
  666MOL0     H87855   5.336   8.668   2.737  0.2083  0.8299 -0.5354
  666MOL0     H87856   5.197   8.759   2.674  0.8483  0.5314 -0.6092
  666MOL0     H87857   5.362   8.879   2.904  0.5112 -0.1209 -0.8949
  666MOL0     H87858   5.277   8.961   2.777  0.2552  1.4742 -2.6837
  666MOL0     H87859   5.549   8.846   2.745 -0.8603 -1.6250 -0.7307
  666MOL0     H87860   5.505   9.011   2.709  3.5482 -0.8630  1.9299
  666MOL0     H87861   5.435   8.767   2.548  0.4884  0.1527 -2.0559
  666MOL0     H87862   5.328   8.907   2.542  0.8275  3.9720 -1.1019
  666MOL0     H87863   5.632   8.908   2.501  0.4571 -1.0437 -1.1448
  666MOL0     H87864   5.515   9.044   2.479 -0.6666  0.0393  0.8714
  666MOL0     H87865   5.303   8.958   2.280  0.6146  0.7746  0.1375
  666MOL0     H87866   5.350   8.733   1.961  1.4944  2.6916 -1.9572
  666MOL0     H87867   5.307   8.906   1.989  2.1688  1.7787  1.7568
  666MOL0     H87868   5.145   8.828   2.163  0.6432 -0.2771  0.3570
  666MOL0     H87869   5.183   8.658   2.110 -2.3458 -0.4252 -0.4157
  666MOL0     H87870   5.062   8.874   1.941  0.2106  0.4383  0.0059
  666MOL0     H87871   5.117   8.714   1.888 -2.4768  2.2178 -2.1500
  666MOL0     H87872   4.952   8.601   2.035 -3.1859 -0.8684  1.0921
  666MOL0     H87873   4.873   8.672   1.908  1.4689 -1.9358  0.0543
  666MOL0     H87874   4.705   8.562   2.157 -0.4740 -1.5923 -0.8860
  666MOL0     H87875   4.477   8.536   2.081 -0.8869  0.7000 -0.8694
  666MOL0     H87876   4.085   8.836   2.140 -1.1703 -0.6237  2.2250
  666MOL0     H87877   3.847   8.843   2.171 -4.0966 -3.1557  0.9668
  666MOL0     H87878   3.535   8.705   2.204 -1.8866 -0.8592 -0.2387
  666MOL0     H87879   3.681   8.626   2.274  4.3054  2.8351 -2.3844
  666MOL0     H87880   3.639   8.421   2.192 -1.0039 -0.3315  2.1073
  666MOL0     H87881   3.528   8.484   2.067 -1.4352 -0.9314 -0.0809
  666MOL0     H87882   3.484   8.510   2.371 -1.5773 -0.0753  0.2237
  666MOL0     H87883   3.435   8.367   2.281  0.6524 -0.5044 -2.3250
  666MOL0     H87884   3.342   8.654   2.242 -1.0083  0.5204 -0.4523
  666MOL0     H87885   3.302   8.539   2.131  0.3290 -1.0705  0.1237
  666MOL0     H87886   3.261   8.510   2.440  1.9165  1.2518 -1.7806
  666MOL0     H87887   3.190   8.419   2.298  0.6535 -0.1722 -2.9633
  666MOL0     H87888   3.070   8.640   2.256  2.3311 -2.1328 -1.6758
  666MOL0     H87889   3.120   8.687   2.424  0.6707  0.6393 -0.6835
  666MOL0     H87890   2.958   8.426   2.400  3.1182 -2.4019 -0.1588
  666MOL0     H87891   2.996   8.524   2.536  1.5929 -1.5172 -0.4162
  666MOL0     H87892   2.897   8.731   2.404  0.9110 -1.4408 -0.6033
  666MOL0     H87893   2.790   8.604   2.481  1.9233  0.4522  2.6533
  666MOL0     H87894   3.824   8.458   2.002  0.0574  0.3725 -0.0607
  666MOL0     H87895   4.067   8.439   2.007  3.1025  1.0649  2.6379
  666MOL0     H87896   4.462   8.953   1.980  1.5984  1.4733  0.1973
  666MOL0     H87897   4.704   8.969   2.018  3.2944 -0.9699 -0.7268
  666MOL0     H87898   4.865   8.436   3.155 -2.5174 -1.3985  1.0810
  666MOL0     H87899   4.671   8.431   3.320 -2.3988  0.8114 -1.2848
  666MOL0     H87900   4.426   8.691   3.627 -1.8555  2.2572 -1.1687
  666MOL0     H87901   4.267   8.669   3.779  1.2782 -0.5897 -0.3204
  666MOL0     H87902   4.002   8.722   3.818  2.8258  1.4754  1.5420
  666MOL0     H87903   4.104   8.640   3.932  0.7277  0.5829 -1.4824
  666MOL0     H87904   3.806   8.575   3.900  1.3798 -1.3701 -1.2028
  666MOL0     H87905   3.918   8.500   4.020  1.4188  0.7572  0.2293
  666MOL0     H87906   3.851   8.793   4.004  2.7449 -0.7362 -0.0473
  666MOL0     H87907   3.920   8.716   4.149 -1.7912  0.2530  1.5136
  666MOL0     H87908   3.703   8.581   4.165 -2.4480 -0.3478 -0.9045
  666MOL0     H87909   3.708   8.747   4.215  2.7278  0.2516  0.3914
  666MOL0     H87910   3.444   8.814   3.902 -2.9053 -0.9984  3.3061
  666MOL0     H87911   4.022   8.390   3.542 -1.5364  1.1929 -1.3485
  666MOL0     H87912   4.194   8.408   3.376 -0.8337  0.6166 -0.7623
  667MOL0     O87913   0.868   4.025   0.451 -0.7107  0.7495  0.2512
  667MOL0     C87914   0.823   3.923   0.405 -0.0799 -0.3957  1.0709
  667MOL0     O87915   0.708   3.871   0.426  0.9076  1.2893 -0.4675
  667MOL0     C87916   0.609   3.954   0.477 -0.3433 -1.1386 -0.0882
  667MOL0     C87917   0.474   3.931   0.435 -0.2529  0.2190  0.5768
  667MOL0     C87918   0.370   4.005   0.492  0.6414 -0.0486 -0.4172
  667MOL0     C87919   0.391   4.095   0.592 -0.1025  0.5022 -0.4752
  667MOL0     O87920   0.280   4.169   0.636 -0.3658 -0.4620 -0.2057
  667MOL0     C87921   0.300   4.280   0.720  0.4612  0.2493 -0.1178
  667MOL0     C87922   0.167   4.363   0.703 -0.2374 -0.1651 -0.0871
  667MOL0     C87923   0.121   4.456   0.810  0.0299 -1.1119 -0.2631
  667MOL0     C87924   0.228   4.549   0.852  0.5367  0.0064  0.3572
  667MOL0     C87925   0.172   4.656   0.960  0.2541  0.0722 -0.1207
  667MOL0     C87926   0.060   4.749   0.920 -0.1612 -0.2877 -0.2006
  667MOL0     C87927   0.020   4.816   1.054 -0.0399 -0.9151 -0.3632
  667MOL0     C87928  -0.095   4.914   1.036 -0.4327 -0.2012  1.2586
  667MOL0     N87929  -0.151   4.954   1.167  0.1387 -0.1796  0.4621
  667MOL0     C87930  -0.269   4.910   1.217  0.5529 -0.8268 -0.7983
  667MOL0     C87931  -0.272   4.961   1.340  0.2079 -0.6029  0.5077
  667MOL0     C87932  -0.382   4.957   1.437  0.1841  0.3115 -0.8962
  667MOL0     C87933  -0.409   4.808   1.480  0.1515 -0.4383 -0.0698
  667MOL0     C87934  -0.471   4.717   1.376  0.1674 -0.4612  0.2850
  667MOL0     C87935  -0.555   4.596   1.427  0.5526 -0.3122 -0.2283
  667MOL0     O87936  -0.549   4.484   1.341 -0.7167  0.5078 -0.1764
  667MOL0     C87937  -0.428   4.435   1.324  0.1974 -0.3677  0.3989
  667MOL0     C87938  -0.372   4.442   1.197  1.0548  0.0129 -0.7509
  667MOL0     C87939  -0.238   4.391   1.168 -0.6540 -0.5983  0.5362
  667MOL0     C87940  -0.167   4.316   1.269  0.4554  0.4013 -0.1798
  667MOL0     C87941  -0.038   4.245   1.244  1.1263  0.3084 -0.0275
  667MOL0     O87942   0.027   4.274   1.130 -0.1892 -0.2080  0.4268
  667MOL0     C87943   0.158   4.221   1.114  0.1098 -0.7584 -0.1970
  667MOL0     C87944   0.266   4.302   1.133 -0.3005  0.7378  0.4822
  667MOL0     C87945   0.397   4.250   1.118  0.0988 -0.3871  0.2624
  667MOL0     C87946   0.413   4.112   1.093 -0.9367 -0.4796 -0.5072
  667MOL0     O87947   0.542   4.061   1.073  0.2490 -0.4307 -0.6088
  667MOL0     C87948   0.557   3.935   1.123 -0.5686  0.6279 -1.5090
  667MOL0     C87949   0.699   3.896   1.139  0.0213 -0.4387 -0.0482
  667MOL0     C87950   0.768   3.877   1.004 -0.1082  0.3396  0.8554
  667MOL0     C87951   0.918   3.853   1.011 -0.3587 -0.1341  0.1219
  667MOL0     C87952   0.988   3.829   0.869  0.8010  1.1199  1.1943
  667MOL0     C87953   0.970   3.681   0.818 -1.2933 -0.0294 -0.1256
  667MOL0     C87954   1.034   3.666   0.676  0.1700  0.8240 -0.3012
  667MOL0     C87955   0.950   3.555   0.604 -0.1132  0.3420  0.2447
  667MOL0    Cl87956   0.950   3.406   0.701  0.5875  0.0263  0.3298
  667MOL0     C87957   0.296   4.028   1.090 -0.8872 -0.3230  0.6622
  667MOL0     C87958   0.174   4.085   1.105  0.4305 -0.0257  1.0361
  667MOL0     O87959  -0.001   4.153   1.326 -0.3886 -0.2870  0.3387
  667MOL0     C87960  -0.226   4.321   1.402  0.1064 -0.7497 -0.6227
  667MOL0     C87961  -0.350   4.382   1.427 -0.5346 -0.6833 -0.6432
  667MOL0     N87962  -0.163   5.030   1.364 -0.6282  0.0603  0.1624
  667MOL0     N87963  -0.089   5.031   1.261  0.4181 -0.2004  0.0022
  667MOL0     C87964   0.527   4.110   0.645  0.9191  0.2137  1.2059
  667MOL0     C87965   0.634   4.045   0.580  0.7811 -0.7085 -1.0376
  667MOL0     C87966   0.922   3.838   0.331 -0.4161  0.7038 -0.3383
  667MOL0     C87967   0.888   3.747   0.229  0.2364 -0.3503 -0.4149
  667MOL0     C87968   0.984   3.658   0.178 -0.0377 -0.5342  0.7191
  667MOL0     C87969   1.117   3.669   0.204  0.0888  0.5966 -0.3646
  667MOL0     O87970   1.204   3.584   0.137 -0.0539  0.3019  1.0244
  667MOL0     C87971   1.314   3.656   0.086  0.1991  0.3451  1.0513
  667MOL0     C87972   1.391   3.585  -0.029 -0.1225 -0.7115 -0.1123
  667MOL0     C87973   1.475   3.691  -0.088  0.5104 -0.2607  0.0743
  667MOL0     C87974   1.558   3.646  -0.210 -0.1845 -0.4520 -0.2599
  667MOL0     C87975   1.643   3.753  -0.258  0.5158 -1.5112 -0.0258
  667MOL0     C87976   1.710   3.849  -0.303  0.0028 -0.7740 -0.1863
  667MOL0     C87977   1.162   3.758   0.299  1.0723 -1.0125  0.2571
  667MOL0     C87978   1.061   3.846   0.362  0.3973 -0.1738 -0.2734
  667MOL0     H87979   0.452   3.869   0.349  3.1300  1.4372 -1.3460
  667MOL0     H87980   0.265   3.983   0.475  0.5932 -0.0053 -0.1785
  667MOL0     H87981   0.391   4.334   0.693  0.8131  0.9319  2.2425
  667MOL0     H87982   0.300   4.253   0.826 -2.9890  1.8876  0.4211
  667MOL0     H87983   0.085   4.292   0.691  1.0707 -2.1133  1.7809
  667MOL0     H87984   0.172   4.424   0.612  0.3528 -0.4941 -0.2760
  667MOL0     H87985   0.085   4.397   0.895  0.5064 -1.4420 -0.2904
  667MOL0     H87986   0.032   4.513   0.778  0.8250  0.0742 -0.4389
  667MOL0     H87987   0.312   4.492   0.892 -0.5973 -1.3143  0.9306
  667MOL0     H87988   0.274   4.597   0.765  0.4310 -0.3011  0.1291
  667MOL0     H87989   0.258   4.719   0.985  0.2302  0.2997 -0.5981
  667MOL0     H87990   0.148   4.605   1.054 -1.1387 -1.6468 -1.3470
  667MOL0     H87991  -0.017   4.687   0.874  0.0623 -1.6804  1.2335
  667MOL0     H87992   0.108   4.818   0.850  0.9621 -2.2752 -1.4769
  667MOL0     H87993   0.006   4.744   1.136  1.3253  0.1148  0.8371
  667MOL0     H87994   0.108   4.878   1.075  0.6416 -1.7913 -0.5684
  667MOL0     H87995  -0.178   4.879   0.973 -1.1498  1.3954  1.2627
  667MOL0     H87996  -0.050   5.001   0.987  0.0465 -0.8718  0.4847
  667MOL0     H87997  -0.337   4.838   1.172 -1.8069  0.4819  0.4969
  667MOL0     H87998  -0.481   4.988   1.401 -0.7024 -0.9059  0.3376
  667MOL0     H87999  -0.358   5.008   1.531  2.7430 -0.8444 -0.8358
  667MOL0     H88000  -0.480   4.810   1.564  1.1062  2.3544  0.7600
  667MOL0     H88001  -0.315   4.766   1.517  0.8830  2.2048  1.3127
  667MOL0     H88002  -0.537   4.768   1.305  0.2084  0.6176  1.0133
  667MOL0     H88003  -0.387   4.672   1.322 -2.3782 -4.1953 -1.0668
  667MOL0     H88004  -0.653   4.640   1.449  0.9202 -0.2708  1.4918
  667MOL0     H88005  -0.522   4.559   1.525 -1.6983 -1.5560  0.1358
  667MOL0     H88006  -0.439   4.481   1.121  1.9953 -0.1493 -1.6858
  667MOL0     H88007  -0.210   4.397   1.063  2.3576  0.9430  1.3393
  667MOL0     H88008   0.242   4.406   1.152 -0.2864  1.3561 -2.3797
  667MOL0     H88009   0.484   4.314   1.131 -0.7386  1.2669 -1.6725
  667MOL0     H88010   0.515   3.877   1.040  1.7180 -0.1593 -2.2014
  667MOL0     H88011   0.506   3.908   1.215  2.6482  0.3200  0.3482
  667MOL0     H88012   0.698   3.802   1.194 -3.1605  0.8441  2.3877
  667MOL0     H88013   0.749   3.966   1.207 -3.4763 -0.6702  3.0400
  667MOL0     H88014   0.747   3.955   0.929  1.4632  0.3508  0.4014
  667MOL0     H88015   0.733   3.781   0.966  0.8291  0.1581  0.4412
  667MOL0     H88016   0.950   3.957   1.028 -0.3164  0.2982 -2.2641
  667MOL0     H88017   0.959   3.785   1.086  0.8012  0.8966  0.4543
  667MOL0     H88018   1.092   3.863   0.877  1.5845 -0.7043 -0.3431
  667MOL0     H88019   0.937   3.893   0.795 -1.8257 -2.6563 -0.5613
  667MOL0     H88020   0.864   3.654   0.821 -2.1520  2.9785  0.7332
  667MOL0     H88021   1.022   3.613   0.886 -1.4762 -1.1030 -1.0387
  667MOL0     H88022   1.031   3.767   0.633 -0.7945  0.5246 -0.9814
  667MOL0     H88023   1.135   3.624   0.675 -1.1527 -2.7057 -1.1106
  667MOL0     H88024   0.998   3.537   0.508 -0.8437  0.2941 -0.1227
  667MOL0     H88025   0.852   3.601   0.588 -0.8513 -1.1691  0.2026
  667MOL0     H88026   0.305   3.922   1.073  2.6571  0.0707 -0.5906
  667MOL0     H88027   0.095   4.011   1.108  0.1490  0.2283  0.0507
  667MOL0     H88028  -0.166   4.273   1.479 -1.5393 -2.6610 -0.4464
  667MOL0     H88029  -0.399   4.374   1.523 -2.5899 -2.0338 -1.7134
  667MOL0     H88030   0.548   4.180   0.724 -0.5097  1.6338  0.3886
  667MOL0     H88031   0.728   4.059   0.633 -0.5029  1.8490  0.7771
  667MOL0     H88032   0.784   3.747   0.198 -0.3005 -4.8446  0.6771
  667MOL0     H88033   0.954   3.585   0.104  1.4427 -0.2873 -0.1593
  667MOL0     H88034   1.384   3.689   0.164  0.4321  2.5677 -0.0360
  667MOL0     H88035   1.277   3.754   0.053 -1.1831 -1.0156 -1.8045
  667MOL0     H88036   1.460   3.512   0.014 -0.3374  0.0030  1.5498
  667MOL0     H88037   1.318   3.544  -0.099  1.1597 -1.2533 -1.1639
  667MOL0     H88038   1.532   3.749  -0.016 -0.7981  1.9199 -0.5465
  667MOL0     H88039   1.412   3.770  -0.129  2.7942  1.2460 -0.7446
  667MOL0     H88040   1.636   3.572  -0.189  0.6596  0.3478 -0.5199
  667MOL0     H88041   1.491   3.607  -0.287  0.6454  0.9836 -1.7820
  667MOL0     H88042   1.774   3.927  -0.338  0.8769 -0.6584  1.5408
  667MOL0     H88043   1.268   3.780   0.310  0.5648  2.4577 -0.6475
  667MOL0     H88044   1.094   3.924   0.430  0.8460 -1.7894  1.4458
  668MOL0     O88045   5.729   0.320   7.505 -0.4303  0.3410 -0.1699
  668MOL0     C88046   5.802   0.294   7.603  1.0542 -0.5025 -0.8167
  668MOL0     O88047   5.809   0.364   7.727 -0.3243  0.4481 -0.0977
  668MOL0     C88048   5.736   0.478   7.743 -0.1900  0.1730  0.5437
  668MOL0     C88049   5.597   0.480   7.764  0.0811  0.8830  0.0566
  668MOL0     C88050   5.529   0.608   7.763 -0.6922  0.1321  0.4197
  668MOL0     C88051   5.599   0.722   7.711  0.2119  0.8429 -0.3780
  668MOL0     O88052   5.546   0.841   7.657 -0.2328 -0.4604  0.2251
  668MOL0     C88053   5.409   0.871   7.682 -0.1766  0.3268 -0.2871
  668MOL0     C88054   5.338   0.988   7.603  1.1870  0.3916  0.1263
  668MOL0     C88055   5.200   1.022   7.669 -0.1911  0.1826 -0.3116
  668MOL0     C88056   5.232   1.102   7.804  0.0139  0.6882  0.6195
  668MOL0     C88057   5.099   1.145   7.872 -0.0400  0.0077  0.1532
  668MOL0     C88058   5.015   1.231   7.778  0.4478  0.3274 -0.2988
  668MOL0     C88059   4.918   1.320   7.862 -0.7629  0.2582  0.7449
  668MOL0     C88060   4.877   1.437   7.770  0.3274  0.9632  0.7459
  668MOL0     N88061   4.742   1.488   7.806  0.7075 -0.1363 -0.0469
  668MOL0     C88062   4.658   1.556   7.716  0.1087 -0.5294 -0.5363
  668MOL0     C88063   4.557   1.609   7.790 -0.2585 -0.2473  0.5130
  668MOL0     C88064   4.427   1.670   7.740  0.8217  0.1023 -0.7559
  668MOL0     C88065   4.374   1.804   7.796 -0.2541 -0.0118 -0.0594
  668MOL0     C88066   4.234   1.845   7.734 -0.9107  0.7200  0.9591
  668MOL0     C88067   4.124   1.796   7.818 -0.0108  1.1683  0.5695
  668MOL0     O88068   3.997   1.835   7.756  0.1152 -0.0140 -0.4524
  668MOL0     C88069   3.884   1.762   7.771 -0.1932 -0.4814 -0.6352
  668MOL0     C88070   3.785   1.756   7.676 -0.2848 -0.6680 -0.2342
  668MOL0     C88071   3.666   1.693   7.701 -0.4468  0.2000 -0.1623
  668MOL0     C88072   3.652   1.618   7.823 -0.1220 -0.0051 -0.1155
  668MOL0     C88073   3.530   1.549   7.852  0.4905 -0.0157  1.5225
  668MOL0     O88074   3.523   1.485   7.977  0.1768 -0.3572 -0.3614
  668MOL0     C88075   3.404   1.433   8.010  1.3221 -0.2011  0.3247
  668MOL0     C88076   3.285   1.505   8.007 -0.8315 -0.5867  1.2060
  668MOL0     C88077   3.165   1.462   8.073  0.3783  0.2307  0.5078
  668MOL0     C88078   3.160   1.343   8.146 -0.1977 -0.2701  0.1132
  668MOL0     O88079   3.046   1.298   8.206 -0.3301 -0.2963  0.1858
  668MOL0     C88080   2.917   1.329   8.159 -0.2387 -0.3042 -0.1453
  668MOL0     C88081   2.810   1.223   8.200 -0.6792  1.0740 -0.2347
  668MOL0     C88082   2.776   1.210   8.352  0.5216  0.5679 -0.2749
  668MOL0     C88083   2.651   1.124   8.384 -1.1435  0.4988 -0.7417
  668MOL0     C88084   2.618   1.121   8.534  0.7781 -0.2625 -0.4286
  668MOL0     C88085   2.500   1.022   8.576  0.5835  0.1854  0.5010
  668MOL0     C88086   2.356   1.057   8.523  0.1203  0.1655 -0.4942
  668MOL0     C88087   2.267   0.947   8.587 -0.4245 -0.2090 -0.5934
  668MOL0    Cl88088   2.273   0.927   8.772  0.1896 -0.1681 -0.1387
  668MOL0     C88089   3.279   1.280   8.155  0.2777  0.3932  0.5115
  668MOL0     C88090   3.402   1.315   8.078  0.7306  0.6559 -0.3212
  668MOL0     O88091   3.441   1.543   7.767  0.2153  0.1393 -0.1766
  668MOL0     C88092   3.754   1.620   7.917 -0.0715  0.7989  0.4272
  668MOL0     C88093   3.868   1.692   7.895 -1.1383 -0.4132 -1.0593
  668MOL0     N88094   4.581   1.576   7.925 -0.0324 -0.4888  0.1856
  668MOL0     N88095   4.693   1.511   7.931 -0.6316  0.0053 -0.2136
  668MOL0     C88096   5.739   0.706   7.702 -0.7014  0.3548 -1.6510
  668MOL0     C88097   5.805   0.592   7.709 -0.8123 -0.3735 -0.6841
  668MOL0     C88098   5.877   0.168   7.596  0.3768 -0.1076 -0.9374
  668MOL0     C88099   5.978   0.140   7.698 -0.5738  0.0965 -0.5101
  668MOL0     C88100   6.064   0.035   7.695  0.2292  0.2939 -0.0930
  668MOL0     C88101   6.052  -0.057   7.588  0.7004 -0.3484 -0.0630
  668MOL0     O88102   6.152  -0.156   7.582  0.7462 -0.5373 -0.8911
  668MOL0     C88103   6.127  -0.283   7.518 -1.1439  0.3833 -0.8684
  668MOL0     C88104   5.999  -0.346   7.568 -0.0242  0.9367 -0.1993
  668MOL0     C88105   5.982  -0.492   7.510  0.4089  0.1900 -0.3364
  668MOL0     C88106   6.095  -0.594   7.548 -0.3294  0.3587 -0.4439
  668MOL0     C88107   6.068  -0.721   7.490  0.6740 -0.2981  0.1100
  668MOL0     C88108   6.032  -0.828   7.447 -0.2032 -0.0385  0.2285
  668MOL0     C88109   5.951  -0.035   7.489 -1.4578  0.2218  0.8161
  668MOL0     C88110   5.869   0.075   7.495 -0.4864  0.2606 -0.4392
  668MOL0     H88111   5.533   0.393   7.771 -0.9464  1.6749  0.9332
  668MOL0     H88112   5.421   0.616   7.764 -1.0174 -0.9061 -3.9701
  668MOL0     H88113   5.397   0.880   7.791  1.8423  1.4330 -0.1020
  668MOL0     H88114   5.365   0.778   7.647 -1.0743  1.1933 -1.5382
  668MOL0     H88115   5.305   0.950   7.506 -3.6014  0.0142  1.6257
  668MOL0     H88116   5.403   1.076   7.597  1.2738  0.2773 -0.6776
  668MOL0     H88117   5.137   0.940   7.704 -1.0103  1.5673  1.7241
  668MOL0     H88118   5.149   1.087   7.597  0.4168  1.7529  0.6021
  668MOL0     H88119   5.290   1.041   7.874  0.3329 -0.2330 -0.4197
  668MOL0     H88120   5.289   1.193   7.783 -0.2576  0.2718 -2.3799
  668MOL0     H88121   5.115   1.202   7.964  3.3327  1.7356 -1.3184
  668MOL0     H88122   5.052   1.048   7.890  0.5436 -0.1453  0.8869
  668MOL0     H88123   4.951   1.179   7.705  0.4488 -0.4472  0.2379
  668MOL0     H88124   5.080   1.291   7.713  1.8826 -0.9929 -0.1484
  668MOL0     H88125   4.828   1.272   7.900 -0.8630  1.2049  1.7609
  668MOL0     H88126   4.973   1.360   7.948  0.9798 -0.6727  0.1092
  668MOL0     H88127   4.881   1.403   7.667  0.1842 -0.3739  1.1593
  668MOL0     H88128   4.949   1.519   7.779 -0.2702  1.5082  0.6353
  668MOL0     H88129   4.679   1.565   7.609  0.7490  0.0169 -0.3747
  668MOL0     H88130   4.349   1.596   7.757  2.9199 -2.1853 -0.5053
  668MOL0     H88131   4.437   1.678   7.632 -1.0454 -1.4757 -1.0942
  668MOL0     H88132   4.430   1.893   7.768 -0.1726 -0.0871 -0.1331
  668MOL0     H88133   4.364   1.805   7.905 -1.0166 -2.4700 -0.0401
  668MOL0     H88134   4.227   1.954   7.733  0.7310  0.8556  0.0178
  668MOL0     H88135   4.229   1.812   7.630 -0.0542  3.4562 -0.0339
  668MOL0     H88136   4.133   1.840   7.918  0.7200  1.2240  0.4844
  668MOL0     H88137   4.131   1.687   7.822  0.2868  1.0710 -1.4874
  668MOL0     H88138   3.787   1.799   7.576 -1.6335 -1.4065 -0.6086
  668MOL0     H88139   3.586   1.679   7.628 -1.6134  3.1258  0.4143
  668MOL0     H88140   3.284   1.596   7.947  2.4715 -2.3756 -1.9549
  668MOL0     H88141   3.072   1.518   8.064  2.3624  3.8630  0.6109
  668MOL0     H88142   2.921   1.340   8.051  1.0988 -0.3467 -0.1250
  668MOL0     H88143   2.894   1.422   8.212  3.3672 -1.2796  3.7528
  668MOL0     H88144   2.847   1.123   8.178 -2.2630  0.8258 -2.0651
  668MOL0     H88145   2.721   1.242   8.138 -0.2414  1.5000 -0.7429
  668MOL0     H88146   2.758   1.307   8.400 -0.2089  0.7679 -0.9175
  668MOL0     H88147   2.858   1.157   8.401  0.8809 -1.3431 -2.7551
  668MOL0     H88148   2.560   1.173   8.348 -0.3482  1.9206 -0.8838
  668MOL0     H88149   2.676   1.022   8.354 -0.6976  0.6598 -0.9258
  668MOL0     H88150   2.588   1.224   8.554 -0.2217 -0.9248  1.8785
  668MOL0     H88151   2.710   1.093   8.587  0.6178 -0.3977 -0.2198
  668MOL0     H88152   2.494   1.037   8.684 -1.2743  0.9679  0.3261
  668MOL0     H88153   2.534   0.925   8.541  1.0528 -0.6408  3.0612
  668MOL0     H88154   2.320   1.156   8.554 -0.3925 -0.3271  0.5343
  668MOL0     H88155   2.338   1.049   8.415 -0.8382  0.8426 -0.4013
  668MOL0     H88156   2.299   0.852   8.542  0.5125  0.2979 -1.0206
  668MOL0     H88157   2.170   0.973   8.544  0.2304  0.8507 -1.4851
  668MOL0     H88158   3.273   1.187   8.212  1.9977 -0.0496  0.0196
  668MOL0     H88159   3.495   1.259   8.077  1.5554  1.8888  1.7350
  668MOL0     H88160   3.738   1.574   8.014 -0.3730  0.6596  0.3152
  668MOL0     H88161   3.930   1.696   7.984 -1.7587 -0.6437 -0.6118
  668MOL0     H88162   5.793   0.796   7.675  2.0443 -0.4159  0.7330
  668MOL0     H88163   5.912   0.583   7.690 -0.4608  1.3250  0.2263
  668MOL0     H88164   6.000   0.212   7.776  2.8196  0.9306 -2.0571
  668MOL0     H88165   6.148   0.023   7.763 -0.9702 -4.5314  0.8890
  668MOL0     H88166   6.212  -0.351   7.536 -3.3128 -2.3212 -0.0605
  668MOL0     H88167   6.125  -0.260   7.411  2.0629 -1.6135 -1.4920
  668MOL0     H88168   5.998  -0.337   7.677 -1.5095  4.4186 -0.3799
  668MOL0     H88169   5.916  -0.287   7.528 -0.3997  0.2938 -0.3795
  668MOL0     H88170   5.986  -0.492   7.401 -1.3512  2.3091 -0.4851
  668MOL0     H88171   5.890  -0.540   7.542  1.2568 -2.0225 -1.0480
  668MOL0     H88172   6.192  -0.560   7.511  1.6150 -3.3694  0.8028
  668MOL0     H88173   6.108  -0.595   7.657  3.1483 -3.1299 -0.6737
  668MOL0     H88174   5.999  -0.917   7.397  1.9120 -1.2025  0.7783
  668MOL0     H88175   5.954  -0.103   7.404 -2.6476 -3.4342  3.4193
  668MOL0     H88176   5.789   0.084   7.422  0.2482 -1.6770 -1.5616
  669MOL0     O88177   4.582   9.014   3.986  0.1180  0.4865 -0.0712
  669MOL0     C88178   4.566   8.959   3.877  0.3223 -0.0329 -1.0476
  669MOL0     O88179   4.451   8.900   3.827  0.1911  0.2706 -0.3447
  669MOL0     C88180   4.345   8.903   3.906 -0.3659 -0.0199 -0.8404
  669MOL0     C88181   4.234   8.975   3.853 -0.2626 -0.5215 -0.0611
  669MOL0     C88182   4.113   8.998   3.926  0.0002  0.7421 -0.8234
  669MOL0     C88183   4.116   8.951   4.057 -0.2550  0.8053 -0.2450
  669MOL0     O88184   4.011   8.969   4.139  0.0303  0.4792 -0.4555
  669MOL0     C88185   4.003   9.090   4.206 -0.1610 -0.9450 -0.3020
  669MOL0     C88186   3.884   9.085   4.309  0.0514 -0.2926 -0.1632
  669MOL0     C88187   3.748   9.054   4.246 -0.2330  0.3201 -0.1098
  669MOL0     C88188   3.700   9.156   4.140  0.1488 -0.1126 -0.2137
  669MOL0     C88189   3.548   9.148   4.094 -0.9827  0.1742 -0.2053
  669MOL0     C88190   3.456   9.164   4.216  0.5533 -0.3734  0.1736
  669MOL0     C88191   3.313   9.123   4.163  0.3892 -1.0367 -0.0214
  669MOL0     C88192   3.211   9.070   4.267 -0.0819  0.4465  0.6472
  669MOL0     N88193   3.227   9.124   4.400 -0.0253  0.2496 -0.1447
  669MOL0     C88194   3.212   9.260   4.427  0.1388 -0.5126 -0.1647
  669MOL0     C88195   3.251   9.271   4.557  0.7922  0.1197 -0.1074
  669MOL0     C88196   3.274   9.394   4.637  0.6673  0.1949  0.6981
  669MOL0     C88197   3.423   9.425   4.652  0.6243  0.3972 -0.6468
  669MOL0     C88198   3.478   9.496   4.529 -0.4043 -0.0962 -0.2012
  669MOL0     C88199   3.618   9.537   4.556  0.0765 -0.8654 -0.1479
  669MOL0     O88200   3.660   9.597   4.429  0.5970  1.0241 -1.1226
  669MOL0     C88201   3.780   9.662   4.439 -0.3593  0.0191  0.1199
  669MOL0     C88202   3.823   9.727   4.322 -0.2367  0.1241  0.3852
  669MOL0     C88203   3.939   9.808   4.323  0.5990 -0.1054  0.2050
  669MOL0     C88204   4.019   9.816   4.439 -0.3470  0.1997 -0.3423
  669MOL0     C88205   4.135   9.902   4.435 -0.9924  0.2629  0.5580
  669MOL0     O88206   4.188   9.953   4.551 -0.0107 -1.0508  0.6011
  669MOL0     C88207   4.311  10.000   4.563 -0.0433 -0.5935 -0.1892
  669MOL0     C88208   4.296  10.115   4.633 -1.0681 -0.2513  0.4546
  669MOL0     C88209   4.400  10.196   4.673 -0.0926  0.1756  0.7454
  669MOL0     C88210   4.523  10.146   4.637 -1.2261 -0.3925 -0.4956
  669MOL0     O88211   4.643  10.192   4.690  0.8228  0.1145 -0.5967
  669MOL0     C88212   4.656  10.306   4.771  0.0089 -0.4577  0.2209
  669MOL0     C88213   4.797  10.360   4.775 -0.2082 -0.3337  0.7495
  669MOL0     C88214   4.908  10.260   4.811 -0.5997  0.1216  0.0969
  669MOL0     C88215   5.042  10.332   4.798 -0.5370  0.6149  0.8668
  669MOL0     C88216   5.100  10.400   4.926  0.3886 -0.6446 -0.3382
  669MOL0     C88217   5.123  10.295   5.031 -0.5387 -0.6974 -0.2009
  669MOL0     C88218   5.212  10.322   5.148  0.2217 -0.2841  0.6633
  669MOL0     C88219   5.241  10.189   5.226 -0.3221  0.2642 -0.1234
  669MOL0    Cl88220   5.310  10.047   5.132  0.1604  0.1816 -0.1656
  669MOL0     C88221   4.542  10.030   4.559  0.1568  0.1479 -0.6607
  669MOL0     C88222   4.435   9.958   4.509  0.0737 -0.0958  0.4853
  669MOL0     O88223   4.192   9.900   4.326 -0.4693 -0.1343  0.3950
  669MOL0     C88224   3.984   9.732   4.542  0.1101  0.3051  0.0034
  669MOL0     C88225   3.868   9.654   4.547 -0.7129  0.0433  0.7065
  669MOL0     N88226   3.264   9.147   4.608 -0.1424  0.1133 -0.5048
  669MOL0     N88227   3.255   9.059   4.520  0.4416  0.4681 -0.0674
  669MOL0     C88228   4.226   8.882   4.112  0.3008 -0.4070  1.0291
  669MOL0     C88229   4.336   8.850   4.036  0.0285  0.1848 -0.0182
  669MOL0     C88230   4.689   8.949   3.799 -0.9869 -0.1629  0.7372
  669MOL0     C88231   4.807   9.025   3.822 -0.4423 -0.0443  0.6319
  669MOL0     C88232   4.922   9.009   3.744 -0.2166 -0.1285  0.7441
  669MOL0     C88233   4.930   8.911   3.646 -1.4795  0.1921  0.0616
  669MOL0     O88234   5.048   8.890   3.581 -0.2309  1.2440  0.3685
  669MOL0     C88235   5.059   8.785   3.476  0.5416 -0.3200 -0.4009
  669MOL0     C88236   5.211   8.746   3.441  0.6003 -0.0606 -0.0857
  669MOL0     C88237   5.195   8.634   3.332 -0.3746  0.2043  1.2591
  669MOL0     C88238   5.339   8.607   3.278 -0.3218  0.7110  0.0880
  669MOL0     C88239   5.336   8.486   3.191  0.5352 -1.1572 -0.3503
  669MOL0     C88240   5.323   8.395   3.112 -0.7791  0.0269  0.0561
  669MOL0     C88241   4.816   8.844   3.612  0.5350  0.5081 -0.1983
  669MOL0     C88242   4.702   8.857   3.698  0.6809 -0.0768 -0.3650
  669MOL0     H88243   4.252   9.022   3.757  4.2410 -2.8175 -0.5715
  669MOL0     H88244   4.019   9.032   3.885 -1.1974  1.2959  2.1346
  669MOL0     H88245   3.980   9.171   4.136 -0.6329 -2.0065 -1.3899
  669MOL0     H88246   4.100   9.104   4.255  0.0392  1.1566 -1.1672
  669MOL0     H88247   3.874   9.184   4.354  0.9927 -1.2216  2.2378
  669MOL0     H88248   3.908   9.012   4.387  0.7954  1.0652  0.9309
  669MOL0     H88249   3.681   9.043   4.331  1.1221 -0.4716  0.9003
  669MOL0     H88250   3.756   8.953   4.204  0.5904  0.1293  0.4908
  669MOL0     H88251   3.722   9.257   4.175 -2.1641 -0.6436  3.3554
  669MOL0     H88252   3.774   9.136   4.063  0.7586  3.0220 -0.5473
  669MOL0     H88253   3.541   9.050   4.046  2.0694  1.4305 -3.7174
  669MOL0     H88254   3.528   9.211   4.007  1.6507  1.8257  0.2634
  669MOL0     H88255   3.457   9.262   4.264 -0.4254 -0.1678 -0.2019
  669MOL0     H88256   3.483   9.094   4.296  2.3589  2.1389  1.9119
  669MOL0     H88257   3.263   9.206   4.112  2.7063  1.2165  1.1218
  669MOL0     H88258   3.317   9.055   4.078 -0.1044 -0.9643 -0.1058
  669MOL0     H88259   3.222   8.961   4.272 -2.7698 -0.2019 -3.3203
  669MOL0     H88260   3.107   9.091   4.243  0.6213  3.1827 -0.3854
  669MOL0     H88261   3.198   9.338   4.354 -2.7708 -1.4138 -0.7169
  669MOL0     H88262   3.238   9.380   4.739  3.1691  0.4404  1.6781
  669MOL0     H88263   3.218   9.479   4.597 -0.1245 -1.1126 -1.1741
  669MOL0     H88264   3.477   9.331   4.666 -2.5769 -1.3773  0.7672
  669MOL0     H88265   3.428   9.501   4.730  1.6007  1.2865 -1.5314
  669MOL0     H88266   3.482   9.430   4.442  0.5633 -1.0333  0.5182
  669MOL0     H88267   3.422   9.588   4.511  3.3595  2.7322  1.2124
  669MOL0     H88268   3.672   9.446   4.583  1.9317 -0.0774 -1.0249
  669MOL0     H88269   3.625   9.605   4.641 -0.0912 -4.9753  3.4962
  669MOL0     H88270   3.758   9.722   4.235 -1.8272 -5.8624  1.4778
  669MOL0     H88271   3.966   9.866   4.235  3.5492  0.5935  1.4385
  669MOL0     H88272   4.201  10.140   4.679 -0.5177  0.1881  1.3939
  669MOL0     H88273   4.391  10.289   4.728  4.6528  1.9466 -0.9049
  669MOL0     H88274   4.625  10.277   4.872  1.8583  0.1356  1.0084
  669MOL0     H88275   4.586  10.378   4.728  0.1389 -1.0684 -1.0630
  669MOL0     H88276   4.797  10.435   4.854 -0.5529 -2.6584  3.1176
  669MOL0     H88277   4.807  10.404   4.675  0.3764 -2.5599 -0.2377
  669MOL0     H88278   4.909  10.182   4.734  3.5474  2.6177 -2.8108
  669MOL0     H88279   4.892  10.223   4.913 -2.6957  3.6394  1.2028
  669MOL0     H88280   5.116  10.274   4.742  2.4205  3.7125  1.2270
  669MOL0     H88281   5.022  10.417   4.732 -0.5423  1.5408  2.0304
  669MOL0     H88282   5.032  10.465   4.982  2.2745 -0.4867  1.8876
  669MOL0     H88283   5.178  10.465   4.885 -0.1376  0.8654  0.9497
  669MOL0     H88284   5.170  10.209   4.982 -1.2968  0.0861 -2.4378
  669MOL0     H88285   5.027  10.260   5.070 -1.4839 -0.8172 -2.4532
  669MOL0     H88286   5.310  10.348   5.105  1.3122 -2.9716  1.3344
  669MOL0     H88287   5.164  10.399   5.209  1.4737 -0.3586  1.7760
  669MOL0     H88288   5.152  10.150   5.276 -0.8011 -0.4753 -1.4938
  669MOL0     H88289   5.311  10.213   5.306 -0.8527  1.9676 -0.1417
  669MOL0     H88290   4.641   9.992   4.537 -0.1698  0.4095 -2.7586
  669MOL0     H88291   4.439   9.867   4.449 -0.3258  2.0242 -3.0346
  669MOL0     H88292   4.051   9.724   4.627 -0.8688 -1.4253  0.6649
  669MOL0     H88293   3.880   9.580   4.626  1.7120 -2.0751 -1.4538
  669MOL0     H88294   4.224   8.857   4.218  4.1923  1.6253  1.7723
  669MOL0     H88295   4.423   8.803   4.081  0.8737  1.0073 -0.7607
  669MOL0     H88296   4.808   9.091   3.909 -1.3756 -0.1977  0.7719
  669MOL0     H88297   5.011   9.067   3.768  0.0005  0.3152 -1.0160
  669MOL0     H88298   4.995   8.808   3.391  0.4444  0.8221 -0.0345
  669MOL0     H88299   5.023   8.689   3.514 -0.2244 -0.7635 -2.1692
  669MOL0     H88300   5.276   8.828   3.409  1.4295 -0.4008  0.6776
  669MOL0     H88301   5.250   8.702   3.534  0.7244 -2.1785 -1.0776
  669MOL0     H88302   5.137   8.670   3.247  1.8235 -1.8145 -1.2848
  669MOL0     H88303   5.154   8.545   3.380  1.7390  0.7209  4.3602
  669MOL0     H88304   5.380   8.688   3.218  3.9175 -2.8959 -2.5173
  669MOL0     H88305   5.405   8.586   3.363 -1.9045 -0.9718  0.9764
  669MOL0     H88306   5.319   8.318   3.038  2.9927  0.8092 -1.1831
  669MOL0     H88307   4.788   8.768   3.540 -0.5261 -0.6380  1.3708
  669MOL0     H88308   4.621   8.786   3.680  1.6281 -1.3243  0.1437
  670MOL0     O88309  10.865   5.637   3.949  0.2040 -0.4982 -0.6477
  670MOL0     C88310  10.907   5.698   3.855  0.9038 -0.8346 -0.6174
  670MOL0     O88311  11.015   5.774   3.853 -0.5252  0.3029  0.9327
  670MOL0     C88312  11.104   5.763   3.957 -0.7469 -0.1989 -0.3877
  670MOL0     C88313  11.080   5.822   4.083 -0.1977  0.8881 -0.4033
  670MOL0     C88314  11.174   5.833   4.185 -0.4761  0.5427  0.3396
  670MOL0     C88315  11.305   5.795   4.155 -0.3441  0.6511 -0.1350
  670MOL0     O88316  11.395   5.823   4.261 -0.4179  0.2489  0.1890
  670MOL0     C88317  11.528   5.784   4.249  0.1859 -0.3927 -0.3177
  670MOL0     C88318  11.620   5.859   4.355  0.2567 -0.2562 -0.3868
  670MOL0     C88319  11.758   5.793   4.374 -1.2061  0.6830 -0.7583
  670MOL0     C88320  11.849   5.863   4.471  0.0768  0.2291  0.4413
  670MOL0     C88321  11.988   5.790   4.485  0.2707  0.4507 -0.7367
  670MOL0     C88322  12.102   5.876   4.535  0.1336  0.1853 -0.2202
  670MOL0     C88323  12.100   5.899   4.686 -0.1292  0.6118  1.1683
  670MOL0     C88324  12.228   5.956   4.760  0.2009  0.4411 -0.1900
  670MOL0     N88325  12.192   5.982   4.896  0.1815 -0.3034  0.0594
  670MOL0     C88326  12.165   6.108   4.940  0.3639 -0.0579  0.4538
  670MOL0     C88327  12.160   6.110   5.071 -0.2363  0.8531 -0.0796
  670MOL0     C88328  12.099   6.227   5.144 -0.7938 -0.1315 -0.6115
  670MOL0     C88329  11.963   6.268   5.093  0.1062 -0.2629  0.1638
  670MOL0     C88330  11.973   6.410   5.020  0.1710  0.3345 -0.4054
  670MOL0     C88331  11.840   6.465   4.966  0.2498 -0.8965  0.3321
  670MOL0     O88332  11.874   6.589   4.916  0.0923 -0.3024  0.6929
  670MOL0     C88333  11.788   6.661   4.833  0.9147 -0.5395 -0.6249
  670MOL0     C88334  11.671   6.619   4.779 -0.9000  0.2586  0.1461
  670MOL0     C88335  11.592   6.689   4.686  0.4126  0.2627  0.3453
  670MOL0     C88336  11.630   6.821   4.653  0.7460 -0.7419  0.9621
  670MOL0     C88337  11.539   6.908   4.570 -0.7607 -0.7476 -0.6178
  670MOL0     O88338  11.421   6.855   4.547  0.5183  1.0660 -0.5781
  670MOL0     C88339  11.333   6.931   4.473  0.4853  0.8272  0.3667
  670MOL0     C88340  11.278   6.870   4.369 -0.4013 -0.3956 -0.4266
  670MOL0     C88341  11.194   6.937   4.282 -0.0709  0.8758  0.2145
  670MOL0     C88342  11.142   7.061   4.318  0.1254  0.9168  0.5453
  670MOL0     O88343  11.045   7.132   4.239 -0.3545 -0.0375 -0.0852
  670MOL0     C88344  11.000   7.264   4.274  0.0408 -0.1930 -0.3989
  670MOL0     C88345  11.095   7.367   4.211 -0.5969  1.5574 -0.0329
  670MOL0     C88346  11.021   7.504   4.180 -0.4655  0.8845 -0.8211
  670MOL0     C88347  10.986   7.578   4.302 -0.5160  0.1546  0.4407
  670MOL0     C88348  10.884   7.684   4.263 -0.3728 -0.7781  0.6337
  670MOL0     C88349  10.819   7.744   4.381  0.6136  0.1589 -0.5559
  670MOL0     C88350  10.676   7.803   4.350  0.4404 -0.3578 -1.1245
  670MOL0     C88351  10.637   7.891   4.471 -0.1327 -0.3689  0.6745
  670MOL0    Cl88352  10.470   7.953   4.426 -0.2177 -0.3497  0.1704
  670MOL0     C88353  11.193   7.118   4.438 -0.2616  0.1294 -0.7158
  670MOL0     C88354  11.289   7.058   4.511 -0.2368 -0.6563 -0.9893
  670MOL0     O88355  11.579   7.018   4.527 -0.5722 -0.6127  0.1769
  670MOL0     C88356  11.757   6.866   4.693 -0.7742 -0.0076 -0.0579
  670MOL0     C88357  11.832   6.782   4.784 -0.7065 -0.6834  0.9814
  670MOL0     N88358  12.186   5.979   5.111 -0.8785  0.5690 -0.2612
  670MOL0     N88359  12.197   5.903   5.003  0.8674  0.3066  0.3681
  670MOL0     C88360  11.338   5.731   4.035  0.8344  0.3073 -0.6322
  670MOL0     C88361  11.238   5.716   3.937  0.6941  0.0298  0.2561
  670MOL0     C88362  10.838   5.668   3.725  0.7869  0.0555 -0.1055
  670MOL0     C88363  10.866   5.754   3.617 -0.5064  0.5526 -0.0738
  670MOL0     C88364  10.782   5.738   3.505 -0.3964  0.4794  0.2656
  670MOL0     C88365  10.690   5.632   3.491 -0.1045  0.1542 -0.7057
  670MOL0     O88366  10.603   5.645   3.391 -0.7085  0.4833  0.2015
  670MOL0     C88367  10.462   5.649   3.422  0.1289  0.4914  0.5037
  670MOL0     C88368  10.395   5.511   3.394 -0.5061 -0.3495 -0.1757
  670MOL0     C88369  10.460   5.429   3.282  1.0047 -0.6050  0.0144
  670MOL0     C88370  10.376   5.300   3.248 -0.0930 -0.4463  0.1522
  670MOL0     C88371  10.398   5.191   3.343 -0.2933  0.1971 -0.8333
  670MOL0     C88372  10.406   5.096   3.413 -0.3022 -0.3938  0.4146
  670MOL0     C88373  10.665   5.545   3.599 -0.2039 -1.0843  0.5133
  670MOL0     C88374  10.733   5.564   3.721 -0.8521 -0.9221 -0.3732
  670MOL0     H88375  10.977   5.855   4.096 -2.1323 -2.8071 -4.0231
  670MOL0     H88376  11.145   5.876   4.280  1.4227 -0.6865  1.5638
  670MOL0     H88377  11.560   5.813   4.149  0.4387 -2.6643 -0.9333
  670MOL0     H88378  11.545   5.676   4.248  6.7612  0.2142 -2.1016
  670MOL0     H88379  11.583   5.861   4.458 -0.1617  0.3931 -0.5437
  670MOL0     H88380  11.636   5.963   4.327  3.1078 -0.3969  0.4149
  670MOL0     H88381  11.816   5.776   4.283  1.1500 -1.0620  0.9384
  670MOL0     H88382  11.740   5.687   4.393  0.1513  0.4632 -0.5619
  670MOL0     H88383  11.876   5.960   4.430  0.9322 -0.1218  0.1589
  670MOL0     H88384  11.808   5.875   4.572  1.3105 -1.2489  1.1627
  670MOL0     H88385  12.030   5.764   4.387 -0.2457  0.3743 -0.9397
  670MOL0     H88386  11.977   5.699   4.545 -1.9994  1.9945  1.3483
  670MOL0     H88387  12.112   5.971   4.480 -0.9910 -1.0469 -2.6925
  670MOL0     H88388  12.192   5.821   4.507  0.1049  0.4377 -0.8260
  670MOL0     H88389  12.023   5.976   4.697  1.4097  2.5177 -0.7078
  670MOL0     H88390  12.066   5.810   4.740 -0.0608 -1.8837 -2.5805
  670MOL0     H88391  12.278   6.038   4.707  1.6748 -0.7238 -0.6992
  670MOL0     H88392  12.305   5.880   4.775 -0.0558  0.3193  0.5359
  670MOL0     H88393  12.119   6.183   4.876 -4.2319 -3.9350 -1.4091
  670MOL0     H88394  12.172   6.308   5.131 -0.3157 -0.0095  2.1765
  670MOL0     H88395  12.115   6.223   5.252  0.8372  2.4740 -0.6625
  670MOL0     H88396  11.912   6.275   5.189  0.5273 -0.6460  0.4242
  670MOL0     H88397  11.914   6.187   5.038  3.7873 -0.8438 -2.7539
  670MOL0     H88398  11.993   6.471   5.108  0.6984 -2.4654  1.5483
  670MOL0     H88399  12.049   6.421   4.942 -1.0731  0.8147 -1.6086
  670MOL0     H88400  11.766   6.476   5.046 -1.2643  1.2994 -1.2520
  670MOL0     H88401  11.802   6.393   4.894  1.4029 -0.6261 -0.5822
  670MOL0     H88402  11.637   6.521   4.809  0.2799 -0.0054  0.6566
  670MOL0     H88403  11.498   6.646   4.651  0.7417 -1.2775  1.2861
  670MOL0     H88404  11.329   6.777   4.343  1.3303  1.0279 -2.4250
  670MOL0     H88405  11.160   6.889   4.191 -1.6328  0.2910  1.0647
  670MOL0     H88406  10.981   7.300   4.375  3.4129  0.6525  0.0775
  670MOL0     H88407  10.900   7.268   4.231 -0.4149 -1.0009  0.5525
  670MOL0     H88408  11.132   7.335   4.113 -0.2905  2.9146 -0.3777
  670MOL0     H88409  11.180   7.382   4.279  1.9379 -3.1109 -1.7211
  670MOL0     H88410  10.927   7.477   4.131 -1.0179  3.2731 -1.1736
  670MOL0     H88411  11.092   7.552   4.112  2.2501  1.7228  2.3340
  670MOL0     H88412  10.939   7.514   4.377 -1.5992  0.8570  0.3875
  670MOL0     H88413  11.070   7.628   4.352 -1.4183  1.8696  0.3182
  670MOL0     H88414  10.810   7.636   4.198  0.4168 -2.1175  0.6664
  670MOL0     H88415  10.943   7.756   4.206 -1.3348 -0.0585  0.5353
  670MOL0     H88416  10.875   7.824   4.430 -1.4570  0.6620  1.1395
  670MOL0     H88417  10.804   7.670   4.459 -1.5143  0.5841 -0.4928
  670MOL0     H88418  10.689   7.877   4.270  2.9717 -0.6373 -1.0527
  670MOL0     H88419  10.593   7.732   4.348  0.2428 -0.1476 -0.5982
  670MOL0     H88420  10.703   7.977   4.474  0.3032 -0.7024  0.6983
  670MOL0     H88421  10.632   7.835   4.565 -1.7305 -1.3516  0.0581
  670MOL0     H88422  11.155   7.216   4.465  0.9355  0.3314  0.3034
  670MOL0     H88423  11.332   7.094   4.604 -0.6593 -0.3599 -0.9096
  670MOL0     H88424  11.803   6.963   4.674 -2.4890  1.4765  2.7957
  670MOL0     H88425  11.930   6.817   4.814 -0.2040 -0.9920 -0.2555
  670MOL0     H88426  11.441   5.704   4.015  1.4990  0.7416  1.9251
  670MOL0     H88427  11.268   5.680   3.839  0.9029  1.0784 -0.0735
  670MOL0     H88428  10.939   5.834   3.626  0.1878 -0.2578  2.1325
  670MOL0     H88429  10.777   5.799   3.415  1.9028 -0.0376 -0.2885
  670MOL0     H88430  10.414   5.722   3.357 -0.8773 -0.2306  0.4008
  670MOL0     H88431  10.440   5.680   3.525 -2.2388 -0.4735  0.3484
  670MOL0     H88432  10.407   5.457   3.489  1.4742  0.4506  0.0623
  670MOL0     H88433  10.292   5.534   3.366 -1.2511 -0.8905  1.9110
  670MOL0     H88434  10.558   5.389   3.312  0.8770 -0.9363  0.0002
  670MOL0     H88435  10.480   5.490   3.193 -2.4209  1.7251  0.6375
  670MOL0     H88436  10.273   5.337   3.252  0.1328  0.0467  2.4969
  670MOL0     H88437  10.399   5.275   3.143  3.0050  2.0343  0.1214
  670MOL0     H88438  10.415   5.013   3.480 -0.0912 -2.7151 -2.2791
  670MOL0     H88439  10.594   5.465   3.580 -2.2228  0.3913  1.4293
  670MOL0     H88440  10.718   5.502   3.809 -0.3064 -2.2183 -1.1734
  671MOL0     O88441   5.274   1.894   9.304 -0.3365 -1.1280  0.0249
  671MOL0     C88442   5.284   1.808   9.214  0.2284  0.8800 -0.7116
  671MOL0     O88443   5.188   1.725   9.185  0.4206 -0.7400 -0.7528
  671MOL0     C88444   5.078   1.758   9.259  0.9837  0.1082 -0.2774
  671MOL0     C88445   4.974   1.823   9.197 -0.0087 -0.0192 -0.3740
  671MOL0     C88446   4.847   1.831   9.256  0.5760  0.8212  0.2915
  671MOL0     C88447   4.819   1.772   9.387  0.0749  0.3425  0.6905
  671MOL0     O88448   4.700   1.794   9.448 -0.6119  0.7693 -0.2502
  671MOL0     C88449   4.664   1.763   9.582 -0.5789 -0.2590 -0.0054
  671MOL0     C88450   4.517   1.768   9.592 -1.6826  0.3748 -0.4714
  671MOL0     C88451   4.461   1.905   9.595 -0.1017 -0.0113  0.0665
  671MOL0     C88452   4.311   1.894   9.630 -0.7283 -0.2600 -0.2630
  671MOL0     C88453   4.246   2.026   9.635  1.0870 -0.7594  0.5422
  671MOL0     C88454   4.096   2.011   9.677  0.4134  0.9746 -1.3862
  671MOL0     C88455   4.088   1.973   9.830  0.1064 -0.2487  0.1917
  671MOL0     C88456   3.951   1.945   9.873  0.6320  0.6112 -0.3639
  671MOL0     N88457   3.868   2.064   9.830 -0.1848 -0.4586 -0.1218
  671MOL0     C88458   3.865   2.193   9.888 -0.5128  0.3105 -0.7815
  671MOL0     C88459   3.761   2.253   9.834 -0.2581  0.7036 -0.6259
  671MOL0     C88460   3.694   2.380   9.894  0.5615 -0.1076  0.4563
  671MOL0     C88461   3.571   2.419   9.818 -0.7900 -0.4469  0.4376
  671MOL0     C88462   3.512   2.561   9.837 -0.4251 -0.1683  0.6659
  671MOL0     C88463   3.448   2.585   9.971  0.1571  0.5013 -0.4104
  671MOL0     O88464   3.398   2.719   9.987 -0.5856 -0.4690  0.3972
  671MOL0     C88465   3.269   2.737   9.948  0.2631 -0.4090  0.3110
  671MOL0     C88466   3.183   2.645   9.885  1.1593  0.8305  0.2740
  671MOL0     C88467   3.052   2.688   9.853  0.6552 -0.5176 -0.1572
  671MOL0     C88468   3.007   2.824   9.873  0.4860  1.3827 -0.4931
  671MOL0     C88469   2.864   2.853   9.846  0.4760 -0.2396 -0.0321
  671MOL0     O88470   2.835   2.985   9.842  0.4061 -0.8401  0.9383
  671MOL0     C88471   2.714   3.028   9.803  0.4110  0.4377 -0.6948
  671MOL0     C88472   2.593   2.977   9.854 -0.4184 -0.0544 -0.8026
  671MOL0     C88473   2.471   3.039   9.808 -0.1219  0.3675  0.4679
  671MOL0     C88474   2.466   3.156   9.728  0.7772 -0.0908  1.0035
  671MOL0     O88475   2.352   3.229   9.696 -0.0573  0.9758  0.0080
  671MOL0     C88476   2.249   3.224   9.794 -0.0615  0.8435  0.5624
  671MOL0     C88477   2.132   3.120   9.749 -0.3103 -0.5629  0.2488
  671MOL0     C88478   2.038   3.174   9.640  0.4975  0.3609 -0.9130
  671MOL0     C88479   1.979   3.305   9.663 -0.4351 -0.8032 -0.2142
  671MOL0     C88480   1.885   3.345   9.546 -0.4953 -0.1591  0.8899
  671MOL0     C88481   1.845   3.498   9.553 -0.1515  0.3686  0.1043
  671MOL0     C88482   1.751   3.531   9.677  0.1506  0.2235 -0.4319
  671MOL0     C88483   1.613   3.469   9.665 -0.5951  0.1224  0.4872
  671MOL0    Cl88484   1.526   3.545   9.528 -0.1974 -0.1735 -0.0355
  671MOL0     C88485   2.590   3.206   9.690 -0.0104 -0.1388  0.3738
  671MOL0     C88486   2.711   3.141   9.722 -0.6796 -0.6956 -0.4913
  671MOL0     O88487   2.777   2.760   9.835 -0.3270 -0.1084  0.0293
  671MOL0     C88488   3.107   2.912   9.918 -0.3951 -0.3494 -0.2996
  671MOL0     C88489   3.240   2.867   9.956 -0.1154  0.8133  0.6758
  671MOL0     N88490   3.722   2.175   9.733  0.2345  0.2510  0.1861
  671MOL0     N88491   3.784   2.062   9.720  0.5878  0.6468 -0.0632
  671MOL0     C88492   4.928   1.717   9.452 -0.4369 -0.1239  0.3002
  671MOL0     C88493   5.051   1.706   9.394 -0.1173 -0.5131  0.6803
  671MOL0     C88494   5.414   1.791   9.134  0.4419  0.1848  0.3967
  671MOL0     C88495   5.426   1.682   9.044  0.3860 -0.6520 -0.5721
  671MOL0     C88496   5.520   1.683   8.953  0.6366  0.5512 -0.9028
  671MOL0     C88497   5.624   1.785   8.947 -0.9979  0.5399  0.2730
  671MOL0     O88498   5.711   1.806   8.842  0.7395 -0.7652  0.5871
  671MOL0     C88499   5.721   1.715   8.728 -0.0257 -0.2239 -0.3288
  671MOL0     C88500   5.829   1.767   8.633 -0.5367 -0.8478 -0.7612
  671MOL0     C88501   5.806   1.723   8.485 -0.9066 -0.7933 -0.4771
  671MOL0     C88502   5.847   1.583   8.456  0.6011  0.7415 -0.2569
  671MOL0     C88503   5.851   1.565   8.314  0.0063 -0.0087 -0.0851
  671MOL0     C88504   5.858   1.548   8.192 -0.1768  0.4971  0.0036
  671MOL0     C88505   5.619   1.881   9.045 -0.6682 -0.6238 -0.5581
  671MOL0     C88506   5.512   1.887   9.134  0.3864  0.0479  0.3898
  671MOL0     H88507   5.003   1.862   9.100  0.8882  2.9126  0.9710
  671MOL0     H88508   4.765   1.886   9.210 -0.2759  0.8070  1.7467
  671MOL0     H88509   4.703   1.837   9.652 -1.2122 -0.4296  0.5360
  671MOL0     H88510   4.705   1.665   9.608 -3.4454 -1.7722 -0.7930
  671MOL0     H88511   4.483   1.706   9.676 -1.0514  2.2946  1.2959
  671MOL0     H88512   4.476   1.719   9.504  1.7794 -2.8263 -0.5408
  671MOL0     H88513   4.481   1.960   9.503  0.8813  0.0543  0.3144
  671MOL0     H88514   4.523   1.960   9.667  0.1853  0.4766 -0.5456
  671MOL0     H88515   4.272   1.839   9.544 -0.3013  2.2218 -2.1629
  671MOL0     H88516   4.302   1.823   9.713 -1.3263 -1.2616 -1.1591
  671MOL0     H88517   4.253   2.086   9.544  2.0282  1.0775  1.7623
  671MOL0     H88518   4.286   2.087   9.717  1.4657  0.5190 -0.5556
  671MOL0     H88519   4.044   1.932   9.623 -0.4329  1.2121 -0.9375
  671MOL0     H88520   4.059   2.113   9.672 -0.8937  0.4990 -1.6405
  671MOL0     H88521   4.138   1.878   9.851 -1.9602 -1.2972  0.5833
  671MOL0     H88522   4.125   2.063   9.880  0.4652  0.1700 -0.8070
  671MOL0     H88523   3.942   1.927   9.981 -1.2046 -0.4924 -0.6416
  671MOL0     H88524   3.903   1.864   9.817  0.1101  1.9374 -1.9389
  671MOL0     H88525   3.914   2.218   9.981  0.5156 -0.3593 -1.1246
  671MOL0     H88526   3.761   2.466   9.888  1.9914 -1.1527  0.8174
  671MOL0     H88527   3.666   2.361   9.999 -0.8726  0.1194  0.1362
  671MOL0     H88528   3.492   2.352   9.853 -2.5280  1.3085  0.0313
  671MOL0     H88529   3.593   2.412   9.711  2.2071  2.6008  0.6937
  671MOL0     H88530   3.587   2.637   9.817 -0.3505 -0.3817  0.1094
  671MOL0     H88531   3.439   2.567   9.756  1.0748  0.3772 -0.6971
  671MOL0     H88532   3.524   2.567  10.048 -0.5567 -4.2063 -0.4968
  671MOL0     H88533   3.371   2.510   9.989 -1.1736  2.3444  2.1164
  671MOL0     H88534   3.220   2.545   9.866  0.6383  0.2417  2.1676
  671MOL0     H88535   2.988   2.614   9.807  2.3203 -2.4777  0.5005
  671MOL0     H88536   2.592   2.896   9.926  0.7965 -0.7847 -1.5785
  671MOL0     H88537   2.377   2.998   9.845 -0.8189 -0.5267 -2.0924
  671MOL0     H88538   2.203   3.323   9.797 -0.0438  0.9483 -1.2802
  671MOL0     H88539   2.287   3.207   9.895  0.2814 -1.3612  0.1065
  671MOL0     H88540   2.074   3.093   9.837 -1.5540  1.5034  0.1423
  671MOL0     H88541   2.183   3.029   9.716 -1.7479 -0.9252 -1.1089
  671MOL0     H88542   1.961   3.096   9.645 -0.8648  1.7450  1.6557
  671MOL0     H88543   2.081   3.164   9.539 -1.1600 -0.6294 -1.5612
  671MOL0     H88544   1.928   3.308   9.759  0.6277  1.9961  0.3555
  671MOL0     H88545   2.057   3.382   9.670  2.2090 -3.3578  0.6496
  671MOL0     H88546   1.791   3.290   9.549  0.0066 -1.3015 -1.4147
  671MOL0     H88547   1.936   3.310   9.455  1.6377  0.4028  1.8104
  671MOL0     H88548   1.799   3.530   9.460  0.5692  3.3093  0.6464
  671MOL0     H88549   1.929   3.568   9.556 -1.4558  2.0606 -0.8917
  671MOL0     H88550   1.814   3.505   9.762  1.0469  2.3529 -0.3975
  671MOL0     H88551   1.741   3.640   9.676  3.9158  0.6714 -0.7722
  671MOL0     H88552   1.559   3.480   9.760  1.2415  0.5198  1.5386
  671MOL0     H88553   1.628   3.362   9.645 -0.6124  0.4685 -1.5653
  671MOL0     H88554   2.584   3.296   9.631  0.3506 -0.1751  0.2827
  671MOL0     H88555   2.811   3.167   9.689 -0.4879 -2.0216 -1.0074
  671MOL0     H88556   3.093   3.019   9.930  0.9495 -0.3178  1.2230
  671MOL0     H88557   3.301   2.944  10.002  0.3496  1.5096 -1.0326
  671MOL0     H88558   4.924   1.686   9.555  2.7690  2.1947  1.2716
  671MOL0     H88559   5.119   1.645   9.453  1.9131 -1.4141 -2.3316
  671MOL0     H88560   5.348   1.606   9.049 -0.4378  0.2192  3.4155
  671MOL0     H88561   5.511   1.596   8.888 -1.0289  0.7372 -0.9696
  671MOL0     H88562   5.625   1.703   8.678 -0.3992 -1.7313  0.7030
  671MOL0     H88563   5.759   1.619   8.763  0.0865  0.9065  2.9724
  671MOL0     H88564   5.827   1.876   8.638  0.6202 -0.7639 -1.6960
  671MOL0     H88565   5.927   1.742   8.675 -0.9109  0.8535  1.3536
  671MOL0     H88566   5.859   1.789   8.416  0.6038 -1.4801 -0.0167
  671MOL0     H88567   5.700   1.731   8.459 -0.7814  1.1142 -0.5136
  671MOL0     H88568   5.949   1.567   8.491  0.0828  0.7001  1.3099
  671MOL0     H88569   5.777   1.510   8.498  1.1001 -2.0119 -3.7305
  671MOL0     H88570   5.852   1.525   8.088  0.3472  1.1809 -0.1838
  671MOL0     H88571   5.693   1.959   9.031  0.1861 -1.8670 -4.2308
  671MOL0     H88572   5.490   1.958   9.213 -2.9853 -0.8731  0.4466
  672MOL0     O88573   4.300   4.111   1.324 -0.2949  0.0909 -0.3189
  672MOL0     C88574   4.424   4.151   1.332 -0.1075 -0.1409  0.7968
  672MOL0     O88575   4.455   4.283   1.317  0.3721 -0.5710  0.1271
  672MOL0     C88576   4.358   4.375   1.330 -0.2827 -0.2262  0.1240
  672MOL0     C88577   4.306   4.418   1.458  0.7315  0.7446 -0.3589
  672MOL0     C88578   4.229   4.525   1.471  0.5770  0.1883  0.3122
  672MOL0     C88579   4.159   4.577   1.356 -0.4356  0.4271  0.4014
  672MOL0     O88580   4.061   4.676   1.377 -0.6273 -0.2991  0.3858
  672MOL0     C88581   3.950   4.697   1.275  0.7388 -0.8575 -0.2142
  672MOL0     C88582   3.862   4.575   1.270 -0.4078 -0.0919 -0.1097
  672MOL0     C88583   3.726   4.580   1.196  0.0028  0.1591  0.5047
  672MOL0     C88584   3.743   4.617   1.045 -0.2782 -0.7924  0.1007
  672MOL0     C88585   3.687   4.526   0.940  0.4521 -0.0818 -0.3604
  672MOL0     C88586   3.533   4.509   0.961  0.2313  0.3184  0.3858
  672MOL0     C88587   3.472   4.430   0.849 -0.9775  0.2727  0.7698
  672MOL0     C88588   3.321   4.441   0.870  0.2136  0.4046  0.0687
  672MOL0     N88589   3.260   4.309   0.844 -0.0194  0.7192  0.3594
  672MOL0     C88590   3.167   4.265   0.753 -0.3051  0.1188  0.1092
  672MOL0     C88591   3.108   4.161   0.803  0.1986  0.2110  0.6385
  672MOL0     C88592   2.996   4.075   0.742 -0.2584 -0.4737 -0.8153
  672MOL0     C88593   3.029   4.045   0.594  0.1380 -0.3769  0.7631
  672MOL0     C88594   3.154   3.957   0.573 -0.5224 -0.0871 -0.0352
  672MOL0     C88595   3.119   3.806   0.596 -0.3759 -0.4011 -0.6900
  672MOL0     O88596   3.224   3.718   0.560 -0.1998 -0.0792  0.2300
  672MOL0     C88597   3.312   3.666   0.648  0.3420 -1.2257 -0.1734
  672MOL0     C88598   3.401   3.573   0.602  0.3679  0.1704  0.0123
  672MOL0     C88599   3.504   3.519   0.678 -0.1967 -0.1715 -0.4077
  672MOL0     C88600   3.516   3.563   0.810 -0.5686  0.8814  0.2913
  672MOL0     C88601   3.625   3.525   0.896 -0.8762  0.0079  0.7254
  672MOL0     O88602   3.727   3.476   0.828 -0.1734 -0.3233 -0.1258
  672MOL0     C88603   3.859   3.459   0.872  0.5058 -0.0712 -0.2020
  672MOL0     C88604   3.889   3.454   1.013  0.0041  0.2671 -0.8098
  672MOL0     C88605   4.022   3.431   1.051 -0.0236  0.0530 -0.2085
  672MOL0     C88606   4.118   3.427   0.952 -0.8528 -0.1664  0.5381
  672MOL0     O88607   4.248   3.398   0.981 -0.3959 -1.0207  0.0353
  672MOL0     C88608   4.298   3.345   1.102  0.0455  0.1964  0.9786
  672MOL0     C88609   4.447   3.329   1.097 -0.1376 -0.3532  0.1619
  672MOL0     C88610   4.516   3.452   1.156  1.0198 -0.9071  0.9343
  672MOL0     C88611   4.623   3.531   1.064 -0.7838  0.3193 -0.2093
  672MOL0     C88612   4.566   3.604   0.943  0.1226  0.3670  0.0644
  672MOL0     C88613   4.478   3.724   0.976 -0.1905  0.2218  0.1548
  672MOL0     C88614   4.440   3.792   0.846 -0.3062  0.4508 -0.5171
  672MOL0     C88615   4.325   3.894   0.859  1.0406  0.5613  0.8170
  672MOL0    Cl88616   4.179   3.801   0.854 -0.3181  0.5395  0.1428
  672MOL0     C88617   4.090   3.468   0.824 -0.2191 -0.3714  0.6704
  672MOL0     C88618   3.959   3.472   0.778 -0.3161  0.0363  0.8370
  672MOL0     O88619   3.620   3.559   1.009 -0.5449  0.5776 -0.8366
  672MOL0     C88620   3.433   3.665   0.855  1.2586  0.0849  0.7526
  672MOL0     C88621   3.322   3.703   0.784  1.3361  0.5937  0.5982
  672MOL0     N88622   3.182   4.114   0.903 -0.1164  0.7415 -0.4607
  672MOL0     N88623   3.270   4.208   0.935  0.8712  0.2242  0.0125
  672MOL0     C88624   4.192   4.529   1.230 -0.3882 -0.1625 -0.5702
  672MOL0     C88625   4.295   4.435   1.214 -0.3195 -0.0281  0.7599
  672MOL0     C88626   4.536   4.052   1.344  0.0120 -0.9180 -0.2819
  672MOL0     C88627   4.506   3.909   1.339 -0.0822 -0.2073 -0.2143
  672MOL0     C88628   4.605   3.810   1.343 -0.0643 -0.7269 -0.1810
  672MOL0     C88629   4.732   3.846   1.363  0.6734 -0.0672  0.3830
  672MOL0     O88630   4.839   3.761   1.381 -0.7760 -0.5869  0.2736
  672MOL0     C88631   4.835   3.618   1.357 -0.0054 -0.0819  0.1957
  672MOL0     C88632   4.969   3.558   1.420  0.5572 -0.6718  0.5215
  672MOL0     C88633   4.939   3.492   1.557  0.4065  0.3495 -0.2534
  672MOL0     C88634   5.066   3.424   1.608 -0.1798 -0.1836  0.1388
  672MOL0     C88635   5.042   3.276   1.613  0.8904 -0.2813  0.1537
  672MOL0     C88636   5.033   3.157   1.625 -0.1005 -0.1001 -0.9793
  672MOL0     C88637   4.757   3.992   1.380  0.2549 -0.8365 -0.0099
  672MOL0     C88638   4.669   4.097   1.364  0.0721  0.4077 -0.3244
  672MOL0     H88639   4.338   4.365   1.548 -1.9581 -0.4986 -0.0291
  672MOL0     H88640   4.205   4.570   1.567  0.6325  1.6164 -0.3179
  672MOL0     H88641   3.983   4.721   1.173  1.0134  2.0479  0.4844
  672MOL0     H88642   3.896   4.787   1.307  4.2307  2.2088 -2.1826
  672MOL0     H88643   3.843   4.548   1.374  3.0829  4.3771  2.0546
  672MOL0     H88644   3.914   4.492   1.220 -2.1579 -1.8915  0.9262
  672MOL0     H88645   3.656   4.649   1.244 -0.7104  1.0068 -1.6297
  672MOL0     H88646   3.689   4.479   1.217 -0.1751  0.5140  2.0083
  672MOL0     H88647   3.717   4.720   1.017  0.7485 -0.6952 -0.5357
  672MOL0     H88648   3.851   4.606   1.034 -0.1564 -0.8748  1.2505
  672MOL0     H88649   3.727   4.425   0.953 -0.5708 -0.9993 -3.4878
  672MOL0     H88650   3.710   4.540   0.834  0.9728  2.1932  0.0185
  672MOL0     H88651   3.497   4.612   0.949  2.2284  1.0608  0.4754
  672MOL0     H88652   3.509   4.455   1.053 -1.4572 -0.1122 -0.2535
  672MOL0     H88653   3.503   4.481   0.757 -1.0747  1.1131  1.2007
  672MOL0     H88654   3.508   4.327   0.842  0.9824  1.0258 -1.1465
  672MOL0     H88655   3.275   4.505   0.794 -0.2123 -0.7993 -0.7244
  672MOL0     H88656   3.296   4.471   0.972  1.6408 -2.6119  1.4235
  672MOL0     H88657   3.134   4.315   0.662  1.1179 -0.5301 -0.8012
  672MOL0     H88658   2.901   4.128   0.745  0.3373  0.6165 -0.4384
  672MOL0     H88659   2.995   3.980   0.796  1.4842 -1.0209 -1.6757
  672MOL0     H88660   3.052   4.143   0.552  1.6217 -2.1328 -2.9582
  672MOL0     H88661   2.952   3.998   0.533  0.1590 -0.6427  0.9382
  672MOL0     H88662   3.175   3.964   0.465 -1.2812 -4.6967 -0.6734
  672MOL0     H88663   3.239   4.009   0.617 -0.7131  0.2625 -0.0712
  672MOL0     H88664   3.029   3.781   0.538 -1.7755 -2.1827  2.0131
  672MOL0     H88665   3.088   3.793   0.700 -1.2716 -2.8018 -1.1915
  672MOL0     H88666   3.382   3.544   0.500  1.9245  2.9065 -1.1566
  672MOL0     H88667   3.559   3.432   0.645  1.7606  1.3463 -1.3747
  672MOL0     H88668   3.819   3.459   1.095  1.7341 -1.5250  0.8689
  672MOL0     H88669   4.054   3.429   1.154  1.8412  1.3302 -0.6943
  672MOL0     H88670   4.248   3.250   1.121 -0.9676  0.3412 -0.7802
  672MOL0     H88671   4.267   3.415   1.180  0.0351  1.1093  0.1773
  672MOL0     H88672   4.483   3.314   0.995 -0.2238 -1.0368  0.2241
  672MOL0     H88673   4.469   3.236   1.150 -0.6330 -1.2841 -1.2063
  672MOL0     H88674   4.548   3.426   1.257 -0.7460  3.2520  2.7887
  672MOL0     H88675   4.440   3.526   1.183  0.9177 -0.8892  0.6047
  672MOL0     H88676   4.665   3.611   1.126 -2.4381 -0.3339  1.8897
  672MOL0     H88677   4.704   3.469   1.027 -0.4043  0.2288  0.7552
  672MOL0     H88678   4.523   3.536   0.868 -1.3964  0.4138  0.8588
  672MOL0     H88679   4.656   3.640   0.893  0.7736  1.7631  2.1099
  672MOL0     H88680   4.533   3.786   1.048 -0.0446  0.3034 -0.0281
  672MOL0     H88681   4.386   3.689   1.025 -0.7908 -0.0347 -1.1249
  672MOL0     H88682   4.529   3.851   0.821  1.9451 -2.7037 -0.5220
  672MOL0     H88683   4.408   3.724   0.767 -1.2241 -2.4456  2.1484
  672MOL0     H88684   4.335   3.962   0.774 -0.7994 -1.2099 -0.9287
  672MOL0     H88685   4.336   3.953   0.950 -0.9626 -0.5231  1.8253
  672MOL0     H88686   4.176   3.491   0.761 -1.3427  0.5410 -0.6036
  672MOL0     H88687   3.935   3.476   0.672 -3.2095 -2.2270  1.2817
  672MOL0     H88688   3.452   3.717   0.948  1.0570  0.3438  0.6505
  672MOL0     H88689   3.259   3.783   0.822  2.6046  1.6454  0.5428
  672MOL0     H88690   4.145   4.560   1.137  1.4591 -1.5083 -2.0414
  672MOL0     H88691   4.326   4.416   1.112 -0.1972  0.2017  0.7534
  672MOL0     H88692   4.407   3.865   1.326  0.3500 -0.9609 -1.0604
  672MOL0     H88693   4.579   3.705   1.348  0.9930 -0.9540  3.3953
  672MOL0     H88694   4.843   3.593   1.251  2.6847 -0.4617  0.4064
  672MOL0     H88695   4.746   3.580   1.408 -0.3478  2.1688  1.4221
  672MOL0     H88696   4.999   3.483   1.346  1.5515  0.0277  0.2031
  672MOL0     H88697   5.057   3.622   1.421  0.8612 -1.0830  1.4997
  672MOL0     H88698   4.866   3.420   1.519  0.1673  0.4650 -0.0135
  672MOL0     H88699   4.897   3.546   1.642  2.1342  0.3316  0.6554
  672MOL0     H88700   5.151   3.443   1.542 -1.4192  0.1524 -1.4213
  672MOL0     H88701   5.082   3.466   1.708 -0.8713  0.7238 -0.1180
  672MOL0     H88702   5.014   3.051   1.622 -2.8527  0.3180 -2.7253
  672MOL0     H88703   4.861   4.019   1.397 -0.2718 -0.1079  2.3679
  672MOL0     H88704   4.698   4.202   1.366  0.9564  0.1546  1.2585
  673MOL0     O88705   4.363   5.990   1.295  0.3225  0.0512  0.0095
  673MOL0     C88706   4.439   6.076   1.255 -0.1148 -0.8090 -0.0209
  673MOL0     O88707   4.562   6.066   1.217  0.2132  0.4262 -0.3973
  673MOL0     C88708   4.619   5.948   1.204  0.3608  0.4399  0.6703
  673MOL0     C88709   4.674   5.876   1.314  1.0323  0.4517  0.3960
  673MOL0     C88710   4.713   5.742   1.300  0.1554 -0.6403  0.5703
  673MOL0     C88711   4.708   5.685   1.174 -0.2175 -0.2496  0.9041
  673MOL0     O88712   4.747   5.557   1.132  0.8327  0.2947  0.1091
  673MOL0     C88713   4.785   5.465   1.243 -0.2026 -0.1510 -0.8507
  673MOL0     C88714   4.839   5.338   1.174 -1.0445  0.2252 -1.0588
  673MOL0     C88715   4.872   5.234   1.283 -0.4582  1.1646 -0.0862
  673MOL0     C88716   4.918   5.105   1.222 -0.8234  0.1432  0.2229
  673MOL0     C88717   4.911   4.983   1.318 -0.1109 -0.0148 -1.1769
  673MOL0     C88718   5.031   4.969   1.410  0.4851 -0.2615 -0.7665
  673MOL0     C88719   5.108   4.843   1.392  0.5456 -0.3447  0.0484
  673MOL0     C88720   5.237   4.858   1.468 -0.1670 -0.1827  1.0917
  673MOL0     N88721   5.306   4.729   1.466  0.6518 -0.0261 -0.2298
  673MOL0     C88722   5.268   4.617   1.541  0.1794  0.0453  0.4548
  673MOL0     C88723   5.321   4.509   1.480 -0.2689 -1.2468  0.1704
  673MOL0     C88724   5.317   4.368   1.527 -0.5703 -0.2868  0.3358
  673MOL0     C88725   5.435   4.347   1.621  0.6685 -0.2829 -1.1380
  673MOL0     C88726   5.425   4.216   1.700 -0.0084 -1.6220  0.1808
  673MOL0     C88727   5.452   4.093   1.615 -0.2262 -0.8414  0.5031
  673MOL0     O88728   5.597   4.105   1.566 -0.3069 -0.7523 -0.0457
  673MOL0     C88729   5.650   3.991   1.516  0.8032  0.4742  0.6946
  673MOL0     C88730   5.785   3.990   1.485 -0.1501 -0.2401  0.3054
  673MOL0     C88731   5.862   3.881   1.445  0.0278  0.8047  0.2108
  673MOL0     C88732   5.801   3.759   1.422  0.0430 -0.3934 -0.0176
  673MOL0     C88733   5.874   3.643   1.381 -0.8198  0.5612 -0.1205
  673MOL0     O88734   5.995   3.663   1.332  0.9553  0.2124  0.6957
  673MOL0     C88735   6.071   3.566   1.272  0.2592  0.3111  0.5898
  673MOL0     C88736   6.175   3.597   1.188 -0.8833 -0.0351  0.7670
  673MOL0     C88737   6.244   3.495   1.117 -0.3014 -0.4313 -0.1764
  673MOL0     C88738   6.223   3.366   1.137 -0.1214 -0.1628 -0.4884
  673MOL0     O88739   6.278   3.281   1.048 -0.9092  0.4908 -0.3527
  673MOL0     C88740   6.264   3.136   1.058  0.4390  0.2002  0.9884
  673MOL0     C88741   6.305   3.081   0.922  0.6572 -0.0236  0.5258
  673MOL0     C88742   6.188   3.137   0.819 -0.4394 -0.2115 -0.0885
  673MOL0     C88743   6.222   3.090   0.675 -0.0180  0.0002 -0.3345
  673MOL0     C88744   6.129   3.150   0.570  0.2266  0.1258  0.8116
  673MOL0     C88745   6.175   3.275   0.509 -0.4524 -0.1125 -0.8851
  673MOL0     C88746   6.091   3.357   0.405 -0.3010  0.1904 -0.0176
  673MOL0     C88747   6.064   3.284   0.268  0.7174 -0.4161 -0.4341
  673MOL0    Cl88748   5.914   3.172   0.262 -0.1256  0.3030 -0.1121
  673MOL0     C88749   6.142   3.334   1.239  0.1474 -0.5455 -0.3377
  673MOL0     C88750   6.065   3.432   1.319 -0.8141  1.0821  0.4376
  673MOL0     O88751   5.810   3.537   1.377 -0.1048 -0.4268 -0.4348
  673MOL0     C88752   5.657   3.753   1.448 -0.3183 -0.0770  0.4430
  673MOL0     C88753   5.593   3.864   1.494 -0.0713 -0.8164 -0.2398
  673MOL0     N88754   5.385   4.553   1.370 -0.3966 -0.2046  0.5814
  673MOL0     N88755   5.374   4.679   1.360  0.4008  0.3160  0.6457
  673MOL0     C88756   4.647   5.750   1.069 -0.3634 -0.5411  1.0207
  673MOL0     C88757   4.604   5.887   1.077 -1.1849 -0.2839  0.5692
  673MOL0     C88758   4.382   6.203   1.223  0.7605  0.2456  0.1134
  673MOL0     C88759   4.239   6.219   1.240  0.6941  0.0979  0.3159
  673MOL0     C88760   4.176   6.341   1.216 -1.2201  0.5805 -0.6655
  673MOL0     C88761   4.267   6.447   1.181  1.1277  0.3512  0.2306
  673MOL0     O88762   4.216   6.566   1.157 -0.2950 -0.6972 -0.5493
  673MOL0     C88763   4.093   6.606   1.220 -0.2460  0.1511 -0.3447
  673MOL0     C88764   4.096   6.757   1.227  0.3300 -0.7190 -0.0869
  673MOL0     C88765   4.224   6.813   1.308 -0.5603  0.8921  0.4028
  673MOL0     C88766   4.198   6.941   1.391 -0.0736  0.7983 -0.9613
  673MOL0     C88767   4.304   6.975   1.488 -0.0541 -0.3138 -0.4166
  673MOL0     C88768   4.398   7.003   1.562  0.3987  0.3697  0.0179
  673MOL0     C88769   4.395   6.428   1.147  0.1887 -0.2425 -0.9563
  673MOL0     C88770   4.455   6.306   1.166 -0.5727 -0.7395  0.1564
  673MOL0     H88771   4.685   5.912   1.416 -2.9538  1.9484  0.4627
  673MOL0     H88772   4.734   5.686   1.390 -3.7823  0.4287  2.3582
  673MOL0     H88773   4.708   5.452   1.320  1.2462  1.0498  0.8953
  673MOL0     H88774   4.860   5.517   1.302 -0.4210  0.2499 -0.9261
  673MOL0     H88775   4.927   5.365   1.114 -0.5834 -2.3285 -1.6239
  673MOL0     H88776   4.769   5.285   1.110 -1.5173 -0.8971  0.3433
  673MOL0     H88777   4.775   5.210   1.328 -1.0034  1.6083 -0.9942
  673MOL0     H88778   4.938   5.276   1.359 -2.1491  1.2633  1.3688
  673MOL0     H88779   4.855   5.084   1.135 -1.5789  1.5100  0.4000
  673MOL0     H88780   5.023   5.108   1.192  0.0262 -0.5052  2.8859
  673MOL0     H88781   4.894   4.891   1.260 -2.5918  0.1788 -0.8532
  673MOL0     H88782   4.822   4.991   1.380 -0.3451 -0.4752 -1.4467
  673MOL0     H88783   5.001   4.967   1.515  1.6414 -0.8313 -0.4279
  673MOL0     H88784   5.104   5.046   1.385  2.1175 -1.6915 -0.6202
  673MOL0     H88785   5.040   4.764   1.425 -0.3813  1.1860  1.9934
  673MOL0     H88786   5.126   4.835   1.284  1.6233  0.3902  0.1550
  673MOL0     H88787   5.208   4.871   1.573 -0.3801 -4.6240  1.7827
  673MOL0     H88788   5.306   4.930   1.423 -2.5886  2.0338  0.6634
  673MOL0     H88789   5.228   4.636   1.640  3.0961 -0.4318  1.8151
  673MOL0     H88790   5.328   4.310   1.434 -0.3970  2.1575 -1.2603
  673MOL0     H88791   5.221   4.347   1.576 -0.2029 -1.9078  0.4095
  673MOL0     H88792   5.418   4.425   1.695 -3.0867 -2.9349  1.1667
  673MOL0     H88793   5.522   4.369   1.558  1.0411  1.2529 -0.1474
  673MOL0     H88794   5.504   4.209   1.776  2.1837 -1.8319 -1.9848
  673MOL0     H88795   5.329   4.203   1.750  1.1587 -2.2415  2.4207
  673MOL0     H88796   5.395   4.093   1.521  1.7483 -0.1905 -0.7636
  673MOL0     H88797   5.432   4.004   1.674 -0.1073  0.5825  2.8150
  673MOL0     H88798   5.842   4.081   1.495  2.0923 -1.2536 -2.0627
  673MOL0     H88799   5.968   3.897   1.424 -0.1847  1.5532 -0.3397
  673MOL0     H88800   6.202   3.702   1.183  0.2061 -0.2948  0.9075
  673MOL0     H88801   6.319   3.522   1.044 -0.6432  1.2083  0.0412
  673MOL0     H88802   6.164   3.106   1.088  0.3767  0.5714  1.1553
  673MOL0     H88803   6.328   3.087   1.132  1.8858  0.2485 -0.1843
  673MOL0     H88804   6.298   2.971   0.925  1.3834 -0.0538  1.6568
  673MOL0     H88805   6.403   3.107   0.881  0.1035 -0.2371 -0.9932
  673MOL0     H88806   6.187   3.246   0.827 -0.2579 -0.3357  2.3883
  673MOL0     H88807   6.091   3.093   0.843  1.7948 -3.5371  4.5322
  673MOL0     H88808   6.325   3.119   0.653  0.0700 -0.1383 -0.1089
  673MOL0     H88809   6.214   2.981   0.675 -0.7635 -0.0534  3.2580
  673MOL0     H88810   6.035   3.179   0.619  0.1715 -0.6906  1.2127
  673MOL0     H88811   6.106   3.069   0.499 -1.0822 -3.1256  4.5489
  673MOL0     H88812   6.274   3.261   0.467 -1.0442  2.9325 -3.7047
  673MOL0     H88813   6.181   3.339   0.598  1.8293 -2.2952  0.6818
  673MOL0     H88814   5.994   3.390   0.443 -2.8040 -5.1024 -0.9547
  673MOL0     H88815   6.158   3.434   0.365  2.2000 -2.0664 -0.4545
  673MOL0     H88816   6.157   3.242   0.228 -1.1595 -0.5910 -5.1871
  673MOL0     H88817   6.032   3.353   0.190  2.0826  3.4931  2.1649
  673MOL0     H88818   6.123   3.235   1.279  1.6503 -1.7995 -2.5162
  673MOL0     H88819   6.003   3.405   1.404 -0.5468  0.3084  0.3949
  673MOL0     H88820   5.594   3.665   1.442  0.3682 -0.4853 -2.6483
  673MOL0     H88821   5.493   3.849   1.534 -1.0812  0.5417 -2.0696
  673MOL0     H88822   4.636   5.704   0.971 -2.1453  1.3539  0.2555
  673MOL0     H88823   4.549   5.929   0.994 -2.1064 -5.3479 -1.7788
  673MOL0     H88824   4.170   6.140   1.268 -2.2051  1.6257 -1.8977
  673MOL0     H88825   4.071   6.345   1.240 -1.4628 -2.7470 -0.7612
  673MOL0     H88826   4.074   6.562   1.319 -1.4371 -0.0041 -0.6331
  673MOL0     H88827   4.008   6.571   1.162  0.0524  0.8028 -1.1851
  673MOL0     H88828   4.081   6.811   1.133  0.3251 -2.5703 -1.2129
  673MOL0     H88829   4.010   6.776   1.291 -1.0332 -5.3070 -0.1873
  673MOL0     H88830   4.308   6.813   1.237 -1.5410 -2.5499 -0.9542
  673MOL0     H88831   4.253   6.729   1.372  0.4778  0.3544 -0.7259
  673MOL0     H88832   4.174   7.025   1.324  1.4000  2.3291  0.3416
  673MOL0     H88833   4.107   6.920   1.448  0.7983 -1.5464 -0.3427
  673MOL0     H88834   4.478   7.015   1.632 -0.5956 -5.3440  2.7598
  673MOL0     H88835   4.449   6.521   1.135 -0.5155  0.0910 -1.6581
  673MOL0     H88836   4.560   6.313   1.141 -0.5841 -0.9495  0.0462
  674MOL0     O88837   9.592   0.076   9.915 -0.3830  0.0278 -0.4762
  674MOL0     C88838   9.711   0.127   9.927  0.4809  0.6445  0.6413
  674MOL0     O88839   9.814   0.078  10.012 -0.1648  0.1234 -0.7097
  674MOL0     C88840   9.796   0.004  10.124  0.5085 -0.2473 -0.6955
  674MOL0     C88841   9.907  -0.017  10.204 -0.3949  0.0202  0.4753
  674MOL0     C88842   9.914  -0.101  10.318 -0.5897 -0.8018  0.5291
  674MOL0     C88843   9.796  -0.164  10.357 -0.7543 -0.2306  1.0557
  674MOL0     O88844   9.804  -0.257  10.447 -0.9533 -0.5893  0.0425
  674MOL0     C88845   9.733  -0.386  10.429 -0.9953 -0.3603 -0.6400
  674MOL0     C88846   9.600  -0.388  10.507  1.0865 -0.4550 -0.0733
  674MOL0     C88847   9.599  -0.514  10.589  0.0349 -0.0128 -0.1620
  674MOL0     C88848   9.458  -0.542  10.646  0.1224  0.5585  0.5871
  674MOL0     C88849   9.448  -0.671  10.727  0.7868 -0.7812 -0.3148
  674MOL0     C88850   9.309  -0.728  10.729  0.5330  0.0897  0.1133
  674MOL0     C88851   9.268  -0.809  10.605  0.7651  0.6940 -0.1034
  674MOL0     C88852   9.122  -0.859  10.627 -0.2104 -0.4981 -0.2466
  674MOL0     N88853   9.117  -0.975  10.712 -0.2734 -0.3293 -0.8419
  674MOL0     C88854   9.064  -0.973  10.837  0.2681 -0.5514  0.6005
  674MOL0     C88855   9.085  -1.100  10.882  0.2397 -0.1578  0.5020
  674MOL0     C88856   9.020  -1.165  11.001  0.8357  0.8763  0.2380
  674MOL0     C88857   9.121  -1.260  11.054 -0.1494 -0.2199  0.0579
  674MOL0     C88858   9.075  -1.339  11.172  0.4494  1.2761 -1.1282
  674MOL0     C88859   8.942  -1.420  11.140 -0.4606  0.2714  0.4392
  674MOL0     O88860   8.924  -1.529  11.233  0.3167  0.1935 -0.0050
  674MOL0     C88861   8.823  -1.511  11.319  0.2872  0.2259  0.9964
  674MOL0     C88862   8.695  -1.511  11.272 -0.4684  0.0960 -0.7997
  674MOL0     C88863   8.591  -1.509  11.358  0.4741 -0.2354 -0.8041
  674MOL0     C88864   8.612  -1.507  11.504  0.3693  0.7018 -0.0159
  674MOL0     C88865   8.488  -1.514  11.592 -0.4664 -0.7049 -0.4463
  674MOL0     O88866   8.400  -1.616  11.576  0.3037  0.3394  0.2028
  674MOL0     C88867   8.301  -1.633  11.668 -0.9920 -0.8320  0.6433
  674MOL0     C88868   8.213  -1.524  11.701  0.2980  0.7951  0.7915
  674MOL0     C88869   8.095  -1.546  11.779  0.4606 -0.0526  0.1635
  674MOL0     C88870   8.069  -1.677  11.823 -1.0103  0.5433 -0.5212
  674MOL0     O88871   7.955  -1.713  11.886  0.1555  0.9814  0.0214
  674MOL0     C88872   7.907  -1.628  11.984  0.4913  0.2136 -0.0223
  674MOL0     C88873   7.979  -1.666  12.114 -0.9961  0.6690  0.0745
  674MOL0     C88874   7.891  -1.627  12.233 -0.8284  0.0745 -0.2636
  674MOL0     C88875   7.942  -1.663  12.372 -0.4436 -0.0069  0.3392
  674MOL0     C88876   8.042  -1.548  12.420  0.0776 -0.6359 -0.0712
  674MOL0     C88877   8.042  -1.521  12.577 -0.2259 -0.5536  0.4765
  674MOL0     C88878   8.128  -1.400  12.605 -0.6625 -0.1313  0.1662
  674MOL0     C88879   8.129  -1.375  12.747 -0.4959  0.2930 -0.3586
  674MOL0    Cl88880   8.283  -1.296  12.775  0.2903  0.5284  0.0987
  674MOL0     C88881   8.165  -1.769  11.803  0.1760 -0.6338  0.8413
  674MOL0     C88882   8.284  -1.747  11.736  0.4573  0.1540 -0.8465
  674MOL0     O88883   8.494  -1.444  11.691  0.7572  0.5214 -0.8388
  674MOL0     C88884   8.739  -1.496  11.554  0.7758  0.1157  0.6847
  674MOL0     C88885   8.847  -1.505  11.464 -0.8498  1.0083  0.3651
  674MOL0     N88886   9.141  -1.175  10.787  0.1974 -0.1207  0.8742
  674MOL0     N88887   9.168  -1.102  10.678 -1.5424 -0.5402  0.1485
  674MOL0     C88888   9.686  -0.150  10.269  0.7748  0.9106  0.3979
  674MOL0     C88889   9.683  -0.068  10.152 -0.8601  0.1212  0.9964
  674MOL0     C88890   9.747   0.227   9.830  0.6633 -0.1579  1.3792
  674MOL0     C88891   9.646   0.292   9.752 -0.3218 -0.3937  0.3826
  674MOL0     C88892   9.692   0.383   9.650 -0.4497  0.1335 -0.9060
  674MOL0     C88893   9.825   0.412   9.623  0.2061  0.1259 -0.2635
  674MOL0     O88894   9.843   0.498   9.519 -0.0317 -0.6284  0.3421
  674MOL0     C88895   9.974   0.507   9.461  0.1158  0.0793 -0.2730
  674MOL0     C88896   9.963   0.626   9.366  0.0548  0.4064  0.4880
  674MOL0     C88897  10.006   0.758   9.429 -0.1427  0.8892 -0.6417
  674MOL0     C88898   9.954   0.885   9.359  0.5470 -0.5068 -0.2087
  674MOL0     C88899  10.023   0.918   9.235 -0.1556 -0.5345 -0.0416
  674MOL0     C88900  10.062   0.932   9.125 -0.0439 -1.0929 -0.1448
  674MOL0     C88901   9.923   0.348   9.698  0.0722  0.5027 -0.9935
  674MOL0     C88902   9.885   0.252   9.792 -0.0309  0.3156  0.4796
  674MOL0     H88903   9.998   0.034  10.175 -1.5734  1.6563 -0.4718
  674MOL0     H88904  10.003  -0.135  10.369 -0.8074 -2.7049 -0.2739
  674MOL0     H88905   9.799  -0.465  10.468  0.5801  1.5835  0.8557
  674MOL0     H88906   9.719  -0.408  10.323 -0.7040 -1.9329 -0.3750
  674MOL0     H88907   9.516  -0.373  10.438  0.9257 -1.9479 -0.2362
  674MOL0     H88908   9.596  -0.294  10.562  0.9884  1.9513 -3.8499
  674MOL0     H88909   9.667  -0.515  10.675  0.2196 -0.7412 -0.3093
  674MOL0     H88910   9.631  -0.594  10.521  1.7223 -1.5053  2.2117
  674MOL0     H88911   9.427  -0.457  10.707  0.2779  1.1769 -0.1771
  674MOL0     H88912   9.387  -0.542  10.563 -2.6130 -0.4237  2.7537
  674MOL0     H88913   9.483  -0.648  10.828 -0.4617 -0.3802  0.0528
  674MOL0     H88914   9.503  -0.752  10.680 -1.1339 -0.2831 -3.7501
  674MOL0     H88915   9.232  -0.653  10.747  0.5885 -0.2169  1.7353
  674MOL0     H88916   9.310  -0.798  10.813  0.9147 -0.5699 -0.4229
  674MOL0     H88917   9.288  -0.763  10.508  0.6370 -0.3952 -0.6653
  674MOL0     H88918   9.333  -0.897  10.600 -1.6609 -1.2044 -0.0442
  674MOL0     H88919   9.102  -0.891  10.525  3.0263 -3.7502 -0.0816
  674MOL0     H88920   9.049  -0.780  10.648  1.6266  1.0511  0.6311
  674MOL0     H88921   9.010  -0.888  10.880  0.9195 -0.1875  0.7092
  674MOL0     H88922   8.926  -1.207  10.964  0.4413  0.6299  1.4757
  674MOL0     H88923   8.983  -1.095  11.077  1.9453  0.1797  1.4545
  674MOL0     H88924   9.208  -1.199  11.080  0.5131 -1.8038  1.8654
  674MOL0     H88925   9.164  -1.331  10.984  1.6825  2.4416 -1.6783
  674MOL0     H88926   9.149  -1.409  11.212 -0.7289  1.7100  2.1941
  674MOL0     H88927   9.058  -1.273  11.258 -0.0565  0.4738 -0.5984
  674MOL0     H88928   8.953  -1.461  11.039 -0.3434  1.8231 -0.2035
  674MOL0     H88929   8.860  -1.347  11.145 -0.4206  0.3388  0.1440
  674MOL0     H88930   8.670  -1.513  11.167  1.4080 -0.1171 -1.2811
  674MOL0     H88931   8.489  -1.521  11.322 -0.4826 -1.6694  2.0432
  674MOL0     H88932   8.221  -1.425  11.657  2.0548  1.2349  1.9894
  674MOL0     H88933   8.029  -1.460  11.786  1.2667  0.5420  0.7172
  674MOL0     H88934   7.800  -1.651  11.988  0.4946  0.3425  3.1601
  674MOL0     H88935   7.920  -1.520  11.971 -0.6082  0.3714  0.1134
  674MOL0     H88936   8.075  -1.614  12.127 -0.0899 -1.3682  2.2360
  674MOL0     H88937   7.996  -1.774  12.121 -1.5247  0.6691  1.8053
  674MOL0     H88938   7.793  -1.672  12.215 -2.0548  3.0870 -1.7657
  674MOL0     H88939   7.878  -1.518  12.228 -1.9058 -0.0939 -1.8441
  674MOL0     H88940   7.855  -1.656  12.439 -1.7522  3.2846 -1.4900
  674MOL0     H88941   7.989  -1.762  12.373 -1.3382 -0.5774 -2.8905
  674MOL0     H88942   8.027  -1.453  12.368  0.4421  1.8088  3.8713
  674MOL0     H88943   8.145  -1.574  12.393  1.0060 -0.5518  3.0250
  674MOL0     H88944   8.098  -1.606  12.619 -1.2289 -2.5529 -1.9430
  674MOL0     H88945   7.944  -1.508  12.622 -0.7321  0.5165 -0.8705
  674MOL0     H88946   8.229  -1.417  12.569 -0.3292  2.2944 -0.2148
  674MOL0     H88947   8.085  -1.317  12.548  0.2599  0.2041 -0.0427
  674MOL0     H88948   8.128  -1.471  12.800  1.2927  0.3038 -0.2292
  674MOL0     H88949   8.047  -1.309  12.777 -0.6365 -0.3875  0.7996
  674MOL0     H88950   8.131  -1.871  11.821  1.0225 -1.1773 -0.4363
  674MOL0     H88951   8.355  -1.827  11.719  2.1128  1.8534 -2.6457
  674MOL0     H88952   8.753  -1.484  11.661  2.8915 -3.7374  1.0332
  674MOL0     H88953   8.948  -1.496  11.503 -0.8125 -1.4062  0.9688
  674MOL0     H88954   9.596  -0.206  10.290  1.7099  0.1929  2.8416
  674MOL0     H88955   9.587  -0.054  10.103 -2.2955  4.8430  4.3300
  674MOL0     H88956   9.541   0.271   9.765 -0.4766  0.2147  0.1493
  674MOL0     H88957   9.615   0.420   9.583 -0.7759  0.7895 -0.1846
  674MOL0     H88958   9.986   0.413   9.405 -1.0965  0.8918 -1.9661
  674MOL0     H88959  10.049   0.518   9.541 -1.3691  4.1173  0.7967
  674MOL0     H88960  10.021   0.618   9.274  0.9908  1.5356  0.9552
  674MOL0     H88961   9.859   0.630   9.333  0.0366 -0.5379  0.4033
  674MOL0     H88962  10.115   0.765   9.428 -0.2193  2.4665 -1.6289
  674MOL0     H88963   9.980   0.771   9.535  1.6293  1.9680 -0.2954
  674MOL0     H88964   9.848   0.872   9.340  0.4734  2.9883 -3.5692
  674MOL0     H88965   9.977   0.970   9.424 -0.4924 -0.8401  0.6238
  674MOL0     H88966  10.111   0.942   9.031  1.5351  3.0152  0.8962
  674MOL0     H88967  10.028   0.355   9.672  0.1968 -1.8629 -1.3492
  674MOL0     H88968   9.958   0.196   9.850 -1.4327 -3.1750 -0.9045
  675MOL0     O88969   6.798   4.527   1.643  0.5827 -0.1380  0.0466
  675MOL0     C88970   6.842   4.610   1.564 -0.6071  0.6583 -0.6554
  675MOL0     O88971   6.817   4.744   1.568  0.3880  0.0261 -0.7500
  675MOL0     C88972   6.773   4.808   1.686  0.4163 -0.4656  0.0951
  675MOL0     C88973   6.829   4.936   1.695  0.0796 -0.2720  0.7325
  675MOL0     C88974   6.801   5.013   1.809  0.2901 -0.2250 -0.2432
  675MOL0     C88975   6.709   4.960   1.903 -0.7374 -0.5702  0.2398
  675MOL0     O88976   6.691   5.036   2.020  0.1681 -0.0719 -0.2011
  675MOL0     C88977   6.568   5.115   2.007  0.1649  0.5565 -0.3179
  675MOL0     C88978   6.526   5.161   2.142  0.6708  0.7077  0.5524
  675MOL0     C88979   6.640   5.236   2.210  0.6758 -0.2281  0.6790
  675MOL0     C88980   6.583   5.291   2.344  0.7737  0.9221 -1.1844
  675MOL0     C88981   6.668   5.397   2.413 -1.1285  0.3882 -0.1173
  675MOL0     C88982   6.811   5.333   2.433 -0.0082 -0.5502  0.6631
  675MOL0     C88983   6.887   5.400   2.548 -0.1566 -0.6706  0.1388
  675MOL0     C88984   7.027   5.353   2.552 -0.0421  0.0537  0.6683
  675MOL0     N88985   7.106   5.388   2.673  1.1173  0.4639 -0.3458
  675MOL0     C88986   7.081   5.356   2.813 -0.2458  0.0774 -0.1627
  675MOL0     C88987   7.173   5.434   2.878  0.5218  0.3274 -0.2577
  675MOL0     C88988   7.180   5.446   3.033  0.3167  1.1264  0.2284
  675MOL0     C88989   7.159   5.591   3.071 -0.0437 -0.9811 -0.0380
  675MOL0     C88990   7.036   5.663   3.029  0.5897 -0.2897  0.9030
  675MOL0     C88991   7.034   5.813   3.055 -0.1190  0.1496  0.0245
  675MOL0     O88992   7.048   5.832   3.198 -0.7170  0.8907 -0.3008
  675MOL0     C88993   6.927   5.859   3.261  0.4243  0.1576 -0.1929
  675MOL0     C88994   6.876   5.987   3.258  0.3817  0.6407 -0.0613
  675MOL0     C88995   6.751   6.020   3.319 -0.5522  0.2834 -0.0839
  675MOL0     C88996   6.692   5.931   3.410  0.0670 -0.5284  0.4076
  675MOL0     C88997   6.580   5.970   3.503  0.0065  0.0368  0.7652
  675MOL0     O88998   6.516   5.863   3.562 -0.2122 -0.7363  0.3001
  675MOL0     C88999   6.385   5.869   3.610 -0.0648 -0.0391 -0.4997
  675MOL0     C89000   6.331   5.749   3.669 -0.0872 -0.3673 -0.3641
  675MOL0     C89001   6.197   5.740   3.725  0.1863 -0.5465  0.0506
  675MOL0     C89002   6.113   5.856   3.711  0.7043  0.1215  0.6557
  675MOL0     O89003   5.987   5.843   3.766 -0.5937 -0.6686  0.2374
  675MOL0     C89004   5.896   5.955   3.766 -0.4769 -0.3068 -0.4134
  675MOL0     C89005   5.764   5.892   3.738 -0.2524  0.2623  0.4571
  675MOL0     C89006   5.762   5.793   3.622 -0.2979  0.5209 -0.7477
  675MOL0     C89007   5.622   5.755   3.573 -0.1382  0.0393  0.2084
  675MOL0     C89008   5.528   5.687   3.679  0.0728  0.8217  0.6256
  675MOL0     C89009   5.409   5.608   3.593 -0.3133  0.3334 -0.8047
  675MOL0     C89010   5.299   5.700   3.541  0.5427  0.1437 -0.3947
  675MOL0     C89011   5.180   5.736   3.636 -0.1743 -0.0106 -0.2188
  675MOL0    Cl89012   5.147   5.607   3.762  0.3064  0.8394 -0.0036
  675MOL0     C89013   6.161   5.969   3.626  1.2013  1.1014 -0.2018
  675MOL0     C89014   6.293   5.979   3.589  0.1806 -0.2296  0.9956
  675MOL0     O89015   6.543   6.082   3.492 -0.5351  0.1065  0.1224
  675MOL0     C89016   6.754   5.803   3.416  0.3798 -0.3388  0.7290
  675MOL0     C89017   6.869   5.768   3.346 -0.4926  0.0347  0.4412
  675MOL0     N89018   7.244   5.497   2.783 -0.2829 -0.1715  0.9957
  675MOL0     N89019   7.212   5.466   2.667 -0.4521 -0.4787  0.3914
  675MOL0     C89020   6.656   4.830   1.888 -0.2857  0.7137 -0.1018
  675MOL0     C89021   6.686   4.754   1.779 -1.1955  0.2487 -0.3338
  675MOL0     C89022   6.920   4.559   1.451 -0.4125 -0.1999  0.0459
  675MOL0     C89023   6.901   4.434   1.400 -0.0673  0.2212 -0.3898
  675MOL0     C89024   6.945   4.396   1.275 -0.4182 -0.2831  0.2033
  675MOL0     C89025   7.040   4.479   1.204  0.5384  0.2487 -0.0474
  675MOL0     O89026   7.089   4.434   1.086 -0.3260  0.6659 -0.8565
  675MOL0     C89027   7.208   4.502   1.042 -0.4262 -0.2909  0.5697
  675MOL0     C89028   7.288   4.414   0.946 -0.2006 -0.0635  0.2754
  675MOL0     C89029   7.391   4.510   0.890 -0.3264  1.0624  0.1774
  675MOL0     C89030   7.494   4.445   0.798 -1.3137 -0.4379  0.3448
  675MOL0     C89031   7.588   4.553   0.748  1.2644  1.2260 -0.4244
  675MOL0     C89032   7.656   4.642   0.708  0.1258  0.2333  0.8164
  675MOL0     C89033   7.065   4.605   1.260 -0.4387 -0.3256  0.1311
  675MOL0     C89034   7.003   4.646   1.384 -0.1209  0.0089  0.7123
  675MOL0     H89035   6.890   4.977   1.614 -1.3764  2.0966  0.7372
  675MOL0     H89036   6.845   5.113   1.813 -0.0619  0.1261 -2.9674
  675MOL0     H89037   6.493   5.043   1.973 -0.0584 -0.0858  1.4234
  675MOL0     H89038   6.601   5.193   1.937  2.3367  1.6451  1.7448
  675MOL0     H89039   6.498   5.073   2.201  0.0765  1.6614  1.7483
  675MOL0     H89040   6.433   5.219   2.134  0.0373  0.1567  2.9724
  675MOL0     H89041   6.665   5.313   2.136 -2.9396 -0.2599 -0.7920
  675MOL0     H89042   6.723   5.173   2.240  0.2290 -0.0484  2.3962
  675MOL0     H89043   6.486   5.339   2.328 -0.8983 -1.2728  1.5172
  675MOL0     H89044   6.570   5.206   2.411 -1.8553  1.3484 -1.0638
  675MOL0     H89045   6.636   5.427   2.513  1.5495  2.8299  0.1055
  675MOL0     H89046   6.664   5.487   2.351 -2.5187  1.1512  1.0156
  675MOL0     H89047   6.874   5.337   2.344  1.1925 -2.3077  1.3961
  675MOL0     H89048   6.801   5.226   2.453 -3.6022 -0.7069 -1.2382
  675MOL0     H89049   6.890   5.509   2.534  1.5051 -0.9899 -2.5349
  675MOL0     H89050   6.844   5.380   2.647  4.1005  0.9921  2.5905
  675MOL0     H89051   7.084   5.381   2.462  1.2696  0.8336  1.6911
  675MOL0     H89052   7.018   5.244   2.553 -1.1661  0.1378  1.5453
  675MOL0     H89053   7.017   5.280   2.857 -0.7946  1.0392  0.7459
  675MOL0     H89054   7.274   5.396   3.060 -1.2623 -1.3532  1.4941
  675MOL0     H89055   7.119   5.380   3.095 -0.1498  3.0495  1.9263
  675MOL0     H89056   7.248   5.643   3.036  0.3669  1.7383  4.2515
  675MOL0     H89057   7.161   5.586   3.181 -2.1443 -1.8060  0.0098
  675MOL0     H89058   7.010   5.645   2.924  0.5942  1.2623  0.6052
  675MOL0     H89059   6.953   5.616   3.082  1.3398  0.1623  2.5369
  675MOL0     H89060   6.939   5.854   3.021  0.3472  2.7526  1.5580
  675MOL0     H89061   7.119   5.852   2.998  1.2329 -0.0980  1.8047
  675MOL0     H89062   6.914   6.069   3.198 -1.1804  1.9907  0.7079
  675MOL0     H89063   6.697   6.111   3.293 -1.6020  0.4826  2.4221
  675MOL0     H89064   6.399   5.670   3.699 -2.0775 -1.0238  2.9158
  675MOL0     H89065   6.147   5.659   3.776  1.0131 -0.6513  0.7115
  675MOL0     H89066   5.908   6.017   3.677  0.1901 -2.4660 -1.8988
  675MOL0     H89067   5.890   6.019   3.855  0.4472 -0.0068 -0.5579
  675MOL0     H89068   5.692   5.972   3.721  0.0095  0.1857 -1.0951
  675MOL0     H89069   5.729   5.845   3.831 -3.3319 -1.1316 -1.2506
  675MOL0     H89070   5.804   5.695   3.647 -3.9844 -1.3472 -1.0908
  675MOL0     H89071   5.834   5.840   3.554 -0.4588 -0.8683 -1.9331
  675MOL0     H89072   5.576   5.850   3.543  2.3843  1.0963 -0.6176
  675MOL0     H89073   5.639   5.702   3.478  0.8608  0.6171  0.0512
  675MOL0     H89074   5.491   5.754   3.758 -2.4745 -0.4672  0.6442
  675MOL0     H89075   5.595   5.615   3.726  1.6673  1.2267 -0.9455
  675MOL0     H89076   5.377   5.517   3.645  0.4763 -0.4809 -1.7036
  675MOL0     H89077   5.461   5.571   3.505 -0.0033  0.8775 -0.8518
  675MOL0     H89078   5.345   5.791   3.503  2.2336  0.3617  1.9233
  675MOL0     H89079   5.248   5.637   3.468 -1.8199  1.2017  0.2415
  675MOL0     H89080   5.089   5.756   3.579 -1.3653  2.0170  2.2060
  675MOL0     H89081   5.213   5.815   3.704  0.0433 -1.8008  1.8748
  675MOL0     H89082   6.099   6.056   3.607  1.7713  1.4914 -0.2863
  675MOL0     H89083   6.325   6.075   3.550  1.2095 -0.1868  1.8987
  675MOL0     H89084   6.704   5.729   3.477 -2.0142 -0.8886 -1.7024
  675MOL0     H89085   6.910   5.668   3.352 -3.4623 -1.3813 -0.8116
  675MOL0     H89086   6.584   4.791   1.959  0.7961 -1.9246 -0.3050
  675MOL0     H89087   6.636   4.659   1.765 -0.1904 -0.3681  0.1399
  675MOL0     H89088   6.830   4.365   1.444 -1.5498  1.7115 -0.3675
  675MOL0     H89089   6.918   4.300   1.232  3.0344 -1.9917  1.4717
  675MOL0     H89090   7.273   4.523   1.127  0.5243 -1.7670  0.2462
  675MOL0     H89091   7.186   4.589   0.979 -0.9593 -1.9438 -1.6712
  675MOL0     H89092   7.345   4.342   1.005  0.8418  0.2540 -0.3150
  675MOL0     H89093   7.225   4.362   0.873  3.4045 -1.1134 -2.3889
  675MOL0     H89094   7.444   4.566   0.968  2.8971 -0.1557 -0.9495
  675MOL0     H89095   7.332   4.575   0.825 -1.2458 -0.2266 -0.3346
  675MOL0     H89096   7.543   4.357   0.840 -0.1629 -1.6653 -3.2138
  675MOL0     H89097   7.457   4.402   0.705 -2.5379  0.2619  0.4723
  675MOL0     H89098   7.716   4.725   0.676 -0.4870  0.9885  1.5805
  675MOL0     H89099   7.117   4.684   1.205  2.5706 -1.2707  1.4454
  675MOL0     H89100   7.017   4.748   1.420  0.0790  0.5638 -0.8462
  676MOL0     O89101   7.433   8.736   7.768  0.6285 -0.2731 -0.4893
  676MOL0     C89102   7.379   8.660   7.691 -0.9471 -0.9842  0.4584
  676MOL0     O89103   7.444   8.591   7.592  0.2761  0.1186 -0.0281
  676MOL0     C89104   7.578   8.575   7.605  0.2235 -0.0636  0.4904
  676MOL0     C89105   7.662   8.631   7.508  0.1872 -1.5053  0.5632
  676MOL0     C89106   7.797   8.618   7.531  0.4239  0.4733 -0.5855
  676MOL0     C89107   7.849   8.537   7.632  0.1273  0.7903 -0.2997
  676MOL0     O89108   7.993   8.540   7.632 -1.0388  0.1087  0.0837
  676MOL0     C89109   8.059   8.504   7.753 -0.4520  0.4917  0.0094
  676MOL0     C89110   8.211   8.519   7.734 -0.2743 -0.5729 -1.0781
  676MOL0     C89111   8.284   8.461   7.858  0.0730  0.1102  0.4352
  676MOL0     C89112   8.432   8.507   7.854 -0.5370 -0.2363  0.7349
  676MOL0     C89113   8.512   8.480   7.985  0.1377 -0.3906 -0.3022
  676MOL0     C89114   8.646   8.555   7.991 -0.0689 -0.9586  1.1815
  676MOL0     C89115   8.771   8.478   8.044 -0.0783 -0.2267 -1.3738
  676MOL0     C89116   8.888   8.568   8.062 -1.0029  0.6597 -0.5925
  676MOL0     N89117   9.005   8.490   8.112  0.3620 -0.0753 -0.0313
  676MOL0     C89118   9.079   8.535   8.220 -0.5994  0.3512  0.1937
  676MOL0     C89119   9.193   8.458   8.211 -0.2274 -0.3910 -0.1960
  676MOL0     C89120   9.306   8.446   8.304  0.8233 -0.4026  0.0805
  676MOL0     C89121   9.338   8.295   8.345 -0.1866  0.5516 -0.0008
  676MOL0     C89122   9.471   8.247   8.275 -0.7640 -0.0713 -0.4075
  676MOL0     C89123   9.538   8.134   8.352  0.5022  0.5978  0.7679
  676MOL0     O89124   9.539   8.154   8.492 -0.1234  0.1371 -0.2412
  676MOL0     C89125   9.594   8.062   8.568  0.3307  0.9382 -0.5006
  676MOL0     C89126   9.684   7.950   8.519 -0.1332 -0.0893  0.2220
  676MOL0     C89127   9.755   7.878   8.611  0.4197  0.2569  0.7586
  676MOL0     C89128   9.743   7.903   8.749  0.9404  0.2879  0.6520
  676MOL0     C89129   9.824   7.826   8.846  0.3954 -0.2526  0.2477
  676MOL0     O89130   9.877   7.905   8.945 -0.0835  0.4425 -0.1343
  676MOL0     C89131   9.980   7.866   9.031 -0.4063  0.6056  0.5961
  676MOL0     C89132  10.058   7.753   9.021  0.2706  0.0864  0.5274
  676MOL0     C89133  10.151   7.719   9.116 -0.0299 -0.6316  0.2524
  676MOL0     C89134  10.167   7.807   9.225 -0.2327 -0.4750  0.6431
  676MOL0     O89135  10.266   7.783   9.317 -0.8079 -0.3195 -0.2150
  676MOL0     C89136  10.394   7.743   9.263  0.2123 -0.3248 -0.6475
  676MOL0     C89137  10.504   7.841   9.309  0.2069 -0.4499  0.7633
  676MOL0     C89138  10.516   7.869   9.459 -0.5573 -0.1523  0.3587
  676MOL0     C89139  10.637   7.952   9.496 -0.2194  0.3215 -0.7862
  676MOL0     C89140  10.645   7.978   9.648 -0.4489 -0.3241  0.3296
  676MOL0     C89141  10.628   8.128   9.680 -0.2188 -1.0892 -1.0389
  676MOL0     C89142  10.498   8.192   9.636 -0.7041 -0.0985 -0.2652
  676MOL0     C89143  10.508   8.275   9.508 -0.3196  0.3840 -1.2782
  676MOL0    Cl89144  10.367   8.229   9.405  0.2313  0.0652  0.0051
  676MOL0     C89145  10.088   7.915   9.240  1.1371  0.3645 -0.4431
  676MOL0     C89146   9.995   7.944   9.141  0.3756  0.2596 -0.2251
  676MOL0     O89147   9.845   7.705   8.833 -0.2932  0.6257 -0.2918
  676MOL0     C89148   9.652   8.007   8.795 -0.3999 -0.3439  0.6409
  676MOL0     C89149   9.580   8.086   8.703  0.0461  0.5125  0.4182
  676MOL0     N89150   9.180   8.371   8.107  0.3915  0.0912 -0.5170
  676MOL0     N89151   9.069   8.387   8.035 -0.2136 -0.8967  0.1369
  676MOL0     C89152   7.766   8.477   7.719  0.1563  0.0393  0.1169
  676MOL0     C89153   7.632   8.499   7.713 -0.2069 -0.5122 -0.2734
  676MOL0     C89154   7.237   8.639   7.689  0.8325 -0.3899  0.6318
  676MOL0     C89155   7.169   8.591   7.572 -0.6409 -0.0705 -0.1355
  676MOL0     C89156   7.022   8.575   7.570 -0.2807 -0.9756 -0.3147
  676MOL0     C89157   6.945   8.595   7.686  0.0957 -0.0535 -0.4409
  676MOL0     O89158   6.807   8.588   7.715 -0.0710 -0.3097 -0.0052
  676MOL0     C89159   6.720   8.532   7.622  1.0028  0.4935  1.2990
  676MOL0     C89160   6.577   8.509   7.680 -0.0987 -0.0656  0.3006
  676MOL0     C89161   6.490   8.447   7.576  0.5106 -0.0492 -0.0217
  676MOL0     C89162   6.346   8.498   7.582 -0.6794  1.0020  0.8849
  676MOL0     C89163   6.275   8.414   7.491  0.1628  0.2828  0.6514
  676MOL0     C89164   6.206   8.351   7.414 -0.7410  0.6803 -0.0610
  676MOL0     C89165   7.015   8.650   7.799  0.6624 -0.5242  0.4185
  676MOL0     C89166   7.151   8.672   7.804 -0.0266  0.5932  0.5473
  676MOL0     H89167   7.635   8.713   7.442  3.4771  0.3490  1.2994
  676MOL0     H89168   7.873   8.664   7.468  0.0586 -2.9848 -3.8703
  676MOL0     H89169   8.023   8.404   7.780  0.2721  0.0996 -0.4511
  676MOL0     H89170   8.018   8.570   7.830 -2.4569 -1.5715  0.8272
  676MOL0     H89171   8.215   8.628   7.731 -1.2594  0.0176  4.9834
  676MOL0     H89172   8.244   8.466   7.645 -1.0859 -4.0234  0.4985
  676MOL0     H89173   8.277   8.352   7.863  0.6549  0.0303 -0.3686
  676MOL0     H89174   8.240   8.502   7.950 -1.9394 -2.5886  0.7809
  676MOL0     H89175   8.489   8.455   7.776  1.1848  1.2577  0.9412
  676MOL0     H89176   8.441   8.614   7.833  5.0660 -0.8687 -2.0403
  676MOL0     H89177   8.535   8.373   7.987 -1.2871 -0.7244  2.8160
  676MOL0     H89178   8.447   8.506   8.068  0.4042  1.8931 -0.7500
  676MOL0     H89179   8.626   8.649   8.043 -0.5036 -0.7259  0.6123
  676MOL0     H89180   8.682   8.578   7.890 -0.6089  0.7359  1.3495
  676MOL0     H89181   8.743   8.446   8.145 -4.8328 -0.5539 -2.5778
  676MOL0     H89182   8.790   8.383   7.994 -0.9045 -3.1100  3.1713
  676MOL0     H89183   8.877   8.637   8.147  1.9388  0.6700 -0.1209
  676MOL0     H89184   8.914   8.623   7.971 -2.8904  1.2027 -0.8548
  676MOL0     H89185   9.048   8.618   8.284 -2.4658 -1.1379  1.3265
  676MOL0     H89186   9.295   8.506   8.394  0.0829 -2.2265  1.2640
  676MOL0     H89187   9.394   8.488   8.254  0.2586  0.8504  0.1140
  676MOL0     H89188   9.253   8.230   8.323 -0.8461  1.4431 -0.1632
  676MOL0     H89189   9.341   8.281   8.454  0.6248 -0.9665 -0.1932
  676MOL0     H89190   9.457   8.236   8.167  1.0666  0.4695 -0.7214
  676MOL0     H89191   9.548   8.323   8.292  1.8546 -2.0982 -2.2896
  676MOL0     H89192   9.643   8.121   8.322 -0.0421  0.0462 -1.0654
  676MOL0     H89193   9.498   8.039   8.315  1.5490  0.2344  0.5315
  676MOL0     H89194   9.714   7.930   8.417 -3.8289  0.2805 -1.0779
  676MOL0     H89195   9.817   7.794   8.582 -0.7449 -0.4917  0.4075
  676MOL0     H89196  10.059   7.690   8.932  0.0785 -0.4467  0.9033
  676MOL0     H89197  10.213   7.631   9.109 -0.0498 -0.6475  0.2769
  676MOL0     H89198  10.409   7.758   9.156 -1.6022  1.0753 -0.7472
  676MOL0     H89199  10.416   7.641   9.293  3.1708  1.1446  3.0600
  676MOL0     H89200  10.506   7.930   9.245  3.5418  0.1946  1.5538
  676MOL0     H89201  10.597   7.787   9.289 -0.0917 -1.7989  2.7595
  676MOL0     H89202  10.525   7.773   9.511 -2.9712 -0.0836  0.9948
  676MOL0     H89203  10.424   7.922   9.484 -0.8524 -1.0614  1.2444
  676MOL0     H89204  10.730   7.902   9.467  1.5000  0.4148  3.7401
  676MOL0     H89205  10.635   8.045   9.438  0.2842  0.3192 -0.8082
  676MOL0     H89206  10.744   7.942   9.674 -0.7633 -1.5504 -0.1133
  676MOL0     H89207  10.572   7.911   9.694 -2.1561  0.8509 -0.5308
  676MOL0     H89208  10.710   8.180   9.629 -1.3817 -1.0734 -3.0237
  676MOL0     H89209  10.646   8.140   9.787 -1.3143 -1.1343 -0.8378
  676MOL0     H89210  10.420   8.114   9.634 -1.3296  0.5170 -2.4209
  676MOL0     H89211  10.465   8.260   9.716 -2.2782 -0.1467 -0.8310
  676MOL0     H89212  10.594   8.261   9.442 -2.0693 -1.1839 -3.3933
  676MOL0     H89213  10.506   8.382   9.533  1.4297  1.0336 -3.5489
  676MOL0     H89214  10.107   7.973   9.329  2.4997 -1.5001  0.5599
  676MOL0     H89215   9.945   8.041   9.149  1.6226  0.8356  0.9711
  676MOL0     H89216   9.653   8.024   8.902  1.8045 -0.6402  0.7161
  676MOL0     H89217   9.518   8.164   8.745  0.5277 -0.8126  3.9768
  676MOL0     H89218   7.807   8.407   7.790  0.0023 -0.5316 -0.3454
  676MOL0     H89219   7.558   8.457   7.781 -1.2337  0.4568 -0.7571
  676MOL0     H89220   7.219   8.584   7.476  2.5911 -1.7146  1.4929
  676MOL0     H89221   6.970   8.537   7.483 -1.8918  0.3450  0.0245
  676MOL0     H89222   6.748   8.428   7.605 -2.2185 -0.3940  0.6684
  676MOL0     H89223   6.721   8.599   7.535  0.7571 -0.6585  0.3960
  676MOL0     H89224   6.590   8.442   7.765 -2.5914 -0.3218  0.5437
  676MOL0     H89225   6.547   8.608   7.714  3.8555  0.8281  1.7314
  676MOL0     H89226   6.488   8.339   7.594  1.9101 -0.2290 -0.8355
  676MOL0     H89227   6.544   8.449   7.481  0.3804 -0.4773 -0.1112
  676MOL0     H89228   6.298   8.484   7.679 -3.5288  1.4432 -0.3552
  676MOL0     H89229   6.359   8.602   7.549 -0.7771  0.7686  0.0780
  676MOL0     H89230   6.142   8.301   7.343  3.1762 -0.8321 -2.8667
  676MOL0     H89231   6.963   8.660   7.893 -0.3528 -1.1447 -0.0608
  676MOL0     H89232   7.196   8.712   7.895  0.3900  1.2323  0.0717
  677MOL0     O89233   9.975   7.869   2.188  0.5426  0.0578  0.7389
  677MOL0     C89234  10.066   7.929   2.240 -0.5659  0.6311 -0.2593
  677MOL0     O89235  10.068   7.972   2.369  0.1384 -0.5227 -0.3550
  677MOL0     C89236   9.964   7.962   2.460  0.1241 -0.3027  1.0306
  677MOL0     C89237   9.830   7.910   2.439 -0.3177 -0.2435  0.4076
  677MOL0     C89238   9.751   7.871   2.546  0.1691  0.3321 -0.9015
  677MOL0     C89239   9.783   7.906   2.682 -0.9327 -0.4984  0.8605
  677MOL0     O89240   9.696   7.877   2.775  0.0042  0.3018 -0.8497
  677MOL0     C89241   9.692   7.938   2.904  0.4689  0.0711 -0.3608
  677MOL0     C89242   9.553   7.909   2.959  0.1793 -0.3340  0.3559
  677MOL0     C89243   9.541   7.876   3.113  0.8535 -0.0970  0.2429
  677MOL0     C89244   9.555   7.986   3.212 -0.3712  0.6307 -0.4365
  677MOL0     C89245   9.465   8.110   3.194  0.7484  0.2091 -0.1596
  677MOL0     C89246   9.309   8.083   3.199  0.1299  0.4791  0.6710
  677MOL0     C89247   9.217   8.205   3.179 -0.1243 -0.2057  0.0362
  677MOL0     C89248   9.193   8.288   3.297  0.1851 -0.2352  0.7408
  677MOL0     N89249   9.110   8.407   3.257  0.6299  0.2257 -0.8199
  677MOL0     C89250   8.988   8.430   3.303  0.6619 -0.6071  0.0184
  677MOL0     C89251   8.945   8.536   3.236  0.0937 -0.0880 -0.8874
  677MOL0     C89252   8.821   8.611   3.255  0.3890 -0.2439  0.4058
  677MOL0     C89253   8.775   8.667   3.127 -0.0683 -0.7269  0.2199
  677MOL0     C89254   8.630   8.715   3.117  0.1575 -0.5820  0.0336
  677MOL0     C89255   8.587   8.772   2.981  0.5110  0.5346 -0.4845
  677MOL0     O89256   8.451   8.820   2.978  0.9979 -0.0692  0.1437
  677MOL0     C89257   8.426   8.942   3.046 -0.1440  0.3922  0.4676
  677MOL0     C89258   8.444   9.058   2.973 -1.1973  0.1920 -0.3343
  677MOL0     C89259   8.441   9.184   3.034  0.2702 -0.5524  0.1688
  677MOL0     C89260   8.411   9.193   3.168  0.0740  0.1979 -0.4548
  677MOL0     C89261   8.408   9.329   3.233  0.5242 -0.1996  0.6299
  677MOL0     O89262   8.383   9.434   3.147 -0.0012  0.2323  0.3666
  677MOL0     C89263   8.385   9.559   3.215 -0.0567  0.3142  0.5647
  677MOL0     C89264   8.269   9.608   3.291  1.0499  0.4035  0.4633
  677MOL0     C89265   8.279   9.732   3.358 -0.0426 -0.4821  0.2906
  677MOL0     C89266   8.391   9.810   3.341  0.5671 -1.1753 -0.9045
  677MOL0     O89267   8.397   9.924   3.408 -0.3689  0.1024  0.1549
  677MOL0     C89268   8.531   9.968   3.450 -0.8704 -0.0018  0.6968
  677MOL0     C89269   8.522  10.061   3.568 -0.8998 -0.2907  0.2604
  677MOL0     C89270   8.475   9.983   3.687 -0.8396  1.2139 -0.0199
  677MOL0     C89271   8.391  10.068   3.784 -1.0983 -0.8241 -0.1686
  677MOL0     C89272   8.250  10.109   3.725 -0.7864  0.4320 -1.3446
  677MOL0     C89273   8.174  10.216   3.809  0.6950 -0.3428 -0.0660
  677MOL0     C89274   8.021  10.220   3.773 -0.3149 -0.9959 -0.5470
  677MOL0     C89275   7.942  10.321   3.863 -0.1330  0.1209 -0.1580
  677MOL0    Cl89276   7.772  10.288   3.839  0.0204  0.1954 -0.4968
  677MOL0     C89277   8.499   9.762   3.264 -0.2372  0.2773 -0.2159
  677MOL0     C89278   8.501   9.630   3.208 -0.0880  0.5620 -0.3469
  677MOL0     O89279   8.410   9.329   3.351 -0.7413  0.1795 -0.4105
  677MOL0     C89280   8.406   9.078   3.244  0.5197  0.7817 -0.0498
  677MOL0     C89281   8.408   8.950   3.184  0.0197  0.3943  0.5492
  677MOL0     N89282   9.041   8.574   3.150 -0.2389 -0.1074 -0.0239
  677MOL0     N89283   9.137   8.500   3.163  0.2980  0.5520  0.3678
  677MOL0     C89284   9.900   7.974   2.700 -0.7318  0.8600 -0.3596
  677MOL0     C89285   9.987   8.005   2.589  0.0566  0.1863 -0.1253
  677MOL0     C89286  10.179   7.952   2.149 -0.3153 -0.0297  1.1623
  677MOL0     C89287  10.296   8.000   2.197  1.4712  0.9233  0.2835
  677MOL0     C89288  10.404   8.021   2.108  0.1330 -0.4589 -0.3068
  677MOL0     C89289  10.386   7.988   1.974  0.1542 -0.8662 -0.0943
  677MOL0     O89290  10.491   8.001   1.878 -0.1237  0.0608  0.3556
  677MOL0     C89291  10.616   8.003   1.939 -0.1911 -0.5132  0.6684
  677MOL0     C89292  10.729   7.985   1.849  0.2945  0.5568  1.4460
  677MOL0     C89293  10.751   8.116   1.775 -0.7759 -0.2613 -0.7881
  677MOL0     C89294  10.846   8.108   1.658  0.5981 -0.7964 -0.4092
  677MOL0     C89295  10.866   8.248   1.615 -0.0037 -0.2160 -0.2173
  677MOL0     C89296  10.886   8.364   1.592 -0.4542 -0.7589  0.6624
  677MOL0     C89297  10.259   7.960   1.921  1.0003 -0.7625 -1.7244
  677MOL0     C89298  10.153   7.937   2.010 -1.4899  1.2713  0.7757
  677MOL0     H89299   9.787   7.879   2.345  0.9928 -1.1515  0.0698
  677MOL0     H89300   9.669   7.802   2.530  0.1852 -0.8040  2.8588
  677MOL0     H89301   9.710   8.045   2.890  3.7678 -0.5636 -1.7490
  677MOL0     H89302   9.766   7.906   2.978 -1.2577 -1.6142  0.7325
  677MOL0     H89303   9.516   7.822   2.903 -1.4800 -0.5870  1.7667
  677MOL0     H89304   9.491   7.996   2.937  0.3642 -0.4616 -0.7133
  677MOL0     H89305   9.617   7.800   3.133  1.5414  1.5420  5.2060
  677MOL0     H89306   9.444   7.825   3.124  2.7251 -4.3397 -1.0275
  677MOL0     H89307   9.536   7.951   3.313 -0.5872  2.4524  0.1938
  677MOL0     H89308   9.659   8.021   3.212  0.2686 -1.1663 -0.0899
  677MOL0     H89309   9.492   8.139   3.093  1.1888 -1.6510 -0.6153
  677MOL0     H89310   9.499   8.186   3.265 -2.8258  0.9441  1.0121
  677MOL0     H89311   9.274   8.048   3.296 -0.0514  0.1062  0.4707
  677MOL0     H89312   9.286   8.003   3.128 -4.1909  1.9520  0.1661
  677MOL0     H89313   9.267   8.266   3.103  0.9753  1.9095  2.3222
  677MOL0     H89314   9.125   8.165   3.135  0.2781  0.3362 -1.3590
  677MOL0     H89315   9.298   8.311   3.318  0.3678  0.6481 -0.9419
  677MOL0     H89316   9.145   8.230   3.377 -2.6707 -0.0520 -0.7155
  677MOL0     H89317   8.939   8.372   3.381 -1.7814  1.7569  0.3598
  677MOL0     H89318   8.853   8.693   3.320  0.7530  1.1378 -1.4367
  677MOL0     H89319   8.741   8.552   3.300  0.9755 -0.0703  1.7378
  677MOL0     H89320   8.777   8.595   3.045 -4.1696 -1.2032  0.3133
  677MOL0     H89321   8.841   8.748   3.095  2.0819 -3.0022 -1.4772
  677MOL0     H89322   8.565   8.628   3.135 -1.9627  0.1141 -3.3106
  677MOL0     H89323   8.618   8.791   3.194 -1.5449 -0.9594  0.1979
  677MOL0     H89324   8.597   8.690   2.909  0.2139 -0.7967  0.9382
  677MOL0     H89325   8.652   8.857   2.959  4.4542 -1.4401  2.2714
  677MOL0     H89326   8.472   9.037   2.871  0.6658 -0.6050  0.2979
  677MOL0     H89327   8.464   9.274   2.978  0.4564 -0.9552 -0.4122
  677MOL0     H89328   8.178   9.549   3.300  0.4107  1.0556 -1.2372
  677MOL0     H89329   8.209   9.747   3.439 -3.8480 -0.8748 -2.6253
  677MOL0     H89330   8.577  10.005   3.358 -1.5055  0.8334  0.7100
  677MOL0     H89331   8.595   9.887   3.487 -0.7119  0.5968  1.7689
  677MOL0     H89332   8.452  10.141   3.541  0.7326  0.1204 -3.3590
  677MOL0     H89333   8.621  10.109   3.574 -0.4956 -0.2468 -3.7232
  677MOL0     H89334   8.559   9.945   3.745 -3.4973  0.4443  3.7357
  677MOL0     H89335   8.411   9.899   3.658  0.5452  1.3025 -3.9081
  677MOL0     H89336   8.372  10.010   3.874 -0.8802 -1.8553 -0.7665
  677MOL0     H89337   8.441  10.161   3.813 -3.6725 -0.0075  2.0428
  677MOL0     H89338   8.204  10.012   3.707 -1.6583 -0.0927  2.7008
  677MOL0     H89339   8.281  10.169   3.639  3.1601 -1.0924 -1.1943
  677MOL0     H89340   8.227  10.311   3.796  1.3911 -0.5933  0.8780
  677MOL0     H89341   8.183  10.194   3.915  1.2691  0.6924  0.1153
  677MOL0     H89342   8.009  10.262   3.672 -0.5106  2.4373  0.7519
  677MOL0     H89343   7.981  10.119   3.786 -1.5384 -0.2938  1.6854
  677MOL0     H89344   7.964  10.424   3.834  0.1861 -0.3870 -1.8562
  677MOL0     H89345   7.964  10.300   3.968  1.3939 -1.8277 -0.7954
  677MOL0     H89346   8.597   9.807   3.257 -0.1060  0.6911  2.8383
  677MOL0     H89347   8.584   9.578   3.162 -1.1190 -2.2347  0.7185
  677MOL0     H89348   8.396   9.069   3.352 -0.6036 -1.9640 -0.2838
  677MOL0     H89349   8.396   8.858   3.241  1.5027 -0.8439 -1.0498
  677MOL0     H89350   9.929   8.011   2.798 -0.7269 -0.6708  0.2426
  677MOL0     H89351  10.089   8.041   2.605  0.1901  0.3951 -1.3889
  677MOL0     H89352  10.310   8.007   2.304 -1.0478  0.7300  0.6812
  677MOL0     H89353  10.498   8.046   2.156  0.4664 -2.1473 -0.0139
  677MOL0     H89354  10.616   7.924   2.016  0.5929 -0.6198  0.5678
  677MOL0     H89355  10.632   8.098   1.991 -0.2486 -0.9107  1.4411
  677MOL0     H89356  10.821   7.968   1.907  1.8698  0.9895 -0.7906
  677MOL0     H89357  10.707   7.902   1.782  0.0938  0.3427  1.7754
  677MOL0     H89358  10.788   8.199   1.835  1.8441  2.3435 -5.4561
  677MOL0     H89359  10.658   8.154   1.731 -0.6147  2.8339  1.2274
  677MOL0     H89360  10.948   8.074   1.682  0.9038  0.2868 -0.1316
  677MOL0     H89361  10.800   8.044   1.583 -1.6264  2.2732 -1.8644
  677MOL0     H89362  10.909   8.464   1.563  2.3317 -1.8376 -1.2957
  677MOL0     H89363  10.233   7.939   1.818 -0.5400  0.6805 -1.6746
  677MOL0     H89364  10.059   7.917   1.960 -0.3696  2.0557 -1.7854
  678MOL0     O89365   0.196   1.372   3.404 -0.3703 -0.0747 -0.2353
  678MOL0     C89366   0.116   1.388   3.315  0.6867 -0.3963  0.5764
  678MOL0     O89367   0.057   1.502   3.288 -0.3476 -0.1452  1.0368
  678MOL0     C89368   0.114   1.623   3.320 -0.0824  0.6210 -0.3875
  678MOL0     C89369   0.037   1.721   3.388 -0.6848 -0.5391  0.4597
  678MOL0     C89370   0.091   1.852   3.399  0.4928  0.0139 -0.1045
  678MOL0     C89371   0.211   1.887   3.348 -0.3713 -0.2199  0.1671
  678MOL0     O89372   0.253   2.019   3.372  0.0876  0.0293 -0.1752
  678MOL0     C89373   0.378   2.074   3.321 -0.1197 -0.0642 -0.6830
  678MOL0     C89374   0.491   2.071   3.426 -0.5680  0.4950  1.0146
  678MOL0     C89375   0.600   2.173   3.376  0.0727  0.2911 -0.1103
  678MOL0     C89376   0.688   2.177   3.495  0.6882  0.7774  0.2560
  678MOL0     C89377   0.799   2.288   3.469  0.0522  0.0386 -0.6270
  678MOL0     C89378   0.896   2.281   3.594 -0.0708  0.8039  0.3588
  678MOL0     C89379   0.968   2.142   3.622  0.6330  0.2731 -0.7558
  678MOL0     C89380   1.057   2.078   3.507 -0.1067  1.2036 -0.1298
  678MOL0     N89381   1.122   1.953   3.565  1.1289  0.6179 -0.4652
  678MOL0     C89382   1.075   1.877   3.669  0.3058  0.5928 -0.6504
  678MOL0     C89383   1.136   1.760   3.660 -0.4280  1.1813 -0.0630
  678MOL0     C89384   1.110   1.637   3.750  0.2284 -0.7728 -0.0544
  678MOL0     C89385   1.080   1.520   3.651 -0.2550  0.3474 -0.5140
  678MOL0     C89386   1.011   1.409   3.722  0.5092 -0.0267 -0.6743
  678MOL0     C89387   1.030   1.276   3.655  0.2764 -0.0651  0.2127
  678MOL0     O89388   1.000   1.280   3.521  0.9045 -0.1457  0.4965
  678MOL0     C89389   0.992   1.161   3.452 -0.4634 -0.3862 -0.1558
  678MOL0     C89390   1.003   1.032   3.502 -1.3785  0.2395 -0.2742
  678MOL0     C89391   0.985   0.914   3.434  1.0697  0.1843 -0.0782
  678MOL0     C89392   0.954   0.915   3.294  0.0205 -0.4141 -0.0530
  678MOL0     C89393   0.935   0.794   3.213 -0.3788 -0.4466  0.4265
  678MOL0     O89394   0.862   0.799   3.100  0.4266  0.1933 -0.2244
  678MOL0     C89395   0.826   0.672   3.050 -0.0482 -0.2672  0.9609
  678MOL0     C89396   0.701   0.620   3.083  1.4553 -0.3128  0.1169
  678MOL0     C89397   0.652   0.499   3.043  0.6853 -0.2674  0.6750
  678MOL0     C89398   0.738   0.427   2.956 -0.3073  0.3896  0.1201
  678MOL0     O89399   0.690   0.308   2.898  0.8351  0.0765 -0.0391
  678MOL0     C89400   0.705   0.203   2.994 -1.2097 -0.2428 -0.3132
  678MOL0     C89401   0.682   0.063   2.941  0.0580 -0.6512 -0.5607
  678MOL0     C89402   0.779   0.019   2.823  0.9625  0.4627 -0.5597
  678MOL0     C89403   0.711  -0.091   2.749 -0.3324 -0.3390 -0.5133
  678MOL0     C89404   0.809  -0.165   2.642  0.2003  0.2228  0.1628
  678MOL0     C89405   0.758  -0.305   2.601 -0.5480  0.6799 -0.3716
  678MOL0     C89406   0.807  -0.341   2.460  0.1267 -0.6100 -0.1634
  678MOL0     C89407   0.807  -0.489   2.454  0.5327  0.4647  0.7853
  678MOL0    Cl89408   0.832  -0.555   2.278  0.0766  0.4131  0.1023
  678MOL0     C89409   0.868   0.477   2.923 -0.0836  0.4627  0.6776
  678MOL0     C89410   0.911   0.598   2.969  0.7626  0.3307  0.8261
  678MOL0     O89411   0.989   0.693   3.258  0.7708  0.3151  0.3083
  678MOL0     C89412   0.919   1.045   3.242 -0.0848  0.1644  0.3465
  678MOL0     C89413   0.943   1.167   3.319  0.0747 -0.3006  0.0264
  678MOL0     N89414   1.234   1.778   3.560 -0.4977 -0.2200  0.2097
  678MOL0     N89415   1.231   1.894   3.511  0.0513  0.1594 -0.1433
  678MOL0     C89416   0.296   1.786   3.305 -0.0595 -0.5836 -1.1176
  678MOL0     C89417   0.247   1.659   3.287  0.4732 -0.4577  0.6605
  678MOL0     C89418   0.065   1.273   3.236  0.1046  0.6894  0.1222
  678MOL0     C89419  -0.002   1.297   3.114 -0.7573  0.8697  0.1961
  678MOL0     C89420  -0.016   1.193   3.015  0.0449  0.6730  0.5172
  678MOL0     C89421   0.015   1.061   3.046 -0.4461 -1.0851  0.0560
  678MOL0     O89422  -0.011   0.971   2.940  0.5862 -0.0018 -0.6597
  678MOL0     C89423   0.019   0.831   2.962 -0.7559  0.2302  1.1554
  678MOL0     C89424   0.013   0.761   2.826  0.2293  0.0162  0.5053
  678MOL0     C89425  -0.131   0.773   2.771 -0.5401  0.0630  0.7548
  678MOL0     C89426  -0.149   0.716   2.631  0.4332 -0.5972  0.0596
  678MOL0     C89427  -0.069   0.795   2.543 -0.0501 -0.9087 -0.2649
  678MOL0     C89428   0.008   0.852   2.465 -0.3123  0.3242  0.3039
  678MOL0     C89429   0.064   1.034   3.174  0.0945 -0.4039 -0.7322
  678MOL0     C89430   0.097   1.142   3.262  0.0538 -0.0855  0.5017
  678MOL0     H89431  -0.065   1.704   3.419 -1.2446 -0.2020 -1.0942
  678MOL0     H89432   0.027   1.912   3.464 -0.6177 -0.5815 -0.6225
  678MOL0     H89433   0.374   2.179   3.289  0.6608  0.1378 -0.1418
  678MOL0     H89434   0.395   2.025   3.225  0.5031  0.2244 -0.7266
  678MOL0     H89435   0.523   1.966   3.430  0.6278  0.8740  1.6857
  678MOL0     H89436   0.471   2.091   3.531 -2.1823  0.9445  0.6472
  678MOL0     H89437   0.560   2.273   3.352  0.6593  0.4323 -0.5200
  678MOL0     H89438   0.655   2.143   3.286 -0.5658  0.8871 -0.7159
  678MOL0     H89439   0.632   2.202   3.586  1.2653  1.0246  0.5444
  678MOL0     H89440   0.727   2.076   3.508  2.6246  1.3589 -0.7731
  678MOL0     H89441   0.766   2.392   3.460 -0.4632 -0.0929 -0.3166
  678MOL0     H89442   0.849   2.264   3.375  2.5360  1.4894  0.2209
  678MOL0     H89443   0.842   2.297   3.688 -0.8127  4.0616 -0.4967
  678MOL0     H89444   0.980   2.350   3.598  2.6641 -2.3433  1.9539
  678MOL0     H89445   1.033   2.150   3.710  0.4646  0.4954 -0.6488
  678MOL0     H89446   0.894   2.067   3.649  1.0469  0.2553  0.4225
  678MOL0     H89447   1.131   2.153   3.477 -0.0755  1.2379  0.0310
  678MOL0     H89448   1.000   2.048   3.418 -0.2925 -2.5190  1.0565
  678MOL0     H89449   0.991   1.893   3.736  0.6308  1.2172 -0.3820
  678MOL0     H89450   1.034   1.641   3.828 -1.2109 -0.1671 -1.4262
  678MOL0     H89451   1.207   1.614   3.794  0.9812  0.2384 -1.1011
  678MOL0     H89452   1.174   1.503   3.599 -0.1505  1.0134 -0.5510
  678MOL0     H89453   1.005   1.556   3.580 -0.5866 -2.4474 -1.7412
  678MOL0     H89454   1.044   1.416   3.826 -0.1486 -2.5574 -0.2453
  678MOL0     H89455   0.906   1.437   3.724  0.2398 -0.7912  3.5088
  678MOL0     H89456   0.954   1.204   3.686  1.5382 -1.3903  0.3631
  678MOL0     H89457   1.125   1.228   3.682  0.2071 -2.6290 -3.2892
  678MOL0     H89458   1.007   1.019   3.610 -1.9530 -1.5732 -0.4388
  678MOL0     H89459   1.002   0.811   3.465  1.3151 -0.1133 -1.1613
  678MOL0     H89460   0.635   0.677   3.148  1.4593 -2.5449  2.2334
  678MOL0     H89461   0.554   0.459   3.064  0.2793  0.1949 -0.2601
  678MOL0     H89462   0.644   0.223   3.082 -3.3618 -0.5982 -1.6342
  678MOL0     H89463   0.811   0.198   3.020 -1.8005  0.4485  2.5445
  678MOL0     H89464   0.577   0.049   2.913  0.3223 -1.4044 -1.2106
  678MOL0     H89465   0.693  -0.003   3.027 -2.6679 -0.0792  0.3265
  678MOL0     H89466   0.871  -0.014   2.870 -1.8552 -4.3816  2.3510
  678MOL0     H89467   0.791   0.103   2.753 -2.1546 -1.2033 -3.4004
  678MOL0     H89468   0.667  -0.159   2.822 -0.2591 -0.1686 -0.3088
  678MOL0     H89469   0.624  -0.054   2.694 -1.1991  0.5484  1.3564
  678MOL0     H89470   0.915  -0.182   2.663  0.1808 -1.3123 -0.8037
  678MOL0     H89471   0.809  -0.107   2.549  0.2339 -1.3747 -0.8721
  678MOL0     H89472   0.649  -0.306   2.608 -0.4960  2.7495  4.4045
  678MOL0     H89473   0.789  -0.374   2.680  0.3145  0.0738 -1.2101
  678MOL0     H89474   0.741  -0.288   2.391  1.8675  0.4862 -1.0618
  678MOL0     H89475   0.905  -0.298   2.434 -0.6412  0.5725 -1.2192
  678MOL0     H89476   0.708  -0.528   2.479  0.3426  1.0076  0.8877
  678MOL0     H89477   0.883  -0.524   2.525  1.3772 -0.2860 -0.4491
  678MOL0     H89478   0.927   0.418   2.853 -1.3743 -1.3282  1.0196
  678MOL0     H89479   1.010   0.633   2.943  1.3649 -1.9542 -0.1093
  678MOL0     H89480   0.886   1.051   3.139 -2.8371 -3.1899  0.8585
  678MOL0     H89481   0.933   1.263   3.269  0.7573  0.7054  1.7476
  678MOL0     H89482   0.397   1.808   3.272  0.1454  0.8357  0.3265
  678MOL0     H89483   0.309   1.581   3.245  1.0141 -0.4857  1.4712
  678MOL0     H89484  -0.049   1.391   3.088 -1.8623 -0.5557 -3.7254
  678MOL0     H89485  -0.049   1.212   2.913  2.3922  1.5705 -0.1323
  678MOL0     H89486  -0.060   0.801   3.031  1.3054  2.1881  4.6970
  678MOL0     H89487   0.117   0.802   3.001 -1.5860 -4.1309  0.4637
  678MOL0     H89488   0.087   0.793   2.753  0.5606 -3.2631 -0.7809
  678MOL0     H89489   0.038   0.655   2.842 -1.3502 -0.1754  2.0499
  678MOL0     H89490  -0.178   0.871   2.781 -2.2810 -0.6773  0.2689
  678MOL0     H89491  -0.194   0.702   2.826  0.7715 -1.8317 -0.0992
  678MOL0     H89492  -0.123   0.611   2.621  1.4686 -0.1683 -2.4214
  678MOL0     H89493  -0.255   0.737   2.612 -1.2879 -3.2781  4.8602
  678MOL0     H89494   0.079   0.897   2.400  1.6869 -2.1248  0.6340
  678MOL0     H89495   0.092   0.933   3.201  2.1690  1.0092  3.2053
  678MOL0     H89496   0.149   1.123   3.355 -0.7862  1.8805  1.4412
  679MOL0     O89497  11.274   5.018   0.687 -0.2094 -0.2876 -0.3742
  679MOL0     C89498  11.166   4.979   0.644  0.4880 -0.1455  0.3028
  679MOL0     O89499  11.043   5.038   0.649  0.2636  0.0325  0.3573
  679MOL0     C89500  11.025   5.155   0.725  0.5987 -0.6573  0.8675
  679MOL0     C89501  11.073   5.173   0.859  0.3497 -0.6433 -0.0213
  679MOL0     C89502  11.040   5.295   0.917  0.5769 -0.8855  1.0244
  679MOL0     C89503  10.967   5.394   0.850  1.0758  0.1022 -0.2256
  679MOL0     O89504  10.954   5.529   0.902  0.0302 -0.4038  0.2096
  679MOL0     C89505  10.923   5.537   1.039 -0.1121  0.3536 -0.3640
  679MOL0     C89506  10.901   5.684   1.082 -0.1987  0.5236  0.2452
  679MOL0     C89507  10.880   5.706   1.232  0.2561  0.4851  0.1074
  679MOL0     C89508  10.860   5.854   1.279 -0.9251  0.1861  0.1088
  679MOL0     C89509  10.795   5.857   1.418  1.1505  0.0614  0.6331
  679MOL0     C89510  10.642   5.830   1.401  0.2706 -0.0954 -0.4153
  679MOL0     C89511  10.573   5.905   1.518 -0.3482 -0.2519  0.2435
  679MOL0     C89512  10.613   5.844   1.655  0.2450 -0.7945 -0.2335
  679MOL0     N89513  10.573   5.711   1.679  0.0589 -0.4045 -0.3414
  679MOL0     C89514  10.612   5.628   1.779 -0.2340  0.2214 -0.1391
  679MOL0     C89515  10.522   5.523   1.772 -0.1098 -0.4642 -0.7290
  679MOL0     C89516  10.513   5.415   1.882  0.4657  0.6333 -0.7485
  679MOL0     C89517  10.639   5.339   1.921  1.1537 -0.0830  0.0383
  679MOL0     C89518  10.701   5.268   1.804 -0.2236 -0.5980  0.0152
  679MOL0     C89519  10.827   5.189   1.834 -0.4317  0.5848 -0.5588
  679MOL0     O89520  10.925   5.251   1.918 -0.0591  0.0500 -0.1848
  679MOL0     C89521  11.048   5.187   1.939 -0.4640  0.3241 -0.7923
  679MOL0     C89522  11.105   5.079   1.864 -0.0146  0.4320 -0.1899
  679MOL0     C89523  11.225   5.015   1.907  0.5698  0.1541 -0.0687
  679MOL0     C89524  11.299   5.061   2.021 -0.7184  0.8557  0.5098
  679MOL0     C89525  11.435   5.009   2.058 -0.3307  0.3060  0.6772
  679MOL0     O89526  11.497   4.920   1.978 -0.3287 -0.1096  0.5831
  679MOL0     C89527  11.627   4.870   2.012  0.4788  0.5438 -0.7400
  679MOL0     C89528  11.720   4.833   1.917 -0.0901 -0.1108 -0.0340
  679MOL0     C89529  11.837   4.760   1.957  0.0103 -0.9391  0.6912
  679MOL0     C89530  11.864   4.754   2.089 -0.0140  0.6229  0.2312
  679MOL0     O89531  11.978   4.695   2.131  0.0084  0.4117 -0.1167
  679MOL0     C89532  11.974   4.552   2.145 -0.1572 -0.4304 -1.1552
  679MOL0     C89533  11.940   4.476   2.017  0.1589 -0.4816  0.2956
  679MOL0     C89534  12.051   4.481   1.908 -0.5196 -0.0800 -0.1890
  679MOL0     C89535  12.021   4.398   1.781  0.3979  0.0602  0.3234
  679MOL0     C89536  11.930   4.473   1.681 -0.5855 -0.2207 -0.0531
  679MOL0     C89537  11.921   4.396   1.547  0.2858 -0.0189 -0.1536
  679MOL0     C89538  12.031   4.318   1.498 -0.5847  0.4449  0.0292
  679MOL0     C89539  12.030   4.288   1.349  0.4190  0.1913 -0.8585
  679MOL0    Cl89540  12.197   4.286   1.290 -0.2163 -0.2683  0.3336
  679MOL0     C89541  11.770   4.783   2.187 -0.8863 -0.2084 -0.1306
  679MOL0     C89542  11.657   4.844   2.145  0.1196  0.2540  0.2077
  679MOL0     O89543  11.479   5.054   2.167 -0.4397  0.4993  0.5684
  679MOL0     C89544  11.238   5.166   2.091 -0.0106  0.2474 -0.2685
  679MOL0     C89545  11.123   5.234   2.049  0.8343 -0.0865  0.8518
  679MOL0     N89546  10.438   5.545   1.669  0.0507 -0.2505  0.3264
  679MOL0     N89547  10.468   5.655   1.615 -0.0471 -0.3478 -0.0776
  679MOL0     C89548  10.907   5.367   0.728 -0.3702 -0.2656  0.1534
  679MOL0     C89549  10.937   5.248   0.667  0.8176 -0.7745  0.5474
  679MOL0     C89550  11.161   4.848   0.569 -0.3941 -0.6380 -0.4204
  679MOL0     C89551  11.267   4.747   0.578 -0.0168  0.2339 -0.4863
  679MOL0     C89552  11.265   4.632   0.501  0.5457 -0.5545 -0.5957
  679MOL0     C89553  11.153   4.591   0.437 -0.4117 -0.3164  0.8553
  679MOL0     O89554  11.143   4.476   0.358  0.0458 -0.6904 -0.0152
  679MOL0     C89555  11.183   4.345   0.415 -0.1376 -0.5387  0.6358
  679MOL0     C89556  11.148   4.242   0.315 -0.1679  0.3787 -0.1373
  679MOL0     C89557  11.259   4.232   0.206  0.3633  0.7262  0.2809
  679MOL0     C89558  11.233   4.108   0.117 -1.1292  0.2687 -1.1148
  679MOL0     C89559  11.101   4.097   0.056 -0.0039  0.1540  1.3669
  679MOL0     C89560  10.994   4.090  -0.004  0.6927  0.1183  0.2386
  679MOL0     C89561  11.038   4.679   0.429 -0.2763  0.6278  0.9898
  679MOL0     C89562  11.038   4.802   0.504 -0.7105  0.6079  0.0573
  679MOL0     H89563  11.132   5.093   0.902  0.5669 -0.7580 -0.5265
  679MOL0     H89564  11.092   5.317   1.009  2.1083 -0.8547  0.1897
  679MOL0     H89565  11.003   5.498   1.102  2.0780  4.4505 -0.3202
  679MOL0     H89566  10.834   5.477   1.063 -0.0197 -0.2693 -1.5152
  679MOL0     H89567  10.814   5.712   1.023 -1.1152 -0.8798  0.8829
  679MOL0     H89568  10.985   5.749   1.054  0.2808 -0.4904 -0.7789
  679MOL0     H89569  10.965   5.663   1.285  0.0028 -0.5426 -0.2924
  679MOL0     H89570  10.799   5.637   1.257  1.4315 -1.4753 -1.1662
  679MOL0     H89571  10.957   5.905   1.283 -1.1522  0.5569  1.1394
  679MOL0     H89572  10.796   5.908   1.209 -0.8952 -0.8950 -0.7798
  679MOL0     H89573  10.821   5.959   1.449  0.0207  0.4975  0.2062
  679MOL0     H89574  10.836   5.788   1.492  2.7259  2.5210  2.2222
  679MOL0     H89575  10.624   5.722   1.403  0.8107 -0.2315  3.1459
  679MOL0     H89576  10.605   5.870   1.306 -3.0841  0.3314  0.9302
  679MOL0     H89577  10.607   6.009   1.526  0.8984 -0.6734  0.7564
  679MOL0     H89578  10.465   5.914   1.508 -0.3776 -1.4985 -0.9776
  679MOL0     H89579  10.587   5.906   1.741 -0.8443 -0.3862 -0.8411
  679MOL0     H89580  10.722   5.844   1.662  0.3298  1.2249 -1.0363
  679MOL0     H89581  10.685   5.646   1.857 -1.0289 -1.6360  1.0830
  679MOL0     H89582  10.429   5.347   1.862  0.7913 -0.8184  2.2836
  679MOL0     H89583  10.487   5.467   1.975 -1.0647 -0.2035 -0.6626
  679MOL0     H89584  10.603   5.267   1.995 -1.7068  2.1475  1.0243
  679MOL0     H89585  10.709   5.406   1.973  1.0357  1.3489 -1.5651
  679MOL0     H89586  10.632   5.190   1.770  1.2048 -2.3063  0.8394
  679MOL0     H89587  10.737   5.355   1.749  0.9978 -0.0655  1.5766
  679MOL0     H89588  10.866   5.153   1.739  0.6182  0.4350 -0.0896
  679MOL0     H89589  10.790   5.104   1.893  2.0086  0.8767  1.5843
  679MOL0     H89590  11.044   5.047   1.780  2.3824 -0.2011 -1.7984
  679MOL0     H89591  11.246   4.921   1.858 -0.9341 -1.3623  1.9978
  679MOL0     H89592  11.695   4.835   1.811 -0.0435  1.8926 -0.0434
  679MOL0     H89593  11.908   4.714   1.888 -1.2215 -0.9606 -0.6215
  679MOL0     H89594  11.890   4.531   2.213 -0.5460  1.9098 -0.8290
  679MOL0     H89595  12.070   4.517   2.183 -0.2355 -0.2293 -0.7650
  679MOL0     H89596  11.847   4.511   1.973 -0.8525 -2.5423  0.6831
  679MOL0     H89597  11.936   4.368   2.035  3.1938 -1.0407 -1.5372
  679MOL0     H89598  12.143   4.448   1.958 -1.2745 -0.1611  1.2008
  679MOL0     H89599  12.075   4.581   1.872  1.9411 -0.6990 -0.4356
  679MOL0     H89600  12.117   4.367   1.737 -1.0989 -1.3492 -2.2056
  679MOL0     H89601  11.979   4.302   1.811  3.0839 -1.0344  0.8909
  679MOL0     H89602  11.985   4.565   1.658 -0.7831  0.0551  0.5563
  679MOL0     H89603  11.830   4.488   1.722 -0.7322  0.5893 -0.6929
  679MOL0     H89604  11.902   4.470   1.469  0.6872  0.7708  0.4878
  679MOL0     H89605  11.828   4.338   1.540  0.8239 -0.6600 -3.0323
  679MOL0     H89606  12.118   4.384   1.506 -1.9889  2.2776  0.8217
  679MOL0     H89607  12.039   4.226   1.556 -2.3162  0.4104  0.2621
  679MOL0     H89608  11.983   4.366   1.289  0.2533  1.4141  0.7957
  679MOL0     H89609  11.974   4.195   1.335 -0.3921  0.2369  1.6986
  679MOL0     H89610  11.791   4.753   2.290 -0.0046  1.2532  0.1550
  679MOL0     H89611  11.584   4.863   2.223 -0.0237  0.2786  0.0686
  679MOL0     H89612  11.288   5.200   2.182  0.3834 -1.3801  0.1680
  679MOL0     H89613  11.096   5.319   2.110 -2.0948 -1.2215  1.3123
  679MOL0     H89614  10.841   5.439   0.680  0.0389 -2.4158 -4.1265
  679MOL0     H89615  10.890   5.219   0.573  0.3341  1.3226  0.0993
  679MOL0     H89616  11.348   4.757   0.650 -1.1154  0.1321  0.7988
  679MOL0     H89617  11.338   4.552   0.492 -2.6879 -3.5245 -3.8308
  679MOL0     H89618  11.124   4.335   0.507 -1.9057 -0.9477 -0.5004
  679MOL0     H89619  11.290   4.344   0.436  0.4868  4.8746 -0.5670
  679MOL0     H89620  11.116   4.154   0.373 -0.4482  0.5016 -0.1012
  679MOL0     H89621  11.060   4.289   0.270 -0.7505  0.0766  0.6572
  679MOL0     H89622  11.357   4.223   0.255  1.6405  0.0248 -2.1913
  679MOL0     H89623  11.270   4.331   0.162 -1.2554  1.2122  0.8988
  679MOL0     H89624  11.306   4.108   0.036 -0.7340 -2.8753 -0.8841
  679MOL0     H89625  11.257   4.017   0.173 -1.0476 -0.8236 -2.8607
  679MOL0     H89626  10.902   4.084  -0.059 -0.3745 -2.1576  2.0990
  679MOL0     H89627  10.953   4.620   0.398  1.4885 -2.1893  1.2011
  679MOL0     H89628  10.960   4.878   0.497  1.9539  3.5354  0.0059
  680MOL0     O89629   4.551   5.688   0.636  0.1562  0.4444  0.2357
  680MOL0     C89630   4.656   5.752   0.649  0.4629  0.9624 -0.8766
  680MOL0     O89631   4.782   5.699   0.700 -0.6260 -0.7144 -0.5285
  680MOL0     C89632   4.801   5.565   0.718 -0.8009  0.1671  0.2328
  680MOL0     C89633   4.922   5.516   0.671 -0.2998  0.1459  0.1608
  680MOL0     C89634   4.952   5.383   0.696  0.0313  0.5982  1.1990
  680MOL0     C89635   4.870   5.296   0.759 -0.0571 -0.4843  0.0460
  680MOL0     O89636   4.885   5.166   0.789 -0.9184 -0.3891  0.0891
  680MOL0     C89637   5.010   5.126   0.851 -0.7336 -0.5272  0.7337
  680MOL0     C89638   5.021   4.983   0.890 -0.4213  0.8767 -0.3919
  680MOL0     C89639   5.170   4.931   0.915  0.1589  0.8620  0.0841
  680MOL0     C89640   5.161   4.779   0.958 -0.3378  1.3878 -0.0624
  680MOL0     C89641   5.303   4.723   0.971  0.3985  0.7151  0.5297
  680MOL0     C89642   5.322   4.620   0.853  0.3835 -0.3027 -0.5281
  680MOL0     C89643   5.470   4.603   0.817 -0.9876  0.6767 -0.7592
  680MOL0     C89644   5.547   4.520   0.922 -0.8140 -0.5423  0.4138
  680MOL0     N89645   5.684   4.494   0.879  0.2615 -0.0593  0.0821
  680MOL0     C89646   5.795   4.575   0.902  0.3944  0.1142 -0.1993
  680MOL0     C89647   5.908   4.492   0.905  0.5430 -0.6340  0.3751
  680MOL0     C89648   6.051   4.543   0.934  0.0310 -0.6084  0.0884
  680MOL0     C89649   6.150   4.485   0.841 -0.3510 -0.2817 -0.9966
  680MOL0     C89650   6.124   4.524   0.695  0.9656 -0.9405 -0.1930
  680MOL0     C89651   6.109   4.661   0.655  0.0349 -0.9301 -0.9258
  680MOL0     O89652   6.006   4.742   0.722 -0.3348  0.3467  0.6192
  680MOL0     C89653   5.882   4.769   0.662 -0.2182  0.3075 -0.2709
  680MOL0     C89654   5.811   4.864   0.732  0.1876 -0.8467  0.3778
  680MOL0     C89655   5.695   4.914   0.676  0.5698  0.5542  0.8132
  680MOL0     C89656   5.637   4.858   0.557  0.6544  1.4333 -0.2508
  680MOL0     C89657   5.516   4.896   0.494  0.6440  0.4158 -0.0649
  680MOL0     O89658   5.446   4.996   0.549  0.0666 -0.7185  0.2412
  680MOL0     C89659   5.332   5.037   0.487 -0.6046 -1.0330  0.6924
  680MOL0     C89660   5.337   5.144   0.401 -0.2059 -0.5474  0.5098
  680MOL0     C89661   5.219   5.193   0.348 -0.3339 -0.1050 -0.5447
  680MOL0     C89662   5.092   5.133   0.374 -0.2868  0.4355  0.0337
  680MOL0     O89663   4.975   5.180   0.312 -0.2179 -0.3863  0.7088
  680MOL0     C89664   4.845   5.128   0.348 -0.5509 -1.0441  0.6910
  680MOL0     C89665   4.758   5.167   0.232  1.1596  0.6266  0.1507
  680MOL0     C89666   4.718   5.317   0.229  0.4300 -0.7058 -0.7445
  680MOL0     C89667   4.636   5.368   0.354  0.4446 -0.9582  0.5881
  680MOL0     C89668   4.586   5.508   0.323 -0.5484  0.7644  0.1759
  680MOL0     C89669   4.464   5.522   0.223  0.1791  0.1545 -0.7546
  680MOL0     C89670   4.382   5.652   0.235  0.2436  0.1938 -0.6185
  680MOL0     C89671   4.445   5.791   0.199  0.6183  0.6736  0.2531
  680MOL0    Cl89672   4.474   5.800   0.020  0.2388  0.1211  0.5098
  680MOL0     C89673   5.099   5.026   0.465 -0.0228 -0.6884  0.4426
  680MOL0     C89674   5.213   4.995   0.535 -0.3500  1.4254  0.0067
  680MOL0     O89675   5.476   4.831   0.397 -0.2903 -0.5766  0.4293
  680MOL0     C89676   5.697   4.737   0.508 -0.6152 -0.3138  0.7835
  680MOL0     C89677   5.819   4.695   0.559 -0.5561  0.0269  1.2868
  680MOL0     N89678   5.868   4.363   0.872  0.4391 -0.8935  0.2762
  680MOL0     N89679   5.736   4.368   0.863 -0.1487  0.5735  0.6152
  680MOL0     C89680   4.748   5.339   0.803  0.1072  0.1812  0.8346
  680MOL0     C89681   4.714   5.472   0.778  0.0060 -0.6877 -0.6463
  680MOL0     C89682   4.643   5.898   0.619  1.1985 -0.3241  0.0088
  680MOL0     C89683   4.729   5.995   0.670 -1.2761 -0.0790 -1.4630
  680MOL0     C89684   4.710   6.131   0.658 -0.1155 -0.2367  0.2488
  680MOL0     C89685   4.603   6.176   0.577  0.1029  0.0685  0.6149
  680MOL0     O89686   4.575   6.307   0.560 -0.0666 -0.7433 -0.3656
  680MOL0     C89687   4.659   6.417   0.594 -0.8982 -0.4089 -0.0308
  680MOL0     C89688   4.783   6.421   0.500  0.2818  0.0652 -0.0020
  680MOL0     C89689   4.877   6.542   0.542  0.9503 -0.1800 -0.9984
  680MOL0     C89690   5.029   6.514   0.521 -0.4824  0.0411 -0.0835
  680MOL0     C89691   5.078   6.552   0.389 -0.8571 -0.4999  0.2348
  680MOL0     C89692   5.108   6.595   0.278  0.3204 -0.2135 -0.4473
  680MOL0     C89693   4.515   6.081   0.519  0.4569  0.6763  1.3014
  680MOL0     C89694   4.528   5.947   0.540 -0.4811 -0.2995 -0.7917
  680MOL0     H89695   4.992   5.579   0.618  0.9682 -2.4763 -1.5161
  680MOL0     H89696   5.050   5.353   0.660 -0.0449  2.5459 -0.8937
  680MOL0     H89697   5.030   5.188   0.939  0.7734 -0.6891  0.5466
  680MOL0     H89698   5.093   5.151   0.783 -0.8715  0.7045  0.9956
  680MOL0     H89699   4.997   4.935   0.795 -0.7419  3.9893 -2.0195
  680MOL0     H89700   4.946   4.960   0.966  0.4457  0.6086  0.3951
  680MOL0     H89701   5.217   4.995   0.990 -1.5792  3.1813 -0.6892
  680MOL0     H89702   5.229   4.940   0.824  3.4349 -0.4850  1.8908
  680MOL0     H89703   5.113   4.766   1.055 -0.1025 -1.0279 -0.2225
  680MOL0     H89704   5.098   4.721   0.890  1.1604  0.2349 -0.5281
  680MOL0     H89705   5.317   4.663   1.062 -0.2197 -0.3844 -0.0793
  680MOL0     H89706   5.384   4.796   0.974  1.5381 -0.5236  1.9936
  680MOL0     H89707   5.274   4.658   0.762 -0.8840  1.1016  0.6671
  680MOL0     H89708   5.288   4.521   0.884  1.7455 -0.1142  1.7443
  680MOL0     H89709   5.476   4.546   0.724 -1.6212  0.4011 -0.6408
  680MOL0     H89710   5.518   4.699   0.799  1.7881 -0.2465  0.9844
  680MOL0     H89711   5.505   4.421   0.940  0.1983 -0.6520  2.3615
  680MOL0     H89712   5.534   4.570   1.018  1.3887 -1.2968  1.1629
  680MOL0     H89713   5.781   4.681   0.920 -1.9879  0.3964 -2.8901
  680MOL0     H89714   6.083   4.515   1.035  0.5386 -1.6833 -0.3505
  680MOL0     H89715   6.044   4.652   0.939  1.3064 -0.4512 -1.1236
  680MOL0     H89716   6.148   4.378   0.861  1.9736  0.2897  3.6237
  680MOL0     H89717   6.252   4.510   0.872  0.1787 -0.6461 -2.3952
  680MOL0     H89718   6.207   4.486   0.636  0.5554 -0.3073 -1.1951
  680MOL0     H89719   6.029   4.482   0.661  0.5954 -1.0408  0.9082
  680MOL0     H89720   6.092   4.661   0.547 -0.8457  1.5867 -0.8539
  680MOL0     H89721   6.207   4.707   0.674  0.1406 -1.3217 -0.5069
  680MOL0     H89722   5.862   4.911   0.816  1.8070 -3.2187  0.8503
  680MOL0     H89723   5.641   4.993   0.726  0.5065  0.3963  0.9954
  680MOL0     H89724   5.433   5.191   0.380  0.1798 -1.7260 -0.4545
  680MOL0     H89725   5.228   5.283   0.287 -1.3770  1.0073  0.8663
  680MOL0     H89726   4.810   5.164   0.445 -0.8438 -1.8833  0.9027
  680MOL0     H89727   4.855   5.019   0.353  2.9555 -0.7950  1.4430
  680MOL0     H89728   4.670   5.105   0.254  0.0638  0.8291 -3.1085
  680MOL0     H89729   4.807   5.137   0.138  1.6260 -4.8123  1.7454
  680MOL0     H89730   4.657   5.332   0.139  0.0110  1.4922 -0.1533
  680MOL0     H89731   4.804   5.384   0.218 -2.9132  3.8423 -2.6803
  680MOL0     H89732   4.549   5.305   0.372 -0.0901 -0.5467 -0.4665
  680MOL0     H89733   4.703   5.370   0.440  1.6446  2.0364 -0.3002
  680MOL0     H89734   4.664   5.585   0.309  0.6879 -0.2890  1.0511
  680MOL0     H89735   4.550   5.551   0.417 -1.7347  2.0880 -0.8318
  680MOL0     H89736   4.385   5.449   0.244 -1.5370  2.2364  0.4752
  680MOL0     H89737   4.495   5.510   0.119  1.9614  2.0643 -0.5136
  680MOL0     H89738   4.289   5.643   0.179 -0.3485 -0.4876  0.4518
  680MOL0     H89739   4.351   5.653   0.340 -1.8050  0.2683 -1.1761
  680MOL0     H89740   4.547   5.794   0.238  1.7106 -0.6075 -2.2899
  680MOL0     H89741   4.384   5.868   0.247 -1.2077  0.0385 -0.9321
  680MOL0     H89742   5.006   4.981   0.499 -1.1210  0.4453 -0.9472
  680MOL0     H89743   5.206   4.912   0.605 -0.2327  2.5741  1.4388
  680MOL0     H89744   5.661   4.677   0.425  2.3842  0.0521 -0.9566
  680MOL0     H89745   5.863   4.609   0.510 -0.6538  0.5420  0.2672
  680MOL0     H89746   4.678   5.285   0.867 -1.4853 -1.3242 -1.9772
  680MOL0     H89747   4.622   5.518   0.811  1.5349  2.1246  0.0923
  680MOL0     H89748   4.808   5.961   0.736 -2.0287  0.6672 -0.1438
  680MOL0     H89749   4.762   6.197   0.726 -1.2574 -0.6958  1.6192
  680MOL0     H89750   4.696   6.423   0.697  3.2842 -1.2221 -1.2828
  680MOL0     H89751   4.606   6.512   0.581  0.3606  0.2407 -0.7588
  680MOL0     H89752   4.849   6.334   0.508  0.1952  0.1246  1.7324
  680MOL0     H89753   4.750   6.422   0.395  0.6600 -0.6829 -0.1348
  680MOL0     H89754   4.866   6.573   0.646 -1.1923  1.6509 -1.6898
  680MOL0     H89755   4.849   6.630   0.483  0.7306  2.7619  3.0729
  680MOL0     H89756   5.097   6.567   0.588 -0.7297  1.2647 -0.7701
  680MOL0     H89757   5.064   6.410   0.525  0.0558 -0.3099 -5.5063
  680MOL0     H89758   5.131   6.616   0.176 -0.8148 -1.0892 -0.8920
  680MOL0     H89759   4.422   6.099   0.467 -1.1696 -4.1552  2.0097
  680MOL0     H89760   4.461   5.868   0.507 -2.1899  1.3559 -1.3961
  681MOL0     O89761   0.681   3.407   7.188  0.0400  0.6330  0.2537
  681MOL0     C89762   0.661   3.516   7.236  0.0898 -1.1559  0.3904
  681MOL0     O89763   0.563   3.599   7.192 -0.7035 -0.4223  0.1333
  681MOL0     C89764   0.501   3.576   7.069 -1.0004 -0.0185  0.4626
  681MOL0     C89765   0.412   3.467   7.064  0.1585 -0.2309  0.9591
  681MOL0     C89766   0.343   3.443   6.944 -0.7752  0.3247 -0.4795
  681MOL0     C89767   0.366   3.514   6.830 -1.1616 -0.8840 -0.0265
  681MOL0     O89768   0.309   3.492   6.707  0.3090 -0.5759  0.5344
  681MOL0     C89769   0.258   3.359   6.676  0.7809 -0.8968 -1.0932
  681MOL0     C89770   0.225   3.352   6.529 -0.4725 -0.0432  0.8103
  681MOL0     C89771   0.356   3.369   6.448 -0.0411 -0.6864 -0.0570
  681MOL0     C89772   0.328   3.329   6.302 -0.7153 -0.7527  0.5508
  681MOL0     C89773   0.410   3.401   6.196 -0.6565 -0.2463  0.2825
  681MOL0     C89774   0.430   3.344   6.053 -1.4937 -0.0724  0.5517
  681MOL0     C89775   0.541   3.433   5.985 -0.2619 -0.5065  0.1481
  681MOL0     C89776   0.683   3.402   6.014  0.5492 -0.3279  0.1700
  681MOL0     N89777   0.781   3.441   5.910 -0.3414 -0.0077  0.2047
  681MOL0     C89778   0.913   3.471   5.936  0.6470  0.8197  0.1318
  681MOL0     C89779   0.975   3.489   5.816  0.4375  0.7391 -0.2371
  681MOL0     C89780   1.120   3.533   5.785  1.0540 -0.3326 -0.8002
  681MOL0     C89781   1.203   3.492   5.909 -0.7815  0.3436 -0.9764
  681MOL0     C89782   1.353   3.501   5.889  0.5845  0.2164  0.4681
  681MOL0     C89783   1.437   3.602   5.963  0.7365 -0.9924 -0.1510
  681MOL0     O89784   1.571   3.615   5.897  0.3912  0.4799  0.4659
  681MOL0     C89785   1.659   3.720   5.919 -0.3751  0.5424  0.0348
  681MOL0     C89786   1.758   3.735   5.824  0.2291 -0.0064  0.2062
  681MOL0     C89787   1.851   3.838   5.846  0.3350  0.2692  0.3162
  681MOL0     C89788   1.864   3.904   5.965  0.8958 -0.0345 -0.5707
  681MOL0     C89789   1.954   4.020   5.981 -1.2343  0.5659 -0.2607
  681MOL0     O89790   2.053   4.027   5.887  0.1352  0.0580  0.1312
  681MOL0     C89791   2.140   4.133   5.897  0.0548 -0.1544 -0.9487
  681MOL0     C89792   2.266   4.116   5.854 -0.6544  1.0771  0.2591
  681MOL0     C89793   2.356   4.218   5.845 -0.3729  0.0799  1.1955
  681MOL0     C89794   2.320   4.351   5.883 -0.3797  0.5487 -1.0657
  681MOL0     O89795   2.401   4.457   5.872  0.7357  0.0210  0.4830
  681MOL0     C89796   2.539   4.435   5.861 -0.7519  0.2381  0.3416
  681MOL0     C89797   2.606   4.569   5.831 -0.6872 -1.0065  0.9340
  681MOL0     C89798   2.755   4.564   5.786 -0.4693  0.1039  0.8470
  681MOL0     C89799   2.843   4.500   5.893  1.1292  0.6052  0.0959
  681MOL0     C89800   2.971   4.430   5.872  0.0788  0.5349  0.5425
  681MOL0     C89801   3.080   4.515   5.815  0.7994  1.4112 -0.1672
  681MOL0     C89802   3.221   4.443   5.817  0.3392 -0.2262  0.4344
  681MOL0     C89803   3.330   4.512   5.744 -0.2445 -0.0148 -0.2000
  681MOL0    Cl89804   3.489   4.455   5.805 -0.4812  0.2092 -0.2521
  681MOL0     C89805   2.190   4.377   5.921  0.0048  0.8679 -0.2680
  681MOL0     C89806   2.101   4.266   5.931  0.0382 -0.0727  0.3209
  681MOL0     O89807   1.956   4.072   6.092  0.9476 -0.1309 -0.9927
  681MOL0     C89808   1.759   3.880   6.054 -0.4577  0.6783  0.0400
  681MOL0     C89809   1.651   3.796   6.030  0.6604 -0.4205 -0.5347
  681MOL0     N89810   0.880   3.473   5.715 -0.2284 -0.3759  0.0449
  681MOL0     N89811   0.769   3.444   5.770  0.4915 -0.4859  0.6131
  681MOL0     C89812   0.453   3.631   6.836  0.1967  0.9093 -0.3569
  681MOL0     C89813   0.519   3.661   6.955  0.1232  0.9150 -1.4330
  681MOL0     C89814   0.749   3.559   7.349 -0.7348  0.2881 -0.4411
  681MOL0     C89815   0.834   3.471   7.418  0.4818  0.9970  0.3773
  681MOL0     C89816   0.903   3.498   7.538  0.1965  0.2092 -0.4980
  681MOL0     C89817   0.908   3.630   7.587  0.5798  0.5244  0.0826
  681MOL0     O89818   0.994   3.661   7.681  0.5153  0.0391  0.0883
  681MOL0     C89819   0.996   3.797   7.746  0.5213 -0.4918  0.0370
  681MOL0     C89820   1.058   3.790   7.882 -0.6506  0.3791  0.1119
  681MOL0     C89821   1.212   3.769   7.886 -1.4916  0.7593 -0.0387
  681MOL0     C89822   1.295   3.895   7.861  0.8170  0.3280  0.5397
  681MOL0     C89823   1.431   3.863   7.859 -0.8789 -0.1807  0.4090
  681MOL0     C89824   1.548   3.831   7.858 -0.7362  0.1068  0.0174
  681MOL0     C89825   0.829   3.724   7.517 -0.4458  0.2509  0.1274
  681MOL0     C89826   0.758   3.693   7.402  0.8221  0.1018 -0.2154
  681MOL0     H89827   0.408   3.393   7.143 -0.1389  0.1116  1.2715
  681MOL0     H89828   0.284   3.352   6.947  2.0244 -1.6247  0.0048
  681MOL0     H89829   0.161   3.344   6.724 -1.7731 -1.9077 -5.8883
  681MOL0     H89830   0.328   3.281   6.707  0.9814  0.2670  1.6995
  681MOL0     H89831   0.154   3.425   6.490 -2.2128 -2.1083 -0.0731
  681MOL0     H89832   0.185   3.251   6.520  0.5253 -0.6012  2.2546
  681MOL0     H89833   0.434   3.309   6.496 -0.5050  0.2970  2.0715
  681MOL0     H89834   0.404   3.467   6.452  1.4910 -1.1897 -3.3797
  681MOL0     H89835   0.365   3.226   6.297  1.7605 -0.0714  2.7797
  681MOL0     H89836   0.220   3.324   6.285 -0.9055  1.9960  0.6257
  681MOL0     H89837   0.509   3.394   6.242 -0.6097 -2.3380 -0.0361
  681MOL0     H89838   0.376   3.504   6.184  2.0233  0.7635  0.5561
  681MOL0     H89839   0.336   3.352   5.997 -0.8367  1.6253 -0.3979
  681MOL0     H89840   0.456   3.238   6.048  0.7968  0.4455 -4.7957
  681MOL0     H89841   0.503   3.420   5.883 -1.5205  2.8479  0.0527
  681MOL0     H89842   0.524   3.539   6.004  1.0966 -0.1166 -0.7166
  681MOL0     H89843   0.690   3.293   6.019 -1.9078 -0.6253 -1.4612
  681MOL0     H89844   0.705   3.440   6.115 -1.2306  1.5982 -0.0960
  681MOL0     H89845   0.955   3.493   6.033 -0.3365 -1.0578  1.0366
  681MOL0     H89846   1.122   3.641   5.774  0.4982 -0.0547  1.4136
  681MOL0     H89847   1.154   3.473   5.700 -0.6865 -2.5936 -0.0258
  681MOL0     H89848   1.176   3.389   5.936 -0.8010  0.7020  0.4650
  681MOL0     H89849   1.180   3.556   5.995 -1.0171 -0.2960 -0.5521
  681MOL0     H89850   1.390   3.400   5.906 -0.5868 -0.7520 -2.2904
  681MOL0     H89851   1.368   3.520   5.782  1.9431  1.7272  0.8846
  681MOL0     H89852   1.442   3.581   6.070 -0.2808 -1.2459 -0.1423
  681MOL0     H89853   1.391   3.701   5.959  2.9927  0.1535  0.7856
  681MOL0     H89854   1.782   3.681   5.733  0.1828  0.0670  0.1509
  681MOL0     H89855   1.924   3.858   5.768  1.2649  0.3859  1.1878
  681MOL0     H89856   2.301   4.018   5.823 -0.3248  1.1119  0.5218
  681MOL0     H89857   2.455   4.203   5.803 -0.5264 -1.5052  1.3451
  681MOL0     H89858   2.560   4.377   5.771  0.4206  1.7002 -0.3590
  681MOL0     H89859   2.572   4.387   5.954  2.2209  1.9145  0.2779
  681MOL0     H89860   2.604   4.636   5.917 -1.0283 -0.4236  0.4760
  681MOL0     H89861   2.549   4.620   5.753 -3.0162 -1.4976  2.2221
  681MOL0     H89862   2.785   4.667   5.767 -0.3200 -0.3331 -1.7110
  681MOL0     H89863   2.762   4.504   5.694  2.5570 -0.6402  1.4553
  681MOL0     H89864   2.859   4.570   5.976  0.5461  0.9075 -0.0418
  681MOL0     H89865   2.777   4.418   5.925 -0.2863  0.4183 -2.9737
  681MOL0     H89866   2.961   4.339   5.812 -0.0927  0.4560  0.6904
  681MOL0     H89867   3.021   4.401   5.965  1.0153  4.0604  1.2824
  681MOL0     H89868   3.085   4.605   5.877  0.1018  0.5243  1.2203
  681MOL0     H89869   3.058   4.536   5.710  1.0063 -2.8648 -1.2475
  681MOL0     H89870   3.235   4.416   5.922 -1.2677  0.1119  0.7628
  681MOL0     H89871   3.212   4.347   5.766  0.3890 -0.2789  0.5259
  681MOL0     H89872   3.324   4.620   5.752  3.4389  0.3195  0.0625
  681MOL0     H89873   3.314   4.488   5.638  1.2929 -0.5539 -0.3403
  681MOL0     H89874   2.137   4.471   5.937  0.5553  1.1136  0.1370
  681MOL0     H89875   1.999   4.298   5.948  0.1312  5.5576 -5.6768
  681MOL0     H89876   1.739   3.947   6.136 -0.2408  0.2249  0.4691
  681MOL0     H89877   1.566   3.803   6.098  1.4664  0.6640  0.4019
  681MOL0     H89878   0.458   3.698   6.750 -0.0254 -1.2477 -2.1294
  681MOL0     H89879   0.580   3.751   6.963  2.5652 -0.6620 -1.1562
  681MOL0     H89880   0.845   3.371   7.377  0.5947  1.0197  0.3514
  681MOL0     H89881   0.967   3.423   7.583  0.0362  0.0610 -0.5175
  681MOL0     H89882   0.894   3.829   7.770  0.1189 -1.5645 -0.2157
  681MOL0     H89883   1.041   3.868   7.676 -0.4137 -0.0818 -0.1648
  681MOL0     H89884   1.032   3.880   7.938 -0.5720 -0.0265  0.8176
  681MOL0     H89885   1.012   3.707   7.937  2.2487 -1.4501 -0.0380
  681MOL0     H89886   1.238   3.701   7.805 -0.4356 -1.0385  1.7101
  681MOL0     H89887   1.246   3.729   7.983  1.7354  1.8423 -0.5862
  681MOL0     H89888   1.275   3.933   7.760 -0.2370 -2.1314 -0.2446
  681MOL0     H89889   1.284   3.973   7.937  3.7364  2.6701 -1.1866
  681MOL0     H89890   1.644   3.789   7.837 -1.6247 -2.3466  0.5181
  681MOL0     H89891   0.827   3.824   7.560 -1.4102 -0.3336  1.5413
  681MOL0     H89892   0.709   3.779   7.359 -0.4133 -0.0065  0.9064
  682MOL0     O89893   4.801   4.689   3.465  0.5439 -0.3962 -0.4212
  682MOL0     C89894   4.807   4.742   3.357 -0.3136  0.4247  0.8311
  682MOL0     O89895   4.726   4.847   3.320 -0.8517 -0.3302  0.0982
  682MOL0     C89896   4.614   4.878   3.386  1.0177 -0.3089 -0.0884
  682MOL0     C89897   4.501   4.797   3.381 -0.6866 -0.5063 -0.1931
  682MOL0     C89898   4.390   4.843   3.458 -0.5516 -0.3802  0.4245
  682MOL0     C89899   4.386   4.962   3.521 -0.1531 -0.6397 -0.3005
  682MOL0     O89900   4.280   4.989   3.603  0.1961 -0.4171 -0.0116
  682MOL0     C89901   4.306   5.080   3.712  0.1781  0.3081 -0.9700
  682MOL0     C89902   4.177   5.092   3.798 -0.3868 -0.3101  0.1380
  682MOL0     C89903   4.207   5.105   3.946 -0.0532 -0.4360 -0.9232
  682MOL0     C89904   4.251   4.973   4.018 -0.4370  0.0738 -0.7551
  682MOL0     C89905   4.277   5.005   4.170 -0.6175 -0.4289 -0.6968
  682MOL0     C89906   4.290   4.866   4.241 -1.2154 -0.8407  0.4713
  682MOL0     C89907   4.357   4.883   4.375  0.1649 -0.1254  1.2367
  682MOL0     C89908   4.382   4.746   4.454 -0.3640  0.3812 -0.2045
  682MOL0     N89909   4.455   4.646   4.384 -0.1239  0.3305  0.5701
  682MOL0     C89910   4.585   4.645   4.343  0.2971 -0.1892  0.3563
  682MOL0     C89911   4.590   4.544   4.250 -0.2195 -0.2955 -0.1980
  682MOL0     C89912   4.715   4.525   4.159  0.4282  0.9754  1.3862
  682MOL0     C89913   4.746   4.652   4.076  1.2452 -0.1633  0.4379
  682MOL0     C89914   4.785   4.621   3.931 -0.2509 -0.1478  0.0817
  682MOL0     C89915   4.813   4.758   3.854 -0.2114  0.4064  0.6507
  682MOL0     O89916   4.932   4.820   3.896 -0.5294  0.4445 -0.5528
  682MOL0     C89917   5.053   4.799   3.821 -0.3697  0.5525 -0.0171
  682MOL0     C89918   5.152   4.897   3.814  0.2033 -0.0392  0.4079
  682MOL0     C89919   5.262   4.887   3.725 -0.3582  0.1325  0.0850
  682MOL0     C89920   5.286   4.772   3.640 -0.5792 -0.3418  0.1504
  682MOL0     C89921   5.395   4.765   3.542 -0.3268 -0.5922  0.0563
  682MOL0     O89922   5.400   4.655   3.459  0.0046 -0.0050 -0.2860
  682MOL0     C89923   5.507   4.644   3.373 -0.4288  0.3690  0.0545
  682MOL0     C89924   5.524   4.733   3.262  0.1269  0.1929  0.0866
  682MOL0     C89925   5.613   4.708   3.157  1.1806  0.5764 -0.7571
  682MOL0     C89926   5.685   4.593   3.164  0.4921 -1.2324 -0.4410
  682MOL0     O89927   5.772   4.548   3.073  0.4443  0.8385  0.8982
  682MOL0     C89928   5.777   4.603   2.942 -0.0807 -0.5794 -0.0420
  682MOL0     C89929   5.791   4.480   2.852 -0.2183 -0.3065  0.5576
  682MOL0     C89930   5.835   4.536   2.716 -0.0422  0.3942 -0.3665
  682MOL0     C89931   5.876   4.441   2.610 -0.6055  0.0478  0.3523
  682MOL0     C89932   5.817   4.487   2.474 -0.5265 -0.5787  0.0078
  682MOL0     C89933   5.872   4.405   2.353  0.3617 -0.1829  0.4738
  682MOL0     C89934   5.834   4.255   2.360 -0.9227  0.8299 -0.8704
  682MOL0     C89935   5.935   4.144   2.403  1.3371  0.1675 -0.1743
  682MOL0    Cl89936   5.875   3.993   2.463 -0.1829  0.0739 -0.3202
  682MOL0     C89937   5.682   4.514   3.275 -0.0359 -1.0189  0.3309
  682MOL0     C89938   5.589   4.539   3.379 -0.5087 -0.0831  0.1026
  682MOL0     O89939   5.474   4.863   3.536  1.0427 -1.0182  0.7310
  682MOL0     C89940   5.184   4.672   3.665  0.3720  0.2405  0.6169
  682MOL0     C89941   5.071   4.680   3.740 -0.8813  0.0705 -0.1386
  682MOL0     N89942   4.468   4.478   4.250  0.1329  0.0094  0.0196
  682MOL0     N89943   4.389   4.534   4.334 -0.4466 -0.8156 -0.3290
  682MOL0     C89944   4.499   5.047   3.528  0.2030 -0.8166  0.5734
  682MOL0     C89945   4.612   4.993   3.460  0.3777  0.5699  0.3096
  682MOL0     C89946   4.902   4.685   3.253  0.1299 -0.0996 -0.7088
  682MOL0     C89947   4.902   4.729   3.119 -0.3554 -0.2876  1.6799
  682MOL0     C89948   4.991   4.670   3.023 -1.2030 -0.5106 -0.0067
  682MOL0     C89949   5.106   4.594   3.071  0.0557 -0.4712 -0.3990
  682MOL0     O89950   5.198   4.563   2.979 -0.0301 -0.1115  0.0449
  682MOL0     C89951   5.313   4.487   3.005 -0.0180  0.3014  0.7184
  682MOL0     C89952   5.392   4.490   2.873 -0.1714  0.8215  0.5715
  682MOL0     C89953   5.332   4.433   2.745  0.2324  0.6264  0.3768
  682MOL0     C89954   5.418   4.442   2.623  0.4141 -0.1842  0.3706
  682MOL0     C89955   5.507   4.332   2.633 -0.5510 -0.3045 -0.0010
  682MOL0     C89956   5.568   4.234   2.671 -0.7358 -0.5148 -0.1243
  682MOL0     C89957   5.118   4.567   3.206 -0.4368  0.0116 -0.3215
  682MOL0     C89958   5.008   4.602   3.290  0.3947  0.0664 -0.0844
  682MOL0     H89959   4.488   4.716   3.311 -5.1462  1.7596 -2.4501
  682MOL0     H89960   4.309   4.775   3.432  1.0480 -1.0461 -3.5170
  682MOL0     H89961   4.329   5.182   3.679 -1.1637  0.5268 -1.3157
  682MOL0     H89962   4.389   5.029   3.761  1.0841  1.3405 -1.3945
  682MOL0     H89963   4.107   5.008   3.790 -0.3280 -0.2708 -0.9111
  682MOL0     H89964   4.131   5.189   3.777 -0.8049 -0.3158  0.9709
  682MOL0     H89965   4.115   5.138   3.996  0.3900  0.1014 -0.4392
  682MOL0     H89966   4.291   5.175   3.958  0.7530 -1.5143  0.0020
  682MOL0     H89967   4.182   4.890   3.998  0.9257 -1.0422 -0.9789
  682MOL0     H89968   4.348   4.950   3.973 -0.8860  0.2162 -1.8112
  682MOL0     H89969   4.197   5.071   4.204  1.2351  1.4620  0.2418
  682MOL0     H89970   4.371   5.062   4.173  0.1045 -1.6042  1.0747
  682MOL0     H89971   4.356   4.809   4.175 -1.0549  1.6243 -1.6623
  682MOL0     H89972   4.196   4.814   4.261 -0.7464 -1.4255  1.1675
  682MOL0     H89973   4.456   4.928   4.365  1.6835 -3.3877  0.3802
  682MOL0     H89974   4.296   4.954   4.430 -0.4670 -0.1666  0.6122
  682MOL0     H89975   4.282   4.707   4.475  1.0497 -2.8096  1.1957
  682MOL0     H89976   4.441   4.750   4.547  0.3792 -4.7593 -0.1638
  682MOL0     H89977   4.654   4.727   4.359  0.1780 -0.1252  0.5510
  682MOL0     H89978   4.694   4.434   4.102 -0.4091  2.0021  0.0162
  682MOL0     H89979   4.807   4.496   4.211  2.8828 -1.2641 -3.4781
  682MOL0     H89980   4.831   4.702   4.124  1.1423 -2.2392  3.0083
  682MOL0     H89981   4.662   4.721   4.065 -1.5776 -3.7575 -3.6680
  682MOL0     H89982   4.877   4.562   3.935 -0.0235  0.2693  1.9588
  682MOL0     H89983   4.707   4.567   3.877 -0.6617  0.1184  0.4010
  682MOL0     H89984   4.731   4.821   3.889 -2.3892 -2.7685  1.8103
  682MOL0     H89985   4.817   4.735   3.747 -0.8761 -4.7091  1.4586
  682MOL0     H89986   5.109   4.983   3.864 -0.7830  0.3464 -1.0433
  682MOL0     H89987   5.305   4.986   3.717 -2.7013  1.2077  0.1256
  682MOL0     H89988   5.450   4.812   3.254 -2.5747 -2.2904 -1.4844
  682MOL0     H89989   5.630   4.782   3.078  0.7728  0.6230 -0.8049
  682MOL0     H89990   5.863   4.671   2.940 -2.1758  2.3687  2.1897
  682MOL0     H89991   5.690   4.662   2.915 -1.3182 -2.4120 -0.2393
  682MOL0     H89992   5.705   4.414   2.843  0.4254 -1.0749 -0.1695
  682MOL0     H89993   5.872   4.422   2.897  0.4224  1.0752  1.2328
  682MOL0     H89994   5.909   4.614   2.737 -0.9597  1.2138 -0.0973
  682MOL0     H89995   5.758   4.599   2.670  0.2948  1.9047  1.0117
  682MOL0     H89996   5.984   4.453   2.595 -0.6318 -1.4013 -1.4801
  682MOL0     H89997   5.844   4.338   2.626  0.6239 -0.8515 -2.3254
  682MOL0     H89998   5.850   4.590   2.458 -1.2220 -0.7691 -3.4548
  682MOL0     H89999   5.708   4.483   2.477 -0.5331 -0.1108  0.8520
  682MOL0     H90000   5.979   4.425   2.360  0.6726 -2.0371  1.7562
  682MOL0     H90001   5.822   4.441   2.263 -1.3520  0.2528  1.5359
  682MOL0     H90002   5.750   4.248   2.431  0.3938  0.5999  0.7189
  682MOL0     H90003   5.798   4.213   2.265 -1.1535 -0.4873 -0.2301
  682MOL0     H90004   5.999   4.181   2.484  0.1988 -0.6885  1.1569
  682MOL0     H90005   5.997   4.129   2.314 -1.3974  0.2206 -2.2005
  682MOL0     H90006   5.735   4.421   3.290  0.2446 -0.5047  3.0191
  682MOL0     H90007   5.592   4.493   3.477 -0.4287 -1.7884 -0.6618
  682MOL0     H90008   5.192   4.578   3.612 -0.7497 -0.7814  2.1623
  682MOL0     H90009   4.995   4.603   3.739 -2.9460  1.9679  0.9726
  682MOL0     H90010   4.499   5.149   3.565  0.2878  0.5117 -2.7424
  682MOL0     H90011   4.709   5.041   3.461  2.7302 -3.4777 -2.1536
  682MOL0     H90012   4.836   4.802   3.072  0.0185  0.0455  1.6715
  682MOL0     H90013   4.989   4.695   2.917 -0.4479 -0.6055 -0.0455
  682MOL0     H90014   5.268   4.390   3.029 -0.4116  0.5553  1.0227
  682MOL0     H90015   5.376   4.524   3.086  1.9123 -0.3620 -0.4282
  682MOL0     H90016   5.420   4.595   2.855 -0.8315  1.0861  1.0512
  682MOL0     H90017   5.479   4.426   2.893 -1.9428 -1.3956  1.5913
  682MOL0     H90018   5.238   4.483   2.720 -1.6950 -1.2801  3.2064
  682MOL0     H90019   5.310   4.328   2.764 -1.3672  1.2244  2.1288
  682MOL0     H90020   5.346   4.436   2.541  2.1158  0.1452 -1.2063
  682MOL0     H90021   5.470   4.538   2.620  2.1223 -0.9522  2.6769
  682MOL0     H90022   5.614   4.148   2.715 -0.8093 -0.1469  0.6816
  682MOL0     H90023   5.201   4.516   3.255 -1.3574  0.5348  1.9082
  682MOL0     H90024   5.020   4.567   3.391 -1.1113  0.7910  0.3851
  683MOL0     O90025   8.521   1.403   7.404 -0.2618  0.0544  1.1104
  683MOL0     C90026   8.491   1.482   7.495 -1.0644  0.2392 -0.3214
  683MOL0     O90027   8.576   1.531   7.590 -0.0962  0.5830 -0.5411
  683MOL0     C90028   8.705   1.552   7.570  1.1538 -0.1029 -0.0284
  683MOL0     C90029   8.783   1.580   7.682 -0.5940 -0.1205  0.1937
  683MOL0     C90030   8.917   1.628   7.679  0.6922  0.5589 -0.9971
  683MOL0     C90031   8.988   1.650   7.556 -0.2350  0.3223  0.3614
  683MOL0     O90032   9.122   1.666   7.537 -0.5204 -0.1728  0.1301
  683MOL0     C90033   9.162   1.805   7.532 -0.0313  0.0772 -0.3196
  683MOL0     C90034   9.299   1.831   7.596  0.8509 -0.3185  0.0080
  683MOL0     C90035   9.356   1.721   7.670  0.4345  0.0186  0.3162
  683MOL0     C90036   9.292   1.691   7.807  0.4730 -0.3462 -0.7016
  683MOL0     C90037   9.334   1.565   7.880  0.6899  0.0577  0.1346
  683MOL0     C90038   9.250   1.434   7.850 -0.0157  1.1658  1.0355
  683MOL0     C90039   9.265   1.325   7.956 -0.1509  0.6567 -0.3911
  683MOL0     C90040   9.185   1.197   7.927 -0.5781 -0.1578  0.3203
  683MOL0     N90041   9.032   1.231   7.932 -0.0000  0.3793 -0.1774
  683MOL0     C90042   8.951   1.251   7.824 -0.2842  0.4258  0.1475
  683MOL0     C90043   8.822   1.229   7.866 -0.2088  0.3644  0.4891
  683MOL0     C90044   8.695   1.206   7.768 -0.1824 -0.4409 -0.0372
  683MOL0     C90045   8.713   1.095   7.667  0.0515 -0.7438 -0.2827
  683MOL0     C90046   8.571   1.070   7.609 -0.0329  0.4470  0.7801
  683MOL0     C90047   8.501   0.942   7.674 -0.9398  0.5453  0.0707
  683MOL0     O90048   8.396   0.878   7.594 -0.6351 -0.0327 -0.6122
  683MOL0     C90049   8.285   0.948   7.562  0.0013  0.6359  0.2030
  683MOL0     C90050   8.212   0.895   7.458  0.1736 -0.4916  0.5047
  683MOL0     C90051   8.093   0.957   7.405 -0.3586  0.1869 -0.7965
  683MOL0     C90052   8.045   1.076   7.459  0.1684 -0.5378  0.2486
  683MOL0     C90053   7.908   1.133   7.423  0.1782 -0.0480 -0.5610
  683MOL0     O90054   7.828   1.066   7.345  1.1433 -0.4998 -0.3581
  683MOL0     C90055   7.707   1.123   7.293 -0.9536 -0.0389 -0.2031
  683MOL0     C90056   7.712   1.241   7.215 -0.8649 -0.4719  0.2403
  683MOL0     C90057   7.601   1.298   7.157 -1.0446  0.0373 -0.0188
  683MOL0     C90058   7.475   1.240   7.168  0.2346 -0.4487 -0.0985
  683MOL0     O90059   7.367   1.281   7.085  0.0552  0.0577  0.5344
  683MOL0     C90060   7.235   1.251   7.125  0.1880  0.4390 -0.1626
  683MOL0     C90061   7.144   1.303   7.022  0.1026  0.8059 -0.1017
  683MOL0     C90062   7.157   1.453   6.993 -0.7716 -0.6473 -0.2298
  683MOL0     C90063   7.085   1.502   6.868  0.8451 -0.1591  0.7470
  683MOL0     C90064   7.063   1.655   6.842 -0.1072 -0.1079  0.7237
  683MOL0     C90065   6.970   1.724   6.933 -0.6465  0.4717  0.1600
  683MOL0     C90066   6.825   1.665   6.932  0.9572 -0.9293  0.6349
  683MOL0     C90067   6.742   1.710   6.808  0.5373  0.1356 -0.0008
  683MOL0    Cl90068   6.562   1.697   6.851 -0.3527 -0.2065 -0.4437
  683MOL0     C90069   7.464   1.144   7.274 -0.2236  0.4929 -0.6409
  683MOL0     C90070   7.576   1.074   7.314  0.2321 -0.0080  0.3414
  683MOL0     O90071   7.886   1.243   7.467 -0.1505  0.5377  0.6575
  683MOL0     C90072   8.120   1.125   7.572 -0.4756 -1.0551  0.5480
  683MOL0     C90073   8.235   1.063   7.620  0.5739  0.6159  0.0252
  683MOL0     N90074   8.813   1.217   8.003 -0.4963 -0.2191  0.0508
  683MOL0     N90075   8.940   1.233   8.035  0.7727  0.0964  0.0732
  683MOL0     C90076   8.909   1.603   7.444  0.3216  0.0250  0.7380
  683MOL0     C90077   8.773   1.564   7.447 -0.0963 -0.5827 -0.3439
  683MOL0     C90078   8.352   1.528   7.515 -0.0849 -0.6222 -0.1938
  683MOL0     C90079   8.314   1.622   7.609 -0.5634  0.2755 -0.0865
  683MOL0     C90080   8.178   1.653   7.629 -0.3364 -0.2616  0.2021
  683MOL0     C90081   8.078   1.592   7.552 -0.7653 -0.8503 -0.6809
  683MOL0     O90082   7.954   1.627   7.579 -0.4071  0.4523  0.5294
  683MOL0     C90083   7.848   1.582   7.489  0.2292 -0.3352 -0.8846
  683MOL0     C90084   7.743   1.693   7.494 -0.8789 -0.2154  0.7636
  683MOL0     C90085   7.627   1.639   7.415 -0.2303 -0.7325  0.7154
  683MOL0     C90086   7.490   1.705   7.443  0.4288  0.4636 -0.1881
  683MOL0     C90087   7.390   1.693   7.332 -0.2708 -1.0661  0.0868
  683MOL0     C90088   7.313   1.690   7.236 -0.0122 -0.5578  0.1868
  683MOL0     C90089   8.116   1.515   7.446 -0.1773  0.1045 -0.0468
  683MOL0     C90090   8.248   1.484   7.437 -1.8455  0.1133 -0.9445
  683MOL0     H90091   8.736   1.571   7.780 -1.0311 -1.3643 -0.1079
  683MOL0     H90092   8.971   1.637   7.772 -0.7696 -0.2608 -0.0205
  683MOL0     H90093   9.091   1.867   7.586  0.3291  1.8077 -1.7342
  683MOL0     H90094   9.153   1.849   7.432 -3.8254 -0.4242 -0.3390
  683MOL0     H90095   9.294   1.917   7.664  0.8219 -1.4647  1.5213
  683MOL0     H90096   9.375   1.866   7.525  2.3619 -1.0763  1.1911
  683MOL0     H90097   9.459   1.752   7.689  1.6047 -3.9004  1.2976
  683MOL0     H90098   9.347   1.636   7.601 -2.1150  1.1502 -0.9221
  683MOL0     H90099   9.320   1.778   7.866  0.8003  0.1563 -1.5785
  683MOL0     H90100   9.183   1.687   7.808  0.4546  0.0225 -1.0688
  683MOL0     H90101   9.329   1.584   7.988  1.8364 -0.6590  0.3297
  683MOL0     H90102   9.441   1.545   7.867  1.6649  3.5288  1.6017
  683MOL0     H90103   9.277   1.381   7.759 -1.1170 -2.3983  2.5960
  683MOL0     H90104   9.145   1.461   7.855  0.0259  1.1251  2.6123
  683MOL0     H90105   9.371   1.306   7.972 -0.7691 -1.5280  1.6373
  683MOL0     H90106   9.236   1.381   8.045  0.7062  2.0089 -0.9423
  683MOL0     H90107   9.219   1.115   7.990 -0.3401  0.0261  0.4319
  683MOL0     H90108   9.206   1.156   7.828  0.5025 -2.5533  1.4858
  683MOL0     H90109   8.984   1.258   7.721  1.3022  0.9782  0.6585
  683MOL0     H90110   8.684   1.297   7.708  0.8377 -1.0247 -1.1548
  683MOL0     H90111   8.607   1.186   7.829  0.9366 -1.1220  1.4157
  683MOL0     H90112   8.757   1.012   7.723  0.5987  0.5119  1.2071
  683MOL0     H90113   8.782   1.144   7.598 -1.2520  2.3151  0.4130
  683MOL0     H90114   8.500   1.153   7.618  0.5855  1.0370  0.3012
  683MOL0     H90115   8.586   1.050   7.502 -2.5158  1.3701  0.1887
  683MOL0     H90116   8.460   0.970   7.772 -1.0759 -1.4687  0.6316
  683MOL0     H90117   8.581   0.872   7.697 -0.0102  1.7917  0.7405
  683MOL0     H90118   8.254   0.800   7.426 -0.5934 -1.3434  1.9310
  683MOL0     H90119   8.044   0.897   7.328 -0.2150 -0.7727 -0.1594
  683MOL0     H90120   7.808   1.287   7.198  0.8970 -3.7703  0.3231
  683MOL0     H90121   7.631   1.383   7.096  1.8491 -0.6316  0.3411
  683MOL0     H90122   7.215   1.302   7.220  3.1338 -1.7206  1.7867
  683MOL0     H90123   7.230   1.142   7.135 -2.8563  0.6563  2.5646
  683MOL0     H90124   7.039   1.290   7.050  0.3913 -0.4258  0.4910
  683MOL0     H90125   7.170   1.244   6.934  0.0767  1.1509 -0.3416
  683MOL0     H90126   7.263   1.475   6.984 -0.4953 -0.4700  2.5894
  683MOL0     H90127   7.114   1.502   7.081 -0.2170 -2.1546  0.9188
  683MOL0     H90128   7.151   1.468   6.788  0.7903  0.9926  0.1856
  683MOL0     H90129   6.987   1.452   6.866 -0.6718  2.6121 -0.8733
  683MOL0     H90130   7.041   1.700   6.745 -1.0660  3.9827  2.6025
  683MOL0     H90131   7.161   1.696   6.864 -0.0482 -0.0913  0.4350
  683MOL0     H90132   6.974   1.832   6.920  0.0246  0.9682  3.4879
  683MOL0     H90133   7.000   1.698   7.035 -0.9317 -2.1795 -0.3652
  683MOL0     H90134   6.831   1.556   6.939 -0.3657 -0.9391  2.2527
  683MOL0     H90135   6.778   1.700   7.025 -0.3534 -3.3297  0.9590
  683MOL0     H90136   6.777   1.653   6.722  3.3886  2.2521 -0.4012
  683MOL0     H90137   6.774   1.812   6.785  0.9783  0.0412  0.1988
  683MOL0     H90138   7.366   1.105   7.300  0.2593 -0.7788 -0.6715
  683MOL0     H90139   7.557   1.013   7.403  1.3274 -0.4699  0.2783
  683MOL0     H90140   8.092   1.213   7.629  0.7836  0.2561 -0.7812
  683MOL0     H90141   8.283   1.115   7.703  0.7856  1.4020 -0.5806
  683MOL0     H90142   8.953   1.608   7.345  4.6404  0.3778  2.4557
  683MOL0     H90143   8.734   1.535   7.350 -3.5935  0.5166  0.5907
  683MOL0     H90144   8.387   1.663   7.679 -1.1180 -3.1291  2.7952
  683MOL0     H90145   8.142   1.728   7.698 -2.6167 -1.5832  0.5471
  683MOL0     H90146   7.821   1.479   7.509 -1.5853  0.0283 -1.3411
  683MOL0     H90147   7.879   1.588   7.384 -1.0204  3.6357 -1.2203
  683MOL0     H90148   7.711   1.703   7.599 -2.9028 -0.4837  0.2172
  683MOL0     H90149   7.787   1.787   7.461 -0.3141 -0.6309  0.3258
  683MOL0     H90150   7.618   1.532   7.438  0.7031 -1.1467 -0.6822
  683MOL0     H90151   7.658   1.655   7.311 -1.0457  2.1486  0.8522
  683MOL0     H90152   7.452   1.664   7.537 -4.6988 -2.3817 -3.0418
  683MOL0     H90153   7.503   1.813   7.454  3.3397  0.3010 -1.1751
  683MOL0     H90154   7.231   1.700   7.168 -0.1723  0.9165  0.5619
  683MOL0     H90155   8.047   1.466   7.378 -2.2149  1.1495  1.1633
  683MOL0     H90156   8.270   1.420   7.352 -0.2940  2.7209 -2.6704
  684MOL0     O90157   9.141   0.466   7.675  0.2150  0.3074  0.3496
  684MOL0     C90158   9.193   0.569   7.632 -0.3548 -0.5829 -0.8925
  684MOL0     O90159   9.165   0.697   7.681 -0.5278  1.2958 -0.3590
  684MOL0     C90160   9.059   0.720   7.763  0.6153 -0.0113  0.3559
  684MOL0     C90161   8.938   0.646   7.771  0.5003  0.7557 -1.2964
  684MOL0     C90162   8.829   0.705   7.847 -0.6179  0.4540 -0.5377
  684MOL0     C90163   8.839   0.827   7.914  0.2266 -0.2047  1.1585
  684MOL0     O90164   8.722   0.892   7.951  0.1543 -0.1755 -0.0707
  684MOL0     C90165   8.723   0.933   8.092 -0.0959 -0.2090 -0.5984
  684MOL0     C90166   8.697   0.822   8.191  0.1423  0.7237  0.5886
  684MOL0     C90167   8.539   0.796   8.185  0.3067  0.4413  0.6915
  684MOL0     C90168   8.486   0.734   8.313  0.1188  0.0645  0.4313
  684MOL0     C90169   8.359   0.784   8.392 -0.2421 -1.4557  0.3829
  684MOL0     C90170   8.228   0.793   8.303  0.2475  1.3451 -0.0954
  684MOL0     C90171   8.172   0.651   8.259 -0.1022 -0.1178  0.4870
  684MOL0     C90172   8.084   0.593   8.374  0.0147  0.4089  0.5309
  684MOL0     N90173   8.039   0.452   8.355 -0.4585 -0.1123  0.1511
  684MOL0     C90174   8.105   0.337   8.398  0.0123 -0.7499  0.4141
  684MOL0     C90175   8.007   0.249   8.404  0.4566  0.4974 -0.2468
  684MOL0     C90176   8.034   0.104   8.434  0.4073 -0.6906 -0.5554
  684MOL0     C90177   8.033   0.080   8.588 -0.0134 -0.3556  0.3474
  684MOL0     C90178   8.068  -0.067   8.606 -0.5130  1.1327  0.6562
  684MOL0     C90179   8.028  -0.130   8.738 -0.5192  0.5218 -1.0586
  684MOL0     O90180   8.077  -0.053   8.848  0.2133 -0.4181 -0.0045
  684MOL0     C90181   8.208  -0.070   8.884 -0.1518  0.2497  0.0454
  684MOL0     C90182   8.247  -0.012   9.000 -0.1744  0.4115 -0.6794
  684MOL0     C90183   8.383  -0.015   9.039  0.0120 -0.2276  0.3879
  684MOL0     C90184   8.470  -0.099   8.966 -0.2855  0.4183 -0.6942
  684MOL0     C90185   8.618  -0.116   9.007  0.3675  0.2337  1.1624
  684MOL0     O90186   8.679  -0.228   8.967  0.7268  1.0353  0.5044
  684MOL0     C90187   8.765  -0.280   9.057 -0.2951  0.6401  0.9120
  684MOL0     C90188   8.897  -0.248   9.066  0.5276  0.5828  0.3770
  684MOL0     C90189   8.987  -0.305   9.157 -0.0948  0.2564 -0.0125
  684MOL0     C90190   8.932  -0.392   9.248  0.7702  0.2581 -0.4488
  684MOL0     O90191   9.025  -0.435   9.345 -0.2211  0.2364  0.6502
  684MOL0     C90192   8.976  -0.537   9.433 -1.2443  0.2870  0.7408
  684MOL0     C90193   9.054  -0.534   9.567 -0.2327 -0.4373  0.1472
  684MOL0     C90194   9.205  -0.572   9.552  0.0751 -0.1661 -0.9863
  684MOL0     C90195   9.234  -0.709   9.609 -0.3584 -0.2618 -0.0338
  684MOL0     C90196   9.384  -0.725   9.615  0.4011 -0.0720  0.1761
  684MOL0     C90197   9.418  -0.870   9.604 -0.3270  0.3858  0.1304
  684MOL0     C90198   9.381  -0.938   9.732  0.0074  0.3907  0.1468
  684MOL0     C90199   9.483  -1.046   9.769 -0.9094 -0.5623 -0.6169
  684MOL0    Cl90200   9.422  -1.142   9.909 -0.5347 -0.1276 -0.5557
  684MOL0     C90201   8.800  -0.438   9.233 -0.0958 -0.4316  0.0495
  684MOL0     C90202   8.718  -0.384   9.136 -0.0083  0.1554  0.0277
  684MOL0     O90203   8.664  -0.019   9.065  0.2399 -0.0517  0.2644
  684MOL0     C90204   8.424  -0.176   8.858  0.1856  0.2898 -0.4875
  684MOL0     C90205   8.294  -0.157   8.820 -0.1435 -0.0808 -0.5772
  684MOL0     N90206   7.891   0.309   8.368  0.9371 -0.0613  0.8300
  684MOL0     N90207   7.907   0.430   8.344  0.9513  0.4454 -0.5021
  684MOL0     C90208   8.965   0.887   7.905  0.1787 -0.2934 -0.1673
  684MOL0     C90209   9.075   0.842   7.835  0.1171 -0.9495 -0.4618
  684MOL0     C90210   9.307   0.548   7.549  0.0782 -0.4742  0.3210
  684MOL0     C90211   9.415   0.644   7.541  1.2084  0.9002 -0.4633
  684MOL0     C90212   9.524   0.602   7.480  0.7429  0.7741 -0.5579
  684MOL0     C90213   9.535   0.488   7.402 -0.1163 -0.4703 -0.0604
  684MOL0     O90214   9.655   0.442   7.344 -0.5945  0.3841 -0.3540
  684MOL0     C90215   9.780   0.516   7.347 -0.5501 -0.0021 -0.5262
  684MOL0     C90216   9.899   0.415   7.319  0.3470 -0.3799  0.5410
  684MOL0     C90217  10.025   0.494   7.304  0.0785 -0.3271 -0.2145
  684MOL0     C90218  10.145   0.416   7.367  0.0467  0.7600 -0.0633
  684MOL0     C90219  10.261   0.420   7.288 -0.5466 -0.8683  0.7736
  684MOL0     C90220  10.362   0.432   7.221  0.5419  0.0376  0.6807
  684MOL0     C90221   9.424   0.410   7.390 -0.3927  0.4658  0.6982
  684MOL0     C90222   9.315   0.436   7.468 -0.3138  0.3001 -0.0256
  684MOL0     H90223   8.910   0.557   7.715  3.8019 -1.1432 -0.2686
  684MOL0     H90224   8.743   0.639   7.850  1.7220 -2.8543 -0.7658
  684MOL0     H90225   8.654   1.015   8.113 -1.4411 -1.5831  0.5202
  684MOL0     H90226   8.822   0.967   8.124 -1.4802 -0.4473  4.9031
  684MOL0     H90227   8.741   0.834   8.290 -0.6489  1.1743  0.9014
  684MOL0     H90228   8.762   0.736   8.173  2.3621  1.4106  4.3051
  684MOL0     H90229   8.519   0.731   8.099  2.4323  1.0470 -0.3265
  684MOL0     H90230   8.496   0.894   8.159  0.6980 -0.1893 -2.9535
  684MOL0     H90231   8.482   0.628   8.286 -1.8163 -0.0157  0.8955
  684MOL0     H90232   8.557   0.725   8.395 -0.0622 -1.4298  0.4569
  684MOL0     H90233   8.384   0.885   8.427 -0.2031 -1.4727  0.4038
  684MOL0     H90234   8.344   0.722   8.481  2.4899 -1.6508  0.7934
  684MOL0     H90235   8.245   0.861   8.218 -5.1746  2.0838 -0.9360
  684MOL0     H90236   8.153   0.852   8.356 -2.2469 -0.1323 -1.7990
  684MOL0     H90237   8.122   0.661   8.163 -1.4280 -0.6181  1.1019
  684MOL0     H90238   8.263   0.592   8.246 -1.0826 -2.0238  1.8812
  684MOL0     H90239   7.999   0.661   8.375  1.2762  2.0478  1.5327
  684MOL0     H90240   8.145   0.599   8.465  2.0274  0.9074 -0.7965
  684MOL0     H90241   8.211   0.325   8.420  0.6628  0.6341 -1.6126
  684MOL0     H90242   8.136   0.085   8.401 -0.3600 -3.0246 -1.8709
  684MOL0     H90243   7.974   0.033   8.376 -0.4697  1.6315 -2.6603
  684MOL0     H90244   7.937   0.108   8.632 -1.4931  0.6070 -3.1606
  684MOL0     H90245   8.121   0.123   8.636  2.4333 -4.4492  0.0226
  684MOL0     H90246   8.018  -0.130   8.531 -0.1590 -0.7406  1.9275
  684MOL0     H90247   8.177  -0.064   8.597 -0.1101  4.0683  4.0772
  684MOL0     H90248   8.068  -0.232   8.734 -1.2071  0.2041 -0.2180
  684MOL0     H90249   7.919  -0.140   8.748 -0.3896 -2.9059 -1.5721
  684MOL0     H90250   8.181   0.045   9.065  3.4496  0.6821  3.2230
  684MOL0     H90251   8.420   0.040   9.125  0.6679 -0.5411  0.3111
  684MOL0     H90252   8.909  -0.173   8.989 -3.6240  0.2682 -0.7843
  684MOL0     H90253   9.087  -0.265   9.168 -0.1152  2.1981 -4.6368
  684MOL0     H90254   8.985  -0.639   9.396  2.0812  1.1617 -1.2520
  684MOL0     H90255   8.873  -0.515   9.462 -0.8529  1.8716  1.0312
  684MOL0     H90256   9.005  -0.596   9.642  4.0901 -1.9664  1.9962
  684MOL0     H90257   9.050  -0.434   9.610 -3.4906 -1.7303  3.3926
  684MOL0     H90258   9.253  -0.497   9.616 -2.3047 -0.4318  1.2558
  684MOL0     H90259   9.240  -0.568   9.448  1.7649 -1.7508 -0.5287
  684MOL0     H90260   9.212  -0.717   9.716  2.5933 -0.5697  0.6537
  684MOL0     H90261   9.183  -0.791   9.558  2.9655 -1.8990 -1.0428
  684MOL0     H90262   9.433  -0.677   9.700 -0.8719 -2.9059  2.6945
  684MOL0     H90263   9.427  -0.678   9.526  1.0745  0.7395  0.9226
  684MOL0     H90264   9.525  -0.884   9.583 -0.9099 -2.4457 -1.6266
  684MOL0     H90265   9.369  -0.906   9.513  2.3828  0.7936 -1.6051
  684MOL0     H90266   9.376  -0.870   9.818  2.3792 -0.3423  0.9430
  684MOL0     H90267   9.288  -0.994   9.734  0.0248  0.3685  0.9440
  684MOL0     H90268   9.579  -0.998   9.790 -1.2306  0.6343 -1.7484
  684MOL0     H90269   9.501  -1.116   9.688  0.5514 -2.5485  1.3073
  684MOL0     H90270   8.758  -0.514   9.297 -0.8971 -0.8868 -0.9950
  684MOL0     H90271   8.616  -0.414   9.115  0.1639 -1.2182  0.9944
  684MOL0     H90272   8.491  -0.231   8.794 -0.6476  0.5718 -1.6437
  684MOL0     H90273   8.263  -0.228   8.744 -1.5453 -0.6659  0.4925
  684MOL0     H90274   8.968   0.983   7.956 -1.8149  0.1884 -0.8885
  684MOL0     H90275   9.167   0.895   7.856 -0.8524  1.2980 -1.4914
  684MOL0     H90276   9.414   0.729   7.609  1.2273 -0.1089  0.8392
  684MOL0     H90277   9.608   0.670   7.490 -0.2780  2.3405 -2.1043
  684MOL0     H90278   9.780   0.564   7.445 -0.7501 -0.8890 -0.0799
  684MOL0     H90279   9.784   0.592   7.269 -0.4025  0.3079 -0.2202
  684MOL0     H90280   9.896   0.341   7.399 -3.8544 -0.0680  0.8783
  684MOL0     H90281   9.871   0.364   7.226 -0.3704  0.9579  0.0022
  684MOL0     H90282  10.013   0.588   7.360 -0.0221  1.4030 -2.9597
  684MOL0     H90283  10.038   0.521   7.199 -1.2099 -0.0256 -0.3045
  684MOL0     H90284  10.174   0.449   7.467 -0.3952 -2.1446  1.0992
  684MOL0     H90285  10.120   0.310   7.377  0.7781  0.7806  3.0259
  684MOL0     H90286  10.454   0.443   7.167 -0.0974 -2.3716 -1.0482
  684MOL0     H90287   9.413   0.332   7.315 -0.0251  0.5802  0.5233
  684MOL0     H90288   9.243   0.356   7.478  0.0029  0.0127 -0.0150
  685MOL0     O90289   1.350   0.439   4.724  0.3119 -0.1824  0.3469
  685MOL0     C90290   1.302   0.544   4.781 -0.1881  0.1678 -0.0969
  685MOL0     O90291   1.243   0.553   4.906 -0.0151 -0.2734  0.4522
  685MOL0     C90292   1.223   0.444   4.982  0.2072  0.2370  0.0075
  685MOL0     C90293   1.119   0.466   5.075 -0.4335  0.4631  0.6681
  685MOL0     C90294   1.066   0.363   5.147  0.1917  1.2682  1.3732
  685MOL0     C90295   1.145   0.243   5.149 -0.4938  0.7493 -0.3412
  685MOL0     O90296   1.112   0.128   5.224  0.1059  0.7129 -0.5673
  685MOL0     C90297   1.026   0.153   5.341 -0.4312 -0.6199  0.0781
  685MOL0     C90298   0.989   0.022   5.388  0.0546  0.6741 -0.3172
  685MOL0     C90299   0.887  -0.052   5.298  1.5921  0.2940  0.2167
  685MOL0     C90300   0.737  -0.021   5.328 -0.6683 -0.3702  0.2017
  685MOL0     C90301   0.651  -0.027   5.192  0.2233  0.1331 -0.6795
  685MOL0     C90302   0.512   0.027   5.216  0.3911 -0.1866 -0.3180
  685MOL0     C90303   0.427  -0.078   5.296 -0.4987  0.2640 -0.2874
  685MOL0     C90304   0.281  -0.014   5.324 -0.1005 -0.1290  0.2220
  685MOL0     N90305   0.264   0.110   5.395 -0.2879 -0.5895  0.3857
  685MOL0     C90306   0.142   0.163   5.427 -0.1594  0.0609  0.1765
  685MOL0     C90307   0.171   0.278   5.477 -0.7662 -0.1663  0.6357
  685MOL0     C90308   0.074   0.395   5.520  0.2962  0.1255  0.0764
  685MOL0     C90309  -0.035   0.357   5.612  0.3117  0.3249  0.0415
  685MOL0     C90310   0.006   0.293   5.743 -0.7474  0.0829  0.1923
  685MOL0     C90311   0.124   0.368   5.804  0.3325 -0.2081 -0.3321
  685MOL0     O90312   0.075   0.499   5.848  0.3198  0.1276  0.5218
  685MOL0     C90313   0.158   0.601   5.894  0.0622  0.5771  0.2462
  685MOL0     C90314   0.106   0.699   5.975 -0.2045  0.7137  0.0992
  685MOL0     C90315   0.186   0.814   6.000  0.4023  0.0317  0.0755
  685MOL0     C90316   0.313   0.833   5.944  0.2694 -0.0329  0.7149
  685MOL0     C90317   0.393   0.957   5.953 -0.2697  0.0069 -0.2857
  685MOL0     O90318   0.364   1.027   6.060 -0.2598 -0.1150 -0.4363
  685MOL0     C90319   0.403   1.161   6.079 -0.1961  0.2300  0.6148
  685MOL0     C90320   0.456   1.245   5.983  0.4104  0.5047  0.2788
  685MOL0     C90321   0.474   1.378   6.021 -0.5520  0.1901 -0.4874
  685MOL0     C90322   0.445   1.432   6.145 -0.3629 -0.5336 -0.4784
  685MOL0     O90323   0.472   1.564   6.182  0.4130 -0.1524  0.9359
  685MOL0     C90324   0.559   1.647   6.103  0.0210 -0.5570 -0.4653
  685MOL0     C90325   0.576   1.774   6.186  0.3218  0.7591  0.3573
  685MOL0     C90326   0.461   1.872   6.147  0.3139  0.6449 -0.2275
  685MOL0     C90327   0.517   2.013   6.138  0.0715  0.2926  0.1515
  685MOL0     C90328   0.548   2.057   6.280  0.0779  0.1713 -0.9182
  685MOL0     C90329   0.514   2.208   6.304  0.6725  0.5090  0.2423
  685MOL0     C90330   0.593   2.293   6.203  0.6642  1.1627 -0.3160
  685MOL0     C90331   0.733   2.326   6.249  0.9624 -1.0517  0.3154
  685MOL0    Cl90332   0.719   2.446   6.395  0.0363  0.4520  0.5573
  685MOL0     C90333   0.397   1.350   6.243 -0.2102 -0.9656 -0.2810
  685MOL0     C90334   0.376   1.214   6.201  0.2915  0.1473 -0.6564
  685MOL0     O90335   0.490   0.978   5.877  0.5355  0.1015 -0.1744
  685MOL0     C90336   0.361   0.729   5.861 -0.3630 -0.9354 -0.3536
  685MOL0     C90337   0.286   0.613   5.840  1.0862 -0.4161  0.0983
  685MOL0     N90338   0.314   0.288   5.496  0.5656 -0.2271 -0.1043
  685MOL0     N90339   0.364   0.178   5.454  0.7845  0.1366 -0.2637
  685MOL0     C90340   1.249   0.225   5.058  0.1119 -0.9877 -0.6272
  685MOL0     C90341   1.300   0.330   4.979  0.9826 -0.1540 -0.4726
  685MOL0     C90342   1.319   0.676   4.705 -0.1501  0.5579  0.3998
  685MOL0     C90343   1.285   0.795   4.772 -0.1865  0.7239  0.5111
  685MOL0     C90344   1.300   0.922   4.715 -0.2734  0.7148  0.2059
  685MOL0     C90345   1.346   0.934   4.585 -1.0020 -0.0192  0.3918
  685MOL0     O90346   1.362   1.065   4.552  0.7857 -0.2918 -0.6208
  685MOL0     C90347   1.417   1.098   4.426  0.5847 -0.2459  0.3072
  685MOL0     C90348   1.342   1.053   4.296  0.0799  0.1531  0.6514
  685MOL0     C90349   1.389   1.141   4.187  0.3886  0.1295 -0.7326
  685MOL0     C90350   1.315   1.105   4.055 -0.8050  1.3978  0.3947
  685MOL0     C90351   1.377   1.164   3.933  0.2226  0.7482  0.2637
  685MOL0     C90352   1.443   1.205   3.832  0.9722 -0.0739  0.0372
  685MOL0     C90353   1.383   0.814   4.516 -0.2604  0.1380 -0.9374
  685MOL0     C90354   1.372   0.692   4.574  0.4105  0.3255 -0.0383
  685MOL0     H90355   1.082   0.567   5.087 -3.5524 -0.8162  3.7309
  685MOL0     H90356   0.975   0.373   5.206 -2.2294 -1.3821 -1.5199
  685MOL0     H90357   0.931   0.197   5.311 -0.4563 -0.8430 -0.1784
  685MOL0     H90358   1.078   0.208   5.420  1.3540  0.4042 -1.7374
  685MOL0     H90359   0.939   0.029   5.485  0.0766 -0.3568 -0.2144
  685MOL0     H90360   1.079  -0.040   5.391 -0.0330  0.3213 -2.6925
  685MOL0     H90361   0.888  -0.160   5.315 -0.9103  0.1901  0.0677
  685MOL0     H90362   0.909  -0.038   5.192 -0.2667  0.2441 -0.1960
  685MOL0     H90363   0.697  -0.099   5.393  2.9570 -0.0615  3.1266
  685MOL0     H90364   0.732   0.075   5.382 -1.6959 -0.2791 -0.0180
  685MOL0     H90365   0.666  -0.129   5.156  1.4207 -0.2911  0.8954
  685MOL0     H90366   0.699   0.047   5.127  1.5159  0.5418  0.6759
  685MOL0     H90367   0.456   0.044   5.124  1.9289 -4.0566 -2.1804
  685MOL0     H90368   0.530   0.116   5.276  0.1424 -0.6856  0.5072
  685MOL0     H90369   0.423  -0.169   5.236  0.7207  0.1693 -0.2538
  685MOL0     H90370   0.473  -0.094   5.394 -0.1939  0.4968 -0.3906
  685MOL0     H90371   0.226  -0.090   5.381 -2.4142  0.4105 -1.1454
  685MOL0     H90372   0.229  -0.022   5.228 -1.9638 -1.7008  1.2840
  685MOL0     H90373   0.040   0.131   5.408  0.0818 -1.7441  1.6488
  685MOL0     H90374   0.030   0.442   5.432  0.6016  3.4157  1.5316
  685MOL0     H90375   0.128   0.477   5.569 -1.1336  0.7457  0.6801
  685MOL0     H90376  -0.106   0.290   5.563  2.3142 -1.1588 -0.9614
  685MOL0     H90377  -0.070   0.456   5.644  0.9119  1.1787 -1.7997
  685MOL0     H90378  -0.071   0.292   5.821 -1.4667  0.8561 -0.4893
  685MOL0     H90379   0.035   0.188   5.731  0.8478  0.0917  2.9276
  685MOL0     H90380   0.203   0.373   5.729 -0.8322 -1.3217 -1.7161
  685MOL0     H90381   0.174   0.316   5.886 -0.6909  0.0385  0.4695
  685MOL0     H90382   0.003   0.710   6.007  0.3517  1.6891  1.6169
  685MOL0     H90383   0.146   0.877   6.079  2.2108 -1.1430  2.0541
  685MOL0     H90384   0.472   1.215   5.880 -1.8432  0.6801 -0.1756
  685MOL0     H90385   0.505   1.442   5.939  1.4439  0.0853  0.1467
  685MOL0     H90386   0.518   1.671   6.005  3.6005 -0.2410 -2.0238
  685MOL0     H90387   0.655   1.596   6.088  0.5543 -0.0014  0.9159
  685MOL0     H90388   0.672   1.810   6.147  0.8546  1.6088  2.3161
  685MOL0     H90389   0.580   1.749   6.293 -0.7345 -0.2020  0.1924
  685MOL0     H90390   0.386   1.864   6.226  1.5878  3.0108  1.3612
  685MOL0     H90391   0.403   1.856   6.056 -2.8128  2.5058  1.2666
  685MOL0     H90392   0.601   2.017   6.068  0.1160 -3.1332 -0.1681
  685MOL0     H90393   0.451   2.086   6.091  0.1433 -1.0909 -2.2104
  685MOL0     H90394   0.654   2.044   6.305 -0.3963  0.9913  1.7459
  685MOL0     H90395   0.488   2.008   6.357 -1.8495  1.3325 -1.6220
  685MOL0     H90396   0.535   2.233   6.408  0.5982  0.7502  0.1996
  685MOL0     H90397   0.407   2.218   6.287  0.5906 -2.3513 -1.7538
  685MOL0     H90398   0.615   2.233   6.115  4.3152  0.7629  0.7046
  685MOL0     H90399   0.542   2.386   6.177  0.3587  1.1482  0.2100
  685MOL0     H90400   0.788   2.371   6.166 -2.1431 -1.2667 -2.0529
  685MOL0     H90401   0.771   2.228   6.279 -0.3577 -1.7724 -0.2592
  685MOL0     H90402   0.362   1.399   6.333  0.4881  0.8450 -0.9393
  685MOL0     H90403   0.329   1.147   6.272 -0.4602  2.9758  1.7291
  685MOL0     H90404   0.449   0.745   5.800  0.6722 -2.0317  0.8165
  685MOL0     H90405   0.304   0.542   5.760  1.2684  0.0666 -0.2931
  685MOL0     H90406   1.298   0.128   5.060 -0.4028 -1.3102 -2.2451
  685MOL0     H90407   1.389   0.321   4.918  2.0500 -1.0778  1.1378
  685MOL0     H90408   1.241   0.795   4.871 -0.4487  0.4969  0.3957
  685MOL0     H90409   1.258   1.002   4.775 -2.3246  1.4847 -2.0919
  685MOL0     H90410   1.513   1.046   4.415  0.0792 -0.6355 -5.0936
  685MOL0     H90411   1.434   1.206   4.427 -0.1204 -0.1249  0.0675
  685MOL0     H90412   1.361   0.950   4.264  2.2114  0.2214  1.4853
  685MOL0     H90413   1.235   1.062   4.312 -0.2655 -1.2450 -0.6227
  685MOL0     H90414   1.499   1.138   4.184  0.3625 -1.6063 -2.7032
  685MOL0     H90415   1.367   1.245   4.212 -0.3418 -0.4091  0.9987
  685MOL0     H90416   1.314   0.996   4.047 -3.0785  0.5298  6.7928
  685MOL0     H90417   1.211   1.132   4.076 -1.0113  3.0435 -2.2042
  685MOL0     H90418   1.497   1.241   3.748 -1.3645  0.4923 -1.2999
  685MOL0     H90419   1.422   0.808   4.415 -0.6748  5.1229 -1.6715
  685MOL0     H90420   1.404   0.605   4.518  0.8169 -0.5626  1.4923
  686MOL0     O90421   0.247   4.724   2.999  0.0929 -0.0097  0.2144
  686MOL0     C90422   0.169   4.638   2.962  0.0125  0.1600 -0.3348
  686MOL0     O90423   0.196   4.539   2.859  0.4243  0.8875  0.7232
  686MOL0     C90424   0.318   4.550   2.796 -0.0350  0.7938  0.0351
  686MOL0     C90425   0.325   4.574   2.656 -0.0052 -0.8319  0.8272
  686MOL0     C90426   0.447   4.575   2.586  0.1707  0.4611  0.2313
  686MOL0     C90427   0.563   4.551   2.667  0.0691 -0.2242  0.1984
  686MOL0     O90428   0.689   4.530   2.617  0.4536  0.7558  0.2330
  686MOL0     C90429   0.728   4.588   2.486  0.3414  0.3902 -0.5580
  686MOL0     C90430   0.874   4.588   2.479 -0.3163 -0.0522 -0.4704
  686MOL0     C90431   0.925   4.596   2.327  0.5587 -0.4668  0.1989
  686MOL0     C90432   0.877   4.733   2.263 -0.3880  1.1225 -0.1127
  686MOL0     C90433   0.935   4.737   2.125 -0.0021 -0.3064  0.4334
  686MOL0     C90434   0.966   4.884   2.083  0.1882 -0.5593  0.6179
  686MOL0     C90435   1.048   4.888   1.953 -0.6391 -0.7261  1.2139
  686MOL0     C90436   1.096   5.037   1.923  1.1124  0.1813  0.3544
  686MOL0     N90437   1.218   5.076   1.990  0.0257  0.0039  0.5591
  686MOL0     C90438   1.342   5.024   1.961 -0.0911 -0.0114  0.2912
  686MOL0     C90439   1.434   5.077   2.040 -0.6699  0.1291  0.2678
  686MOL0     C90440   1.592   5.054   2.040  0.2989 -0.8435  0.2297
  686MOL0     C90441   1.663   5.163   1.960 -0.3381 -0.7039  0.5579
  686MOL0     C90442   1.652   5.131   1.809 -0.0269  0.1185  0.1556
  686MOL0     C90443   1.739   5.222   1.715 -0.0010 -0.5083 -1.3091
  686MOL0     O90444   1.711   5.358   1.712  0.2697  0.5028  0.0219
  686MOL0     C90445   1.576   5.390   1.695  0.1572 -1.0005 -0.5720
  686MOL0     C90446   1.517   5.496   1.772  1.9770  0.1546 -0.5053
  686MOL0     C90447   1.385   5.547   1.758  0.3590  0.2908 -0.4820
  686MOL0     C90448   1.303   5.496   1.650 -0.8648  1.5357 -0.1475
  686MOL0     C90449   1.165   5.558   1.635 -0.5686  0.5657 -1.2664
  686MOL0     O90450   1.069   5.484   1.573  0.2281 -0.3550 -0.2769
  686MOL0     C90451   0.944   5.525   1.555 -0.3585  0.8158  0.2437
  686MOL0     C90452   0.914   5.651   1.504  0.3971  0.0091 -0.4675
  686MOL0     C90453   0.780   5.677   1.475 -0.2532  0.4864 -0.6118
  686MOL0     C90454   0.677   5.593   1.522 -0.1918 -0.1144 -0.4383
  686MOL0     O90455   0.548   5.630   1.496 -0.0821 -0.9144  0.0224
  686MOL0     C90456   0.444   5.534   1.471 -0.0587  0.9070 -0.1411
  686MOL0     C90457   0.466   5.466   1.336 -0.1971 -0.4170  0.1640
  686MOL0     C90458   0.441   5.571   1.224  0.2524 -0.0030  0.0604
  686MOL0     C90459   0.301   5.638   1.216  0.6445  0.3161  0.5455
  686MOL0     C90460   0.195   5.550   1.156 -0.0980  0.5665 -0.5763
  686MOL0     C90461   0.071   5.625   1.130 -0.7657  0.3544 -0.3885
  686MOL0     C90462  -0.035   5.523   1.095 -0.7567 -0.2384  0.1056
  686MOL0     C90463  -0.091   5.458   1.227 -0.4142  1.2355  0.6403
  686MOL0    Cl90464  -0.155   5.591   1.338 -0.0290 -0.1380 -0.3000
  686MOL0     C90465   0.717   5.470   1.583  0.1011 -0.4570 -0.4369
  686MOL0     C90466   0.847   5.435   1.593 -0.6103  0.3766  0.3115
  686MOL0     O90467   1.156   5.677   1.679 -0.0562  0.1144  0.9775
  686MOL0     C90468   1.348   5.380   1.582 -0.8981 -0.8149 -0.3452
  686MOL0     C90469   1.486   5.337   1.598  0.3016 -0.4475  0.2551
  686MOL0     N90470   1.364   5.158   2.127 -0.1248 -0.1043  0.5421
  686MOL0     N90471   1.235   5.156   2.098 -0.1046 -0.5823 -0.5981
  686MOL0     C90472   0.552   4.531   2.800  0.2757 -0.0209 -0.7652
  686MOL0     C90473   0.433   4.536   2.869  0.2287  0.3279 -0.2388
  686MOL0     C90474   0.036   4.624   3.034 -0.0330 -0.4753  0.0760
  686MOL0     C90475  -0.076   4.584   2.959 -0.2270  0.4287 -0.8497
  686MOL0     C90476  -0.197   4.561   3.023 -0.5595 -0.0438  0.0994
  686MOL0     C90477  -0.229   4.599   3.149 -0.3813  1.1255  0.1872
  686MOL0     O90478  -0.351   4.580   3.208  0.1166  0.8464  0.6136
  686MOL0     C90479  -0.406   4.685   3.293  0.3810 -0.4258  0.9545
  686MOL0     C90480  -0.481   4.785   3.204 -0.2331 -0.6185  0.4337
  686MOL0     C90481  -0.564   4.882   3.279 -0.3536 -0.0302 -0.0468
  686MOL0     C90482  -0.478   5.001   3.333  0.5062  0.3551 -0.0440
  686MOL0     C90483  -0.560   5.090   3.417  0.5391  0.0657  0.2199
  686MOL0     C90484  -0.638   5.165   3.470  0.7667  0.2406  0.1159
  686MOL0     C90485  -0.119   4.648   3.220 -0.0228 -0.6778 -0.0794
  686MOL0     C90486   0.011   4.664   3.164 -0.1676  0.6555 -0.8578
  686MOL0     H90487   0.232   4.601   2.607  1.1500 -0.4064 -1.2375
  686MOL0     H90488   0.438   4.587   2.479 -0.9637  0.1033  0.2774
  686MOL0     H90489   0.685   4.689   2.482  0.1600  0.4923  2.1332
  686MOL0     H90490   0.667   4.535   2.413 -1.5933 -0.8817  1.8157
  686MOL0     H90491   0.918   4.500   2.526  1.6493  1.2818  0.3201
  686MOL0     H90492   0.911   4.677   2.530 -1.9879  2.3641 -3.1359
  686MOL0     H90493   0.898   4.502   2.278  4.7380 -1.4631 -0.6289
  686MOL0     H90494   1.034   4.588   2.321  0.4256 -1.4875 -1.3705
  686MOL0     H90495   0.770   4.755   2.262 -0.8628 -0.9133  0.5903
  686MOL0     H90496   0.913   4.809   2.332  2.1190  0.1315 -0.1992
  686MOL0     H90497   0.860   4.703   2.053 -1.4937  1.5676  1.0138
  686MOL0     H90498   1.022   4.672   2.111  1.6905  1.6932  1.0950
  686MOL0     H90499   1.020   4.940   2.161 -1.1486  2.9419 -0.7726
  686MOL0     H90500   0.872   4.938   2.074  1.2952  1.3461 -0.1207
  686MOL0     H90501   1.137   4.826   1.968 -0.3477 -0.0761  2.2478
  686MOL0     H90502   0.997   4.849   1.864  1.0219 -1.4119  0.5115
  686MOL0     H90503   1.018   5.112   1.932  2.4302  1.7953 -1.0639
  686MOL0     H90504   1.122   5.046   1.817 -2.3623  0.7766 -0.5767
  686MOL0     H90505   1.367   4.954   1.882 -0.0079  0.8430 -0.4583
  686MOL0     H90506   1.631   4.957   2.009  1.6894 -0.3616  0.3847
  686MOL0     H90507   1.621   5.072   2.145 -3.1255 -1.1236  1.3318
  686MOL0     H90508   1.770   5.164   1.981  0.1166 -0.6812 -1.5766
  686MOL0     H90509   1.618   5.259   1.988  0.3993 -0.8556  2.4418
  686MOL0     H90510   1.678   5.028   1.784  2.1500  0.1997  1.7863
  686MOL0     H90511   1.549   5.156   1.780  0.6511  4.0493  0.5347
  686MOL0     H90512   1.736   5.192   1.610  0.6306 -3.1773 -0.6296
  686MOL0     H90513   1.841   5.216   1.755  0.0268 -0.3695 -1.3579
  686MOL0     H90514   1.577   5.536   1.853 -1.9312  2.8830  1.3495
  686MOL0     H90515   1.359   5.631   1.822  2.8956  0.6315  0.2080
  686MOL0     H90516   0.997   5.715   1.475  0.8743  0.3254  1.4628
  686MOL0     H90517   0.759   5.764   1.413  1.9979  1.3482 -0.2578
  686MOL0     H90518   0.344   5.579   1.476  0.4044  2.0600 -0.8906
  686MOL0     H90519   0.458   5.457   1.548 -0.7520 -1.0300 -1.8400
  686MOL0     H90520   0.415   5.370   1.322  0.6249 -1.9907  5.5855
  686MOL0     H90521   0.574   5.447   1.336  0.4420  2.6405  0.7598
  686MOL0     H90522   0.456   5.512   1.134 -0.7514 -0.2795  0.0603
  686MOL0     H90523   0.508   5.657   1.230 -1.8435  1.6238  1.8884
  686MOL0     H90524   0.273   5.669   1.317 -0.3292  0.1042  0.3427
  686MOL0     H90525   0.303   5.724   1.148 -0.3628 -1.0941 -1.3385
  686MOL0     H90526   0.174   5.470   1.227  2.0494  0.8896  0.5094
  686MOL0     H90527   0.243   5.494   1.074  2.1131  0.1853  0.8730
  686MOL0     H90528   0.087   5.688   1.042  0.9014  1.7115  0.8225
  686MOL0     H90529   0.040   5.692   1.210 -0.2590  1.0574 -0.7712
  686MOL0     H90530  -0.118   5.573   1.044  0.1928  3.6192  2.0143
  686MOL0     H90531   0.007   5.438   1.039  3.0324 -1.0107  3.6475
  686MOL0     H90532  -0.014   5.399   1.278 -2.8295 -1.7182  1.1419
  686MOL0     H90533  -0.171   5.391   1.195  2.0254 -3.1505  2.8095
  686MOL0     H90534   0.645   5.401   1.625 -2.0184  1.6978 -0.3560
  686MOL0     H90535   0.863   5.340   1.643 -2.3477  1.1880  2.6032
  686MOL0     H90536   1.277   5.342   1.509 -1.8706 -1.4567  0.8852
  686MOL0     H90537   1.533   5.271   1.526 -2.8490 -2.2149 -0.3879
  686MOL0     H90538   0.631   4.499   2.867 -2.4741 -0.7326  2.4288
  686MOL0     H90539   0.428   4.519   2.976 -0.4833 -1.9813 -0.5791
  686MOL0     H90540  -0.073   4.545   2.857  1.0029 -3.3663  0.4478
  686MOL0     H90541  -0.273   4.527   2.954 -0.8833  0.5851  0.1349
  686MOL0     H90542  -0.328   4.739   3.347  1.6744  0.2724 -1.4619
  686MOL0     H90543  -0.472   4.639   3.367 -1.8505  2.4454  0.9053
  686MOL0     H90544  -0.408   4.838   3.142 -2.3704 -1.8831 -3.5105
  686MOL0     H90545  -0.556   4.741   3.137  1.0010  3.3023 -4.0885
  686MOL0     H90546  -0.620   4.844   3.365  1.5933  3.3574  2.9730
  686MOL0     H90547  -0.644   4.919   3.213 -1.3840  0.2132  1.2973
  686MOL0     H90548  -0.392   4.967   3.391 -1.8589 -1.1280  2.8778
  686MOL0     H90549  -0.448   5.069   3.252 -1.8243  3.0089  1.1419
  686MOL0     H90550  -0.708   5.222   3.528 -1.2418 -3.1178  1.2661
  686MOL0     H90551  -0.118   4.663   3.328  2.2044 -1.9287  0.1422
  686MOL0     H90552   0.091   4.710   3.221 -1.2022 -1.4835  2.6537
  687MOL0     O90553   2.309   9.844   8.954  0.2174 -0.2631  0.5176
  687MOL0     C90554   2.310   9.916   9.051 -0.6727  1.0238 -0.7742
  687MOL0     O90555   2.204   9.977   9.106  0.8138  0.5825 -0.4597
  687MOL0     C90556   2.078   9.952   9.076  0.3727  0.5359  0.8473
  687MOL0     C90557   2.029   9.831   9.031  0.3535  0.0017  0.4084
  687MOL0     C90558   1.887   9.808   9.015  0.1696  0.7640 -0.4671
  687MOL0     C90559   1.795   9.905   9.047 -0.6527  0.5558 -0.1465
  687MOL0     O90560   1.654   9.895   9.029  0.0391 -0.0460  0.0016
  687MOL0     C90561   1.569  10.010   9.034  0.5729 -0.0101 -0.2686
  687MOL0     C90562   1.432   9.961   8.986 -0.4972  0.2729 -0.1388
  687MOL0     C90563   1.324  10.075   8.988  0.0340 -0.4254  0.3601
  687MOL0     C90564   1.196  10.039   8.913 -0.8812 -0.2507  0.2756
  687MOL0     C90565   1.086  10.141   8.947 -0.1580 -0.0025 -0.7011
  687MOL0     C90566   0.954  10.112   8.867 -0.3508  0.5659  0.3963
  687MOL0     C90567   0.837  10.169   8.935 -0.6192 -0.0522  0.6917
  687MOL0     C90568   0.690  10.140   8.873  0.9268 -0.1170  0.6379
  687MOL0     N90569   0.656   9.997   8.876  0.3919  0.1193 -0.4537
  687MOL0     C90570   0.614   9.923   8.988 -1.0472  0.7883  0.4277
  687MOL0     C90571   0.584   9.799   8.938 -0.6437  1.1914  0.5975
  687MOL0     C90572   0.558   9.670   9.012 -0.9638  0.5060 -0.7866
  687MOL0     C90573   0.450   9.687   9.114  1.1262 -0.3410  0.0820
  687MOL0     C90574   0.316   9.612   9.101 -0.5746 -0.1361  0.4114
  687MOL0     C90575   0.298   9.472   9.168  0.7775  0.1664 -0.2253
  687MOL0     O90576   0.398   9.389   9.102 -0.5484  0.3254  0.4873
  687MOL0     C90577   0.415   9.257   9.144  0.3049 -0.3848 -1.2222
  687MOL0     C90578   0.323   9.180   9.212 -0.0339  0.0562 -0.4187
  687MOL0     C90579   0.350   9.050   9.242  0.6776  0.4087 -0.0989
  687MOL0     C90580   0.466   8.985   9.205 -0.9023 -0.6415 -0.6466
  687MOL0     C90581   0.485   8.844   9.244  1.0849  0.3433 -0.5312
  687MOL0     O90582   0.611   8.822   9.280  0.1684  0.6827 -0.5625
  687MOL0     C90583   0.630   8.724   9.374 -0.9786 -1.1240  0.4884
  687MOL0     C90584   0.714   8.621   9.339 -1.0192 -0.6683  0.0137
  687MOL0     C90585   0.750   8.515   9.426  0.7435 -0.6461 -0.1089
  687MOL0     C90586   0.688   8.505   9.548  0.2396 -0.1809 -1.2222
  687MOL0     O90587   0.705   8.403   9.637 -0.0416 -0.2313 -0.0817
  687MOL0     C90588   0.780   8.293   9.585 -0.1813  0.4265  0.2327
  687MOL0     C90589   0.738   8.172   9.667  0.6890 -0.4141 -0.5036
  687MOL0     C90590   0.601   8.125   9.632 -0.1367  0.2066 -0.3939
  687MOL0     C90591   0.565   7.993   9.700 -0.0131  0.9597 -0.1589
  687MOL0     C90592   0.464   7.906   9.624 -0.3553  0.2450  0.1236
  687MOL0     C90593   0.397   7.816   9.721  0.6482  0.3836  0.0710
  687MOL0     C90594   0.307   7.890   9.826 -0.6122 -0.2302 -0.5245
  687MOL0     C90595   0.194   7.977   9.758  0.3948  0.2465  0.0797
  687MOL0    Cl90596   0.276   8.126   9.716  1.0419 -0.4691 -0.2458
  687MOL0     C90597   0.603   8.612   9.585  0.0583 -0.6821  0.7325
  687MOL0     C90598   0.572   8.723   9.508  0.2706  0.3455  1.3822
  687MOL0     O90599   0.385   8.775   9.259  0.0316 -0.2467 -0.1424
  687MOL0     C90600   0.563   9.062   9.130  0.8836 -0.1143  0.6510
  687MOL0     C90601   0.531   9.198   9.097 -0.9936 -0.0011  0.0054
  687MOL0     N90602   0.608   9.799   8.803  1.1936  0.3061  0.5630
  687MOL0     N90603   0.638   9.918   8.763  0.0249 -0.3912 -0.2381
  687MOL0     C90604   1.845  10.028   9.082 -0.1306 -0.8233  0.2083
  687MOL0     C90605   1.986  10.057   9.087  0.7855  0.3940 -0.3879
  687MOL0     C90606   2.438   9.956   9.115 -0.1531 -0.5454  0.0173
  687MOL0     C90607   2.557   9.918   9.055 -0.4109  0.0401 -0.2727
  687MOL0     C90608   2.683   9.945   9.116 -0.5552  0.1779 -0.4477
  687MOL0     C90609   2.687  10.014   9.234  0.6352 -0.3860 -0.1302
  687MOL0     O90610   2.804  10.045   9.305 -0.3984 -0.0021  0.0951
  687MOL0     C90611   2.909  10.094   9.233  0.0288 -0.0058 -0.2066
  687MOL0     C90612   2.989  10.162   9.348 -0.6356  0.6398 -0.9689
  687MOL0     C90613   3.108  10.228   9.281  0.6282 -0.0516  1.1525
  687MOL0     C90614   3.193  10.308   9.382 -0.4913  0.1936  0.4819
  687MOL0     C90615   3.302  10.375   9.310 -0.5005  0.1230 -1.1125
  687MOL0     C90616   3.388  10.427   9.237  0.2212 -0.1523 -0.8157
  687MOL0     C90617   2.567  10.051   9.295 -0.1866 -0.3760  0.0710
  687MOL0     C90618   2.443  10.035   9.233  0.1278  0.5739 -0.3020
  687MOL0     H90619   2.099   9.752   9.005 -2.4080 -2.5737  0.2637
  687MOL0     H90620   1.846   9.714   8.979 -1.5061 -0.6343  4.4155
  687MOL0     H90621   1.603  10.090   8.967 -0.4252 -1.3304 -2.4658
  687MOL0     H90622   1.558  10.049   9.135  1.9962 -1.9809  0.7103
  687MOL0     H90623   1.413   9.876   9.051  5.7903 -1.6091 -0.0815
  687MOL0     H90624   1.437   9.930   8.881 -2.6694 -1.2210  0.1383
  687MOL0     H90625   1.377  10.163   8.951  4.5701 -2.3135  1.7232
  687MOL0     H90626   1.309  10.083   9.096 -0.7330 -2.3242  0.4395
  687MOL0     H90627   1.215  10.052   8.806 -1.7351  0.3578  0.1903
  687MOL0     H90628   1.172   9.934   8.933 -0.4847 -0.4887 -0.4402
  687MOL0     H90629   1.129  10.237   8.914 -0.3846 -0.2349 -1.7031
  687MOL0     H90630   1.065  10.147   9.054 -0.1440  1.1397 -0.7524
  687MOL0     H90631   0.936  10.004   8.864  0.9831  0.3381 -1.7205
  687MOL0     H90632   0.964  10.136   8.761  1.3821 -1.0194  0.1332
  687MOL0     H90633   0.832  10.138   9.039 -0.8337 -2.1166  0.1071
  687MOL0     H90634   0.868  10.274   8.931  0.7529 -0.4559 -0.2138
  687MOL0     H90635   0.701  10.180   8.772  2.8043 -0.3468  0.7048
  687MOL0     H90636   0.609  10.184   8.930 -0.8146 -3.2977  0.8714
  687MOL0     H90637   0.596   9.952   9.091  1.7108  0.2390  1.1333
  687MOL0     H90638   0.649   9.637   9.064 -0.6999 -0.3217 -1.7503
  687MOL0     H90639   0.520   9.599   8.938  1.2254  0.2635 -1.7636
  687MOL0     H90640   0.419   9.791   9.122 -1.3116 -0.7875 -2.1678
  687MOL0     H90641   0.486   9.659   9.213  1.1880 -1.4227 -0.2260
  687MOL0     H90642   0.249   9.684   9.149 -1.0947  0.3768 -1.0317
  687MOL0     H90643   0.279   9.602   8.999  3.2569 -2.8226 -0.9512
  687MOL0     H90644   0.202   9.427   9.142  0.8759  0.6993 -1.6028
  687MOL0     H90645   0.323   9.467   9.274  5.0872 -2.4483 -1.0912
  687MOL0     H90646   0.234   9.222   9.259  1.0451 -0.3487  2.1559
  687MOL0     H90647   0.282   8.989   9.301  2.8215 -0.8597  1.2089
  687MOL0     H90648   0.740   8.624   9.234  0.1196 -0.4753  0.2873
  687MOL0     H90649   0.829   8.449   9.392  2.1788  0.6531  0.6312
  687MOL0     H90650   0.886   8.305   9.611 -0.1576  0.7372 -0.0009
  687MOL0     H90651   0.770   8.279   9.477  0.5654  1.0810  0.0681
  687MOL0     H90652   0.740   8.210   9.769 -0.3842  0.0765 -0.6483
  687MOL0     H90653   0.817   8.101   9.642  0.5828 -0.0533 -1.9472
  687MOL0     H90654   0.588   8.107   9.525 -0.8817 -2.0668  0.0431
  687MOL0     H90655   0.525   8.202   9.649  0.0898  0.3992 -0.2424
  687MOL0     H90656   0.655   7.939   9.734 -0.9400 -0.2165  0.5040
  687MOL0     H90657   0.515   8.022   9.793  0.1822  1.2870 -0.1564
  687MOL0     H90658   0.522   7.845   9.554 -0.3739 -0.7673  0.9708
  687MOL0     H90659   0.384   7.966   9.578 -0.8024 -0.7750 -0.4587
  687MOL0     H90660   0.466   7.754   9.778 -1.0895 -2.1262 -0.3987
  687MOL0     H90661   0.338   7.749   9.657  2.6869  1.8496 -3.7017
  687MOL0     H90662   0.256   7.829   9.901 -2.2445  3.1471  1.3651
  687MOL0     H90663   0.357   7.966   9.888 -2.3987  1.7780 -1.4204
  687MOL0     H90664   0.123   7.989   9.840  0.2071 -2.5698  0.4140
  687MOL0     H90665   0.143   7.944   9.667  1.8066  3.6242 -2.1487
  687MOL0     H90666   0.544   8.617   9.676  0.1600 -1.5142  0.8473
  687MOL0     H90667   0.516   8.803   9.555 -0.3682 -0.2268  1.6065
  687MOL0     H90668   0.651   9.015   9.088  0.4321 -0.7032  0.3391
  687MOL0     H90669   0.594   9.259   9.034 -0.2898  0.2873  0.9721
  687MOL0     H90670   1.777  10.110   9.102 -0.2655 -1.0772  0.8337
  687MOL0     H90671   2.023  10.154   9.120  0.6786  0.6262 -0.9364
  687MOL0     H90672   2.572   9.871   8.958  2.3927  3.7104 -1.8673
  687MOL0     H90673   2.773   9.916   9.063 -0.0598 -1.8949  1.3939
  687MOL0     H90674   2.876  10.169   9.161 -1.1695 -1.6529 -1.4612
  687MOL0     H90675   2.971  10.018   9.184  1.0604 -0.6967  2.0346
  687MOL0     H90676   2.928  10.241   9.393 -2.1911 -0.7406 -0.5688
  687MOL0     H90677   3.004  10.089   9.428 -3.0027 -1.1043 -1.9979
  687MOL0     H90678   3.075  10.296   9.202  1.5370 -0.2166  0.6160
  687MOL0     H90679   3.159  10.148   9.226 -0.6086 -0.5749  0.7434
  687MOL0     H90680   3.140  10.386   9.437 -1.0371 -0.8060  1.4287
  687MOL0     H90681   3.230  10.234   9.454  0.4381  0.2619  0.0911
  687MOL0     H90682   3.457  10.477   9.172  0.8574 -0.0511 -0.0787
  687MOL0     H90683   2.560  10.104   9.390 -0.1801 -3.4366  1.9328
  687MOL0     H90684   2.354  10.072   9.281 -0.6158  2.6325 -3.0098
  688MOL0     O90685  10.345   2.708  10.034 -0.1020  0.2116  0.0813
  688MOL0     C90686  10.282   2.619  10.097  0.2304 -0.1307 -0.6985
  688MOL0     O90687  10.212   2.624  10.215  0.7808  0.0818 -0.3714
  688MOL0     C90688  10.139   2.738  10.246 -0.5612  0.4972 -0.6806
  688MOL0     C90689  10.042   2.717  10.343  0.3769  0.6434  0.4710
  688MOL0     C90690   9.952   2.825  10.385 -0.1941  0.1028 -0.1555
  688MOL0     C90691   9.981   2.949  10.337  0.0999 -0.5312 -0.1926
  688MOL0     O90692   9.928   3.062  10.384  0.2300 -0.6488 -0.1023
  688MOL0     C90693   9.948   3.085  10.523  0.1643  0.2046  0.5074
  688MOL0     C90694   9.857   3.198  10.557  0.6242  0.6376  0.4557
  688MOL0     C90695   9.707   3.140  10.530  0.2772  0.2440  0.1286
  688MOL0     C90696   9.606   3.230  10.594 -0.2858  0.0540 -0.4215
  688MOL0     C90697   9.470   3.216  10.536  0.2576 -0.1879  0.1869
  688MOL0     C90698   9.388   3.333  10.579 -0.2156 -0.6619  1.8078
  688MOL0     C90699   9.366   3.361  10.728 -0.2070 -0.3676  0.6460
  688MOL0     C90700   9.467   3.460  10.792  0.1528  0.0354 -0.8346
  688MOL0     N90701   9.412   3.497  10.925 -1.1499  0.2813  0.5384
  688MOL0     C90702   9.412   3.422  11.039  0.4391 -0.9201 -1.1076
  688MOL0     C90703   9.332   3.491  11.125  0.9188 -0.7757  0.0422
  688MOL0     C90704   9.287   3.465  11.267  0.1555  1.0029 -0.4329
  688MOL0     C90705   9.147   3.414  11.277 -0.5956  0.2924  0.0846
  688MOL0     C90706   9.150   3.310  11.391 -0.9315 -0.3706 -0.1456
  688MOL0     C90707   9.020   3.240  11.416  0.4651 -0.0593 -0.4458
  688MOL0     O90708   9.025   3.117  11.332 -0.2565  0.0081 -0.0345
  688MOL0     C90709   9.082   3.004  11.390  0.3350  0.1073 -0.5591
  688MOL0     C90710   9.165   3.007  11.506  0.6468  0.0293  0.2334
  688MOL0     C90711   9.215   2.888  11.564  0.6440  0.0509  0.7753
  688MOL0     C90712   9.186   2.765  11.502  0.4988 -0.1907 -0.7548
  688MOL0     C90713   9.228   2.635  11.563  0.6714 -0.0159  0.2503
  688MOL0     O90714   9.278   2.639  11.690 -0.2385 -0.7828 -0.3038
  688MOL0     C90715   9.327   2.527  11.751  0.2701 -0.5936 -0.4312
  688MOL0     C90716   9.442   2.470  11.715 -0.5328  0.6820  0.0276
  688MOL0     C90717   9.493   2.354  11.782 -0.0281  0.0363 -1.2597
  688MOL0     C90718   9.418   2.291  11.890 -0.4582 -0.3796  0.2522
  688MOL0     O90719   9.459   2.159  11.937 -0.0746  0.9430 -0.6613
  688MOL0     C90720   9.384   2.091  12.040  0.3294  0.2192  0.1430
  688MOL0     C90721   9.431   1.947  12.080 -0.6971  0.0445 -0.5976
  688MOL0     C90722   9.581   1.937  12.123 -0.0061  0.4265  0.0667
  688MOL0     C90723   9.612   1.804  12.194 -0.0237  1.2860  0.1780
  688MOL0     C90724   9.762   1.758  12.181  0.9891  0.1734 -0.1856
  688MOL0     C90725   9.869   1.833  12.260 -0.4535 -1.0471 -0.1988
  688MOL0     C90726  10.006   1.806  12.190  0.3290  0.1591 -0.2424
  688MOL0     C90727  10.097   1.886  12.272 -0.3186  0.1478 -0.5507
  688MOL0    Cl90728  10.262   1.869  12.181 -0.4061 -0.3414 -0.0765
  688MOL0     C90729   9.300   2.355  11.926 -0.5240  0.6878  0.4337
  688MOL0     C90730   9.247   2.470  11.854 -0.2386 -1.0774 -0.2460
  688MOL0     O90731   9.203   2.534  11.502 -0.0205 -0.4477 -0.1500
  688MOL0     C90732   9.108   2.765  11.390 -0.2417 -0.2586 -0.8198
  688MOL0     C90733   9.062   2.884  11.330  0.4510 -0.0878  0.1299
  688MOL0     N90734   9.292   3.610  11.063  0.0675 -0.0067 -0.5465
  688MOL0     N90735   9.345   3.616  10.942 -1.0692  1.6236 -0.1471
  688MOL0     C90736  10.086   2.970  10.251  0.7749 -0.6340 -0.9658
  688MOL0     C90737  10.146   2.864  10.194  0.3460 -0.2511  0.1489
  688MOL0     C90738  10.285   2.480  10.042 -0.5951  0.1924 -0.0656
  688MOL0     C90739  10.193   2.390  10.078 -0.3344  0.2855 -1.0376
  688MOL0     C90740  10.186   2.267  10.014 -0.1946  0.8018  0.5099
  688MOL0     C90741  10.272   2.234   9.902 -0.3617  0.1140  0.4739
  688MOL0     O90742  10.269   2.124   9.827 -0.1539 -0.0955 -0.0021
  688MOL0     C90743  10.144   2.065   9.793 -0.4589 -0.1951  0.0656
  688MOL0     C90744  10.099   2.090   9.647 -0.2726  0.9756 -0.1727
  688MOL0     C90745   9.975   1.994   9.598  0.0087  0.9755  0.8843
  688MOL0     C90746   9.919   2.053   9.466  0.2596 -0.3691 -0.5134
  688MOL0     C90747   9.799   1.979   9.426 -0.0014  0.9177 -0.2897
  688MOL0     C90748   9.692   1.933   9.386  0.1815  0.4434 -0.2109
  688MOL0     C90749  10.380   2.327   9.875 -0.2508 -0.2757 -0.9243
  688MOL0     C90750  10.389   2.442   9.953  0.0746 -0.1343 -0.3381
  688MOL0     H90751  10.019   2.615  10.373  2.0810 -0.3762 -1.4597
  688MOL0     H90752   9.861   2.808  10.441  0.4590  0.3881  1.0438
  688MOL0     H90753  10.053   3.103  10.550  0.1030 -0.4397  1.1980
  688MOL0     H90754   9.910   3.002  10.583 -0.3648  0.6399  0.7839
  688MOL0     H90755   9.874   3.295  10.508 -3.1901  0.3701 -1.8370
  688MOL0     H90756   9.870   3.215  10.664  0.1302  1.1620  0.4399
  688MOL0     H90757   9.707   3.037  10.567  0.0758  0.0703 -0.3458
  688MOL0     H90758   9.682   3.127  10.424 -2.3711 -1.5602  0.8786
  688MOL0     H90759   9.600   3.211  10.702 -2.1019 -2.5573 -0.8678
  688MOL0     H90760   9.644   3.332  10.590 -3.0592  1.3086  1.5461
  688MOL0     H90761   9.422   3.128  10.579 -0.5822 -0.0085 -0.3556
  688MOL0     H90762   9.469   3.216  10.426 -1.7939 -0.9277  0.1637
  688MOL0     H90763   9.295   3.325  10.523  0.5945  1.1865  0.0849
  688MOL0     H90764   9.438   3.417  10.529  0.8449 -1.3941  1.6113
  688MOL0     H90765   9.265   3.399  10.745 -0.0963  0.6951 -0.7999
  688MOL0     H90766   9.361   3.265  10.780 -0.8484 -0.3183  0.6876
  688MOL0     H90767   9.455   3.552  10.735 -0.6371  0.2928 -0.2599
  688MOL0     H90768   9.570   3.422  10.799 -0.2542 -0.8237  3.1904
  688MOL0     H90769   9.436   3.320  11.066 -1.9757 -0.9427  1.4203
  688MOL0     H90770   9.291   3.559  11.323  0.3919  0.4377  0.5334
  688MOL0     H90771   9.360   3.400  11.317 -2.2101 -0.0376  1.9340
  688MOL0     H90772   9.131   3.367  11.180  2.3299  2.4380 -1.6276
  688MOL0     H90773   9.072   3.494  11.280 -2.7166 -1.5699 -1.1756
  688MOL0     H90774   9.234   3.242  11.375 -0.5513 -0.1916  1.0060
  688MOL0     H90775   9.179   3.361  11.483 -1.1117 -1.4975  0.5477
  688MOL0     H90776   8.943   3.306  11.375  2.2113  2.4136  0.0441
  688MOL0     H90777   8.996   3.220  11.521 -1.9182 -2.2621 -1.3102
  688MOL0     H90778   9.195   3.088  11.571  1.0626  0.6906 -0.7511
  688MOL0     H90779   9.269   2.884  11.658 -0.5749 -2.3436  1.4360
  688MOL0     H90780   9.502   2.506  11.632 -0.8205  1.0469 -0.0232
  688MOL0     H90781   9.577   2.306  11.733 -0.1693 -2.2379  0.5658
  688MOL0     H90782   9.280   2.083  12.007  0.6672  0.1676 -0.9440
  688MOL0     H90783   9.370   2.161  12.122 -0.7582  0.2701 -0.0716
  688MOL0     H90784   9.413   1.883  11.994 -1.9882  0.3877 -0.6006
  688MOL0     H90785   9.365   1.922  12.164 -0.0691  0.5220  0.0490
  688MOL0     H90786   9.603   2.022  12.188 -2.0816  1.2144 -0.2038
  688MOL0     H90787   9.643   1.951  12.034  1.4425 -0.9872  0.8035
  688MOL0     H90788   9.588   1.799  12.301  2.6034 -0.5477  0.8028
  688MOL0     H90789   9.557   1.726  12.142  2.1624  0.5272 -1.1129
  688MOL0     H90790   9.796   1.765  12.078  2.7878  0.2164  0.3637
  688MOL0     H90791   9.776   1.656  12.219  1.5312 -0.2715 -1.5083
  688MOL0     H90792   9.869   1.812  12.367 -5.7656 -2.6314 -0.2095
  688MOL0     H90793   9.840   1.938  12.249  2.0324 -0.3787 -0.8995
  688MOL0     H90794  10.035   1.700  12.197 -1.5089 -0.3372  0.4524
  688MOL0     H90795  10.021   1.820  12.083  2.2253 -0.0122 -0.0420
  688MOL0     H90796  10.106   1.838  12.370 -1.8628  0.7457 -0.0810
  688MOL0     H90797  10.056   1.984  12.296  0.2658 -0.1546  2.0025
  688MOL0     H90798   9.242   2.293  11.993 -3.8935  3.5122  0.4286
  688MOL0     H90799   9.156   2.512  11.894 -0.0441 -2.5640  1.9812
  688MOL0     H90800   9.075   2.669  11.351  0.1539 -2.0102  2.7318
  688MOL0     H90801   8.985   2.878  11.254  0.2860 -2.5883  0.3962
  688MOL0     H90802  10.104   3.072  10.219 -3.9359  1.1078  1.0006
  688MOL0     H90803  10.215   2.880  10.112 -0.7159 -2.1075 -1.1876
  688MOL0     H90804  10.113   2.427  10.141  2.0598  1.6075  1.4854
  688MOL0     H90805  10.113   2.190  10.039  0.8128 -0.1280  0.6658
  688MOL0     H90806  10.061   2.104   9.852 -0.6295  3.6053 -2.3715
  688MOL0     H90807  10.152   1.957   9.806 -0.3640 -0.1770  0.1621
  688MOL0     H90808  10.064   2.193   9.640 -1.1701  0.8693  1.9978
  688MOL0     H90809  10.184   2.064   9.584 -2.3460 -5.3709 -1.0700
  688MOL0     H90810   9.901   1.980   9.678  0.2563 -2.1296  0.7126
  688MOL0     H90811  10.017   1.895   9.576  2.6931  2.2273 -0.0732
  688MOL0     H90812   9.896   2.157   9.492  0.1657 -0.0189 -1.9147
  688MOL0     H90813   9.983   2.051   9.377  0.0200 -4.3146 -0.7798
  688MOL0     H90814   9.590   1.906   9.366 -0.6671  1.6896  2.0657
  688MOL0     H90815  10.454   2.314   9.797 -1.5930 -0.0275 -2.3026
  688MOL0     H90816  10.464   2.519   9.940 -1.1850  0.9410 -1.5520
  689MOL0     O90817   8.482   8.552   2.252 -0.4357  0.2024  0.6867
  689MOL0     C90818   8.430   8.463   2.178  0.1753  0.3323 -1.1091
  689MOL0     O90819   8.485   8.349   2.147  0.0748 -0.6315  0.1511
  689MOL0     C90820   8.620   8.329   2.190 -0.0107  0.0827  0.3336
  689MOL0     C90821   8.656   8.322   2.319 -0.7578 -0.1281  0.1827
  689MOL0     C90822   8.795   8.315   2.345  0.8130 -0.4561  0.3920
  689MOL0     C90823   8.884   8.299   2.241 -0.4255  0.6993 -0.4773
  689MOL0     O90824   9.016   8.290   2.286  0.3902  0.3587  0.6196
  689MOL0     C90825   9.131   8.270   2.202 -0.1189  0.1961  0.2199
  689MOL0     C90826   9.247   8.265   2.306  0.6566 -0.2498  1.0352
  689MOL0     C90827   9.386   8.260   2.243  0.0934 -0.6215 -0.8226
  689MOL0     C90828   9.420   8.133   2.167 -1.0758  0.2072 -0.0521
  689MOL0     C90829   9.554   8.159   2.100 -0.1706  0.6017 -0.3431
  689MOL0     C90830   9.618   8.022   2.068  0.2257  0.5707  0.1545
  689MOL0     C90831   9.750   8.026   1.988  0.5210  0.5843  0.3749
  689MOL0     C90832   9.748   8.104   1.853 -0.2963  0.4978 -0.7096
  689MOL0     N90833   9.865   8.062   1.768 -0.7254 -1.3417  0.4613
  689MOL0     C90834   9.939   8.162   1.700 -0.7326  0.1052 -0.2622
  689MOL0     C90835  10.037   8.097   1.637  0.0915  0.7942  1.3803
  689MOL0     C90836  10.157   8.156   1.553  1.0386 -0.3897  0.0202
  689MOL0     C90837  10.248   8.059   1.477  0.5852 -0.0191  0.5551
  689MOL0     C90838  10.354   7.998   1.567  0.6291  0.2291  0.1005
  689MOL0     C90839  10.472   7.917   1.496  0.4186  0.6121 -0.6106
  689MOL0     O90840  10.415   7.822   1.404  0.4723 -0.0649  0.7335
  689MOL0     C90841  10.504   7.744   1.332  0.3221 -0.3882  0.1610
  689MOL0     C90842  10.645   7.752   1.343  1.2010 -1.1280 -0.0127
  689MOL0     C90843  10.721   7.693   1.250  0.5706 -0.1383  0.1719
  689MOL0     C90844  10.668   7.599   1.166 -0.2248  0.1430  0.4692
  689MOL0     C90845  10.756   7.542   1.063  0.4441 -0.3285  1.8314
  689MOL0     O90846  10.876   7.501   1.110  0.1312  0.2535 -0.7429
  689MOL0     C90847  10.960   7.434   1.033  0.2394  0.1657 -0.4714
  689MOL0     C90848  10.949   7.296   1.004 -1.0937  0.0651  0.6803
  689MOL0     C90849  11.045   7.230   0.919  0.0724 -0.0197 -0.3885
  689MOL0     C90850  11.154   7.313   0.865  0.1600 -0.6731  0.5150
  689MOL0     O90851  11.252   7.273   0.773 -0.1107  0.5675  0.0410
  689MOL0     C90852  11.256   7.141   0.730  0.4423 -0.6551  0.3153
  689MOL0     C90853  11.331   7.049   0.820 -0.3045  0.1446  0.0788
  689MOL0     C90854  11.483   7.076   0.813  1.3733 -0.4091 -1.5965
  689MOL0     C90855  11.553   6.985   0.915 -0.2703 -0.2427 -1.2319
  689MOL0     C90856  11.704   6.974   0.886 -0.0888 -0.5124 -1.5199
  689MOL0     C90857  11.748   6.877   0.780 -0.5541 -0.2168 -0.0562
  689MOL0     C90858  11.897   6.888   0.740  0.8424  0.9364 -0.1321
  689MOL0     C90859  11.937   6.797   0.629 -0.3100  0.4604 -0.2769
  689MOL0    Cl90860  12.112   6.789   0.641  0.0799 -0.1109  0.0249
  689MOL0     C90861  11.154   7.450   0.892 -0.1452  0.6336  0.3644
  689MOL0     C90862  11.067   7.513   0.985  0.4689  0.4597  0.6556
  689MOL0     O90863  10.719   7.539   0.939 -0.0888 -0.9803 -0.1371
  689MOL0     C90864  10.535   7.565   1.173  0.4385 -0.0780 -0.0340
  689MOL0     C90865  10.450   7.647   1.254 -0.0706 -0.0385 -0.4250
  689MOL0     N90866  10.017   7.957   1.657  0.9297 -0.4613  0.1260
  689MOL0     N90867   9.906   7.943   1.732  0.4551 -0.0490 -0.1589
  689MOL0     C90868   8.845   8.295   2.110  0.2198 -0.9763 -0.8525
  689MOL0     C90869   8.709   8.309   2.083  0.0217 -0.9744  0.0799
  689MOL0     C90870   8.283   8.477   2.140 -0.1046 -0.1428 -0.0348
  689MOL0     C90871   8.200   8.588   2.175  0.4600  0.4038  0.4785
  689MOL0     C90872   8.066   8.585   2.131  0.0033  0.1629  0.8219
  689MOL0     C90873   8.018   8.495   2.033  0.4965 -0.1764 -0.1217
  689MOL0     O90874   7.899   8.507   1.978 -0.4907  0.2045  0.1082
  689MOL0     C90875   7.775   8.482   2.046  0.3081  0.4846 -0.0022
  689MOL0     C90876   7.698   8.606   2.095  0.4442  0.6343  0.9842
  689MOL0     C90877   7.645   8.696   1.982 -0.0453  0.6363  0.3974
  689MOL0     C90878   7.552   8.796   2.039  0.6861 -0.3358 -0.0143
  689MOL0     C90879   7.477   8.875   1.944  0.2689 -0.8230  0.1380
  689MOL0     C90880   7.421   8.938   1.852 -0.3901  0.7356 -0.4575
  689MOL0     C90881   8.096   8.389   2.011  0.1054 -0.1555  0.4110
  689MOL0     C90882   8.222   8.378   2.066  0.3851 -0.1091  0.9677
  689MOL0     H90883   8.597   8.328   2.410 -0.6361 -2.9824  0.5371
  689MOL0     H90884   8.830   8.306   2.447 -1.5823 -0.4186  1.2801
  689MOL0     H90885   9.141   8.366   2.151  3.0326 -0.1820 -0.1135
  689MOL0     H90886   9.127   8.177   2.145 -0.0863  1.7989 -2.5841
  689MOL0     H90887   9.228   8.178   2.369  0.6342  0.0392  1.4353
  689MOL0     H90888   9.231   8.347   2.376  0.4046  1.2522 -0.7045
  689MOL0     H90889   9.464   8.280   2.318 -1.4774 -0.6553  0.8786
  689MOL0     H90890   9.383   8.337   2.165 -3.0331  1.4484  1.0973
  689MOL0     H90891   9.416   8.057   2.246 -1.6403 -0.3416 -0.6058
  689MOL0     H90892   9.332   8.112   2.106  0.6577 -0.1865 -2.5329
  689MOL0     H90893   9.622   8.215   2.165 -0.4118  0.1245  0.3310
  689MOL0     H90894   9.527   8.206   2.005 -1.9484 -0.0217 -0.1839
  689MOL0     H90895   9.547   7.963   2.010  2.2018 -2.1015  0.2695
  689MOL0     H90896   9.638   7.984   2.168 -2.3061  3.9198  2.1639
  689MOL0     H90897   9.822   8.073   2.056 -0.1889  2.0615  0.1502
  689MOL0     H90898   9.782   7.923   1.973 -6.0915 -1.8641  0.0762
  689MOL0     H90899   9.742   8.210   1.876  1.9571  0.9461 -1.8351
  689MOL0     H90900   9.664   8.085   1.786 -2.1668  2.5332  0.9450
  689MOL0     H90901   9.923   8.269   1.713  2.9243  0.7435  0.0056
  689MOL0     H90902  10.217   8.220   1.617  2.9054 -2.1626  0.1331
  689MOL0     H90903  10.119   8.218   1.472  0.1904 -1.9835 -0.8662
  689MOL0     H90904  10.306   8.112   1.402  0.0365  0.6180  0.5782
  689MOL0     H90905  10.189   7.975   1.438  0.2449 -0.2353  1.5140
  689MOL0     H90906  10.393   8.085   1.622 -1.2792  2.0877 -1.3104
  689MOL0     H90907  10.299   7.924   1.625  0.1960  0.0218 -0.5748
  689MOL0     H90908  10.529   7.857   1.568 -0.3727  0.2316 -0.2924
  689MOL0     H90909  10.530   7.991   1.439  0.9492 -0.4047 -1.4172
  689MOL0     H90910  10.690   7.811   1.421 -1.6180  0.3905  0.6002
  689MOL0     H90911  10.826   7.718   1.239  0.8217 -1.4536 -0.6703
  689MOL0     H90912  10.863   7.236   1.034  1.6374 -4.8858 -0.2852
  689MOL0     H90913  11.040   7.122   0.910  0.1731  0.0473 -1.2803
  689MOL0     H90914  11.308   7.140   0.635 -1.2759 -0.6157 -0.6718
  689MOL0     H90915  11.154   7.107   0.711  0.1743  0.5571 -0.5053
  689MOL0     H90916  11.293   6.949   0.796 -2.8003  0.7520  1.1578
  689MOL0     H90917  11.297   7.051   0.924 -1.8826  1.8067 -0.4187
  689MOL0     H90918  11.517   7.176   0.842  0.5652 -0.7846  0.8209
  689MOL0     H90919  11.517   7.039   0.715  2.3418 -0.9769 -1.0659
  689MOL0     H90920  11.535   7.026   1.015 -1.7757 -1.6630 -0.8633
  689MOL0     H90921  11.506   6.887   0.902  3.2323 -2.2748  0.3325
  689MOL0     H90922  11.758   6.946   0.977  0.0729  0.4576 -1.3032
  689MOL0     H90923  11.746   7.070   0.855  0.8027 -0.3248  0.1123
  689MOL0     H90924  11.681   6.904   0.698 -1.0500  0.8409  0.6768
  689MOL0     H90925  11.720   6.775   0.809 -1.3473  0.6067  2.2917
  689MOL0     H90926  11.920   6.990   0.709  0.3418  0.8581 -0.7660
  689MOL0     H90927  11.961   6.869   0.827 -0.2176  4.3580  1.5636
  689MOL0     H90928  11.896   6.842   0.538  0.7275  1.4371 -0.2783
  689MOL0     H90929  11.898   6.697   0.655  2.4653 -0.8427 -0.7513
  689MOL0     H90930  11.236   7.508   0.851  1.5645 -0.6803  1.7633
  689MOL0     H90931  11.066   7.616   1.018 -2.9977  1.2163 -1.2730
  689MOL0     H90932  10.492   7.487   1.111 -3.3691  2.1086 -0.4802
  689MOL0     H90933  10.343   7.641   1.241 -0.1049 -2.7846  0.4255
  689MOL0     H90934   8.905   8.266   2.024  2.7781  0.3138  0.3897
  689MOL0     H90935   8.666   8.324   1.984  2.8916 -1.8687 -1.4044
  689MOL0     H90936   8.218   8.673   2.241  0.5767 -0.4454  1.5777
  689MOL0     H90937   7.996   8.664   2.159 -0.5680  1.2050 -3.0365
  689MOL0     H90938   7.800   8.418   2.132  0.4106  0.9236  0.2988
  689MOL0     H90939   7.707   8.425   1.983 -0.3048  1.9124 -0.6610
  689MOL0     H90940   7.604   8.578   2.143  0.3348 -1.8240 -0.4528
  689MOL0     H90941   7.756   8.656   2.172  0.0852  0.0662  1.6415
  689MOL0     H90942   7.590   8.635   1.910  2.5020 -0.8758 -0.3799
  689MOL0     H90943   7.730   8.745   1.933  1.1118 -1.4731  0.2024
  689MOL0     H90944   7.483   8.748   2.108  0.6907  0.1485  0.3313
  689MOL0     H90945   7.614   8.865   2.098 -1.3273  1.2981  0.2966
  689MOL0     H90946   7.376   8.987   1.768 -3.7964 -2.1085 -0.5249
  689MOL0     H90947   8.049   8.318   1.943 -2.0869  2.9086 -1.5444
  689MOL0     H90948   8.277   8.287   2.043  1.5962  0.5595  1.1212
  690MOL0     O90949   1.278  11.275   4.653 -0.0931  0.5170 -0.2258
  690MOL0     C90950   1.335  11.169   4.691 -0.0044 -0.2515 -0.1086
  690MOL0     O90951   1.377  11.065   4.614  0.5486 -0.4471 -0.4431
  690MOL0     C90952   1.327  11.025   4.493  0.2138  0.2380 -0.0018
  690MOL0     C90953   1.346  10.890   4.456  0.8544 -0.7030 -0.8339
  690MOL0     C90954   1.285  10.832   4.349  0.5376 -0.2813  0.2849
  690MOL0     C90955   1.209  10.911   4.257 -0.0772  0.7209  0.7794
  690MOL0     O90956   1.157  10.848   4.141  0.2582  1.0701 -1.0885
  690MOL0     C90957   1.072  10.934   4.056  0.8171  1.0668 -0.0565
  690MOL0     C90958   0.920  10.945   4.111  0.0907  0.0287 -0.2178
  690MOL0     C90959   0.808  10.993   4.006  0.8860 -0.0867 -0.0017
  690MOL0     C90960   0.766  10.870   3.928  0.1856 -0.0062 -0.0677
  690MOL0     C90961   0.656  10.922   3.835 -0.0521 -1.1419  1.2296
  690MOL0     C90962   0.578  10.792   3.773 -0.5544 -0.2623 -0.8222
  690MOL0     C90963   0.464  10.831   3.677 -0.1349  0.2796 -0.0766
  690MOL0     C90964   0.410  10.709   3.604  0.6760  0.1733 -0.3253
  690MOL0     N90965   0.327  10.758   3.494 -0.6872  0.4595  0.7669
  690MOL0     C90966   0.210  10.823   3.513 -0.6361  0.3896  0.5625
  690MOL0     C90967   0.141  10.813   3.390  0.0981  0.2157 -0.1539
  690MOL0     C90968   0.002  10.854   3.358 -0.2393 -0.0526 -0.6390
  690MOL0     C90969  -0.008  10.931   3.218 -0.4144 -0.3930 -0.7535
  690MOL0     C90970  -0.156  10.952   3.186 -0.2480 -1.1694  0.4820
  690MOL0     C90971  -0.162  11.055   3.071 -0.5417 -0.9669 -1.2340
  690MOL0     O90972  -0.089  10.997   2.969  0.2348  0.0085  1.0225
  690MOL0     C90973  -0.171  10.946   2.867  0.3912  0.2129  1.6634
  690MOL0     C90974  -0.261  11.025   2.799 -0.0366  0.3325  0.6351
  690MOL0     C90975  -0.336  10.971   2.698  0.1475 -0.3702  0.0717
  690MOL0     C90976  -0.330  10.839   2.660 -0.2841  0.1467  0.2259
  690MOL0     C90977  -0.410  10.804   2.541  0.0818 -0.7033 -0.9565
  690MOL0     O90978  -0.393  10.679   2.492  0.1628 -0.3948 -0.5039
  690MOL0     C90979  -0.462  10.645   2.377 -0.5518 -0.4474  0.3365
  690MOL0     C90980  -0.439  10.703   2.249  0.5296  0.0972  0.0581
  690MOL0     C90981  -0.515  10.667   2.139 -0.3200 -0.0937  0.1536
  690MOL0     C90982  -0.611  10.567   2.147  1.2975 -0.4261  0.5951
  690MOL0     O90983  -0.670  10.507   2.040  0.7235 -0.0840  0.0198
  690MOL0     C90984  -0.814  10.521   2.031  1.1000  0.0465  0.2123
  690MOL0     C90985  -0.865  10.498   1.888 -0.0932  0.6131  0.2215
  690MOL0     C90986  -0.805  10.581   1.781  0.6470 -0.3292  1.0650
  690MOL0     C90987  -0.893  10.609   1.652 -0.1444  0.6886 -0.3721
  690MOL0     C90988  -0.839  10.723   1.563  0.5897  0.3223 -0.9019
  690MOL0     C90989  -0.905  10.697   1.431  0.1648 -0.0261 -0.4927
  690MOL0     C90990  -0.854  10.803   1.335 -0.5620 -0.0952  0.0008
  690MOL0     C90991  -0.908  10.795   1.195  0.7648 -0.3640  0.4346
  690MOL0    Cl90992  -0.894  10.631   1.130  0.0122 -0.3765 -0.0640
  690MOL0     C90993  -0.633  10.507   2.272 -0.0441  0.6097 -0.5146
  690MOL0     C90994  -0.554  10.544   2.386  0.0270  0.2388 -0.3282
  690MOL0     O90995  -0.492  10.888   2.501  0.5328  0.5607 -0.3855
  690MOL0     C90996  -0.248  10.754   2.737  0.4811  0.1888  0.1818
  690MOL0     C90997  -0.160  10.809   2.830  0.7167  0.2161 -0.2571
  690MOL0     N90998   0.228  10.740   3.303 -0.7621 -0.7379  0.1275
  690MOL0     N90999   0.335  10.712   3.368 -0.9562 -0.5434  0.5848
  690MOL0     C91000   1.201  11.048   4.285 -0.8125 -0.5083 -0.7907
  690MOL0     C91001   1.253  11.107   4.399 -0.0156  0.5359 -0.5281
  690MOL0     C91002   1.353  11.147   4.835  0.3099  0.1029 -0.8820
  690MOL0     C91003   1.337  11.015   4.889 -0.3016  0.1346  0.6482
  690MOL0     C91004   1.356  11.005   5.017 -1.0410 -0.2464 -0.3363
  690MOL0     C91005   1.397  11.111   5.102  0.0419  1.0181 -0.5567
  690MOL0     O91006   1.422  11.077   5.236  0.3728 -0.2218 -0.1341
  690MOL0     C91007   1.479  11.164   5.330 -0.5700  0.7521 -0.4594
  690MOL0     C91008   1.381  11.257   5.395 -1.3086 -0.6562  1.1158
  690MOL0     C91009   1.446  11.311   5.520 -0.2335  0.1133  0.0410
  690MOL0     C91010   1.470  11.219   5.639  0.0534 -0.7302  0.9774
  690MOL0     C91011   1.356  11.138   5.664 -0.5793  0.1037  0.6188
  690MOL0     C91012   1.259  11.065   5.682 -0.4480 -0.0510  0.0261
  690MOL0     C91013   1.411  11.236   5.054  0.1660  0.6172 -0.1525
  690MOL0     C91014   1.391  11.253   4.915 -0.5496  0.0125 -0.8216
  690MOL0     H91015   1.399  10.826   4.527 -1.3915 -2.5156 -0.6789
  690MOL0     H91016   1.314  10.728   4.332  2.1890  0.0427  0.9596
  690MOL0     H91017   1.074  10.874   3.965  0.7148 -3.6478  2.7366
  690MOL0     H91018   1.122  11.030   4.039  1.8164  0.2898 -1.7471
  690MOL0     H91019   0.914  11.012   4.197 -1.0284 -0.4185  0.0710
  690MOL0     H91020   0.897  10.848   4.157  1.5967  0.0484  0.6460
  690MOL0     H91021   0.846  11.072   3.942  0.8325  1.6376  1.9777
  690MOL0     H91022   0.730  11.034   4.071 -3.2714 -3.0440 -2.6149
  690MOL0     H91023   0.852  10.831   3.874  1.1709 -0.3078  1.6511
  690MOL0     H91024   0.734  10.797   4.003  4.4198 -1.6846  0.3486
  690MOL0     H91025   0.703  10.983   3.757 -0.8410  0.3008  1.8528
  690MOL0     H91026   0.585  10.986   3.887  1.6282  0.7877  1.2736
  690MOL0     H91027   0.531  10.724   3.845 -1.9932  1.3999 -0.1459
  690MOL0     H91028   0.655  10.728   3.728  0.9297  0.1839  0.9850
  690MOL0     H91029   0.387  10.894   3.723  0.6164  1.5527 -0.5437
  690MOL0     H91030   0.519  10.886   3.601 -1.2528  0.7482 -0.5668
  690MOL0     H91031   0.342  10.653   3.669 -0.6190 -1.1804 -2.6745
  690MOL0     H91032   0.497  10.655   3.563  0.5434 -0.0035 -0.3774
  690MOL0     H91033   0.173  10.876   3.600  0.0267 -0.2128  1.2272
  690MOL0     H91034  -0.041  10.905   3.445 -0.7114 -0.7766 -0.4378
  690MOL0     H91035  -0.061  10.766   3.348 -2.6425  1.6995 -1.7664
  690MOL0     H91036   0.049  10.878   3.141  1.8704  1.9087 -0.7762
  690MOL0     H91037   0.024  11.034   3.236 -0.3026 -0.5404 -0.0830
  690MOL0     H91038  -0.205  10.860   3.153 -3.3716  0.7825 -0.7327
  690MOL0     H91039  -0.198  10.999   3.275  1.3440 -1.3279  1.3627
  690MOL0     H91040  -0.120  11.151   3.105 -3.3334 -0.7448  2.1404
  690MOL0     H91041  -0.266  11.079   3.047 -0.3614  1.1636 -0.1005
  690MOL0     H91042  -0.265  11.133   2.814 -0.9287  0.3910  0.1121
  690MOL0     H91043  -0.393  11.041   2.639  2.5159 -1.6136 -4.1379
  690MOL0     H91044  -0.366  10.783   2.253  1.9583 -1.1219 -0.8333
  690MOL0     H91045  -0.511  10.728   2.050 -2.4511  0.0222  0.0893
  690MOL0     H91046  -0.840  10.615   2.080  2.3516 -0.4460  1.9377
  690MOL0     H91047  -0.854  10.444   2.098 -0.2437  0.8065  0.3163
  690MOL0     H91048  -0.972  10.519   1.881 -0.6639 -1.5336  1.5534
  690MOL0     H91049  -0.847  10.394   1.861 -2.1838 -0.3629  2.2156
  690MOL0     H91050  -0.706  10.548   1.750  1.3493  2.1460  0.3771
  690MOL0     H91051  -0.781  10.681   1.818  0.4124 -0.1023  0.6157
  690MOL0     H91052  -0.893  10.513   1.600 -2.5628  1.1169 -1.2996
  690MOL0     H91053  -0.992  10.636   1.689  1.1270  1.2093  3.0117
  690MOL0     H91054  -0.731  10.724   1.546  0.4369  0.1520 -1.8914
  690MOL0     H91055  -0.868  10.811   1.621 -0.9559  0.1693 -1.3850
  690MOL0     H91056  -1.012  10.715   1.444  0.3935  0.0602  1.7323
  690MOL0     H91057  -0.887  10.595   1.395 -2.4407 -1.3210  1.5068
  690MOL0     H91058  -0.875  10.904   1.374  0.1116 -0.8782  2.5621
  690MOL0     H91059  -0.746  10.789   1.324 -0.8157 -2.3563 -0.0519
  690MOL0     H91060  -0.858  10.865   1.127  1.8108 -0.4685  1.0817
  690MOL0     H91061  -1.012  10.830   1.188  1.1784  0.5873 -1.9824
  690MOL0     H91062  -0.713  10.437   2.293 -0.0494  1.4530  2.7666
  690MOL0     H91063  -0.558  10.487   2.478  0.7103 -3.3516 -2.3553
  690MOL0     H91064  -0.231  10.651   2.707 -0.3132  0.3941 -1.0733
  690MOL0     H91065  -0.087  10.754   2.887 -0.1833 -2.7456 -1.7378
  690MOL0     H91066   1.140  11.114   4.225 -0.0458  1.7028  0.7442
  690MOL0     H91067   1.235  11.213   4.412  0.7844  0.5775  0.4456
  690MOL0     H91068   1.312  10.925   4.834  0.1445 -0.3547  1.2305
  690MOL0     H91069   1.342  10.908   5.064 -1.4977 -0.7462 -1.4697
  690MOL0     H91070   1.557  11.210   5.268  2.2448 -1.5758  1.0855
  690MOL0     H91071   1.532  11.114   5.413 -1.8644  3.2546  2.0628
  690MOL0     H91072   1.348  11.333   5.323 -0.6403  0.7779  2.2627
  690MOL0     H91073   1.287  11.204   5.412 -1.5394 -0.3266  0.8760
  690MOL0     H91074   1.395  11.399   5.561 -3.3457 -1.3644 -0.3834
  690MOL0     H91075   1.545  11.350   5.492  0.2287 -1.1956 -0.2442
  690MOL0     H91076   1.560  11.157   5.632 -0.2258 -0.9555 -1.4032
  690MOL0     H91077   1.490  11.285   5.725  1.8732 -1.6688  1.3127
  690MOL0     H91078   1.173  11.005   5.704 -1.5220  2.0850  2.0964
  690MOL0     H91079   1.438  11.324   5.110  1.7821 -0.3755  0.7086
  690MOL0     H91080   1.389  11.358   4.886 -0.6755  0.5563  1.0125
  691MOL0     O91081   0.936   2.747   1.677 -0.4147 -0.3740 -0.6147
  691MOL0     C91082   0.994   2.776   1.573 -0.2241  0.3225 -0.3613
  691MOL0     O91083   0.988   2.718   1.448 -0.0427  0.3137  1.1283
  691MOL0     C91084   0.909   2.601   1.423  0.2139  0.0803 -0.1413
  691MOL0     C91085   0.876   2.492   1.508 -0.6077 -0.4044 -0.2548
  691MOL0     C91086   0.816   2.375   1.454 -0.3298 -0.0053  0.3058
  691MOL0     C91087   0.776   2.371   1.322 -0.9180  0.5831 -0.1614
  691MOL0     O91088   0.729   2.261   1.256 -0.5072 -0.3782  0.2131
  691MOL0     C91089   0.596   2.228   1.300  0.9927 -0.2899  0.3809
  691MOL0     C91090   0.522   2.121   1.214 -0.2538 -0.6702 -0.3195
  691MOL0     C91091   0.438   2.190   1.107  0.3458 -0.2532  0.2528
  691MOL0     C91092   0.321   2.273   1.159 -0.0554  0.6864 -0.5294
  691MOL0     C91093   0.199   2.257   1.060  0.4794 -0.2383 -0.4596
  691MOL0     C91094   0.153   2.111   1.041  0.3265 -0.4907 -0.1794
  691MOL0     C91095   0.111   2.043   1.178 -0.1095 -0.7841  0.1802
  691MOL0     C91096   0.013   2.111   1.260  0.1334 -1.1567 -0.3692
  691MOL0     N91097  -0.113   2.131   1.189  0.5724 -0.4910 -0.0536
  691MOL0     C91098  -0.216   2.042   1.156  0.1913 -0.0431 -0.5706
  691MOL0     C91099  -0.288   2.094   1.059  0.1421 -0.5665  0.4478
  691MOL0     C91100  -0.394   2.028   0.967 -0.6940 -0.3557 -0.2150
  691MOL0     C91101  -0.520   2.017   1.054  0.3939  0.3430 -0.4018
  691MOL0     C91102  -0.636   1.991   0.963  0.0379  0.1635 -0.8023
  691MOL0     C91103  -0.771   1.968   1.033  0.2080  1.0363 -0.1144
  691MOL0     O91104  -0.822   2.093   1.086 -0.3896 -0.5280  0.2439
  691MOL0     C91105  -0.947   2.080   1.135  1.1839 -0.6845 -0.1839
  691MOL0     C91106  -0.971   2.028   1.265  0.0382 -0.6182  0.3935
  691MOL0     C91107  -1.104   2.013   1.303 -1.0093 -0.1959 -0.4931
  691MOL0     C91108  -1.211   2.065   1.220 -0.2317  0.4946  0.3289
  691MOL0     C91109  -1.356   2.063   1.263 -0.5035  0.1163 -0.1959
  691MOL0     O91110  -1.397   1.993   1.372  0.4502  0.5375  0.1691
  691MOL0     C91111  -1.531   1.947   1.378 -0.7745  0.5508  0.5962
  691MOL0     C91112  -1.581   1.976   1.505 -0.0967  0.4831 -0.5980
  691MOL0     C91113  -1.719   1.971   1.527  0.5287 -0.4638  0.5350
  691MOL0     C91114  -1.802   1.927   1.419 -0.0217  0.0403  0.0843
  691MOL0     O91115  -1.938   1.911   1.439 -0.0001  0.1478  0.2242
  691MOL0     C91116  -2.010   2.029   1.402  0.1721  0.4688  0.3507
  691MOL0     C91117  -2.154   1.995   1.388  0.0616  0.3182 -0.3739
  691MOL0     C91118  -2.233   2.001   1.523  0.6415  1.4391 -0.0470
  691MOL0     C91119  -2.383   1.959   1.504  0.0966 -0.4585 -0.2960
  691MOL0     C91120  -2.474   2.062   1.432 -0.5493  0.0070  0.6108
  691MOL0     C91121  -2.599   1.991   1.371 -0.4005 -0.4743 -0.3973
  691MOL0     C91122  -2.696   2.102   1.319 -0.0508 -0.0550 -0.2624
  691MOL0     C91123  -2.629   2.192   1.209  0.1142  0.1019 -0.2254
  691MOL0    Cl91124  -2.744   2.267   1.099  0.0889  0.5720  0.3239
  691MOL0     C91125  -1.749   1.905   1.292 -0.0466  0.7169  1.2352
  691MOL0     C91126  -1.616   1.911   1.267 -0.0552 -0.3680 -0.1187
  691MOL0     O91127  -1.423   2.150   1.212  0.7123 -0.3115 -0.1629
  691MOL0     C91128  -1.176   2.147   1.110  0.1981  0.6089 -0.3018
  691MOL0     C91129  -1.044   2.149   1.068 -0.8625 -0.8392 -0.2003
  691MOL0     N91130  -0.247   2.227   1.042  0.3149  0.2318  0.4380
  691MOL0     N91131  -0.137   2.244   1.115  0.4770  0.4529 -0.2581
  691MOL0     C91132   0.803   2.477   1.241  0.1114  0.0663 -0.2283
  691MOL0     C91133   0.870   2.592   1.295  0.3548 -0.3862  0.3965
  691MOL0     C91134   1.074   2.907   1.579  0.7083 -0.2056 -0.3220
  691MOL0     C91135   1.166   2.930   1.476 -0.2535  0.0457 -0.5153
  691MOL0     C91136   1.252   3.032   1.473 -0.3089 -0.1282 -0.4825
  691MOL0     C91137   1.254   3.125   1.578  0.5373  0.2865 -0.5865
  691MOL0     O91138   1.341   3.233   1.571  0.1778  0.6934  0.2436
  691MOL0     C91139   1.479   3.214   1.572 -0.0906 -0.0893  0.0188
  691MOL0     C91140   1.544   3.347   1.584 -0.2841  0.3904 -0.4946
  691MOL0     C91141   1.560   3.407   1.452 -0.2131  0.0953 -0.6423
  691MOL0     C91142   1.693   3.367   1.376  0.1083  0.4383  0.0788
  691MOL0     C91143   1.808   3.437   1.429  0.6345 -0.8542 -0.6504
  691MOL0     C91144   1.905   3.495   1.478  0.3771 -0.2625  0.6453
  691MOL0     C91145   1.155   3.106   1.675 -0.0246 -0.3515  0.9268
  691MOL0     C91146   1.075   3.001   1.679 -0.4711  1.0861 -0.0355
  691MOL0     H91147   0.903   2.497   1.613 -1.0038  1.0706 -0.2002
  691MOL0     H91148   0.800   2.291   1.521  1.5499 -0.0467  0.7583
  691MOL0     H91149   0.537   2.320   1.291 -0.9467 -1.6684 -2.2940
  691MOL0     H91150   0.579   2.207   1.406  2.6471  3.1494  1.5004
  691MOL0     H91151   0.461   2.056   1.277  0.8623 -1.4889 -0.0566
  691MOL0     H91152   0.594   2.061   1.157 -0.3929 -1.2566  0.1008
  691MOL0     H91153   0.407   2.110   1.039  3.5293 -0.2024 -1.4497
  691MOL0     H91154   0.500   2.260   1.050 -2.1455  2.2697  0.4109
  691MOL0     H91155   0.289   2.234   1.256 -0.2571 -1.7553 -1.5144
  691MOL0     H91156   0.346   2.379   1.168  0.7323  0.3762  1.7548
  691MOL0     H91157   0.215   2.291   0.957  2.7701  0.6180  0.1356
  691MOL0     H91158   0.111   2.313   1.095 -1.2891 -2.7799 -0.5461
  691MOL0     H91159   0.221   2.058   0.975 -0.2137 -0.2046 -0.9754
  691MOL0     H91160   0.065   2.093   0.978  1.3545 -3.8904 -0.8301
  691MOL0     H91161   0.077   1.943   1.151 -0.7771 -0.2709 -0.9649
  691MOL0     H91162   0.203   2.032   1.237 -0.2622 -0.3399  0.5053
  691MOL0     H91163   0.045   2.203   1.310 -0.0406 -1.0739 -0.4072
  691MOL0     H91164  -0.006   2.035   1.337  3.7759 -1.6842  0.1833
  691MOL0     H91165  -0.218   1.939   1.191  2.3751 -0.0431 -0.3134
  691MOL0     H91166  -0.361   1.931   0.928 -3.5372 -0.9767 -1.3419
  691MOL0     H91167  -0.405   2.103   0.889  4.0612  4.5685  3.1288
  691MOL0     H91168  -0.550   2.109   1.105 -0.6727 -0.3655  0.2972
  691MOL0     H91169  -0.509   1.936   1.127  1.3492  0.4095 -0.4590
  691MOL0     H91170  -0.649   2.068   0.886 -1.9241 -0.7536 -1.4728
  691MOL0     H91171  -0.611   1.894   0.918 -2.4956  0.3597 -2.9483
  691MOL0     H91172  -0.757   1.905   1.121  1.3602  1.2658 -0.1218
  691MOL0     H91173  -0.831   1.919   0.956  1.1558 -0.9914  0.3824
  691MOL0     H91174  -0.879   2.004   1.316  0.9881 -3.0862 -2.2105
  691MOL0     H91175  -1.120   1.971   1.402  0.6032 -1.4981 -0.7549
  691MOL0     H91176  -1.520   2.007   1.589  1.3847 -2.2175 -0.5623
  691MOL0     H91177  -1.755   2.002   1.624  0.7397 -2.4187  1.2982
  691MOL0     H91178  -1.971   2.071   1.309 -0.3269 -0.6067 -0.3683
  691MOL0     H91179  -2.005   2.112   1.473  3.1181  1.4836 -0.9052
  691MOL0     H91180  -2.179   1.904   1.332 -0.9831  1.0478 -1.1330
  691MOL0     H91181  -2.202   2.071   1.325  1.6422  1.4427 -0.2691
  691MOL0     H91182  -2.235   2.097   1.576 -1.3240  2.0251 -1.1033
  691MOL0     H91183  -2.176   1.929   1.582  0.9175  0.3096 -1.6320
  691MOL0     H91184  -2.394   1.864   1.449  1.6514 -0.2195 -1.0828
  691MOL0     H91185  -2.412   1.958   1.609  1.3687  3.0982  0.2204
  691MOL0     H91186  -2.420   2.106   1.348  0.5528 -2.1562  0.1052
  691MOL0     H91187  -2.504   2.143   1.499  0.4370  2.4264 -1.6748
  691MOL0     H91188  -2.648   1.933   1.450  1.6278 -0.7105  0.7323
  691MOL0     H91189  -2.550   1.928   1.296  4.8560 -3.3019  4.6385
  691MOL0     H91190  -2.773   2.045   1.265  1.2347 -1.2610 -0.8871
  691MOL0     H91191  -2.738   2.159   1.402 -1.7293 -0.7082 -0.6165
  691MOL0     H91192  -2.547   2.146   1.153 -0.5942  0.8670 -1.9607
  691MOL0     H91193  -2.571   2.263   1.269 -1.7982 -2.3456  5.1123
  691MOL0     H91194  -1.810   1.861   1.213 -1.3759 -1.2927  3.2393
  691MOL0     H91195  -1.585   1.897   1.164 -1.3331 -3.8559 -0.1507
  691MOL0     H91196  -1.244   2.191   1.038  0.5748 -1.5562 -2.0869
  691MOL0     H91197  -1.017   2.214   0.985  2.1011  2.4979  2.9999
  691MOL0     H91198   0.766   2.474   1.139  0.6560 -1.8044 -0.4113
  691MOL0     H91199   0.884   2.675   1.227 -0.9728  1.2052  1.9613
  691MOL0     H91200   1.162   2.865   1.390 -0.7105 -1.9834  0.9633
  691MOL0     H91201   1.308   3.049   1.381 -0.2541  2.1191 -0.0760
  691MOL0     H91202   1.516   3.157   1.486 -0.1255  2.0677 -1.5151
  691MOL0     H91203   1.499   3.165   1.668 -1.1974  1.5552  1.1507
  691MOL0     H91204   1.491   3.415   1.650 -0.0193  1.2569 -1.1583
  691MOL0     H91205   1.641   3.324   1.630 -2.2194 -4.5315  1.8580
  691MOL0     H91206   1.571   3.513   1.480  2.8806 -0.6478  1.5204
  691MOL0     H91207   1.479   3.374   1.386  0.8501 -2.6933 -0.6727
  691MOL0     H91208   1.718   3.261   1.375 -0.3342  0.2934 -2.7051
  691MOL0     H91209   1.692   3.394   1.270 -3.0974 -0.7847 -0.3006
  691MOL0     H91210   1.991   3.548   1.513  0.9734  0.1449 -1.3094
  691MOL0     H91211   1.138   3.173   1.759 -3.8043  1.0555 -0.7126
  691MOL0     H91212   1.004   2.986   1.759 -0.9196  1.7475 -0.3043
  692MOL0     O91213  10.935  11.054   6.140  0.0100  0.1350 -0.5913
  692MOL0     C91214  10.961  10.951   6.207 -0.1055 -1.0697 -0.1301
  692MOL0     O91215  11.084  10.887   6.204  0.0436 -0.0052 -0.4375
  692MOL0     C91216  11.184  10.959   6.149 -0.5322 -0.3860 -1.1471
  692MOL0     C91217  11.291  10.993   6.240  0.4111 -0.8532 -0.3552
  692MOL0     C91218  11.401  11.072   6.190 -0.4850 -0.0596 -0.6538
  692MOL0     C91219  11.410  11.096   6.050  0.0567 -0.6055 -1.0029
  692MOL0     O91220  11.519  11.175   6.017  0.4652 -0.2375  0.6316
  692MOL0     C91221  11.539  11.200   5.875  0.0653 -0.5245  0.2020
  692MOL0     C91222  11.593  11.342   5.854 -0.3920  0.4536 -0.3001
  692MOL0     C91223  11.695  11.367   5.967 -0.0823  0.3657 -0.6796
  692MOL0     C91224  11.762  11.505   5.967 -0.0469  0.0427 -0.5799
  692MOL0     C91225  11.846  11.542   5.845 -0.9505 -0.1510 -0.1980
  692MOL0     C91226  11.935  11.672   5.864  0.2128 -0.4630 -0.7223
  692MOL0     C91227  12.000  11.739   5.744 -0.6906  0.4960 -0.2247
  692MOL0     C91228  12.090  11.649   5.672  0.4653  0.4674  0.6825
  692MOL0     N91229  12.158  11.733   5.570  0.1544  0.0098  0.1818
  692MOL0     C91230  12.106  11.842   5.495 -0.7659 -0.2286 -0.4533
  692MOL0     C91231  12.218  11.901   5.449  0.1355 -0.8891  0.3959
  692MOL0     C91232  12.214  12.026   5.356 -0.0237 -0.2146 -0.2618
  692MOL0     C91233  12.247  12.149   5.434 -0.2523  0.5619 -0.4417
  692MOL0     C91234  12.132  12.193   5.527 -0.0460 -0.1752  0.9435
  692MOL0     C91235  12.175  12.283   5.642  0.1032  0.4707  0.3091
  692MOL0     O91236  12.217  12.412   5.597  0.1841  0.4806  0.4374
  692MOL0     C91237  12.257  12.502   5.693  0.0178 -0.2427 -0.2000
  692MOL0     C91238  12.362  12.597   5.652 -0.2343  1.0256 -1.1230
  692MOL0     C91239  12.413  12.677   5.758  0.0059  0.3328  0.8533
  692MOL0     C91240  12.360  12.692   5.888 -0.0076  0.0864  0.1925
  692MOL0     C91241  12.402  12.796   5.988  0.8052 -0.1926  0.4033
  692MOL0     O91242  12.359  12.781   6.109  0.3560 -0.1450 -0.1728
  692MOL0     C91243  12.422  12.852   6.206  1.0130  0.5244  0.3508
  692MOL0     C91244  12.550  12.800   6.253  0.7935 -0.6566 -0.6581
  692MOL0     C91245  12.610  12.860   6.359 -0.1266 -0.0637  0.1081
  692MOL0     C91246  12.552  12.960   6.432 -0.6875  0.5244  0.3347
  692MOL0     O91247  12.638  13.030   6.520  0.0797 -0.4031  0.1833
  692MOL0     C91248  12.584  13.130   6.603 -0.5003  0.5867  0.4007
  692MOL0     C91249  12.606  13.269   6.541 -0.3649  1.2139 -0.2540
  692MOL0     C91250  12.535  13.378   6.621  0.0444  0.0841  0.6224
  692MOL0     C91251  12.391  13.403   6.557  0.3437  0.5366 -0.1159
  692MOL0     C91252  12.281  13.362   6.658 -0.3048  0.7983 -0.2466
  692MOL0     C91253  12.261  13.459   6.776  0.2873 -0.1080  0.6407
  692MOL0     C91254  12.223  13.607   6.735 -0.7400 -0.5619  1.0619
  692MOL0     C91255  12.184  13.712   6.836  0.7103 -0.0094 -0.2862
  692MOL0    Cl91256  12.180  13.873   6.759 -0.6416 -0.0592  0.1499
  692MOL0     C91257  12.430  13.003   6.389  0.1745 -0.1299  0.6856
  692MOL0     C91258  12.359  12.951   6.277 -0.0944  0.2102 -0.2253
  692MOL0     O91259  12.466  12.896   5.957  1.2184  0.7164 -0.8122
  692MOL0     C91260  12.245  12.611   5.909  0.8217 -0.6195 -0.9593
  692MOL0     C91261  12.209  12.516   5.818 -0.3469 -0.0831  0.0595
  692MOL0     N91262  12.333  11.844   5.500 -0.7267  0.7310 -0.1997
  692MOL0     N91263  12.293  11.745   5.564  0.3733  0.9360  0.5633
  692MOL0     C91264  11.320  11.036   5.969 -0.0898  0.3559  0.1602
  692MOL0     C91265  11.208  10.975   6.012  0.1691 -0.1630 -0.3969
  692MOL0     C91266  10.849  10.895   6.278 -0.5439 -0.0383  0.4345
  692MOL0     C91267  10.871  10.772   6.326  0.3197 -0.2982  0.3555
  692MOL0     C91268  10.778  10.711   6.400  1.3040  0.7352 -0.3342
  692MOL0     C91269  10.656  10.772   6.435 -0.1088  0.5012 -0.4873
  692MOL0     O91270  10.551  10.711   6.492  0.1220  0.3575 -0.0430
  692MOL0     C91271  10.580  10.604   6.569  0.8460  1.2311  0.3090
  692MOL0     C91272  10.536  10.482   6.486 -0.2271  0.0705  0.3627
  692MOL0     C91273  10.387  10.450   6.504 -0.9938 -0.3341  0.4264
  692MOL0     C91274  10.358  10.356   6.618  0.7349 -0.2571 -0.6363
  692MOL0     C91275  10.220  10.360   6.650  0.4541  0.0859 -0.6682
  692MOL0     C91276  10.107  10.381   6.682  0.3384 -0.8215  1.3337
  692MOL0     C91277  10.640  10.898   6.393  1.0693 -0.6860  0.1623
  692MOL0     C91278  10.735  10.967   6.308 -0.6393 -0.5686 -0.0048
  692MOL0     H91279  11.295  10.978   6.347  1.4867  0.5897 -0.1649
  692MOL0     H91280  11.473  11.101   6.265 -2.5758  0.5251  1.2300
  692MOL0     H91281  11.446  11.203   5.818  1.1733  0.9835 -1.6698
  692MOL0     H91282  11.603  11.117   5.843  0.3234 -0.5929  0.8757
  692MOL0     H91283  11.508  11.410   5.868 -1.6402 -1.3215  1.2267
  692MOL0     H91284  11.634  11.365   5.755  1.0029  2.2195  0.6130
  692MOL0     H91285  11.776  11.295   5.964 -1.2373 -1.1698  2.0115
  692MOL0     H91286  11.658  11.349   6.068  1.4454 -1.0882 -0.3510
  692MOL0     H91287  11.691  11.586   5.987 -0.0120  0.2855 -1.4011
  692MOL0     H91288  11.836  11.507   6.047 -1.2845  1.8374  0.5911
  692MOL0     H91289  11.776  11.566   5.764 -1.6290  1.5921  0.8461
  692MOL0     H91290  11.900  11.455   5.807  0.5292  1.1731 -1.2744
  692MOL0     H91291  12.016  11.638   5.931  0.6700  0.9708 -0.5212
  692MOL0     H91292  11.878  11.754   5.908  2.1419  1.2450 -1.2503
  692MOL0     H91293  11.921  11.775   5.677  1.0293  3.0827 -1.0252
  692MOL0     H91294  12.058  11.827   5.772 -0.5294 -0.5429  3.1733
  692MOL0     H91295  12.055  11.559   5.621  3.7238 -0.9973  0.7285
  692MOL0     H91296  12.165  11.629   5.750 -0.8708 -1.3323  1.5696
  692MOL0     H91297  12.005  11.882   5.486 -0.2974  1.9787  2.4745
  692MOL0     H91298  12.117  12.035   5.305 -0.0544  1.5419  0.0619
  692MOL0     H91299  12.284  12.025   5.272  0.5721 -1.2509  0.2298
  692MOL0     H91300  12.282  12.226   5.364 -1.3855 -0.2655 -1.9542
  692MOL0     H91301  12.333  12.144   5.503 -1.7241  3.8556  1.9024
  692MOL0     H91302  12.072  12.264   5.469 -1.5123 -0.3168  2.2319
  692MOL0     H91303  12.082  12.103   5.563 -0.8179  0.3412  1.1787
  692MOL0     H91304  12.252  12.236   5.703  1.4702 -0.7899 -2.2256
  692MOL0     H91305  12.086  12.289   5.705  0.0765  0.3829  0.2796
  692MOL0     H91306  12.421  12.586   5.562  1.9999 -2.2285  0.5472
  692MOL0     H91307  12.498  12.743   5.739  0.9731 -0.4668  2.2327
  692MOL0     H91308  12.599  12.714   6.209  2.1072 -0.6572  0.7294
  692MOL0     H91309  12.710  12.827   6.385  0.1872 -0.5132 -1.5512
  692MOL0     H91310  12.644  13.130   6.694 -2.4765 -2.8171  1.8751
  692MOL0     H91311  12.481  13.114   6.636  0.8284 -4.8046  2.8877
  692MOL0     H91312  12.572  13.270   6.437 -0.3424 -1.7527 -0.3659
  692MOL0     H91313  12.714  13.287   6.541  0.3262 -2.2668  0.8272
  692MOL0     H91314  12.591  13.471   6.612 -0.7492  0.3849 -2.3749
  692MOL0     H91315  12.519  13.359   6.728  1.8275 -2.5637  0.4965
  692MOL0     H91316  12.385  13.510   6.534 -1.7479  0.6550  0.7336
  692MOL0     H91317  12.374  13.346   6.465  1.9838 -0.4594  0.1604
  692MOL0     H91318  12.307  13.262   6.692  1.0800  0.6445 -1.6249
  692MOL0     H91319  12.182  13.346   6.616 -0.0946 -2.8545  0.3913
  692MOL0     H91320  12.354  13.471   6.833  0.4846  0.3143  0.2370
  692MOL0     H91321  12.176  13.417   6.831  0.6387 -0.7736  0.6810
  692MOL0     H91322  12.313  13.652   6.693 -0.1772 -0.5615  2.2449
  692MOL0     H91323  12.149  13.618   6.655  0.0035  4.9611  0.7807
  692MOL0     H91324  12.257  13.715   6.918  0.4917  0.8891 -0.1076
  692MOL0     H91325  12.085  13.689   6.876  0.2872 -0.4900 -1.5652
  692MOL0     H91326  12.392  13.090   6.443 -1.0992  0.4006 -0.9801
  692MOL0     H91327  12.261  12.990   6.251  1.1562  1.6158 -3.3799
  692MOL0     H91328  12.186  12.616   6.000  1.3368 -2.8108 -0.4334
  692MOL0     H91329  12.128  12.450   5.848 -1.4579  2.2127  2.4682
  692MOL0     H91330  11.343  11.020   5.865 -2.3432  0.3276 -0.3898
  692MOL0     H91331  11.129  10.955   5.940  0.9920 -0.9815 -1.0951
  692MOL0     H91332  10.966  10.721   6.308  1.4293  2.5131 -3.1650
  692MOL0     H91333  10.800  10.609   6.430 -0.5489  1.6880  5.7315
  692MOL0     H91334  10.511  10.605   6.654 -0.0182  0.5585 -0.3552
  692MOL0     H91335  10.685  10.584   6.590  1.0348  1.0885 -0.6893
  692MOL0     H91336  10.554  10.493   6.379 -3.4018 -0.4945 -0.3396
  692MOL0     H91337  10.583  10.390   6.523 -0.6745 -1.3056 -2.2685
  692MOL0     H91338  10.338  10.405   6.417 -1.3021  0.2428  0.3041
  692MOL0     H91339  10.337  10.546   6.511 -0.8446 -0.3120  1.2931
  692MOL0     H91340  10.376  10.250   6.594  1.1342 -0.9689  2.3694
  692MOL0     H91341  10.425  10.371   6.704 -0.9749 -2.3670  1.1827
  692MOL0     H91342  10.011  10.405   6.725 -0.1879 -0.8176  0.1894
  692MOL0     H91343  10.555  10.951   6.436  0.4779 -1.4683  0.0006
  692MOL0     H91344  10.728  11.072   6.281 -0.0756 -0.2435  1.0531
  693MOL0     O91345   4.235   5.217   8.396  0.3155  0.0314 -0.1676
  693MOL0     C91346   4.285   5.323   8.355  0.1163 -0.1259 -0.4058
  693MOL0     O91347   4.403   5.339   8.284  0.2255  0.6640 -0.3479
  693MOL0     C91348   4.482   5.241   8.224  0.4056 -0.3832  0.1418
  693MOL0     C91349   4.426   5.141   8.146 -0.0261 -0.7165 -0.7307
  693MOL0     C91350   4.507   5.066   8.059  0.9398 -0.1319  0.3692
  693MOL0     C91351   4.643   5.079   8.072  0.0773 -0.2681 -0.1902
  693MOL0     O91352   4.723   4.993   7.995 -0.5831  0.1161  0.0465
  693MOL0     C91353   4.854   5.039   7.954  0.3446  1.0902  0.2281
  693MOL0     C91354   4.928   4.942   7.858 -0.1962 -0.0439 -0.1146
  693MOL0     C91355   4.979   4.822   7.941  0.5962  0.2909  0.5098
  693MOL0     C91356   5.047   4.714   7.851 -0.0382 -0.7256 -0.6875
  693MOL0     C91357   5.117   4.600   7.937 -0.9130  0.9392  0.5953
  693MOL0     C91358   5.262   4.638   7.972 -0.8431  0.6904  0.4681
  693MOL0     C91359   5.344   4.535   8.050 -0.2849  0.3984  1.9827
  693MOL0     C91360   5.285   4.490   8.179  0.9558  1.1249  0.4309
  693MOL0     N91361   5.374   4.382   8.234  1.5216  0.4178 -0.1674
  693MOL0     C91362   5.507   4.399   8.257 -0.3200  0.1419  0.5655
  693MOL0     C91363   5.548   4.273   8.308  0.8797 -0.9337  0.2436
  693MOL0     C91364   5.686   4.248   8.355  0.6034  0.0635  0.0805
  693MOL0     C91365   5.763   4.177   8.239  0.1856 -0.7681 -0.5928
  693MOL0     C91366   5.907   4.162   8.295 -0.9489  0.3788  0.5067
  693MOL0     C91367   5.981   4.059   8.199  0.0314 -0.6879  0.1534
  693MOL0     O91368   6.111   4.125   8.180 -0.3483  0.1367 -0.5694
  693MOL0     C91369   6.208   4.061   8.106 -1.0233 -1.1373  0.2552
  693MOL0     C91370   6.201   3.936   8.047  0.7645  0.6196  0.2339
  693MOL0     C91371   6.311   3.865   7.997 -0.5610  0.0252  0.7507
  693MOL0     C91372   6.433   3.931   7.998  0.0870 -0.9543  0.3516
  693MOL0     C91373   6.558   3.882   7.944 -0.0196  0.3025 -0.7728
  693MOL0     O91374   6.661   3.962   7.925  0.0187  0.1103 -0.6874
  693MOL0     C91375   6.765   3.920   7.850  0.8560 -0.1649  0.0451
  693MOL0     C91376   6.750   3.892   7.720  0.5890 -0.0584  0.0130
  693MOL0     C91377   6.860   3.843   7.648  0.1817  1.3993  0.0802
  693MOL0     C91378   6.980   3.800   7.707  0.4019  0.0781  0.1046
  693MOL0     O91379   7.094   3.763   7.637 -0.7690  0.3986 -0.3462
  693MOL0     C91380   7.102   3.817   7.502 -0.2589 -0.2598 -0.4235
  693MOL0     C91381   7.239   3.797   7.443  0.9158  0.6385 -0.3475
  693MOL0     C91382   7.267   3.652   7.402  0.2715  0.7048  0.7353
  693MOL0     C91383   7.422   3.647   7.364  0.8617 -0.0784  0.3784
  693MOL0     C91384   7.452   3.519   7.261 -0.7811  0.2051 -0.2651
  693MOL0     C91385   7.591   3.521   7.202  0.1215 -0.4528 -0.0055
  693MOL0     C91386   7.629   3.650   7.119  0.7180 -0.0772  0.8931
  693MOL0     C91387   7.771   3.635   7.059 -0.8463 -0.1352 -0.2597
  693MOL0    Cl91388   7.779   3.496   6.949  0.5186 -0.0152  0.0818
  693MOL0     C91389   6.992   3.828   7.846 -1.0143  0.6803 -0.3859
  693MOL0     C91390   6.887   3.886   7.919  0.0338 -0.4577  0.3826
  693MOL0     O91391   6.562   3.762   7.919  0.2405 -0.9770  0.3429
  693MOL0     C91392   6.443   4.063   8.053 -0.0441  0.3074 -0.4139
  693MOL0     C91393   6.333   4.124   8.105 -0.4448 -0.2219 -0.0731
  693MOL0     N91394   5.436   4.194   8.313  0.3835  0.0894  0.3744
  693MOL0     N91395   5.330   4.254   8.270  0.1238 -0.1998  1.0248
  693MOL0     C91396   4.701   5.185   8.155 -0.5787 -0.0958 -0.6543
  693MOL0     C91397   4.621   5.262   8.225 -0.0495 -0.5880  0.1022
  693MOL0     C91398   4.194   5.445   8.363 -0.3987  0.4503  0.5865
  693MOL0     C91399   4.062   5.431   8.372 -0.1376 -0.2727 -0.1744
  693MOL0     C91400   3.980   5.541   8.404  0.1562  0.4606 -0.2572
  693MOL0     C91401   4.037   5.669   8.426 -0.8030  0.4433  0.1223
  693MOL0     O91402   3.940   5.754   8.479  0.6342 -0.4329  0.1062
  693MOL0     C91403   3.996   5.855   8.555  0.3599 -0.2312 -0.1919
  693MOL0     C91404   3.878   5.918   8.633  0.4898  0.2733 -0.3021
  693MOL0     C91405   3.796   6.019   8.550  0.3305  0.1495  0.2134
  693MOL0     C91406   3.706   5.968   8.440  0.5186  0.8133 -0.0693
  693MOL0     C91407   3.608   6.071   8.405  1.3564  0.6757  0.4000
  693MOL0     C91408   3.522   6.161   8.381  0.0948  0.1663 -0.6475
  693MOL0     C91409   4.181   5.681   8.417  0.1512  0.3168  0.2463
  693MOL0     C91410   4.254   5.574   8.385  0.3400 -0.3313  1.8613
  693MOL0     H91411   4.318   5.131   8.148 -0.5678  3.3357 -1.3797
  693MOL0     H91412   4.461   5.003   7.983 -2.6797 -1.3678  3.2078
  693MOL0     H91413   4.914   5.051   8.045 -1.5979 -0.8121  1.8741
  693MOL0     H91414   4.833   5.131   7.900  1.1124  1.9764  1.3969
  693MOL0     H91415   5.013   4.991   7.810  0.6476 -1.5946 -0.2616
  693MOL0     H91416   4.862   4.909   7.777 -1.8500  0.4560  0.9763
  693MOL0     H91417   4.888   4.778   7.983 -0.5895  2.4341  0.3210
  693MOL0     H91418   5.039   4.845   8.029  1.0450 -0.8266  0.5133
  693MOL0     H91419   4.965   4.661   7.801 -0.2448 -1.7571  0.6585
  693MOL0     H91420   5.113   4.762   7.779 -2.0703  1.8327 -1.0011
  693MOL0     H91421   5.121   4.513   7.871  0.6852  0.2370  1.5633
  693MOL0     H91422   5.065   4.575   8.029 -1.5055 -1.7936 -0.3986
  693MOL0     H91423   5.263   4.727   8.036  0.4019  0.5583  0.6580
  693MOL0     H91424   5.315   4.665   7.880 -0.8637  2.8558  1.0480
  693MOL0     H91425   5.351   4.457   7.973  0.0604 -0.9831  3.3705
  693MOL0     H91426   5.443   4.581   8.058 -0.9065  1.4740  4.4222
  693MOL0     H91427   5.184   4.449   8.172 -0.0014  3.1599  1.5164
  693MOL0     H91428   5.288   4.568   8.255  0.3590  0.7416  0.8586
  693MOL0     H91429   5.564   4.488   8.235 -1.2473  0.5163 -0.3934
  693MOL0     H91430   5.674   4.184   8.443 -0.7834 -1.0828 -0.8850
  693MOL0     H91431   5.731   4.346   8.373 -1.5553  0.7789  2.1825
  693MOL0     H91432   5.748   4.242   8.152  1.6293 -0.5964 -0.7409
  693MOL0     H91433   5.724   4.080   8.209  1.7850 -1.4996 -0.4132
  693MOL0     H91434   5.954   4.261   8.295 -0.7013  0.2820  1.9986
  693MOL0     H91435   5.912   4.124   8.397  2.4660  1.2697  0.7965
  693MOL0     H91436   5.927   4.048   8.105 -1.7622  0.9486  0.9273
  693MOL0     H91437   5.988   3.962   8.249  1.4962  0.0947  1.5918
  693MOL0     H91438   6.107   3.882   8.058  0.2763  1.3247 -0.3767
  693MOL0     H91439   6.298   3.765   7.958  3.4603 -0.2014 -0.4763
  693MOL0     H91440   6.660   3.918   7.665 -0.0951 -2.5403 -0.1408
  693MOL0     H91441   6.842   3.819   7.543  3.5612 -0.7969 -0.1743
  693MOL0     H91442   7.092   3.926   7.509  0.8635 -0.1531 -0.3752
  693MOL0     H91443   7.032   3.773   7.430  1.0203 -1.5915 -0.9050
  693MOL0     H91444   7.300   3.845   7.520  0.8474 -0.6032  0.5034
  693MOL0     H91445   7.241   3.868   7.360 -2.7223  1.2930 -0.0278
  693MOL0     H91446   7.207   3.622   7.316  2.6932 -1.4740 -0.3507
  693MOL0     H91447   7.246   3.579   7.481 -0.9067 -0.9750 -1.0221
  693MOL0     H91448   7.445   3.744   7.319  0.9065  0.2277  1.0545
  693MOL0     H91449   7.486   3.631   7.450 -0.8948 -3.4725  1.2551
  693MOL0     H91450   7.381   3.506   7.178 -1.1163  2.1022 -0.3185
  693MOL0     H91451   7.436   3.430   7.324 -1.9661  1.4175  1.2171
  693MOL0     H91452   7.608   3.435   7.136  1.8942 -0.7470  0.7827
  693MOL0     H91453   7.664   3.504   7.281 -0.1194  1.5948  0.7073
  693MOL0     H91454   7.561   3.659   7.034  3.1617  1.6134 -1.0447
  693MOL0     H91455   7.628   3.740   7.182  3.4835  2.3303 -2.1206
  693MOL0     H91456   7.852   3.642   7.131 -4.7585 -0.3811  4.7010
  693MOL0     H91457   7.786   3.722   6.994  1.4846  0.0307  0.4238
  693MOL0     H91458   7.082   3.803   7.900 -3.0852 -1.9905  2.1829
  693MOL0     H91459   6.895   3.900   8.027  1.7162  0.0861  0.2245
  693MOL0     H91460   6.526   4.133   8.056 -0.6495  1.1799 -2.4085
  693MOL0     H91461   6.340   4.221   8.153 -1.0768 -1.0270  1.7173
  693MOL0     H91462   4.806   5.207   8.141 -0.3562 -0.1714  0.7809
  693MOL0     H91463   4.662   5.352   8.270  0.9044 -0.6291 -0.6677
  693MOL0     H91464   4.014   5.333   8.370  3.8626 -2.4784  0.8470
  693MOL0     H91465   3.872   5.529   8.409  0.3221 -0.7575  1.5910
  693MOL0     H91466   4.054   5.921   8.489 -1.2840  1.8232  0.3180
  693MOL0     H91467   4.055   5.819   8.639  0.0222  0.0626  0.1737
  693MOL0     H91468   3.811   5.846   8.680  0.0278 -0.5797 -2.1681
  693MOL0     H91469   3.931   5.969   8.714  1.6393 -1.9577  0.4487
  693MOL0     H91470   3.871   6.085   8.505  0.5364  1.0158  1.7326
  693MOL0     H91471   3.739   6.074   8.627 -1.2561 -2.3253  0.9213
  693MOL0     H91472   3.768   5.952   8.352 -1.9754 -3.6194 -1.2994
  693MOL0     H91473   3.666   5.872   8.473 -3.4887  2.0190 -0.8636
  693MOL0     H91474   3.457   6.244   8.361  0.6692  0.4819 -1.2310
  693MOL0     H91475   4.235   5.774   8.426 -0.9127  0.8334  1.8425
  693MOL0     H91476   4.361   5.591   8.372  0.0027  0.4283 -0.0792
  694MOL0     O91477  11.159   7.894   4.913 -0.4651  0.5396 -0.5204
  694MOL0     C91478  11.246   7.931   4.993 -0.5532 -0.3833 -0.0026
  694MOL0     O91479  11.345   7.859   5.040 -1.2264  0.0674  0.0888
  694MOL0     C91480  11.368   7.728   4.996  0.7663 -0.6060 -0.7158
  694MOL0     C91481  11.475   7.711   4.904  0.8268 -0.6048 -0.5737
  694MOL0     C91482  11.503   7.583   4.860  0.2390  0.0563 -0.5482
  694MOL0     C91483  11.428   7.476   4.892  0.3366 -0.1371 -0.2814
  694MOL0     O91484  11.470   7.346   4.859  0.2117 -0.5302  0.0814
  694MOL0     C91485  11.406   7.235   4.914 -0.6000  0.8513  0.4131
  694MOL0     C91486  11.498   7.117   4.877  0.5339  0.4584  0.5400
  694MOL0     C91487  11.437   6.989   4.929 -0.9252  0.6578  0.6246
  694MOL0     C91488  11.487   6.965   5.074  0.1633  0.1872 -0.3485
  694MOL0     C91489  11.397   6.870   5.154 -0.3791  0.0161  0.1450
  694MOL0     C91490  11.406   6.900   5.306 -0.3105 -0.1474 -0.4482
  694MOL0     C91491  11.545   6.916   5.355  0.2473  0.0396 -0.5670
  694MOL0     C91492  11.552   6.899   5.505  0.4645  0.1058 -0.2368
  694MOL0     N91493  11.504   7.016   5.576 -0.6749  0.0916 -1.0263
  694MOL0     C91494  11.567   7.140   5.577  0.6890 -0.1516  1.4483
  694MOL0     C91495  11.519   7.202   5.679  0.1455  0.2119  0.6193
  694MOL0     C91496  11.568   7.343   5.716  0.5142 -0.0410 -0.5432
  694MOL0     C91497  11.450   7.435   5.752 -0.2304 -0.9235 -0.2082
  694MOL0     C91498  11.301   7.405   5.701  0.2717 -0.5879 -0.4454
  694MOL0     C91499  11.218   7.533   5.737 -0.9459 -0.5752 -0.5403
  694MOL0     O91500  11.077   7.527   5.711 -0.0716 -0.2632  0.1424
  694MOL0     C91501  10.989   7.630   5.743 -0.5438  0.5892  0.4317
  694MOL0     C91502  10.856   7.600   5.733 -0.1225  1.0029 -0.4236
  694MOL0     C91503  10.757   7.688   5.763  0.3344 -0.1080  0.4362
  694MOL0     C91504  10.788   7.824   5.797 -0.2099  0.0603 -0.5081
  694MOL0     C91505  10.682   7.920   5.819  0.3339  0.1551 -0.6091
  694MOL0     O91506  10.709   8.047   5.869 -0.4668  0.3031  1.0680
  694MOL0     C91507  10.616   8.145   5.848  0.9101 -0.4783  0.2687
  694MOL0     C91508  10.533   8.149   5.734 -0.4355 -0.1117  0.0860
  694MOL0     C91509  10.454   8.263   5.711  0.6325 -0.3145 -0.1857
  694MOL0     C91510  10.444   8.371   5.796 -0.0191 -0.3625  1.0188
  694MOL0     O91511  10.358   8.475   5.756 -0.2483  0.6268  0.1009
  694MOL0     C91512  10.383   8.604   5.808 -0.5167 -0.4024 -0.1584
  694MOL0     C91513  10.290   8.701   5.743  0.3480  0.0806 -0.8154
  694MOL0     C91514  10.140   8.670   5.770 -0.5791  0.9594  0.1223
  694MOL0     C91515  10.049   8.764   5.707 -0.1866 -0.4050 -0.5960
  694MOL0     C91516   9.903   8.737   5.734 -0.3375  1.0252  0.0683
  694MOL0     C91517   9.813   8.839   5.656  0.0337 -0.4038 -0.0867
  694MOL0     C91518   9.668   8.806   5.681  0.5488  0.8201  0.0557
  694MOL0     C91519   9.571   8.898   5.608  0.1536 -0.2332  0.7950
  694MOL0    Cl91520   9.607   8.883   5.429  0.0744  0.4657 -0.2425
  694MOL0     C91521  10.529   8.369   5.905  1.5748 -0.2296 -0.8886
  694MOL0     C91522  10.614   8.260   5.926 -0.5260 -0.4602 -0.1169
  694MOL0     O91523  10.569   7.881   5.792 -0.6610 -0.6771  0.2023
  694MOL0     C91524  10.924   7.854   5.810 -0.1819  0.1975 -0.1017
  694MOL0     C91525  11.028   7.764   5.777 -0.3562  0.9465 -0.3128
  694MOL0     N91526  11.425   7.116   5.744 -0.3437  0.5835 -0.1474
  694MOL0     N91527  11.422   7.005   5.689 -0.1967  0.5972  0.2506
  694MOL0     C91528  11.312   7.501   4.962  0.5780 -0.3070  0.6293
  694MOL0     C91529  11.284   7.622   5.026 -0.0321  0.3983 -0.5660
  694MOL0     C91530  11.256   8.065   5.040 -0.2233 -0.3317  1.2636
  694MOL0     C91531  11.156   8.156   5.019 -0.4070 -0.1409 -0.4442
  694MOL0     C91532  11.145   8.289   5.070 -1.4178 -0.5556  0.1173
  694MOL0     C91533  11.245   8.323   5.163 -0.3434  0.2431  0.1772
  694MOL0     O91534  11.219   8.439   5.234 -0.4758 -0.4398 -0.1394
  694MOL0     C91535  11.245   8.433   5.377  0.8644 -1.0405  0.6356
  694MOL0     C91536  11.386   8.496   5.420  0.1799 -0.1337  0.8474
  694MOL0     C91537  11.389   8.634   5.362 -0.0375 -0.1051  0.2086
  694MOL0     C91538  11.499   8.645   5.256 -0.8387  0.0528 -0.5215
  694MOL0     C91539  11.610   8.734   5.298  0.0142 -0.0563 -0.5993
  694MOL0     C91540  11.693   8.822   5.328  0.4901 -0.3032 -0.6606
  694MOL0     C91541  11.351   8.234   5.183 -0.0126 -0.2430  0.1236
  694MOL0     C91542  11.360   8.109   5.132 -0.6215 -0.4646  0.2680
  694MOL0     H91543  11.537   7.794   4.872  0.9564 -0.1962  0.6908
  694MOL0     H91544  11.582   7.552   4.792 -2.6794 -3.0958 -2.8545
  694MOL0     H91545  11.308   7.210   4.872 -0.7360  0.2645  1.0670
  694MOL0     H91546  11.392   7.239   5.022 -0.8966 -2.5329  0.6034
  694MOL0     H91547  11.598   7.139   4.914  0.9527 -0.6374  0.1082
  694MOL0     H91548  11.504   7.115   4.768  1.2365  0.9466  0.5684
  694MOL0     H91549  11.479   6.910   4.867  2.5672  1.0638  2.2623
  694MOL0     H91550  11.328   6.995   4.926 -1.1769 -2.5366 -2.1728
  694MOL0     H91551  11.590   6.928   5.079  0.2401  0.3632 -0.5994
  694MOL0     H91552  11.496   7.066   5.114  2.5044  1.3732 -3.4017
  694MOL0     H91553  11.427   6.768   5.128  1.4600  1.3332 -3.6502
  694MOL0     H91554  11.291   6.896   5.147 -0.7221 -0.7656  1.8776
  694MOL0     H91555  11.356   6.814   5.350  0.3708 -1.8477 -2.7879
  694MOL0     H91556  11.352   6.991   5.336  0.6384 -0.5784  2.9616
  694MOL0     H91557  11.600   6.841   5.298  0.1862  0.0103 -0.5879
  694MOL0     H91558  11.570   7.016   5.318 -4.7625  0.4229 -4.0207
  694MOL0     H91559  11.658   6.894   5.530  1.0344  1.1879 -2.2700
  694MOL0     H91560  11.490   6.819   5.546  1.6974  0.8870  3.6152
  694MOL0     H91561  11.638   7.170   5.501 -1.2910 -1.9758 -1.3069
  694MOL0     H91562  11.612   7.388   5.626  0.8292  0.9435  0.0860
  694MOL0     H91563  11.645   7.339   5.795  1.6187 -0.9956 -1.6136
  694MOL0     H91564  11.474   7.531   5.706  2.1846 -0.6037  1.5256
  694MOL0     H91565  11.450   7.455   5.860  5.8454  1.3633 -0.2300
  694MOL0     H91566  11.308   7.374   5.596  0.0315 -3.1057  0.2017
  694MOL0     H91567  11.253   7.316   5.744 -5.0935  1.4010 -1.5356
  694MOL0     H91568  11.262   7.618   5.683 -1.4144 -0.0174 -0.0626
  694MOL0     H91569  11.236   7.555   5.842  0.7019 -1.2791 -0.6506
  694MOL0     H91570  10.836   7.495   5.714  2.3139  0.4274 -0.2091
  694MOL0     H91571  10.656   7.652   5.747  1.5458 -3.0301 -1.6842
  694MOL0     H91572  10.547   8.067   5.664  3.4444 -0.0833  0.6351
  694MOL0     H91573  10.407   8.277   5.613  0.0924  0.1999  0.1409
  694MOL0     H91574  10.490   8.625   5.793  0.2517 -4.7017 -2.1106
  694MOL0     H91575  10.362   8.605   5.915  1.1381  0.0653  0.1897
  694MOL0     H91576  10.319   8.707   5.638 -0.3946  2.1343 -0.9492
  694MOL0     H91577  10.305   8.805   5.771  0.3220  0.7358 -3.0403
  694MOL0     H91578  10.123   8.661   5.878  0.7508  0.1929  0.3044
  694MOL0     H91579  10.112   8.572   5.731 -0.0877  0.7401  0.2993
  694MOL0     H91580  10.081   8.861   5.747  0.4263 -0.2523 -1.4076
  694MOL0     H91581  10.078   8.772   5.602  0.8370 -0.6304 -0.3466
  694MOL0     H91582   9.888   8.752   5.842 -1.0185 -2.2444  0.5123
  694MOL0     H91583   9.877   8.633   5.712 -0.4828  0.4730  2.5836
  694MOL0     H91584   9.849   8.825   5.554 -2.6607 -4.5513 -0.7108
  694MOL0     H91585   9.829   8.942   5.690  1.9842  0.3270 -2.8824
  694MOL0     H91586   9.652   8.703   5.648  1.9902  0.6964 -0.3241
  694MOL0     H91587   9.647   8.815   5.788  1.2406  0.0274  0.2706
  694MOL0     H91588   9.588   9.003   5.631 -1.2812  0.4831 -1.1473
  694MOL0     H91589   9.468   8.867   5.628  0.6952 -2.4637  0.4556
  694MOL0     H91590  10.526   8.446   5.982 -1.8250 -0.5893 -0.5140
  694MOL0     H91591  10.682   8.263   6.011 -0.2067 -0.9621 -0.3516
  694MOL0     H91592  10.965   7.950   5.837 -1.1191 -0.0920  2.7260
  694MOL0     H91593  11.128   7.806   5.782 -0.5079  1.3565 -0.6672
  694MOL0     H91594  11.242   7.421   4.983 -1.6313  1.5769  0.8460
  694MOL0     H91595  11.192   7.631   5.082  0.1445 -1.4975  0.0831
  694MOL0     H91596  11.076   8.119   4.955 -1.2804  0.8576  0.0331
  694MOL0     H91597  11.066   8.357   5.040  0.5804  2.0633  0.4727
  694MOL0     H91598  11.256   8.329   5.410  1.0996 -1.6798 -1.3175
  694MOL0     H91599  11.168   8.484   5.435  1.2125 -0.0455  0.2558
  694MOL0     H91600  11.410   8.487   5.526  0.6190  0.2778  0.7858
  694MOL0     H91601  11.468   8.436   5.378  0.1366  1.5303 -1.8364
  694MOL0     H91602  11.406   8.703   5.445  1.8882 -1.0287  0.6328
  694MOL0     H91603  11.295   8.656   5.309  0.6112  3.5350  0.3487
  694MOL0     H91604  11.528   8.546   5.217 -0.9196 -0.0665 -0.2849
  694MOL0     H91605  11.453   8.694   5.171 -0.7862  2.2471  0.6424
  694MOL0     H91606  11.765   8.894   5.362  0.0769 -0.6529  1.0391
  694MOL0     H91607  11.429   8.269   5.250 -1.4499  3.6906  0.0453
  694MOL0     H91608  11.447   8.047   5.153  1.5933  2.5237  0.5723
  695MOL0     O91609   0.475  10.885   9.318 -0.1544 -0.2565  0.9194
  695MOL0     C91610   0.481  10.897   9.437 -0.1587 -0.2010  0.6197
  695MOL0     O91611   0.595  10.908   9.514  0.4116  0.2071 -0.0791
  695MOL0     C91612   0.721  10.939   9.473  0.9582  1.1424 -0.1295
  695MOL0     C91613   0.748  10.991   9.351  0.7115 -0.0383  0.2821
  695MOL0     C91614   0.885  11.019   9.326 -0.5971 -1.3298  0.2219
  695MOL0     C91615   0.991  10.993   9.411  0.0901  0.6561  0.0826
  695MOL0     O91616   1.115  11.037   9.371 -0.4511 -0.4971 -0.3498
  695MOL0     C91617   1.231  10.992   9.426  0.6632  0.4483 -1.1325
  695MOL0     C91618   1.350  11.086   9.374  0.3169  0.4836 -0.2891
  695MOL0     C91619   1.360  11.073   9.223  0.4346 -0.7213 -0.5975
  695MOL0     C91620   1.484  11.138   9.179 -0.2629  0.1980 -0.6918
  695MOL0     C91621   1.501  11.140   9.025  0.0461 -0.0306  0.1412
  695MOL0     C91622   1.641  11.195   9.002  0.1636  0.3684 -0.1466
  695MOL0     C91623   1.658  11.206   8.852 -0.5644  0.3584  0.0745
  695MOL0     C91624   1.815  11.231   8.815  0.3147 -0.0618 -0.7736
  695MOL0     N91625   1.855  11.360   8.878  0.2832 -1.0704  0.0319
  695MOL0     C91626   1.802  11.485   8.837  0.1985  0.2079 -0.3674
  695MOL0     C91627   1.847  11.567   8.940  0.2106 -1.3606 -0.0215
  695MOL0     C91628   1.816  11.719   8.939 -0.5506 -0.0060 -0.4501
  695MOL0     C91629   1.667  11.755   8.965 -0.7074 -0.7971  0.4845
  695MOL0     C91630   1.596  11.691   9.083 -0.4088  0.0730 -0.0063
  695MOL0     C91631   1.455  11.732   9.099  1.2123 -0.0890 -0.4200
  695MOL0     O91632   1.380  11.717   8.973  0.7805 -0.3435  0.1435
  695MOL0     C91633   1.280  11.615   8.980 -0.9595  0.5621  0.0576
  695MOL0     C91634   1.171  11.631   8.890  0.2320  0.2629 -0.1052
  695MOL0     C91635   1.062  11.539   8.875  0.2665 -0.1491 -0.1420
  695MOL0     C91636   1.066  11.421   8.955 -0.5562 -0.7304 -0.3576
  695MOL0     C91637   0.957  11.321   8.941 -1.1554 -0.3385  0.3693
  695MOL0     O91638   0.853  11.340   8.850  0.8796  0.7334  0.4156
  695MOL0     C91639   0.760  11.233   8.836 -0.7203  0.2356  0.0996
  695MOL0     C91640   0.674  11.182   8.936  0.1492  0.0380  0.7189
  695MOL0     C91641   0.583  11.086   8.909  0.0064  0.6194  0.3620
  695MOL0     C91642   0.588  11.011   8.792 -0.0256  0.2746  0.0856
  695MOL0     O91643   0.505  10.903   8.757  0.1596  0.0683  0.2443
  695MOL0     C91644   0.407  10.866   8.862 -0.7747 -0.4670  0.5537
  695MOL0     C91645   0.300  10.765   8.818 -0.4506 -0.4988 -0.8131
  695MOL0     C91646   0.153  10.808   8.817 -0.0994 -0.0027  0.3909
  695MOL0     C91647   0.056  10.701   8.770  1.1601 -0.0608 -0.2994
  695MOL0     C91648  -0.087  10.730   8.797  0.7837  0.1296 -0.9763
  695MOL0     C91649  -0.176  10.640   8.702 -0.8046 -0.2588 -0.1740
  695MOL0     C91650  -0.313  10.673   8.746 -0.4417  0.0175  0.6758
  695MOL0     C91651  -0.411  10.577   8.691 -0.1775  0.2519  0.6656
  695MOL0    Cl91652  -0.381  10.412   8.762  0.4065  0.3295  0.2025
  695MOL0     C91653   0.675  11.054   8.694  0.1219  0.0586  0.3658
  695MOL0     C91654   0.764  11.160   8.715  0.2437 -0.8699  0.4498
  695MOL0     O91655   0.980  11.216   8.998  0.1952  0.1072 -0.7074
  695MOL0     C91656   1.171  11.399   9.047 -0.2726 -0.7489 -0.2853
  695MOL0     C91657   1.271  11.497   9.061 -0.5846 -0.2549  0.4225
  695MOL0     N91658   1.925  11.500   9.033  0.2102  0.3160 -0.3582
  695MOL0     N91659   1.918  11.369   8.998  0.1693 -0.2171  0.3567
  695MOL0     C91660   0.964  10.930   9.534  1.0186 -0.9559  0.0179
  695MOL0     C91661   0.826  10.911   9.560 -0.0390  0.1241 -0.9178
  695MOL0     C91662   0.356  10.877   9.509 -0.8899 -0.1366 -0.2752
  695MOL0     C91663   0.357  10.906   9.651  0.2830  0.6292  0.5006
  695MOL0     C91664   0.238  10.902   9.723  0.2900 -0.4483 -0.2627
  695MOL0     C91665   0.119  10.863   9.663  0.2968  0.7500 -0.1275
  695MOL0     O91666  -0.001  10.837   9.733 -0.0972 -0.0541  0.6377
  695MOL0     C91667  -0.000  10.837   9.870 -0.2541 -0.1583  0.0428
  695MOL0     C91668  -0.147  10.813   9.917 -0.2554  0.6076  0.2720
  695MOL0     C91669  -0.220  10.948   9.929 -0.5422 -0.0251  0.5056
  695MOL0     C91670  -0.270  10.980   9.787  0.2886  1.3440 -0.3016
  695MOL0     C91671  -0.339  11.106   9.781  0.9735 -0.5032  0.2911
  695MOL0     C91672  -0.400  11.217   9.773  0.4668  0.3568 -0.1781
  695MOL0     C91673   0.115  10.824   9.535  1.2151  0.0333 -0.0919
  695MOL0     C91674   0.234  10.847   9.458 -0.5645  0.6642  0.5719
  695MOL0     H91675   0.675  11.016   9.275  0.2714 -0.5884  0.5138
  695MOL0     H91676   0.910  11.067   9.232 -1.8864  1.3052  1.1505
  695MOL0     H91677   1.244  10.889   9.394 -1.5126 -0.2139 -0.1105
  695MOL0     H91678   1.225  11.000   9.535 -0.4652 -1.4885 -1.0025
  695MOL0     H91679   1.442  11.050   9.420 -0.2445  0.8547  1.1761
  695MOL0     H91680   1.339  11.191   9.401  0.2408 -0.2929  3.1815
  695MOL0     H91681   1.275  11.123   9.174  0.1857  0.9696  1.4185
  695MOL0     H91682   1.370  10.966   9.203  4.6365 -0.3800 -1.1737
  695MOL0     H91683   1.488  11.240   9.220 -0.3894 -0.5544  1.3194
  695MOL0     H91684   1.571  11.084   9.217 -0.9995 -0.3203  0.3066
  695MOL0     H91685   1.423  11.207   8.987  0.4668  0.5190  0.2472
  695MOL0     H91686   1.489  11.042   8.977 -1.3057  0.0374  0.3031
  695MOL0     H91687   1.723  11.134   9.041  0.7669 -1.1736 -3.4788
  695MOL0     H91688   1.657  11.297   9.038  3.7429  0.8494 -2.5843
  695MOL0     H91689   1.628  11.119   8.792  0.2546  1.0117 -1.3460
  695MOL0     H91690   1.611  11.299   8.823 -1.2319 -0.5151 -1.8080
  695MOL0     H91691   1.810  11.242   8.706 -0.3445  4.3200 -0.4761
  695MOL0     H91692   1.887  11.156   8.848  0.5964 -0.0560 -1.3577
  695MOL0     H91693   1.771  11.512   8.737 -1.8674 -0.0461  0.1674
  695MOL0     H91694   1.849  11.765   8.845  2.3449 -2.2355 -0.6799
  695MOL0     H91695   1.875  11.776   9.012 -0.1747  0.1885 -0.8985
  695MOL0     H91696   1.608  11.731   8.876  1.5535  2.5246 -2.1499
  695MOL0     H91697   1.669  11.863   8.982  2.2436 -0.6803 -0.0171
  695MOL0     H91698   1.603  11.582   9.077  1.8481  0.2503 -1.5699
  695MOL0     H91699   1.640  11.723   9.177 -0.3102 -3.8782  1.5101
  695MOL0     H91700   1.461  11.840   9.118  1.8443 -0.2747  0.5054
  695MOL0     H91701   1.409  11.684   9.186 -0.5143 -1.4169 -1.9975
  695MOL0     H91702   1.170  11.726   8.837  2.3116  0.9576  1.0129
  695MOL0     H91703   0.999  11.568   8.792  1.5145  0.6797 -0.8362
  695MOL0     H91704   0.671  11.227   9.034 -0.7217 -1.4275  1.3914
  695MOL0     H91705   0.515  11.052   8.986  1.9704 -2.4410  0.9331
  695MOL0     H91706   0.355  10.960   8.882  0.3270  0.8738 -2.2499
  695MOL0     H91707   0.468  10.831   8.946  2.5324 -0.9738 -1.8351
  695MOL0     H91708   0.307  10.683   8.890  3.6274  0.1668 -0.2125
  695MOL0     H91709   0.331  10.712   8.727  0.9698  0.2716 -0.8043
  695MOL0     H91710   0.137  10.888   8.743 -0.3208 -0.3837  0.0259
  695MOL0     H91711   0.124  10.852   8.913  1.3230  1.2983  0.2734
  695MOL0     H91712   0.070  10.686   8.662  2.2585  1.0045 -0.3149
  695MOL0     H91713   0.068  10.603   8.818  0.7034  1.1287  2.4234
  695MOL0     H91714  -0.114  10.833   8.773 -1.9212 -0.0587  0.8273
  695MOL0     H91715  -0.113  10.708   8.901 -4.7629 -6.1241 -2.9237
  695MOL0     H91716  -0.158  10.533   8.718 -1.7492 -0.4084 -0.1061
  695MOL0     H91717  -0.159  10.656   8.595 -0.4470 -2.0742 -0.4255
  695MOL0     H91718  -0.326  10.675   8.855  1.7183 -0.9179  1.0067
  695MOL0     H91719  -0.333  10.770   8.701  1.4364 -1.1378 -3.0903
  695MOL0     H91720  -0.398  10.558   8.584 -2.4704 -0.6569  0.4937
  695MOL0     H91721  -0.516  10.606   8.702 -1.4966 -2.8095 -2.0257
  695MOL0     H91722   0.677  11.000   8.599 -0.8156  1.0278 -0.2328
  695MOL0     H91723   0.828  11.186   8.631 -0.7152 -0.6813 -0.2334
  695MOL0     H91724   1.185  11.313   9.112 -0.3089 -1.0854 -0.7204
  695MOL0     H91725   1.352  11.467   9.126 -1.6137 -3.0416  0.5588
  695MOL0     H91726   1.030  10.916   9.619  0.5242  0.0171  0.5871
  695MOL0     H91727   0.817  10.864   9.657  2.7635 -2.0910 -1.5675
  695MOL0     H91728   0.447  10.933   9.705  0.1142 -0.5961  1.4357
  695MOL0     H91729   0.255  10.916   9.830  0.1498 -1.8499 -0.0459
  695MOL0     H91730   0.052  10.920   9.917 -0.0028 -0.5956  0.5489
  695MOL0     H91731   0.054  10.747   9.900 -0.4461 -0.2139  0.2290
  695MOL0     H91732  -0.200  10.741   9.855  0.0792 -0.8217  1.5830
  695MOL0     H91733  -0.132  10.776  10.019  2.8993  2.6312  0.6845
  695MOL0     H91734  -0.162  11.023   9.984  1.0274 -0.1627 -0.8927
  695MOL0     H91735  -0.306  10.930   9.994  1.6450 -0.3803  3.5552
  695MOL0     H91736  -0.179  10.982   9.727  0.3392 -0.3793 -0.3196
  695MOL0     H91737  -0.346  10.907   9.758  1.3848  0.9499 -2.3402
  695MOL0     H91738  -0.456  11.303   9.741  2.0728  0.4253 -3.1419
  695MOL0     H91739   0.018  10.796   9.496  1.8539 -3.8549  0.7472
  695MOL0     H91740   0.238  10.818   9.354 -0.7004 -0.6995  0.9302
  696MOL0     O91741   5.380  10.345   0.109 -1.4887  0.8438 -0.0506
  696MOL0     C91742   5.453  10.445   0.112  0.0944 -0.8918 -0.4702
  696MOL0     O91743   5.425  10.562   0.164 -0.5407 -0.5065 -0.1197
  696MOL0     C91744   5.303  10.580   0.226  0.3495 -0.4617 -0.1016
  696MOL0     C91745   5.310  10.633   0.347  0.0605 -1.6095  0.0617
  696MOL0     C91746   5.204  10.670   0.413 -0.4741  0.2957  0.2386
  696MOL0     C91747   5.069  10.653   0.366 -0.9270 -0.6729  0.1602
  696MOL0     O91748   4.971  10.701   0.452  0.8533 -0.2404 -0.4943
  696MOL0     C91749   4.830  10.677   0.419 -1.0640 -0.0869 -0.0068
  696MOL0     C91750   4.744  10.769   0.505 -0.9742 -0.0814  0.3860
  696MOL0     C91751   4.777  10.763   0.659  0.4508  0.2774  0.8028
  696MOL0     C91752   4.898  10.842   0.708  0.3490 -0.1703 -0.6756
  696MOL0     C91753   4.872  10.916   0.838  0.7744  0.6424 -0.2080
  696MOL0     C91754   4.971  11.030   0.865 -0.0379  1.0537  0.5319
  696MOL0     C91755   4.965  11.095   1.006  0.4893 -0.2584 -0.3676
  696MOL0     C91756   4.838  11.182   1.030  0.0871  0.6308  1.0094
  696MOL0     N91757   4.859  11.268   1.141  0.0150 -0.1750  0.5904
  696MOL0     C91758   4.802  11.256   1.255 -0.2865 -1.0492 -0.3602
  696MOL0     C91759   4.868  11.358   1.328 -0.0649 -0.4332 -0.5281
  696MOL0     C91760   4.857  11.396   1.476 -0.0881 -0.1793  0.5758
  696MOL0     C91761   4.711  11.420   1.501  0.3176  0.2534  0.1164
  696MOL0     C91762   4.677  11.461   1.646 -0.2968  0.3221  0.2275
  696MOL0     C91763   4.678  11.343   1.748  0.2264  0.9582  0.6924
  696MOL0     O91764   4.593  11.232   1.699 -0.3144 -0.7002  0.0809
  696MOL0     C91765   4.558  11.132   1.784 -0.2633 -0.1125  0.6759
  696MOL0     C91766   4.607  11.116   1.914  0.7502 -0.0931  0.1180
  696MOL0     C91767   4.553  11.013   1.996 -0.3609 -0.3465  0.9032
  696MOL0     C91768   4.457  10.925   1.939  0.1177 -0.3562 -0.1947
  696MOL0     C91769   4.382  10.821   2.015 -1.1372 -0.5936 -0.0444
  696MOL0     O91770   4.263  10.771   1.968 -0.1115 -0.3516 -0.1417
  696MOL0     C91771   4.187  10.685   2.045 -0.6527  0.2240 -0.5273
  696MOL0     C91772   4.207  10.548   2.065 -1.5120 -0.1539 -0.4224
  696MOL0     C91773   4.129  10.464   2.146  0.1142 -0.7794  0.3366
  696MOL0     C91774   4.001  10.520   2.180 -0.2927  0.6877 -0.1113
  696MOL0     O91775   3.906  10.443   2.238 -0.1297 -0.1035  0.5140
  696MOL0     C91776   3.940  10.350   2.342  0.1419  0.8782 -0.2835
  696MOL0     C91777   3.813  10.308   2.407  1.3066  0.1611 -0.3103
  696MOL0     C91778   3.825  10.196   2.510 -0.3746  1.0074 -0.9377
  696MOL0     C91779   3.697  10.120   2.547  0.4116 -0.6627  0.8210
  696MOL0     C91780   3.584  10.219   2.599 -0.3725  0.0278 -0.2188
  696MOL0     C91781   3.456  10.152   2.647 -0.3481 -0.3297 -0.0063
  696MOL0     C91782   3.482  10.058   2.770 -0.2947  0.1692 -0.0080
  696MOL0     C91783   3.505   9.910   2.725  0.4532 -0.3902 -0.7676
  696MOL0    Cl91784   3.626   9.821   2.836  0.4447 -0.3614 -0.2748
  696MOL0     C91785   3.980  10.659   2.157  0.0274 -0.3000 -0.5849
  696MOL0     C91786   4.073  10.741   2.097 -0.0238 -1.1590 -0.0726
  696MOL0     O91787   4.421  10.813   2.129  0.2605 -0.2321 -0.4622
  696MOL0     C91788   4.413  10.943   1.813 -0.4764 -0.2327  0.2929
  696MOL0     C91789   4.465  11.042   1.731 -0.6534  0.2947  0.5701
  696MOL0     N91790   4.959  11.429   1.252  1.1434  0.1560  0.4071
  696MOL0     N91791   4.957  11.367   1.133  0.0035  0.2002  0.5770
  696MOL0     C91792   5.057  10.581   0.249  0.0156  0.0604  0.0112
  696MOL0     C91793   5.176  10.551   0.172  0.3340  0.2082  0.4671
  696MOL0     C91794   5.590  10.422   0.067 -0.4824  0.0955 -0.1909
  696MOL0     C91795   5.647  10.292   0.069 -0.2244 -0.0607  0.2981
  696MOL0     C91796   5.784  10.264   0.038  0.1129  0.0666 -0.3232
  696MOL0     C91797   5.869  10.370   0.002  0.3918  1.2678  1.5262
  696MOL0     O91798   5.999  10.343  -0.039 -0.3471 -0.6070 -0.0940
  696MOL0     C91799   6.105  10.443  -0.014 -0.3392  0.4501  0.6152
  696MOL0     C91800   6.237  10.379   0.006  0.2662  0.6761 -0.0146
  696MOL0     C91801   6.306  10.329  -0.128  0.9098 -0.6441 -0.2412
  696MOL0     C91802   6.432  10.262  -0.100  0.3597  1.2356 -0.2474
  696MOL0     C91803   6.488  10.204  -0.226  0.6067 -0.5913  0.1615
  696MOL0     C91804   6.528  10.158  -0.333 -0.2173  0.3731 -0.5021
  696MOL0     C91805   5.814  10.499   0.000  0.0430  0.0930 -0.1347
  696MOL0     C91806   5.680  10.524   0.029  1.1247 -0.4670 -1.1786
  696MOL0     H91807   5.401  10.663   0.398 -0.8249 -1.0214  1.3321
  696MOL0     H91808   5.218  10.721   0.508 -1.0865  5.0376 -1.9308
  696MOL0     H91809   4.809  10.575   0.452  0.5934 -0.5722 -0.3535
  696MOL0     H91810   4.804  10.695   0.314  2.1178  1.7066 -0.6209
  696MOL0     H91811   4.640  10.734   0.502 -1.1165  0.4154 -1.3171
  696MOL0     H91812   4.754  10.870   0.466  2.7570 -0.5277 -0.1713
  696MOL0     H91813   4.788  10.659   0.691 -1.1533 -0.1463  0.0660
  696MOL0     H91814   4.691  10.811   0.707  2.2794  4.1897  0.6228
  696MOL0     H91815   4.992  10.785   0.712  1.3744  1.4910  0.2644
  696MOL0     H91816   4.923  10.920   0.636  3.7846 -0.1386  0.3389
  696MOL0     H91817   4.889  10.841   0.916 -1.3661  0.0860 -0.1953
  696MOL0     H91818   4.770  10.955   0.833  0.3449 -0.4485 -0.3138
  696MOL0     H91819   4.959  11.108   0.790  0.2277  2.2695  1.7044
  696MOL0     H91820   5.072  10.988   0.864 -1.5116 -2.9125  0.2469
  696MOL0     H91821   4.976  11.022   1.087  0.3796  0.7012  0.5360
  696MOL0     H91822   5.047  11.162   1.034 -1.4184  2.1831 -0.2684
  696MOL0     H91823   4.748  11.121   1.026  2.0513 -2.3847 -0.5269
  696MOL0     H91824   4.832  11.246   0.941 -2.8725 -0.9344 -0.0280
  696MOL0     H91825   4.726  11.184   1.283 -2.5598  0.9969 -0.9363
  696MOL0     H91826   4.911  11.488   1.501  0.3255 -0.5250  0.9739
  696MOL0     H91827   4.894  11.312   1.535  1.0466 -0.9716 -1.1907
  696MOL0     H91828   4.657  11.329   1.473  0.3483  0.0378  0.7345
  696MOL0     H91829   4.666  11.501   1.444 -1.9909 -1.4071 -0.5865
  696MOL0     H91830   4.756  11.528   1.681  1.5387 -2.5325  1.9260
  696MOL0     H91831   4.583  11.518   1.655 -0.9022 -0.3747 -1.3664
  696MOL0     H91832   4.653  11.364   1.853 -3.1543 -1.5684  0.5277
  696MOL0     H91833   4.782  11.310   1.749  0.0533  0.2936  2.8934
  696MOL0     H91834   4.672  11.177   1.975  1.6050 -0.6148 -0.2524
  696MOL0     H91835   4.578  11.005   2.101 -0.5421 -2.1958  0.8352
  696MOL0     H91836   4.300  10.506   2.029  0.1239 -0.1214  3.3127
  696MOL0     H91837   4.158  10.361   2.160  0.6832 -1.0351 -2.2883
  696MOL0     H91838   4.014  10.390   2.412  2.2948 -2.7859 -0.1748
  696MOL0     H91839   3.993  10.264   2.299 -0.8499  0.2698 -0.3272
  696MOL0     H91840   3.752  10.282   2.320  0.1687  1.9464 -0.0795
  696MOL0     H91841   3.756  10.385   2.458  2.4164 -0.7679  2.5782
  696MOL0     H91842   3.875  10.240   2.597  1.0437  2.1726 -2.2715
  696MOL0     H91843   3.892  10.115   2.479 -0.2059 -0.6038  3.0637
  696MOL0     H91844   3.671  10.056   2.463  1.4431  0.8810 -0.7538
  696MOL0     H91845   3.735  10.050   2.622  2.0829 -0.8460 -0.1445
  696MOL0     H91846   3.554  10.297   2.528 -0.5390 -0.5588 -0.8088
  696MOL0     H91847   3.628  10.270   2.684 -3.3118  0.0631  1.4157
  696MOL0     H91848   3.419  10.094   2.562  1.1967 -0.8427 -0.3614
  696MOL0     H91849   3.389  10.232   2.681 -1.5159 -2.0201  1.8789
  696MOL0     H91850   3.563  10.085   2.839 -0.7944  0.6884  0.3920
  696MOL0     H91851   3.395  10.051   2.837 -2.1133 -1.3097 -2.3852
  696MOL0     H91852   3.552   9.910   2.626 -1.4436 -0.2190 -1.7119
  696MOL0     H91853   3.413   9.857   2.701 -1.0802  2.5879 -2.0357
  696MOL0     H91854   3.893  10.702   2.204 -1.4291 -0.4734 -2.9584
  696MOL0     H91855   4.061  10.849   2.094  0.6004 -1.0652  0.5733
  696MOL0     H91856   4.336  10.878   1.772 -0.2750  0.2209 -0.8459
  696MOL0     H91857   4.426  11.057   1.630  1.0408 -3.3971 -0.7935
  696MOL0     H91858   4.960  10.540   0.222  0.3536 -0.4444 -0.4663
  696MOL0     H91859   5.185  10.479   0.091 -2.9988  0.4079 -0.2052
  696MOL0     H91860   5.583  10.208   0.094 -0.6122  0.5157  1.2691
  696MOL0     H91861   5.821  10.164   0.019  0.7955  0.0547  0.9708
  696MOL0     H91862   6.078  10.482   0.085  3.1700 -0.2551  1.9886
  696MOL0     H91863   6.116  10.516  -0.095  0.6168  0.7180  0.9769
  696MOL0     H91864   6.300  10.453   0.055  2.0136 -0.0199 -1.1242
  696MOL0     H91865   6.222  10.293   0.072  0.7833  1.4240  1.0933
  696MOL0     H91866   6.335  10.401  -0.204  4.2406 -0.3758  1.1102
  696MOL0     H91867   6.241  10.263  -0.187  0.8369 -0.2298 -0.6309
  696MOL0     H91868   6.505  10.330  -0.056  1.1819  0.1989  0.0198
  696MOL0     H91869   6.424  10.177  -0.032 -0.8813  2.3160  1.0324
  696MOL0     H91870   6.578  10.125  -0.422  1.8652  0.6461  0.5093
  696MOL0     H91871   5.865  10.589  -0.033 -4.1601  2.5140 -0.6161
  696MOL0     H91872   5.629  10.620   0.028 -2.1073 -2.0316 -0.9954
  697MOL0     O91873   9.722   7.411  10.640 -0.8670 -0.1513  0.2498
  697MOL0     C91874   9.817   7.394  10.716  0.2651 -0.3542  0.2985
  697MOL0     O91875   9.829   7.312  10.824 -0.7013  0.0311  0.1638
  697MOL0     C91876   9.755   7.196  10.843  0.0798  0.4627  0.4095
  697MOL0     C91877   9.657   7.151  10.757 -0.2813  0.3754 -0.5048
  697MOL0     C91878   9.563   7.048  10.793 -0.0743 -0.5659 -0.5237
  697MOL0     C91879   9.568   7.002  10.920  0.2943  0.1119 -0.7638
  697MOL0     O91880   9.483   6.898  10.959 -0.5968  0.0480  0.2316
  697MOL0     C91881   9.480   6.843  11.088  0.5095 -0.3323  0.5239
  697MOL0     C91882   9.388   6.734  11.084  0.4246  0.3461  0.6173
  697MOL0     C91883   9.262   6.743  10.990 -0.5238 -0.3099  0.2565
  697MOL0     C91884   9.198   6.602  10.981  0.5413 -0.8328 -0.9735
  697MOL0     C91885   9.049   6.610  10.961  0.7442  0.7452  0.4403
  697MOL0     C91886   8.980   6.630  11.098  0.3334  0.2536 -0.5132
  697MOL0     C91887   8.833   6.582  11.124 -0.7794  0.2590  0.5048
  697MOL0     C91888   8.743   6.630  11.014  0.4639 -0.2981  0.3833
  697MOL0     N91889   8.603   6.577  11.017  0.3466 -0.0910  0.1753
  697MOL0     C91890   8.494   6.642  11.071 -0.4024  0.6368  0.2730
  697MOL0     C91891   8.393   6.561  11.040  0.4198  0.0391 -0.2365
  697MOL0     C91892   8.248   6.604  11.076  0.6950  0.6163 -0.7327
  697MOL0     C91893   8.187   6.509  11.186  0.7540  0.6724  0.1359
  697MOL0     C91894   8.144   6.364  11.140  0.2168 -0.1077 -0.3444
  697MOL0     C91895   8.057   6.291  11.240 -0.3656  0.5575 -0.8271
  697MOL0     O91896   8.127   6.269  11.358  0.0537 -0.0530 -0.2295
  697MOL0     C91897   8.075   6.180  11.451 -0.4063  0.2209  0.2998
  697MOL0     C91898   8.139   6.183  11.578 -0.2325 -0.0613 -0.4466
  697MOL0     C91899   8.118   6.097  11.676  0.5791  0.4137  0.0746
  697MOL0     C91900   8.006   6.006  11.665 -0.5310 -0.7667  0.4557
  697MOL0     C91901   7.996   5.919  11.773  0.7095 -0.9010 -0.7525
  697MOL0     O91902   8.036   5.968  11.897  0.0774 -0.2276 -0.6373
  697MOL0     C91903   8.074   5.887  11.996  0.4021 -0.2293 -0.4924
  697MOL0     C91904   8.034   5.915  12.129 -1.0380  0.2802  0.3388
  697MOL0     C91905   8.084   5.841  12.236  0.6770  0.0168 -0.9000
  697MOL0     C91906   8.185   5.744  12.218 -0.8076  0.3764  0.9699
  697MOL0     O91907   8.232   5.680  12.326  0.0770  0.7281  0.6602
  697MOL0     C91908   8.310   5.555  12.315  0.3300  0.1954  0.2653
  697MOL0     C91909   8.303   5.490  12.446 -0.2999 -0.8246  0.6179
  697MOL0     C91910   8.166   5.443  12.485  0.6158 -0.2694 -0.3558
  697MOL0     C91911   8.081   5.557  12.542 -0.0277  0.4701 -0.5464
  697MOL0     C91912   7.992   5.518  12.668 -0.0673 -0.8359  0.7117
  697MOL0     C91913   7.921   5.643  12.737 -0.4085 -0.1742  0.3486
  697MOL0     C91914   7.833   5.578  12.851  0.4928 -0.7531 -0.5251
  697MOL0     C91915   7.715   5.686  12.875  0.2875 -0.2317  0.6989
  697MOL0    Cl91916   7.794   5.849  12.906 -0.1158 -0.2958 -0.0150
  697MOL0     C91917   8.222   5.714  12.081 -0.0208 -0.2365 -0.3160
  697MOL0     C91918   8.166   5.786  11.972  0.1383 -0.1226  0.3404
  697MOL0     O91919   7.954   5.810  11.753  0.0218  0.8188 -0.4290
  697MOL0     C91920   7.940   5.995  11.536 -0.0812 -0.0615 -0.0667
  697MOL0     C91921   7.963   6.093  11.436 -0.3851  0.0234  0.4658
  697MOL0     N91922   8.436   6.448  10.983 -0.2547 -0.0718  0.9280
  697MOL0     N91923   8.567   6.457  10.965  0.5709 -0.0783 -0.5692
  697MOL0     C91924   9.668   7.043  11.013  0.1514  0.3188 -0.1781
  697MOL0     C91925   9.758   7.149  10.972  0.5738  0.4065 -0.0333
  697MOL0     C91926   9.931   7.499  10.691  0.0791  0.6462 -0.8552
  697MOL0     C91927  10.052   7.474  10.757  0.6689  0.5370  0.3203
  697MOL0     C91928  10.159   7.566  10.740 -0.4295  0.2304 -0.4651
  697MOL0     C91929  10.135   7.679  10.659 -0.8562 -0.1444  0.7151
  697MOL0     O91930  10.244   7.766  10.660  0.2671 -0.2330 -0.2432
  697MOL0     C91931  10.269   7.871  10.565  1.0726 -0.2631 -0.4966
  697MOL0     C91932  10.287   7.801  10.428  0.6117  0.5161 -0.3343
  697MOL0     C91933  10.317   7.898  10.312  0.2254  0.1746 -0.1963
  697MOL0     C91934  10.341   7.812  10.191 -0.6346 -0.0148  0.0372
  697MOL0     C91935  10.398   7.897  10.089  0.9607 -0.1051  0.3180
  697MOL0     C91936  10.461   7.971  10.016  0.3033 -0.1636  0.3009
  697MOL0     C91937  10.015   7.695  10.584 -0.6486  0.5872 -0.4231
  697MOL0     C91938   9.916   7.605  10.602  0.0813  0.2471 -0.4295
  697MOL0     H91939   9.639   7.199  10.662  0.5174  0.1815 -0.7605
  697MOL0     H91940   9.487   7.005  10.730  0.2063 -1.6909 -0.1106
  697MOL0     H91941   9.453   6.918  11.163 -0.7921  1.1817 -1.3511
  697MOL0     H91942   9.576   6.797  11.115  0.6719  0.2495  0.9308
  697MOL0     H91943   9.364   6.700  11.185  0.6409 -0.5395  0.3765
  697MOL0     H91944   9.447   6.651  11.044 -2.0745 -0.9168 -0.7585
  697MOL0     H91945   9.287   6.785  10.892  1.7241 -0.3555  0.7475
  697MOL0     H91946   9.183   6.809  11.027 -1.3735 -0.2219 -1.6084
  697MOL0     H91947   9.247   6.555  10.896 -0.4006 -1.2805 -1.2819
  697MOL0     H91948   9.210   6.552  11.077 -1.3498  3.3029  1.6985
  697MOL0     H91949   9.012   6.520  10.911 -1.7929  1.2575  1.2138
  697MOL0     H91950   9.013   6.692  10.898  1.2666  1.1814  0.7086
  697MOL0     H91951   8.999   6.735  11.121  0.5033  0.0202  0.4635
  697MOL0     H91952   9.033   6.576  11.178  0.6149 -2.6619 -2.4895
  697MOL0     H91953   8.833   6.473  11.108 -0.7242  0.7706 -5.0592
  697MOL0     H91954   8.796   6.620  11.220 -1.1544  3.6035 -0.8489
  697MOL0     H91955   8.778   6.610  10.912  1.6837  3.4534 -0.0861
  697MOL0     H91956   8.739   6.739  11.012  1.2933 -0.2626 -0.2354
  697MOL0     H91957   8.488   6.742  11.113  3.9625  0.2600  2.3752
  697MOL0     H91958   8.192   6.606  10.983  1.5347  1.6640 -1.2385
  697MOL0     H91959   8.263   6.705  11.117  0.2037  1.1127 -1.7409
  697MOL0     H91960   8.108   6.566  11.236  2.3121  2.9911  0.1102
  697MOL0     H91961   8.257   6.498  11.269  3.2987 -1.7406 -2.0883
  697MOL0     H91962   8.089   6.377  11.046 -0.3905  1.4762  0.1966
  697MOL0     H91963   8.229   6.304  11.105  0.3473  0.1940 -0.5582
  697MOL0     H91964   8.010   6.198  11.205  1.9885 -2.0305  2.2680
  697MOL0     H91965   7.973   6.355  11.269 -0.3423 -0.5389  1.9058
  697MOL0     H91966   8.220   6.256  11.583 -0.0191 -0.3467  0.3572
  697MOL0     H91967   8.184   6.089  11.761 -0.9491  0.3312  1.3002
  697MOL0     H91968   7.970   5.999  12.154 -1.8485 -0.3088  0.2762
  697MOL0     H91969   8.035   5.860  12.331  2.5252 -0.5270  0.2149
  697MOL0     H91970   8.415   5.581  12.299  0.2994  0.5882  0.6540
  697MOL0     H91971   8.274   5.493  12.233  0.1701  2.0258 -1.1112
  697MOL0     H91972   8.352   5.545  12.527  2.0178 -0.6952 -0.7624
  697MOL0     H91973   8.367   5.402  12.439  0.9225  0.1493 -1.8478
  697MOL0     H91974   8.175   5.359  12.555 -2.4509  1.0912  1.8707
  697MOL0     H91975   8.112   5.406  12.398  1.3790  1.5130 -1.6520
  697MOL0     H91976   8.138   5.643  12.579 -2.7274  0.7443  3.7092
  697MOL0     H91977   8.013   5.583  12.460 -2.9812 -2.5736  0.6809
  697MOL0     H91978   8.061   5.480  12.744 -1.5532 -1.7634  1.6458
  697MOL0     H91979   7.919   5.441  12.642 -0.6567 -1.0026  2.6920
  697MOL0     H91980   7.858   5.708  12.674 -0.1748 -1.6029 -1.4320
  697MOL0     H91981   7.987   5.720  12.779 -1.5142  0.0971  1.6497
  697MOL0     H91982   7.768   5.495  12.821 -0.4249 -0.1009 -0.3885
  697MOL0     H91983   7.887   5.561  12.945 -0.6227 -4.0134 -0.3474
  697MOL0     H91984   7.653   5.663  12.963 -1.4000  1.7889  0.1294
  697MOL0     H91985   7.645   5.684  12.791  0.8431 -0.1744  0.2295
  697MOL0     H91986   8.289   5.630  12.062  0.7569  0.8911 -3.1076
  697MOL0     H91987   8.172   5.752  11.869 -3.8689 -1.3376  0.3574
  697MOL0     H91988   7.860   5.921  11.535  1.2635 -1.6393  1.8042
  697MOL0     H91989   7.892   6.114  11.357 -0.1417  3.2725  0.9436
  697MOL0     H91990   9.688   7.002  11.111  0.7153  0.3884 -0.2620
  697MOL0     H91991   9.836   7.178  11.042  0.1484  0.4013  0.4414
  697MOL0     H91992  10.074   7.385  10.815  1.1765 -1.3163 -2.5338
  697MOL0     H91993  10.245   7.558  10.806 -1.2438  2.5882  1.0074
  697MOL0     H91994  10.357   7.933  10.585  1.4981 -0.8520 -0.5167
  697MOL0     H91995  10.181   7.936  10.563 -0.8104 -2.6593 -0.7466
  697MOL0     H91996  10.370   7.730  10.435  0.6330  0.6333  0.8267
  697MOL0     H91997  10.198   7.746  10.396  1.2756 -1.4324  0.9995
  697MOL0     H91998  10.407   7.953  10.342 -0.2300  2.2962 -2.3779
  697MOL0     H91999  10.251   7.982  10.288 -0.0244  0.7049  2.1129
  697MOL0     H92000  10.414   7.735  10.219  1.8089  1.9031 -0.7519
  697MOL0     H92001  10.248   7.773  10.148 -1.1823  0.7936  0.4552
  697MOL0     H92002  10.525   8.030   9.952 -1.0932  0.4627 -0.5693
  697MOL0     H92003  10.007   7.783  10.521 -1.5532  0.0018 -1.1561
  697MOL0     H92004   9.818   7.630  10.561 -0.6389 -0.4770  0.8099
  698MOL0     O92005   9.241   0.980   9.494 -0.1422  0.2197 -0.1028
  698MOL0     C92006   9.355   0.939   9.469  0.1184 -0.3021 -0.3581
  698MOL0     O92007   9.404   0.818   9.502  0.3483  0.6088  0.3503
  698MOL0     C92008   9.325   0.727   9.567 -0.4113 -0.3955 -0.7774
  698MOL0     C92009   9.192   0.705   9.542 -0.1075 -0.0096 -0.6228
  698MOL0     C92010   9.120   0.613   9.621 -0.0941  0.7929  0.0272
  698MOL0     C92011   9.182   0.550   9.730 -0.4231 -0.2398  0.2325
  698MOL0     O92012   9.100   0.477   9.815  0.2853  0.0160  0.3094
  698MOL0     C92013   9.143   0.443   9.945  0.1369 -0.5443 -0.4129
  698MOL0     C92014   9.023   0.361  10.002  0.3162  0.5922 -0.6884
  698MOL0     C92015   8.944   0.427  10.114  0.6214 -0.8305  0.2845
  698MOL0     C92016   8.833   0.333  10.169  1.4981  0.1950  0.5063
  698MOL0     C92017   8.736   0.405  10.260  0.0163 -0.5217  0.2293
  698MOL0     C92018   8.618   0.483  10.188 -0.0031  0.2525 -1.0480
  698MOL0     C92019   8.505   0.476  10.284  0.8960  0.2851 -0.0197
  698MOL0     C92020   8.516   0.544  10.417 -0.8924  0.9157 -0.6713
  698MOL0     N92021   8.388   0.576  10.484 -0.1571 -0.6905  1.1321
  698MOL0     C92022   8.323   0.693  10.484  0.0867 -0.0183 -0.2778
  698MOL0     C92023   8.200   0.680  10.539 -0.2168 -0.3451 -0.2325
  698MOL0     C92024   8.104   0.795  10.567  0.0569  0.5688 -0.1366
  698MOL0     C92025   8.000   0.788  10.454  0.1989 -0.1533  0.3262
  698MOL0     C92026   7.923   0.918  10.454  0.2397 -0.4156  0.0675
  698MOL0     C92027   8.001   1.047  10.427  0.0670 -0.2944  0.6246
  698MOL0     O92028   8.102   1.043  10.318  0.3834 -0.2203 -0.2769
  698MOL0     C92029   8.059   1.031  10.184 -0.7851 -1.2111 -0.3687
  698MOL0     C92030   7.931   1.066  10.140 -0.2385  0.1513  0.0699
  698MOL0     C92031   7.906   1.066  10.002  0.3811  0.0432 -0.5410
  698MOL0     C92032   7.996   1.034   9.900  0.2810  0.8308  0.7100
  698MOL0     C92033   7.952   1.030   9.760 -0.1682 -0.7915 -0.4366
  698MOL0     O92034   7.832   1.092   9.737 -0.2602  0.1847  0.2679
  698MOL0     C92035   7.779   1.087   9.613 -0.2442 -0.0803  0.3986
  698MOL0     C92036   7.651   1.031   9.618  0.2264  0.7654  0.4036
  698MOL0     C92037   7.592   0.995   9.502 -0.1361 -1.2930 -0.6006
  698MOL0     C92038   7.651   1.012   9.379 -1.0329  0.9155  0.1102
  698MOL0     O92039   7.586   0.989   9.266  0.0548 -0.3717  0.2230
  698MOL0     C92040   7.486   0.883   9.247  0.2219 -0.6919 -0.0498
  698MOL0     C92041   7.364   0.953   9.186 -0.2996  0.7779 -0.1058
  698MOL0     C92042   7.312   1.082   9.266 -0.2367  0.2046 -0.3392
  698MOL0     C92043   7.228   1.174   9.188  0.0360 -0.7348  1.0609
  698MOL0     C92044   7.092   1.105   9.153 -0.8350  0.3622 -0.0681
  698MOL0     C92045   6.965   1.182   9.088  0.4048  0.0798 -0.5731
  698MOL0     C92046   6.916   1.283   9.193 -0.0499  0.4182  0.1321
  698MOL0     C92047   6.849   1.403   9.127 -0.3657 -0.3516  0.4545
  698MOL0    Cl92048   6.687   1.356   9.041 -0.6519 -0.0377 -0.6202
  698MOL0     C92049   7.778   1.075   9.375 -0.6416  1.8022 -0.6505
  698MOL0     C92050   7.844   1.116   9.491 -0.3691 -0.7549 -1.0864
  698MOL0     O92051   8.026   0.992   9.671  0.5204  0.0443 -0.1020
  698MOL0     C92052   8.128   1.018   9.942 -0.5316  0.6041 -0.0635
  698MOL0     C92053   8.158   1.012  10.084 -0.5270  0.7449  0.1717
  698MOL0     N92054   8.194   0.546  10.580  1.0542  0.3532 -0.0275
  698MOL0     N92055   8.305   0.492  10.541  0.3784  0.2941 -0.3777
  698MOL0     C92056   9.320   0.583   9.758 -0.0656  0.6083 -0.1431
  698MOL0     C92057   9.394   0.662   9.665  0.3247 -0.2097 -0.6188
  698MOL0     C92058   9.449   1.037   9.410  0.6839 -0.4988 -0.2988
  698MOL0     C92059   9.397   1.142   9.330 -0.1676 -1.5332  0.0659
  698MOL0     C92060   9.486   1.241   9.272 -0.0809 -0.1864 -0.7277
  698MOL0     C92061   9.621   1.222   9.282 -0.3117 -0.0486 -0.3402
  698MOL0     O92062   9.704   1.301   9.207 -0.6105 -0.0245  0.0400
  698MOL0     C92063   9.837   1.262   9.167  0.6867 -0.3239  0.5184
  698MOL0     C92064   9.935   1.325   9.272  0.5871  0.0320 -0.1822
  698MOL0     C92065   9.952   1.487   9.277 -0.0193  0.4579  0.2691
  698MOL0     C92066   9.833   1.579   9.308  0.1486 -0.4187 -1.0527
  698MOL0     C92067   9.800   1.664   9.190  0.6004 -0.0598 -0.2267
  698MOL0     C92068   9.774   1.736   9.092 -0.2017 -0.6627  0.2439
  698MOL0     C92069   9.673   1.117   9.364 -0.1404 -0.9149 -0.2602
  698MOL0     C92070   9.588   1.020   9.418 -0.9928  0.0940  0.4454
  698MOL0     H92071   9.150   0.764   9.461  1.8687 -1.4844 -2.8264
  698MOL0     H92072   9.012   0.612   9.609 -0.6531  1.9655  3.5849
  698MOL0     H92073   9.162   0.524  10.016 -0.1753 -1.4702  0.7390
  698MOL0     H92074   9.238   0.389   9.942  0.6429  0.2506  0.7787
  698MOL0     H92075   9.063   0.275  10.055 -1.6122 -0.8567 -1.4940
  698MOL0     H92076   8.965   0.332   9.914 -0.5116 -0.0381  0.0622
  698MOL0     H92077   8.915   0.525  10.075  2.7134 -0.1855  0.2105
  698MOL0     H92078   9.009   0.452  10.198 -1.3380  4.9604  0.4673
  698MOL0     H92079   8.776   0.285  10.088 -2.5126 -0.3777  3.3813
  698MOL0     H92080   8.882   0.252  10.224 -0.5602 -0.8545  0.8700
  698MOL0     H92081   8.784   0.481  10.322 -1.8039  1.1378 -0.3136
  698MOL0     H92082   8.702   0.329  10.331 -2.9895 -0.0701 -0.6276
  698MOL0     H92083   8.587   0.445  10.090 -0.2660  2.9606 -2.1075
  698MOL0     H92084   8.645   0.588  10.176  4.1661 -0.4999  0.2707
  698MOL0     H92085   8.416   0.512  10.232 -0.1082 -1.3202  0.5211
  698MOL0     H92086   8.487   0.371  10.307  0.9716  0.1218 -0.6816
  698MOL0     H92087   8.553   0.645  10.400 -0.8421  1.0783  0.3382
  698MOL0     H92088   8.581   0.497  10.492 -3.2645  0.6822  1.3798
  698MOL0     H92089   8.362   0.784  10.440  0.3516 -1.6958 -3.8288
  698MOL0     H92090   8.165   0.886  10.564  3.6605 -1.6560 -0.4990
  698MOL0     H92091   8.070   0.788  10.670  0.7943 -1.4796  0.0299
  698MOL0     H92092   7.928   0.706  10.462  0.9896 -0.7426  1.8587
  698MOL0     H92093   8.040   0.767  10.355 -1.4580  2.2006 -0.9436
  698MOL0     H92094   7.839   0.899  10.386 -0.8846 -0.3977  1.4019
  698MOL0     H92095   7.877   0.935  10.552 -0.5782 -1.3925 -0.1191
  698MOL0     H92096   8.055   1.076  10.517 -1.2746  1.0694  1.0411
  698MOL0     H92097   7.934   1.130  10.402 -0.9541 -1.2793  0.0192
  698MOL0     H92098   7.857   1.087  10.216  2.3242 -0.0226  2.8355
  698MOL0     H92099   7.808   1.096   9.968  0.6677  1.4969 -0.1336
  698MOL0     H92100   7.602   1.002   9.710 -0.9772  0.9917 -0.1509
  698MOL0     H92101   7.488   0.965   9.517 -0.6664  1.1083  1.1185
  698MOL0     H92102   7.460   0.819   9.332 -0.4569  0.1627  0.4008
  698MOL0     H92103   7.517   0.808   9.174 -1.7815 -3.0361  1.3340
  698MOL0     H92104   7.281   0.883   9.169  0.1901 -0.5161  2.3550
  698MOL0     H92105   7.389   0.990   9.086  2.6067 -1.6095 -0.3827
  698MOL0     H92106   7.401   1.139   9.292 -0.9247  0.8290  0.7226
  698MOL0     H92107   7.267   1.074   9.366 -1.9822  0.5995 -1.0469
  698MOL0     H92108   7.209   1.262   9.249 -1.4028 -1.8955  2.3757
  698MOL0     H92109   7.286   1.193   9.097 -1.0900  0.5338  0.5851
  698MOL0     H92110   7.049   1.059   9.242  2.6221 -2.0179  0.5667
  698MOL0     H92111   7.119   1.025   9.082  2.7293  1.1420  0.2333
  698MOL0     H92112   6.888   1.107   9.067 -1.8290  1.2538  2.6327
  698MOL0     H92113   6.989   1.239   8.998 -0.3358 -2.2268 -2.3239
  698MOL0     H92114   6.844   1.230   9.256 -0.6467  0.5822 -0.4109
  698MOL0     H92115   6.987   1.323   9.266 -0.8046  0.9270  0.6059
  698MOL0     H92116   6.908   1.473   9.068 -2.1323 -0.7439 -1.9338
  698MOL0     H92117   6.806   1.468   9.205 -2.2535 -2.8296  1.6449
  698MOL0     H92118   7.813   1.109   9.278 -1.9083  4.1913 -0.3347
  698MOL0     H92119   7.933   1.178   9.489 -0.6913 -0.3018 -1.5633
  698MOL0     H92120   8.210   0.978   9.883  0.6988 -2.2876  3.2916
  698MOL0     H92121   8.256   0.987  10.123  0.5387  1.6463 -1.7869
  698MOL0     H92122   9.370   0.539   9.844 -0.9773  1.8748  1.0672
  698MOL0     H92123   9.496   0.691   9.685  0.6282 -2.4135  1.5062
  698MOL0     H92124   9.293   1.164   9.310  0.6416  2.9962 -0.2689
  698MOL0     H92125   9.461   1.336   9.226 -0.8573  1.1674  2.2188
  698MOL0     H92126   9.859   1.296   9.065 -0.7633 -1.5428 -0.2307
  698MOL0     H92127   9.857   1.155   9.162 -1.2568 -0.6762 -1.1732
  698MOL0     H92128   9.902   1.292   9.371 -1.7549  1.7644 -0.2818
  698MOL0     H92129  10.030   1.274   9.259 -0.1449 -1.6574  0.8119
  698MOL0     H92130   9.981   1.509   9.174 -0.3899 -0.4160 -0.0300
  698MOL0     H92131  10.029   1.519   9.348  0.9490  0.2106 -0.6446
  698MOL0     H92132   9.739   1.534   9.342 -0.6196  3.2999  2.7313
  698MOL0     H92133   9.854   1.658   9.381 -3.4799  0.2177 -0.4878
  698MOL0     H92134   9.751   1.796   9.006  1.5752 -1.7145 -1.0265
  698MOL0     H92135   9.777   1.090   9.381 -1.0233 -3.0018  2.7748
  698MOL0     H92136   9.628   0.928   9.460 -0.0415 -1.1623 -2.9391
  699MOL0     O92137  11.268  10.319   1.761  0.4013 -0.5196  0.1392
  699MOL0     C92138  11.306  10.433   1.797  0.3911  0.3827  0.2324
  699MOL0     O92139  11.337  10.475   1.925  0.1794  0.4905 -0.6312
  699MOL0     C92140  11.320  10.401   2.036  0.0261  0.3418  0.1167
  699MOL0     C92141  11.436  10.336   2.077 -0.3127  0.8776 -0.6565
  699MOL0     C92142  11.434  10.273   2.199  0.0852 -0.4065  0.0322
  699MOL0     C92143  11.323  10.264   2.272  0.0236  0.3537  0.5171
  699MOL0     O92144  11.338  10.199   2.394 -0.8952 -0.1195 -0.5246
  699MOL0     C92145  11.267  10.082   2.408  0.2046  0.6431 -1.0742
  699MOL0     C92146  11.213  10.057   2.545  0.2761  0.0269 -0.7740
  699MOL0     C92147  11.118  10.171   2.590 -0.8791  0.3903 -0.7002
  699MOL0     C92148  11.063  10.122   2.724  0.3284 -0.5949  0.0539
  699MOL0     C92149  10.994  10.245   2.796  0.7804  0.6144 -0.3241
  699MOL0     C92150  10.857  10.285   2.730  0.6354 -0.1266  0.1034
  699MOL0     C92151  10.753  10.167   2.741  0.0581 -0.3793  0.2528
  699MOL0     C92152  10.661  10.142   2.620 -0.2430  0.9405  0.0898
  699MOL0     N92153  10.723  10.064   2.507 -0.8261  0.0610  0.9554
  699MOL0     C92154  10.699  10.086   2.374 -0.4210 -0.2330 -0.2072
  699MOL0     C92155  10.727   9.969   2.307 -0.3328  0.1201 -0.1297
  699MOL0     C92156  10.702   9.946   2.162 -0.0083 -0.1838  0.8828
  699MOL0     C92157  10.821   9.976   2.071 -0.1366 -0.2355 -0.2987
  699MOL0     C92158  10.872  10.125   2.084 -0.3979  0.2153  0.4415
  699MOL0     C92159  10.895  10.181   1.943 -0.1728  0.1091  0.7315
  699MOL0     O92160  10.782  10.184   1.860  0.3192  0.7093 -0.4409
  699MOL0     C92161  10.799  10.239   1.739 -0.7206  0.1893 -0.0523
  699MOL0     C92162  10.685  10.270   1.669 -0.1208  1.3949  0.0472
  699MOL0     C92163  10.692  10.321   1.534  0.1687  0.2444  0.3672
  699MOL0     C92164  10.826  10.346   1.478  0.7989 -0.2094  0.1465
  699MOL0     C92165  10.841  10.399   1.340 -0.5909 -0.0388  0.1699
  699MOL0     O92166  10.952  10.478   1.317 -0.5836 -0.3843 -0.4791
  699MOL0     C92167  10.972  10.528   1.185 -0.0534  0.5103  0.2009
  699MOL0     C92168  11.102  10.520   1.132 -0.1651  0.2467 -0.4682
  699MOL0     C92169  11.130  10.548   0.997 -0.2596  0.5805  0.5800
  699MOL0     C92170  11.024  10.600   0.916 -0.4342 -0.7541 -0.7262
  699MOL0     O92171  11.012  10.633   0.784 -0.7043 -0.3306  0.0236
  699MOL0     C92172  11.144  10.647   0.731  0.7358 -0.5676  0.1320
  699MOL0     C92173  11.134  10.651   0.578 -0.2630  0.1874  0.2424
  699MOL0     C92174  11.274  10.686   0.505 -0.0900 -0.4468  0.1005
  699MOL0     C92175  11.391  10.601   0.530 -0.1351 -0.4660  0.3680
  699MOL0     C92176  11.517  10.655   0.491 -0.4373 -0.0995 -0.3899
  699MOL0     C92177  11.549  10.643   0.340 -0.0685  0.2365 -0.1619
  699MOL0     C92178  11.687  10.689   0.315 -0.3860  0.8184 -0.0748
  699MOL0     C92179  11.683  10.829   0.270  0.0488  0.5293  0.9453
  699MOL0    Cl92180  11.837  10.846   0.163 -0.0334  0.1711  0.3778
  699MOL0     C92181  10.905  10.635   0.983  0.4220  0.3132  0.2663
  699MOL0     C92182  10.879  10.595   1.108  0.4098  0.2248 -0.3665
  699MOL0     O92183  10.750  10.376   1.259  0.1196  0.3270 -0.4592
  699MOL0     C92184  10.934  10.317   1.554 -0.1317  0.0957  0.7673
  699MOL0     C92185  10.928  10.255   1.674 -0.5358 -0.2378  0.1620
  699MOL0     N92186  10.758   9.875   2.402 -0.8813 -0.3539 -0.1112
  699MOL0     N92187  10.756   9.928   2.518 -0.5631 -0.9668 -0.0171
  699MOL0     C92188  11.199  10.315   2.220 -0.2937 -0.0033  0.5359
  699MOL0     C92189  11.203  10.394   2.105  0.0169 -0.3849 -0.3778
  699MOL0     C92190  11.327  10.532   1.698 -1.2122 -0.6219  0.2774
  699MOL0     C92191  11.374  10.662   1.726 -0.6265 -0.1089  0.3834
  699MOL0     C92192  11.389  10.752   1.613 -0.2460  0.7376  0.5694
  699MOL0     C92193  11.358  10.725   1.487 -0.2632  1.0812 -0.0936
  699MOL0     O92194  11.363  10.808   1.376  0.4004  0.5793 -0.1783
  699MOL0     C92195  11.359  10.951   1.400  0.1128  0.7164  0.5082
  699MOL0     C92196  11.505  11.011   1.418 -0.6147 -0.4629 -0.7650
  699MOL0     C92197  11.581  11.034   1.293 -0.3840  0.5060  0.0282
  699MOL0     C92198  11.599  10.905   1.219  0.1372 -0.5558 -0.6290
  699MOL0     C92199  11.729  10.906   1.149 -0.6322  1.3376  0.8895
  699MOL0     C92200  11.833  10.900   1.083  0.3090  0.0750 -0.1273
  699MOL0     C92201  11.319  10.596   1.456  0.2575  0.1053  0.0768
  699MOL0     C92202  11.306  10.498   1.557 -0.3735 -0.2404  1.1027
  699MOL0     H92203  11.531  10.339   2.025  1.1268  0.5918  1.7743
  699MOL0     H92204  11.527  10.241   2.246  1.3073  0.4284 -1.7130
  699MOL0     H92205  11.329   9.997   2.379  0.8644 -1.4703  5.1228
  699MOL0     H92206  11.182  10.077   2.338 -0.5420 -3.0190 -0.1339
  699MOL0     H92207  11.301  10.072   2.609  0.6190  2.3102 -1.6989
  699MOL0     H92208  11.157   9.964   2.557  1.6997 -0.6249  1.5717
  699MOL0     H92209  11.033  10.184   2.523 -2.2203  0.0510  0.8607
  699MOL0     H92210  11.181  10.257   2.612 -0.0675 -0.6050  1.1195
  699MOL0     H92211  10.989  10.043   2.707  0.0781 -0.1056 -1.2642
  699MOL0     H92212  11.138  10.091   2.797 -0.9586 -1.8873  0.8860
  699MOL0     H92213  11.060  10.332   2.804 -1.3413  2.6487 -3.0373
  699MOL0     H92214  10.967  10.219   2.899 -0.1464  1.0583 -0.4419
  699MOL0     H92215  10.884  10.308   2.627  0.7294  0.9359  0.3517
  699MOL0     H92216  10.811  10.378   2.765  2.2816  1.2777 -1.3049
  699MOL0     H92217  10.796  10.069   2.763 -3.6389 -1.7901  1.8585
  699MOL0     H92218  10.685  10.189   2.823 -0.6854  1.5244 -0.8015
  699MOL0     H92219  10.604  10.231   2.589 -0.9762  0.1530 -0.8845
  699MOL0     H92220  10.579  10.082   2.661  0.1872  0.4733  0.2793
  699MOL0     H92221  10.659  10.172   2.322 -1.6319 -0.2686  0.6192
  699MOL0     H92222  10.613  10.001   2.129 -0.5883 -1.8427 -0.4532
  699MOL0     H92223  10.665   9.845   2.146 -1.6966  0.4068  0.7788
  699MOL0     H92224  10.806   9.940   1.969  1.8241 -5.2631  0.9203
  699MOL0     H92225  10.900   9.915   2.114 -1.8636  1.2256  6.0017
  699MOL0     H92226  10.800  10.194   2.129 -0.6605 -1.6292  3.0694
  699MOL0     H92227  10.962  10.125   2.147 -1.5005 -0.3088  2.0692
  699MOL0     H92228  10.970  10.110   1.907  1.5332  1.1723  1.9957
  699MOL0     H92229  10.954  10.273   1.946 -0.9355  0.6015  0.8760
  699MOL0     H92230  10.582  10.246   1.690  0.1337 -0.2451 -0.4529
  699MOL0     H92231  10.598  10.329   1.482  0.0151  0.8704  0.7347
  699MOL0     H92232  11.188  10.477   1.182 -0.4265 -0.3583 -0.5235
  699MOL0     H92233  11.226  10.519   0.954  0.1110  2.7171 -0.1987
  699MOL0     H92234  11.203  10.558   0.751  0.7990 -1.5834 -3.8415
  699MOL0     H92235  11.200  10.733   0.768 -0.5699  0.0694  0.7142
  699MOL0     H92236  11.066  10.733   0.554 -0.2829  1.1232  3.1271
  699MOL0     H92237  11.093  10.558   0.537 -2.8201 -0.1174  3.1395
  699MOL0     H92238  11.300  10.789   0.528  3.2738 -0.1129 -3.8768
  699MOL0     H92239  11.262  10.682   0.396 -1.0977  2.5284  0.0296
  699MOL0     H92240  11.397  10.577   0.637 -2.7378  0.4263  0.7868
  699MOL0     H92241  11.374  10.501   0.489 -0.9831 -0.3608  0.4561
  699MOL0     H92242  11.598  10.593   0.531  2.3544  1.6635 -2.8714
  699MOL0     H92243  11.538  10.756   0.528 -1.2426  0.1187 -0.5145
  699MOL0     H92244  11.475  10.694   0.278  0.5397  1.9123  0.4515
  699MOL0     H92245  11.533  10.544   0.296  0.5662  1.2350 -2.8080
  699MOL0     H92246  11.750  10.678   0.404  0.3039 -0.9829 -0.7344
  699MOL0     H92247  11.733  10.623   0.241  1.4277 -0.2037  1.8375
  699MOL0     H92248  11.676  10.911   0.343 -3.5727  2.2894 -1.0671
  699MOL0     H92249  11.598  10.848   0.204 -0.3245  1.1369  1.5796
  699MOL0     H92250  10.833  10.695   0.927 -0.0801  1.1713  1.7423
  699MOL0     H92251  10.784  10.617   1.156  0.6763 -3.8218  2.5079
  699MOL0     H92252  11.034  10.331   1.514 -0.8102  0.9037 -0.7279
  699MOL0     H92253  11.016  10.221   1.728  1.3796  2.9884 -0.6093
  699MOL0     H92254  11.104  10.298   2.268 -0.4741  0.1527  0.2376
  699MOL0     H92255  11.123  10.441   2.048  1.6672 -1.7632 -4.1496
  699MOL0     H92256  11.404  10.698   1.824 -1.4473 -4.7191  2.6173
  699MOL0     H92257  11.435  10.847   1.636  0.5996  0.2667  0.8589
  699MOL0     H92258  11.304  10.970   1.493 -0.9799 -0.0743  0.0457
  699MOL0     H92259  11.304  11.000   1.319  1.2669  0.9901 -0.1394
  699MOL0     H92260  11.505  11.104   1.475  3.5794 -1.2715  0.9141
  699MOL0     H92261  11.564  10.943   1.480 -1.0771  0.6497  0.9459
  699MOL0     H92262  11.683  11.058   1.326 -0.8406 -0.2462  2.1449
  699MOL0     H92263  11.536  11.117   1.238  1.1975  0.9226 -0.7108
  699MOL0     H92264  11.600  10.824   1.292 -1.8691 -1.8275 -1.9086
  699MOL0     H92265  11.511  10.883   1.158 -0.9447  3.0933 -0.6200
  699MOL0     H92266  11.916  10.917   1.017  1.7466 -1.9015  1.0663
  699MOL0     H92267  11.312  10.572   1.350  1.4976 -2.6731  0.5527
  699MOL0     H92268  11.293  10.395   1.525 -0.6223 -0.5714  2.2281
  700MOL0     O92269   5.397   7.265   0.489  0.4496 -0.3497 -0.3311
  700MOL0     C92270   5.371   7.166   0.555 -0.1304  1.0579  0.4766
  700MOL0     O92271   5.455   7.120   0.656  0.3694 -0.3189 -1.1219
  700MOL0     C92272   5.547   7.211   0.696  0.8861 -0.1503  0.0583
  700MOL0     C92273   5.517   7.286   0.806 -0.7244  0.3633 -0.6049
  700MOL0     C92274   5.610   7.383   0.859 -0.8975  0.1067 -0.8218
  700MOL0     C92275   5.731   7.394   0.799  0.8516  0.4910  0.9586
  700MOL0     O92276   5.830   7.477   0.840  1.2405  0.1745  0.0417
  700MOL0     C92277   5.802   7.617   0.856 -0.2931  0.5487  0.0244
  700MOL0     C92278   5.928   7.695   0.808  0.4431 -1.0196 -0.0853
  700MOL0     C92279   5.892   7.845   0.805  0.3468  0.0619  0.6483
  700MOL0     C92280   6.016   7.930   0.775  0.3273  0.3609 -0.0474
  700MOL0     C92281   5.990   8.079   0.742  0.0991 -0.1501 -0.9020
  700MOL0     C92282   5.911   8.146   0.866 -1.0663 -0.5239 -1.4274
  700MOL0     C92283   5.894   8.298   0.836 -0.0667  0.1553  0.4457
  700MOL0     C92284   5.800   8.345   0.947  0.2506 -0.5565  0.3977
  700MOL0     N92285   5.786   8.484   0.922 -0.1547 -0.8077  0.4204
  700MOL0     C92286   5.828   8.583   1.011  0.5920  0.1380 -0.3020
  700MOL0     C92287   5.803   8.701   0.949 -0.1671 -0.9889 -0.1772
  700MOL0     C92288   5.833   8.845   0.991  0.6943  0.2842 -0.7007
  700MOL0     C92289   5.986   8.873   0.972 -0.5060 -0.0865  1.1012
  700MOL0     C92290   6.049   8.922   1.100  0.0623  0.5741 -0.3336
  700MOL0     C92291   6.205   8.918   1.108  1.4860  0.9753 -0.4306
  700MOL0     O92292   6.226   8.852   1.231 -0.3627  0.7142  0.2495
  700MOL0     C92293   6.232   8.923   1.347 -0.2060  1.1068 -1.1710
  700MOL0     C92294   6.166   9.038   1.363 -0.0884  1.2061 -0.4621
  700MOL0     C92295   6.178   9.106   1.482  0.7173  0.6217  0.8216
  700MOL0     C92296   6.248   9.055   1.586  1.0810 -0.3587 -0.0386
  700MOL0     C92297   6.254   9.131   1.718  0.0473 -0.1250 -0.3455
  700MOL0     O92298   6.321   9.078   1.824  0.5544 -0.1703 -0.6360
  700MOL0     C92299   6.293   9.128   1.959 -0.2757 -0.0941  0.3053
  700MOL0     C92300   6.288   9.261   1.996 -0.1567 -0.0840 -0.0797
  700MOL0     C92301   6.275   9.298   2.134 -1.1890  0.3695 -0.5324
  700MOL0     C92302   6.247   9.210   2.237 -0.3014 -0.7000 -0.8622
  700MOL0     O92303   6.227   9.236   2.366  0.2046 -0.3606 -0.5383
  700MOL0     C92304   6.226   9.379   2.406  0.5379 -0.6826 -0.2373
  700MOL0     C92305   6.237   9.399   2.566  0.3419  0.6164  0.0445
  700MOL0     C92306   6.361   9.324   2.611  0.2126  0.4832  1.0838
  700MOL0     C92307   6.412   9.367   2.757 -0.2189 -0.1048 -0.2380
  700MOL0     C92308   6.523   9.274   2.809  1.1225  1.1068  0.2426
  700MOL0     C92309   6.574   9.323   2.944  0.1812  0.4691 -0.1908
  700MOL0     C92310   6.659   9.217   3.017  0.7120 -0.1973  0.6450
  700MOL0     C92311   6.735   9.269   3.137 -0.0117 -0.8843 -0.4354
  700MOL0    Cl92312   6.838   9.151   3.205  0.3983 -0.0596 -0.1213
  700MOL0     C92313   6.262   9.078   2.199  1.3497 -0.5218 -0.0564
  700MOL0     C92314   6.275   9.038   2.064 -0.9931  0.1457  0.3246
  700MOL0     O92315   6.177   9.228   1.724  0.1806 -0.4774  0.2473
  700MOL0     C92316   6.311   8.928   1.577  0.7547  0.8762 -0.2026
  700MOL0     C92317   6.308   8.870   1.453 -0.1320  0.5999 -0.8437
  700MOL0     N92318   5.731   8.679   0.836 -0.3205 -0.1486  0.0742
  700MOL0     N92319   5.730   8.547   0.813 -0.0234  0.1588 -1.0369
  700MOL0     C92320   5.765   7.308   0.689  0.8732 -0.8457 -0.0207
  700MOL0     C92321   5.673   7.218   0.643 -0.0364 -0.5813 -0.3336
  700MOL0     C92322   5.253   7.090   0.528  0.3535  0.1248  0.9568
  700MOL0     C92323   5.228   6.958   0.569 -0.2595 -0.2985 -0.7881
  700MOL0     C92324   5.105   6.885   0.545  0.4065 -0.2931 -0.1362
  700MOL0     C92325   5.007   6.944   0.469 -0.0787 -0.0332 -0.6709
  700MOL0     O92326   4.901   6.860   0.426  0.5894  0.5821 -0.7535
  700MOL0     C92327   4.768   6.903   0.380 -0.2622  0.2060 -0.4808
  700MOL0     C92328   4.679   6.943   0.501 -0.0771 -0.9270  0.8560
  700MOL0     C92329   4.650   6.834   0.595 -0.5881  1.0262  0.0648
  700MOL0     C92330   4.537   6.873   0.695  0.2399 -1.0137 -0.8391
  700MOL0     C92331   4.542   6.778   0.804  0.3303 -0.8319  0.1265
  700MOL0     C92332   4.562   6.694   0.894  0.3243 -0.1393 -0.0014
  700MOL0     C92333   5.035   7.080   0.421  0.0209  0.6165  0.3757
  700MOL0     C92334   5.149   7.151   0.455  0.6467 -0.2174 -0.7203
  700MOL0     H92335   5.422   7.276   0.858 -0.1361 -2.3148  0.1218
  700MOL0     H92336   5.599   7.446   0.946 -0.7015  0.9276 -1.3877
  700MOL0     H92337   5.790   7.638   0.963 -1.6112  2.9598 -0.5212
  700MOL0     H92338   5.714   7.641   0.795  0.9225  0.6603 -1.7648
  700MOL0     H92339   5.960   7.668   0.707 -0.5431  2.3899 -1.4672
  700MOL0     H92340   6.019   7.666   0.862 -0.1134  0.8674  2.0422
  700MOL0     H92341   5.855   7.885   0.899 -1.4931  2.7512 -1.0891
  700MOL0     H92342   5.808   7.857   0.736 -0.3350 -2.8980  0.8186
  700MOL0     H92343   6.072   7.928   0.870 -2.7189  0.0152  1.8932
  700MOL0     H92344   6.083   7.877   0.708 -0.2518 -2.2443  1.2996
  700MOL0     H92345   5.935   8.075   0.648  0.1006 -1.2306 -0.8684
  700MOL0     H92346   6.082   8.136   0.727  0.5826 -1.4162 -3.2339
  700MOL0     H92347   5.964   8.125   0.959  0.1393  1.2176 -1.6622
  700MOL0     H92348   5.813   8.101   0.879 -1.4293  0.9625  1.8741
  700MOL0     H92349   5.978   8.366   0.849 -1.1807  1.4219  1.2207
  700MOL0     H92350   5.850   8.324   0.739  0.9228  0.9898  0.2143
  700MOL0     H92351   5.839   8.328   1.047  1.9094 -2.2280 -0.4672
  700MOL0     H92352   5.705   8.292   0.938 -0.5035  0.3725  2.2464
  700MOL0     H92353   5.865   8.566   1.112  2.2740  0.6004 -0.8047
  700MOL0     H92354   5.805   8.868   1.094 -1.1873  0.3398 -1.1893
  700MOL0     H92355   5.789   8.913   0.918  2.0230 -0.4410 -2.2378
  700MOL0     H92356   6.004   8.947   0.894 -1.6617 -3.0495 -2.2590
  700MOL0     H92357   6.045   8.785   0.943  2.1890  1.9061  0.0829
  700MOL0     H92358   6.014   9.025   1.116  0.1684  0.6248 -0.4250
  700MOL0     H92359   6.010   8.862   1.183  0.7655  1.9676  1.0654
  700MOL0     H92360   6.244   9.019   1.096 -0.7318  1.9451  0.0721
  700MOL0     H92361   6.241   8.851   1.029 -3.5752 -1.1835 -1.3105
  700MOL0     H92362   6.122   9.086   1.276  0.8066  2.7606 -0.0928
  700MOL0     H92363   6.129   9.202   1.496  0.2791  0.4723  0.3311
  700MOL0     H92364   6.299   9.341   1.924 -0.3908  0.5789  0.6094
  700MOL0     H92365   6.287   9.403   2.157  3.5882 -0.1413  0.3049
  700MOL0     H92366   6.135   9.421   2.363 -0.0454 -1.7109 -0.0480
  700MOL0     H92367   6.310   9.439   2.371  1.0506  1.4291  3.9002
  700MOL0     H92368   6.147   9.365   2.617 -0.8016 -0.0085 -2.2836
  700MOL0     H92369   6.241   9.505   2.592 -1.4478  0.9784 -1.0062
  700MOL0     H92370   6.438   9.315   2.534  0.3944 -2.6500  1.5016
  700MOL0     H92371   6.331   9.219   2.615  1.4812  0.1060  1.0651
  700MOL0     H92372   6.454   9.468   2.758 -0.1462 -0.1074 -1.3222
  700MOL0     H92373   6.332   9.370   2.830  0.8019 -1.4050  0.9919
  700MOL0     H92374   6.611   9.255   2.746  0.8031  0.0623  0.0837
  700MOL0     H92375   6.473   9.177   2.817  0.3597  1.4725 -0.0236
  700MOL0     H92376   6.480   9.334   2.999 -0.7134  0.4382 -1.6353
  700MOL0     H92377   6.634   9.413   2.929  1.0072  0.4135  2.4187
  700MOL0     H92378   6.586   9.138   3.037 -0.5222  1.2292  2.1491
  700MOL0     H92379   6.737   9.175   2.954 -0.1851 -0.4124 -0.3481
  700MOL0     H92380   6.664   9.295   3.216  1.5816  1.2873  0.3767
  700MOL0     H92381   6.797   9.351   3.100  0.3306 -0.9254  0.0483
  700MOL0     H92382   6.260   9.002   2.275  1.3671 -1.7939 -1.2836
  700MOL0     H92383   6.273   8.932   2.037 -0.3214  0.3086 -0.4114
  700MOL0     H92384   6.360   8.887   1.665  0.5082  2.0440  0.5072
  700MOL0     H92385   6.370   8.782   1.439  1.5636  1.4777  0.6338
  700MOL0     H92386   5.861   7.313   0.640  0.7524 -1.5557 -0.3342
  700MOL0     H92387   5.703   7.166   0.553  1.6593  0.7279 -0.5736
  700MOL0     H92388   5.307   6.902   0.618 -0.2773 -0.4298 -0.9090
  700MOL0     H92389   5.087   6.785   0.585  0.0655 -0.3912 -0.5301
  700MOL0     H92390   4.733   6.810   0.334 -0.0010 -0.6416  0.9628
  700MOL0     H92391   4.774   6.991   0.315 -0.1101 -0.7501 -1.7949
  700MOL0     H92392   4.735   7.020   0.556 -4.3606  0.4731  3.8520
  700MOL0     H92393   4.586   6.989   0.465  0.5177 -0.3119  0.0665
  700MOL0     H92394   4.738   6.806   0.653 -0.9056 -3.5055 -1.2806
  700MOL0     H92395   4.613   6.743   0.546  0.6193  0.6007 -0.0817
  700MOL0     H92396   4.556   6.975   0.729  1.9229 -0.9292 -1.9414
  700MOL0     H92397   4.439   6.873   0.646  0.6702 -0.0372 -1.7390
  700MOL0     H92398   4.568   6.620   0.971 -2.4465 -1.5916 -1.0162
  700MOL0     H92399   4.962   7.118   0.350 -1.0099 -2.6230 -0.4926
  700MOL0     H92400   5.165   7.255   0.427 -2.8257  0.9176  0.8766
  701MOL0     O92401   2.569   1.471   0.558  0.6496  0.6077 -0.1858
  701MOL0     C92402   2.633   1.426   0.465  0.2737  0.2218  0.8080
  701MOL0     O92403   2.767   1.393   0.459  0.2618 -0.1016 -0.5591
  701MOL0     C92404   2.846   1.384   0.572 -0.4829  1.1962  0.1065
  701MOL0     C92405   2.797   1.363   0.699  0.1278 -0.3278  0.1355
  701MOL0     C92406   2.886   1.338   0.808  0.2372  0.1243  0.2965
  701MOL0     C92407   3.018   1.305   0.778 -0.5830 -0.2164  0.3966
  701MOL0     O92408   3.109   1.259   0.878 -0.4159 -0.7057  0.3556
  701MOL0     C92409   3.245   1.212   0.845  1.0604 -0.7440 -0.9041
  701MOL0     C92410   3.334   1.205   0.974 -0.3848  1.1793  0.1515
  701MOL0     C92411   3.480   1.166   0.934  0.1933 -0.2646  0.3025
  701MOL0     C92412   3.555   1.153   1.064 -0.3650  0.1796  0.8148
  701MOL0     C92413   3.697   1.099   1.035 -0.4988  0.2089  0.2602
  701MOL0     C92414   3.763   1.069   1.176  0.1421 -0.8308  0.8119
  701MOL0     C92415   3.921   1.079   1.170  0.4611  0.0480 -0.1347
  701MOL0     C92416   3.983   0.994   1.051 -0.7472  0.1901 -0.4668
  701MOL0     N92417   3.986   0.853   1.095  0.4541  0.2537  0.4437
  701MOL0     C92418   4.092   0.786   1.160  0.6057 -0.1950  0.5270
  701MOL0     C92419   4.045   0.669   1.212  0.1406 -0.8378 -0.3080
  701MOL0     C92420   4.128   0.563   1.291 -0.4321  0.4665  0.0058
  701MOL0     C92421   4.232   0.489   1.202  0.5552 -0.1825  0.0410
  701MOL0     C92422   4.168   0.407   1.083  0.2587 -1.1115  0.2477
  701MOL0     C92423   4.079   0.293   1.143  0.2636  0.9277 -0.0404
  701MOL0     O92424   4.022   0.213   1.028  0.8583 -0.2265  0.0965
  701MOL0     C92425   3.893   0.242   0.994 -0.6558 -0.2877  0.7189
  701MOL0     C92426   3.829   0.144   0.917 -0.2413 -0.4007 -0.6124
  701MOL0     C92427   3.705   0.170   0.856  1.2170 -0.1265  0.2245
  701MOL0     C92428   3.630   0.279   0.899 -0.2249 -0.4882  0.1534
  701MOL0     C92429   3.493   0.305   0.840  0.4938  0.2091  0.8258
  701MOL0     O92430   3.448   0.241   0.728 -0.0499 -0.3084 -0.0549
  701MOL0     C92431   3.313   0.246   0.695 -0.1703  0.2232  0.9104
  701MOL0     C92432   3.290   0.244   0.555 -1.0251 -0.3102 -0.5215
  701MOL0     C92433   3.161   0.230   0.510  0.2911 -1.0869 -0.6017
  701MOL0     C92434   3.053   0.219   0.606  0.5716  0.3710  0.9070
  701MOL0     O92435   2.920   0.199   0.578 -0.0810 -0.4867  0.2937
  701MOL0     C92436   2.858   0.249   0.454 -0.6117 -0.1519 -0.8082
  701MOL0     C92437   2.709   0.270   0.484 -0.5434  0.3647 -0.9475
  701MOL0     C92438   2.594   0.197   0.407 -0.0010 -0.4823  0.0566
  701MOL0     C92439   2.590   0.039   0.404  0.2578 -1.2328 -0.5222
  701MOL0     C92440   2.457   0.000   0.331  0.2394 -0.4611 -0.2485
  701MOL0     C92441   2.443  -0.149   0.340 -0.3161  1.0397  0.1791
  701MOL0     C92442   2.320  -0.186   0.259  0.0695  0.1067 -0.0470
  701MOL0     C92443   2.309  -0.336   0.219  0.0145  0.3232 -0.2315
  701MOL0    Cl92444   2.190  -0.356   0.097 -0.0491 -0.4023 -0.3295
  701MOL0     C92445   3.079   0.223   0.739 -0.6744  0.0063  0.2416
  701MOL0     C92446   3.212   0.227   0.781  0.3454 -0.1199 -0.9037
  701MOL0     O92447   3.426   0.387   0.907  0.1505  0.2302 -0.2445
  701MOL0     C92448   3.689   0.371   0.991  0.2142  0.7477  0.2555
  701MOL0     C92449   3.820   0.352   1.031 -0.0709  0.3390 -0.2887
  701MOL0     N92450   3.908   0.667   1.167 -0.8719  0.4339 -0.4881
  701MOL0     N92451   3.881   0.769   1.094 -0.0802  0.1830  0.0074
  701MOL0     C92452   3.063   1.322   0.649 -0.6230  0.3170  0.9164
  701MOL0     C92453   2.983   1.376   0.548  0.1780 -0.4293 -0.4856
  701MOL0     C92454   2.561   1.427   0.331 -0.4029 -0.0313 -0.7065
  701MOL0     C92455   2.623   1.390   0.211 -0.2376  0.6798 -0.3279
  701MOL0     C92456   2.548   1.384   0.094 -0.0573  0.7087  0.0710
  701MOL0     C92457   2.424   1.442   0.091  0.4995  0.3965  0.0353
  701MOL0     O92458   2.367   1.456  -0.028 -0.0257  0.6743 -0.2349
  701MOL0     C92459   2.227   1.486  -0.045  0.3229  0.7815 -1.0062
  701MOL0     C92460   2.207   1.478  -0.201  0.1607  0.5915 -0.2007
  701MOL0     C92461   2.076   1.543  -0.235 -0.5519 -0.8013  0.5892
  701MOL0     C92462   2.075   1.609  -0.368 -0.4934 -0.4194 -0.7483
  701MOL0     C92463   1.952   1.679  -0.400  0.2143 -1.0974  0.6012
  701MOL0     C92464   1.852   1.743  -0.416  0.7997  0.2315 -0.2897
  701MOL0     C92465   2.353   1.465   0.209 -0.5938  0.3684 -0.4532
  701MOL0     C92466   2.430   1.470   0.328  0.2183  0.1328  0.6469
  701MOL0     H92467   2.693   1.372   0.728  0.1701 -0.7903  0.4354
  701MOL0     H92468   2.865   1.318   0.913 -1.0711 -2.9332 -0.4464
  701MOL0     H92469   3.294   1.277   0.773  1.3824 -1.5720 -1.4491
  701MOL0     H92470   3.237   1.110   0.806  1.3533 -1.1679  0.1090
  701MOL0     H92471   3.290   1.129   1.039 -0.1764  1.0761  0.1740
  701MOL0     H92472   3.333   1.300   1.028 -1.8209  0.9602  0.5550
  701MOL0     H92473   3.506   1.251   0.870 -1.4044  0.3517  0.4206
  701MOL0     H92474   3.487   1.067   0.887  1.8615 -1.4617  2.8983
  701MOL0     H92475   3.555   1.248   1.119  0.7354  1.4072 -1.1706
  701MOL0     H92476   3.505   1.080   1.127 -0.1607  0.0757  0.8577
  701MOL0     H92477   3.757   1.174   0.982 -2.3731  0.1222 -2.1255
  701MOL0     H92478   3.693   1.013   0.967  2.7332  2.6831 -3.5372
  701MOL0     H92479   3.744   0.962   1.193  3.6035 -1.6198  0.5253
  701MOL0     H92480   3.716   1.125   1.257  0.5366  2.1323 -0.8624
  701MOL0     H92481   3.946   1.183   1.145  0.1776  0.0876 -0.2544
  701MOL0     H92482   3.958   1.051   1.269 -0.9839 -0.2899  0.3332
  701MOL0     H92483   4.088   1.017   1.031 -0.2253 -2.1421 -0.7064
  701MOL0     H92484   3.928   1.014   0.958  1.3639  0.1618 -1.7879
  701MOL0     H92485   4.189   0.826   1.189  0.0319  0.7278  1.2425
  701MOL0     H92486   4.056   0.489   1.328  0.0627 -0.0003  0.0463
  701MOL0     H92487   4.185   0.610   1.372  0.7563 -1.5773  0.4350
  701MOL0     H92488   4.292   0.424   1.267  0.0480 -0.9938 -0.2829
  701MOL0     H92489   4.294   0.565   1.153  0.4962  0.9442  1.6328
  701MOL0     H92490   4.115   0.466   1.008  2.5001  0.3452 -0.2895
  701MOL0     H92491   4.248   0.362   1.024 -1.1472  0.3177 -3.0341
  701MOL0     H92492   4.000   0.335   1.207 -0.0971  2.2956 -1.3308
  701MOL0     H92493   4.131   0.216   1.200 -1.7567 -1.1605 -0.8377
  701MOL0     H92494   3.892   0.059   0.896 -0.1065 -1.0325  1.9978
  701MOL0     H92495   3.679   0.103   0.775  3.1009 -0.5403 -0.1009
  701MOL0     H92496   3.375   0.236   0.488  0.1381 -1.6294  1.0163
  701MOL0     H92497   3.133   0.232   0.405  1.9533  1.1767 -1.0599
  701MOL0     H92498   2.875   0.169   0.381 -0.2578 -0.1082 -0.7745
  701MOL0     H92499   2.892   0.349   0.427 -4.1485  1.8700  1.4997
  701MOL0     H92500   2.684   0.374   0.461 -1.0455  0.2547 -0.8992
  701MOL0     H92501   2.694   0.250   0.590 -1.0492  1.8017 -0.7382
  701MOL0     H92502   2.594   0.253   0.313  0.9471 -2.2835 -1.0647
  701MOL0     H92503   2.501   0.227   0.457 -1.2826 -0.3438 -2.2454
  701MOL0     H92504   2.675  -0.006   0.354  1.0206 -1.0577  0.5711
  701MOL0     H92505   2.589   0.003   0.507 -0.3504  0.3539  0.0611
  701MOL0     H92506   2.460   0.021   0.224  3.6836 -1.3595 -0.4358
  701MOL0     H92507   2.382   0.057   0.387 -0.0818 -1.6676  0.5839
  701MOL0     H92508   2.433  -0.198   0.438 -0.4653 -1.5834 -1.0764
  701MOL0     H92509   2.535  -0.179   0.290 -0.0279  2.2763 -0.0580
  701MOL0     H92510   2.229  -0.142   0.301  0.5395 -0.0829  1.2135
  701MOL0     H92511   2.333  -0.140   0.161 -3.0948  1.1553 -0.0730
  701MOL0     H92512   2.269  -0.387   0.307  2.4156 -1.3716 -0.0236
  701MOL0     H92513   2.403  -0.387   0.199 -0.4173 -0.7396  0.3489
  701MOL0     H92514   3.002   0.232   0.815 -1.1173  1.7958 -0.3607
  701MOL0     H92515   3.228   0.233   0.888  0.1369 -0.4341 -0.8546
  701MOL0     H92516   3.628   0.453   1.027  0.2474  1.9842 -2.3116
  701MOL0     H92517   3.867   0.431   1.089  0.9533 -1.7627  1.8844
  701MOL0     H92518   3.165   1.309   0.616 -1.6890  2.1559 -3.9314
  701MOL0     H92519   3.030   1.385   0.451  1.8982  0.3648  0.3796
  701MOL0     H92520   2.727   1.360   0.215 -1.1214 -2.5673  1.3717
  701MOL0     H92521   2.599   1.341   0.008 -2.1567 -0.2263 -0.7774
  701MOL0     H92522   2.201   1.586  -0.009 -2.3528 -0.2913  0.4038
  701MOL0     H92523   2.160   1.411   0.000 -0.7247  1.0041 -2.1231
  701MOL0     H92524   2.296   1.526  -0.243  0.2931  3.4687  2.9449
  701MOL0     H92525   2.203   1.377  -0.244  3.8283 -1.1005  2.8251
  701MOL0     H92526   2.054   1.627  -0.168  0.2397  0.9853 -1.2881
  701MOL0     H92527   1.997   1.469  -0.226 -1.5340  0.3177  1.4760
  701MOL0     H92528   2.154   1.684  -0.372 -1.4266  0.6808  0.8550
  701MOL0     H92529   2.092   1.528  -0.441 -2.0423 -1.4690  0.0069
  701MOL0     H92530   1.758   1.790  -0.437  1.6989  2.2387 -0.0613
  701MOL0     H92531   2.249   1.494   0.199 -0.2436  1.7037 -0.3978
  701MOL0     H92532   2.371   1.491   0.416  0.4152 -0.7317  1.0013
  702MOL0     O92533   8.837  10.509   9.520  0.1157  0.2186  0.4108
  702MOL0     C92534   8.881  10.457   9.412  0.4123 -0.1204 -1.5522
  702MOL0     O92535   8.836  10.487   9.288 -0.0273  0.6026 -0.4199
  702MOL0     C92536   8.729  10.571   9.257 -1.1164  1.4369 -0.7952
  702MOL0     C92537   8.736  10.632   9.134 -0.3337  0.1427  0.6808
  702MOL0     C92538   8.632  10.721   9.088  0.5661 -1.1543  0.2820
  702MOL0     C92539   8.523  10.735   9.164  0.3787 -0.0864  0.2173
  702MOL0     O92540   8.430  10.825   9.126  0.4463  0.2916  0.6861
  702MOL0     C92541   8.310  10.856   9.201  0.2246 -0.0717 -0.2984
  702MOL0     C92542   8.240  10.963   9.121  0.4884 -0.0750 -0.2548
  702MOL0     C92543   8.093  10.978   9.160  0.3216 -0.1344 -1.4100
  702MOL0     C92544   8.025  11.078   9.064  0.8398 -0.0260 -0.4523
  702MOL0     C92545   7.877  11.104   9.112 -0.1367  0.1878  0.4343
  702MOL0     C92546   7.812  11.225   9.039 -0.0559 -0.2686 -0.0511
  702MOL0     C92547   7.662  11.244   9.054  1.2447 -0.8391  0.5760
  702MOL0     C92548   7.579  11.143   8.971 -0.0889 -0.0463  0.3465
  702MOL0     N92549   7.610  11.143   8.826  0.1593  0.3681  0.5609
  702MOL0     C92550   7.604  11.253   8.739 -0.4770 -0.1489 -0.2131
  702MOL0     C92551   7.636  11.205   8.623 -0.0603 -0.1565 -0.1214
  702MOL0     C92552   7.649  11.290   8.497 -1.0344 -0.2936  0.7198
  702MOL0     C92553   7.722  11.228   8.372 -0.8077  0.1646 -0.6227
  702MOL0     C92554   7.664  11.086   8.332  0.9005 -0.3433  0.5037
  702MOL0     C92555   7.505  11.082   8.333 -0.6083 -0.2508 -1.0945
  702MOL0     O92556   7.442  11.180   8.257 -0.4637  0.4993 -0.0862
  702MOL0     C92557   7.305  11.199   8.253  0.5978 -0.0852 -0.9326
  702MOL0     C92558   7.232  11.260   8.352 -0.0859 -0.2475 -0.2496
  702MOL0     C92559   7.097  11.296   8.333  0.1737  0.3999 -0.3854
  702MOL0     C92560   7.030  11.259   8.222  0.2872 -0.4478  0.8171
  702MOL0     C92561   6.885  11.268   8.204 -0.3476  1.4412 -0.3160
  702MOL0     O92562   6.830  11.226   8.090  0.7391  0.5299  0.4303
  702MOL0     C92563   6.693  11.221   8.078 -0.9474  0.3393 -0.0943
  702MOL0     C92564   6.633  11.092   8.069 -0.4463  1.1807 -0.0822
  702MOL0     C92565   6.493  11.078   8.060  0.6363 -0.0241  0.7133
  702MOL0     C92566   6.412  11.183   8.048 -0.2725  0.0116  0.1643
  702MOL0     O92567   6.279  11.177   8.034 -0.3127  0.5425  0.5746
  702MOL0     C92568   6.203  11.082   8.110  0.2464  0.1925 -0.4266
  702MOL0     C92569   6.089  11.049   8.014  0.4424  0.2007  0.2909
  702MOL0     C92570   5.997  11.171   7.983 -0.5727 -0.2090  0.1048
  702MOL0     C92571   5.861  11.109   7.941 -0.0173 -0.2228  0.7852
  702MOL0     C92572   5.781  11.206   7.852 -0.5700  0.1504  0.1796
  702MOL0     C92573   5.743  11.320   7.940 -0.2429 -0.6191  0.5177
  702MOL0     C92574   5.665  11.419   7.858  0.8820  0.4018 -0.0394
  702MOL0     C92575   5.516  11.369   7.841  0.0520  0.1805 -0.1934
  702MOL0    Cl92576   5.422  11.482   7.732 -0.3012  0.1850 -0.4000
  702MOL0     C92577   6.473  11.314   8.035 -0.4796  0.0221  0.5321
  702MOL0     C92578   6.611  11.335   8.050 -0.2818 -0.1693 -0.3483
  702MOL0     O92579   6.824  11.318   8.297 -0.7211 -0.6615  0.2479
  702MOL0     C92580   7.101  11.193   8.114 -0.1942  0.1663  0.1693
  702MOL0     C92581   7.232  11.167   8.128 -0.4529  0.1144 -1.2240
  702MOL0     N92582   7.673  11.070   8.633  0.3358  0.4058  0.8326
  702MOL0     N92583   7.659  11.036   8.754  0.4256  0.0200  0.2097
  702MOL0     C92584   8.512  10.668   9.291  0.0848 -0.0287 -0.0165
  702MOL0     C92585   8.612  10.583   9.336 -1.1303  0.5870  0.0832
  702MOL0     C92586   8.984  10.358   9.432 -0.0613 -0.1645  0.5600
  702MOL0     C92587   8.997  10.283   9.551 -0.4108 -1.1396  0.2573
  702MOL0     C92588   9.099  10.192   9.579  0.1183  0.1333  0.1485
  702MOL0     C92589   9.194  10.172   9.484  0.4472 -0.0075 -1.0156
  702MOL0     O92590   9.296  10.077   9.518  0.0396 -0.1568  0.3594
  702MOL0     C92591   9.414  10.072   9.433  0.5790 -0.1052  0.1707
  702MOL0     C92592   9.540  10.007   9.503 -0.0703 -0.2151 -0.1958
  702MOL0     C92593   9.499   9.874   9.577 -0.3110 -0.5421 -0.8035
  702MOL0     C92594   9.437   9.893   9.718  0.2378 -0.3943 -0.5268
  702MOL0     C92595   9.443   9.761   9.785  0.2517  0.0049 -0.3231
  702MOL0     C92596   9.466   9.641   9.806  1.0036 -0.2568  0.7229
  702MOL0     C92597   9.176  10.236   9.355  1.5030  0.4483  0.0049
  702MOL0     C92598   9.072  10.328   9.330  0.1475 -0.6546  0.4992
  702MOL0     H92599   8.804  10.592   9.060 -0.4585  0.1483  0.5635
  702MOL0     H92600   8.627  10.790   9.004 -3.0288 -0.4445  0.9417
  702MOL0     H92601   8.324  10.879   9.307 -0.4464 -0.4769 -0.1150
  702MOL0     H92602   8.236  10.776   9.211  1.4386 -1.1239  0.5572
  702MOL0     H92603   8.249  10.952   9.013 -1.1062  0.8561 -0.5098
  702MOL0     H92604   8.294  11.054   9.149  3.2954 -2.4976  3.1425
  702MOL0     H92605   8.079  11.004   9.265 -0.0347 -6.3143  0.4213
  702MOL0     H92606   8.042  10.882   9.149  0.1544 -0.3644  0.9904
  702MOL0     H92607   8.079  11.172   9.081  1.0104 -0.2297  0.1533
  702MOL0     H92608   8.023  11.032   8.965 -4.2552 -0.0109 -0.6465
  702MOL0     H92609   7.863  11.128   9.218 -2.9138  3.7548 -0.5370
  702MOL0     H92610   7.819  11.013   9.100  0.5895 -0.3355  0.8185
  702MOL0     H92611   7.842  11.217   8.934 -1.2905  4.9900 -1.1061
  702MOL0     H92612   7.876  11.309   9.066 -0.5076 -0.6198  2.2511
  702MOL0     H92613   7.642  11.234   9.162  1.2659  0.0655  0.6700
  702MOL0     H92614   7.632  11.344   9.023 -1.8385 -1.8174  0.0121
  702MOL0     H92615   7.472  11.166   8.975 -0.1944  0.7790 -3.4015
  702MOL0     H92616   7.577  11.041   9.009 -0.5770  0.0770  0.6608
  702MOL0     H92617   7.581  11.357   8.761 -3.1574 -0.9150  1.0868
  702MOL0     H92618   7.688  11.390   8.514 -0.4161  0.1519 -2.6068
  702MOL0     H92619   7.545  11.307   8.468 -0.2305 -0.0259 -2.3415
  702MOL0     H92620   7.826  11.213   8.405 -1.4721  1.4978  2.3928
  702MOL0     H92621   7.718  11.290   8.282  2.9235 -0.6762 -1.5336
  702MOL0     H92622   7.693  11.061   8.230  0.8663  0.5751  0.2557
  702MOL0     H92623   7.723  11.018   8.394  0.6637 -0.1393  0.9519
  702MOL0     H92624   7.476  11.095   8.437 -0.5873 -4.2246 -0.4386
  702MOL0     H92625   7.466  10.983   8.308  0.1797 -0.8134 -0.1519
  702MOL0     H92626   7.287  11.276   8.443  1.6549  4.5682 -1.8255
  702MOL0     H92627   7.049  11.327   8.426 -1.2835 -0.3417 -0.8625
  702MOL0     H92628   6.681  10.995   8.072 -0.5781  1.1164 -0.0833
  702MOL0     H92629   6.457  10.975   8.059  1.2198 -0.2305 -0.2228
  702MOL0     H92630   6.157  11.119   8.202 -0.0392  0.5899 -0.7266
  702MOL0     H92631   6.260  10.996   8.147 -0.5847  0.8366  2.6731
  702MOL0     H92632   6.018  10.979   8.058 -1.3085  2.4496  1.2394
  702MOL0     H92633   6.147  11.001   7.935 -1.5093  0.0064 -1.1140
  702MOL0     H92634   6.036  11.230   7.899 -0.6886  0.1161  0.2814
  702MOL0     H92635   5.983  11.224   8.077  0.0803 -0.2706  0.2428
  702MOL0     H92636   5.887  11.015   7.891  2.6293  0.8732 -0.0777
  702MOL0     H92637   5.811  11.081   8.034 -1.6538  0.6855  0.2292
  702MOL0     H92638   5.692  11.151   7.821 -1.1336  0.3589  1.3719
  702MOL0     H92639   5.837  11.245   7.767 -0.5383  0.7207  0.4538
  702MOL0     H92640   5.822  11.378   7.989 -2.3662  3.4665 -0.4677
  702MOL0     H92641   5.682  11.276   8.020 -0.6726 -0.4481  0.2872
  702MOL0     H92642   5.659  11.516   7.909  0.6243 -0.1104  0.9414
  702MOL0     H92643   5.709  11.425   7.758  0.3771  0.1933 -0.2781
  702MOL0     H92644   5.480  11.391   7.942  1.2842 -1.2821  0.5983
  702MOL0     H92645   5.508  11.262   7.824 -1.1699  0.2756 -0.3065
  702MOL0     H92646   6.406  11.398   8.019  0.7861  1.4911  2.4178
  702MOL0     H92647   6.654  11.434   8.043  2.1156 -1.1732 -0.8207
  702MOL0     H92648   7.045  11.161   8.027 -0.3137  0.6212  0.0766
  702MOL0     H92649   7.298  11.121   8.055  0.2071 -0.2028 -0.4555
  702MOL0     H92650   8.428  10.682   9.359  0.1697 -1.0665  0.3183
  702MOL0     H92651   8.611  10.541   9.435  0.1618 -1.3978 -0.6943
  702MOL0     H92652   8.920  10.302   9.625 -2.2672 -2.1003 -1.3387
  702MOL0     H92653   9.105  10.138   9.673  1.7844 -0.9665 -0.5498
  702MOL0     H92654   9.453  10.171   9.407  0.2527 -0.0948 -0.2913
  702MOL0     H92655   9.378  10.013   9.349 -0.4222 -2.1578  1.9192
  702MOL0     H92656   9.621   9.995   9.430  1.4258  1.9315  0.9919
  702MOL0     H92657   9.566  10.080   9.580 -5.0661 -0.4279  2.0731
  702MOL0     H92658   9.591   9.817   9.589  2.3876  3.6975  0.7887
  702MOL0     H92659   9.425   9.830   9.510  1.7918  2.5861 -5.7114
  702MOL0     H92660   9.485   9.971   9.777 -1.1427  3.6658 -4.2229
  702MOL0     H92661   9.334   9.928   9.714  1.0111  2.5581  1.7949
  702MOL0     H92662   9.468   9.534   9.807 -0.2148 -0.3090 -0.1095
  702MOL0     H92663   9.244  10.223   9.272  1.3647  1.4717 -0.2826
  702MOL0     H92664   9.065  10.381   9.236 -3.4919 -2.2407 -0.2677
  703MOL0     O92665   4.432  10.094  10.081  0.5784 -0.6916 -0.5080
  703MOL0     C92666   4.507  10.052  10.168 -0.7624 -0.9441  0.1081
  703MOL0     O92667   4.634  10.011  10.147  0.4964  0.5610  1.3919
  703MOL0     C92668   4.679   9.996  10.018 -0.8023 -0.0326  0.2256
  703MOL0     C92669   4.668  10.086   9.910  0.1895  0.1457 -1.0139
  703MOL0     C92670   4.736  10.056   9.786 -0.0352 -0.5118 -0.0213
  703MOL0     C92671   4.799   9.937   9.765  0.5175  0.2301  0.1779
  703MOL0     O92672   4.858   9.897   9.648  0.4396 -0.1049 -0.5535
  703MOL0     C92673   4.929  10.005   9.595  0.4992  0.4377 -0.3075
  703MOL0     C92674   5.010   9.933   9.487 -0.2239 -0.0139 -0.4856
  703MOL0     C92675   4.921   9.943   9.359 -0.6931 -0.8714  0.0173
  703MOL0     C92676   5.027   9.906   9.254 -0.1041 -0.1947 -0.5452
  703MOL0     C92677   4.974   9.861   9.112 -0.5316 -1.0694 -0.2567
  703MOL0     C92678   4.904   9.980   9.045  1.0928 -0.4997  0.2601
  703MOL0     C92679   4.757   9.990   9.092 -0.0001 -0.5320 -0.0980
  703MOL0     C92680   4.672   9.990   8.971 -0.2080  0.0877 -0.8588
  703MOL0     N92681   4.668  10.124   8.908 -0.5196  0.2502 -0.3031
  703MOL0     C92682   4.759  10.230   8.930 -0.5260 -0.8017 -0.3903
  703MOL0     C92683   4.732  10.327   8.838  0.2022 -0.4529  0.0893
  703MOL0     C92684   4.804  10.463   8.826 -0.0518  0.1549  0.0735
  703MOL0     C92685   4.852  10.505   8.676  0.3688  0.9253  0.6247
  703MOL0     C92686   4.733  10.513   8.577 -0.7365  0.3330  0.7365
  703MOL0     C92687   4.768  10.579   8.437 -0.8478 -0.2962  0.1353
  703MOL0     O92688   4.657  10.587   8.352 -0.0910 -0.0203 -0.5646
  703MOL0     C92689   4.675  10.663   8.239 -0.2069 -0.4563  0.1486
  703MOL0     C92690   4.790  10.722   8.187  0.1952  0.3722 -0.1598
  703MOL0     C92691   4.782  10.800   8.070  0.1184  0.5637  0.0181
  703MOL0     C92692   4.667  10.807   7.992  0.7495 -0.0041 -0.2910
  703MOL0     C92693   4.664  10.879   7.863  0.0577  1.0015  0.1605
  703MOL0     O92694   4.539  10.876   7.810 -0.3029 -0.0757  0.0983
  703MOL0     C92695   4.530  10.926   7.685  0.4553 -0.2730 -0.0610
  703MOL0     C92696   4.477  11.047   7.654  1.4393  0.2667  0.0424
  703MOL0     C92697   4.447  11.094   7.525 -0.1651  0.7998 -0.4263
  703MOL0     C92698   4.462  11.003   7.421  0.4187 -0.3362 -0.1036
  703MOL0     O92699   4.429  11.024   7.291  0.1264 -0.6287 -0.1252
  703MOL0     C92700   4.287  11.014   7.280 -0.4858 -0.6830  0.7539
  703MOL0     C92701   4.259  10.899   7.180 -0.7968  0.7840  0.0040
  703MOL0     C92702   4.110  10.878   7.135  0.1399  1.0272 -0.5507
  703MOL0     C92703   4.091  10.758   7.044  0.4274 -0.0640 -0.0709
  703MOL0     C92704   4.132  10.779   6.898  0.1835 -0.0931 -0.3132
  703MOL0     C92705   4.105  10.653   6.823 -0.4648  0.1071  0.1396
  703MOL0     C92706   4.180  10.642   6.693  0.1829  0.3249 -0.4166
  703MOL0     C92707   4.105  10.702   6.570 -0.4263 -0.9493 -0.0813
  703MOL0    Cl92708   3.960  10.607   6.530 -0.3929 -0.0418  0.5828
  703MOL0     C92709   4.530  10.884   7.445  0.1897 -0.7039  0.2201
  703MOL0     C92710   4.552  10.839   7.576 -0.1445  0.7178 -0.2814
  703MOL0     O92711   4.763  10.944   7.825 -0.1899 -1.1782  0.0002
  703MOL0     C92712   4.555  10.738   8.043  0.5068  0.0780 -0.2116
  703MOL0     C92713   4.559  10.675   8.164 -0.4247  0.0361  0.3033
  703MOL0     N92714   4.610  10.292   8.780  0.0580  0.3757  0.3196
  703MOL0     N92715   4.568  10.177   8.835  0.0202  0.4437  0.2657
  703MOL0     C92716   4.797   9.840   9.867 -0.4803  0.1602  0.5865
  703MOL0     C92717   4.743   9.872   9.993 -0.0815 -0.3886 -0.0819
  703MOL0     C92718   4.468  10.063  10.312  0.4569  0.0007 -0.1095
  703MOL0     C92719   4.564  10.108  10.398 -0.0637  0.4214 -0.1298
  703MOL0     C92720   4.538  10.142  10.532 -0.6384 -0.0734  0.6156
  703MOL0     C92721   4.410  10.111  10.575  0.6376  0.3262  0.0722
  703MOL0     O92722   4.401  10.136  10.712 -0.2311  0.1289 -0.3921
  703MOL0     C92723   4.319  10.044  10.780 -0.5953 -0.2347 -0.3061
  703MOL0     C92724   4.344  10.067  10.931  0.1006  0.9201  0.7173
  703MOL0     C92725   4.260   9.973  11.017 -0.3359  0.2178  1.1477
  703MOL0     C92726   4.270   9.995  11.170 -0.7477 -0.8059 -0.2663
  703MOL0     C92727   4.178   9.901  11.235  0.3882 -0.5273  0.5195
  703MOL0     C92728   4.118   9.811  11.289  0.2822 -0.5960 -0.1819
  703MOL0     C92729   4.310  10.056  10.489 -1.0782  0.1429  0.6524
  703MOL0     C92730   4.338  10.033  10.353 -0.2268 -0.2680 -0.5246
  703MOL0     H92731   4.602  10.170   9.926 -1.0429 -1.4880  4.3410
  703MOL0     H92732   4.718  10.118   9.699  0.7670  0.3728  0.4289
  703MOL0     H92733   5.000  10.050   9.664  2.2329 -1.5551 -0.6897
  703MOL0     H92734   4.870  10.085   9.551  1.5785  1.4255 -0.0157
  703MOL0     H92735   5.018   9.826   9.508 -0.9646 -0.1832 -1.0373
  703MOL0     H92736   5.110   9.975   9.472 -0.3806 -0.1284 -1.9731
  703MOL0     H92737   4.894  10.046   9.336  0.5796 -0.8187 -1.4167
  703MOL0     H92738   4.842   9.869   9.344 -1.3726  0.1521 -1.6847
  703MOL0     H92739   5.114   9.970   9.239  0.8464 -1.6679 -1.6073
  703MOL0     H92740   5.075   9.814   9.287 -0.8113  0.1669  1.6436
  703MOL0     H92741   4.905   9.781   9.138 -0.5766 -0.3978  1.8357
  703MOL0     H92742   5.054   9.821   9.049 -0.8545  0.0144 -1.3978
  703MOL0     H92743   4.913   9.980   8.936  0.4332  0.6052  0.1855
  703MOL0     H92744   4.959  10.065   9.085  1.2761 -0.6851  0.3996
  703MOL0     H92745   4.721   9.907   9.153 -1.7141  0.0051 -0.3384
  703MOL0     H92746   4.753  10.079   9.156  2.9972  0.1745 -0.7186
  703MOL0     H92747   4.572   9.958   9.001  0.7027 -3.1819 -0.9056
  703MOL0     H92748   4.707   9.920   8.894  1.0854  1.5362 -1.6459
  703MOL0     H92749   4.850  10.232   8.990  0.3101  0.5206 -1.6223
  703MOL0     H92750   4.881  10.453   8.902 -2.9853 -2.5215  3.0225
  703MOL0     H92751   4.730  10.537   8.858  0.1822  0.9808 -1.2181
  703MOL0     H92752   4.933  10.436   8.650  1.6662  3.3897 -2.5487
  703MOL0     H92753   4.888  10.605   8.703  0.0122  0.1655  4.5340
  703MOL0     H92754   4.682  10.417   8.571  0.8308 -0.7108  2.8638
  703MOL0     H92755   4.655  10.575   8.622 -1.8590  0.2281 -0.9713
  703MOL0     H92756   4.846  10.519   8.391 -0.2377  0.5537  0.0413
  703MOL0     H92757   4.807  10.679   8.457 -1.7357  0.2069 -0.5744
  703MOL0     H92758   4.887  10.713   8.235 -0.0176  1.9119  0.6106
  703MOL0     H92759   4.858  10.856   8.018  0.7102 -0.3420 -0.1278
  703MOL0     H92760   4.450  11.113   7.736  0.6699 -1.9263  1.6291
  703MOL0     H92761   4.397  11.190   7.523 -0.7121  0.7575  3.5943
  703MOL0     H92762   4.247  11.109   7.244 -2.2875 -1.7042 -0.1192
  703MOL0     H92763   4.228  10.988   7.369 -2.1542 -0.2140 -0.1624
  703MOL0     H92764   4.297  10.802   7.212  0.2676  1.6323  1.4467
  703MOL0     H92765   4.306  10.920   7.084  2.2491  1.6104  1.5443
  703MOL0     H92766   4.067  10.961   7.078 -0.9151  1.4507  0.8187
  703MOL0     H92767   4.043  10.864   7.220 -0.8843  3.7091 -0.8176
  703MOL0     H92768   4.136  10.669   7.088  0.6672  0.2060  0.2353
  703MOL0     H92769   3.984  10.735   7.046 -0.6724  4.2107  2.2238
  703MOL0     H92770   4.239  10.802   6.893  0.2493  0.1256  1.4541
  703MOL0     H92771   4.068  10.858   6.858  0.2369  1.0852  1.7521
  703MOL0     H92772   4.000  10.635   6.802 -0.7388  0.0623  1.4690
  703MOL0     H92773   4.144  10.561   6.868  0.5864  0.0452 -0.8355
  703MOL0     H92774   4.281  10.682   6.705 -0.4832  2.0086 -0.1079
  703MOL0     H92775   4.196  10.537   6.669  1.5846 -0.5443  3.5669
  703MOL0     H92776   4.172  10.701   6.484  0.4529  1.1905  0.5091
  703MOL0     H92777   4.094  10.810   6.584  3.8975 -0.0943 -1.6526
  703MOL0     H92778   4.562  10.827   7.359  1.9154  0.8373 -0.2291
  703MOL0     H92779   4.588  10.738   7.590 -0.9554  0.2690 -1.2869
  703MOL0     H92780   4.460  10.733   7.990  2.5431 -1.5274 -4.1041
  703MOL0     H92781   4.465  10.634   8.199 -0.4196 -0.5190 -0.3137
  703MOL0     H92782   4.842   9.744   9.847 -1.0240  0.0610 -0.2126
  703MOL0     H92783   4.771   9.804  10.072 -1.5939 -2.1029 -0.9706
  703MOL0     H92784   4.666  10.125  10.363 -0.7459  2.2954 -1.3810
  703MOL0     H92785   4.612  10.187  10.597  0.2754 -0.6118 -0.0250
  703MOL0     H92786   4.350   9.942  10.757  2.5802  0.7149 -0.6568
  703MOL0     H92787   4.210  10.042  10.765 -0.4886  0.0904 -1.1375
  703MOL0     H92788   4.449  10.041  10.948  0.1270 -1.9591 -2.6478
  703MOL0     H92789   4.317  10.171  10.952  0.5676  1.3509 -0.6940
  703MOL0     H92790   4.299   9.873  10.997  0.3751  0.4841  1.1634
  703MOL0     H92791   4.159   9.977  10.975  0.4514 -1.5342 -1.1754
  703MOL0     H92792   4.372   9.971  11.200 -0.6707 -1.8521 -1.3036
  703MOL0     H92793   4.256  10.099  11.200 -1.9040 -0.8337 -0.6566
  703MOL0     H92794   4.053   9.738  11.332  0.2503 -1.1341 -1.1195
  703MOL0     H92795   4.216  10.016  10.526 -1.5503 -0.3434 -0.9673
  703MOL0     H92796   4.264   9.981  10.293  3.6104 -1.6302 -4.5697
  704MOL0     O92797   2.563   1.276   4.350  0.1819 -0.6497  0.3089
  704MOL0     C92798   2.601   1.165   4.322  0.0122 -0.7375  0.2154
  704MOL0     O92799   2.555   1.048   4.384  0.0456 -0.6699  0.3979
  704MOL0     C92800   2.476   1.040   4.503  0.8110  0.6402  0.2939
  704MOL0     C92801   2.404   0.921   4.533  0.1360  0.6640 -0.1783
  704MOL0     C92802   2.334   0.905   4.645  1.0271  0.3859 -0.7951
  704MOL0     C92803   2.318   1.009   4.741  0.1234  0.1115 -1.3791
  704MOL0     O92804   2.245   0.981   4.862 -0.1073 -0.7389 -0.8495
  704MOL0     C92805   2.280   1.072   4.975  0.3721  0.4988  1.1796
  704MOL0     C92806   2.232   0.990   5.097  0.4056  0.6538 -0.2897
  704MOL0     C92807   2.264   1.064   5.225 -0.3027  0.2821  0.5352
  704MOL0     C92808   2.197   1.021   5.353  0.1777 -0.9191 -0.4887
  704MOL0     C92809   2.239   1.122   5.466 -0.1282  1.1594 -0.0883
  704MOL0     C92810   2.212   1.067   5.603 -0.4527  0.3579 -0.5229
  704MOL0     C92811   2.197   1.176   5.709  0.4057 -0.2577  0.6472
  704MOL0     C92812   2.299   1.293   5.695  0.7092 -0.3143 -0.1204
  704MOL0     N92813   2.246   1.415   5.765  0.2923  0.2104 -0.4066
  704MOL0     C92814   2.219   1.426   5.903 -0.7314  0.0474  0.3500
  704MOL0     C92815   2.142   1.539   5.929 -0.5290  0.6356  1.1675
  704MOL0     C92816   2.082   1.588   6.054  0.6986 -0.3544  0.4824
  704MOL0     C92817   1.974   1.511   6.120  0.3678 -0.1493  1.0787
  704MOL0     C92818   1.845   1.507   6.038 -0.6393 -0.0336 -0.1143
  704MOL0     C92819   1.742   1.439   6.122  0.0883 -1.1172  0.3883
  704MOL0     O92820   1.611   1.448   6.069 -0.2141 -0.5979 -0.6779
  704MOL0     C92821   1.544   1.333   6.055 -0.4296  0.2347  0.8407
  704MOL0     C92822   1.487   1.296   5.931  0.3892 -0.3842 -0.4057
  704MOL0     C92823   1.397   1.186   5.926  1.2933 -0.2455 -0.1890
  704MOL0     C92824   1.382   1.106   6.046  1.0791 -0.5133  0.8470
  704MOL0     C92825   1.283   0.995   6.037 -0.1598  0.4946 -0.0421
  704MOL0     O92826   1.209   0.979   5.919 -0.8096  0.3690 -0.3471
  704MOL0     C92827   1.116   0.882   5.938  0.4642  0.8569 -1.2036
  704MOL0     C92828   1.112   0.759   5.866  0.5771  0.7641  0.4336
  704MOL0     C92829   1.007   0.669   5.872 -0.2055 -0.1038 -0.5151
  704MOL0     C92830   0.903   0.702   5.963 -0.1422 -0.4850  0.7316
  704MOL0     O92831   0.788   0.619   5.969 -0.5477 -0.2950  0.2559
  704MOL0     C92832   0.792   0.489   6.024  0.4803 -1.0242 -0.6456
  704MOL0     C92833   0.830   0.505   6.178 -0.3986 -0.3833  0.0689
  704MOL0     C92834   0.783   0.383   6.255 -0.1375 -0.5891 -0.2416
  704MOL0     C92835   0.639   0.400   6.314  0.4779  0.0154 -0.4414
  704MOL0     C92836   0.563   0.265   6.345  0.2993  0.4878  0.2389
  704MOL0     C92837   0.640   0.161   6.431 -0.6113 -0.2053 -0.2093
  704MOL0     C92838   0.570   0.019   6.411  1.0781  0.1357  0.4803
  704MOL0     C92839   0.649  -0.109   6.455  0.1713 -0.2865 -0.0822
  704MOL0    Cl92840   0.533  -0.257   6.436  0.1042  0.1603 -0.5811
  704MOL0     C92841   0.901   0.825   6.034 -0.2465  0.0801  0.4992
  704MOL0     C92842   1.005   0.912   6.022 -0.2879 -0.0807 -0.4882
  704MOL0     O92843   1.279   0.925   6.138 -0.0320  0.6859  0.4651
  704MOL0     C92844   1.446   1.136   6.169 -0.3030 -0.2489 -0.0790
  704MOL0     C92845   1.525   1.255   6.169  0.3626  0.3651 -0.3007
  704MOL0     N92846   2.128   1.597   5.811 -0.0356  0.6583 -0.7798
  704MOL0     N92847   2.187   1.526   5.714  0.2795 -0.6119  0.2540
  704MOL0     C92848   2.388   1.126   4.708  0.6082 -1.1849 -0.1259
  704MOL0     C92849   2.469   1.137   4.599 -0.4403  0.4347 -0.7962
  704MOL0     C92850   2.725   1.147   4.246 -0.4727 -0.0851  0.8450
  704MOL0     C92851   2.773   1.019   4.197 -0.0435  0.5283 -0.1328
  704MOL0     C92852   2.897   1.008   4.130 -0.0257  0.0297 -0.8570
  704MOL0     C92853   2.975   1.118   4.087  0.9987  0.8734  0.7043
  704MOL0     O92854   3.077   1.078   4.003  0.2271 -0.5388  0.4105
  704MOL0     C92855   3.168   1.185   3.959  0.6219 -0.5270  0.7444
  704MOL0     C92856   3.263   1.127   3.847  0.5872 -0.4359 -0.3359
  704MOL0     C92857   3.396   1.078   3.909 -0.1180 -0.0954  0.7036
  704MOL0     C92858   3.494   1.200   3.925 -0.3239  0.1337 -0.0078
  704MOL0     C92859   3.539   1.263   3.799  0.2649  0.5663 -0.0168
  704MOL0     C92860   3.566   1.342   3.702  0.6432  0.4383  0.1064
  704MOL0     C92861   2.928   1.240   4.126  0.3369  0.0431 -0.6096
  704MOL0     C92862   2.807   1.251   4.202 -0.0357 -0.6578  0.0099
  704MOL0     H92863   2.388   0.843   4.459  2.6787  1.1090 -1.2832
  704MOL0     H92864   2.267   0.823   4.669  2.4762 -0.4928  0.4509
  704MOL0     H92865   2.243   1.174   4.969  1.7843  0.9358 -1.1038
  704MOL0     H92866   2.389   1.066   4.987  0.5498  2.6024  0.9732
  704MOL0     H92867   2.285   0.894   5.095  2.8127  1.9027  0.3040
  704MOL0     H92868   2.126   0.965   5.085  0.8820 -1.0197 -1.3768
  704MOL0     H92869   2.249   1.172   5.228 -2.2474  0.0336  1.5480
  704MOL0     H92870   2.372   1.049   5.231  0.0564  2.2514 -0.4004
  704MOL0     H92871   2.088   1.022   5.350  0.1678 -1.4144 -0.4125
  704MOL0     H92872   2.229   0.920   5.381  1.4112  0.0032  1.7388
  704MOL0     H92873   2.177   1.210   5.444 -0.8881  0.3152 -1.5191
  704MOL0     H92874   2.344   1.144   5.444 -0.4343  1.7901 -0.9738
  704MOL0     H92875   2.287   0.994   5.634 -0.2635  0.6173 -0.3609
  704MOL0     H92876   2.117   1.013   5.599  0.0110 -0.4939 -0.2982
  704MOL0     H92877   2.098   1.223   5.703  0.5858  0.2555  1.4788
  704MOL0     H92878   2.199   1.131   5.809 -1.5373  1.1074  1.3645
  704MOL0     H92879   2.303   1.337   5.595  1.0930 -1.9386 -0.8428
  704MOL0     H92880   2.399   1.268   5.732  2.4851  2.6714 -2.4396
  704MOL0     H92881   2.261   1.368   5.984  2.3981  1.5922 -0.0124
  704MOL0     H92882   2.028   1.682   6.043 -2.0577 -1.6560  1.9356
  704MOL0     H92883   2.156   1.612   6.131  1.1178  2.7752 -0.7546
  704MOL0     H92884   1.973   1.548   6.223 -1.1014  1.2881  0.5894
  704MOL0     H92885   2.007   1.409   6.142  2.6112 -0.5090 -2.8996
  704MOL0     H92886   1.820   1.613   6.025 -2.0712 -0.2769  0.4644
  704MOL0     H92887   1.854   1.461   5.939  0.5580  1.6555 -0.8547
  704MOL0     H92888   1.739   1.491   6.218  2.2093 -1.3014  0.5993
  704MOL0     H92889   1.780   1.340   6.147  2.0665 -0.4863  0.0778
  704MOL0     H92890   1.501   1.347   5.837  2.2502 -1.3175 -0.6695
  704MOL0     H92891   1.336   1.153   5.844 -0.3628 -1.8522  1.5835
  704MOL0     H92892   1.188   0.733   5.793 -2.9194  2.0236 -4.1141
  704MOL0     H92893   1.003   0.577   5.814  1.4296  0.4805 -1.6380
  704MOL0     H92894   0.864   0.426   5.972 -0.1455 -1.1558 -1.3606
  704MOL0     H92895   0.688   0.457   6.016  0.4088 -0.6094 -1.5299
  704MOL0     H92896   0.793   0.602   6.213 -0.3497 -1.0569  2.1551
  704MOL0     H92897   0.939   0.506   6.186 -0.4113  0.8808  0.3115
  704MOL0     H92898   0.847   0.352   6.338  0.0600  0.8777  0.1868
  704MOL0     H92899   0.776   0.292   6.194  3.8887 -0.9768 -0.3660
  704MOL0     H92900   0.627   0.466   6.400 -1.3570 -0.4384 -0.2972
  704MOL0     H92901   0.563   0.431   6.241 -2.3213 -3.8854  0.4690
  704MOL0     H92902   0.535   0.220   6.249 -1.4597  1.6756  0.1566
  704MOL0     H92903   0.467   0.291   6.391 -0.5379 -0.7595 -0.7227
  704MOL0     H92904   0.643   0.190   6.536  1.7200 -1.7272  0.2172
  704MOL0     H92905   0.745   0.159   6.402 -1.3186 -1.9872 -3.0957
  704MOL0     H92906   0.479   0.029   6.470  0.0856  0.6300 -1.0873
  704MOL0     H92907   0.537   0.002   6.309  2.4704  0.0315  0.0267
  704MOL0     H92908   0.689  -0.099   6.557  1.1906  0.5583 -0.5432
  704MOL0     H92909   0.731  -0.127   6.386 -0.0301  2.3903 -1.1638
  704MOL0     H92910   0.820   0.859   6.097  0.0739  0.6753  0.5979
  704MOL0     H92911   1.006   0.998   6.088  1.8155 -0.4982  0.1064
  704MOL0     H92912   1.450   1.066   6.252  1.3383 -0.6854 -0.4939
  704MOL0     H92913   1.569   1.281   6.265 -2.3339  0.0431  1.1240
  704MOL0     H92914   2.381   1.207   4.780 -0.0853 -2.0878  0.8493
  704MOL0     H92915   2.533   1.224   4.589 -0.3604  0.4149 -0.4548
  704MOL0     H92916   2.713   0.931   4.218 -1.0262  1.2835  0.3036
  704MOL0     H92917   2.929   0.908   4.105  1.4051  0.3195 -0.3107
  704MOL0     H92918   3.235   1.210   4.042  1.8011 -0.1363 -0.3027
  704MOL0     H92919   3.101   1.267   3.930 -0.6398 -2.1816 -1.3015
  704MOL0     H92920   3.213   1.042   3.800 -2.1147  1.0528 -0.3546
  704MOL0     H92921   3.280   1.198   3.765 -1.3787 -0.5506 -0.8748
  704MOL0     H92922   3.441   1.013   3.834  2.8163  2.5710 -0.0829
  704MOL0     H92923   3.393   1.009   3.994  0.5017 -1.8913 -0.6859
  704MOL0     H92924   3.434   1.272   3.982 -2.6247 -0.7014 -1.2427
  704MOL0     H92925   3.579   1.171   3.987  1.5137  1.9281 -1.5521
  704MOL0     H92926   3.571   1.396   3.610 -3.5779  3.0991  1.1636
  704MOL0     H92927   2.990   1.325   4.099 -0.6823  1.4487  1.2161
  704MOL0     H92928   2.778   1.351   4.232 -0.8681 -1.4786  2.2001
  705MOL0     O92929   0.714   9.488   7.219  0.7292  0.0839 -0.7079
  705MOL0     C92930   0.709   9.552   7.108  0.1701  1.0553 -0.7521
  705MOL0     O92931   0.599   9.589   7.038  0.2116  0.3418  0.4239
  705MOL0     C92932   0.464   9.560   7.075  0.3011  0.0294 -0.9738
  705MOL0     C92933   0.418   9.467   7.176 -0.2926 -0.6908  0.1051
  705MOL0     C92934   0.293   9.470   7.228  0.7272 -0.8070  0.9251
  705MOL0     C92935   0.197   9.554   7.170  0.3298  0.0545 -0.4444
  705MOL0     O92936   0.077   9.573   7.227  0.3924  0.0968 -0.1546
  705MOL0     C92937  -0.040   9.567   7.133 -0.5248 -0.4620  0.2236
  705MOL0     C92938  -0.177   9.540   7.208  0.8588 -0.1228  0.4085
  705MOL0     C92939  -0.292   9.556   7.112 -0.7396  0.2504 -0.1006
  705MOL0     C92940  -0.425   9.509   7.160 -0.1525 -0.4025  0.5118
  705MOL0     C92941  -0.513   9.491   7.037  0.5689  0.1630  0.6167
  705MOL0     C92942  -0.642   9.434   7.070 -0.5710  0.1417 -0.4607
  705MOL0     C92943  -0.714   9.398   6.938 -0.0105  0.0233  0.4003
  705MOL0     C92944  -0.867   9.362   6.946  1.0386 -0.0491 -0.4958
  705MOL0     N92945  -0.942   9.487   6.978 -0.5066  1.1396 -0.4956
  705MOL0     C92946  -0.973   9.537   7.097 -0.6462  0.2479 -0.3038
  705MOL0     C92947  -1.010   9.661   7.079 -1.3110 -0.1153  0.7921
  705MOL0     C92948  -1.067   9.748   7.190  0.4994  0.0170  0.4523
  705MOL0     C92949  -1.220   9.746   7.191  0.2665  0.4249 -1.6711
  705MOL0     C92950  -1.284   9.857   7.283  0.4037  0.0341 -1.1938
  705MOL0     C92951  -1.351   9.800   7.401 -1.0711 -0.0819 -0.0946
  705MOL0     O92952  -1.454   9.712   7.365 -0.8080  0.4782  0.2982
  705MOL0     C92953  -1.562   9.785   7.318 -0.6242  0.5393 -0.8877
  705MOL0     C92954  -1.579   9.814   7.183 -0.0492 -0.6513  0.7775
  705MOL0     C92955  -1.692   9.882   7.136 -0.7232  0.3305 -0.0636
  705MOL0     C92956  -1.793   9.919   7.224  0.8234  1.6112 -0.2212
  705MOL0     C92957  -1.918   9.980   7.172  0.1142 -0.4202  0.2953
  705MOL0     O92958  -1.934   9.978   7.045  0.0112  0.2732  0.2098
  705MOL0     C92959  -2.052  10.029   6.994 -0.1610  0.8533  0.4685
  705MOL0     C92960  -2.159   9.951   6.983 -0.1117  0.3573  0.3197
  705MOL0     C92961  -2.281  10.004   6.942 -0.1356  0.4489  0.7344
  705MOL0     C92962  -2.289  10.144   6.913 -0.5101  0.5054 -0.3079
  705MOL0     O92963  -2.407  10.188   6.864 -0.5265 -0.3397 -0.1693
  705MOL0     C92964  -2.392  10.275   6.755 -0.7872 -0.4036  0.2200
  705MOL0     C92965  -2.511  10.370   6.763 -0.4207 -0.9923 -0.6616
  705MOL0     C92966  -2.645  10.294   6.713  0.1891  0.2068  0.4610
  705MOL0     C92967  -2.760  10.398   6.712 -0.3858 -0.9448  0.2526
  705MOL0     C92968  -2.893  10.337   6.666 -0.1941 -1.0222 -0.5680
  705MOL0     C92969  -3.001  10.454   6.658 -0.0854 -0.3298 -0.1658
  705MOL0     C92970  -3.129  10.404   6.603  0.0006  0.0340 -0.4522
  705MOL0     C92971  -3.134  10.351   6.458  0.4419  0.8595  0.5167
  705MOL0    Cl92972  -3.305  10.347   6.417 -0.6329 -0.1745  0.3587
  705MOL0     C92973  -2.179  10.223   6.939  0.0938  0.5914 -0.4635
  705MOL0     C92974  -2.057  10.163   6.977 -0.4216  0.3736  0.2995
  705MOL0     O92975  -1.997  10.019   7.254  0.9439 -0.1913 -0.0940
  705MOL0     C92976  -1.779   9.882   7.361 -0.7506 -0.1808 -0.5877
  705MOL0     C92977  -1.665   9.823   7.410 -0.3734  0.6527  0.0776
  705MOL0     N92978  -0.986   9.682   6.948  0.7325 -0.5698  0.0213
  705MOL0     N92979  -0.932   9.588   6.892 -0.1493 -0.5243  0.8398
  705MOL0     C92980   0.239   9.642   7.064  0.8785  0.2484 -0.2403
  705MOL0     C92981   0.365   9.647   7.010 -0.0014  1.5767  0.0521
  705MOL0     C92982   0.841   9.609   7.067  0.7712  0.3340 -1.2763
  705MOL0     C92983   0.965   9.563   7.125  0.3963  0.6568  0.0662
  705MOL0     C92984   1.094   9.621   7.087 -0.3818  0.0688 -0.2490
  705MOL0     C92985   1.093   9.732   6.996  0.0118 -0.4844  0.5768
  705MOL0     O92986   1.209   9.796   6.941 -0.6971  0.7694 -0.1522
  705MOL0     C92987   1.292   9.707   6.870  0.0994 -0.3888 -0.0551
  705MOL0     C92988   1.413   9.780   6.817  0.2370 -0.1422  0.2328
  705MOL0     C92989   1.498   9.834   6.929 -0.5245  0.3513  0.1696
  705MOL0     C92990   1.524   9.988   6.935 -0.3661 -0.0089  0.4782
  705MOL0     C92991   1.600  10.022   6.812 -0.3969 -0.8309  0.1144
  705MOL0     C92992   1.666  10.076   6.719  0.0359  0.1154 -0.5160
  705MOL0     C92993   0.966   9.774   6.943 -0.9460 -0.2153 -0.1168
  705MOL0     C92994   0.844   9.716   6.974  0.4865  0.2584 -0.0830
  705MOL0     H92995   0.487   9.393   7.217 -0.1688  0.8315  2.8746
  705MOL0     H92996   0.251   9.395   7.294 -3.3465 -1.0487 -1.5415
  705MOL0     H92997  -0.027   9.484   7.064 -0.1942  1.3966 -2.0647
  705MOL0     H92998  -0.035   9.664   7.083  0.1342  0.0829  1.3160
  705MOL0     H92999  -0.194   9.609   7.291 -0.8512  0.3990 -0.3204
  705MOL0     H93000  -0.183   9.433   7.231 -0.3802  0.3019  2.2682
  705MOL0     H93001  -0.258   9.522   7.014  2.9575  2.5421  0.1820
  705MOL0     H93002  -0.283   9.663   7.089  3.6254 -0.2173 -1.4484
  705MOL0     H93003  -0.428   9.419   7.223 -1.1481 -0.7674 -0.0269
  705MOL0     H93004  -0.462   9.596   7.214  0.5808  1.0178 -1.1988
  705MOL0     H93005  -0.455   9.428   6.968  4.3646  2.3224  1.5124
  705MOL0     H93006  -0.519   9.582   6.977  2.9909 -0.9177 -1.4915
  705MOL0     H93007  -0.705   9.503   7.128  1.8985  0.5350  1.9382
  705MOL0     H93008  -0.634   9.347   7.136 -0.4733 -0.2358 -0.9622
  705MOL0     H93009  -0.691   9.472   6.861 -0.7013 -0.8032 -0.6436
  705MOL0     H93010  -0.668   9.302   6.911 -0.6036  0.6965 -3.6560
  705MOL0     H93011  -0.897   9.293   7.026  0.8391  0.0584 -0.4761
  705MOL0     H93012  -0.913   9.320   6.855  3.6436  0.3242 -2.0726
  705MOL0     H93013  -0.970   9.484   7.191  1.4104 -1.7416 -1.4076
  705MOL0     H93014  -1.021   9.847   7.186 -0.1314  0.3623  1.2963
  705MOL0     H93015  -1.028   9.715   7.287  2.2304  2.3508  0.6283
  705MOL0     H93016  -1.249   9.646   7.226 -1.5674  2.3945  3.3177
  705MOL0     H93017  -1.271   9.766   7.097 -1.4974  0.8900 -0.6645
  705MOL0     H93018  -1.207   9.926   7.318  0.2048 -1.6588  3.2258
  705MOL0     H93019  -1.346   9.913   7.212 -1.2116 -1.4807 -1.0490
  705MOL0     H93020  -1.375   9.883   7.469 -1.3360  1.2902 -1.7658
  705MOL0     H93021  -1.262   9.754   7.444  0.5547  1.3321 -1.8057
  705MOL0     H93022  -1.500   9.787   7.113  0.5405  0.6548  0.9027
  705MOL0     H93023  -1.707   9.900   7.030  1.2639  2.5366 -0.0541
  705MOL0     H93024  -2.144   9.846   7.005  3.9385  1.4977  4.7085
  705MOL0     H93025  -2.366   9.937   6.933  1.6390 -1.8865  0.7188
  705MOL0     H93026  -2.409  10.203   6.675  0.0216 -0.9756  0.5519
  705MOL0     H93027  -2.294  10.323   6.753 -1.1252  0.4586  2.0162
  705MOL0     H93028  -2.495  10.456   6.697 -4.1525 -1.2238 -2.1009
  705MOL0     H93029  -2.521  10.421   6.859 -0.6660  0.1089 -1.2605
  705MOL0     H93030  -2.667  10.220   6.790  0.4003  0.6232  0.9281
  705MOL0     H93031  -2.639  10.251   6.612  0.9638 -0.5259  0.8045
  705MOL0     H93032  -2.774  10.449   6.807 -0.5421 -0.5285  0.0069
  705MOL0     H93033  -2.730  10.475   6.641 -0.1036 -1.3456 -0.0698
  705MOL0     H93034  -2.922  10.266   6.744  2.3302 -2.9941 -1.2771
  705MOL0     H93035  -2.885  10.287   6.569 -1.7057  0.4466 -1.5059
  705MOL0     H93036  -2.958  10.523   6.585  3.4954 -3.6884 -1.5501
  705MOL0     H93037  -3.011  10.494   6.760 -2.0395  0.4440 -0.6047
  705MOL0     H93038  -3.152  10.315   6.663  1.4109  0.3034  0.5533
  705MOL0     H93039  -3.200  10.486   6.617  0.2227  0.8976 -3.5578
  705MOL0     H93040  -3.089  10.251   6.452 -0.8924  0.2977 -0.6015
  705MOL0     H93041  -3.084  10.419   6.388 -0.4764  2.0877  1.0235
  705MOL0     H93042  -2.164  10.329   6.918 -0.6126  0.3502 -2.3392
  705MOL0     H93043  -1.967  10.218   7.002 -0.7704  1.6779 -1.1835
  705MOL0     H93044  -1.853   9.909   7.435 -1.5941  1.3644 -1.9316
  705MOL0     H93045  -1.657   9.789   7.513 -0.5884  2.5355  0.7567
  705MOL0     H93046   0.174   9.717   7.021 -1.3439 -1.0410  0.7291
  705MOL0     H93047   0.390   9.721   6.934  1.5438  0.8876 -0.1384
  705MOL0     H93048   0.954   9.481   7.196 -0.1602  1.1634  0.5782
  705MOL0     H93049   1.187   9.588   7.132 -1.3862 -2.0790  0.4093
  705MOL0     H93050   1.230   9.670   6.788  1.1766  1.0319 -1.5618
  705MOL0     H93051   1.317   9.627   6.941 -0.8919 -0.4649  0.2239
  705MOL0     H93052   1.462   9.709   6.749 -2.0265  0.8921 -2.7322
  705MOL0     H93053   1.394   9.862   6.746  1.2543 -0.5133 -0.4970
  705MOL0     H93054   1.594   9.784   6.913 -0.1123  1.6693 -1.8608
  705MOL0     H93055   1.457   9.787   7.019 -1.0318 -0.6740 -0.5718
  705MOL0     H93056   1.424  10.033   6.932 -0.5989 -0.3986  2.0050
  705MOL0     H93057   1.571  10.015   7.030 -0.4264 -0.2206  0.5675
  705MOL0     H93058   1.733  10.117   6.646  1.7896 -0.4473  0.6893
  705MOL0     H93059   0.972   9.856   6.872  0.8455  0.5903  0.8843
  705MOL0     H93060   0.753   9.741   6.922 -1.0690 -2.0912  1.2982
  706MOL0     O93061   8.948   5.306   1.381 -0.5905 -0.0763 -0.1921
  706MOL0     C93062   8.859   5.356   1.315 -0.4853 -0.2124  0.4388
  706MOL0     O93063   8.794   5.476   1.343  0.0335 -0.1828  0.5536
  706MOL0     C93064   8.814   5.569   1.447 -0.5724 -0.6657 -1.0282
  706MOL0     C93065   8.719   5.658   1.491  0.3698 -0.6037 -0.3390
  706MOL0     C93066   8.746   5.760   1.584 -0.9271 -0.4787  0.2501
  706MOL0     C93067   8.878   5.772   1.634  0.0803  0.1726  0.2827
  706MOL0     O93068   8.889   5.864   1.736 -0.0265 -0.0630 -0.5006
  706MOL0     C93069   9.013   5.900   1.800 -0.2763  0.8392  0.1638
  706MOL0     C93070   9.050   6.045   1.777  0.0902 -0.6016  0.3192
  706MOL0     C93071   9.206   6.078   1.778 -0.6955  0.0499  0.0449
  706MOL0     C93072   9.258   6.053   1.921 -0.4802  0.9670  0.2052
  706MOL0     C93073   9.397   6.110   1.949 -0.8942 -0.2380  0.5522
  706MOL0     C93074   9.417   6.127   2.099 -0.2895 -0.2274  0.1040
  706MOL0     C93075   9.562   6.141   2.142  0.9139 -0.2559 -0.5378
  706MOL0     C93076   9.642   6.008   2.126 -0.4456 -0.0938 -0.3239
  706MOL0     N93077   9.767   6.010   2.191 -0.8063 -0.2926 -0.2373
  706MOL0     C93078   9.893   6.028   2.135 -0.6768 -0.8898 -0.0652
  706MOL0     C93079   9.980   6.025   2.241 -0.4840  0.6534  0.1748
  706MOL0     C93080  10.129   6.015   2.222  0.2275  0.2263 -0.6382
  706MOL0     C93081  10.213   6.085   2.333  0.7210 -1.1540 -0.8696
  706MOL0     C93082  10.350   6.124   2.301  0.0476  0.3158  0.6410
  706MOL0     C93083  10.431   6.007   2.246 -0.5858  0.7029  0.2586
  706MOL0     O93084  10.571   6.041   2.261 -0.6256  0.3321  0.3288
  706MOL0     C93085  10.635   6.063   2.144  0.4972  0.1363  0.0605
  706MOL0     C93086  10.596   6.151   2.048 -0.9182 -0.7053  0.0741
  706MOL0     C93087  10.656   6.162   1.925  0.5798 -0.3138 -0.6101
  706MOL0     C93088  10.777   6.114   1.903 -0.1977 -0.2173 -0.4675
  706MOL0     C93089  10.859   6.133   1.774 -0.4212  0.3353  1.0751
  706MOL0     O93090  10.979   6.069   1.772  0.6481  0.1348 -0.0508
  706MOL0     C93091  11.061   6.076   1.661 -0.4299  0.2428  0.2291
  706MOL0     C93092  11.076   5.973   1.566  0.6680 -0.4129 -1.2366
  706MOL0     C93093  11.156   5.988   1.461 -0.2924 -0.2971  0.1836
  706MOL0     C93094  11.225   6.104   1.428  0.9186 -0.0481  0.2731
  706MOL0     O93095  11.317   6.087   1.331 -0.3724  0.2630 -0.6374
  706MOL0     C93096  11.439   6.168   1.328 -0.0754 -0.3524  0.3639
  706MOL0     C93097  11.447   6.279   1.224 -0.1751  0.2109  0.6682
  706MOL0     C93098  11.566   6.370   1.233 -1.3756  0.1672 -0.2261
  706MOL0     C93099  11.552   6.492   1.144  0.4346  0.9936 -0.0817
  706MOL0     C93100  11.677   6.586   1.149  0.0575 -0.6329 -1.0611
  706MOL0     C93101  11.813   6.540   1.085 -0.8131 -0.0762  0.7528
  706MOL0     C93102  11.801   6.509   0.934  0.4811  0.1275  0.1564
  706MOL0     C93103  11.925   6.429   0.882 -0.0195  0.7351 -0.1120
  706MOL0    Cl93104  11.920   6.421   0.700  0.2736  0.2677  0.4042
  706MOL0     C93105  11.208   6.213   1.510 -0.1155  0.9028  0.5081
  706MOL0     C93106  11.133   6.198   1.628 -0.6333 -0.4042 -0.0956
  706MOL0     O93107  10.809   6.189   1.672 -0.5339  0.0666 -0.7094
  706MOL0     C93108  10.841   6.045   2.014 -0.4671 -0.4336  0.6172
  706MOL0     C93109  10.765   6.015   2.123 -0.2923  0.3591 -0.1579
  706MOL0     N93110   9.908   5.996   2.357  0.4371  1.0276  0.4371
  706MOL0     N93111   9.786   5.997   2.328 -0.8140 -0.3395  0.8398
  706MOL0     C93112   8.981   5.692   1.590 -0.3585 -0.0044 -0.9495
  706MOL0     C93113   8.948   5.591   1.497  1.0620 -0.3473  0.4555
  706MOL0     C93114   8.808   5.271   1.201  0.8536  0.5023  0.6202
  706MOL0     C93115   8.858   5.148   1.178  0.4343  0.6514  0.1312
  706MOL0     C93116   8.808   5.069   1.076 -0.6489 -0.1774  0.2881
  706MOL0     C93117   8.701   5.099   0.995 -0.4847 -0.9566 -0.5959
  706MOL0     O93118   8.661   5.009   0.897 -1.1291 -0.1022 -0.1152
  706MOL0     C93119   8.545   5.043   0.827  0.3393  0.0964  0.5173
  706MOL0     C93120   8.410   5.031   0.909 -0.0809  0.0187 -0.3835
  706MOL0     C93121   8.278   5.030   0.826 -0.4276 -0.9725  0.0664
  706MOL0     C93122   8.235   4.902   0.773 -0.5865 -0.6005 -0.4221
  706MOL0     C93123   8.111   4.912   0.685 -0.2311  0.0941 -0.7787
  706MOL0     C93124   8.012   4.932   0.626  1.0355 -0.9770 -0.8373
  706MOL0     C93125   8.653   5.229   1.011  0.6256  0.3701 -0.0582
  706MOL0     C93126   8.705   5.316   1.113 -1.0532 -0.0561  1.1901
  706MOL0     H93127   8.618   5.657   1.451 -0.5664  0.6184  1.8324
  706MOL0     H93128   8.663   5.815   1.628 -1.0635 -0.8503  0.4612
  706MOL0     H93129   9.088   5.825   1.775 -0.7016  0.6313 -0.5175
  706MOL0     H93130   9.013   5.891   1.909 -1.6396 -2.5125  0.0063
  706MOL0     H93131   9.016   6.123   1.846  4.0188  1.7818 -0.1261
  706MOL0     H93132   9.027   6.065   1.672  1.6553 -4.0789 -0.8300
  706MOL0     H93133   9.205   6.183   1.747 -1.6371  0.6530  1.9823
  706MOL0     H93134   9.261   6.016   1.706 -0.7810 -1.5623  1.3219
  706MOL0     H93135   9.189   6.099   1.992  1.6663  2.3067  1.5399
  706MOL0     H93136   9.260   5.945   1.935  0.3195  0.6501 -1.9581
  706MOL0     H93137   9.380   6.213   1.915  1.3934  0.4194  1.2618
  706MOL0     H93138   9.476   6.059   1.892  0.6812  0.9066  1.6326
  706MOL0     H93139   9.375   6.040   2.149 -0.7645 -0.4064 -0.5902
  706MOL0     H93140   9.362   6.217   2.129  0.3493 -0.3050  1.6162
  706MOL0     H93141   9.614   6.227   2.100 -2.1352  2.0585  0.0525
  706MOL0     H93142   9.547   6.174   2.245  1.2606  2.8578 -1.3845
  706MOL0     H93143   9.659   5.988   2.020  0.9674  0.5327 -0.2392
  706MOL0     H93144   9.586   5.933   2.182 -1.4006 -0.1920 -1.3880
  706MOL0     H93145   9.918   6.043   2.031 -0.8559  2.0156  0.2326
  706MOL0     H93146  10.152   6.054   2.122 -0.8834  0.9989 -0.6187
  706MOL0     H93147  10.163   5.912   2.224  0.5139  0.3248 -0.3382
  706MOL0     H93148  10.219   6.026   2.426  3.4172  1.5336  0.8755
  706MOL0     H93149  10.165   6.179   2.360  4.1808  0.9619 -1.5550
  706MOL0     H93150  10.349   6.204   2.226  3.2437 -0.2348 -0.1337
  706MOL0     H93151  10.394   6.169   2.389  1.0960  3.1866 -1.2130
  706MOL0     H93152  10.402   5.970   2.148 -2.1137 -2.4034  1.7510
  706MOL0     H93153  10.416   5.922   2.314 -1.1464  0.2406 -0.4372
  706MOL0     H93154  10.499   6.194   2.069 -1.2220 -1.5441  0.4256
  706MOL0     H93155  10.600   6.208   1.845  1.8031  1.9443 -0.2559
  706MOL0     H93156  11.020   5.882   1.583 -1.1566  0.9703  0.6791
  706MOL0     H93157  11.184   5.897   1.408 -3.4441 -0.3916 -1.5503
  706MOL0     H93158  11.511   6.088   1.309  0.3902 -0.3936  2.1109
  706MOL0     H93159  11.474   6.211   1.423  3.3553  0.0659 -0.9426
  706MOL0     H93160  11.356   6.338   1.239 -0.4934 -0.8123  3.2551
  706MOL0     H93161  11.455   6.238   1.123 -0.3143  1.3756  0.1717
  706MOL0     H93162  11.655   6.312   1.209  1.0482  2.7026  1.8319
  706MOL0     H93163  11.591   6.415   1.330  1.9937  0.2624 -1.0174
  706MOL0     H93164  11.520   6.468   1.042  2.9260  0.3813 -0.7851
  706MOL0     H93165  11.468   6.551   1.183  0.9655  3.4840 -2.4203
  706MOL0     H93166  11.689   6.606   1.256 -2.1028 -0.7726 -0.7565
  706MOL0     H93167  11.644   6.682   1.109  1.1515 -0.1288 -0.7829
  706MOL0     H93168  11.840   6.446   1.133 -2.1476 -0.5504  0.6257
  706MOL0     H93169  11.893   6.612   1.103  0.0670 -0.8262 -0.1070
  706MOL0     H93170  11.714   6.444   0.919  1.6345 -1.1918 -1.0077
  706MOL0     H93171  11.798   6.604   0.881 -0.6421  0.0457  0.0404
  706MOL0     H93172  11.919   6.333   0.935 -1.6121  1.0050  0.2597
  706MOL0     H93173  12.018   6.477   0.914  0.9656 -2.1799  1.8889
  706MOL0     H93174  11.265   6.303   1.487  1.0135 -0.1619 -1.0357
  706MOL0     H93175  11.115   6.287   1.687  1.2853  0.4453 -0.7002
  706MOL0     H93176  10.944   6.021   1.990 -0.9154  0.8600 -3.2336
  706MOL0     H93177  10.815   5.962   2.204  0.4366  1.8492  0.4030
  706MOL0     H93178   9.086   5.685   1.615 -0.4931 -0.4673 -0.4950
  706MOL0     H93179   9.022   5.525   1.454  0.6670 -0.8720  0.5830
  706MOL0     H93180   8.929   5.096   1.242  1.2763 -1.4584 -2.3386
  706MOL0     H93181   8.849   4.972   1.049 -0.8655  0.6735 -3.6484
  706MOL0     H93182   8.547   4.977   0.740 -1.7524  3.2121 -2.1467
  706MOL0     H93183   8.551   5.145   0.786  1.4819 -0.7030 -1.4125
  706MOL0     H93184   8.410   4.946   0.978 -1.1617  2.5374  3.0253
  706MOL0     H93185   8.406   5.104   0.991 -1.2487 -1.2646  0.7674
  706MOL0     H93186   8.297   5.101   0.745 -1.3142  1.5746  1.9597
  706MOL0     H93187   8.198   5.070   0.889  0.8131 -0.4956  1.3852
  706MOL0     H93188   8.320   4.858   0.719 -1.3809 -0.3361 -1.9435
  706MOL0     H93189   8.194   4.844   0.857 -4.4328  1.7141 -0.4892
  706MOL0     H93190   7.922   4.959   0.574  1.5606  0.0953 -1.2134
  706MOL0     H93191   8.567   5.270   0.957  1.5253  2.2329 -0.1577
  706MOL0     H93192   8.668   5.418   1.111  3.5547  1.9325 -2.8547
  707MOL0     O93193   5.903   3.954  10.251  0.3061 -0.6771  0.6005
  707MOL0     C93194   5.967   3.941  10.357 -1.1008  0.1659  0.8647
  707MOL0     O93195   5.907   3.955  10.482  0.7696  0.4982  0.1920
  707MOL0     C93196   5.815   4.056  10.485 -0.9133 -0.2300  0.8229
  707MOL0     C93197   5.834   4.191  10.427 -0.7217  0.6175 -0.7448
  707MOL0     C93198   5.732   4.279  10.423  0.5183 -2.0106  1.3585
  707MOL0     C93199   5.606   4.245  10.476 -0.0679  0.4583 -1.2643
  707MOL0     O93200   5.498   4.332  10.464  0.4930 -0.1517  0.8071
  707MOL0     C93201   5.366   4.283  10.495  0.3389  0.3199 -0.5348
  707MOL0     C93202   5.280   4.408  10.511  0.7567 -0.4493 -0.0602
  707MOL0     C93203   5.138   4.369  10.543  1.3327  0.5393 -0.1801
  707MOL0     C93204   5.041   4.486  10.541  0.6566  0.5327  0.7839
  707MOL0     C93205   4.896   4.429  10.571 -0.1994  0.0810  0.0176
  707MOL0     C93206   4.796   4.541  10.532 -0.2498  0.0415 -0.7597
  707MOL0     C93207   4.653   4.517  10.599  0.2591  0.1987 -0.5909
  707MOL0     C93208   4.578   4.405  10.536  0.5085 -0.4469  0.5694
  707MOL0     N93209   4.438   4.418  10.568 -0.5687  0.2763  1.1041
  707MOL0     C93210   4.355   4.513  10.518  0.6324  1.0268 -0.2876
  707MOL0     C93211   4.239   4.485  10.592 -0.4058 -0.3296  0.6339
  707MOL0     C93212   4.117   4.572  10.592 -0.3114  0.6074 -0.3361
  707MOL0     C93213   4.036   4.563  10.457  0.4038  0.0707  0.5024
  707MOL0     C93214   3.908   4.639  10.460 -0.3145  0.3235  0.7230
  707MOL0     C93215   3.821   4.639  10.332  0.1940  0.0157 -0.5113
  707MOL0     O93216   3.791   4.512  10.272  0.2643  0.3481 -0.4640
  707MOL0     C93217   3.675   4.474  10.210 -0.3434  0.1531 -0.3147
  707MOL0     C93218   3.565   4.552  10.196  0.0605 -0.4865 -0.2900
  707MOL0     C93219   3.445   4.505  10.139 -0.2529 -0.7776  0.6814
  707MOL0     C93220   3.442   4.379  10.089 -0.3527  0.8591  0.5297
  707MOL0     C93221   3.325   4.318  10.031  0.2234 -0.5797  0.7544
  707MOL0     O93222   3.209   4.397  10.017 -0.2322 -0.1942 -0.3213
  707MOL0     C93223   3.086   4.340   9.992 -0.1816 -0.7870 -0.2470
  707MOL0     C93224   3.063   4.238   9.901 -0.0464 -0.3323  0.4962
  707MOL0     C93225   2.937   4.182   9.888  0.5624  0.4611  0.4718
  707MOL0     C93226   2.826   4.242   9.934 -0.1542  0.3423 -0.6794
  707MOL0     O93227   2.698   4.202   9.910 -0.5603 -0.7826  0.0836
  707MOL0     C93228   2.640   4.217   9.776 -0.0117  0.0885  0.2633
  707MOL0     C93229   2.508   4.128   9.785 -0.4359  0.3959  1.5613
  707MOL0     C93230   2.421   4.114   9.651 -1.5229 -0.1196  0.3649
  707MOL0     C93231   2.322   4.230   9.636 -0.1512 -0.2646  0.0757
  707MOL0     C93232   2.225   4.223   9.515  0.0848  1.1261 -0.3161
  707MOL0     C93233   2.294   4.248   9.384 -0.1095 -0.4021 -0.0974
  707MOL0     C93234   2.205   4.243   9.268 -0.4670 -0.2385  0.4278
  707MOL0     C93235   2.076   4.324   9.263  0.2732 -0.1214 -0.0198
  707MOL0    Cl93236   1.954   4.218   9.341 -0.3772  0.5954  0.4879
  707MOL0     C93237   2.844   4.350  10.031  0.1100  0.0818  1.0445
  707MOL0     C93238   2.979   4.401  10.053  0.0328  0.1610 -0.7315
  707MOL0     O93239   3.327   4.200  10.002 -0.8903 -0.4319  0.2734
  707MOL0     C93240   3.560   4.295  10.098 -0.1173 -0.4096  0.1942
  707MOL0     C93241   3.674   4.352  10.152 -1.3854  0.7351 -1.0619
  707MOL0     N93242   4.253   4.373  10.666 -1.1172 -0.0669 -0.1810
  707MOL0     N93243   4.375   4.326  10.649  0.0746 -0.7845  0.2333
  707MOL0     C93244   5.591   4.121  10.537  0.6077  0.3626 -0.7517
  707MOL0     C93245   5.690   4.034  10.540  0.5598  0.7383  1.3185
  707MOL0     C93246   6.115   3.934  10.350  0.2405  0.7138  0.5451
  707MOL0     C93247   6.191   3.945  10.472  0.1377  0.5062  0.8755
  707MOL0     C93248   6.329   3.933  10.472 -0.5457  0.4891  0.8850
  707MOL0     C93249   6.392   3.890  10.344  0.3638 -0.3773  0.3014
  707MOL0     O93250   6.527   3.862  10.347 -0.1684 -0.3203 -0.2250
  707MOL0     C93251   6.581   3.745  10.410  1.3451  0.1578 -0.3366
  707MOL0     C93252   6.718   3.778  10.475 -0.4494 -0.4922  0.3312
  707MOL0     C93253   6.819   3.831  10.362  0.6707  0.0894  0.3400
  707MOL0     C93254   6.855   3.730  10.258 -0.8344  0.2545 -0.5875
  707MOL0     C93255   6.934   3.615  10.314 -0.6279  0.5286 -0.0236
  707MOL0     C93256   7.021   3.538  10.335 -0.6282 -0.8803  0.1980
  707MOL0     C93257   6.311   3.888  10.222 -0.2725  0.1539 -0.6734
  707MOL0     C93258   6.177   3.907  10.224  0.8045 -0.4563 -0.4950
  707MOL0     H93259   5.935   4.215  10.397 -0.1306 -0.7062  0.1050
  707MOL0     H93260   5.753   4.379  10.385 -3.3286 -2.0845 -1.4995
  707MOL0     H93261   5.359   4.224  10.587  1.9221 -0.5081 -0.8917
  707MOL0     H93262   5.329   4.225  10.411 -2.3605  1.7908 -0.4819
  707MOL0     H93263   5.272   4.461  10.416  3.9112 -0.6521 -0.5541
  707MOL0     H93264   5.309   4.475  10.592 -0.0345 -0.3309  0.1328
  707MOL0     H93265   5.124   4.322  10.641 -3.5648  2.7801  0.4969
  707MOL0     H93266   5.110   4.289  10.474  1.1369 -0.1992  0.7390
  707MOL0     H93267   5.084   4.556  10.614 -1.1058 -0.8366  3.2802
  707MOL0     H93268   5.043   4.533  10.442  0.1340  0.8182  0.9059
  707MOL0     H93269   4.882   4.401  10.676 -0.9883  2.9669  0.7550
  707MOL0     H93270   4.858   4.345  10.511 -2.0928  0.3926  0.6960
  707MOL0     H93271   4.783   4.563  10.425  0.3538 -1.1428 -1.0945
  707MOL0     H93272   4.831   4.633  10.580 -0.6117 -0.1326 -0.1494
  707MOL0     H93273   4.663   4.498  10.707 -1.5085 -0.8155 -0.5810
  707MOL0     H93274   4.588   4.605  10.601  1.7053  1.3250 -0.8735
  707MOL0     H93275   4.620   4.308  10.565  3.7276  1.3426  2.4664
  707MOL0     H93276   4.584   4.422  10.428 -0.3345  2.6963  0.9100
  707MOL0     H93277   4.373   4.571  10.428  4.3949 -0.5708 -0.7305
  707MOL0     H93278   4.153   4.674  10.610  3.3180 -0.9155  2.4610
  707MOL0     H93279   4.058   4.550  10.682  0.7862 -0.5005  0.1380
  707MOL0     H93280   4.010   4.459  10.435 -1.1026  1.0841 -3.3692
  707MOL0     H93281   4.113   4.593  10.386 -1.2801  0.8160 -1.0931
  707MOL0     H93282   3.846   4.612  10.546 -0.9509  2.9655  1.1936
  707MOL0     H93283   3.931   4.745  10.475 -0.3631  0.5307 -0.5589
  707MOL0     H93284   3.872   4.709  10.266 -0.1318 -0.5132 -1.3308
  707MOL0     H93285   3.723   4.684  10.354  1.3323  2.0203  0.7980
  707MOL0     H93286   3.568   4.654  10.233  2.2883 -0.1722 -1.1540
  707MOL0     H93287   3.352   4.560  10.124 -1.2339 -2.7707 -0.9479
  707MOL0     H93288   3.139   4.188   9.841  0.4693 -1.8563  2.3180
  707MOL0     H93289   2.929   4.102   9.815 -1.0180  0.3695  0.7074
  707MOL0     H93290   2.705   4.174   9.700 -1.1417 -0.1054 -0.6266
  707MOL0     H93291   2.626   4.323   9.754  2.2179  0.0694 -1.6445
  707MOL0     H93292   2.447   4.148   9.873  1.8222 -1.2878  3.6505
  707MOL0     H93293   2.554   4.030   9.802  1.3302  1.3282  2.4560
  707MOL0     H93294   2.361   4.023   9.652 -0.7577 -0.6753 -0.9283
  707MOL0     H93295   2.492   4.116   9.567 -0.1445  1.1368  1.5137
  707MOL0     H93296   2.265   4.230   9.729 -0.1778  1.4337  0.0937
  707MOL0     H93297   2.369   4.328   9.637 -1.5961  0.4735  2.3381
  707MOL0     H93298   2.156   4.305   9.536 -1.3687 -0.5533  1.9838
  707MOL0     H93299   2.172   4.127   9.525 -1.7839  2.2781  1.7459
  707MOL0     H93300   2.384   4.186   9.378 -1.2727 -2.5122  2.2351
  707MOL0     H93301   2.331   4.351   9.382 -2.8140  0.7613  2.4084
  707MOL0     H93302   2.265   4.270   9.180 -2.3050 -0.6546 -1.0289
  707MOL0     H93303   2.167   4.142   9.249 -1.4352  0.1563  0.1874
  707MOL0     H93304   2.034   4.341   9.164 -0.9649  0.9013  0.6478
  707MOL0     H93305   2.096   4.418   9.315  3.0579  0.1116 -1.3241
  707MOL0     H93306   2.758   4.397  10.077  1.3931  1.2292  2.4131
  707MOL0     H93307   3.009   4.484  10.116 -0.6333  1.0746 -1.5791
  707MOL0     H93308   3.563   4.191  10.065  1.8221  0.0341 -1.2040
  707MOL0     H93309   3.767   4.296  10.151 -0.4410  2.2247 -1.1058
  707MOL0     H93310   5.503   4.086  10.589  1.9548 -2.9393 -0.4670
  707MOL0     H93311   5.664   3.937  10.581  3.1792 -0.1327  1.1068
  707MOL0     H93312   6.129   3.955  10.560  0.1726  0.4324  0.9087
  707MOL0     H93313   6.394   3.952  10.558  2.7606 -0.7452 -1.1449
  707MOL0     H93314   6.589   3.657  10.345  1.0344  0.0494 -0.2323
  707MOL0     H93315   6.513   3.722  10.493 -0.4180  0.8229 -1.5373
  707MOL0     H93316   6.702   3.858  10.547 -0.0205 -0.9960  1.0029
  707MOL0     H93317   6.762   3.686  10.514 -0.5889 -1.3897 -1.5096
  707MOL0     H93318   6.906   3.873  10.413  0.7770  0.0481  0.1961
  707MOL0     H93319   6.778   3.911  10.299  0.0122 -0.2872  0.2841
  707MOL0     H93320   6.763   3.693  10.214 -3.3360 -1.0081  4.8410
  707MOL0     H93321   6.928   3.783  10.196  2.6684 -2.3436  1.0038
  707MOL0     H93322   7.107   3.476  10.351  0.1148  0.2510  0.7361
  707MOL0     H93323   6.364   3.854  10.134  0.2362 -2.2823  0.4686
  707MOL0     H93324   6.119   3.913  10.132 -0.8022  2.3794  0.5899
  708MOL0     O93325   6.881   0.149  10.445 -0.3254 -0.9489  0.1207
  708MOL0     C93326   6.777   0.188  10.386  0.1771  0.7042  0.3118
  708MOL0     O93327   6.758   0.216  10.258 -0.0699  0.4748  0.5865
  708MOL0     C93328   6.875   0.209  10.188  0.3659  0.0055  0.4524
  708MOL0     C93329   6.948   0.327  10.165 -0.1632 -0.4337  1.0068
  708MOL0     C93330   7.065   0.328  10.089 -0.4090  0.4385 -0.4716
  708MOL0     C93331   7.100   0.219  10.019 -0.3150  0.4586  0.2200
  708MOL0     O93332   7.211   0.223   9.937 -0.4080 -0.0325 -0.1844
  708MOL0     C93333   7.236   0.112   9.843  0.3769 -0.1297 -0.4523
  708MOL0     C93334   7.377   0.128   9.799  0.6897 -0.2176  0.0057
  708MOL0     C93335   7.417   0.012   9.701 -0.6113  0.7212 -0.2673
  708MOL0     C93336   7.575   0.011   9.678  1.2464 -0.1474 -0.6580
  708MOL0     C93337   7.602  -0.095   9.569 -0.6840 -0.3459 -0.0608
  708MOL0     C93338   7.748  -0.113   9.537  0.1849 -0.0234 -0.3660
  708MOL0     C93339   7.813  -0.220   9.635  0.6858 -0.5953 -1.3354
  708MOL0     C93340   7.969  -0.229   9.623  0.3631 -0.7012  0.6230
  708MOL0     N93341   8.025  -0.321   9.724 -0.5480 -0.5372 -0.7721
  708MOL0     C93342   8.018  -0.454   9.707  0.5525  0.4970  0.1355
  708MOL0     C93343   8.042  -0.505   9.829  1.2672  0.7052 -0.1392
  708MOL0     C93344   8.035  -0.646   9.865 -0.3404  0.5414 -0.4221
  708MOL0     C93345   7.898  -0.712   9.855  0.1702 -0.4825 -0.2689
  708MOL0     C93346   7.815  -0.685   9.977  0.3424 -0.2959 -0.4164
  708MOL0     C93347   7.667  -0.712   9.948 -0.2735 -0.4176 -0.3100
  708MOL0     O93348   7.624  -0.618   9.845 -0.6960  0.6168  0.8860
  708MOL0     C93349   7.492  -0.622   9.802 -0.3072  0.1384 -0.2025
  708MOL0     C93350   7.474  -0.646   9.663 -0.6206 -0.1133  0.3490
  708MOL0     C93351   7.347  -0.646   9.604  0.7214 -0.9891 -0.7304
  708MOL0     C93352   7.238  -0.611   9.693  0.7472 -0.4640 -0.1346
  708MOL0     C93353   7.101  -0.608   9.642 -0.7692 -0.2499 -0.6380
  708MOL0     O93354   7.012  -0.535   9.714  0.6492  0.0001 -0.2147
  708MOL0     C93355   6.883  -0.517   9.664  0.2375 -0.2745  0.0115
  708MOL0     C93356   6.852  -0.447   9.543 -0.2331 -0.9132  0.0147
  708MOL0     C93357   6.731  -0.462   9.474 -0.7299 -0.4371  0.2016
  708MOL0     C93358   6.629  -0.539   9.533  0.5524 -0.6403  0.1632
  708MOL0     O93359   6.514  -0.551   9.456 -0.0576  0.4836 -0.5354
  708MOL0     C93360   6.392  -0.589   9.529 -0.1774 -0.1626 -1.1101
  708MOL0     C93361   6.257  -0.553   9.465 -0.1295 -0.3938  0.1858
  708MOL0     C93362   6.228  -0.620   9.325  0.4803  0.0229 -0.4622
  708MOL0     C93363   6.282  -0.753   9.308 -0.8519  0.1684 -0.9305
  708MOL0     C93364   6.210  -0.818   9.198 -0.2309 -0.3822  0.6035
  708MOL0     C93365   6.248  -0.766   9.055 -1.3246  0.5387  0.2010
  708MOL0     C93366   6.156  -0.834   8.947  0.5207  0.1803 -0.6142
  708MOL0     C93367   6.037  -0.754   8.898 -1.2359  0.4296 -0.4925
  708MOL0    Cl93368   6.082  -0.607   8.787 -0.1595  0.2898  0.1129
  708MOL0     C93369   6.649  -0.595   9.663  0.5876  0.2348  0.3059
  708MOL0     C93370   6.776  -0.585   9.725  0.7105 -1.2798 -0.1269
  708MOL0     O93371   7.088  -0.664   9.534  0.2783  0.2225  0.2259
  708MOL0     C93372   7.258  -0.586   9.831 -0.6220  0.0470 -0.1885
  708MOL0     C93373   7.383  -0.589   9.880  0.7834 -0.4685  0.2064
  708MOL0     N93374   8.026  -0.399   9.917  0.1254 -0.1146  0.1465
  708MOL0     N93375   8.019  -0.290   9.859 -0.0303 -0.6300  0.3743
  708MOL0     C93376   7.022   0.102  10.035 -0.1646 -0.4885  0.2939
  708MOL0     C93377   6.903   0.104  10.105 -0.2701  0.7407 -0.1038
  708MOL0     C93378   6.653   0.191  10.474 -0.7028 -0.8814 -0.3310
  708MOL0     C93379   6.650   0.117  10.598 -0.3045  0.9085 -0.3101
  708MOL0     C93380   6.537   0.131  10.673  0.3473 -0.0585  0.2503
  708MOL0     C93381   6.423   0.205  10.629  0.0614  0.5482 -1.3253
  708MOL0     O93382   6.308   0.214  10.705 -0.3793 -0.0393 -0.0647
  708MOL0     C93383   6.319   0.219  10.856 -0.5123 -0.6535  0.2817
  708MOL0     C93384   6.195   0.205  10.929 -0.8700 -0.1761  0.1129
  708MOL0     C93385   6.095   0.104  10.873  0.2524 -0.3914  0.1284
  708MOL0     C93386   5.966   0.138  10.950 -0.2853  0.1436 -0.2904
  708MOL0     C93387   5.894   0.251  10.897  0.5990 -0.2219 -0.5612
  708MOL0     C93388   5.842   0.357  10.866  0.5344  0.3860  0.2019
  708MOL0     C93389   6.421   0.259  10.510 -0.3669 -0.5458  0.4045
  708MOL0     C93390   6.539   0.272  10.430  0.7693 -0.1369 -1.0189
  708MOL0     H93391   6.913   0.419  10.211 -1.8576 -0.8003  0.5456
  708MOL0     H93392   7.127   0.416  10.071  3.4223 -1.5196  1.9644
  708MOL0     H93393   7.168   0.120   9.757 -0.2067 -0.0653  0.0080
  708MOL0     H93394   7.231   0.015   9.893  1.7324 -1.3693 -2.5525
  708MOL0     H93395   7.438   0.142   9.889 -0.8641 -0.3323  1.1005
  708MOL0     H93396   7.383   0.226   9.751  2.7915  0.2607  1.1285
  708MOL0     H93397   7.356   0.025   9.611 -0.8946  1.2709 -0.0005
  708MOL0     H93398   7.401  -0.080   9.759 -1.5390  1.4497  0.6714
  708MOL0     H93399   7.607   0.105   9.632 -1.3717  0.1017 -2.1729
  708MOL0     H93400   7.632  -0.002   9.770  1.4598 -1.7834 -0.9857
  708MOL0     H93401   7.557  -0.061   9.475  1.0247  4.0874  0.5103
  708MOL0     H93402   7.572  -0.191   9.614  3.1534 -1.5453  0.2572
  708MOL0     H93403   7.786  -0.010   9.539 -0.8223  0.3741 -0.5034
  708MOL0     H93404   7.750  -0.149   9.434  2.2774 -0.1076 -0.3357
  708MOL0     H93405   7.795  -0.201   9.742 -0.8329 -0.2517 -1.6268
  708MOL0     H93406   7.766  -0.316   9.613 -2.0844  0.5298 -0.8002
  708MOL0     H93407   8.018  -0.132   9.611 -0.1719 -0.3837  0.9915
  708MOL0     H93408   7.993  -0.280   9.528  1.8203  1.2172 -0.0926
  708MOL0     H93409   8.004  -0.508   9.614 -1.0282  2.0291 -0.5728
  708MOL0     H93410   8.089  -0.660   9.958 -1.5345 -0.4768  0.1516
  708MOL0     H93411   8.096  -0.696   9.789  1.0445  0.3759  0.7649
  708MOL0     H93412   7.917  -0.819   9.846  0.3641 -0.6664  1.8192
  708MOL0     H93413   7.847  -0.696   9.760 -0.4215 -3.4911 -0.5301
  708MOL0     H93414   7.837  -0.758  10.055  1.6359 -0.9808 -1.3894
  708MOL0     H93415   7.839  -0.581  10.000  2.1602 -0.6413 -0.5962
  708MOL0     H93416   7.609  -0.691  10.039 -0.1669 -3.0106  0.4239
  708MOL0     H93417   7.644  -0.814   9.916 -0.3059 -1.0722  1.6635
  708MOL0     H93418   7.558  -0.640   9.594 -1.0485  2.4669 -0.0554
  708MOL0     H93419   7.339  -0.664   9.498  1.4592 -0.6342 -0.8534
  708MOL0     H93420   6.930  -0.388   9.497 -0.9296  0.0659  0.0534
  708MOL0     H93421   6.723  -0.418   9.375  1.3067  3.1053  1.4314
  708MOL0     H93422   6.398  -0.537   9.626  4.2811  0.6048 -1.5576
  708MOL0     H93423   6.406  -0.696   9.544 -0.4146  0.1449  1.8251
  708MOL0     H93424   6.239  -0.445   9.457 -2.0828 -0.6141  1.0616
  708MOL0     H93425   6.175  -0.580   9.532 -0.6356  1.5773  0.4313
  708MOL0     H93426   6.271  -0.542   9.261  1.2880  3.0133  3.3260
  708MOL0     H93427   6.119  -0.616   9.320  0.4812 -0.9779 -1.4480
  708MOL0     H93428   6.385  -0.739   9.274 -2.0011  4.2205 -3.4873
  708MOL0     H93429   6.280  -0.813   9.399 -0.6516  0.6175 -0.6302
  708MOL0     H93430   6.102  -0.813   9.219 -0.6829 -0.7673 -1.4199
  708MOL0     H93431   6.225  -0.926   9.204 -6.8360 -2.1258 -3.4588
  708MOL0     H93432   6.351  -0.801   9.044 -1.9655 -1.7151  0.7960
  708MOL0     H93433   6.244  -0.657   9.052  0.1821  0.7928  3.3562
  708MOL0     H93434   6.210  -0.856   8.855 -0.7147 -0.7933 -1.1435
  708MOL0     H93435   6.115  -0.928   8.987  0.6257  0.3834 -0.0264
  708MOL0     H93436   5.989  -0.728   8.993 -2.8597  0.2926 -1.2344
  708MOL0     H93437   5.971  -0.822   8.844 -0.0674 -2.3001  1.3456
  708MOL0     H93438   6.563  -0.645   9.707 -0.3272 -0.7461 -2.3791
  708MOL0     H93439   6.778  -0.624   9.826 -1.2185 -1.7432 -0.2446
  708MOL0     H93440   7.173  -0.575   9.897 -3.1329 -0.5237 -3.0649
  708MOL0     H93441   7.400  -0.556   9.982 -1.4945  0.3518  0.3621
  708MOL0     H93442   7.034   0.011   9.976 -0.8584  0.9427 -2.1938
  708MOL0     H93443   6.839   0.017  10.106  4.0538 -2.8586 -2.1924
  708MOL0     H93444   6.734   0.063  10.640  0.1922  2.4127  0.7475
  708MOL0     H93445   6.529   0.099  10.777 -0.7657  0.5172  0.3654
  708MOL0     H93446   6.364   0.315  10.884 -2.6682 -0.0538  1.9966
  708MOL0     H93447   6.381   0.138  10.895 -2.4209 -1.3571  2.0368
  708MOL0     H93448   6.221   0.185  11.033 -0.5572  1.5347  0.4059
  708MOL0     H93449   6.155   0.307  10.924 -0.5491  0.0906  2.1747
  708MOL0     H93450   6.125  -0.000  10.886  0.1306 -0.5069 -0.4693
  708MOL0     H93451   6.086   0.121  10.765  0.3610  0.9812  0.3182
  708MOL0     H93452   5.898   0.053  10.940 -1.6481  1.1699  0.0035
  708MOL0     H93453   5.997   0.159  11.053 -1.3515 -1.9889  0.5217
  708MOL0     H93454   5.804   0.447  10.823 -1.0145 -0.6129 -0.5832
  708MOL0     H93455   6.337   0.321  10.480 -0.4334 -1.1132 -0.6421
  708MOL0     H93456   6.533   0.322  10.334 -1.1087 -0.1682 -0.9449
  709MOL0     O93457   4.456   4.882   6.825  0.0744 -0.0173 -0.2356
  709MOL0     C93458   4.513   4.828   6.918 -1.0882  0.0719 -0.5108
  709MOL0     O93459   4.466   4.830   7.052  0.7136  0.2445  0.5548
  709MOL0     C93460   4.333   4.870   7.066  0.7670  0.1358 -0.9949
  709MOL0     C93461   4.224   4.849   6.975 -0.0792  0.4393 -0.0014
  709MOL0     C93462   4.100   4.913   7.002  0.3672  0.6090 -0.1295
  709MOL0     C93463   4.071   4.963   7.123  0.2572  0.0388 -0.1932
  709MOL0     O93464   3.947   5.014   7.153 -1.0735  0.7124 -0.2949
  709MOL0     C93465   3.919   5.132   7.076  0.3909  0.1025 -0.2922
  709MOL0     C93466   3.768   5.142   7.053 -0.5424 -0.5687  0.0000
  709MOL0     C93467   3.717   5.016   7.000 -0.9369  0.1172  1.0929
  709MOL0     C93468   3.576   5.035   6.956 -1.1044  0.6097  0.2324
  709MOL0     C93469   3.514   4.920   6.873 -0.5358 -0.1609  0.3527
  709MOL0     C93470   3.463   4.799   6.967 -0.3505 -1.0399 -0.0436
  709MOL0     C93471   3.393   4.695   6.881  0.2973  0.0112 -0.2583
  709MOL0     C93472   3.331   4.581   6.957 -1.0406 -0.0101 -0.5949
  709MOL0     N93473   3.204   4.632   7.016  0.5337 -0.7143 -0.6661
  709MOL0     C93474   3.085   4.670   6.952  0.0649  0.0775  0.4381
  709MOL0     C93475   3.002   4.700   7.059  0.8011  0.2924  0.3938
  709MOL0     C93476   2.861   4.752   7.052 -0.2922  0.7822  0.3539
  709MOL0     C93477   2.765   4.655   6.979 -0.1274  0.2212 -0.4727
  709MOL0     C93478   2.610   4.698   6.975 -0.3465  0.0831  0.3250
  709MOL0     C93479   2.517   4.608   6.903  0.4425  0.2896  0.2308
  709MOL0     O93480   2.487   4.487   6.981  0.3830 -0.0238  0.1302
  709MOL0     C93481   2.367   4.423   6.957 -0.2748  0.9208 -0.9510
  709MOL0     C93482   2.277   4.429   6.846 -0.1090 -0.8409 -0.0025
  709MOL0     C93483   2.150   4.384   6.865 -0.3992  0.6891  0.5100
  709MOL0     C93484   2.105   4.303   6.968 -0.1991 -0.2351  0.5091
  709MOL0     C93485   1.969   4.261   6.978  0.7376 -0.1597 -0.0739
  709MOL0     O93486   1.877   4.327   6.908  0.1476  0.0406  0.4396
  709MOL0     C93487   1.747   4.294   6.910  0.3629  0.6202 -0.2929
  709MOL0     C93488   1.688   4.174   6.882  0.1532  0.5602  0.4173
  709MOL0     C93489   1.548   4.162   6.906 -0.4406 -0.3148 -0.4268
  709MOL0     C93490   1.468   4.272   6.938  0.7257 -0.0941 -0.2364
  709MOL0     O93491   1.330   4.264   6.959  0.8031  0.5599 -0.8751
  709MOL0     C93492   1.258   4.152   6.918  0.1290 -0.3071  0.0525
  709MOL0     C93493   1.105   4.168   6.946 -0.8706  0.0207 -0.3509
  709MOL0     C93494   1.085   4.219   7.094  0.4156  0.1641 -0.3777
  709MOL0     C93495   0.942   4.188   7.121  0.3721 -0.4514 -0.3966
  709MOL0     C93496   0.912   4.267   7.256 -0.3269 -0.1673  0.1149
  709MOL0     C93497   0.760   4.224   7.293 -0.0230  0.4695  0.8224
  709MOL0     C93498   0.744   4.249   7.443 -0.5950  0.1868  1.1674
  709MOL0     C93499   0.774   4.133   7.539  0.0697  0.5875  0.4249
  709MOL0    Cl93500   0.721   4.196   7.691 -0.1889 -0.0007 -0.1552
  709MOL0     C93501   1.531   4.396   6.942  0.1804  0.7319 -1.1220
  709MOL0     C93502   1.668   4.402   6.924  0.6377  0.0018  0.5200
  709MOL0     O93503   1.941   4.164   7.048 -0.3143  0.7727  0.4310
  709MOL0     C93504   2.202   4.268   7.067 -0.6295 -0.6472  0.4207
  709MOL0     C93505   2.329   4.332   7.056  0.8749  0.5904 -0.4186
  709MOL0     N93506   3.068   4.693   7.173  0.4912  0.6465  0.7665
  709MOL0     N93507   3.186   4.650   7.155 -0.5402  1.5161 -0.0480
  709MOL0     C93508   4.172   4.973   7.220  0.2634 -0.1220 -0.3879
  709MOL0     C93509   4.303   4.927   7.188 -0.5419 -0.3897 -0.5901
  709MOL0     C93510   4.657   4.787   6.901 -0.1950  0.4213 -0.3464
  709MOL0     C93511   4.729   4.717   7.001  0.7131 -0.8048 -0.4106
  709MOL0     C93512   4.857   4.674   6.987  1.0820 -0.7163  0.4231
  709MOL0     C93513   4.925   4.685   6.870 -0.1923  0.5870 -0.3980
  709MOL0     O93514   5.051   4.644   6.877 -0.2148 -0.0042 -0.4675
  709MOL0     C93515   5.157   4.730   6.811  0.0844  0.3791 -0.8468
  709MOL0     C93516   5.260   4.740   6.920 -0.3614  0.6579  0.3020
  709MOL0     C93517   5.233   4.823   7.054 -0.9587 -0.3729  0.6969
  709MOL0     C93518   5.359   4.879   7.116 -0.4709 -0.4589 -0.4574
  709MOL0     C93519   5.322   4.995   7.206  1.2510 -0.6305  0.1084
  709MOL0     C93520   5.298   5.093   7.277  0.3769  0.4271  0.4532
  709MOL0     C93521   4.858   4.749   6.772 -0.8152 -0.3725  0.3568
  709MOL0     C93522   4.728   4.798   6.784 -0.4684 -0.5733  0.0659
  709MOL0     H93523   4.237   4.796   6.882  1.9724  1.0989 -0.1443
  709MOL0     H93524   4.025   4.924   6.924  2.9748  1.4317 -2.7114
  709MOL0     H93525   3.971   5.143   6.980  3.9039 -2.8374  1.0804
  709MOL0     H93526   3.943   5.219   7.138 -0.8165  0.4478 -0.2893
  709MOL0     H93527   3.751   5.221   6.979  0.8317  1.6705  1.9195
  709MOL0     H93528   3.719   5.168   7.147 -1.8662  0.2215 -0.8719
  709MOL0     H93529   3.718   4.931   7.070  0.0532  1.2195  2.4885
  709MOL0     H93530   3.784   4.968   6.928 -1.4581 -1.5510  1.6587
  709MOL0     H93531   3.526   5.047   7.052  2.1697 -1.6212  2.4210
  709MOL0     H93532   3.576   5.126   6.895  0.8088 -0.1710 -1.0342
  709MOL0     H93533   3.581   4.891   6.792 -2.4054  0.8529 -1.6589
  709MOL0     H93534   3.423   4.965   6.831 -3.0189 -1.4996  3.7660
  709MOL0     H93535   3.383   4.829   7.036  0.1224 -0.2112  0.1612
  709MOL0     H93536   3.548   4.778   7.033 -0.6331  0.2348  0.7740
  709MOL0     H93537   3.314   4.754   6.833 -0.9803 -1.9324 -0.6838
  709MOL0     H93538   3.453   4.658   6.797  0.4438 -1.9145  0.6301
  709MOL0     H93539   3.395   4.552   7.041  0.7607 -0.0553 -1.9251
  709MOL0     H93540   3.303   4.493   6.898  0.6542  0.2357 -1.8388
  709MOL0     H93541   3.071   4.667   6.844 -1.2437  0.8771  0.5623
  709MOL0     H93542   2.857   4.851   7.005 -3.1730  0.0610 -1.1858
  709MOL0     H93543   2.836   4.758   7.159 -0.2713 -0.2291  0.4251
  709MOL0     H93544   2.774   4.553   7.017  3.6047  0.9697  1.0503
  709MOL0     H93545   2.801   4.661   6.876 -0.5491 -0.1504 -0.6457
  709MOL0     H93546   2.565   4.717   7.073 -2.2289 -3.0243  0.1679
  709MOL0     H93547   2.607   4.791   6.917 -2.5849 -0.1037  0.0851
  709MOL0     H93548   2.547   4.579   6.802 -0.5894  1.7848 -0.5306
  709MOL0     H93549   2.423   4.661   6.890  1.6814  2.4702 -0.2451
  709MOL0     H93550   2.292   4.480   6.751  1.9796  1.0113  1.2081
  709MOL0     H93551   2.078   4.395   6.785  0.4504  1.8297 -0.1225
  709MOL0     H93552   1.758   4.096   6.854  1.8814  1.8097  1.0184
  709MOL0     H93553   1.516   4.061   6.882  2.2379 -1.1904 -0.6254
  709MOL0     H93554   1.298   4.059   6.959 -1.3342 -1.2345 -0.5834
  709MOL0     H93555   1.266   4.135   6.810  1.7101 -2.9118  0.4975
  709MOL0     H93556   1.064   4.069   6.925  1.6500 -0.7203 -2.4099
  709MOL0     H93557   1.068   4.242   6.874  1.5598  0.9325 -0.7894
  709MOL0     H93558   1.127   4.320   7.094  1.4884 -0.2696 -0.1138
  709MOL0     H93559   1.152   4.162   7.159 -0.1954  1.7397  1.7365
  709MOL0     H93560   0.881   4.229   7.040  3.0478 -0.2393 -2.4111
  709MOL0     H93561   0.919   4.084   7.145 -0.5008 -0.0599  0.5626
  709MOL0     H93562   0.933   4.374   7.244 -0.8039 -0.1145 -0.2702
  709MOL0     H93563   0.970   4.227   7.340 -0.2858  1.3187  0.8195
  709MOL0     H93564   0.751   4.118   7.270 -0.1177  0.6279  0.1189
  709MOL0     H93565   0.685   4.274   7.230 -0.0581 -0.4320  0.1273
  709MOL0     H93566   0.812   4.328   7.476 -1.7065  0.3137  3.3131
  709MOL0     H93567   0.648   4.300   7.456 -0.2635  1.3519 -0.5368
  709MOL0     H93568   0.880   4.111   7.549  0.3351  2.4503  2.5534
  709MOL0     H93569   0.730   4.036   7.516  2.3287 -0.9706  2.2632
  709MOL0     H93570   1.473   4.486   6.961  1.8928  2.0130 -1.7859
  709MOL0     H93571   1.706   4.500   6.948  1.0247  0.6260 -2.2363
  709MOL0     H93572   2.180   4.203   7.151  1.0267 -1.1046  0.5298
  709MOL0     H93573   2.393   4.317   7.142 -0.9827 -1.1037  0.7722
  709MOL0     H93574   4.137   5.021   7.311 -0.4776  0.7648 -1.1228
  709MOL0     H93575   4.382   4.946   7.260 -2.7145  2.5101  1.2598
  709MOL0     H93576   4.674   4.693   7.091 -1.5454 -1.1557 -1.7810
  709MOL0     H93577   4.910   4.631   7.071 -2.9690 -0.7842  3.2446
  709MOL0     H93578   5.114   4.827   6.785 -1.5574 -0.1826 -0.3986
  709MOL0     H93579   5.195   4.686   6.718 -1.1962  1.4561 -1.9205
  709MOL0     H93580   5.299   4.644   6.956 -3.0971 -0.8723 -0.5359
  709MOL0     H93581   5.351   4.770   6.867  0.8172 -3.7392 -0.6230
  709MOL0     H93582   5.187   4.749   7.119 -2.2958 -0.8163 -0.7024
  709MOL0     H93583   5.164   4.903   7.025  1.3506  0.5865 -2.7951
  709MOL0     H93584   5.415   4.811   7.180  2.3267  2.7427  0.8012
  709MOL0     H93585   5.427   4.905   7.033 -1.0517 -0.6818 -1.0113
  709MOL0     H93586   5.262   5.186   7.316 -2.9170 -0.0765 -1.0257
  709MOL0     H93587   4.917   4.760   6.681 -2.6020 -0.1793 -0.8427
  709MOL0     H93588   4.678   4.856   6.707 -1.4470 -1.6299 -0.1187
  710MOL0     O93589   9.185   0.920   6.280  0.3808  0.6781  0.4340
  710MOL0     C93590   9.305   0.902   6.273 -0.3809  0.2401  0.7458
  710MOL0     O93591   9.375   0.849   6.160 -0.2866  0.0627 -0.7078
  710MOL0     C93592   9.311   0.849   6.040 -0.2647 -0.9287  0.9823
  710MOL0     C93593   9.212   0.943   5.989  0.2637 -0.6215  0.3230
  710MOL0     C93594   9.159   0.933   5.860 -0.8676  0.4735  0.0499
  710MOL0     C93595   9.215   0.838   5.775 -0.4747 -0.0379 -0.7193
  710MOL0     O93596   9.168   0.815   5.647 -0.4823  0.5163  0.4487
  710MOL0     C93597   9.048   0.881   5.609 -0.2119  0.3043  0.1413
  710MOL0     C93598   9.001   0.826   5.474  0.5585 -0.3099 -0.2872
  710MOL0     C93599   8.888   0.921   5.428 -0.5956 -0.0079  0.0466
  710MOL0     C93600   8.810   0.871   5.301  0.5432  0.9022  0.8336
  710MOL0     C93601   8.718   0.977   5.218 -0.3918  0.2143 -0.3808
  710MOL0     C93602   8.569   0.951   5.260  1.2923  0.5590 -0.2815
  710MOL0     C93603   8.461   1.015   5.155  0.7135  0.1426  0.1998
  710MOL0     C93604   8.451   0.941   5.022  0.1231  0.0812  0.5479
  710MOL0     N93605   8.371   1.009   4.910 -0.0424 -0.3160 -0.1044
  710MOL0     C93606   8.242   1.039   4.915 -0.3897  0.3615 -0.3453
  710MOL0     C93607   8.221   1.089   4.795  0.2891 -0.2577 -0.1738
  710MOL0     C93608   8.089   1.142   4.753  0.0892  1.1076  0.7144
  710MOL0     C93609   8.073   1.141   4.595 -1.4698  0.9109 -0.6071
  710MOL0     C93610   7.935   1.192   4.572  0.5602  0.8364  0.1879
  710MOL0     C93611   7.887   1.173   4.427 -0.4606  0.7452 -0.4710
  710MOL0     O93612   7.906   1.301   4.370  0.2172  0.5991 -0.0497
  710MOL0     C93613   7.834   1.335   4.253 -0.1311 -0.3301 -0.1272
  710MOL0     C93614   7.818   1.255   4.145 -0.1778 -0.2612  0.4352
  710MOL0     C93615   7.743   1.282   4.035  0.9444 -0.0554  0.4321
  710MOL0     C93616   7.679   1.404   4.028 -0.0886  0.7836  0.8617
  710MOL0     C93617   7.610   1.441   3.904 -0.0044  0.3110  0.4912
  710MOL0     O93618   7.536   1.552   3.893 -0.1771  0.4362  0.1009
  710MOL0     C93619   7.458   1.570   3.789 -1.2091 -0.1821  0.3086
  710MOL0     C93620   7.502   1.630   3.662  0.1704  0.5245 -0.5218
  710MOL0     C93621   7.415   1.655   3.565  0.2063 -0.4812  0.2519
  710MOL0     C93622   7.273   1.631   3.590 -0.3131  0.6857 -0.0205
  710MOL0     O93623   7.177   1.636   3.496 -1.1886  0.6787 -0.2959
  710MOL0     C93624   7.205   1.639   3.358 -0.5913  0.6743  0.1438
  710MOL0     C93625   7.071   1.654   3.290 -0.0489  0.9326  0.5826
  710MOL0     C93626   6.982   1.526   3.314  0.7110  0.6090  0.0227
  710MOL0     C93627   6.844   1.553   3.260 -0.6122  0.4948  0.6639
  710MOL0     C93628   6.848   1.548   3.109  0.8748 -0.6384  1.7814
  710MOL0     C93629   6.711   1.600   3.057  0.3222 -1.1188 -0.0309
  710MOL0     C93630   6.583   1.503   3.058  0.7843  0.4705  0.3571
  710MOL0     C93631   6.554   1.440   2.914 -0.9154  0.6457  0.0723
  710MOL0    Cl93632   6.429   1.315   2.945 -0.2082 -0.1254 -0.0423
  710MOL0     C93633   7.232   1.581   3.717 -0.3038  0.1482 -0.2209
  710MOL0     C93634   7.319   1.557   3.818 -0.4754 -0.5865 -0.6067
  710MOL0     O93635   7.622   1.358   3.815  0.8682  0.0588  0.5059
  710MOL0     C93636   7.686   1.484   4.140 -0.5647  0.1404  0.0418
  710MOL0     C93637   7.755   1.456   4.253 -0.5569  0.2336 -0.8413
  710MOL0     N93638   8.337   1.103   4.731 -0.0681 -0.0332  0.2572
  710MOL0     N93639   8.431   1.048   4.799 -0.6770 -0.1508  0.0659
  710MOL0     C93640   9.304   0.733   5.831  0.0773 -0.6501  0.6278
  710MOL0     C93641   9.349   0.741   5.960 -0.4762  0.5070  0.4497
  710MOL0     C93642   9.395   0.951   6.386  0.7538  0.5456 -0.6539
  710MOL0     C93643   9.341   1.049   6.474  0.4604  0.2426  0.6846
  710MOL0     C93644   9.422   1.106   6.573 -0.3484  0.8894  0.7215
  710MOL0     C93645   9.554   1.068   6.597  1.0340  0.6322  0.7434
  710MOL0     O93646   9.629   1.106   6.702  0.2924 -0.1586 -0.5394
  710MOL0     C93647   9.586   1.208   6.800  0.4405  0.0159  1.0396
  710MOL0     C93648   9.461   1.179   6.888  0.6519  0.0858 -1.3149
  710MOL0     C93649   9.465   1.035   6.944  0.0527 -0.3536 -0.3146
  710MOL0     C93650   9.318   0.997   6.995  0.7748 -0.3308  0.2958
  710MOL0     C93651   9.214   1.018   6.888 -0.4817  0.1941  0.3020
  710MOL0     C93652   9.139   1.029   6.797  0.4247  0.2501  0.2291
  710MOL0     C93653   9.604   0.963   6.517 -0.5705 -0.0323  0.8701
  710MOL0     C93654   9.526   0.909   6.414  0.4248  0.5962 -0.4365
  710MOL0     H93655   9.181   1.034   6.039  0.8907 -0.2220 -0.0085
  710MOL0     H93656   9.086   1.009   5.834  1.2514  2.2850 -0.9828
  710MOL0     H93657   9.063   0.989   5.605  0.6336  0.1715 -0.9395
  710MOL0     H93658   8.970   0.858   5.683  0.9299 -1.1879  0.9461
  710MOL0     H93659   8.961   0.726   5.493 -0.7319  0.3340  0.5211
  710MOL0     H93660   9.085   0.836   5.405  1.3375  0.4590  0.7468
  710MOL0     H93661   8.932   1.020   5.409 -0.4384 -0.2803 -1.0503
  710MOL0     H93662   8.811   0.929   5.506 -0.6211 -1.0813  0.1460
  710MOL0     H93663   8.884   0.830   5.232  1.3189  3.0293  0.3013
  710MOL0     H93664   8.752   0.785   5.334  1.3912 -0.2188 -0.4776
  710MOL0     H93665   8.741   0.962   5.112 -0.1536 -0.1856 -0.2734
  710MOL0     H93666   8.746   1.081   5.239  1.6671 -0.1447 -1.1352
  710MOL0     H93667   8.558   0.999   5.358  1.6319 -1.0009  0.5522
  710MOL0     H93668   8.559   0.844   5.280  2.6569  0.9220  2.9871
  710MOL0     H93669   8.364   1.008   5.206  0.1838  0.8276 -0.6928
  710MOL0     H93670   8.487   1.115   5.118 -1.0526 -0.5270 -3.2335
  710MOL0     H93671   8.396   0.847   5.035  0.6767 -0.1229  1.5624
  710MOL0     H93672   8.548   0.907   4.983  0.1605  3.9152 -3.3422
  710MOL0     H93673   8.172   1.019   4.995 -0.6522 -0.2228 -0.7062
  710MOL0     H93674   8.067   1.242   4.793 -2.2509  0.3284  1.5802
  710MOL0     H93675   8.017   1.072   4.797  0.2889 -2.1028 -3.4257
  710MOL0     H93676   8.079   1.039   4.557 -0.0064  1.6421 -2.5419
  710MOL0     H93677   8.167   1.191   4.570  0.1550 -0.5418  2.0843
  710MOL0     H93678   7.870   1.138   4.640 -0.9449  0.8688 -1.1635
  710MOL0     H93679   7.927   1.296   4.605  2.5281  1.0997 -0.0257
  710MOL0     H93680   7.779   1.156   4.415 -0.0626 -0.5710 -2.6959
  710MOL0     H93681   7.935   1.087   4.380 -1.2325 -0.7057  1.2892
  710MOL0     H93682   7.879   1.166   4.149  0.6175  0.2145  5.3016
  710MOL0     H93683   7.737   1.201   3.963 -1.1320 -0.2244  0.7393
  710MOL0     H93684   7.607   1.655   3.651 -0.0739  0.8841 -2.3719
  710MOL0     H93685   7.458   1.696   3.474  0.2688  0.4342  0.6833
  710MOL0     H93686   7.250   1.550   3.314  1.0348  1.4391  0.1564
  710MOL0     H93687   7.260   1.726   3.320 -0.6275 -0.1413 -1.9049
  710MOL0     H93688   7.100   1.649   3.185  2.9297 -0.3544  1.3569
  710MOL0     H93689   7.023   1.750   3.308 -1.5600  0.9080 -2.6614
  710MOL0     H93690   6.970   1.519   3.422 -2.5728 -4.6920 -0.3381
  710MOL0     H93691   7.031   1.438   3.271  0.9694  1.0881 -0.6873
  710MOL0     H93692   6.770   1.492   3.313 -4.5226  4.1915  0.0110
  710MOL0     H93693   6.823   1.654   3.297 -0.3354  0.6620  0.3684
  710MOL0     H93694   6.872   1.447   3.074  3.5243  0.6663 -0.6909
  710MOL0     H93695   6.919   1.615   3.060  0.4789  0.3882  2.5909
  710MOL0     H93696   6.715   1.637   2.954 -2.0384 -2.1820 -0.5716
  710MOL0     H93697   6.692   1.689   3.117  0.7331 -0.9003 -0.2194
  710MOL0     H93698   6.585   1.420   3.128 -0.6136  0.3696  0.3001
  710MOL0     H93699   6.493   1.559   3.084  1.1605 -0.1691  3.3065
  710MOL0     H93700   6.642   1.397   2.866 -1.1508 -1.3643  1.3117
  710MOL0     H93701   6.509   1.517   2.851  0.0670  2.1641  1.1801
  710MOL0     H93702   7.133   1.544   3.743 -1.1404  3.3457  1.7070
  710MOL0     H93703   7.289   1.519   3.915  2.0710 -2.3830 -0.4204
  710MOL0     H93704   7.639   1.581   4.130  0.1189  0.4581 -0.2091
  710MOL0     H93705   7.758   1.528   4.335  0.7476 -0.5854 -0.1174
  710MOL0     H93706   9.333   0.652   5.766 -0.5071 -2.3479  2.4117
  710MOL0     H93707   9.413   0.663   6.001  1.6619 -1.2255 -5.2410
  710MOL0     H93708   9.244   1.092   6.453 -0.1580 -1.6231 -0.5629
  710MOL0     H93709   9.388   1.198   6.621 -1.2086  0.3068  1.2418
  710MOL0     H93710   9.572   1.300   6.742  3.0447  0.8610  1.6087
  710MOL0     H93711   9.675   1.233   6.860  3.0408  0.1607 -2.5786
  710MOL0     H93712   9.460   1.244   6.976  1.0543 -1.4499 -0.1289
  710MOL0     H93713   9.369   1.203   6.833 -2.1485 -0.8506  2.5853
  710MOL0     H93714   9.539   1.034   7.025  0.3979  1.9635 -0.5438
  710MOL0     H93715   9.495   0.961   6.869 -1.3688 -0.7801 -0.4905
  710MOL0     H93716   9.329   0.897   7.039  1.9428  0.4814  1.9606
  710MOL0     H93717   9.285   1.062   7.077  1.7307 -0.2029  0.5853
  710MOL0     H93718   9.056   1.027   6.730 -0.9029 -1.6127  1.7979
  710MOL0     H93719   9.707   0.935   6.533 -0.5722 -0.8236 -0.4118
  710MOL0     H93720   9.571   0.824   6.363  1.5914  0.2154  1.1578
  711MOL0     O93721   0.862  10.442   6.123 -0.0789 -0.0353 -0.2934
  711MOL0     C93722   0.924  10.342   6.148  0.4377  0.0025  0.4884
  711MOL0     O93723   0.873  10.234   6.205 -0.2693  0.0620  0.2913
  711MOL0     C93724   0.748  10.221   6.252  0.1806 -0.7242 -1.2550
  711MOL0     C93725   0.714  10.087   6.305  0.8076 -0.5352  0.2312
  711MOL0     C93726   0.581  10.062   6.337  0.1698 -0.4165 -0.2971
  711MOL0     C93727   0.476  10.154   6.314 -0.4855  0.3459  0.6511
  711MOL0     O93728   0.357  10.118   6.358 -0.8709  0.5845 -0.1462
  711MOL0     C93729   0.233  10.194   6.335  0.6099 -0.4163  0.4139
  711MOL0     C93730   0.101  10.115   6.378  0.3292 -0.1912 -0.5790
  711MOL0     C93731   0.064  10.113   6.520  0.0413 -0.3238  0.6830
  711MOL0     C93732   0.038  10.249   6.579 -0.2150  0.4826  0.4036
  711MOL0     C93733  -0.043  10.243   6.715 -0.6495 -0.0590  0.7433
  711MOL0     C93734  -0.198  10.217   6.695  0.0150 -0.6304  0.9132
  711MOL0     C93735  -0.279  10.204   6.827 -0.4446 -0.1796 -0.5309
  711MOL0     C93736  -0.428  10.186   6.814  0.3713  0.8244  1.0505
  711MOL0     N93737  -0.500  10.228   6.695 -0.8254 -0.4349 -1.3673
  711MOL0     C93738  -0.532  10.134   6.592 -1.1170  0.0418  0.4711
  711MOL0     C93739  -0.569  10.206   6.491 -0.2179 -0.9855 -0.3586
  711MOL0     C93740  -0.609  10.155   6.346  0.1393 -0.4887 -0.3640
  711MOL0     C93741  -0.523  10.232   6.237  0.1157  0.2327  0.2184
  711MOL0     C93742  -0.380  10.181   6.253  0.1836 -0.5680 -0.0180
  711MOL0     C93743  -0.279  10.203   6.144 -0.4787  0.3317 -0.2981
  711MOL0     O93744  -0.298  10.118   6.031  0.3555 -0.2238  0.3563
  711MOL0     C93745  -0.242  10.174   5.918  0.0041  0.3028  0.0427
  711MOL0     C93746  -0.330  10.251   5.836 -1.2250  0.8493 -0.2626
  711MOL0     C93747  -0.281  10.339   5.740  0.0143 -0.5959 -0.6924
  711MOL0     C93748  -0.146  10.335   5.712 -0.7783 -0.4710  0.2961
  711MOL0     C93749  -0.095  10.412   5.595  0.3873  1.0820  0.5905
  711MOL0     O93750  -0.190  10.454   5.513 -0.1926 -0.3946  0.0898
  711MOL0     C93751  -0.158  10.494   5.384  0.2789  0.3720  1.0217
  711MOL0     C93752  -0.088  10.611   5.358 -0.2284 -0.5415 -0.2361
  711MOL0     C93753  -0.065  10.647   5.230  0.6398 -0.8830 -0.2275
  711MOL0     C93754  -0.103  10.564   5.120 -0.4445  0.1686 -0.1510
  711MOL0     O93755  -0.042  10.586   5.000 -0.2085 -0.5051 -0.5747
  711MOL0     C93756   0.052  10.489   4.954  0.3634  0.1440 -0.1872
  711MOL0     C93757   0.187  10.556   4.931 -0.0862 -0.7751  0.3450
  711MOL0     C93758   0.262  10.597   5.054 -0.3510  0.1457  0.0280
  711MOL0     C93759   0.380  10.682   4.994  0.5928  0.7125  0.0669
  711MOL0     C93760   0.482  10.726   5.100  0.2572  0.4807  0.3370
  711MOL0     C93761   0.583  10.811   5.020  0.4990 -0.6762  0.9009
  711MOL0     C93762   0.672  10.888   5.106  0.4637  0.2476 -0.0808
  711MOL0     C93763   0.782  10.795   5.156  0.8444 -0.2295 -0.0381
  711MOL0    Cl93764   0.831  10.886   5.300  0.0697  0.0417  0.1272
  711MOL0     C93765  -0.167  10.446   5.152  0.3475 -0.2245  0.1668
  711MOL0     C93766  -0.203  10.414   5.285  0.2968  0.3336 -0.2845
  711MOL0     O93767   0.027  10.420   5.580  0.4825 -0.2726 -0.2544
  711MOL0     C93768  -0.060  10.257   5.796 -0.2094 -0.3228 -0.9841
  711MOL0     C93769  -0.104  10.186   5.903  0.3145  1.0193  0.7530
  711MOL0     N93770  -0.575  10.342   6.529 -0.1667 -0.2358 -0.3584
  711MOL0     N93771  -0.516  10.355   6.643 -1.4779 -0.2948 -0.3214
  711MOL0     C93772   0.512  10.287   6.291 -0.6457 -0.0662 -0.0533
  711MOL0     C93773   0.644  10.317   6.256  0.1602  0.2326 -0.1568
  711MOL0     C93774   1.054  10.327   6.087  1.2807  0.2301  1.3836
  711MOL0     C93775   1.155  10.244   6.148  0.4754 -0.2800 -0.2254
  711MOL0     C93776   1.279  10.231   6.094 -0.1993 -0.0216 -0.7821
  711MOL0     C93777   1.319  10.313   5.991  1.0867 -0.2131 -0.2298
  711MOL0     O93778   1.449  10.325   5.941 -0.1600  1.1902 -0.3107
  711MOL0     C93779   1.466  10.311   5.806  0.8727  0.3111  0.2963
  711MOL0     C93780   1.550  10.418   5.745  0.7468 -0.6388 -0.7564
  711MOL0     C93781   1.679  10.421   5.827  0.5352  0.0144  0.3110
  711MOL0     C93782   1.768  10.532   5.760  0.7152  0.1153  0.8127
  711MOL0     C93783   1.908  10.503   5.794  0.3241 -0.3910  0.4672
  711MOL0     C93784   2.011  10.451   5.838  1.3911 -0.1728 -0.4104
  711MOL0     C93785   1.223  10.400   5.922 -1.0330  0.1435  0.7621
  711MOL0     C93786   1.092  10.398   5.967 -0.2859  0.5604  0.1677
  711MOL0     H93787   0.783  10.002   6.304  2.7999  0.9968 -1.2004
  711MOL0     H93788   0.561   9.965   6.381 -2.1481  0.7249  1.3741
  711MOL0     H93789   0.206  10.225   6.234  0.0792 -0.7440  0.4494
  711MOL0     H93790   0.249  10.294   6.378 -0.5426  1.0277 -2.2793
  711MOL0     H93791   0.122  10.011   6.352 -1.5370 -1.1763  1.5431
  711MOL0     H93792   0.015  10.153   6.322  0.2721 -1.4748 -1.4193
  711MOL0     H93793   0.145  10.066   6.575  0.4499 -0.2305  0.1739
  711MOL0     H93794  -0.025  10.051   6.523  0.1683 -0.6067 -0.7134
  711MOL0     H93795   0.141  10.279   6.603 -0.4179 -0.3265  2.4572
  711MOL0     H93796  -0.003  10.313   6.500 -1.0577  0.4842  0.8380
  711MOL0     H93797  -0.034  10.339   6.766  0.9956 -0.3388  1.0121
  711MOL0     H93798  -0.002  10.160   6.772 -2.5684 -3.1771 -2.0574
  711MOL0     H93799  -0.218  10.125   6.639  0.7288 -0.4068  0.2712
  711MOL0     H93800  -0.245  10.291   6.629 -0.8465 -0.9955  1.0997
  711MOL0     H93801  -0.235  10.120   6.881 -2.0365 -0.9946 -0.4461
  711MOL0     H93802  -0.261  10.298   6.881 -2.9994  0.1985 -0.2008
  711MOL0     H93803  -0.471  10.237   6.901  0.4585  1.4959  0.7040
  711MOL0     H93804  -0.452  10.080   6.830 -2.7369  1.3378  0.3092
  711MOL0     H93805  -0.523  10.026   6.583 -1.7401  0.0450 -0.2166
  711MOL0     H93806  -0.716  10.173   6.333 -0.1888 -0.9058  1.4345
  711MOL0     H93807  -0.589  10.047   6.342 -1.5955 -1.0106  2.3376
  711MOL0     H93808  -0.517  10.342   6.240  1.0461  0.1849  2.3879
  711MOL0     H93809  -0.566  10.203   6.141 -0.8854  2.5677 -0.1244
  711MOL0     H93810  -0.350  10.238   6.341 -0.5435 -0.8891  0.4382
  711MOL0     H93811  -0.368  10.076   6.278  1.1061 -0.5040 -0.1529
  711MOL0     H93812  -0.181  10.177   6.185 -1.5885  0.6277  2.7804
  711MOL0     H93813  -0.285  10.310   6.122  2.6173  0.4452 -1.0397
  711MOL0     H93814  -0.435  10.247   5.861 -1.2366  1.1041 -0.2709
  711MOL0     H93815  -0.350  10.411   5.697  0.0984  0.5579  0.9995
  711MOL0     H93816  -0.053  10.672   5.440  1.4424 -0.2742 -1.1199
  711MOL0     H93817  -0.014  10.738   5.198  2.9593 -1.6330  1.1440
  711MOL0     H93818   0.021  10.437   4.863 -1.0331 -0.0539  0.3834
  711MOL0     H93819   0.054  10.411   5.031  3.3461 -0.3608 -0.6434
  711MOL0     H93820   0.169  10.643   4.868 -1.0413  1.7884  3.7903
  711MOL0     H93821   0.253  10.481   4.888  1.5872 -1.6144  3.9598
  711MOL0     H93822   0.300  10.515   5.116  0.5423 -0.1152 -0.8347
  711MOL0     H93823   0.200  10.663   5.115 -2.0674 -0.6170 -0.8271
  711MOL0     H93824   0.436  10.618   4.926  0.6964 -0.4287  1.1853
  711MOL0     H93825   0.335  10.770   4.947  0.6470  1.7112  1.7959
  711MOL0     H93826   0.524  10.634   5.143  0.6546 -0.2147 -1.4371
  711MOL0     H93827   0.443  10.777   5.188  2.5132 -2.8235  3.5725
  711MOL0     H93828   0.533  10.891   4.965  0.8036 -0.1275  1.4048
  711MOL0     H93829   0.646  10.748   4.956  0.2371 -0.2625  0.2301
  711MOL0     H93830   0.715  10.969   5.047 -0.8052 -0.3612 -1.9116
  711MOL0     H93831   0.614  10.939   5.183 -2.1205 -0.0231 -1.7348
  711MOL0     H93832   0.866  10.785   5.085  2.1554  2.4887  1.0053
  711MOL0     H93833   0.741  10.697   5.181  1.4180 -0.4705 -0.0263
  711MOL0     H93834  -0.189  10.372   5.076  2.6624 -1.3113  0.4449
  711MOL0     H93835  -0.249  10.321   5.314 -1.5975  1.4809  0.5676
  711MOL0     H93836   0.045  10.246   5.772 -0.3347 -1.0471 -1.2354
  711MOL0     H93837  -0.031  10.132   5.962 -0.6982 -0.1014  1.0253
  711MOL0     H93838   0.447  10.375   6.295 -0.3550  0.1774 -0.6800
  711MOL0     H93839   0.656  10.424   6.241 -3.5395  0.8878  0.5327
  711MOL0     H93840   1.114  10.196   6.237 -1.8241  0.8038 -0.6321
  711MOL0     H93841   1.360  10.170   6.131  0.8505  2.2809  0.9455
  711MOL0     H93842   1.372  10.311   5.749  0.4927  0.7057  0.9056
  711MOL0     H93843   1.519  10.216   5.794 -0.6490 -0.3696 -1.5523
  711MOL0     H93844   1.572  10.384   5.643  2.5109  0.6356 -0.8552
  711MOL0     H93845   1.503  10.515   5.725  1.1764 -0.4455 -0.8568
  711MOL0     H93846   1.724  10.321   5.827  2.8023  0.8745 -2.4210
  711MOL0     H93847   1.645  10.451   5.926  1.6204  2.3339  0.0489
  711MOL0     H93848   1.752  10.521   5.652 -1.9058 -1.1671  1.2433
  711MOL0     H93849   1.736  10.625   5.808  1.5596  0.4118  0.8000
  711MOL0     H93850   2.099  10.411   5.885  0.5544  1.4352  2.7771
  711MOL0     H93851   1.240  10.457   5.832  1.8489  0.8914  1.6586
  711MOL0     H93852   1.027  10.465   5.912  0.9720  1.6192 -0.0883
  712MOL0     O93853   8.520   9.095   2.141 -0.0323  0.5950  0.2325
  712MOL0     C93854   8.415   9.041   2.096  0.1192  0.6264  0.2559
  712MOL0     O93855   8.384   9.027   1.968 -0.3715  0.3122 -0.3279
  712MOL0     C93856   8.472   9.048   1.869 -0.3662  0.4175  0.9837
  712MOL0     C93857   8.615   9.075   1.877  0.4367  0.6333  0.4410
  712MOL0     C93858   8.678   9.131   1.773  0.2696  0.1555  0.7150
  712MOL0     C93859   8.631   9.135   1.643  0.0601  0.0917  0.1892
  712MOL0     O93860   8.703   9.175   1.542  0.0412 -0.0330 -0.0151
  712MOL0     C93861   8.810   9.088   1.512 -0.0841  1.3909  0.2632
  712MOL0     C93862   8.885   9.114   1.376 -0.4581 -0.8164  0.2107
  712MOL0     C93863   8.936   9.255   1.353 -1.1581 -0.5615  0.9184
  712MOL0     C93864   8.838   9.361   1.294  0.6107 -0.6465  0.4783
  712MOL0     C93865   8.890   9.507   1.301  0.1882  0.4597  0.6335
  712MOL0     C93866   8.802   9.593   1.212 -0.0068 -1.0640 -0.1911
  712MOL0     C93867   8.838   9.742   1.207  1.2097 -0.6182 -0.7166
  712MOL0     C93868   8.960   9.778   1.134  0.0074  0.1886 -0.4989
  712MOL0     N93869   9.073   9.770   1.226 -0.4669 -0.1515  0.5901
  712MOL0     C93870   9.178   9.692   1.203  0.9017 -0.6221 -0.2868
  712MOL0     C93871   9.235   9.674   1.323 -0.8982  0.3894 -0.9014
  712MOL0     C93872   9.347   9.583   1.353 -0.1477  0.0130 -0.2027
  712MOL0     C93873   9.342   9.510   1.498  1.9841 -0.5906  1.2717
  712MOL0     C93874   9.468   9.429   1.490 -0.1570 -0.3423  0.3172
  712MOL0     C93875   9.593   9.507   1.510  1.3429 -0.2034 -0.5573
  712MOL0     O93876   9.692   9.468   1.413 -0.8430 -0.0299  0.5241
  712MOL0     C93877   9.726   9.539   1.304  0.1115 -0.0026  0.2830
  712MOL0     C93878   9.803   9.472   1.206 -0.0633 -0.9876  0.9865
  712MOL0     C93879   9.841   9.529   1.076 -0.6335 -0.2693 -0.7445
  712MOL0     C93880   9.809   9.663   1.053 -0.5889 -0.0654  0.2705
  712MOL0     C93881   9.854   9.722   0.934  0.2445 -0.2987  0.2005
  712MOL0     O93882   9.815   9.854   0.921 -0.0215  0.0478  0.1814
  712MOL0     C93883   9.817   9.916   0.807 -0.3825  0.3761  0.6762
  712MOL0     C93884   9.769   9.852   0.690 -0.2106 -0.3326 -0.0395
  712MOL0     C93885   9.786   9.917   0.566  0.1046  0.3456  0.2641
  712MOL0     C93886   9.838  10.046   0.562 -0.6564 -1.2827 -0.1846
  712MOL0     O93887   9.843  10.105   0.435  0.6251 -0.1262  0.2657
  712MOL0     C93888   9.937  10.210   0.406  0.3302  1.1175  0.8525
  712MOL0     C93889   9.926  10.240   0.248  0.6113  0.3132 -0.1002
  712MOL0     C93890  10.020  10.350   0.211  0.2660 -0.7714  0.1797
  712MOL0     C93891  10.004  10.380   0.064  1.1034 -0.1126 -0.0121
  712MOL0     C93892  10.118  10.477   0.028 -0.6720  0.9260 -0.7359
  712MOL0     C93893  10.110  10.546  -0.107  0.4633 -0.0756  0.7600
  712MOL0     C93894   9.975  10.545  -0.173  0.0470 -0.4317 -0.4534
  712MOL0     C93895   9.970  10.618  -0.311 -1.0176  0.8783  0.6735
  712MOL0    Cl93896  10.075  10.538  -0.435 -0.4629  0.1358  0.4188
  712MOL0     C93897   9.872  10.110   0.680  0.5402 -0.8697 -0.0900
  712MOL0     C93898   9.859  10.051   0.805  0.4881  0.0622 -0.6154
  712MOL0     O93899   9.919   9.664   0.853  0.9349 -0.0428 -0.0887
  712MOL0     C93900   9.736   9.732   1.155  0.3110 -0.1621  0.3969
  712MOL0     C93901   9.687   9.668   1.272  0.2235  0.4851  0.5028
  712MOL0     N93902   9.183   9.762   1.416 -0.5213  0.0136  0.4913
  712MOL0     N93903   9.081   9.819   1.357  0.5413  0.1909  0.1664
  712MOL0     C93904   8.498   9.103   1.628 -0.5814  0.1602 -0.3328
  712MOL0     C93905   8.424   9.062   1.739  0.1948  0.8775  0.5827
  712MOL0     C93906   8.325   8.980   2.195  1.2881 -0.0911  0.4730
  712MOL0     C93907   8.377   8.946   2.320  0.2197  0.0305  0.6783
  712MOL0     C93908   8.291   8.907   2.416 -0.2469  0.0625  0.7750
  712MOL0     C93909   8.161   8.877   2.400  0.0122  0.5779  0.3785
  712MOL0     O93910   8.072   8.828   2.496  0.2623 -0.0999  0.0627
  712MOL0     C93911   8.093   8.843   2.634 -0.3298 -0.6229  0.4491
  712MOL0     C93912   8.075   8.990   2.682 -0.5909 -0.2138  0.5566
  712MOL0     C93913   8.102   8.984   2.830  0.4146 -0.1526 -0.2444
  712MOL0     C93914   8.081   9.116   2.904  0.1313 -0.0604  0.1281
  712MOL0     C93915   8.063   9.085   3.047  0.0458 -0.3508 -0.2441
  712MOL0     C93916   8.065   9.080   3.171 -0.4587 -0.1713  0.1733
  712MOL0     C93917   8.107   8.899   2.271 -0.2906  0.4650 -0.2537
  712MOL0     C93918   8.188   8.955   2.168 -0.0631  0.1285 -1.0140
  712MOL0     H93919   8.676   9.071   1.967  3.4091  1.5908 -1.4098
  712MOL0     H93920   8.782   9.156   1.793 -0.1831  2.4891  0.4576
  712MOL0     H93921   8.766   8.988   1.509 -1.2448  1.8996 -0.0081
  712MOL0     H93922   8.886   9.088   1.590 -1.0997  1.5198  1.2717
  712MOL0     H93923   8.823   9.072   1.296  2.9840 -4.6093 -0.8031
  712MOL0     H93924   8.967   9.043   1.390  0.9464  1.0889  2.1378
  712MOL0     H93925   9.024   9.240   1.290 -1.6509 -0.5243  0.2098
  712MOL0     H93926   8.980   9.295   1.445  2.3574 -0.6770 -0.5771
  712MOL0     H93927   8.819   9.318   1.195 -0.5014 -2.2049  1.3211
  712MOL0     H93928   8.742   9.362   1.345 -0.8584 -2.7290 -1.9948
  712MOL0     H93929   8.996   9.508   1.275  0.1826  0.4361  0.6050
  712MOL0     H93930   8.884   9.542   1.404  0.4872  2.7799 -0.0813
  712MOL0     H93931   8.697   9.586   1.240 -0.9263 -2.2877 -3.4108
  712MOL0     H93932   8.806   9.553   1.110  2.4215  0.1710 -0.6659
  712MOL0     H93933   8.753   9.788   1.156  0.1015  0.5837  2.0145
  712MOL0     H93934   8.833   9.763   1.315 -0.1364 -0.3019 -0.8295
  712MOL0     H93935   8.956   9.880   1.095 -0.3626  0.1932 -0.4483
  712MOL0     H93936   8.967   9.707   1.050 -1.2149  2.1123 -2.3222
  712MOL0     H93937   9.184   9.625   1.118  2.1319 -0.3374 -0.4432
  712MOL0     H93938   9.438   9.642   1.337 -0.5604  0.2456 -1.8428
  712MOL0     H93939   9.338   9.504   1.278 -0.1422 -2.9961  2.7329
  712MOL0     H93940   9.252   9.448   1.510  1.9196 -0.9985 -0.9272
  712MOL0     H93941   9.338   9.590   1.572 -3.8455  2.7437 -1.8377
  712MOL0     H93942   9.460   9.364   1.578  1.7090  2.8768  3.1100
  712MOL0     H93943   9.472   9.359   1.407 -1.8942 -0.3367  0.1992
  712MOL0     H93944   9.640   9.487   1.607  0.0429  1.1391  0.4043
  712MOL0     H93945   9.567   9.614   1.515  0.3189 -0.5068  2.3328
  712MOL0     H93946   9.840   9.371   1.219 -0.7307 -1.1354  1.8885
  712MOL0     H93947   9.899   9.464   1.011 -0.4536  0.1851 -1.0421
  712MOL0     H93948   9.719   9.756   0.697  1.3198 -1.2368 -0.9899
  712MOL0     H93949   9.756   9.877   0.470  0.6947 -0.4212  0.3914
  712MOL0     H93950  10.041  10.178   0.412 -0.5989 -2.6594 -0.7289
  712MOL0     H93951   9.913  10.293   0.474 -1.9576 -0.0860  1.6277
  712MOL0     H93952   9.824  10.279   0.239 -2.0930 -5.4098  1.0997
  712MOL0     H93953   9.946  10.157   0.179  4.8315  0.2988  0.8681
  712MOL0     H93954  10.124  10.317   0.214  0.8703  0.7624 -1.7875
  712MOL0     H93955  10.005  10.433   0.280  0.2000 -0.3598 -0.3218
  712MOL0     H93956  10.011  10.300  -0.011 -0.5134 -0.5979  0.3251
  712MOL0     H93957   9.907  10.427   0.051  1.3006 -0.1941 -2.1644
  712MOL0     H93958  10.214  10.425   0.034  0.9724  3.8574  0.5653
  712MOL0     H93959  10.122  10.553   0.107 -2.3362 -1.3632  1.7163
  712MOL0     H93960  10.173  10.485  -0.173 -1.0880 -0.2295 -0.6641
  712MOL0     H93961  10.156  10.645  -0.104 -1.5544  0.9105  0.5988
  712MOL0     H93962   9.934  10.445  -0.193  0.4674 -0.9879  1.3593
  712MOL0     H93963   9.911  10.600  -0.104  0.4495  0.8720 -1.0939
  712MOL0     H93964  10.008  10.721  -0.302  1.0680  0.1775  0.3866
  712MOL0     H93965   9.872  10.632  -0.358  0.8136  1.7636 -3.2779
  712MOL0     H93966   9.911  10.211   0.675  1.2217 -1.1132  0.3135
  712MOL0     H93967   9.888  10.099   0.898 -1.3534  3.9506 -1.8360
  712MOL0     H93968   9.716   9.838   1.146 -0.6986 -0.2403  1.4857
  712MOL0     H93969   9.629   9.729   1.340 -1.3232  1.2360 -1.3865
  712MOL0     H93970   8.446   9.111   1.532  0.9958  0.1443 -1.2170
  712MOL0     H93971   8.325   9.047   1.697  0.6851  0.8038 -0.5892
  712MOL0     H93972   8.482   8.960   2.342 -0.0883  1.5967  1.2961
  712MOL0     H93973   8.320   8.882   2.517 -1.8380 -4.0211  0.4371
  712MOL0     H93974   8.193   8.805   2.658 -1.8730 -3.4650  3.2464
  712MOL0     H93975   8.027   8.769   2.682 -0.4705 -0.5993  0.2938
  712MOL0     H93976   8.144   9.063   2.638 -2.7624  0.9133 -1.1650
  712MOL0     H93977   7.972   9.010   2.652 -0.6130 -2.5895 -1.2319
  712MOL0     H93978   8.204   8.957   2.858  0.3177  0.5045  0.8018
  712MOL0     H93979   8.049   8.897   2.870  1.2359 -1.2914 -1.5386
  712MOL0     H93980   8.160   9.189   2.882 -1.0767  0.4763 -3.0085
  712MOL0     H93981   7.988   9.165   2.874 -0.3845  0.3348  2.2062
  712MOL0     H93982   8.062   9.081   3.278  4.9669  4.8606  0.8338
  712MOL0     H93983   8.001   8.875   2.269 -0.1869 -1.3837  4.0726
  712MOL0     H93984   8.136   8.956   2.073 -0.5138  0.3825 -0.7675
  713MOL0     O93985   3.123   7.265   3.942 -0.3984 -0.5492 -0.8393
  713MOL0     C93986   3.178   7.155   3.956  0.0358 -0.0963 -1.4682
  713MOL0     O93987   3.319   7.133   3.981  0.2498  0.3659  0.0152
  713MOL0     C93988   3.408   7.235   3.961 -0.3833  0.1532  0.7149
  713MOL0     C93989   3.430   7.296   3.834  0.6781 -0.2655 -0.0609
  713MOL0     C93990   3.520   7.387   3.821  0.5114 -0.7487 -0.5026
  713MOL0     C93991   3.598   7.429   3.933 -0.8690 -0.4269  0.0731
  713MOL0     O93992   3.701   7.520   3.923 -0.2609 -0.2210  1.0839
  713MOL0     C93993   3.777   7.506   3.798  0.4846 -0.2098  0.1461
  713MOL0     C93994   3.914   7.572   3.812  0.0820  0.5043  0.0653
  713MOL0     C93995   3.889   7.717   3.842 -0.6527 -0.6361 -0.0257
  713MOL0     C93996   4.014   7.777   3.897 -0.1300 -0.4208  0.0554
  713MOL0     C93997   4.025   7.929   3.872 -0.8803 -0.5400 -0.1350
  713MOL0     C93998   4.109   7.949   3.745  0.1676 -0.1531  0.0917
  713MOL0     C93999   4.149   8.101   3.725  0.2569  0.3058 -0.0393
  713MOL0     C94000   4.245   8.120   3.607 -0.1592 -0.6634 -0.8975
  713MOL0     N94001   4.385   8.089   3.635 -0.2344  0.7314 -0.9532
  713MOL0     C94002   4.477   8.177   3.691 -0.0612  0.5823  0.2845
  713MOL0     C94003   4.584   8.099   3.711  0.5692  0.2712  0.6884
  713MOL0     C94004   4.706   8.155   3.777  0.5620 -0.9910  0.1410
  713MOL0     C94005   4.687   8.181   3.928 -0.7512  0.5008 -0.1645
  713MOL0     C94006   4.709   8.067   4.033  0.7504  0.0939 -0.2487
  713MOL0     C94007   4.674   8.096   4.182 -0.0617  0.3516 -0.2597
  713MOL0     O94008   4.542   8.141   4.193  0.2793 -1.1627  0.6527
  713MOL0     C94009   4.457   8.043   4.235  0.4730  0.7474 -0.2626
  713MOL0     C94010   4.450   8.010   4.372  0.3004  0.0388 -0.8167
  713MOL0     C94011   4.364   7.910   4.424 -0.3389 -0.3036 -0.8440
  713MOL0     C94012   4.298   7.827   4.331  1.0888  0.3754 -0.2605
  713MOL0     C94013   4.224   7.704   4.368 -0.1077  0.5539 -0.0227
  713MOL0     O94014   4.143   7.655   4.264  0.3423 -0.8365 -0.5836
  713MOL0     C94015   4.081   7.526   4.269  0.4862  0.4499 -0.5593
  713MOL0     C94016   4.134   7.411   4.339  0.3212 -1.0320 -0.0280
  713MOL0     C94017   4.089   7.279   4.313  0.3168  0.2417  1.0311
  713MOL0     C94018   3.998   7.252   4.211  0.3759 -0.3341  0.8046
  713MOL0     O94019   3.972   7.114   4.188  0.4199  0.3357 -0.1769
  713MOL0     C94020   3.887   7.079   4.074 -0.5021  0.4871 -0.9790
  713MOL0     C94021   3.835   6.928   4.084 -0.1923 -1.3690 -0.2679
  713MOL0     C94022   3.708   6.901   4.015 -0.3136  0.2135  0.1821
  713MOL0     C94023   3.649   6.763   4.074  0.5534  0.5383 -0.0461
  713MOL0     C94024   3.497   6.769   4.066 -0.3767 -0.7758  0.0461
  713MOL0     C94025   3.422   6.647   4.120 -0.2506  1.1683 -0.1627
  713MOL0     C94026   3.476   6.506   4.084  0.6822 -0.2808  0.2009
  713MOL0     C94027   3.409   6.383   4.165 -0.6889  0.0302  0.7467
  713MOL0    Cl94028   3.238   6.358   4.128  0.2854  0.1923  0.0825
  713MOL0     C94029   3.951   7.357   4.137 -0.8114 -0.4687 -0.2597
  713MOL0     C94030   3.988   7.485   4.171 -0.1832 -0.3074  0.2936
  713MOL0     O94031   4.264   7.647   4.471  0.4476 -0.5908 -0.4036
  713MOL0     C94032   4.313   7.856   4.189 -0.2113  0.3180 -0.4741
  713MOL0     C94033   4.389   7.968   4.145  1.1012  0.7441  0.4550
  713MOL0     N94034   4.555   7.968   3.681  0.0061  0.3547  0.4258
  713MOL0     N94035   4.438   7.960   3.620  0.4123 -0.0819 -0.0356
  713MOL0     C94036   3.588   7.364   4.054 -0.0312 -0.2515 -0.2540
  713MOL0     C94037   3.498   7.259   4.071  0.9711  0.2460 -0.1483
  713MOL0     C94038   3.085   7.039   3.982  0.3295  0.4200  0.4369
  713MOL0     C94039   3.135   6.920   4.028 -0.1255 -0.1637  0.6526
  713MOL0     C94040   3.048   6.813   4.066 -0.3340 -1.2139 -0.2046
  713MOL0     C94041   2.908   6.821   4.054  0.4821 -0.3409  0.2053
  713MOL0     O94042   2.835   6.716   4.099  0.0824  0.0084 -1.0585
  713MOL0     C94043   2.694   6.736   4.099  0.5235 -0.2803  0.5218
  713MOL0     C94044   2.641   6.786   4.237  0.6787  0.4456  0.2410
  713MOL0     C94045   2.489   6.779   4.240  0.9849  0.5011  0.1911
  713MOL0     C94046   2.421   6.908   4.196 -0.4865 -0.0004 -0.5334
  713MOL0     C94047   2.413   7.003   4.314 -0.5305  0.4872  0.6896
  713MOL0     C94048   2.399   7.069   4.409 -0.9044 -1.1075 -0.2229
  713MOL0     C94049   2.857   6.940   4.008 -0.3862 -0.8304 -0.0403
  713MOL0     C94050   2.940   7.049   3.975  0.0420 -0.4343 -0.2896
  713MOL0     H94051   3.373   7.272   3.745  0.6528  0.7479 -0.3232
  713MOL0     H94052   3.531   7.428   3.721  1.9206  0.6633  0.1969
  713MOL0     H94053   3.726   7.561   3.718 -0.5729 -2.5529 -0.8983
  713MOL0     H94054   3.790   7.403   3.764 -2.7511 -0.6702  0.0282
  713MOL0     H94055   3.973   7.562   3.720 -1.3674 -1.0703 -0.7537
  713MOL0     H94056   3.959   7.523   3.899 -2.1061  1.4171  1.7852
  713MOL0     H94057   3.804   7.733   3.909 -0.9020 -3.3461  0.3958
  713MOL0     H94058   3.879   7.761   3.742  0.4351  0.1120  0.1787
  713MOL0     H94059   4.029   7.746   4.001  0.8019 -0.5521 -0.1083
  713MOL0     H94060   4.101   7.733   3.849  1.1695  2.0783 -0.0171
  713MOL0     H94061   4.071   7.981   3.957 -0.5929  0.1151 -0.6849
  713MOL0     H94062   3.927   7.976   3.875 -2.0547 -2.7762  3.7281
  713MOL0     H94063   4.050   7.904   3.665 -1.0618  1.3191  0.1119
  713MOL0     H94064   4.204   7.895   3.744  0.9475  1.1457  0.6989
  713MOL0     H94065   4.066   8.168   3.699  1.8246  1.8107 -1.5426
  713MOL0     H94066   4.197   8.153   3.808 -0.9911  1.4282  0.0034
  713MOL0     H94067   4.231   8.226   3.581  1.4050 -0.1575  0.1352
  713MOL0     H94068   4.201   8.058   3.528 -1.3879 -2.0891  0.8337
  713MOL0     H94069   4.483   8.282   3.717  2.0512  0.3702  0.8436
  713MOL0     H94070   4.735   8.249   3.729  0.0677 -1.4624 -1.0995
  713MOL0     H94071   4.787   8.083   3.760  1.0535 -0.8169  1.5636
  713MOL0     H94072   4.586   8.222   3.937 -2.0934 -2.3214 -1.2158
  713MOL0     H94073   4.762   8.259   3.946 -0.7382  0.5052 -0.2370
  713MOL0     H94074   4.650   7.981   3.999  5.3285 -3.0504 -1.1501
  713MOL0     H94075   4.813   8.036   4.048  1.0815  1.9001  1.5908
  713MOL0     H94076   4.740   8.173   4.222  1.9464 -0.5977 -1.5277
  713MOL0     H94077   4.691   8.006   4.243 -0.7976 -0.4716 -1.2459
  713MOL0     H94078   4.521   8.073   4.424 -1.8331  1.4499  0.5362
  713MOL0     H94079   4.359   7.893   4.531 -0.8423 -0.5119 -0.9014
  713MOL0     H94080   4.206   7.423   4.419 -1.0348  1.4374  0.9353
  713MOL0     H94081   4.114   7.205   4.388 -1.0606 -0.8382  0.4457
  713MOL0     H94082   3.944   7.084   3.981  1.7960  0.6984  0.3614
  713MOL0     H94083   3.799   7.144   4.072 -2.1089 -1.6308 -2.7866
  713MOL0     H94084   3.817   6.915   4.191  1.5951 -0.9766  0.1078
  713MOL0     H94085   3.914   6.855   4.065  0.2409 -1.2201  0.8547
  713MOL0     H94086   3.724   6.904   3.907 -1.6403  2.1905  0.0090
  713MOL0     H94087   3.633   6.977   4.039  0.6577  1.6088 -1.0554
  713MOL0     H94088   3.698   6.677   4.027 -0.4927  0.0837 -0.3389
  713MOL0     H94089   3.673   6.759   4.181  0.2092 -0.6429  0.0078
  713MOL0     H94090   3.468   6.783   3.961  2.6948  0.0086 -0.7997
  713MOL0     H94091   3.460   6.856   4.122  1.6420  1.7592 -2.3187
  713MOL0     H94092   3.317   6.662   4.092  0.5787  1.0534 -3.8313
  713MOL0     H94093   3.432   6.650   4.229 -1.4729 -3.2752  0.2438
  713MOL0     H94094   3.468   6.491   3.976 -0.1692  0.6301  0.1257
  713MOL0     H94095   3.584   6.493   4.098  0.6330 -1.0277 -0.0621
  713MOL0     H94096   3.417   6.409   4.271  2.2278  1.3442  0.3314
  713MOL0     H94097   3.463   6.291   4.140 -0.0434  0.3293  1.0079
  713MOL0     H94098   3.885   7.341   4.053  2.1017  1.7976 -3.2883
  713MOL0     H94099   3.940   7.560   4.110 -0.5700 -0.0870  0.8631
  713MOL0     H94100   4.263   7.790   4.119 -1.9888  0.9014  0.1766
  713MOL0     H94101   4.394   7.990   4.039  1.7695 -1.5238 -0.0350
  713MOL0     H94102   3.658   7.400   4.129 -2.1027  2.5852  0.5113
  713MOL0     H94103   3.498   7.210   4.168 -0.8085 -0.4635 -0.4727
  713MOL0     H94104   3.240   6.894   4.036 -0.6705 -2.1949  1.7524
  713MOL0     H94105   3.085   6.721   4.109 -0.8145 -1.3158 -0.0042
  713MOL0     H94106   2.656   6.638   4.070  0.0603 -0.3845  1.4587
  713MOL0     H94107   2.657   6.804   4.022  3.3796  0.7303 -0.1155
  713MOL0     H94108   2.679   6.715   4.311 -0.7057 -2.2478 -1.4704
  713MOL0     H94109   2.676   6.886   4.264  1.1788  0.5006 -0.5730
  713MOL0     H94110   2.460   6.759   4.344 -1.1405 -0.2961 -0.5060
  713MOL0     H94111   2.456   6.696   4.177  0.8507 -0.3714  1.3717
  713MOL0     H94112   2.475   6.948   4.111  0.1881 -1.7840 -0.9937
  713MOL0     H94113   2.318   6.882   4.168 -0.9814  0.6098  0.6280
  713MOL0     H94114   2.379   7.130   4.496  0.7716 -1.2563  0.3028
  713MOL0     H94115   2.752   6.965   4.014  0.1897  1.6956  0.6772
  713MOL0     H94116   2.901   7.136   3.923  0.2117  0.1570  0.5585
  714MOL0     O94117   1.274   4.234   0.112 -0.2256 -0.5350 -0.1626
  714MOL0     C94118   1.346   4.206   0.210  0.3942  0.2024 -0.2416
  714MOL0     O94119   1.325   4.263   0.330 -0.2740  0.0827  0.1269
  714MOL0     C94120   1.216   4.336   0.340  0.1085 -0.4641 -0.2004
  714MOL0     C94121   1.203   4.476   0.296 -0.6787  0.0826  0.2047
  714MOL0     C94122   1.086   4.541   0.294 -0.2763  0.5763 -0.5261
  714MOL0     C94123   0.969   4.475   0.338  0.3683  0.4030  0.6345
  714MOL0     O94124   0.841   4.531   0.328 -1.5308  0.2360  0.5398
  714MOL0     C94125   0.807   4.657   0.394  0.0186 -0.8743  0.3206
  714MOL0     C94126   0.811   4.628   0.542  0.1848 -0.3598  0.6223
  714MOL0     C94127   0.706   4.527   0.587 -0.2396  0.2812  0.6168
  714MOL0     C94128   0.725   4.466   0.725  0.1378  0.1574 -0.2495
  714MOL0     C94129   0.867   4.430   0.770 -0.5122  0.3351  0.4148
  714MOL0     C94130   0.848   4.327   0.884  0.5063 -0.0814  0.7811
  714MOL0     C94131   0.970   4.297   0.957  0.2166  0.0627  0.4283
  714MOL0     C94132   1.078   4.244   0.862  0.0170 -0.8808 -0.0579
  714MOL0     N94133   1.188   4.188   0.944  0.7283 -0.3907  0.3370
  714MOL0     C94134   1.284   4.251   1.018 -0.1341  0.2529 -0.6314
  714MOL0     C94135   1.360   4.155   1.073 -1.1047  0.0504 -0.6056
  714MOL0     C94136   1.484   4.179   1.157 -1.1801 -0.3133 -0.0209
  714MOL0     C94137   1.583   4.263   1.076  0.1120 -0.1308  0.9562
  714MOL0     C94138   1.720   4.282   1.139 -0.3536  0.9667  0.0351
  714MOL0     C94139   1.799   4.390   1.060  0.9107 -0.0665 -0.6513
  714MOL0     O94140   1.740   4.520   1.090 -1.1185  0.1561  0.6804
  714MOL0     C94141   1.792   4.611   1.171 -0.5824 -0.3896  0.5804
  714MOL0     C94142   1.903   4.587   1.255 -0.5934 -0.8477  0.6423
  714MOL0     C94143   1.952   4.687   1.344  0.0973 -0.0675  1.1385
  714MOL0     C94144   1.898   4.812   1.358  0.7479  0.7244  0.2585
  714MOL0     C94145   1.950   4.905   1.452 -0.3502 -0.1264 -0.0132
  714MOL0     O94146   2.088   4.917   1.448  0.1237 -0.0896  0.2698
  714MOL0     C94147   2.150   5.003   1.540 -0.0816  1.1519  0.8303
  714MOL0     C94148   2.279   5.034   1.503 -0.3541  0.0338  1.3150
  714MOL0     C94149   2.355   5.126   1.568 -0.0692  0.6298  0.6451
  714MOL0     C94150   2.299   5.189   1.685  0.0728  0.8668  0.2246
  714MOL0     O94151   2.363   5.290   1.758 -0.3291  0.3193  0.4707
  714MOL0     C94152   2.470   5.370   1.686 -0.4677 -0.1100  0.2430
  714MOL0     C94153   2.544   5.479   1.765  1.0194 -0.1190  0.6954
  714MOL0     C94154   2.567   5.438   1.908 -0.3682 -0.6676 -0.5897
  714MOL0     C94155   2.643   5.546   1.991 -0.4418  0.7765  0.4385
  714MOL0     C94156   2.647   5.503   2.141 -0.9872 -0.4911 -0.3279
  714MOL0     C94157   2.708   5.622   2.208 -1.0518  0.2305 -0.8716
  714MOL0     C94158   2.702   5.608   2.358 -0.3514 -0.1958 -0.6185
  714MOL0     C94159   2.794   5.700   2.434  0.1482 -0.3055  0.2400
  714MOL0    Cl94160   2.755   5.877   2.425  0.0484 -0.5885  0.2185
  714MOL0     C94161   2.173   5.149   1.731 -0.4616  0.0874 -0.8342
  714MOL0     C94162   2.099   5.063   1.656  0.5405 -1.0582  0.2636
  714MOL0     O94163   1.866   4.965   1.520 -0.1188 -0.2297 -0.4176
  714MOL0     C94164   1.786   4.838   1.276  0.7205  1.2742 -0.4279
  714MOL0     C94165   1.731   4.735   1.193 -0.0715  0.9884 -0.4300
  714MOL0     N94166   1.328   4.030   1.027  0.2256 -0.0590  0.5431
  714MOL0     N94167   1.218   4.052   0.945  0.3621  0.0201  0.0887
  714MOL0     C94168   0.977   4.349   0.390 -1.0734  0.4030 -0.5695
  714MOL0     C94169   1.099   4.277   0.390 -0.3029 -0.0965  0.2226
  714MOL0     C94170   1.476   4.139   0.180  0.7914 -0.2112 -0.8008
  714MOL0     C94171   1.532   4.119   0.053 -0.4109 -0.5296  0.5997
  714MOL0     C94172   1.654   4.053   0.032  0.6074  0.1907 -0.4203
  714MOL0     C94173   1.728   4.022   0.135 -0.5335  1.0321  0.5938
  714MOL0     O94174   1.851   3.977   0.100 -0.3364 -0.8041  0.2797
  714MOL0     C94175   1.926   3.874   0.177  0.2473  0.3812 -0.0822
  714MOL0     C94176   2.024   3.797   0.092 -0.0333  0.2116 -0.1295
  714MOL0     C94177   1.945   3.719  -0.020 -0.0138 -1.0047 -1.3034
  714MOL0     C94178   2.034   3.643  -0.118 -0.0273  0.2541 -0.2791
  714MOL0     C94179   1.959   3.571  -0.231 -0.2501 -0.7361  0.0836
  714MOL0     C94180   1.894   3.527  -0.327  0.2757  0.2621  0.6781
  714MOL0     C94181   1.684   4.036   0.257 -0.6412 -0.6787 -0.8926
  714MOL0     C94182   1.555   4.092   0.284  0.2774  1.0049  0.2827
  714MOL0     H94183   1.298   4.518   0.266 -1.9297  1.5496 -1.9742
  714MOL0     H94184   1.067   4.644   0.265  0.4253  1.9166  3.1618
  714MOL0     H94185   0.707   4.686   0.360  0.7235  1.2634 -0.1147
  714MOL0     H94186   0.870   4.736   0.353 -1.7069  0.2641 -0.2289
  714MOL0     H94187   0.792   4.724   0.592  1.0552  0.7349 -1.0589
  714MOL0     H94188   0.908   4.592   0.578 -0.2610 -1.5391  0.6784
  714MOL0     H94189   0.680   4.451   0.513 -0.2543  0.5221  0.3735
  714MOL0     H94190   0.607   4.574   0.586 -0.5113 -0.2706  0.9058
  714MOL0     H94191   0.678   4.526   0.803  0.2783 -1.1409  0.8764
  714MOL0     H94192   0.666   4.375   0.714 -0.1179  0.5583 -2.6016
  714MOL0     H94193   0.934   4.507   0.808  0.3560 -0.9074  1.4515
  714MOL0     H94194   0.919   4.387   0.684  1.3796  0.1330  1.6083
  714MOL0     H94195   0.797   4.234   0.857 -1.4892  0.6211  1.9629
  714MOL0     H94196   0.789   4.379   0.960 -1.4555 -1.3295  0.1867
  714MOL0     H94197   1.010   4.383   1.011  3.6228  0.0637 -1.7891
  714MOL0     H94198   0.941   4.212   1.021  1.2931 -2.3173 -2.0439
  714MOL0     H94199   1.118   4.332   0.809  0.6099  2.7207  5.4663
  714MOL0     H94200   1.041   4.165   0.797  0.2983 -2.7940  2.0076
  714MOL0     H94201   1.295   4.358   1.033  3.7292 -0.1707  0.6875
  714MOL0     H94202   1.529   4.084   1.186 -2.5335 -0.0285  3.4982
  714MOL0     H94203   1.467   4.243   1.244 -2.1140  1.2706 -1.3077
  714MOL0     H94204   1.541   4.364   1.070  2.1898  0.8867  2.4761
  714MOL0     H94205   1.604   4.225   0.976  0.0697  1.7658  0.1831
  714MOL0     H94206   1.701   4.308   1.243 -1.9980  1.1780 -0.2859
  714MOL0     H94207   1.784   4.195   1.120  0.3837  1.4229  0.3815
  714MOL0     H94208   1.810   4.362   0.955 -0.1603  1.6520 -1.2526
  714MOL0     H94209   1.904   4.388   1.091  0.8357  0.9183 -0.2911
  714MOL0     H94210   1.963   4.497   1.249  0.4128 -0.2469  1.3157
  714MOL0     H94211   2.034   4.657   1.408  0.0339  0.7602  1.6319
  714MOL0     H94212   2.322   4.989   1.414 -1.1983 -0.7245  1.2789
  714MOL0     H94213   2.454   5.159   1.540 -0.8021  3.9448  1.4712
  714MOL0     H94214   2.419   5.408   1.596 -2.3884 -3.2770 -0.1962
  714MOL0     H94215   2.542   5.296   1.651 -1.7709 -1.3460  0.0842
  714MOL0     H94216   2.477   5.565   1.776  1.3263  0.0271  1.5075
  714MOL0     H94217   2.636   5.502   1.710 -0.5288 -1.4828 -2.7711
  714MOL0     H94218   2.618   5.341   1.901 -2.1647 -1.7762  0.8498
  714MOL0     H94219   2.472   5.441   1.961  0.6202 -1.9025  1.3814
  714MOL0     H94220   2.746   5.567   1.962 -0.3243 -0.0474  0.2154
  714MOL0     H94221   2.597   5.644   1.979  1.6657  1.7697  0.0628
  714MOL0     H94222   2.712   5.416   2.156  2.0738  1.1815 -2.7260
  714MOL0     H94223   2.545   5.481   2.175 -1.3914 -1.3312 -2.0001
  714MOL0     H94224   2.640   5.704   2.185 -0.3977  0.4621 -2.1154
  714MOL0     H94225   2.814   5.629   2.180 -0.9110  1.1367 -0.1690
  714MOL0     H94226   2.601   5.626   2.396  0.2865 -1.1183  1.7149
  714MOL0     H94227   2.722   5.506   2.392  0.9507 -0.3591 -1.7965
  714MOL0     H94228   2.896   5.698   2.397 -0.7371  4.0202 -3.2397
  714MOL0     H94229   2.792   5.676   2.541 -1.7189 -0.7371  0.1477
  714MOL0     H94230   2.144   5.190   1.827 -0.5411 -1.2889 -0.2558
  714MOL0     H94231   2.006   5.036   1.705  0.2759 -1.0931 -0.2493
  714MOL0     H94232   1.746   4.939   1.274 -1.8764  0.3747  0.6780
  714MOL0     H94233   1.648   4.748   1.123 -1.6276 -3.1624  0.3462
  714MOL0     H94234   0.892   4.296   0.433  0.6085 -0.2665  2.1605
  714MOL0     H94235   1.112   4.176   0.429 -3.3654  0.6573  3.6898
  714MOL0     H94236   1.483   4.153  -0.038  1.6011 -1.9940 -1.1466
  714MOL0     H94237   1.689   4.040  -0.070  0.0471  1.6367 -0.8115
  714MOL0     H94238   1.861   3.797   0.218 -0.2346  1.1145  0.5532
  714MOL0     H94239   1.980   3.927   0.256 -0.2645  3.2566 -1.5025
  714MOL0     H94240   2.089   3.875   0.052 -3.2896  3.7648  0.8907
  714MOL0     H94241   2.074   3.713   0.141 -3.1644 -4.0396 -3.4276
  714MOL0     H94242   1.893   3.796  -0.079 -3.4434  1.6150  4.2797
  714MOL0     H94243   1.876   3.654   0.034 -0.8776  2.6879  2.5209
  714MOL0     H94244   2.095   3.715  -0.174  1.8692 -0.6188  0.5419
  714MOL0     H94245   2.098   3.579  -0.055  1.4648  1.7657 -0.1739
  714MOL0     H94246   1.839   3.485  -0.409 -0.1418 -0.8977  1.5378
  714MOL0     H94247   1.743   4.009   0.344 -0.4877 -0.2275 -0.8553
  714MOL0     H94248   1.525   4.097   0.388  0.0787  1.0139  0.2255
  715MOL0     O94249   1.827   7.750   4.160 -0.0018  0.6726  0.1165
  715MOL0     C94250   1.813   7.860   4.116 -1.3954 -0.0176  1.0511
  715MOL0     O94251   1.906   7.926   4.038  0.2054  0.1314 -0.4482
  715MOL0     C94252   2.026   7.866   4.003  1.1143  0.6735 -0.9771
  715MOL0     C94253   2.038   7.834   3.870  0.4191  0.2351  0.3521
  715MOL0     C94254   2.155   7.764   3.821  0.2043 -0.3657 -0.0485
  715MOL0     C94255   2.242   7.704   3.910 -0.3638  0.4361 -0.3161
  715MOL0     O94256   2.363   7.638   3.893 -0.0615  0.3463  0.1614
  715MOL0     C94257   2.422   7.637   3.765  0.2665 -0.3050 -0.1155
  715MOL0     C94258   2.479   7.768   3.705 -0.1188 -0.4903  0.7160
  715MOL0     C94259   2.532   7.761   3.554 -0.1341  0.2807 -0.7508
  715MOL0     C94260   2.542   7.897   3.497  0.2913 -0.2305 -0.6292
  715MOL0     C94261   2.577   7.898   3.356 -0.6085 -1.2968  0.3480
  715MOL0     C94262   2.723   7.854   3.324 -0.0347  0.2017 -0.1213
  715MOL0     C94263   2.775   7.918   3.190 -0.1848 -0.2992  0.0540
  715MOL0     C94264   2.699   7.876   3.068  0.3062 -0.2497 -0.4048
  715MOL0     N94265   2.752   7.926   2.941 -0.4393 -0.6273 -0.4351
  715MOL0     C94266   2.878   7.905   2.894 -0.6958 -0.0277  0.6716
  715MOL0     C94267   2.876   7.956   2.774  0.5064 -0.0843 -0.0078
  715MOL0     C94268   3.004   7.965   2.695 -0.1130 -0.8659 -0.0844
  715MOL0     C94269   3.063   7.835   2.643 -0.9785  0.6155  0.7281
  715MOL0     C94270   3.208   7.852   2.589  0.5675  0.4918  0.1742
  715MOL0     C94271   3.290   7.720   2.572 -0.8363 -0.1399  0.2149
  715MOL0     O94272   3.413   7.755   2.499  0.0304 -0.1111 -0.3939
  715MOL0     C94273   3.465   7.644   2.439 -0.8260 -0.9929  0.4079
  715MOL0     C94274   3.553   7.567   2.515  0.1067  0.2146 -0.6129
  715MOL0     C94275   3.610   7.455   2.464 -0.4910 -0.3191  0.9829
  715MOL0     C94276   3.581   7.404   2.336  0.0510  0.4834 -0.1685
  715MOL0     C94277   3.637   7.270   2.298 -1.1680 -0.7785  0.2426
  715MOL0     O94278   3.591   7.214   2.183 -0.5341 -0.1730 -0.3093
  715MOL0     C94279   3.639   7.084   2.151  0.3033 -0.2718 -0.4658
  715MOL0     C94280   3.593   6.975   2.219 -0.1165 -0.3626 -0.1441
  715MOL0     C94281   3.627   6.843   2.169  0.5969  0.4369 -0.7766
  715MOL0     C94282   3.714   6.811   2.059  0.6173 -0.0622 -0.4988
  715MOL0     O94283   3.740   6.693   1.992  0.1221  0.8414 -0.2178
  715MOL0     C94284   3.713   6.570   2.044 -0.4962  0.3863 -0.4598
  715MOL0     C94285   3.819   6.528   2.149  0.1150 -0.8315 -1.0104
  715MOL0     C94286   3.949   6.498   2.076  0.7008 -0.6266  1.3277
  715MOL0     C94287   4.057   6.480   2.173  1.1039  0.8146  0.8565
  715MOL0     C94288   4.192   6.463   2.105 -0.6203 -0.0748  0.4724
  715MOL0     C94289   4.291   6.360   2.179  0.4498  0.1223  0.2381
  715MOL0     C94290   4.400   6.319   2.089  1.0112  0.9336  0.5550
  715MOL0     C94291   4.528   6.267   2.166  0.0342 -0.0783 -0.6502
  715MOL0    Cl94292   4.508   6.089   2.210  0.2517 -0.6386 -0.0916
  715MOL0     C94293   3.773   6.934   2.011  0.3160  0.6347 -0.1311
  715MOL0     C94294   3.732   7.062   2.059  0.7954  0.2049 -0.1844
  715MOL0     O94295   3.721   7.221   2.376  0.1048  0.1584  0.3315
  715MOL0     C94296   3.500   7.487   2.253 -0.3240 -0.0800  0.5191
  715MOL0     C94297   3.445   7.605   2.304 -0.2300  0.9510 -0.5335
  715MOL0     N94298   2.754   8.013   2.747  0.1621 -0.0560 -0.7563
  715MOL0     N94299   2.680   8.000   2.855  0.4546  0.3481 -0.1145
  715MOL0     C94300   2.217   7.719   4.051  0.3750  0.2629  0.1587
  715MOL0     C94301   2.117   7.807   4.098  0.5976 -0.5207  1.0043
  715MOL0     C94302   1.700   7.949   4.139 -0.0794 -0.3060 -0.0116
  715MOL0     C94303   1.598   7.897   4.209 -0.0320  0.0712  0.0481
  715MOL0     C94304   1.477   7.964   4.223 -1.3490  0.7154 -0.7328
  715MOL0     C94305   1.467   8.097   4.188  0.3883  0.7146 -0.0560
  715MOL0     O94306   1.349   8.170   4.200  0.3357 -0.6978  0.4541
  715MOL0     C94307   1.299   8.199   4.333  0.0095 -1.0202  0.0389
  715MOL0     C94308   1.268   8.348   4.348  0.3017  0.0601  0.2860
  715MOL0     C94309   1.181   8.364   4.467  0.3474  0.2486  0.1919
  715MOL0     C94310   1.101   8.498   4.471  0.4199  0.3562 -0.3325
  715MOL0     C94311   1.144   8.579   4.592 -0.2586 -0.1601  0.3051
  715MOL0     C94312   1.182   8.645   4.695  0.4699  0.4834  0.4122
  715MOL0     C94313   1.569   8.152   4.114 -0.2684  0.3715  0.1812
  715MOL0     C94314   1.686   8.085   4.093 -1.1821  0.3467 -0.3040
  715MOL0     H94315   1.960   7.864   3.801  1.9343  1.7636 -0.8054
  715MOL0     H94316   2.168   7.738   3.716 -0.9425  2.9132 -1.1342
  715MOL0     H94317   2.349   7.602   3.692 -0.2555 -1.7945  1.0542
  715MOL0     H94318   2.496   7.558   3.778 -3.0029 -3.3178  1.9506
  715MOL0     H94319   2.556   7.800   3.775 -1.2194 -3.4496  3.5512
  715MOL0     H94320   2.409   7.852   3.704  0.5874  0.1400 -1.1824
  715MOL0     H94321   2.459   7.698   3.502  1.3064 -2.9107  0.8533
  715MOL0     H94322   2.621   7.697   3.549 -1.1700 -1.1774 -5.1836
  715MOL0     H94323   2.445   7.943   3.518 -0.2037 -1.1682 -0.8503
  715MOL0     H94324   2.610   7.966   3.548  0.7249 -0.8279 -0.3886
  715MOL0     H94325   2.556   7.995   3.312  1.2641 -1.5038 -1.1391
  715MOL0     H94326   2.522   7.824   3.296 -1.7068  1.7728 -2.7246
  715MOL0     H94327   2.721   7.746   3.309 -0.3957  0.6128 -4.4034
  715MOL0     H94328   2.791   7.890   3.401  0.8661  2.2276 -1.7411
  715MOL0     H94329   2.759   8.026   3.187 -4.1848 -0.7134  0.2271
  715MOL0     H94330   2.882   7.902   3.174  0.1689 -1.6680  3.0084
  715MOL0     H94331   2.598   7.917   3.078 -0.3044 -1.0782 -2.6443
  715MOL0     H94332   2.686   7.768   3.064 -5.9539  0.0046  1.8906
  715MOL0     H94333   2.964   7.864   2.946  0.5181  1.6543  0.0851
  715MOL0     H94334   3.082   8.010   2.758 -1.1438 -0.0874  0.6786
  715MOL0     H94335   2.981   8.023   2.605  2.3358 -1.4824 -1.1837
  715MOL0     H94336   3.005   7.802   2.557  1.0614 -2.1473  0.2752
  715MOL0     H94337   3.049   7.755   2.717 -1.4779  0.3537  0.3576
  715MOL0     H94338   3.201   7.899   2.491 -3.7038 -0.6349 -0.2856
  715MOL0     H94339   3.261   7.924   2.652  2.9418 -1.0382  0.0125
  715MOL0     H94340   3.225   7.643   2.528  0.2636 -0.2500 -1.2819
  715MOL0     H94341   3.329   7.690   2.670  1.0853  4.0880  0.9365
  715MOL0     H94342   3.576   7.612   2.611  0.9853 -0.7017 -0.3773
  715MOL0     H94343   3.686   7.400   2.518  2.0771 -2.7296 -4.4257
  715MOL0     H94344   3.518   6.971   2.298 -0.4690 -0.1038 -0.4608
  715MOL0     H94345   3.581   6.763   2.226 -0.6152  0.4423 -1.6900
  715MOL0     H94346   3.705   6.500   1.960 -0.7890 -2.0159  1.4636
  715MOL0     H94347   3.615   6.567   2.092 -0.4464  3.0577 -0.0457
  715MOL0     H94348   3.799   6.435   2.202  1.0759 -0.1180  0.7202
  715MOL0     H94349   3.829   6.608   2.224  0.8241  1.2039 -3.1374
  715MOL0     H94350   3.972   6.587   2.015 -0.1484 -0.2593  1.5224
  715MOL0     H94351   3.950   6.416   2.004  2.1638  1.5912 -1.3971
  715MOL0     H94352   4.067   6.567   2.238 -1.5681  4.1070 -2.6561
  715MOL0     H94353   4.034   6.388   2.227 -0.1590  1.9269  2.3216
  715MOL0     H94354   4.235   6.562   2.089 -1.2728  0.3439  1.2490
  715MOL0     H94355   4.173   6.413   2.009  0.2864 -2.3591  1.4209
  715MOL0     H94356   4.246   6.269   2.221  1.2331  0.3956  1.7237
  715MOL0     H94357   4.323   6.415   2.267 -0.6819 -0.3827  0.9854
  715MOL0     H94358   4.355   6.242   2.026  2.1136  0.1256  0.7240
  715MOL0     H94359   4.441   6.392   2.019  2.7797  1.5923  2.1706
  715MOL0     H94360   4.533   6.322   2.260 -3.1422 -0.9678  0.1634
  715MOL0     H94361   4.617   6.276   2.103 -2.4886  1.8336 -4.2193
  715MOL0     H94362   3.837   6.928   1.923  0.6641  0.4564  0.1302
  715MOL0     H94363   3.778   7.141   2.002  1.7621  0.7713  1.3324
  715MOL0     H94364   3.485   7.458   2.149  1.0976  2.1504 -0.3896
  715MOL0     H94365   3.381   7.670   2.244  0.5706  1.3162 -1.0038
  715MOL0     H94366   2.275   7.674   4.131 -0.6463 -1.9228 -0.2434
  715MOL0     H94367   2.087   7.817   4.201  2.3189 -0.9850  1.5929
  715MOL0     H94368   1.608   7.794   4.241  1.4322  0.3118  0.4331
  715MOL0     H94369   1.393   7.923   4.278 -1.1773 -0.4687 -1.3233
  715MOL0     H94370   1.370   8.173   4.412 -0.7759 -2.5553  0.2960
  715MOL0     H94371   1.210   8.137   4.350 -0.1632 -0.9692 -0.6821
  715MOL0     H94372   1.358   8.409   4.363  0.6627 -0.3244 -0.2585
  715MOL0     H94373   1.214   8.388   4.262  2.3203 -1.0420 -1.5943
  715MOL0     H94374   1.255   8.364   4.549  1.6723  1.1861 -0.9592
  715MOL0     H94375   1.107   8.284   4.472 -0.8688  1.4009  2.9403
  715MOL0     H94376   1.126   8.567   4.391 -0.7194 -0.1783 -1.1906
  715MOL0     H94377   0.992   8.491   4.462  0.2446 -0.6737  1.8478
  715MOL0     H94378   1.218   8.685   4.788 -1.0508  3.5230 -0.1851
  715MOL0     H94379   1.552   8.249   4.067 -1.2954  0.5459  0.8834
  715MOL0     H94380   1.767   8.145   4.052  1.2579 -1.5597  1.3868
  716MOL0     O94381   4.450  11.321   7.016  0.2060  0.0221  0.1538
  716MOL0     C94382   4.514  11.411   6.969  0.3222 -0.0643 -0.5399
  716MOL0     O94383   4.646  11.415   6.970 -0.4425 -0.2134 -0.1238
  716MOL0     C94384   4.723  11.323   7.034 -0.0396 -0.3080 -0.2738
  716MOL0     C94385   4.853  11.338   7.009 -0.5045 -0.2635  0.4725
  716MOL0     C94386   4.967  11.288   7.080 -0.4127  0.5056 -0.5457
  716MOL0     C94387   4.940  11.197   7.178 -0.1000  0.2500  0.0839
  716MOL0     O94388   5.055  11.153   7.240  0.6767  0.3226 -0.3481
  716MOL0     C94389   5.042  11.041   7.329  0.4830 -0.1749  0.2411
  716MOL0     C94390   5.167  11.010   7.397 -0.1483  0.4306  0.5079
  716MOL0     C94391   5.163  10.873   7.460 -0.0460 -0.2779  0.2394
  716MOL0     C94392   5.048  10.839   7.564  0.4556  0.6092 -0.1302
  716MOL0     C94393   5.058  10.689   7.587 -0.4220 -0.2710 -0.7607
  716MOL0     C94394   5.010  10.657   7.730  0.0392 -0.2250  0.0371
  716MOL0     C94395   5.001  10.501   7.742  0.4208  0.1142 -0.7662
  716MOL0     C94396   4.955  10.466   7.882  0.7582 -0.7912  0.6722
  716MOL0     N94397   5.057  10.508   7.983  0.0675  0.7996 -0.1628
  716MOL0     C94398   5.169  10.435   8.009  0.0882  0.0800  0.0807
  716MOL0     C94399   5.228  10.499   8.108  0.2446 -0.1801  0.7956
  716MOL0     C94400   5.360  10.463   8.157  0.3289 -0.2174 -0.4098
  716MOL0     C94401   5.461  10.587   8.159  0.7345 -0.1830  0.6508
  716MOL0     C94402   5.488  10.646   8.020  0.1097 -0.0957 -0.0600
  716MOL0     C94403   5.556  10.776   8.029  0.3971 -0.2924  0.2610
  716MOL0     O94404   5.473  10.882   8.079  0.0223 -0.1392 -0.1970
  716MOL0     C94405   5.403  10.972   7.996  0.2652  0.3590 -0.0824
  716MOL0     C94406   5.336  11.075   8.057  0.0865  0.1720 -0.7210
  716MOL0     C94407   5.257  11.171   7.986 -0.9730  0.0244 -0.1080
  716MOL0     C94408   5.239  11.156   7.846  0.1902  0.2913 -0.2956
  716MOL0     C94409   5.144  11.243   7.783 -1.1495  0.8306 -0.3881
  716MOL0     O94410   5.087  11.183   7.674 -0.4021 -0.0589 -0.2655
  716MOL0     C94411   4.995  11.262   7.612 -0.8908 -0.0545  0.4079
  716MOL0     C94412   4.863  11.234   7.603  0.3157 -0.6570 -0.0515
  716MOL0     C94413   4.771  11.311   7.540  0.0196 -0.5251  0.1170
  716MOL0     C94414   4.816  11.434   7.479  0.1821  0.2702 -0.5782
  716MOL0     O94415   4.727  11.520   7.411  0.2257  0.5849 -0.7221
  716MOL0     C94416   4.588  11.474   7.394 -0.5829  0.1141 -0.0257
  716MOL0     C94417   4.510  11.577   7.325 -0.2142 -0.3968  0.3613
  716MOL0     C94418   4.356  11.572   7.362  0.2081 -1.0665 -0.2380
  716MOL0     C94419   4.282  11.437   7.319  0.1485 -0.0312  0.3479
  716MOL0     C94420   4.122  11.429   7.324  0.0669  0.3387  1.0687
  716MOL0     C94421   4.051  11.552   7.268  0.8516 -0.2414  0.3968
  716MOL0     C94422   3.906  11.529   7.254 -0.1613 -0.4478 -0.1866
  716MOL0     C94423   3.835  11.633   7.175  0.1375 -0.4338 -0.3906
  716MOL0    Cl94424   3.659  11.604   7.158  0.0932  0.0463  0.1916
  716MOL0     C94425   4.945  11.471   7.493 -0.5395  0.6906  0.1165
  716MOL0     C94426   5.037  11.389   7.554  0.1468 -0.3150 -0.1651
  716MOL0     O94427   5.114  11.354   7.833 -0.2171  0.3860 -0.1317
  716MOL0     C94428   5.323  11.052   7.792  0.1672  0.1490 -0.5826
  716MOL0     C94429   5.404  10.970   7.862  0.0685 -0.5799  0.2704
  716MOL0     N94430   5.147  10.596   8.139  0.0973  0.4182 -1.3533
  716MOL0     N94431   5.054  10.618   8.061  1.0678  0.6300 -0.7174
  716MOL0     C94432   4.805  11.155   7.199 -1.0829  0.3288  0.1399
  716MOL0     C94433   4.699  11.231   7.136  0.2988  0.6531 -0.8419
  716MOL0     C94434   4.453  11.512   6.883  0.3898 -0.3871 -0.3586
  716MOL0     C94435   4.313  11.525   6.886 -0.2805 -0.1175 -0.6602
  716MOL0     C94436   4.250  11.624   6.810 -0.1192 -0.6189 -0.0200
  716MOL0     C94437   4.331  11.701   6.720  0.2730  0.8169 -0.1890
  716MOL0     O94438   4.282  11.799   6.644  0.9091  0.6109  0.7605
  716MOL0     C94439   4.135  11.829   6.634 -0.1504  0.3730 -0.0450
  716MOL0     C94440   4.113  11.897   6.499 -0.1295  0.4856  0.4866
  716MOL0     C94441   3.964  11.914   6.466 -0.8782  0.4094 -1.2756
  716MOL0     C94442   3.898  12.009   6.568 -0.7751  0.6893 -0.6154
  716MOL0     C94443   3.757  12.034   6.525 -1.2846 -0.7314  0.2117
  716MOL0     C94444   3.645  12.049   6.481 -0.0672  0.1873 -1.3559
  716MOL0     C94445   4.467  11.681   6.719  0.2330  0.2225  0.0841
  716MOL0     C94446   4.533  11.589   6.794  0.2722  0.0686  0.8726
  716MOL0     H94447   4.871  11.420   6.940 -1.9226  0.0000  0.3855
  716MOL0     H94448   5.068  11.314   7.050  0.5845 -2.7297 -0.2941
  716MOL0     H94449   5.008  10.948   7.282 -1.7641 -0.7053  2.6699
  716MOL0     H94450   4.966  11.079   7.398  1.7494  3.9167 -0.3228
  716MOL0     H94451   5.195  11.091   7.465  1.2847  1.0805 -0.7759
  716MOL0     H94452   5.241  11.014   7.316  0.4821  2.9552  1.1060
  716MOL0     H94453   5.259  10.859   7.511 -1.1644  2.0995  3.3276
  716MOL0     H94454   5.165  10.809   7.372  1.5470  0.6534 -0.4419
  716MOL0     H94455   5.067  10.883   7.662 -1.3368 -2.4321  1.7472
  716MOL0     H94456   4.956  10.871   7.515  2.0683  4.0727 -1.2403
  716MOL0     H94457   5.160  10.652   7.577 -0.0707  0.3791  0.3130
  716MOL0     H94458   5.004  10.622   7.518  0.3814 -0.1689 -1.4988
  716MOL0     H94459   4.911  10.695   7.756  0.1478 -1.1567  1.9707
  716MOL0     H94460   5.083  10.706   7.796 -1.9176  1.5760  0.9989
  716MOL0     H94461   4.926  10.450   7.681 -0.4900 -0.0899  0.4750
  716MOL0     H94462   5.098  10.460   7.714 -0.1917 -2.8649  1.0647
  716MOL0     H94463   4.929  10.361   7.897  0.2155 -0.7846 -0.1164
  716MOL0     H94464   4.868  10.529   7.904  1.0524 -0.7265  1.6763
  716MOL0     H94465   5.191  10.341   7.959 -0.3323 -0.2371  0.4786
  716MOL0     H94466   5.411  10.383   8.102 -0.6020 -0.7144 -0.5726
  716MOL0     H94467   5.350  10.427   8.260  0.0387  0.1316 -0.3156
  716MOL0     H94468   5.556  10.543   8.189 -0.2124 -0.8817  2.7936
  716MOL0     H94469   5.434  10.665   8.231  0.6999 -0.1372  0.5875
  716MOL0     H94470   5.549  10.578   7.960 -0.3427 -0.1733 -0.4370
  716MOL0     H94471   5.393  10.669   7.971  0.8419 -0.7149 -1.8505
  716MOL0     H94472   5.584  10.792   7.924  0.4499 -2.4954 -0.1102
  716MOL0     H94473   5.651  10.785   8.082  0.5369 -0.9085  0.1202
  716MOL0     H94474   5.337  11.082   8.166  4.9971  2.5508 -0.6549
  716MOL0     H94475   5.202  11.254   8.029 -1.7163  1.5039 -3.5807
  716MOL0     H94476   4.826  11.147   7.657  3.9891 -2.1158  0.4056
  716MOL0     H94477   4.664  11.296   7.549  0.0918 -1.0566  0.1002
  716MOL0     H94478   4.537  11.454   7.489 -0.3753  1.6495  0.4407
  716MOL0     H94479   4.586  11.384   7.333  3.9397  2.1644 -3.8064
  716MOL0     H94480   4.519  11.570   7.216 -3.1692  1.3758 -0.1290
  716MOL0     H94481   4.546  11.676   7.354  0.5601 -0.8092  0.8450
  716MOL0     H94482   4.295  11.654   7.323  0.3491 -0.3948  0.8889
  716MOL0     H94483   4.366  11.573   7.471  2.7861 -1.5027 -0.4192
  716MOL0     H94484   4.314  11.415   7.217 -0.1986  2.1341 -0.2673
  716MOL0     H94485   4.306  11.351   7.382  1.5344 -1.3121 -1.8125
  716MOL0     H94486   4.083  11.417   7.425  0.5447  0.9670  1.3348
  716MOL0     H94487   4.095  11.350   7.253  1.6412  2.9124 -2.7034
  716MOL0     H94488   4.089  11.570   7.167 -0.7860  1.8103  0.0656
  716MOL0     H94489   4.048  11.642   7.330 -3.1503 -0.0443  0.2072
  716MOL0     H94490   3.881  11.428   7.220  0.3606  0.3085 -3.0818
  716MOL0     H94491   3.856  11.530   7.352 -6.2082 -3.1581 -2.7133
  716MOL0     H94492   3.883  11.653   7.079  1.6633  2.8802  0.9188
  716MOL0     H94493   3.834  11.731   7.223  0.1774 -1.5795  2.1185
  716MOL0     H94494   4.986  11.561   7.448  0.6055  0.2603  0.2782
  716MOL0     H94495   5.138  11.428   7.556 -0.7980  2.3566  0.1819
  716MOL0     H94496   5.297  11.014   7.694 -1.1834 -2.4360  0.6646
  716MOL0     H94497   5.450  10.888   7.808  2.1225 -1.1836  2.7531
  716MOL0     H94498   4.773  11.075   7.265 -1.8525 -0.1110 -0.7413
  716MOL0     H94499   4.594  11.212   7.159  0.6208 -3.2945 -2.0062
  716MOL0     H94500   4.255  11.474   6.962  0.5623  0.9328  0.7157
  716MOL0     H94501   4.146  11.650   6.830  0.8376  1.5583  2.8615
  716MOL0     H94502   4.089  11.884   6.716 -1.3320  0.4728 -0.7587
  716MOL0     H94503   4.088  11.732   6.619  2.0828 -0.2419 -5.4899
  716MOL0     H94504   4.164  11.994   6.494 -1.3290  1.0862 -1.1502
  716MOL0     H94505   4.154  11.835   6.419 -0.0412  3.4630 -1.9899
  716MOL0     H94506   3.914  11.817   6.456  2.3520 -1.1450 -4.6513
  716MOL0     H94507   3.948  11.958   6.367  0.0878 -1.6611 -2.4048
  716MOL0     H94508   3.892  11.964   6.668 -0.2797 -0.1688 -0.9602
  716MOL0     H94509   3.950  12.105   6.571  3.2327 -1.2803  1.4891
  716MOL0     H94510   3.541  12.051   6.452 -0.1735 -0.0144 -1.0011
  716MOL0     H94511   4.536  11.732   6.653 -1.6901  0.0856 -2.1893
  716MOL0     H94512   4.638  11.559   6.792  0.2093 -0.3668  2.8050
  717MOL0     O94513   6.052   8.397   6.149 -0.3304  0.8293 -0.1678
  717MOL0     C94514   6.038   8.277   6.124 -0.2824 -0.2755  0.5940
  717MOL0     O94515   6.138   8.190   6.089  0.2915 -0.3113 -0.2888
  717MOL0     C94516   6.271   8.206   6.105  0.2215  0.5134  0.9249
  717MOL0     C94517   6.348   8.106   6.043  0.2950 -0.3033  0.3239
  717MOL0     C94518   6.484   8.117   6.031 -0.7867  0.0587  0.3854
  717MOL0     C94519   6.542   8.222   6.102 -1.0002 -0.1432 -0.1589
  717MOL0     O94520   6.676   8.223   6.097  0.3143 -0.0290 -0.5460
  717MOL0     C94521   6.747   8.349   6.085  0.0089  0.2255 -0.2454
  717MOL0     C94522   6.890   8.325   6.044  0.2294  0.1772 -0.6443
  717MOL0     C94523   6.980   8.264   6.145 -0.2472 -0.0777  0.6815
  717MOL0     C94524   7.062   8.366   6.230  1.1006  0.2325  0.1415
  717MOL0     C94525   7.197   8.393   6.177  0.3639  0.1288 -0.2584
  717MOL0     C94526   7.291   8.273   6.158 -0.0388  0.1558  0.2351
  717MOL0     C94527   7.285   8.172   6.282  1.6053  0.6002 -0.1445
  717MOL0     C94528   7.396   8.067   6.262 -0.4231  0.2349 -0.7148
  717MOL0     N94529   7.348   7.944   6.331 -0.5738  0.0460 -0.4227
  717MOL0     C94530   7.266   7.845   6.286  0.2660  1.1972  0.0016
  717MOL0     C94531   7.247   7.768   6.389  0.1992  0.4462  0.8939
  717MOL0     C94532   7.184   7.635   6.393  0.7522  0.2213  0.8134
  717MOL0     C94533   7.226   7.538   6.507 -0.9150 -0.4646  0.0311
  717MOL0     C94534   7.380   7.508   6.500  0.3231 -0.3694 -0.0578
  717MOL0     C94535   7.422   7.383   6.577  0.2152  0.6382 -0.1159
  717MOL0     O94536   7.558   7.336   6.540  1.0234 -0.1204  0.3006
  717MOL0     C94537   7.579   7.284   6.407  0.6148 -0.4363  0.3821
  717MOL0     C94538   7.483   7.256   6.308  0.3461  0.7493 -0.6559
  717MOL0     C94539   7.518   7.215   6.181  0.5459 -0.3869 -0.2711
  717MOL0     C94540   7.656   7.184   6.150 -0.3887 -0.2017  0.0639
  717MOL0     C94541   7.687   7.130   6.019  0.9231 -1.2954  0.5646
  717MOL0     O94542   7.588   7.085   5.923 -0.6709 -0.7689  0.3077
  717MOL0     C94543   7.630   7.018   5.811  0.2876 -0.3037  0.0720
  717MOL0     C94544   7.709   7.072   5.707  0.4828  0.2773 -0.0899
  717MOL0     C94545   7.755   7.004   5.603 -0.0144  0.1343 -0.4138
  717MOL0     C94546   7.727   6.870   5.595 -0.6131 -0.6276 -0.2717
  717MOL0     O94547   7.800   6.801   5.502 -0.1331 -0.2921 -0.1430
  717MOL0     C94548   7.811   6.661   5.514  0.1477  0.2288  0.3076
  717MOL0     C94549   7.915   6.608   5.419 -0.3560 -0.5067  0.2491
  717MOL0     C94550   7.880   6.633   5.273 -0.0005  1.1092  0.2545
  717MOL0     C94551   7.995   6.615   5.177 -0.3683 -0.7405  0.1318
  717MOL0     C94552   7.949   6.577   5.028 -0.5147  0.0537  0.3334
  717MOL0     C94553   8.070   6.570   4.929  0.3055 -0.3682 -0.0630
  717MOL0     C94554   8.025   6.508   4.787 -0.7438 -0.3704 -0.1616
  717MOL0     C94555   8.140   6.511   4.685 -0.5422  0.7229 -0.7499
  717MOL0    Cl94556   8.089   6.437   4.530 -0.0155  0.3088  0.0909
  717MOL0     C94557   7.643   6.818   5.690 -0.3982  0.5553 -0.9537
  717MOL0     C94558   7.587   6.888   5.797 -0.4251  0.7960  1.2486
  717MOL0     O94559   7.807   7.130   5.998 -0.2891 -0.6416  0.8381
  717MOL0     C94560   7.754   7.216   6.251  0.7607  0.3403 -0.2367
  717MOL0     C94561   7.717   7.255   6.377  0.2837  1.0804 -0.2274
  717MOL0     N94562   7.303   7.823   6.496 -0.0696 -0.1128 -0.9023
  717MOL0     N94563   7.361   7.928   6.463  0.6174 -0.0234  0.8632
  717MOL0     C94564   6.478   8.308   6.178 -0.4537  0.7033 -1.2225
  717MOL0     C94565   6.338   8.314   6.164 -0.5625  1.1674 -0.6410
  717MOL0     C94566   5.902   8.215   6.136  0.9385  0.2186  0.0630
  717MOL0     C94567   5.812   8.287   6.211  0.2330 -0.7220  0.0908
  717MOL0     C94568   5.675   8.259   6.222 -0.4899  0.2494 -0.6008
  717MOL0     C94569   5.625   8.148   6.160  0.9153 -0.5766  0.2851
  717MOL0     O94570   5.489   8.108   6.172  0.6122 -0.6372  0.6991
  717MOL0     C94571   5.391   8.213   6.206  0.1696  0.2304  0.0694
  717MOL0     C94572   5.256   8.167   6.173  0.2200  0.3587  0.1731
  717MOL0     C94573   5.203   8.187   6.030 -0.1234  0.0783  0.1083
  717MOL0     C94574   5.066   8.112   6.012 -0.0502 -0.3432  1.1715
  717MOL0     C94575   4.996   8.181   5.899 -0.5440  1.1489  0.1978
  717MOL0     C94576   4.933   8.226   5.809 -1.2904 -0.1024 -0.8913
  717MOL0     C94577   5.712   8.069   6.080 -0.2903  0.5822  0.1382
  717MOL0     C94578   5.854   8.103   6.077 -0.3836  0.9322  0.3554
  717MOL0     H94579   6.304   8.017   5.999  1.4224 -0.0260 -1.5144
  717MOL0     H94580   6.544   8.057   5.963 -2.6503 -2.4557  0.8100
  717MOL0     H94581   6.747   8.403   6.180 -0.7277 -0.9747  0.4577
  717MOL0     H94582   6.696   8.415   6.013 -0.1427  2.2085  1.5778
  717MOL0     H94583   6.925   8.420   6.004 -3.2609  0.8714 -2.4046
  717MOL0     H94584   6.884   8.262   5.955 -0.5844  2.0515 -1.9933
  717MOL0     H94585   7.053   8.204   6.089  0.0918  1.9246 -1.1446
  717MOL0     H94586   6.919   8.205   6.214  1.1813  0.7461  2.7566
  717MOL0     H94587   7.008   8.460   6.244  0.2532  0.0291 -1.4217
  717MOL0     H94588   7.070   8.330   6.332 -1.8247 -2.9244 -0.5426
  717MOL0     H94589   7.245   8.463   6.246  3.5287 -1.6804 -0.4364
  717MOL0     H94590   7.182   8.447   6.083 -0.6418  0.5364  0.1206
  717MOL0     H94591   7.397   8.296   6.142 -0.0761 -0.7927 -1.5591
  717MOL0     H94592   7.265   8.232   6.060 -3.2992  1.0308  0.6156
  717MOL0     H94593   7.306   8.214   6.380  1.0150 -0.2975  0.3811
  717MOL0     H94594   7.186   8.126   6.287  0.8416  2.0897 -0.9470
  717MOL0     H94595   7.494   8.103   6.296  0.3605  0.3302 -2.8965
  717MOL0     H94596   7.415   8.051   6.155 -1.1332  2.1242 -1.1572
  717MOL0     H94597   7.232   7.807   6.190 -1.3879 -0.1666  1.0678
  717MOL0     H94598   7.218   7.583   6.304 -3.0714  0.7653 -1.1892
  717MOL0     H94599   7.075   7.644   6.392  0.6211 -0.8516  2.5323
  717MOL0     H94600   7.185   7.436   6.505 -2.0563 -0.0120 -0.0321
  717MOL0     H94601   7.206   7.575   6.608  0.1090 -0.8307  0.3839
  717MOL0     H94602   7.403   7.504   6.393  0.7203  1.6031 -0.0841
  717MOL0     H94603   7.430   7.596   6.541  0.6441  0.1838 -1.5651
  717MOL0     H94604   7.354   7.299   6.559 -0.1003  0.8711 -0.0097
  717MOL0     H94605   7.410   7.399   6.685 -1.2723  2.3226 -0.4797
  717MOL0     H94606   7.378   7.281   6.325  0.0962 -0.2894 -0.6245
  717MOL0     H94607   7.434   7.209   6.113 -2.1874  2.1373  2.5752
  717MOL0     H94608   7.747   7.174   5.705 -1.2093  0.9297 -1.6706
  717MOL0     H94609   7.812   7.059   5.529  2.3613  0.4955  1.5711
  717MOL0     H94610   7.716   6.607   5.502  1.0570 -1.3374 -0.1764
  717MOL0     H94611   7.842   6.641   5.617 -0.2081 -1.0923  0.1747
  717MOL0     H94612   7.942   6.502   5.425  1.4838 -0.2663 -2.2741
  717MOL0     H94613   8.010   6.658   5.439  1.1583 -3.2360  0.3281
  717MOL0     H94614   7.845   6.736   5.261  2.7154  2.0560 -0.1148
  717MOL0     H94615   7.800   6.565   5.241  0.3818  1.3084 -1.1909
  717MOL0     H94616   8.064   6.700   5.173 -2.3265  0.8671 -0.9901
  717MOL0     H94617   8.043   6.521   5.206 -0.5987  0.0396  3.3492
  717MOL0     H94618   7.881   6.657   4.998  0.5108  0.0468 -2.2909
  717MOL0     H94619   7.898   6.480   5.031  3.1554 -2.1084  3.4315
  717MOL0     H94620   8.139   6.495   4.969 -1.4605 -0.3333  3.4494
  717MOL0     H94621   8.122   6.665   4.916  3.0442 -0.8648  4.8065
  717MOL0     H94622   7.991   6.405   4.798  0.4482 -0.6933  0.6733
  717MOL0     H94623   7.946   6.569   4.742  0.4436  1.8338  0.5814
  717MOL0     H94624   8.226   6.459   4.728 -1.5439  0.9526  1.6925
  717MOL0     H94625   8.179   6.612   4.676 -0.0573  0.4598 -1.7293
  717MOL0     H94626   7.616   6.713   5.685 -2.6331  0.9246  1.2671
  717MOL0     H94627   7.510   6.839   5.856  0.4170 -0.7004  1.1562
  717MOL0     H94628   7.854   7.180   6.228 -0.5415 -1.6439 -3.4402
  717MOL0     H94629   7.795   7.267   6.452  2.0841  2.7367 -2.2237
  717MOL0     H94630   6.533   8.383   6.232  1.9979 -0.4898 -1.9035
  717MOL0     H94631   6.289   8.396   6.216  0.7380  0.3119  2.1107
  717MOL0     H94632   5.850   8.375   6.261 -0.8909 -2.0924  3.7059
  717MOL0     H94633   5.608   8.319   6.283 -1.0991 -1.2968  0.3100
  717MOL0     H94634   5.415   8.304   6.150 -0.1761 -1.5885 -3.2728
  717MOL0     H94635   5.413   8.216   6.313  2.3253 -4.0322 -0.0450
  717MOL0     H94636   5.241   8.062   6.197  5.5353 -0.4230  1.1624
  717MOL0     H94637   5.183   8.219   6.237  0.6695  0.7062  0.4115
  717MOL0     H94638   5.270   8.145   5.954  2.4948  1.7060  1.3600
  717MOL0     H94639   5.195   8.290   5.992 -0.5890  0.2495  0.6585
  717MOL0     H94640   5.081   8.014   5.966  1.8501  0.5558 -0.2493
  717MOL0     H94641   5.000   8.107   6.100 -2.4927  0.4327 -0.5014
  717MOL0     H94642   4.878   8.258   5.723 -1.3196  0.7651 -0.5635
  717MOL0     H94643   5.680   7.975   6.035 -0.5768  0.8748 -0.2742
  717MOL0     H94644   5.924   8.033   6.032 -0.0273  2.1144 -1.0140
  718MOL0     O94645   4.036   7.353   7.910  0.4229 -0.5637  0.1585
  718MOL0     C94646   4.150   7.362   7.876  0.0981 -0.8163 -0.3412
  718MOL0     O94647   4.245   7.439   7.952 -0.3765  0.0919 -0.0571
  718MOL0     C94648   4.226   7.475   8.085  0.3532 -0.0060 -0.7108
  718MOL0     C94649   4.125   7.425   8.171  0.4546 -0.4790 -0.4381
  718MOL0     C94650   4.096   7.491   8.292 -0.8103 -0.8762 -0.7387
  718MOL0     C94651   4.180   7.593   8.341 -0.4195  1.3759  0.4094
  718MOL0     O94652   4.138   7.644   8.455 -0.0161  0.2157  0.0566
  718MOL0     C94653   4.249   7.694   8.542  1.6063  0.2172  0.2978
  718MOL0     C94654   4.184   7.740   8.670  0.2182 -0.3902  0.6213
  718MOL0     C94655   4.106   7.871   8.648  0.0943 -0.4006 -0.1798
  718MOL0     C94656   4.054   7.923   8.777 -0.6994 -1.0451 -1.6664
  718MOL0     C94657   4.029   8.075   8.775  0.6173  0.3938  0.0110
  718MOL0     C94658   4.139   8.157   8.727 -0.0899  0.5495  0.2563
  718MOL0     C94659   4.101   8.303   8.708  0.1481  0.2283  0.0567
  718MOL0     C94660   4.227   8.391   8.734 -1.2011 -0.6517 -0.7167
  718MOL0     N94661   4.211   8.523   8.680  0.9874  0.2310  0.6620
  718MOL0     C94662   4.234   8.559   8.550 -0.0189  0.2898 -0.2524
  718MOL0     C94663   4.196   8.688   8.541 -0.1624  0.5989 -1.1181
  718MOL0     C94664   4.201   8.766   8.410  0.4760 -0.9485 -0.8995
  718MOL0     C94665   4.343   8.817   8.381 -0.4271 -0.2422  0.4031
  718MOL0     C94666   4.351   8.897   8.244 -0.1272 -0.0040 -0.3814
  718MOL0     C94667   4.303   8.811   8.131 -0.0084 -0.8649 -0.1856
  718MOL0     O94668   4.336   8.876   8.011  0.1078 -0.6444  0.0871
  718MOL0     C94669   4.322   8.803   7.892 -0.4444  0.1816  0.6858
  718MOL0     C94670   4.256   8.678   7.872 -0.1938 -0.2941  0.7523
  718MOL0     C94671   4.244   8.627   7.745  0.3498  0.1571  0.5664
  718MOL0     C94672   4.309   8.686   7.637  0.5067  0.1981  0.9461
  718MOL0     C94673   4.272   8.636   7.499  0.3436 -0.7638  0.1097
  718MOL0     O94674   4.152   8.573   7.475 -0.3326 -0.5628 -0.9908
  718MOL0     C94675   4.111   8.573   7.349 -0.1624 -0.5249  1.2777
  718MOL0     C94676   4.073   8.690   7.281  0.0599 -0.3055 -0.3555
  718MOL0     C94677   4.048   8.684   7.150  0.4767 -0.0037 -0.5688
  718MOL0     C94678   4.049   8.566   7.068 -0.1328 -0.3017 -0.9166
  718MOL0     O94679   4.028   8.577   6.925 -0.7554 -0.3813  0.1444
  718MOL0     C94680   4.142   8.627   6.843  0.2835  0.5599 -0.5275
  718MOL0     C94681   4.092   8.637   6.696  0.1208  0.2057 -0.6346
  718MOL0     C94682   4.110   8.504   6.621 -0.0868 -0.5921  0.0259
  718MOL0     C94683   4.250   8.488   6.561  0.2935 -0.9090 -0.2680
  718MOL0     C94684   4.270   8.338   6.508  0.1816 -0.1883 -0.2852
  718MOL0     C94685   4.147   8.286   6.434 -0.7696  0.3058  0.2019
  718MOL0     C94686   4.173   8.150   6.365 -0.4469 -0.2439  0.4698
  718MOL0     C94687   4.092   8.125   6.232 -0.7564 -0.6505 -0.4054
  718MOL0    Cl94688   4.118   7.954   6.169 -0.3446 -0.1039 -0.0961
  718MOL0     C94689   4.081   8.454   7.135  0.2800  0.8083 -0.3899
  718MOL0     C94690   4.113   8.454   7.275 -0.3314 -0.6516 -0.2681
  718MOL0     O94691   4.356   8.660   7.408 -0.0385 -0.1585  0.3221
  718MOL0     C94692   4.369   8.811   7.656 -0.9896  0.0903 -0.4859
  718MOL0     C94693   4.375   8.871   7.781  0.3459  0.7061  0.4294
  718MOL0     N94694   4.146   8.725   8.663  0.6786 -0.8285  0.1049
  718MOL0     N94695   4.166   8.629   8.745  0.1107 -0.0969  0.2024
  718MOL0     C94696   4.278   7.655   8.257  0.6249  0.3600  0.3579
  718MOL0     C94697   4.290   7.599   8.125 -0.0299 -0.2451  0.2558
  718MOL0     C94698   4.176   7.320   7.740 -0.8110  0.3081  0.6625
  718MOL0     C94699   4.085   7.248   7.655 -0.6733 -0.2181 -0.8738
  718MOL0     C94700   4.116   7.217   7.519 -1.0025  0.3842  0.3632
  718MOL0     C94701   4.247   7.233   7.477 -0.5471  0.1218  0.1571
  718MOL0     O94702   4.275   7.187   7.347  0.2605 -0.1571  0.0366
  718MOL0     C94703   4.385   7.218   7.265 -0.8266 -0.7603 -0.1139
  718MOL0     C94704   4.474   7.095   7.264  0.0849 -0.6983 -0.4589
  718MOL0     C94705   4.600   7.132   7.183  0.7207 -0.5112 -0.6760
  718MOL0     C94706   4.685   7.010   7.159  0.1267  0.5308 -0.3922
  718MOL0     C94707   4.825   7.053   7.142  0.5659 -0.8572  0.0301
  718MOL0     C94708   4.938   7.082   7.127 -0.3715  0.4982 -0.7181
  718MOL0     C94709   4.339   7.288   7.563  0.3404 -0.6866 -0.1871
  718MOL0     C94710   4.303   7.342   7.686  0.2885  0.2045 -0.3530
  718MOL0     H94711   4.067   7.334   8.157 -0.2549 -0.5978  2.6321
  718MOL0     H94712   4.007   7.466   8.349 -3.7557  0.3568 -4.3840
  718MOL0     H94713   4.290   7.771   8.477 -0.6899 -0.1127 -1.6972
  718MOL0     H94714   4.332   7.627   8.568  1.7320  0.5566  0.7845
  718MOL0     H94715   4.276   7.764   8.724  2.6609  0.7662 -3.5641
  718MOL0     H94716   4.134   7.653   8.713 -0.7827 -0.1458 -0.0198
  718MOL0     H94717   4.035   7.855   8.567  0.7167 -2.9948 -0.2974
  718MOL0     H94718   4.183   7.932   8.601 -1.4780 -0.3410 -2.8561
  718MOL0     H94719   3.953   7.883   8.791 -0.6198 -0.6893  0.1771
  718MOL0     H94720   4.112   7.886   8.861  0.1552 -1.1792 -2.3052
  718MOL0     H94721   4.013   8.106   8.879  3.0799 -0.0109  0.5709
  718MOL0     H94722   3.939   8.094   8.716  0.4384  0.8875  0.4285
  718MOL0     H94723   4.162   8.124   8.626 -1.9961 -0.3183  0.0635
  718MOL0     H94724   4.208   8.155   8.813 -0.0249  1.3497  0.2286
  718MOL0     H94725   4.048   8.322   8.614 -0.5156 -0.0424  0.3742
  718MOL0     H94726   4.035   8.327   8.791  0.5823 -2.1501  1.1788
  718MOL0     H94727   4.321   8.342   8.705 -0.4060  1.7962 -2.6837
  718MOL0     H94728   4.235   8.395   8.843  1.7312  0.4961 -0.8742
  718MOL0     H94729   4.274   8.486   8.480  1.5164 -2.7808  3.4355
  718MOL0     H94730   4.141   8.856   8.422  1.7596 -0.2711  0.9317
  718MOL0     H94731   4.158   8.699   8.335 -2.0402 -0.8042  0.3228
  718MOL0     H94732   4.413   8.733   8.387  0.1938  0.1087 -1.3575
  718MOL0     H94733   4.388   8.877   8.461  1.0621 -1.2471  0.3579
  718MOL0     H94734   4.286   8.985   8.252  1.3010  1.0214  0.3670
  718MOL0     H94735   4.455   8.925   8.227 -0.3904  0.9005 -0.6066
  718MOL0     H94736   4.194   8.818   8.135 -0.1705 -1.9279 -1.9873
  718MOL0     H94737   4.347   8.711   8.138  3.7647  0.6673  0.2389
  718MOL0     H94738   4.208   8.623   7.952 -2.2642  3.0216  2.0535
  718MOL0     H94739   4.180   8.541   7.731  0.6370 -0.1007  0.8086
  718MOL0     H94740   4.068   8.778   7.344  0.7426 -1.3246  1.1957
  718MOL0     H94741   4.039   8.781   7.102  3.8765 -1.2077 -4.1488
  718MOL0     H94742   4.228   8.559   6.852  1.9920  2.2531 -2.8713
  718MOL0     H94743   4.173   8.729   6.866 -0.0399  0.5876 -0.2169
  718MOL0     H94744   4.146   8.721   6.652  1.2120  1.0229  2.0647
  718MOL0     H94745   3.985   8.658   6.691 -0.3723 -2.0453 -0.9529
  718MOL0     H94746   4.032   8.496   6.544  0.2732 -1.2557 -0.2754
  718MOL0     H94747   4.097   8.426   6.697 -0.8030 -0.5209 -0.0127
  718MOL0     H94748   4.259   8.551   6.472  1.1259  0.2665  0.6095
  718MOL0     H94749   4.324   8.523   6.634  0.2436 -0.3216 -0.4927
  718MOL0     H94750   4.296   8.264   6.583  2.1403 -1.2532 -1.9355
  718MOL0     H94751   4.361   8.330   6.448 -0.8524  2.1311 -2.3512
  718MOL0     H94752   4.116   8.353   6.353 -2.7995 -2.1771 -1.2626
  718MOL0     H94753   4.065   8.267   6.504  0.7737  1.0765  2.2923
  718MOL0     H94754   4.280   8.138   6.344 -0.8579 -3.1469 -0.3561
  718MOL0     H94755   4.142   8.069   6.432 -2.5530 -0.6807 -0.9472
  718MOL0     H94756   4.124   8.203   6.163  0.3245 -0.0174  0.7666
  718MOL0     H94757   3.984   8.127   6.247 -1.1720 -4.4166 -1.6869
  718MOL0     H94758   4.104   8.362   7.082  0.2398 -0.3195  1.4807
  718MOL0     H94759   4.151   8.368   7.329 -0.6989  0.1898  1.3777
  718MOL0     H94760   4.415   8.855   7.569 -0.8728 -0.2947 -0.6207
  718MOL0     H94761   4.426   8.966   7.791  3.3256 -0.8325  0.6833
  718MOL0     H94762   4.340   7.739   8.285  1.5477 -0.0944 -0.2582
  718MOL0     H94763   4.353   7.653   8.056  0.1029  0.3512  0.8342
  718MOL0     H94764   3.985   7.236   7.696 -0.8581  2.3227 -0.3988
  718MOL0     H94765   4.041   7.174   7.453 -0.5776  0.4190 -0.1518
  718MOL0     H94766   4.440   7.299   7.316 -1.3034 -1.0860  0.9585
  718MOL0     H94767   4.350   7.249   7.166 -1.9694 -0.8738  0.2386
  718MOL0     H94768   4.498   7.066   7.367 -2.4759 -0.7951  0.1815
  718MOL0     H94769   4.421   7.013   7.214  1.0809 -1.7686  0.1828
  718MOL0     H94770   4.640   7.204   7.255 -1.6371 -1.3496  1.6398
  718MOL0     H94771   4.577   7.182   7.088  0.2386 -0.4516 -0.5307
  718MOL0     H94772   4.694   6.949   7.249  2.4310  0.7542 -0.4264
  718MOL0     H94773   4.653   6.947   7.076  1.4260 -2.7479  1.4082
  718MOL0     H94774   5.033   7.111   7.088  0.2991 -0.0277  0.4876
  718MOL0     H94775   4.443   7.291   7.533  0.1057 -0.1346 -0.9709
  718MOL0     H94776   4.377   7.390   7.750 -0.3279  0.5746  0.1004
  719MOL0     O94777   3.512   7.199   6.727 -0.1747 -1.2303  1.4556
  719MOL0     C94778   3.634   7.209   6.763  0.4516  0.3703 -0.0544
  719MOL0     O94779   3.686   7.322   6.826 -0.0410 -0.3542  1.1109
  719MOL0     C94780   3.617   7.445   6.823  0.2651 -0.3672  0.6689
  719MOL0     C94781   3.536   7.492   6.709  0.2594  0.7625  0.3086
  719MOL0     C94782   3.439   7.582   6.726  0.0741 -0.1547 -0.2401
  719MOL0     C94783   3.429   7.648   6.854  1.4466 -0.9586 -0.4029
  719MOL0     O94784   3.334   7.738   6.887  0.1149 -0.7332  0.7378
  719MOL0     C94785   3.238   7.777   6.787  0.2915  0.6648 -0.0504
  719MOL0     C94786   3.123   7.862   6.841  0.3503 -0.0616 -0.7260
  719MOL0     C94787   3.045   7.920   6.727 -0.0720  0.4117  0.1607
  719MOL0     C94788   2.938   8.019   6.777  0.0692  0.2193  0.2351
  719MOL0     C94789   2.858   8.084   6.661 -0.3624  0.9074 -0.9631
  719MOL0     C94790   2.802   7.990   6.555  0.3488  0.2046 -0.1348
  719MOL0     C94791   2.680   8.028   6.468  1.5094  0.2170 -0.6893
  719MOL0     C94792   2.698   8.153   6.380  0.0437  0.3162 -0.3360
  719MOL0     N94793   2.585   8.211   6.325  0.3925  0.2423 -0.0049
  719MOL0     C94794   2.555   8.207   6.197  0.4205  0.0234  0.4200
  719MOL0     C94795   2.431   8.250   6.191  0.8454  0.9499 -0.2923
  719MOL0     C94796   2.339   8.232   6.065  0.5291  0.8278 -0.3994
  719MOL0     C94797   2.349   8.101   5.990  0.0773 -0.3079 -0.0445
  719MOL0     C94798   2.415   8.116   5.853 -0.0806 -1.2640 -0.2466
  719MOL0     C94799   2.468   7.979   5.805 -0.4496  0.1440 -0.0833
  719MOL0     O94800   2.365   7.880   5.823  0.4260  0.4488 -0.3488
  719MOL0     C94801   2.377   7.747   5.776  0.7713 -0.5955 -0.0955
  719MOL0     C94802   2.281   7.652   5.802 -0.3698 -0.6545 -0.0325
  719MOL0     C94803   2.299   7.521   5.759 -0.5157 -0.5463 -0.0049
  719MOL0     C94804   2.419   7.481   5.696 -0.0825  0.1633  0.0376
  719MOL0     C94805   2.425   7.342   5.657 -0.1739 -0.1295 -0.0123
  719MOL0     O94806   2.324   7.257   5.683 -0.4778 -1.1591 -0.3668
  719MOL0     C94807   2.344   7.124   5.650 -0.0788  0.3120 -0.9810
  719MOL0     C94808   2.394   7.039   5.749 -1.0309  0.2700  0.2341
  719MOL0     C94809   2.421   6.902   5.715 -0.1320 -0.5182  0.5737
  719MOL0     C94810   2.388   6.847   5.593 -0.8232  0.8464 -0.1948
  719MOL0     O94811   2.419   6.722   5.543  0.6911  0.8305 -0.3471
  719MOL0     C94812   2.502   6.639   5.624 -0.3839 -0.8306  0.3635
  719MOL0     C94813   2.648   6.679   5.603 -0.0352 -0.6223 -0.7195
  719MOL0     C94814   2.696   6.659   5.461  0.1353 -0.3243  0.6227
  719MOL0     C94815   2.839   6.706   5.427 -0.2794 -0.1271  0.3621
  719MOL0     C94816   2.948   6.627   5.499 -0.4442 -1.0001  0.9412
  719MOL0     C94817   3.086   6.662   5.435  0.1811 -0.4102 -0.8277
  719MOL0     C94818   3.136   6.805   5.468  1.2098  0.2989 -0.4978
  719MOL0     C94819   3.263   6.845   5.387  0.0341 -0.5145  0.1382
  719MOL0    Cl94820   3.374   6.712   5.406  0.5653  0.5680 -0.2547
  719MOL0     C94821   2.321   6.935   5.507 -0.3106  0.2081  0.2378
  719MOL0     C94822   2.313   7.072   5.532 -0.8331  0.4209 -0.2804
  719MOL0     O94823   2.519   7.319   5.582 -0.0554 -0.0544 -0.2224
  719MOL0     C94824   2.518   7.578   5.677 -0.8207 -1.6064 -0.4135
  719MOL0     C94825   2.491   7.709   5.703 -0.4222 -0.2087 -0.1031
  719MOL0     N94826   2.397   8.303   6.312 -0.4569  0.3177 -1.1267
  719MOL0     N94827   2.486   8.274   6.395 -0.0856 -0.4069 -0.0554
  719MOL0     C94828   3.524   7.615   6.949  0.1637  0.0314  0.9485
  719MOL0     C94829   3.620   7.515   6.932  0.6508 -0.3003  0.5839
  719MOL0     C94830   3.739   7.101   6.739 -0.2660 -0.4650  0.0643
  719MOL0     C94831   3.699   6.970   6.702  0.5017 -0.4695 -0.2559
  719MOL0     C94832   3.797   6.879   6.664 -0.2751  0.7477 -0.1766
  719MOL0     C94833   3.941   6.910   6.687  0.5987 -0.2890 -0.3936
  719MOL0     O94834   4.043   6.813   6.690  0.8131 -0.0593  0.2988
  719MOL0     C94835   4.010   6.673   6.692 -0.4368  0.8355  0.3353
  719MOL0     C94836   3.988   6.633   6.840  0.4234 -0.0419 -1.1483
  719MOL0     C94837   3.941   6.494   6.870 -0.4442  0.2115 -0.3871
  719MOL0     C94838   3.963   6.459   7.020 -0.6197  0.7181 -0.0547
  719MOL0     C94839   3.918   6.324   7.028 -0.5569  0.7190  0.6560
  719MOL0     C94840   3.871   6.208   7.035 -0.3061 -0.0056 -0.5853
  719MOL0     C94841   3.973   7.043   6.727 -0.0953 -0.7002  0.2744
  719MOL0     C94842   3.874   7.138   6.740 -0.0585  0.2815  0.5833
  719MOL0     H94843   3.541   7.432   6.618 -4.7668  0.2368  0.1076
  719MOL0     H94844   3.364   7.609   6.652 -1.1829  0.6626  1.2640
  719MOL0     H94845   3.195   7.691   6.735  2.4506  0.0136 -0.8580
  719MOL0     H94846   3.293   7.817   6.701  1.8342  0.4990  0.8465
  719MOL0     H94847   3.178   7.940   6.894 -0.6155 -0.2145  0.5644
  719MOL0     H94848   3.057   7.803   6.906 -0.5686  1.5026 -0.1675
  719MOL0     H94849   2.990   7.835   6.686  2.3064 -0.5790 -1.1552
  719MOL0     H94850   3.099   7.956   6.639  2.3030  0.4142  1.5235
  719MOL0     H94851   2.872   7.956   6.838 -1.1332  1.0219 -0.1871
  719MOL0     H94852   2.979   8.095   6.844  2.7087 -0.3356 -0.6274
  719MOL0     H94853   2.931   8.147   6.611 -0.9660  3.1091  0.7770
  719MOL0     H94854   2.779   8.140   6.711  0.2872  1.7454 -0.8582
  719MOL0     H94855   2.788   7.896   6.610 -0.3415  0.8622  0.8339
  719MOL0     H94856   2.877   7.966   6.479 -1.2071 -2.0787 -1.0654
  719MOL0     H94857   2.658   7.943   6.404  1.3146 -1.3560  1.3490
  719MOL0     H94858   2.599   8.044   6.541 -0.1492  0.9230 -2.5987
  719MOL0     H94859   2.764   8.122   6.299  0.6857  3.6200 -1.2390
  719MOL0     H94860   2.755   8.224   6.441 -0.1898  1.0950 -1.0009
  719MOL0     H94861   2.624   8.160   6.127 -0.1790 -0.2390 -0.0054
  719MOL0     H94862   2.359   8.325   6.013  1.5901  1.1376  0.5176
  719MOL0     H94863   2.241   8.249   6.110  0.8939  5.8839 -0.9382
  719MOL0     H94864   2.244   8.074   5.974 -0.6402  1.5775  1.1843
  719MOL0     H94865   2.377   8.014   6.051 -2.9843  0.4275  2.6589
  719MOL0     H94866   2.341   8.154   5.782  0.2779  0.4005  0.2189
  719MOL0     H94867   2.501   8.183   5.849 -0.0658 -1.2241  0.5880
  719MOL0     H94868   2.544   7.952   5.880 -3.6186 -1.6861  2.7431
  719MOL0     H94869   2.506   7.996   5.704  2.5515  1.6880  1.1553
  719MOL0     H94870   2.190   7.675   5.857  0.3773 -2.2356  1.9818
  719MOL0     H94871   2.217   7.450   5.763  1.6766 -3.4823 -2.2585
  719MOL0     H94872   2.431   7.071   5.846 -2.5484  0.6653  0.7020
  719MOL0     H94873   2.471   6.845   5.793 -0.0945 -0.6145  0.4790
  719MOL0     H94874   2.483   6.533   5.603  1.3261 -1.2728  0.8734
  719MOL0     H94875   2.480   6.652   5.730 -2.4594 -1.8124  0.1006
  719MOL0     H94876   2.709   6.623   5.675 -1.9451  0.2737  1.7124
  719MOL0     H94877   2.663   6.787   5.613 -2.9661 -0.2768  1.1386
  719MOL0     H94878   2.632   6.708   5.387  0.0083 -1.3481  0.0366
  719MOL0     H94879   2.690   6.552   5.437 -1.0541 -0.8917  3.1145
  719MOL0     H94880   2.849   6.704   5.318  1.1715 -0.9830  0.4927
  719MOL0     H94881   2.840   6.813   5.453  1.0684  0.2479 -1.0764
  719MOL0     H94882   2.934   6.520   5.482  1.4501 -1.2565  0.8275
  719MOL0     H94883   2.950   6.641   5.607 -0.9690 -3.9187  1.4119
  719MOL0     H94884   3.090   6.660   5.325 -0.5257  2.2722 -0.9506
  719MOL0     H94885   3.161   6.590   5.470  0.5543 -1.0398 -2.7653
  719MOL0     H94886   3.054   6.873   5.442  1.2791  0.4816 -0.2437
  719MOL0     H94887   3.160   6.804   5.575  1.8689  0.8827 -0.6380
  719MOL0     H94888   3.311   6.931   5.435  0.0845 -0.0420 -0.7256
  719MOL0     H94889   3.250   6.885   5.285 -1.1078  2.0481  1.1949
  719MOL0     H94890   2.298   6.886   5.413 -2.2909 -0.4915  1.0397
  719MOL0     H94891   2.279   7.145   5.459  1.1747  3.1062  1.2843
  719MOL0     H94892   2.616   7.552   5.638  0.6174  1.6247  0.7304
  719MOL0     H94893   2.567   7.781   5.673 -1.8974  0.5005 -2.4016
  719MOL0     H94894   3.522   7.669   7.043  1.4817  3.9497 -1.0524
  719MOL0     H94895   3.706   7.498   6.996  1.0874  0.9885  0.3653
  719MOL0     H94896   3.596   6.941   6.683  0.2557  0.9850 -1.2413
  719MOL0     H94897   3.753   6.790   6.620 -2.7477  1.6169  0.3556
  719MOL0     H94898   4.099   6.619   6.659 -1.6855 -1.1465  0.0389
  719MOL0     H94899   3.923   6.649   6.629 -1.0546  0.8621  1.1614
  719MOL0     H94900   4.083   6.630   6.893 -0.4596 -2.3447  0.4976
  719MOL0     H94901   3.926   6.708   6.888  0.3313 -1.0179  0.3210
  719MOL0     H94902   3.999   6.430   6.803  2.8722  1.6220  0.9192
  719MOL0     H94903   3.836   6.490   6.842 -0.0981 -0.9356 -1.6066
  719MOL0     H94904   4.070   6.459   7.047 -0.3139  0.8724 -1.2327
  719MOL0     H94905   3.912   6.530   7.085  1.8571  3.0224 -0.4536
  719MOL0     H94906   3.825   6.112   7.046  0.1492 -0.0051  2.1277
  719MOL0     H94907   4.078   7.065   6.743  0.3684 -2.9035  0.5230
  719MOL0     H94908   3.887   7.245   6.759 -1.4071  0.8135 -1.2196
  720MOL0     O94909   9.507   3.323   2.885 -0.0194 -0.6038  0.9559
  720MOL0     C94910   9.447   3.296   2.987 -1.0377 -0.7241 -0.5517
  720MOL0     O94911   9.505   3.268   3.100  0.3358 -0.1152 -0.1541
  720MOL0     C94912   9.640   3.253   3.101  0.6453 -0.2427  0.0185
  720MOL0     C94913   9.692   3.136   3.049 -0.6269 -0.3036  0.2927
  720MOL0     C94914   9.838   3.125   3.049 -0.1031  0.8328 -0.5194
  720MOL0     C94915   9.912   3.229   3.118  0.4518  0.0134 -0.1013
  720MOL0     O94916  10.043   3.215   3.135 -0.3135 -0.4563  0.5541
  720MOL0     C94917  10.099   3.082   3.150 -0.7303 -0.7372 -0.4991
  720MOL0     C94918  10.251   3.084   3.191 -0.1078 -0.4011  0.2832
  720MOL0     C94919  10.310   2.945   3.210 -0.6544  0.1270 -0.2966
  720MOL0     C94920  10.252   2.874   3.342 -0.0073  0.5576  0.3910
  720MOL0     C94921  10.285   2.726   3.346  0.5583 -0.0748 -0.1037
  720MOL0     C94922  10.431   2.689   3.340 -2.1112  0.8557 -0.4377
  720MOL0     C94923  10.446   2.532   3.326  0.4658  0.3581  0.4243
  720MOL0     C94924  10.513   2.483   3.198 -0.8522  0.0291  0.2195
  720MOL0     N94925  10.648   2.542   3.205  0.6528  0.0557  0.2940
  720MOL0     C94926  10.756   2.490   3.262 -0.0522  0.8089  0.7541
  720MOL0     C94927  10.859   2.539   3.193 -0.3094  0.0087  0.5229
  720MOL0     C94928  11.006   2.494   3.202 -0.7311 -0.7443 -0.7358
  720MOL0     C94929  11.008   2.344   3.176 -0.6847  0.1741  1.0185
  720MOL0     C94930  11.002   2.301   3.025  0.2955  0.3843  0.5122
  720MOL0     C94931  11.129   2.336   2.941 -0.8154  0.7493 -1.0810
  720MOL0     O94932  11.109   2.285   2.806  1.2297  0.1346  0.4290
  720MOL0     C94933  11.163   2.163   2.766 -0.3341 -0.2851 -0.1579
  720MOL0     C94934  11.174   2.136   2.630  0.2281 -0.7478  0.6864
  720MOL0     C94935  11.232   2.024   2.574  0.7445 -0.2248 -0.8953
  720MOL0     C94936  11.307   1.934   2.667 -0.3035 -0.2007  0.7517
  720MOL0     C94937  11.384   1.818   2.607 -0.3268  0.3778  0.7867
  720MOL0     O94938  11.445   1.726   2.690 -0.8302 -0.2428 -0.9137
  720MOL0     C94939  11.494   1.607   2.646  0.5767 -0.1496 -0.5341
  720MOL0     C94940  11.625   1.580   2.662 -0.0666 -0.0833 -0.3894
  720MOL0     C94941  11.675   1.454   2.637  0.0444  0.7346  0.0845
  720MOL0     C94942  11.583   1.355   2.591  0.0771 -0.3984 -1.0225
  720MOL0     O94943  11.634   1.233   2.549 -0.4613 -0.0652  0.5504
  720MOL0     C94944  11.578   1.114   2.596 -0.0249  0.1963 -0.0468
  720MOL0     C94945  11.668   1.059   2.712 -0.1304  0.3231  1.0319
  720MOL0     C94946  11.792   0.986   2.646 -0.1640  0.2141 -1.1009
  720MOL0     C94947  11.864   0.910   2.762  0.1541  0.1841  0.1768
  720MOL0     C94948  11.992   0.834   2.737  0.4295  0.4993 -0.6903
  720MOL0     C94949  12.101   0.927   2.682  0.3571  0.5232  0.0696
  720MOL0     C94950  12.243   0.876   2.675  0.1769  0.8995  0.2815
  720MOL0     C94951  12.256   0.743   2.600 -0.0011 -0.5697  0.3983
  720MOL0    Cl94952  12.420   0.745   2.535  0.1542  0.3759  0.1178
  720MOL0     C94953  11.453   1.386   2.569 -0.0924 -0.2913  0.0880
  720MOL0     C94954  11.408   1.510   2.598 -0.2370 -0.6478  0.4636
  720MOL0     O94955  11.377   1.809   2.484 -0.2797  0.1862 -0.2377
  720MOL0     C94956  11.292   1.954   2.802  0.0660  0.0926 -0.7495
  720MOL0     C94957  11.225   2.074   2.849  0.6437  0.3496  0.5554
  720MOL0     N94958  10.817   2.636   3.113 -0.0441 -0.6833 -0.2460
  720MOL0     N94959  10.687   2.637   3.118 -0.5190 -0.1342 -0.7434
  720MOL0     C94960   9.852   3.342   3.170 -1.2375 -1.5127  0.5988
  720MOL0     C94961   9.715   3.355   3.158 -0.1326  0.4055 -0.3817
  720MOL0     C94962   9.299   3.303   2.998  0.4101  0.0741  0.3646
  720MOL0     C94963   9.226   3.280   3.109  0.1911 -0.4634 -0.8770
  720MOL0     C94964   9.091   3.292   3.114  0.3052  0.1376  0.1657
  720MOL0     C94965   9.018   3.322   2.996 -0.2313  0.2696  0.5307
  720MOL0     O94966   8.886   3.346   2.978 -0.2808 -0.6361 -0.7944
  720MOL0     C94967   8.798   3.325   3.087  0.3514  0.3544 -0.3778
  720MOL0     C94968   8.714   3.188   3.079  0.2433  0.2308 -0.4948
  720MOL0     C94969   8.641   3.170   2.948  1.2283  0.7870 -0.2335
  720MOL0     C94970   8.489   3.150   2.981 -0.0979 -0.0517  0.7341
  720MOL0     C94971   8.441   3.283   3.022 -0.3902  0.4537 -0.0472
  720MOL0     C94972   8.405   3.395   3.056 -0.3711 -0.1691 -0.5731
  720MOL0     C94973   9.092   3.341   2.876  0.2111 -0.9413  0.6118
  720MOL0     C94974   9.231   3.337   2.882  0.4297  0.6072 -0.1077
  720MOL0     H94975   9.623   3.063   3.009 -0.8199  1.8941 -4.0213
  720MOL0     H94976   9.886   3.048   2.989 -1.1802  2.0678 -3.1226
  720MOL0     H94977  10.096   3.036   3.051 -1.9293  1.5260 -1.6117
  720MOL0     H94978  10.040   3.020   3.217 -2.1496 -0.1391 -1.1360
  720MOL0     H94979  10.262   3.148   3.279 -0.8245  0.9454 -0.5685
  720MOL0     H94980  10.312   3.127   3.112  0.3118 -2.5091 -0.6176
  720MOL0     H94981  10.417   2.961   3.224  0.4423 -3.4792 -3.1964
  720MOL0     H94982  10.296   2.893   3.115 -1.3472  3.3313 -2.0684
  720MOL0     H94983  10.289   2.920   3.434  2.6308 -2.3192  0.9387
  720MOL0     H94984  10.144   2.889   3.338  0.0607  1.3946  1.3677
  720MOL0     H94985  10.235   2.671   3.265  0.5283 -2.3896  1.3983
  720MOL0     H94986  10.247   2.674   3.435 -0.9840 -1.0399 -1.2590
  720MOL0     H94987  10.477   2.719   3.434 -1.6486  1.5723 -0.8840
  720MOL0     H94988  10.473   2.734   3.249 -0.0600  0.3163  0.2025
  720MOL0     H94989  10.507   2.499   3.410 -0.5875 -1.3990  0.5584
  720MOL0     H94990  10.348   2.485   3.340  0.1247  0.4645 -1.4023
  720MOL0     H94991  10.461   2.526   3.112  1.0311  2.1384  0.0467
  720MOL0     H94992  10.508   2.374   3.191 -1.7130  0.0004  1.0496
  720MOL0     H94993  10.743   2.407   3.330 -2.8082 -1.8734 -2.6851
  720MOL0     H94994  11.041   2.510   3.305 -1.2361 -3.2561 -0.0961
  720MOL0     H94995  11.054   2.555   3.125  2.2827 -2.6225 -0.5216
  720MOL0     H94996  10.924   2.301   3.232 -0.6819  0.1005  0.9656
  720MOL0     H94997  11.106   2.313   3.211  0.4567  1.4932 -0.8163
  720MOL0     H94998  10.978   2.197   3.004  1.5229 -0.3765  2.6128
  720MOL0     H94999  10.917   2.357   2.984 -0.1486 -1.5997 -1.4868
  720MOL0     H95000  11.217   2.291   2.988  1.1000  4.8062 -0.4192
  720MOL0     H95001  11.143   2.444   2.939  0.3263  0.6069 -2.2733
  720MOL0     H95002  11.125   2.205   2.562 -0.3437 -1.9639 -0.1543
  720MOL0     H95003  11.215   2.006   2.468 -1.9169  1.9567 -0.9471
  720MOL0     H95004  11.692   1.657   2.700  0.3611 -0.7370  0.2056
  720MOL0     H95005  11.782   1.444   2.650  0.2082  0.8596 -1.0222
  720MOL0     H95006  11.576   1.045   2.511 -0.0100 -1.8240  1.5229
  720MOL0     H95007  11.473   1.133   2.622 -0.4952 -0.0500 -1.6389
  720MOL0     H95008  11.606   0.985   2.763 -1.3351  0.0981 -0.6803
  720MOL0     H95009  11.701   1.140   2.777  0.9146  0.4413  0.3838
  720MOL0     H95010  11.859   1.048   2.586  0.7933 -0.4245 -0.7058
  720MOL0     H95011  11.751   0.903   2.586 -0.1548 -2.2703  2.0914
  720MOL0     H95012  11.876   0.987   2.838  0.2757 -0.7781  1.1689
  720MOL0     H95013  11.793   0.834   2.799 -0.8092  1.9225  2.1144
  720MOL0     H95014  11.978   0.760   2.658  2.4776  0.6629 -1.2625
  720MOL0     H95015  12.018   0.782   2.829  0.4431  1.0652 -0.3701
  720MOL0     H95016  12.106   1.012   2.749  0.9924  0.8280 -0.3515
  720MOL0     H95017  12.092   0.950   2.575  1.5654 -2.9044 -0.9244
  720MOL0     H95018  12.299   0.946   2.613  2.3213 -2.0457 -1.3497
  720MOL0     H95019  12.289   0.873   2.775 -0.5911  1.4223  0.6568
  720MOL0     H95020  12.179   0.742   2.522 -1.5029  1.1939  1.7806
  720MOL0     H95021  12.243   0.654   2.662 -3.2240 -1.4742 -1.3353
  720MOL0     H95022  11.386   1.317   2.518  0.2521 -1.8172  1.6197
  720MOL0     H95023  11.306   1.543   2.578  0.9825  3.3062 -0.1082
  720MOL0     H95024  11.347   1.888   2.869 -2.6256 -0.9694  0.5406
  720MOL0     H95025  11.218   2.078   2.957 -1.8711  0.4823  0.4620
  720MOL0     H95026   9.918   3.419   3.209  0.2701 -3.2789  1.7057
  720MOL0     H95027   9.662   3.436   3.207  2.0014  0.6590  1.6918
  720MOL0     H95028   9.278   3.257   3.202 -2.2282 -0.9804  0.4387
  720MOL0     H95029   9.049   3.248   3.203 -0.5499 -6.7205 -3.0017
  720MOL0     H95030   8.719   3.400   3.081  0.0789  0.0776 -0.2701
  720MOL0     H95031   8.844   3.336   3.186  1.8428  4.3657 -1.3186
  720MOL0     H95032   8.786   3.106   3.092 -0.1661  0.2966  3.5500
  720MOL0     H95033   8.641   3.185   3.159  1.6241 -1.8018  0.7890
  720MOL0     H95034   8.678   3.073   2.911  0.3538  1.3579 -2.8019
  720MOL0     H95035   8.662   3.252   2.878  0.6776  0.4458 -0.8100
  720MOL0     H95036   8.444   3.116   2.888  0.1708 -3.4975  1.7174
  720MOL0     H95037   8.474   3.078   3.062 -0.5079  0.3812  1.0524
  720MOL0     H95038   8.365   3.493   3.069  0.3884 -0.0674  1.2717
  720MOL0     H95039   9.053   3.370   2.779  0.1730  1.1391  1.1883
  720MOL0     H95040   9.294   3.358   2.796  2.6590 -1.2819  0.9386
  721MOL0     O95041   8.176   3.593   6.069 -0.2675  0.0417  0.1305
  721MOL0     C95042   8.063   3.648   6.067  0.0572  0.0060  0.4136
  721MOL0     O95043   7.999   3.684   6.183  0.1605  0.7129  1.0435
  721MOL0     C95044   8.051   3.637   6.303  0.8717  0.1330  0.0465
  721MOL0     C95045   8.006   3.514   6.362  1.1768 -0.3530 -0.1401
  721MOL0     C95046   8.048   3.481   6.494  0.2149  0.0083 -0.7554
  721MOL0     C95047   8.131   3.568   6.574 -1.1575  0.2636 -0.3463
  721MOL0     O95048   8.177   3.536   6.700  0.0126 -0.1125  0.4499
  721MOL0     C95049   8.131   3.432   6.785  0.4494  0.8379 -0.7140
  721MOL0     C95050   8.211   3.300   6.759  0.4535 -0.6210  0.9006
  721MOL0     C95051   8.124   3.171   6.785  0.7110 -0.1778  0.7108
  721MOL0     C95052   8.115   3.155   6.936  0.6230  0.2648  0.2136
  721MOL0     C95053   8.073   3.019   6.985 -0.5331  0.1717  0.1413
  721MOL0     C95054   8.078   3.009   7.140  0.1058 -0.1650 -0.3363
  721MOL0     C95055   8.012   2.878   7.190 -0.5860  0.0487 -0.4713
  721MOL0     C95056   7.974   2.878   7.333 -1.3879 -0.5848 -0.1357
  721MOL0     N95057   8.089   2.918   7.416  0.3432  0.3698 -0.4074
  721MOL0     C95058   8.114   3.055   7.453  0.5314 -0.2063  0.1910
  721MOL0     C95059   8.235   3.039   7.519 -1.1604  0.0618  0.0245
  721MOL0     C95060   8.288   3.158   7.586 -0.3987  0.2112 -0.2599
  721MOL0     C95061   8.191   3.239   7.678  0.3558 -0.2781  0.3656
  721MOL0     C95062   8.152   3.182   7.816  0.5304  1.0977  0.9811
  721MOL0     C95063   8.268   3.166   7.915 -1.3881 -0.5996  0.3308
  721MOL0     O95064   8.302   3.290   7.982 -0.3178 -0.5695 -0.6263
  721MOL0     C95065   8.225   3.306   8.102  0.1194 -0.2779 -0.0979
  721MOL0     C95066   8.136   3.416   8.124  0.2120  0.4703  1.0613
  721MOL0     C95067   8.058   3.436   8.238 -0.1964 -0.3056  0.4246
  721MOL0     C95068   8.066   3.346   8.347 -0.1126 -0.5093  0.3114
  721MOL0     C95069   7.980   3.361   8.463  0.4335  1.3287 -0.2529
  721MOL0     O95070   7.989   3.266   8.565  0.0414 -0.5130 -0.3846
  721MOL0     C95071   7.939   3.300   8.689 -0.0964 -0.3994  1.2156
  721MOL0     C95072   7.906   3.424   8.746  0.5177  0.7240  0.6522
  721MOL0     C95073   7.836   3.431   8.865  0.3546 -0.8760  0.4705
  721MOL0     C95074   7.805   3.312   8.927 -0.7875  0.7156 -0.2359
  721MOL0     O95075   7.745   3.338   9.051 -0.5818  0.0053 -0.8721
  721MOL0     C95076   7.719   3.217   9.128  0.9252 -0.4560 -0.0787
  721MOL0     C95077   7.626   3.278   9.234 -0.1418 -0.1791  0.4842
  721MOL0     C95078   7.549   3.175   9.310 -0.4444  1.1685 -0.1423
  721MOL0     C95079   7.441   3.249   9.390  0.4659  0.9610  0.1967
  721MOL0     C95080   7.341   3.157   9.457 -0.0567 -0.2094  0.1477
  721MOL0     C95081   7.227   3.226   9.530 -0.1802  0.4525  0.6483
  721MOL0     C95082   7.156   3.133   9.624  0.8843  0.5548  0.2465
  721MOL0     C95083   7.059   3.202   9.719 -0.1702  0.4873  0.3029
  721MOL0    Cl95084   6.915   3.276   9.644  0.1227 -0.1997  0.3071
  721MOL0     C95085   7.838   3.187   8.875 -0.8053 -0.2239  0.4797
  721MOL0     C95086   7.906   3.185   8.760  0.0286 -0.2977  0.5998
  721MOL0     O95087   7.913   3.464   8.462  0.5364  0.0325  0.1801
  721MOL0     C95088   8.159   3.239   8.332 -0.2829  0.4643 -0.1908
  721MOL0     C95089   8.234   3.219   8.211  0.0258  0.1303 -0.5101
  721MOL0     N95090   8.296   2.920   7.492 -0.1025  0.0126 -1.1533
  721MOL0     N95091   8.206   2.852   7.431 -0.5501 -0.1449 -0.0158
  721MOL0     C95092   8.164   3.696   6.518  0.2155  0.5819 -0.0425
  721MOL0     C95093   8.127   3.722   6.384  1.1422  0.0913 -0.6601
  721MOL0     C95094   7.989   3.674   5.942 -0.3586  0.4106 -0.0164
  721MOL0     C95095   8.032   3.619   5.822 -0.5615  0.3198  0.4355
  721MOL0     C95096   7.958   3.631   5.699 -0.8383 -0.6104 -0.5823
  721MOL0     C95097   7.847   3.706   5.703  0.4806  0.4349 -0.2044
  721MOL0     O95098   7.778   3.706   5.580 -0.2763  0.7987 -0.6535
  721MOL0     C95099   7.669   3.791   5.547  0.2645 -0.4823  0.3071
  721MOL0     C95100   7.623   3.776   5.410 -0.6081 -0.6733  0.1588
  721MOL0     C95101   7.556   3.638   5.389  0.2079 -0.5586  0.0680
  721MOL0     C95102   7.496   3.605   5.253  0.4396  0.3783 -0.3990
  721MOL0     C95103   7.599   3.533   5.178 -0.1186 -0.2809  0.9081
  721MOL0     C95104   7.690   3.470   5.127 -0.7261 -0.2286 -0.6339
  721MOL0     C95105   7.797   3.765   5.820 -1.6366  0.2044  0.1165
  721MOL0     C95106   7.871   3.755   5.938 -0.5150  0.0888  0.6321
  721MOL0     H95107   7.948   3.451   6.296  1.1528  0.1423 -0.6005
  721MOL0     H95108   8.035   3.378   6.528  1.0503  1.2149  3.9761
  721MOL0     H95109   8.022   3.422   6.781  0.2863  0.8836  2.0067
  721MOL0     H95110   8.151   3.460   6.889  1.0080  1.4430 -0.9798
  721MOL0     H95111   8.294   3.297   6.830  0.5261 -0.0435  0.8424
  721MOL0     H95112   8.244   3.288   6.656 -3.3304 -2.7741 -0.2758
  721MOL0     H95113   8.185   3.090   6.743  2.8742  2.6865 -2.2029
  721MOL0     H95114   8.028   3.179   6.734  2.0621 -1.3035 -2.2477
  721MOL0     H95115   8.207   3.176   6.990  1.3325  4.1561 -2.1167
  721MOL0     H95116   8.049   3.233   6.976 -1.5848 -1.7107  0.6398
  721MOL0     H95117   8.147   2.942   6.962  1.6389  0.4199  5.0680
  721MOL0     H95118   7.974   3.000   6.942  1.1938 -3.6847 -2.7699
  721MOL0     H95119   8.016   3.084   7.189 -0.6533 -1.4832  0.7825
  721MOL0     H95120   8.181   3.025   7.174  0.5862  4.3109 -3.0684
  721MOL0     H95121   7.910   2.876   7.152 -1.5320  3.2846  1.5388
  721MOL0     H95122   8.078   2.793   7.166  1.8378  0.9411  2.4269
  721MOL0     H95123   7.951   2.776   7.363 -0.1899  0.0043  3.2401
  721MOL0     H95124   7.888   2.941   7.358 -1.2787 -1.4206  2.7315
  721MOL0     H95125   8.042   3.135   7.437 -1.1958 -1.7816 -0.2810
  721MOL0     H95126   8.337   3.229   7.518  0.4425 -1.0003 -0.9623
  721MOL0     H95127   8.377   3.116   7.635 -0.6597 -0.2992 -0.2156
  721MOL0     H95128   8.102   3.259   7.618  0.4904  0.4168  0.3859
  721MOL0     H95129   8.239   3.336   7.691  0.1764 -0.3043  1.2494
  721MOL0     H95130   8.085   3.258   7.858 -1.5552  1.0973 -2.0193
  721MOL0     H95131   8.098   3.090   7.793  3.2775 -0.1903 -1.0517
  721MOL0     H95132   8.355   3.127   7.860  1.1345  1.0236  2.8852
  721MOL0     H95133   8.238   3.089   7.987 -0.0737 -2.1983 -0.7472
  721MOL0     H95134   8.136   3.492   8.048 -0.3782 -1.4206 -0.9394
  721MOL0     H95135   7.978   3.508   8.243  0.8661  1.1975 -2.2790
  721MOL0     H95136   7.931   3.514   8.692 -0.0950 -0.1920 -1.2455
  721MOL0     H95137   7.808   3.520   8.921 -1.7256 -1.9980  1.3606
  721MOL0     H95138   7.799   3.157   9.172  0.4107 -0.6716  0.5831
  721MOL0     H95139   7.672   3.148   9.057  0.8037  0.9314 -1.4011
  721MOL0     H95140   7.560   3.342   9.174 -1.1414 -1.8375 -0.2671
  721MOL0     H95141   7.686   3.341   9.300 -1.4113  1.5249  0.0777
  721MOL0     H95142   7.621   3.117   9.369 -1.9178 -0.9490 -0.3175
  721MOL0     H95143   7.504   3.102   9.243 -0.7467  2.1316 -1.0014
  721MOL0     H95144   7.474   3.312   9.472 -1.3843  1.0120  0.9478
  721MOL0     H95145   7.383   3.316   9.327  0.7042  1.0421  0.0604
  721MOL0     H95146   7.401   3.105   9.532 -1.1854 -0.3344  0.9854
  721MOL0     H95147   7.301   3.091   9.379 -0.4944 -0.1918  0.3552
  721MOL0     H95148   7.147   3.258   9.462  0.7773 -1.5170 -1.5645
  721MOL0     H95149   7.274   3.318   9.564 -2.1075  2.6134 -2.0637
  721MOL0     H95150   7.081   3.071   9.575  0.8053  0.9798 -0.1855
  721MOL0     H95151   7.224   3.069   9.680  0.3893  0.6302  0.9460
  721MOL0     H95152   7.114   3.281   9.772 -0.4404  0.4366  0.6595
  721MOL0     H95153   7.035   3.130   9.798  2.2520 -0.7652 -0.0044
  721MOL0     H95154   7.818   3.096   8.930  2.3475 -0.7466  0.9391
  721MOL0     H95155   7.924   3.089   8.713 -0.8726 -1.4002  2.3710
  721MOL0     H95156   8.173   3.177   8.420  0.2789 -0.9667 -1.2610
  721MOL0     H95157   8.305   3.137   8.209  1.7208  1.2531  3.1925
  721MOL0     H95158   8.214   3.777   6.570 -2.5188  1.1660  1.9322
  721MOL0     H95159   8.147   3.819   6.339  1.4893 -0.1773 -1.0937
  721MOL0     H95160   8.115   3.550   5.835 -0.9984  0.0140  1.7182
  721MOL0     H95161   7.985   3.580   5.607  0.5321  1.3806 -1.3402
  721MOL0     H95162   7.699   3.896   5.554 -0.3452 -0.2692 -0.1839
  721MOL0     H95163   7.589   3.777   5.620 -1.7882  0.6702 -1.6133
  721MOL0     H95164   7.544   3.850   5.394 -0.2333  0.2873  2.3567
  721MOL0     H95165   7.710   3.793   5.346  0.7723 -3.0997  1.2352
  721MOL0     H95166   7.468   3.635   5.454 -0.8472  1.2750 -1.2062
  721MOL0     H95167   7.622   3.556   5.422 -0.9053 -0.1456  3.8320
  721MOL0     H95168   7.413   3.535   5.263  0.8167  0.0958  1.0345
  721MOL0     H95169   7.472   3.693   5.192  4.0336  0.9427 -1.2488
  721MOL0     H95170   7.775   3.418   5.090 -0.5153 -2.1115  2.1680
  721MOL0     H95171   7.705   3.823   5.820 -1.1602  0.9833 -0.1535
  721MOL0     H95172   7.843   3.801   6.032  0.5763  0.7673  0.6474
  722MOL0     O95173   3.812  10.923   7.826 -0.4232 -0.6199 -0.0283
  722MOL0     C95174   3.812  10.799   7.830 -0.0178  0.3222 -0.2754
  722MOL0     O95175   3.696  10.727   7.843 -0.4904  0.5309  0.3011
  722MOL0     C95176   3.579  10.787   7.848  1.0607 -0.4496  0.3251
  722MOL0     C95177   3.483  10.707   7.781  0.4840  0.2548  0.9569
  722MOL0     C95178   3.346  10.747   7.773 -0.9399 -0.3742 -0.6779
  722MOL0     C95179   3.325  10.871   7.835 -0.4272  0.2017 -0.0333
  722MOL0     O95180   3.203  10.932   7.827  0.4600  0.1059  0.0646
  722MOL0     C95181   3.093  10.840   7.793 -0.1202 -0.6518 -0.0058
  722MOL0     C95182   2.960  10.922   7.821 -0.3442 -0.7032 -0.0284
  722MOL0     C95183   2.842  10.832   7.772  0.4310  0.1620  0.3871
  722MOL0     C95184   2.714  10.863   7.866 -0.3541  0.1360  0.5510
  722MOL0     C95185   2.584  10.820   7.798 -0.9567  1.1393  0.3823
  722MOL0     C95186   2.570  10.684   7.730 -0.0281  0.3744  1.0135
  722MOL0     C95187   2.415  10.636   7.719  0.0514 -0.3730 -0.6780
  722MOL0     C95188   2.383  10.541   7.606  1.5154 -0.5618 -0.1730
  722MOL0     N95189   2.245  10.491   7.612 -0.5177  0.9019  0.1401
  722MOL0     C95190   2.205  10.366   7.656 -0.9964 -0.1488 -0.5030
  722MOL0     C95191   2.079  10.353   7.616  0.0147  0.5217 -0.1064
  722MOL0     C95192   1.989  10.231   7.635 -1.1012 -0.2909 -0.0299
  722MOL0     C95193   1.839  10.261   7.642  0.5074 -0.3056 -1.1106
  722MOL0     C95194   1.791  10.344   7.775 -0.3023 -0.3407  1.1090
  722MOL0     C95195   1.855  10.299   7.900  0.2239  0.5533 -0.3265
  722MOL0     O95196   1.833  10.155   7.932 -0.0809 -0.6878  0.0677
  722MOL0     C95197   1.707  10.105   7.963  0.3876 -0.7280 -0.1319
  722MOL0     C95198   1.674   9.970   7.977 -0.1990  0.6214  0.1515
  722MOL0     C95199   1.547   9.923   8.007  0.7834  0.2990  0.9436
  722MOL0     C95200   1.448  10.018   8.046  0.2653  0.3837  0.2869
  722MOL0     C95201   1.318   9.971   8.080 -0.5157 -0.4040  0.8884
  722MOL0     O95202   1.278   9.847   8.043  0.3359  0.1312  0.0295
  722MOL0     C95203   1.164   9.786   8.094  0.1289 -0.5826 -0.1761
  722MOL0     C95204   1.104   9.849   8.290 -0.8721 -0.6697 -0.2979
  722MOL0     C95205   0.941   9.754   8.383  0.2469 -1.1693  0.0507
  722MOL0     C95206   0.833   9.602   8.286  1.1362 -0.8984  0.0008
  722MOL0     O95207   0.725   9.535   8.347  0.1579  0.8076  0.0089
  722MOL0     C95208   0.697   9.579   8.478 -0.5458 -0.1878 -0.7236
  722MOL0     C95209   0.583   9.489   8.541 -0.5809 -0.5029  1.0408
  722MOL0     C95210   0.453   9.503   8.460  1.3950  0.4875  0.7173
  722MOL0     C95211   0.332   9.423   8.501  0.4532  0.1189 -1.2290
  722MOL0     C95212   0.307   9.413   8.650  0.6050 -0.1685  0.7089
  722MOL0     C95213   0.199   9.309   8.682 -0.7258  1.0334 -0.4708
  722MOL0     C95214   0.178   9.286   8.840  0.1163  0.4705  0.1499
  722MOL0     C95215   0.059   9.177   8.853 -0.3386 -0.6433 -0.8735
  722MOL0    Cl95216  -0.099   9.264   8.849  0.2987 -0.2999 -0.0148
  722MOL0     C95217   0.892   9.537   8.090 -1.1995 -0.2683  0.5940
  722MOL0     C95218   1.058   9.636   7.994 -1.0863 -0.0726 -0.3642
  722MOL0     O95219   1.258  10.045   8.149  0.3552  0.3030 -0.5766
  722MOL0     C95220   1.480  10.151   8.046  0.2554 -0.4520 -1.0876
  722MOL0     C95221   1.606  10.190   8.014  0.2791 -0.9308 -0.0146
  722MOL0     N95222   2.042  10.463   7.529 -0.3015  0.1137  0.4617
  722MOL0     N95223   2.143  10.537   7.522  0.0007 -0.8345  0.3794
  722MOL0     C95224   3.406  10.942   7.913 -0.6221  0.2936 -0.0896
  722MOL0     C95225   3.543  10.910   7.913 -0.0599  0.1425  0.4698
  722MOL0     C95226   3.943  10.722   7.845 -0.1968 -1.0551 -0.5910
  722MOL0     C95227   3.969  10.628   7.944  0.2734 -0.5792  0.4065
  722MOL0     C95228   4.094  10.565   7.947  0.2699 -0.5701 -0.0478
  722MOL0     C95229   4.207  10.619   7.873 -0.2848  0.2212 -0.8222
  722MOL0     O95230   4.324  10.546   7.875 -0.0349  0.0537  0.1045
  722MOL0     C95231   4.419  10.551   7.771  0.2363 -1.1191  0.2998
  722MOL0     C95232   4.474  10.417   7.743 -0.6106  0.6147 -0.3187
  722MOL0     C95233   4.581  10.424   7.619 -0.6827  0.0459  0.5832
  722MOL0     C95234   4.545  10.445   7.473  0.1182 -0.5519 -0.8783
  722MOL0     C95235   4.663  10.473   7.389 -0.8392  0.1596 -1.0007
  722MOL0     C95236   4.767  10.457   7.329 -0.4692 -0.4738  0.3911
  722MOL0     C95237   4.182  10.723   7.782 -0.4623 -0.5442  0.0054
  722MOL0     C95238   4.050  10.771   7.757  0.1956 -0.2297 -0.1140
  722MOL0     H95239   3.510  10.614   7.732 -1.1544  0.5517 -0.6618
  722MOL0     H95240   3.280  10.701   7.700 -0.3916 -0.9717 -0.8130
  722MOL0     H95241   3.103  10.748   7.850  2.5891 -1.0695 -1.0069
  722MOL0     H95242   3.082  10.813   7.688 -1.0089 -0.2988 -0.0124
  722MOL0     H95243   2.961  11.018   7.769  4.0671 -0.5412 -0.0195
  722MOL0     H95244   2.947  10.952   7.925 -2.0199 -0.6017 -0.2407
  722MOL0     H95245   2.872  10.727   7.781  2.0929  0.6393  0.8176
  722MOL0     H95246   2.825  10.868   7.670  0.6150 -2.8091 -0.7860
  722MOL0     H95247   2.721  10.819   7.966  1.2016  1.6084  1.1155
  722MOL0     H95248   2.716  10.972   7.874 -0.5283  0.4206 -2.1812
  722MOL0     H95249   2.567  10.887   7.714 -3.3831  1.1178  0.7827
  722MOL0     H95250   2.509  10.832   7.877 -2.9566  2.2993 -1.6105
  722MOL0     H95251   2.633  10.606   7.775 -0.5518 -0.9840 -0.5123
  722MOL0     H95252   2.600  10.696   7.626 -3.7348 -2.1219 -0.5634
  722MOL0     H95253   2.387  10.578   7.807  1.8552  2.0716  1.6803
  722MOL0     H95254   2.346  10.720   7.712 -1.2762 -1.3372  0.3965
  722MOL0     H95255   2.453  10.458   7.593  1.4547 -0.4326 -1.5486
  722MOL0     H95256   2.395  10.596   7.512 -1.4735 -1.5267 -1.2223
  722MOL0     H95257   2.253  10.293   7.721 -0.7710 -0.4550 -1.0065
  722MOL0     H95258   2.015  10.193   7.734  0.8140 -1.9136 -1.0781
  722MOL0     H95259   2.002  10.155   7.558 -0.4223 -2.1953  1.8592
  722MOL0     H95260   1.782  10.168   7.638 -3.3680  1.8321 -0.3750
  722MOL0     H95261   1.810  10.308   7.548 -0.6140  2.6142  0.5516
  722MOL0     H95262   1.824  10.448   7.764  2.2150 -1.1202  0.6613
  722MOL0     H95263   1.682  10.344   7.783 -0.4614  1.6975 -0.4403
  722MOL0     H95264   1.823  10.358   7.986 -0.9167 -1.5488  0.7876
  722MOL0     H95265   1.962  10.320   7.895  0.5633  0.6059  3.5478
  722MOL0     H95266   1.743   9.889   7.952 -0.3199  0.4583  0.3456
  722MOL0     H95267   1.522   9.818   8.018 -0.6351  0.4474 -0.4059
  722MOL0     H95268   1.148   9.934   8.340  0.4822 -1.1862 -0.5711
  722MOL0     H95269   0.906   9.787   8.480  2.3331  0.8251  0.2112
  722MOL0     H95270   0.667   9.684   8.471 -0.6394 -0.3227 -2.8455
  722MOL0     H95271   0.777   9.569   8.552 -2.0903  1.5308  1.3265
  722MOL0     H95272   0.565   9.540   8.637 -2.8876  0.4013  0.1834
  722MOL0     H95273   0.606   9.384   8.556 -1.2769 -0.8503 -0.2350
  722MOL0     H95274   0.478   9.488   8.355  0.8835 -0.6183  0.7365
  722MOL0     H95275   0.424   9.608   8.467  1.3255  0.6782 -1.7221
  722MOL0     H95276   0.242   9.463   8.453 -0.7584  1.2173  1.7314
  722MOL0     H95277   0.350   9.318   8.478 -0.1613 -0.5067  0.9715
  722MOL0     H95278   0.280   9.507   8.699  1.8762  0.7564 -0.2966
  722MOL0     H95279   0.400   9.374   8.694 -0.6673 -2.0301  1.8883
  722MOL0     H95280   0.232   9.217   8.634 -0.8644  1.6903 -1.8689
  722MOL0     H95281   0.106   9.332   8.629 -0.0588  1.6723 -1.3867
  722MOL0     H95282   0.269   9.246   8.887  0.5433  0.9441 -0.2749
  722MOL0     H95283   0.150   9.387   8.872 -0.8324  1.0895 -2.4320
  722MOL0     H95284   0.060   9.114   8.942  1.2108 -2.1355 -1.8857
  722MOL0     H95285   0.072   9.102   8.774 -0.6802 -1.0709 -0.5279
  722MOL0     H95286   0.855   9.444   8.047  1.1858 -2.9004  3.6903
  722MOL0     H95287   1.085   9.610   7.892  2.4236  4.2766 -0.8233
  722MOL0     H95288   1.419  10.232   8.086  0.9600 -0.4674  0.0495
  722MOL0     H95289   1.633  10.292   8.038  3.3718 -1.0886 -2.3228
  722MOL0     H95290   3.368  11.037   7.950 -1.2484  1.3237 -3.0573
  722MOL0     H95291   3.616  10.964   7.973  2.4018  1.3375 -3.2414
  722MOL0     H95292   3.899  10.602   8.023  0.3339 -0.0085  0.6557
  722MOL0     H95293   4.119  10.474   8.001  0.1656 -0.8890 -0.5307
  722MOL0     H95294   4.495  10.629   7.779 -1.1937  0.4493 -0.7428
  722MOL0     H95295   4.360  10.565   7.680  1.4836  1.1217 -0.2299
  722MOL0     H95296   4.528  10.382   7.831  1.2230 -0.7318 -1.8862
  722MOL0     H95297   4.394  10.349   7.713 -2.0460  2.2838 -0.4566
  722MOL0     H95298   4.621  10.322   7.628 -1.1036 -0.2048 -0.2281
  722MOL0     H95299   4.670  10.485   7.634  0.5977 -1.5209 -0.2581
  722MOL0     H95300   4.510  10.349   7.435 -1.2109 -0.9967  1.2727
  722MOL0     H95301   4.487  10.538   7.470 -0.5189 -0.5723  3.6781
  722MOL0     H95302   4.866  10.448   7.289 -1.1668  1.8351 -2.1266
  722MOL0     H95303   4.266  10.762   7.724 -2.6416  3.8100 -0.6459
  722MOL0     H95304   4.019  10.849   7.688  0.7367  1.7359  1.7586
  723MOL0     O95305   5.195   6.860   9.532 -0.3568 -0.4676 -0.4011
  723MOL0     C95306   5.284   6.866   9.614  0.1545 -0.9594  0.0831
  723MOL0     O95307   5.317   6.979   9.680 -0.7804  1.0016 -0.2579
  723MOL0     C95308   5.253   7.093   9.663  0.6455 -0.8196 -0.1507
  723MOL0     C95309   5.179   7.138   9.779 -0.3513  0.1807  0.4887
  723MOL0     C95310   5.081   7.236   9.763  0.1549  0.4147 -0.6071
  723MOL0     C95311   5.058   7.296   9.645 -0.0581 -0.0190  0.2587
  723MOL0     O95312   4.959   7.387   9.614 -0.3437 -0.2788  0.0211
  723MOL0     C95313   4.892   7.467   9.712  0.5293 -0.1994  0.1621
  723MOL0     C95314   4.802   7.573   9.654  0.1591 -0.8733 -0.1559
  723MOL0     C95315   4.722   7.631   9.778 -0.5890 -0.7882  0.0117
  723MOL0     C95316   4.817   7.726   9.867 -0.1681 -0.4261 -0.5320
  723MOL0     C95317   4.731   7.773   9.987  0.0044 -0.0376  0.8455
  723MOL0     C95318   4.798   7.854  10.093  0.7183  0.3348 -0.1114
  723MOL0     C95319   4.690   7.910  10.175  0.8355  0.0429 -0.4335
  723MOL0     C95320   4.736   7.970  10.301 -0.1891 -0.1665  0.1259
  723MOL0     N95321   4.630   8.055  10.357  0.0905 -0.1334 -0.9314
  723MOL0     C95322   4.503   8.015  10.397  0.5966 -0.9243  0.0502
  723MOL0     C95323   4.444   8.128  10.448  0.2211  0.2364 -0.1150
  723MOL0     C95324   4.306   8.123  10.507  0.0342 -0.6989  0.2667
  723MOL0     C95325   4.263   8.260  10.572  0.4591 -0.2600 -0.0751
  723MOL0     C95326   4.105   8.280  10.577 -0.0637 -0.9831  0.6935
  723MOL0     C95327   4.016   8.180  10.638 -0.8444 -0.1244 -0.4682
  723MOL0     O95328   3.894   8.234  10.668  0.8009 -0.7097 -0.6431
  723MOL0     C95329   3.822   8.151  10.755  0.3394  0.4439 -0.5875
  723MOL0     C95330   3.692   8.112  10.728  1.0148 -0.1306  0.2414
  723MOL0     C95331   3.610   8.052  10.826 -0.3597  0.4733  0.4962
  723MOL0     C95332   3.662   8.033  10.958  0.6018  0.8698 -0.5529
  723MOL0     C95333   3.576   7.950  11.057 -0.0590  1.1927 -0.7046
  723MOL0     O95334   3.612   7.955  11.187 -0.0493 -0.7269 -0.5728
  723MOL0     C95335   3.523   7.923  11.285  0.0355  0.0789 -0.0354
  723MOL0     C95336   3.556   7.819  11.373 -0.3695 -0.2503 -1.0320
  723MOL0     C95337   3.468   7.763  11.466 -0.0569 -0.7374  0.6161
  723MOL0     C95338   3.351   7.826  11.493 -0.2697 -1.3116 -0.4805
  723MOL0     O95339   3.302   7.783  11.616 -0.5333 -0.1826 -0.7335
  723MOL0     C95340   3.231   7.863  11.700 -0.4218 -1.3981 -0.7019
  723MOL0     C95341   3.087   7.824  11.690  0.1265  0.3063 -1.2533
  723MOL0     C95342   3.030   7.775  11.563 -0.0868 -0.3360  0.1679
  723MOL0     C95343   2.880   7.788  11.565 -0.6230 -0.7295 -0.9004
  723MOL0     C95344   2.816   7.721  11.437 -0.6878 -0.6663  0.6675
  723MOL0     C95345   2.889   7.775  11.298  0.2513 -0.3255 -0.3260
  723MOL0     C95346   2.809   7.717  11.184  0.9193  0.3608 -1.3648
  723MOL0     C95347   2.869   7.752  11.048  0.6848 -0.1587 -0.5625
  723MOL0    Cl95348   3.014   7.652  11.000 -0.2135 -0.0375 -0.0719
  723MOL0     C95349   3.308   7.921  11.395 -0.4010 -0.0055 -0.1661
  723MOL0     C95350   3.394   7.969  11.295 -0.8498 -0.0210  0.4749
  723MOL0     O95351   3.467   7.907  11.013 -0.4982  0.0086 -0.0503
  723MOL0     C95352   3.787   8.082  10.990 -1.5870 -0.0400 -0.0859
  723MOL0     C95353   3.869   8.143  10.889  0.9005 -0.7794 -0.1076
  723MOL0     N95354   4.531   8.234  10.434 -0.7346  0.0122 -0.0395
  723MOL0     N95355   4.644   8.189  10.381 -0.6434  0.6020  0.0302
  723MOL0     C95356   5.134   7.253   9.533  0.8205  0.3988 -0.5803
  723MOL0     C95357   5.231   7.159   9.542 -0.1305  0.2973 -0.9523
  723MOL0     C95358   5.372   6.748   9.653  0.5297  0.8688  0.7424
  723MOL0     C95359   5.455   6.758   9.766  0.4936 -0.2107  0.2316
  723MOL0     C95360   5.548   6.653   9.791 -0.3895 -0.9890 -0.3852
  723MOL0     C95361   5.566   6.543   9.704 -0.2218  0.2691 -0.3619
  723MOL0     O95362   5.649   6.435   9.727  0.4163 -0.0556 -0.4556
  723MOL0     C95363   5.775   6.480   9.780 -0.3332  0.7531 -0.7355
  723MOL0     C95364   5.856   6.588   9.694 -0.8295 -0.2028 -0.5374
  723MOL0     C95365   6.003   6.605   9.742  0.7897 -0.1425 -0.8154
  723MOL0     C95366   6.062   6.736   9.773 -0.1641 -0.2530  0.5752
  723MOL0     C95367   6.197   6.724   9.835  0.3144 -0.2237 -0.1614
  723MOL0     C95368   6.301   6.677   9.881 -0.0324  0.5732 -0.9930
  723MOL0     C95369   5.487   6.546   9.583 -0.6511 -0.6621 -0.5178
  723MOL0     C95370   5.392   6.640   9.570 -0.1930 -0.0126  0.3559
  723MOL0     H95371   5.195   7.095   9.878  0.6428  0.8646  0.6471
  723MOL0     H95372   5.025   7.264   9.852 -1.4596 -2.2045 -0.6843
  723MOL0     H95373   4.967   7.518   9.773  1.5581  0.3759 -1.4915
  723MOL0     H95374   4.841   7.395   9.776  1.6288  0.8489  2.3328
  723MOL0     H95375   4.735   7.527   9.582  0.1321  1.6530 -1.8439
  723MOL0     H95376   4.857   7.652   9.602 -0.5191  0.6792  1.3978
  723MOL0     H95377   4.687   7.564   9.858  1.2354  1.7503  3.1360
  723MOL0     H95378   4.636   7.683   9.735 -0.6798 -2.2541 -1.7328
  723MOL0     H95379   4.910   7.679   9.900 -1.2379 -0.8918  2.0598
  723MOL0     H95380   4.845   7.816   9.812  0.0585 -1.1491 -1.6263
  723MOL0     H95381   4.684   7.690  10.041  0.6969  0.2184  1.8476
  723MOL0     H95382   4.648   7.830   9.944 -2.2225 -0.7535  3.8224
  723MOL0     H95383   4.857   7.931  10.043  3.0381 -0.6532  0.9659
  723MOL0     H95384   4.867   7.786  10.144 -0.1743 -0.1731  0.4324
  723MOL0     H95385   4.637   7.986  10.117 -1.8089 -0.8162  0.6735
  723MOL0     H95386   4.601   7.850  10.197 -0.1794  1.5987 -0.1651
  723MOL0     H95387   4.830   8.025  10.287  0.7462 -0.6302  3.5789
  723MOL0     H95388   4.759   7.891  10.373  2.3604  1.6098  1.4583
  723MOL0     H95389   4.450   7.921  10.409 -0.2990 -0.3435  0.7639
  723MOL0     H95390   4.300   8.038  10.576  1.0858 -3.0706 -2.3955
  723MOL0     H95391   4.239   8.102  10.423  0.2279 -2.2723  0.4644
  723MOL0     H95392   4.314   8.339  10.516 -0.3473  1.3756  1.3798
  723MOL0     H95393   4.298   8.257  10.676  0.6268 -0.5711 -0.1400
  723MOL0     H95394   4.104   8.377  10.627  2.0137  0.3532 -1.6038
  723MOL0     H95395   4.062   8.289  10.477 -0.9646 -2.0917  0.9711
  723MOL0     H95396   4.079   8.158  10.725  0.8056 -1.0506 -1.8370
  723MOL0     H95397   4.001   8.091  10.576  0.3986 -0.9225  0.3362
  723MOL0     H95398   3.643   8.122  10.632 -2.2907 -0.8388  1.7354
  723MOL0     H95399   3.511   8.020  10.795 -0.0878 -2.3140  2.1269
  723MOL0     H95400   3.651   7.767  11.385 -1.1515 -1.5393 -0.2542
  723MOL0     H95401   3.512   7.694  11.537  0.2058  1.0519  2.2814
  723MOL0     H95402   3.257   7.967  11.680 -1.9595 -0.8384  0.0678
  723MOL0     H95403   3.286   7.847  11.793 -2.5186  2.4637  1.4486
  723MOL0     H95404   3.026   7.907  11.728  1.4198  0.0309  1.6278
  723MOL0     H95405   3.067   7.738  11.755 -0.6114  0.8526 -0.7316
  723MOL0     H95406   3.053   7.669  11.551 -1.8578 -0.5657 -1.9503
  723MOL0     H95407   3.077   7.826  11.478  0.7060  1.1530  1.4522
  723MOL0     H95408   2.856   7.722  11.649  1.6822  1.1454  1.3954
  723MOL0     H95409   2.846   7.889  11.587  1.1821  0.2473 -2.3041
  723MOL0     H95410   2.708   7.736  11.440 -0.4282  1.2559  1.9301
  723MOL0     H95411   2.826   7.612  11.432 -2.8821 -0.9267 -4.4230
  723MOL0     H95412   2.994   7.746  11.293  0.6396  0.7894  0.8307
  723MOL0     H95413   2.889   7.884  11.298 -2.0486 -0.2229 -2.5357
  723MOL0     H95414   2.800   7.608  11.185 -0.5079  0.4073  1.6733
  723MOL0     H95415   2.712   7.767  11.191  0.8597  0.0005  1.7309
  723MOL0     H95416   2.886   7.860  11.037 -1.1746  0.7044  3.1790
  723MOL0     H95417   2.792   7.731  10.974  3.4422 -0.1342 -3.6443
  723MOL0     H95418   3.216   7.976  11.412 -0.7171  0.1034 -2.0288
  723MOL0     H95419   3.360   8.040  11.220  0.3205 -3.2845 -3.5017
  723MOL0     H95420   3.821   8.082  11.093 -2.5578  2.3731  0.3089
  723MOL0     H95421   3.962   8.190  10.916 -0.7445  1.3573  2.2205
  723MOL0     H95422   5.105   7.309   9.445  2.5436  0.5051 -1.1047
  723MOL0     H95423   5.285   7.120   9.457 -0.2206  0.8350 -1.2606
  723MOL0     H95424   5.440   6.832   9.843 -0.4418 -0.2717  0.1220
  723MOL0     H95425   5.596   6.644   9.888 -0.5729 -3.3470 -0.4424
  723MOL0     H95426   5.843   6.394   9.785 -1.1180  0.1944  1.3798
  723MOL0     H95427   5.774   6.516   9.883  0.9113 -3.2853  0.9146
  723MOL0     H95428   5.869   6.551   9.592  0.0843 -0.0568 -0.4793
  723MOL0     H95429   5.811   6.688   9.691  0.1061  0.2178 -0.7672
  723MOL0     H95430   6.059   6.564   9.658 -1.4977 -0.7349 -2.1216
  723MOL0     H95431   6.025   6.543   9.829  1.6030 -1.7383 -2.1191
  723MOL0     H95432   6.057   6.803   9.686  2.1996  0.0878  0.6327
  723MOL0     H95433   6.000   6.789   9.845  0.3471  1.7595 -0.3769
  723MOL0     H95434   6.398   6.639   9.906 -1.0851 -0.7295  1.4666
  723MOL0     H95435   5.482   6.470   9.506  1.8966 -0.0416 -1.3996
  723MOL0     H95436   5.332   6.628   9.480  1.5746  2.8886 -1.3811
  724MOL0     O95437   2.767   1.642   2.318  0.5926 -1.2494 -0.9219
  724MOL0     C95438   2.752   1.762   2.342 -0.1222 -0.6563  0.4541
  724MOL0     O95439   2.643   1.837   2.288  0.0109  0.7505 -0.2188
  724MOL0     C95440   2.557   1.773   2.206 -0.2066 -0.5088  0.2381
  724MOL0     C95441   2.591   1.760   2.072 -1.0193 -0.0488 -0.1216
  724MOL0     C95442   2.509   1.690   1.981  0.4978 -0.2830  0.6579
  724MOL0     C95443   2.379   1.648   2.028 -0.5842  0.0806  0.8486
  724MOL0     O95444   2.306   1.587   1.935  0.1296  0.2085 -0.4670
  724MOL0     C95445   2.207   1.494   1.971 -1.0289  0.2898 -0.4462
  724MOL0     C95446   2.075   1.581   1.992 -1.0575 -0.6311 -1.2159
  724MOL0     C95447   1.961   1.512   1.938  0.1450  0.7536  0.1746
  724MOL0     C95448   1.835   1.607   1.934  0.6274 -0.7028  0.1052
  724MOL0     C95449   1.825   1.693   1.803 -0.3039 -0.4073 -0.2226
  724MOL0     C95450   1.679   1.751   1.788 -0.1551  0.2926 -0.1888
  724MOL0     C95451   1.662   1.820   1.655  0.6320 -0.0009 -0.1537
  724MOL0     C95452   1.513   1.823   1.617  0.3429  0.4923  0.1969
  724MOL0     N95453   1.455   1.693   1.581  0.1808 -0.4658  0.5129
  724MOL0     C95454   1.384   1.610   1.651 -0.0533 -0.1009  0.0122
  724MOL0     C95455   1.349   1.506   1.580 -0.8518 -0.3989 -0.2306
  724MOL0     C95456   1.292   1.375   1.643 -0.1054  0.2799  0.4087
  724MOL0     C95457   1.154   1.350   1.602 -0.3854 -0.6975  0.7602
  724MOL0     C95458   1.051   1.451   1.655 -0.2326  0.2714  0.2869
  724MOL0     C95459   0.917   1.430   1.588  0.3927  0.0115 -0.7847
  724MOL0     O95460   0.855   1.316   1.663  0.7579  0.3356  0.7352
  724MOL0     C95461   0.722   1.313   1.678  0.9347  0.2529  0.2109
  724MOL0     C95462   0.671   1.218   1.770 -0.8861 -0.1570  0.5396
  724MOL0     C95463   0.529   1.220   1.781 -0.2628 -0.4852 -0.0936
  724MOL0     C95464   0.446   1.283   1.687  1.0142 -0.7971 -0.8894
  724MOL0     C95465   0.295   1.263   1.701  0.8489 -0.7984 -0.6500
  724MOL0     O95466   0.230   1.342   1.611 -0.0491  0.7563 -0.2451
  724MOL0     C95467   0.098   1.361   1.615  1.6535 -0.3640  0.0522
  724MOL0     C95468   0.028   1.357   1.741 -0.0717 -1.0287  0.0528
  724MOL0     C95469  -0.113   1.360   1.732  0.1216 -0.0889  0.0917
  724MOL0     C95470  -0.177   1.374   1.615 -1.0582  0.8262  0.1234
  724MOL0     O95471  -0.313   1.370   1.626  0.8289 -0.6241  0.8484
  724MOL0     C95472  -0.395   1.448   1.548  0.6691 -0.1193  1.0451
  724MOL0     C95473  -0.523   1.490   1.626  0.4587  0.0427  0.1448
  724MOL0     C95474  -0.590   1.623   1.580 -0.9114 -0.3428  0.1255
  724MOL0     C95475  -0.626   1.621   1.434 -0.2230 -0.1339 -0.4962
  724MOL0     C95476  -0.739   1.518   1.399  0.1914 -0.4149  0.7073
  724MOL0     C95477  -0.877   1.575   1.435 -0.7891 -0.9467  0.1527
  724MOL0     C95478  -0.982   1.469   1.402 -0.0616  0.9670  0.5080
  724MOL0     C95479  -1.008   1.383   1.527 -0.3896 -0.7852  0.1925
  724MOL0    Cl95480  -1.134   1.264   1.509 -0.4798 -0.1977  0.1524
  724MOL0     C95481  -0.105   1.387   1.493 -0.3491 -0.3517  0.1959
  724MOL0     C95482   0.030   1.367   1.493 -0.1509 -1.3077  0.2852
  724MOL0     O95483   0.248   1.182   1.778 -0.0478  0.9016  0.2721
  724MOL0     C95484   0.502   1.350   1.579 -0.3884  0.2640  0.6364
  724MOL0     C95485   0.639   1.374   1.573 -0.5696 -0.4395 -0.2240
  724MOL0     N95486   1.404   1.522   1.453 -0.3449  0.6116  0.2288
  724MOL0     N95487   1.456   1.647   1.451  0.4904  0.0164 -0.2667
  724MOL0     C95488   2.344   1.670   2.172 -0.3059  0.0144 -0.6450
  724MOL0     C95489   2.442   1.731   2.260  0.8927 -0.7434  0.7504
  724MOL0     C95490   2.830   1.816   2.453 -1.0628 -0.1166 -0.2289
  724MOL0     C95491   2.771   1.899   2.545  0.5706 -0.5485 -0.0312
  724MOL0     C95492   2.847   1.956   2.650  0.2680 -0.9097 -0.0669
  724MOL0     C95493   2.978   1.932   2.661 -1.0120  0.1316 -0.2021
  724MOL0     O95494   3.056   1.987   2.763  0.1338 -0.4625 -0.2835
  724MOL0     C95495   3.001   2.050   2.876 -0.3729 -0.4884 -0.1012
  724MOL0     C95496   3.101   2.096   2.985 -0.1224 -0.9053 -0.3053
  724MOL0     C95497   3.171   1.972   3.050 -0.6616  0.4274  0.2651
  724MOL0     C95498   3.261   2.005   3.172 -1.1379  0.2921  0.6656
  724MOL0     C95499   3.380   2.065   3.112 -0.0666 -0.6787 -0.9094
  724MOL0     C95500   3.485   2.110   3.075  0.1274  0.5939 -0.0846
  724MOL0     C95501   3.034   1.845   2.571 -0.3673  0.3305 -0.0732
  724MOL0     C95502   2.965   1.781   2.466  0.7305 -0.0365 -0.6243
  724MOL0     H95503   2.685   1.806   2.042 -0.4428 -1.7214 -1.0444
  724MOL0     H95504   2.533   1.678   1.877 -1.0694 -1.9761  0.4385
  724MOL0     H95505   2.232   1.427   2.054  0.5135 -1.6783 -2.3942
  724MOL0     H95506   2.197   1.438   1.878 -1.8654  2.5987 -1.8520
  724MOL0     H95507   2.079   1.676   1.939 -0.8475 -0.7497 -1.4162
  724MOL0     H95508   2.064   1.599   2.099  0.6198 -3.2100 -0.5183
  724MOL0     H95509   1.935   1.435   2.011  1.4400  2.1906  2.2444
  724MOL0     H95510   1.984   1.481   1.835 -0.3238  0.3072  0.2001
  724MOL0     H95511   1.741   1.552   1.946  0.7402 -1.3354 -1.6062
  724MOL0     H95512   1.853   1.681   2.013 -0.0320  0.5921 -0.9133
  724MOL0     H95513   1.850   1.627   1.719 -0.7891 -0.9483  0.0526
  724MOL0     H95514   1.903   1.770   1.799  0.7933 -1.5218 -0.7591
  724MOL0     H95515   1.656   1.827   1.864  1.6160  0.6733  0.0100
  724MOL0     H95516   1.618   1.662   1.805  2.4565 -2.1075 -2.4942
  724MOL0     H95517   1.711   1.917   1.653  0.2723  0.2825  2.2389
  724MOL0     H95518   1.713   1.762   1.577 -2.0486 -0.5696 -1.6150
  724MOL0     H95519   1.494   1.886   1.529 -1.0635 -1.5712 -1.0933
  724MOL0     H95520   1.457   1.875   1.695 -1.9606 -0.6401 -0.6031
  724MOL0     H95521   1.367   1.629   1.757  0.0370 -0.4932  0.0997
  724MOL0     H95522   1.319   1.373   1.749  0.6372  4.6543  0.5259
  724MOL0     H95523   1.348   1.294   1.595 -0.2322  1.2448 -1.4815
  724MOL0     H95524   1.122   1.255   1.646  0.9266  0.0056  3.4652
  724MOL0     H95525   1.158   1.354   1.493 -0.8736  1.9702  0.7668
  724MOL0     H95526   1.031   1.433   1.760 -0.3924 -0.6691  0.1064
  724MOL0     H95527   1.089   1.551   1.633 -1.1219  0.8205  1.1954
  724MOL0     H95528   0.921   1.432   1.479  1.1311  1.3244 -0.7438
  724MOL0     H95529   0.860   1.518   1.619  2.0315  0.7085  0.4048
  724MOL0     H95530   0.724   1.155   1.840  1.6480  2.6029  1.3237
  724MOL0     H95531   0.479   1.158   1.854  0.2956 -0.6246  0.1779
  724MOL0     H95532   0.074   1.374   1.838  2.0061  1.6478 -1.2324
  724MOL0     H95533  -0.171   1.372   1.824 -3.3402  1.6948 -2.0902
  724MOL0     H95534  -0.426   1.395   1.457  4.4944  0.7068 -0.9573
  724MOL0     H95535  -0.347   1.544   1.529 -0.5687  0.2219 -0.6206
  724MOL0     H95536  -0.489   1.501   1.729  1.0532  0.7847 -0.1176
  724MOL0     H95537  -0.588   1.402   1.615 -1.3935  1.5994 -2.4434
  724MOL0     H95538  -0.514   1.701   1.591 -0.1050 -1.1310  0.2076
  724MOL0     H95539  -0.670   1.650   1.650  2.3911  2.5413  3.1959
  724MOL0     H95540  -0.662   1.720   1.406  1.7623  0.7352 -0.1626
  724MOL0     H95541  -0.537   1.603   1.373 -0.3793  0.9679 -1.0680
  724MOL0     H95542  -0.723   1.421   1.448  0.0964 -1.2507 -0.8482
  724MOL0     H95543  -0.727   1.495   1.293 -1.3246 -0.7023  0.5734
  724MOL0     H95544  -0.905   1.664   1.378  0.2587 -1.4173 -1.1451
  724MOL0     H95545  -0.881   1.608   1.540  0.6317  1.5069 -0.4775
  724MOL0     H95546  -1.075   1.518   1.372  0.1162  1.9848  1.5409
  724MOL0     H95547  -0.947   1.414   1.314 -0.8560 -1.1250  1.4350
  724MOL0     H95548  -1.028   1.442   1.617 -1.1288 -2.0421  0.8794
  724MOL0     H95549  -0.921   1.321   1.552  1.0911  0.7158 -0.9760
  724MOL0     H95550  -0.163   1.404   1.403  1.0439 -0.3564 -0.7437
  724MOL0     H95551   0.080   1.390   1.399  0.9197  1.1102  1.3758
  724MOL0     H95552   0.433   1.375   1.499  0.7136 -3.0506 -1.5873
  724MOL0     H95553   0.685   1.430   1.492 -0.9146  1.0155  0.5491
  724MOL0     H95554   2.250   1.645   2.221  0.4473  0.2933  1.0112
  724MOL0     H95555   2.418   1.744   2.365 -0.1198  0.1769  0.4295
  724MOL0     H95556   2.665   1.920   2.543  0.0312 -1.8799  4.1811
  724MOL0     H95557   2.798   2.024   2.720  0.4150 -2.6792  1.8751
  724MOL0     H95558   2.931   1.971   2.906  0.4848 -2.3037 -2.4976
  724MOL0     H95559   2.946   2.141   2.850 -0.2527 -0.7107 -1.2162
  724MOL0     H95560   3.167   2.176   2.950  1.7469 -0.5074  3.5334
  724MOL0     H95561   3.038   2.152   3.055 -1.7067 -0.3079 -2.1342
  724MOL0     H95562   3.229   1.917   2.975 -1.5860 -2.4655  1.5407
  724MOL0     H95563   3.096   1.902   3.088  1.3304 -0.2154  3.3073
  724MOL0     H95564   3.207   2.079   3.231  0.0834  0.1279  2.0377
  724MOL0     H95565   3.297   1.919   3.229 -1.0817 -0.2304 -0.1413
  724MOL0     H95566   3.582   2.149   3.052 -0.1174  0.1571 -2.0052
  724MOL0     H95567   3.140   1.825   2.584 -0.5426  0.5198  1.9903
  724MOL0     H95568   3.008   1.700   2.408 -0.6200 -1.0905 -0.1999
  725MOL0     O95569   4.872   1.267   6.995  0.6706 -0.2304  0.2339
  725MOL0     C95570   4.900   1.365   6.920 -0.1934 -0.1818 -0.0222
  725MOL0     O95571   4.824   1.445   6.849 -0.3071 -0.0509 -0.1456
  725MOL0     C95572   4.692   1.455   6.893  0.1807 -0.6519  0.6727
  725MOL0     C95573   4.598   1.354   6.866 -0.4028 -0.0932  0.5299
  725MOL0     C95574   4.469   1.367   6.922 -0.4790 -0.3360  0.7229
  725MOL0     C95575   4.431   1.488   6.983 -0.7726 -0.1044  1.2129
  725MOL0     O95576   4.301   1.508   7.023  1.2835  0.0024  0.1071
  725MOL0     C95577   4.199   1.408   6.998 -0.4240 -0.1010  0.2683
  725MOL0     C95578   4.060   1.471   7.015  0.1667  0.7048 -1.2199
  725MOL0     C95579   4.028   1.521   7.157  0.3604 -0.2473 -0.2947
  725MOL0     C95580   4.055   1.428   7.277 -0.2608 -0.1559 -0.4110
  725MOL0     C95581   3.985   1.474   7.406  0.1624  0.2580 -0.0105
  725MOL0     C95582   4.035   1.381   7.531 -0.5159 -1.0752  1.0753
  725MOL0     C95583   4.026   1.472   7.657 -0.4629 -0.5172  0.2069
  725MOL0     C95584   4.087   1.405   7.773  0.0933 -0.3139 -0.4456
  725MOL0     N95585   4.015   1.276   7.813 -1.0159 -0.3509 -0.1682
  725MOL0     C95586   4.015   1.154   7.756 -0.1081 -0.0662  0.3056
  725MOL0     C95587   3.937   1.081   7.831  0.0420  0.1432  0.3308
  725MOL0     C95588   3.905   0.933   7.806  1.6495 -0.3323  0.2357
  725MOL0     C95589   3.928   0.836   7.926 -0.0722  1.2139 -0.3342
  725MOL0     C95590   3.845   0.695   7.911 -0.5522 -1.0122  0.5524
  725MOL0     C95591   3.694   0.697   7.952  0.1947 -0.4913 -0.4214
  725MOL0     O95592   3.652   0.557   7.933 -0.2967 -0.4294 -0.4622
  725MOL0     C95593   3.520   0.524   7.956  0.0472  0.4113 -0.0639
  725MOL0     C95594   3.415   0.610   7.992 -0.4596 -0.3621 -0.2767
  725MOL0     C95595   3.295   0.564   8.026  0.2150  0.6974  0.8172
  725MOL0     C95596   3.260   0.430   8.021 -0.3750 -0.9470  0.8761
  725MOL0     C95597   3.124   0.385   8.025  0.1308  0.4773  0.4538
  725MOL0     O95598   3.047   0.474   8.095  0.2200 -0.8974 -0.3680
  725MOL0     C95599   2.925   0.430   8.152  0.1754  0.3793 -0.9506
  725MOL0     C95600   2.829   0.354   8.078 -0.3553 -0.5401  0.0982
  725MOL0     C95601   2.715   0.319   8.140  0.1442  0.2519 -0.2610
  725MOL0     C95602   2.684   0.353   8.267 -0.2050 -0.2665  0.7109
  725MOL0     O95603   2.552   0.348   8.306  0.0276  0.1023 -0.8345
  725MOL0     C95604   2.536   0.308   8.444  0.9373  0.3421  0.2765
  725MOL0     C95605   2.390   0.249   8.465  0.5294 -0.3685  0.3062
  725MOL0     C95606   2.285   0.355   8.498 -0.8552  0.9096 -0.5240
  725MOL0     C95607   2.265   0.373   8.646  0.4947  0.2683  0.1046
  725MOL0     C95608   2.170   0.487   8.675 -0.7830  0.1492 -0.1920
  725MOL0     C95609   2.168   0.537   8.823 -0.7968 -0.3662  0.7623
  725MOL0     C95610   2.316   0.558   8.882 -0.6256 -0.2740 -0.4811
  725MOL0     C95611   2.327   0.642   9.011 -0.8278 -0.1487 -0.0143
  725MOL0    Cl95612   2.231   0.567   9.137 -0.3192  0.1605 -0.2515
  725MOL0     C95613   2.785   0.419   8.346  0.0694  0.1165 -0.1286
  725MOL0     C95614   2.897   0.462   8.286 -0.7581 -0.5021  0.7807
  725MOL0     O95615   3.090   0.276   7.975 -0.2550  0.3959  0.2605
  725MOL0     C95616   3.364   0.339   7.982  0.2206  0.4226 -0.1305
  725MOL0     C95617   3.486   0.385   7.944 -0.6097 -0.2153 -0.0570
  725MOL0     N95618   3.889   1.153   7.945 -0.8404 -0.6792  0.2379
  725MOL0     N95619   3.951   1.267   7.944 -0.0467  0.4739  0.5770
  725MOL0     C95620   4.523   1.592   7.000  0.8527  0.3107 -0.3932
  725MOL0     C95621   4.653   1.571   6.956  0.3957 -0.8215  0.6091
  725MOL0     C95622   5.052   1.396   6.901  1.2136 -0.4727 -0.3610
  725MOL0     C95623   5.084   1.471   6.789 -0.5325 -0.3653  0.1786
  725MOL0     C95624   5.216   1.511   6.762  0.0659  0.7440 -0.4575
  725MOL0     C95625   5.319   1.462   6.841 -0.0494 -0.6263 -0.1263
  725MOL0     O95626   5.455   1.492   6.817  0.5513  0.6794  0.6958
  725MOL0     C95627   5.503   1.561   6.694  0.3433  0.1879 -0.6372
  725MOL0     C95628   5.484   1.469   6.573 -0.9906 -0.4807  0.3055
  725MOL0     C95629   5.534   1.325   6.593  0.7913 -0.5349  0.1858
  725MOL0     C95630   5.684   1.301   6.590 -0.2525  0.4786 -0.6606
  725MOL0     C95631   5.755   1.385   6.490  0.8424  0.0025 -0.2699
  725MOL0     C95632   5.786   1.461   6.396  1.1017  0.6679 -0.2865
  725MOL0     C95633   5.288   1.380   6.948 -0.5578 -0.5807 -0.2488
  725MOL0     C95634   5.158   1.346   6.984 -1.0682 -0.7085 -0.2234
  725MOL0     H95635   4.615   1.257   6.820 -1.0245  1.1585 -2.6304
  725MOL0     H95636   4.398   1.288   6.901 -1.8599  0.9439  0.3807
  725MOL0     H95637   4.213   1.320   7.061  1.2879  1.0331  1.5831
  725MOL0     H95638   4.215   1.375   6.895 -1.5562  0.5377 -0.1277
  725MOL0     H95639   3.979   1.402   6.988 -0.0891 -0.0928  1.2600
  725MOL0     H95640   4.046   1.558   6.950 -1.0152  1.9198  0.5662
  725MOL0     H95641   3.921   1.541   7.166  0.7162  1.1194  1.4744
  725MOL0     H95642   4.086   1.611   7.178  1.6738 -1.5335  1.9069
  725MOL0     H95643   4.014   1.333   7.241 -3.9320  0.8093  0.7434
  725MOL0     H95644   4.161   1.416   7.302  0.0033 -0.9726 -1.8205
  725MOL0     H95645   3.878   1.456   7.393  0.4453 -0.7960 -1.1825
  725MOL0     H95646   4.008   1.580   7.421  2.1036  0.5299 -3.7935
  725MOL0     H95647   4.139   1.351   7.517 -0.4779 -1.9887  2.8966
  725MOL0     H95648   3.980   1.287   7.544 -2.6897 -0.3827 -2.1061
  725MOL0     H95649   4.082   1.564   7.636  0.3693 -1.1785 -0.5469
  725MOL0     H95650   3.922   1.497   7.679 -0.1489  1.0996 -0.0408
  725MOL0     H95651   4.069   1.472   7.857 -1.2542  0.6035 -1.4200
  725MOL0     H95652   4.196   1.393   7.775  0.1789  0.4997  1.9866
  725MOL0     H95653   4.064   1.124   7.664  0.1316  0.2050  0.3421
  725MOL0     H95654   3.952   0.903   7.712  1.6920 -1.8509  0.7122
  725MOL0     H95655   3.796   0.938   7.794  1.8340  2.5635 -0.9046
  725MOL0     H95656   3.902   0.875   8.025 -2.1122 -3.4844  1.2744
  725MOL0     H95657   4.034   0.810   7.930 -0.4134 -0.1154  0.8191
  725MOL0     H95658   3.857   0.655   7.810  0.4663 -1.2171  0.7441
  725MOL0     H95659   3.885   0.623   7.983  0.3024  2.3819  3.7459
  725MOL0     H95660   3.635   0.772   7.899 -1.4310  0.0653  2.0038
  725MOL0     H95661   3.684   0.723   8.058  0.6957  1.8748 -0.9047
  725MOL0     H95662   3.436   0.715   8.006  2.0374 -0.8921  0.4389
  725MOL0     H95663   3.214   0.629   8.056  0.7020  2.5488 -1.5471
  725MOL0     H95664   2.851   0.332   7.974  0.1604  0.9368 -0.1302
  725MOL0     H95665   2.652   0.269   8.068 -1.6802 -1.1222  2.1481
  725MOL0     H95666   2.556   0.385   8.520 -3.1382  2.3877 -0.4708
  725MOL0     H95667   2.600   0.225   8.475  0.6122 -0.7539 -1.8528
  725MOL0     H95668   2.377   0.159   8.526 -1.4147 -1.4434 -1.5331
  725MOL0     H95669   2.367   0.201   8.369  0.5795 -0.4151  0.3168
  725MOL0     H95670   2.192   0.323   8.451  0.5416 -2.5799 -1.2368
  725MOL0     H95671   2.318   0.440   8.437  1.2731 -0.6746 -1.7403
  725MOL0     H95672   2.215   0.283   8.682 -0.9103  2.2512  3.6120
  725MOL0     H95673   2.365   0.381   8.690  0.9820 -0.6697 -0.7858
  725MOL0     H95674   2.072   0.455   8.638 -0.3812 -1.1140 -0.2207
  725MOL0     H95675   2.196   0.579   8.621 -1.2217  0.5736  0.3099
  725MOL0     H95676   2.113   0.467   8.887 -1.8489  1.7624  2.3249
  725MOL0     H95677   2.130   0.640   8.827  0.8933  0.3066  0.3897
  725MOL0     H95678   2.344   0.457   8.915  1.4011 -0.6401 -3.0046
  725MOL0     H95679   2.387   0.597   8.808 -0.7177  0.4767 -0.1851
  725MOL0     H95680   2.298   0.745   8.992  0.2172 -0.3315 -3.3116
  725MOL0     H95681   2.430   0.643   9.048 -1.0932  4.5505  1.1391
  725MOL0     H95682   2.767   0.440   8.451  2.3088 -3.4037  1.1654
  725MOL0     H95683   2.977   0.520   8.332  2.3493 -0.7955 -3.6307
  725MOL0     H95684   3.325   0.238   7.978 -2.6622  1.4862 -2.0876
  725MOL0     H95685   3.560   0.314   7.910 -2.5725 -2.9122  0.9549
  725MOL0     H95686   4.475   1.685   7.031  1.0528  1.2133 -2.5979
  725MOL0     H95687   4.713   1.661   6.970 -0.1365  0.0955 -2.3157
  725MOL0     H95688   5.004   1.502   6.723 -1.4834  0.7954  1.8165
  725MOL0     H95689   5.238   1.570   6.674  3.4289 -0.1053 -0.3394
  725MOL0     H95690   5.612   1.572   6.693  0.2218  1.3950 -1.5835
  725MOL0     H95691   5.450   1.656   6.686 -0.9073 -0.1433  2.3469
  725MOL0     H95692   5.378   1.464   6.544 -0.2596  0.7158 -2.9917
  725MOL0     H95693   5.533   1.511   6.485 -0.6901 -3.3419 -1.0025
  725MOL0     H95694   5.491   1.264   6.513 -2.9469  0.9857  0.8666
  725MOL0     H95695   5.490   1.286   6.685  0.9089 -0.3724  0.3113
  725MOL0     H95696   5.735   1.312   6.686 -2.5253  1.1367  0.5369
  725MOL0     H95697   5.696   1.199   6.553  1.4561 -0.1830  1.4989
  725MOL0     H95698   5.809   1.526   6.315 -1.5115 -0.1993 -1.8360
  725MOL0     H95699   5.363   1.353   7.022  2.9753 -1.4772 -3.8294
  725MOL0     H95700   5.147   1.291   7.077 -0.3113 -0.1622  0.1915
  726MOL0     O95701   9.891   8.231   7.548 -0.0363 -0.3811 -0.1425
  726MOL0     C95702   9.900   8.321   7.453  0.4383 -0.8142 -0.0822
  726MOL0     O95703  10.016   8.361   7.395 -0.1412 -0.4283  0.1276
  726MOL0     C95704  10.142   8.332   7.447  0.0347  1.5135  1.8067
  726MOL0     C95705  10.246   8.328   7.352  0.4127  0.5606 -0.9418
  726MOL0     C95706  10.376   8.330   7.393 -0.7418  0.4872 -0.4932
  726MOL0     C95707  10.409   8.319   7.526  0.2659 -0.2844 -0.0207
  726MOL0     O95708  10.533   8.331   7.571 -1.3294  0.3182 -0.1984
  726MOL0     C95709  10.637   8.283   7.479  0.3620 -0.0338 -0.3471
  726MOL0     C95710  10.747   8.220   7.569 -0.9170 -0.7748  0.0291
  726MOL0     C95711  10.706   8.078   7.636 -0.6143  0.0016 -0.5404
  726MOL0     C95712  10.830   7.997   7.685  0.3624  0.1054 -0.3586
  726MOL0     C95713  10.768   7.873   7.756  0.8050  0.5693  0.5219
  726MOL0     C95714  10.868   7.825   7.859  0.7887 -0.6223  0.7898
  726MOL0     C95715  10.837   7.891   7.994 -0.0696 -0.3665 -0.0524
  726MOL0     C95716  10.957   7.880   8.088  0.1929 -0.1260  0.7398
  726MOL0     N95717  10.992   7.743   8.128  1.4545  0.7934  0.5233
  726MOL0     C95718  11.071   7.654   8.061  0.0852  0.4034  0.0319
  726MOL0     C95719  11.070   7.541   8.135 -0.4008 -0.4171 -0.1075
  726MOL0     C95720  11.151   7.423   8.109 -0.1435  0.5011  0.1473
  726MOL0     C95721  11.297   7.459   8.086  0.9756  0.7072 -0.1627
  726MOL0     C95722  11.373   7.332   8.033 -0.1289 -0.1800  0.9594
  726MOL0     C95723  11.521   7.348   8.035 -1.3901 -0.7481 -0.0495
  726MOL0     O95724  11.583   7.250   7.945 -0.1142  0.3668 -0.0829
  726MOL0     C95725  11.721   7.267   7.928  0.4521 -0.0600  0.2317
  726MOL0     C95726  11.786   7.183   7.836  0.8246  1.1980  0.0110
  726MOL0     C95727  11.924   7.188   7.822  0.2679 -0.8839  0.4653
  726MOL0     C95728  11.999   7.291   7.877 -0.8409 -0.5545  0.3685
  726MOL0     C95729  12.143   7.310   7.844 -0.1241  0.5949 -0.4523
  726MOL0     O95730  12.215   7.382   7.933  0.6926  1.2791 -0.3149
  726MOL0     C95731  12.347   7.423   7.924  0.2275  0.3213 -0.1605
  726MOL0     C95732  12.401   7.463   7.806 -0.2934 -1.0379  0.1297
  726MOL0     C95733  12.537   7.498   7.800 -0.3446  1.1731  0.4153
  726MOL0     C95734  12.616   7.493   7.918  0.3755 -0.4260 -0.4047
  726MOL0     O95735  12.754   7.503   7.918  0.1731 -0.6966 -0.0838
  726MOL0     C95736  12.807   7.610   8.001  0.2001 -0.3541  0.3443
  726MOL0     C95737  12.955   7.608   7.965  0.2416  0.7771 -0.3752
  726MOL0     C95738  13.027   7.542   8.082 -0.3447 -0.4460  0.0145
  726MOL0     C95739  13.180   7.539   8.069 -0.1417  0.2178 -0.4593
  726MOL0     C95740  13.238   7.683   8.073 -0.5483 -0.2736 -0.1272
  726MOL0     C95741  13.397   7.682   8.080  1.1502  1.3868 -1.1738
  726MOL0     C95742  13.452   7.823   8.078 -0.6788 -1.3053 -0.7104
  726MOL0     C95743  13.596   7.836   8.131  0.3493 -0.1874  1.1909
  726MOL0    Cl95744  13.703   7.736   8.029 -0.0650 -0.1294 -0.3465
  726MOL0     C95745  12.547   7.458   8.043  0.4528  0.1501 -0.2699
  726MOL0     C95746  12.412   7.433   8.047 -0.9214 -0.1914  0.1007
  726MOL0     O95747  12.184   7.254   7.744  0.1945  0.1151 -0.2434
  726MOL0     C95748  11.936   7.370   7.981 -0.6784 -0.2176  0.5805
  726MOL0     C95749  11.806   7.367   8.000  0.8952  0.4995 -0.0426
  726MOL0     N95750  10.988   7.566   8.242  0.4504 -0.2823  0.1228
  726MOL0     N95751  10.930   7.681   8.228  0.1992  0.3934  0.0272
  726MOL0     C95752  10.304   8.319   7.622  0.2461  0.1390  0.6915
  726MOL0     C95753  10.169   8.330   7.578 -0.5770 -0.5438 -0.6710
  726MOL0     C95754   9.776   8.370   7.379 -0.0593  0.0798 -0.1126
  726MOL0     C95755   9.648   8.378   7.444 -0.7987  0.8553 -0.6456
  726MOL0     C95756   9.533   8.412   7.380 -0.3146 -0.9871 -0.0340
  726MOL0     C95757   9.547   8.460   7.244 -0.5327  0.2267 -0.3696
  726MOL0     O95758   9.446   8.507   7.161  0.3815  0.5609 -0.7497
  726MOL0     C95759   9.313   8.479   7.197 -0.2000 -0.5064  0.4444
  726MOL0     C95760   9.212   8.575   7.121 -0.3192  0.1945  0.7516
  726MOL0     C95761   9.070   8.531   7.140 -0.0607 -0.2992 -1.1154
  726MOL0     C95762   8.980   8.649   7.120  1.0100  0.9831  0.4090
  726MOL0     C95763   8.844   8.633   7.165  0.0986 -0.0812  0.3788
  726MOL0     C95764   8.732   8.601   7.204  0.0125  0.1517 -0.6370
  726MOL0     C95765   9.671   8.447   7.178 -0.8121 -0.6292 -0.7713
  726MOL0     C95766   9.789   8.403   7.244 -0.3697 -0.2509 -0.3764
  726MOL0     H95767  10.228   8.350   7.247 -3.2211 -0.1373 -0.6132
  726MOL0     H95768  10.457   8.340   7.322  1.5715  1.8338  2.1232
  726MOL0     H95769  10.676   8.367   7.422 -1.1791 -0.1593 -1.6661
  726MOL0     H95770  10.601   8.199   7.418  0.3134 -2.6771  2.9846
  726MOL0     H95771  10.778   8.285   7.651  0.1883 -1.6859  0.3675
  726MOL0     H95772  10.837   8.200   7.509 -1.9657  1.5440 -2.5199
  726MOL0     H95773  10.646   8.027   7.560 -0.5947  0.0196 -0.5680
  726MOL0     H95774  10.650   8.094   7.729 -0.1389 -1.2949 -0.0003
  726MOL0     H95775  10.893   7.967   7.601  2.4757  3.4269 -0.1484
  726MOL0     H95776  10.892   8.056   7.754 -2.0376  0.0864  1.9829
  726MOL0     H95777  10.763   7.801   7.674  1.7948  2.2314 -1.0736
  726MOL0     H95778  10.667   7.890   7.795  0.0468 -1.9512 -0.1780
  726MOL0     H95779  10.972   7.833   7.828  1.3678 -4.9352  1.0373
  726MOL0     H95780  10.854   7.718   7.875 -1.4990 -0.3422  1.0458
  726MOL0     H95781  10.807   7.994   7.979  0.8064  0.0268  0.7394
  726MOL0     H95782  10.757   7.834   8.042 -2.1942  1.6231 -1.0697
  726MOL0     H95783  10.933   7.927   8.184 -1.6114  0.0335  0.2514
  726MOL0     H95784  11.049   7.929   8.054 -0.8504  0.0718 -2.0086
  726MOL0     H95785  11.129   7.659   7.969  0.9935  1.5266  0.6481
  726MOL0     H95786  11.109   7.385   8.015 -0.2695  2.3550 -0.5984
  726MOL0     H95787  11.141   7.360   8.198  0.2223 -1.2422 -1.0023
  726MOL0     H95788  11.345   7.487   8.180  0.4456  0.0760  0.3000
  726MOL0     H95789  11.305   7.547   8.021 -1.1169  0.5220 -0.7711
  726MOL0     H95790  11.349   7.238   8.084  1.6801 -0.9661  0.4450
  726MOL0     H95791  11.334   7.326   7.931 -0.6901 -1.7877  1.2348
  726MOL0     H95792  11.558   7.328   8.136  1.9266 -0.2517 -1.0497
  726MOL0     H95793  11.556   7.447   8.006  0.5397 -0.4905  2.7573
  726MOL0     H95794  11.738   7.109   7.773  0.9328  3.1516 -2.5091
  726MOL0     H95795  11.972   7.129   7.745  1.2472 -1.5380  1.5476
  726MOL0     H95796  12.340   7.456   7.717 -0.3779  1.5437 -0.0636
  726MOL0     H95797  12.593   7.519   7.710 -2.4382 -1.5387 -1.7037
  726MOL0     H95798  12.779   7.615   8.106  1.9026  2.4452  0.7716
  726MOL0     H95799  12.766   7.702   7.957  1.0249  0.8093  1.9331
  726MOL0     H95800  12.995   7.710   7.969 -0.7837  1.2269 -1.3403
  726MOL0     H95801  12.971   7.555   7.871  2.2450 -1.1890  0.9468
  726MOL0     H95802  12.998   7.437   8.083  2.9194 -1.8653 -6.0010
  726MOL0     H95803  13.000   7.595   8.174 -1.9850  0.8535 -1.1529
  726MOL0     H95804  13.215   7.486   8.158 -5.3577  3.4085  4.1705
  726MOL0     H95805  13.202   7.489   7.974 -6.7907  0.7654 -2.8681
  726MOL0     H95806  13.199   7.728   8.165  4.2125 -0.3267  2.1763
  726MOL0     H95807  13.206   7.746   7.990 -0.2666  0.4845  0.3326
  726MOL0     H95808  13.438   7.636   7.990 -3.4343  3.5085 -4.7297
  726MOL0     H95809  13.437   7.631   8.168  0.8271  0.8815 -1.3150
  726MOL0     H95810  13.454   7.868   7.978  2.0443  0.7360  0.1065
  726MOL0     H95811  13.401   7.896   8.142  0.2107  0.6628 -2.1565
  726MOL0     H95812  13.611   7.819   8.237  0.9120  1.7951  1.4689
  726MOL0     H95813  13.630   7.935   8.100  3.1176 -2.0788 -2.6906
  726MOL0     H95814  12.608   7.439   8.131 -1.4433  0.8682  1.2782
  726MOL0     H95815  12.379   7.412   8.148 -0.8038  1.9372  0.6321
  726MOL0     H95816  11.996   7.452   8.021 -1.6683  1.9254 -1.9729
  726MOL0     H95817  11.769   7.449   8.061  0.6082 -1.3955  2.4882
  726MOL0     H95818  10.329   8.297   7.725  3.6397  0.0904 -0.0199
  726MOL0     H95819  10.093   8.341   7.655  1.7791 -0.8828  1.8973
  726MOL0     H95820   9.647   8.338   7.545  1.5691 -0.2923 -1.0243
  726MOL0     H95821   9.434   8.401   7.424 -0.2501 -0.6294  0.2051
  726MOL0     H95822   9.297   8.495   7.304  2.0579 -0.3826  0.8159
  726MOL0     H95823   9.293   8.376   7.166  1.2813  0.3204 -4.0223
  726MOL0     H95824   9.219   8.677   7.159  1.2602  0.8345 -1.0950
  726MOL0     H95825   9.241   8.567   7.015 -1.9226 -1.6164  0.3807
  726MOL0     H95826   9.061   8.513   7.247  1.0777 -1.6010 -1.2129
  726MOL0     H95827   9.047   8.443   7.080 -0.6505  0.6270 -2.2968
  726MOL0     H95828   9.013   8.741   7.170 -1.5866  0.0168  4.3957
  726MOL0     H95829   8.993   8.656   7.011 -1.4766  0.4289 -0.0005
  726MOL0     H95830   8.632   8.579   7.235 -0.1685  0.5006 -0.9682
  726MOL0     H95831   9.677   8.481   7.075  2.2719  1.7607  0.0554
  726MOL0     H95832   9.888   8.398   7.198 -0.4631  1.2732 -0.8016
  727MOL0     O95833   5.579   2.247   5.177  0.0964 -0.5899 -0.4861
  727MOL0     C95834   5.511   2.324   5.113 -0.3723  0.0710  0.3143
  727MOL0     O95835   5.470   2.309   4.981  0.3610  0.0816  0.4591
  727MOL0     C95836   5.543   2.236   4.882 -0.4148  0.6879  0.3687
  727MOL0     C95837   5.648   2.143   4.907  0.0173  0.6801 -0.3086
  727MOL0     C95838   5.721   2.089   4.800 -0.1139  0.0973  0.1649
  727MOL0     C95839   5.691   2.120   4.668 -0.5655  0.6727 -0.2339
  727MOL0     O95840   5.777   2.064   4.572 -0.8101  0.4450  0.4071
  727MOL0     C95841   5.828   2.166   4.476 -0.5842 -0.3198  0.3811
  727MOL0     C95842   5.925   2.110   4.373 -0.9945  0.8871 -0.3815
  727MOL0     C95843   6.061   2.070   4.429 -0.0912  1.0445 -0.3743
  727MOL0     C95844   6.144   1.976   4.334  0.4506 -0.3068 -0.0003
  727MOL0     C95845   6.262   1.916   4.411 -0.1469  0.5537  0.3003
  727MOL0     C95846   6.348   1.818   4.314  0.1572 -0.3133  0.2849
  727MOL0     C95847   6.441   1.875   4.207  0.4892 -0.5713 -0.2541
  727MOL0     C95848   6.550   1.983   4.256  0.0972 -0.0016  0.4618
  727MOL0     N95849   6.679   1.945   4.191  0.0633  0.9456 -0.1994
  727MOL0     C95850   6.748   1.827   4.199 -0.6327  0.6991  0.1678
  727MOL0     C95851   6.859   1.844   4.121  0.3486  0.6900  0.1675
  727MOL0     C95852   6.970   1.739   4.104 -0.6361  0.1855 -0.1165
  727MOL0     C95853   7.097   1.784   4.178 -0.0378 -0.1624  0.7281
  727MOL0     C95854   7.186   1.664   4.192  0.2066  0.4945  0.3081
  727MOL0     C95855   7.292   1.702   4.285 -0.2485  0.5863 -0.8109
  727MOL0     O95856   7.363   1.580   4.337  0.3576  0.5376 -0.0475
  727MOL0     C95857   7.463   1.590   4.430  0.6381  0.7262  0.1381
  727MOL0     C95858   7.494   1.468   4.492  0.5023 -0.0742  0.9720
  727MOL0     C95859   7.604   1.454   4.574  0.7537  0.0809  0.3014
  727MOL0     C95860   7.693   1.557   4.587  0.4891 -0.2902  0.4582
  727MOL0     C95861   7.808   1.542   4.673  0.0728 -0.1766 -0.1016
  727MOL0     O95862   7.929   1.604   4.640 -0.4579  0.5904 -0.0807
  727MOL0     C95863   8.044   1.562   4.706  0.2495  0.2658 -1.1035
  727MOL0     C95864   8.050   1.583   4.847  0.2784  1.2056 -0.1773
  727MOL0     C95865   8.162   1.536   4.914 -0.6067  0.4463 -0.4805
  727MOL0     C95866   8.273   1.472   4.845  0.6756 -0.5570 -0.7564
  727MOL0     O95867   8.378   1.430   4.926  0.4485 -0.2472  0.6554
  727MOL0     C95868   8.508   1.417   4.865  0.2414 -0.8038 -0.8303
  727MOL0     C95869   8.633   1.455   4.953 -0.3636 -0.5537  1.3128
  727MOL0     C95870   8.664   1.368   5.073 -0.6433  0.9828 -0.4676
  727MOL0     C95871   8.770   1.433   5.165 -0.6478 -0.6966  0.3699
  727MOL0     C95872   8.823   1.326   5.262  0.8924 -0.5733 -1.0306
  727MOL0     C95873   8.910   1.386   5.370  0.4518 -0.2021  0.0786
  727MOL0     C95874   8.972   1.291   5.469  0.5525  0.3279  0.7352
  727MOL0     C95875   9.013   1.366   5.587  0.1870 -0.8304  0.6673
  727MOL0    Cl95876   9.078   1.260   5.719 -0.1517 -0.5821  0.2199
  727MOL0     C95877   8.259   1.459   4.706  0.9761  0.8350  0.7841
  727MOL0     C95878   8.144   1.505   4.637  0.1500  0.5292  0.4166
  727MOL0     O95879   7.786   1.490   4.784 -0.4388  0.6778  0.9393
  727MOL0     C95880   7.670   1.682   4.531  0.7147 -0.0417 -0.0838
  727MOL0     C95881   7.554   1.697   4.445  0.2350 -0.2239  0.9229
  727MOL0     N95882   6.855   1.977   4.075  0.9487 -0.2095  0.2331
  727MOL0     N95883   6.744   2.033   4.112 -0.3615 -0.1602 -0.8344
  727MOL0     C95884   5.584   2.210   4.641 -0.0016  0.5003 -0.1455
  727MOL0     C95885   5.516   2.273   4.748  0.1503  0.4181  0.2278
  727MOL0     C95886   5.458   2.436   5.187  0.3209 -0.2677  0.6213
  727MOL0     C95887   5.449   2.428   5.326  0.4118 -0.7007 -0.2705
  727MOL0     C95888   5.362   2.520   5.397  0.5503  0.3924  0.7046
  727MOL0     C95889   5.295   2.621   5.314 -1.0790 -0.5562 -0.6804
  727MOL0     O95890   5.218   2.716   5.372  1.5288 -0.2973  0.8742
  727MOL0     C95891   5.079   2.687   5.388  0.3616  0.6037  0.6915
  727MOL0     C95892   5.004   2.824   5.405  0.1726  0.5064  0.1987
  727MOL0     C95893   4.857   2.810   5.377 -0.5615 -0.0164  0.3769
  727MOL0     C95894   4.788   2.708   5.471 -0.8391 -0.7509 -0.6052
  727MOL0     C95895   4.650   2.733   5.485  0.1177 -0.0227 -0.2397
  727MOL0     C95896   4.529   2.760   5.488 -0.4865  0.2551 -0.1152
  727MOL0     C95897   5.315   2.635   5.175  0.4548 -0.0236 -0.5705
  727MOL0     C95898   5.400   2.546   5.117  0.9655 -0.5884 -0.0837
  727MOL0     H95899   5.664   2.110   5.009 -2.0356  0.2870 -0.0866
  727MOL0     H95900   5.802   2.019   4.818  1.2644  1.4086 -0.7341
  727MOL0     H95901   5.884   2.244   4.529  0.4269 -0.6918 -0.1045
  727MOL0     H95902   5.750   2.223   4.426  0.8350  0.0068 -1.5875
  727MOL0     H95903   5.948   2.178   4.290 -0.1282 -1.4402 -2.1511
  727MOL0     H95904   5.873   2.028   4.322  1.6754  0.1687 -2.1982
  727MOL0     H95905   6.044   1.996   4.508 -0.1661  0.5907 -0.8110
  727MOL0     H95906   6.106   2.161   4.470 -0.7824  0.8327  0.9211
  727MOL0     H95907   6.076   1.897   4.302 -2.4436  0.1791  4.0952
  727MOL0     H95908   6.192   2.028   4.250  4.8529 -1.6460  1.4207
  727MOL0     H95909   6.231   1.857   4.498  0.2364 -1.6136 -0.9587
  727MOL0     H95910   6.325   1.994   4.455 -0.9616  1.0731  0.5733
  727MOL0     H95911   6.289   1.752   4.250  0.1318  0.1375 -0.1706
  727MOL0     H95912   6.409   1.746   4.369 -0.3328 -0.8227  0.1679
  727MOL0     H95913   6.486   1.794   4.150  0.3543 -0.7171 -0.1519
  727MOL0     H95914   6.377   1.931   4.139  2.1092 -0.6429 -1.9169
  727MOL0     H95915   6.569   1.985   4.364  0.3962  0.4944  0.4046
  727MOL0     H95916   6.527   2.089   4.241 -0.0909  0.0646  1.2012
  727MOL0     H95917   6.727   1.740   4.260  2.9889  0.6403  1.5637
  727MOL0     H95918   6.980   1.714   3.998 -0.0620  0.6443 -0.1757
  727MOL0     H95919   6.938   1.648   4.156 -0.9081 -2.6201 -4.6145
  727MOL0     H95920   7.083   1.832   4.275  4.8563  1.1914  1.0018
  727MOL0     H95921   7.146   1.848   4.104  0.5416 -1.9891 -0.5332
  727MOL0     H95922   7.149   1.565   4.219 -2.5244  1.6904  1.3091
  727MOL0     H95923   7.243   1.652   4.100 -2.6435  1.2259 -1.6881
  727MOL0     H95924   7.255   1.748   4.377 -0.8635 -2.0289  0.3676
  727MOL0     H95925   7.359   1.774   4.237  1.5051  0.9987  2.0014
  727MOL0     H95926   7.433   1.379   4.479 -0.1477  0.0482  2.8529
  727MOL0     H95927   7.632   1.364   4.627  1.0052 -0.2100 -0.3106
  727MOL0     H95928   7.970   1.637   4.897 -0.7514  0.5829 -1.1042
  727MOL0     H95929   8.168   1.557   5.021 -0.5453  0.6921 -0.5328
  727MOL0     H95930   8.511   1.483   4.777  2.1286 -0.8757 -0.8609
  727MOL0     H95931   8.517   1.315   4.827 -1.5593 -1.6248  0.7593
  727MOL0     H95932   8.633   1.563   4.969 -3.4749  0.2647 -2.6044
  727MOL0     H95933   8.720   1.437   4.891  2.0280 -0.5897  4.4153
  727MOL0     H95934   8.705   1.273   5.037  0.6628  2.4995 -3.3278
  727MOL0     H95935   8.569   1.351   5.125 -0.0768 -1.0924 -0.0423
  727MOL0     H95936   8.848   1.469   5.097 -0.2754 -3.2199 -0.6410
  727MOL0     H95937   8.724   1.509   5.229  0.4787  0.4795 -0.1719
  727MOL0     H95938   8.877   1.251   5.204 -0.6819 -1.5602 -1.2599
  727MOL0     H95939   8.747   1.273   5.320  1.6622 -0.1119  0.4868
  727MOL0     H95940   8.847   1.459   5.421  2.3905 -0.7558  3.5774
  727MOL0     H95941   8.988   1.436   5.313  1.2579 -2.2750 -0.7322
  727MOL0     H95942   8.901   1.214   5.498  0.3508  0.7552  1.3938
  727MOL0     H95943   9.060   1.238   5.430  0.3964  0.2974  0.4253
  727MOL0     H95944   8.926   1.418   5.629 -0.0468 -2.4592  2.3328
  727MOL0     H95945   9.089   1.441   5.564 -0.0361 -1.5106 -2.7354
  727MOL0     H95946   8.331   1.402   4.648  2.4105  0.4909  2.7984
  727MOL0     H95947   8.128   1.485   4.532  0.7654 -1.1317  0.6022
  727MOL0     H95948   7.725   1.775   4.545  2.1683 -0.5754 -1.8777
  727MOL0     H95949   7.536   1.797   4.407 -1.8285  1.1941  5.0011
  727MOL0     H95950   5.560   2.224   4.536 -0.8350  0.1784 -0.0103
  727MOL0     H95951   5.425   2.330   4.730  0.0690  0.9079  2.0309
  727MOL0     H95952   5.490   2.345   5.383 -0.1151 -1.6162 -1.1952
  727MOL0     H95953   5.346   2.523   5.504 -0.7690 -0.0765  0.5336
  727MOL0     H95954   5.053   2.626   5.475  1.0460 -3.0705 -1.4740
  727MOL0     H95955   5.031   2.639   5.302 -1.5824  1.1063  1.4350
  727MOL0     H95956   5.024   2.856   5.507  2.0508 -0.2890  0.1222
  727MOL0     H95957   5.042   2.899   5.334  1.2011  0.0722  0.2650
  727MOL0     H95958   4.831   2.798   5.272  1.9513  0.4954 -0.3748
  727MOL0     H95959   4.811   2.907   5.395 -0.0413  0.8424 -2.4293
  727MOL0     H95960   4.786   2.608   5.426 -0.4824 -0.3512 -1.5463
  727MOL0     H95961   4.824   2.701   5.574 -0.4660  1.3611 -0.5500
  727MOL0     H95962   4.426   2.787   5.487 -0.9730 -0.8466 -5.2084
  727MOL0     H95963   5.269   2.703   5.104  0.3034 -0.0540 -0.5014
  727MOL0     H95964   5.425   2.558   5.012  0.5520 -0.9517 -0.2258
  728MOL0     O95965   1.320   9.518   0.467 -1.2358  0.0471  0.0065
  728MOL0     C95966   1.332   9.468   0.353 -0.8557  0.0070  0.3547
  728MOL0     O95967   1.362   9.531   0.237  0.4180 -0.0426  0.2178
  728MOL0     C95968   1.337   9.671   0.228 -0.3347 -0.9965 -0.4143
  728MOL0     C95969   1.239   9.740   0.297  0.5261 -0.2665 -0.2083
  728MOL0     C95970   1.213   9.881   0.276  0.0202  0.7362 -0.3432
  728MOL0     C95971   1.292   9.947   0.180  1.0569  0.0056  0.0837
  728MOL0     O95972   1.281  10.076   0.157 -0.5836 -0.4633  0.3655
  728MOL0     C95973   1.256  10.134   0.028  0.7773 -0.7199  0.0998
  728MOL0     C95974   1.239  10.294   0.039 -0.4992  0.0737 -0.8135
  728MOL0     C95975   1.106  10.325   0.114  0.6517  0.9924  0.4956
  728MOL0     C95976   1.090  10.470   0.163  0.2410  0.0065  0.6635
  728MOL0     C95977   1.106  10.567   0.048 -0.7148 -0.5491  0.1312
  728MOL0     C95978   0.982  10.559  -0.042  0.1086  0.1954 -0.6754
  728MOL0     C95979   0.996  10.657  -0.161  0.6569 -0.0823  0.0812
  728MOL0     C95980   1.070  10.594  -0.278 -0.0205  0.3378  0.0313
  728MOL0     N95981   1.062  10.680  -0.397 -0.0171 -0.0663  0.1983
  728MOL0     C95982   0.972  10.667  -0.502  0.2551  0.3550  0.3988
  728MOL0     C95983   0.996  10.773  -0.583 -0.8983 -0.0359 -0.1478
  728MOL0     C95984   0.926  10.799  -0.711  0.0477 -0.1087 -0.6879
  728MOL0     C95985   0.799  10.883  -0.680  0.1480 -0.6118 -0.4521
  728MOL0     C95986   0.702  10.903  -0.793  0.5311  0.2098 -0.0106
  728MOL0     C95987   0.563  10.930  -0.750  0.1300 -0.3727 -0.4191
  728MOL0     O95988   0.467  10.871  -0.837  0.8421 -0.1285 -0.1192
  728MOL0     C95989   0.443  10.735  -0.820  0.0676 -0.1484  1.1909
  728MOL0     C95990   0.308  10.692  -0.854 -0.1327  0.4731  0.4837
  728MOL0     C95991   0.256  10.564  -0.822 -1.2245 -0.5744  0.6427
  728MOL0     C95992   0.346  10.466  -0.768  0.3122  0.0765  0.4063
  728MOL0     C95993   0.290  10.332  -0.733 -0.8449  0.5754  0.0371
  728MOL0     O95994   0.153  10.312  -0.769 -0.3654 -1.0077  0.1192
  728MOL0     C95995   0.089  10.204  -0.723 -0.3014  0.7181  0.4891
  728MOL0     C95996   0.122  10.102  -0.633 -0.5253 -0.6609 -0.0257
  728MOL0     C95997   0.038   9.995  -0.609 -0.3878  0.0396  0.0031
  728MOL0     C95998  -0.093   9.994  -0.662 -0.7635  0.0564 -0.6257
  728MOL0     O95999  -0.179   9.900  -0.633  0.4171  0.6459  0.5289
  728MOL0     C96000  -0.156   9.841  -0.503  1.1660  0.5041  0.1995
  728MOL0     C96001  -0.297   9.782  -0.474  0.1130  0.0729 -0.0710
  728MOL0     C96002  -0.290   9.718  -0.337  0.0194 -0.0528 -1.6961
  728MOL0     C96003  -0.431   9.655  -0.294  0.5709  0.4323  0.2766
  728MOL0     C96004  -0.424   9.599  -0.148  0.0142 -0.8348  0.4297
  728MOL0     C96005  -0.536   9.521  -0.107  0.7678 -0.3893 -0.0760
  728MOL0     C96006  -0.522   9.443   0.028  0.2618 -0.0939  0.2672
  728MOL0     C96007  -0.631   9.334   0.029 -0.0672  0.1560  0.5977
  728MOL0    Cl96008  -0.791   9.416   0.026  0.0813 -0.5095  0.0840
  728MOL0     C96009  -0.122  10.097  -0.750  0.0629  0.1993 -0.5878
  728MOL0     C96010  -0.037  10.197  -0.781  0.3239 -0.2545  0.2614
  728MOL0     O96011   0.372  10.245  -0.697  0.3996  0.8996  0.0684
  728MOL0     C96012   0.481  10.503  -0.737 -0.3078  0.1143 -1.0470
  728MOL0     C96013   0.526  10.630  -0.760  0.6889  0.5634 -0.5032
  728MOL0     N96014   1.096  10.856  -0.529 -0.2693 -0.0562 -0.2157
  728MOL0     N96015   1.139  10.791  -0.429  0.7315  0.2702  0.5613
  728MOL0     C96016   1.390   9.871   0.105  0.9403  0.5765 -0.0406
  728MOL0     C96017   1.422   9.737   0.137 -0.5667  0.1837 -0.9041
  728MOL0     C96018   1.321   9.323   0.347  0.7783 -0.4675  0.7712
  728MOL0     C96019   1.333   9.237   0.463  0.5085 -1.1705  0.4448
  728MOL0     C96020   1.307   9.098   0.459 -0.3050 -0.3300 -1.1474
  728MOL0     C96021   1.285   9.039   0.333 -0.1420  1.1293 -0.4342
  728MOL0     O96022   1.280   8.903   0.335  1.0103  1.2960 -0.0200
  728MOL0     C96023   1.308   8.821   0.215 -0.4538  0.1224  0.7379
  728MOL0     C96024   1.348   8.677   0.258 -0.5759 -0.4010  0.7578
  728MOL0     C96025   1.326   8.584   0.130  0.7407  0.7709 -0.4000
  728MOL0     C96026   1.424   8.465   0.151  0.7475  0.6527  0.3835
  728MOL0     C96027   1.451   8.405   0.016  0.3174 -0.3392  0.1380
  728MOL0     C96028   1.506   8.362  -0.078  0.4924  0.4558  0.1257
  728MOL0     C96029   1.278   9.118   0.216 -0.1522  0.4130  0.6093
  728MOL0     C96030   1.288   9.258   0.229 -0.1775  0.1031  0.0798
  728MOL0     H96031   1.175   9.685   0.365  1.3035  0.9156  1.5732
  728MOL0     H96032   1.134   9.931   0.331 -0.8293  0.2188 -1.0667
  728MOL0     H96033   1.168  10.081  -0.010  0.1586  0.5317 -0.2849
  728MOL0     H96034   1.340  10.116  -0.040  0.9289  1.9201 -0.5049
  728MOL0     H96035   1.241  10.343  -0.059 -1.0282  1.6348 -0.0923
  728MOL0     H96036   1.326  10.321   0.099 -0.6761 -0.3713 -0.3516
  728MOL0     H96037   1.086  10.259   0.199  0.5143  5.0109  3.9198
  728MOL0     H96038   1.032  10.311   0.035 -0.4335 -1.8625  1.8751
  728MOL0     H96039   0.990  10.482   0.207  0.6636  3.3971  0.9791
  728MOL0     H96040   1.169  10.497   0.234  0.2422 -2.1193  1.5269
  728MOL0     H96041   1.204  10.567   0.000  1.1533  1.4372  3.6127
  728MOL0     H96042   1.114  10.667   0.089  1.3092 -1.3381  1.7974
  728MOL0     H96043   0.894  10.592   0.013  1.2860 -0.1035  1.4905
  728MOL0     H96044   0.966  10.463  -0.091 -1.4305  1.0416 -1.9392
  728MOL0     H96045   0.897  10.684  -0.199  1.5451  1.2858 -1.3907
  728MOL0     H96046   1.048  10.749  -0.132  2.3313 -1.3691  1.3543
  728MOL0     H96047   1.016  10.505  -0.308  3.2388 -1.5633 -0.6300
  728MOL0     H96048   1.173  10.569  -0.252 -0.9839 -3.9042  0.4237
  728MOL0     H96049   0.892  10.595  -0.512  0.5451  0.0850  0.0184
  728MOL0     H96050   0.915  10.701  -0.758  0.3965 -0.4786 -0.0117
  728MOL0     H96051   0.987  10.863  -0.776  2.7352 -0.7604  1.0137
  728MOL0     H96052   0.830  10.978  -0.635 -2.9870 -0.5772  2.0452
  728MOL0     H96053   0.750  10.832  -0.596 -2.7960  0.2196 -1.5187
  728MOL0     H96054   0.733  10.980  -0.864 -1.5178  0.2610 -0.9364
  728MOL0     H96055   0.710  10.807  -0.844  0.6460  0.8935 -1.3468
  728MOL0     H96056   0.550  11.037  -0.772  1.2687  0.2200  1.5953
  728MOL0     H96057   0.542  10.904  -0.647 -0.7943 -3.0627 -1.2147
  728MOL0     H96058   0.251  10.769  -0.906 -0.1647  0.0925 -0.0505
  728MOL0     H96059   0.156  10.539  -0.855 -1.0979 -3.3318  2.0549
  728MOL0     H96060   0.221  10.092  -0.589 -0.6831  3.2589  1.6359
  728MOL0     H96061   0.080   9.919  -0.545  2.4238  1.6350  0.2257
  728MOL0     H96062  -0.130   9.910  -0.422  2.0213 -0.6506  0.9501
  728MOL0     H96063  -0.079   9.763  -0.502  0.3420 -0.3299  1.3542
  728MOL0     H96064  -0.329   9.710  -0.550  0.5104  1.5124 -1.6586
  728MOL0     H96065  -0.381   9.852  -0.478 -1.5589 -1.8597 -1.6800
  728MOL0     H96066  -0.268   9.791  -0.258 -2.5203 -0.7894 -0.1648
  728MOL0     H96067  -0.211   9.642  -0.333 -0.7186 -1.1540  5.6326
  728MOL0     H96068  -0.514   9.725  -0.309 -0.2448 -0.9310 -2.2489
  728MOL0     H96069  -0.444   9.567  -0.358 -1.0152 -2.3354  4.0648
  728MOL0     H96070  -0.405   9.689  -0.088  0.2407  1.1503 -2.4373
  728MOL0     H96071  -0.332   9.540  -0.153  1.4757  1.4105 -0.4063
  728MOL0     H96072  -0.553   9.453  -0.191  1.2474  0.6179 -1.0090
  728MOL0     H96073  -0.623   9.587  -0.101 -1.0700 -2.7794  1.3751
  728MOL0     H96074  -0.419   9.414   0.047  0.1393  0.1282  1.3488
  728MOL0     H96075  -0.531   9.512   0.113  0.4456 -1.1524  1.1692
  728MOL0     H96076  -0.624   9.265   0.114  2.5708  0.6041  0.8422
  728MOL0     H96077  -0.611   9.286  -0.067  4.8148  0.8101  1.0316
  728MOL0     H96078  -0.222  10.099  -0.794 -0.9848 -0.5217  1.5822
  728MOL0     H96079  -0.067  10.274  -0.851  0.9251 -1.7069 -1.6799
  728MOL0     H96080   0.549  10.425  -0.702  2.4810  2.7764 -0.0936
  728MOL0     H96081   0.632  10.642  -0.738  0.1531  2.2197  1.4518
  728MOL0     H96082   1.448   9.904   0.019  0.0000  2.8341  0.1280
  728MOL0     H96083   1.490   9.684   0.072  2.8321  1.1412  1.5993
  728MOL0     H96084   1.347   9.286   0.559  0.2037 -1.5669  0.6933
  728MOL0     H96085   1.315   9.028   0.542 -1.8623 -0.1399 -0.8003
  728MOL0     H96086   1.390   8.862   0.155  1.1669 -0.7786  2.2522
  728MOL0     H96087   1.217   8.814   0.155 -0.6536  2.5887  0.6611
  728MOL0     H96088   1.456   8.676   0.274  0.3914  0.0070 -4.0779
  728MOL0     H96089   1.291   8.657   0.349 -0.0138 -0.4377  1.1124
  728MOL0     H96090   1.353   8.649   0.045 -1.3776  2.2246 -0.0380
  728MOL0     H96091   1.229   8.534   0.127  0.7467  0.4436  2.3739
  728MOL0     H96092   1.517   8.492   0.201 -0.6257 -0.4127  3.8345
  728MOL0     H96093   1.361   8.404   0.217 -0.6216  2.9611  1.3175
  728MOL0     H96094   1.559   8.322  -0.161  1.3851 -0.4106  1.0861
  728MOL0     H96095   1.263   9.087   0.113  0.2032  2.6688 -0.1862
  728MOL0     H96096   1.286   9.320   0.140  0.3339  0.5288  0.3574
  729MOL0     O96097   3.919   7.132   7.163  0.3090 -0.1467 -0.4394
  729MOL0     C96098   3.870   7.030   7.197  0.5427 -0.9442  0.0826
  729MOL0     O96099   3.933   6.912   7.229 -0.1237  0.4461 -0.1762
  729MOL0     C96100   4.052   6.876   7.170 -0.1181 -0.4926 -0.1590
  729MOL0     C96101   4.089   6.745   7.202 -0.2013 -0.5384  0.4597
  729MOL0     C96102   4.212   6.688   7.165 -0.2653 -0.1244  0.8688
  729MOL0     C96103   4.291   6.764   7.071 -0.4083 -0.5092 -0.7513
  729MOL0     O96104   4.410   6.705   7.045  0.3959 -0.2240 -0.2561
  729MOL0     C96105   4.489   6.749   6.931  0.1542 -0.1566 -0.2709
  729MOL0     C96106   4.417   6.714   6.799 -0.1842 -0.1885  0.0201
  729MOL0     C96107   4.489   6.764   6.667 -0.2763 -0.1637  0.3658
  729MOL0     C96108   4.644   6.762   6.675 -0.0997  0.2341  0.5847
  729MOL0     C96109   4.696   6.834   6.555 -0.6340  0.1113 -0.2482
  729MOL0     C96110   4.700   6.742   6.429 -0.2988 -0.2677  0.1594
  729MOL0     C96111   4.776   6.825   6.322 -0.1755  1.5961  0.1228
  729MOL0     C96112   4.782   6.749   6.187 -1.4306  0.5483  0.6786
  729MOL0     N96113   4.855   6.620   6.202 -0.2986 -0.3890  0.3846
  729MOL0     C96114   4.801   6.499   6.238 -0.5796  0.3376 -0.0738
  729MOL0     C96115   4.907   6.412   6.233  0.5070  0.5384  0.4218
  729MOL0     C96116   4.890   6.270   6.265 -0.0536  1.3773  0.3624
  729MOL0     C96117   4.950   6.238   6.400  0.5865  0.0051  0.2783
  729MOL0     C96118   4.851   6.273   6.515 -0.7857  0.0887  0.9082
  729MOL0     C96119   4.756   6.151   6.550  0.0259 -0.6696 -0.0269
  729MOL0     O96120   4.657   6.134   6.454  0.2243 -0.2639  0.3655
  729MOL0     C96121   4.572   6.023   6.468 -0.7768  0.2582 -0.0431
  729MOL0     C96122   4.450   6.024   6.406 -0.3187 -0.4788 -0.4665
  729MOL0     C96123   4.359   5.916   6.402 -0.4080 -0.4560  0.3832
  729MOL0     C96124   4.398   5.798   6.478 -0.1040 -0.0466  0.0090
  729MOL0     C96125   4.315   5.681   6.489  0.8531  0.3873 -0.4654
  729MOL0     O96126   4.213   5.674   6.399  0.8820 -0.4872  0.5184
  729MOL0     C96127   4.139   5.559   6.369 -0.2183  0.0190 -1.5276
  729MOL0     C96128   4.000   5.559   6.396 -0.8179 -0.8296  0.1482
  729MOL0     C96129   3.925   5.447   6.361 -0.2821  0.1324 -0.7324
  729MOL0     C96130   3.987   5.326   6.324  0.2061 -0.0416 -0.3711
  729MOL0     O96131   3.917   5.209   6.289  0.1180  0.1487 -0.7444
  729MOL0     C96132   3.837   5.214   6.175 -0.4071  0.1228 -0.7905
  729MOL0     C96133   3.748   5.095   6.161 -0.5777 -0.2041  0.1917
  729MOL0     C96134   3.663   5.047   6.272 -0.5373  0.3331 -0.1109
  729MOL0     C96135   3.542   5.138   6.305  0.3500  0.0855 -0.4547
  729MOL0     C96136   3.470   5.088   6.422 -0.1985 -0.0203 -0.9808
  729MOL0     C96137   3.382   4.968   6.388 -0.3464  0.1213 -0.0774
  729MOL0     C96138   3.311   4.911   6.513 -0.5416 -0.3512 -0.3968
  729MOL0     C96139   3.200   4.818   6.466 -0.2745 -0.4346 -0.1615
  729MOL0    Cl96140   3.082   4.767   6.601  0.3136  0.1269 -0.2448
  729MOL0     C96141   4.129   5.322   6.314 -1.2171  0.2776 -0.4222
  729MOL0     C96142   4.203   5.442   6.332  0.0671  1.0237  0.0021
  729MOL0     O96143   4.353   5.585   6.562  0.1951 -0.3669 -0.7043
  729MOL0     C96144   4.513   5.809   6.559  0.5398  0.2934 -0.4802
  729MOL0     C96145   4.595   5.918   6.554 -0.6393 -0.5563 -0.6480
  729MOL0     N96146   5.015   6.483   6.189 -0.6734  0.5682  0.6310
  729MOL0     N96147   4.986   6.601   6.177 -0.0120  0.3088 -0.3529
  729MOL0     C96148   4.244   6.884   7.023 -0.2141  1.0268 -0.1804
  729MOL0     C96149   4.125   6.936   7.069 -0.9354  0.4084  0.4881
  729MOL0     C96150   3.722   7.024   7.211  0.2338  0.8162 -0.8761
  729MOL0     C96151   3.639   7.128   7.181  0.0275  0.6905  0.9955
  729MOL0     C96152   3.505   7.125   7.216  0.0597 -0.5771  0.3946
  729MOL0     C96153   3.451   7.020   7.300  0.3358 -0.1123  0.2884
  729MOL0     O96154   3.313   7.016   7.323 -0.2864 -0.5258 -0.0452
  729MOL0     C96155   3.263   6.949   7.438  0.9216  0.0101  0.4110
  729MOL0     C96156   3.231   6.801   7.403 -0.1417  0.3013 -0.5189
  729MOL0     C96157   3.106   6.735   7.468  0.9453 -0.0474 -0.0875
  729MOL0     C96158   3.078   6.590   7.422  0.8890 -0.7880  0.3366
  729MOL0     C96159   3.189   6.502   7.459 -0.4474 -0.0182 -0.1092
  729MOL0     C96160   3.291   6.441   7.494  0.1211  0.3461  0.1637
  729MOL0     C96161   3.542   6.926   7.339  0.3332  1.2018  0.0709
  729MOL0     C96162   3.672   6.915   7.286 -0.3619  0.0574 -0.8855
  729MOL0     H96163   4.028   6.673   7.255 -2.5105  2.6097  2.4403
  729MOL0     H96164   4.245   6.597   7.214 -1.5288 -1.4598 -0.6926
  729MOL0     H96165   4.586   6.697   6.936  0.2124  0.0765  2.5089
  729MOL0     H96166   4.497   6.858   6.939  1.0480 -0.2540  0.3892
  729MOL0     H96167   4.313   6.747   6.793  0.4340  1.8206 -0.2555
  729MOL0     H96168   4.421   6.605   6.794  1.4206 -0.2095  0.8894
  729MOL0     H96169   4.462   6.867   6.641  3.4208  0.7252 -0.5968
  729MOL0     H96170   4.459   6.700   6.584  2.3351 -2.8682  1.3407
  729MOL0     H96171   4.669   6.824   6.762 -0.1186 -0.6037  1.1997
  729MOL0     H96172   4.682   6.659   6.684  1.4889  0.8234  0.9166
  729MOL0     H96173   4.794   6.877   6.576  0.1404 -1.0870 -1.3144
  729MOL0     H96174   4.629   6.920   6.541 -0.5620  0.6638  2.2108
  729MOL0     H96175   4.602   6.714   6.389 -0.3680 -1.6228  1.2013
  729MOL0     H96176   4.763   6.655   6.450 -1.0654 -0.6930  0.7700
  729MOL0     H96177   4.735   6.924   6.301  3.6015  2.8188 -2.3844
  729MOL0     H96178   4.878   6.834   6.359 -1.0527  0.2071  3.2923
  729MOL0     H96179   4.828   6.813   6.112  2.8721 -0.7267  1.9389
  729MOL0     H96180   4.679   6.727   6.155 -1.2894  3.4346 -2.2932
  729MOL0     H96181   4.698   6.469   6.259 -0.1757 -1.3018 -0.2532
  729MOL0     H96182   4.947   6.210   6.193 -2.7516  0.5367 -1.2151
  729MOL0     H96183   4.791   6.224   6.260  0.7745 -0.4185 -3.2912
  729MOL0     H96184   5.031   6.309   6.413  0.8265  0.5067 -3.1605
  729MOL0     H96185   4.978   6.133   6.411  1.1707 -0.2112 -2.4773
  729MOL0     H96186   4.906   6.290   6.607  0.6982 -0.4163  0.1355
  729MOL0     H96187   4.800   6.361   6.475 -2.6600 -2.3556 -2.7338
  729MOL0     H96188   4.704   6.174   6.643 -0.0617 -0.7196 -0.0641
  729MOL0     H96189   4.807   6.055   6.567  2.3527  0.2749 -1.1492
  729MOL0     H96190   4.425   6.103   6.336 -1.9797  0.2045  0.8417
  729MOL0     H96191   4.281   5.941   6.331  2.1315  1.9874 -1.8115
  729MOL0     H96192   3.957   5.649   6.439 -0.5012 -0.6731  0.1401
  729MOL0     H96193   3.819   5.446   6.384 -0.1517  3.3768  0.4321
  729MOL0     H96194   3.904   5.220   6.089 -0.7412 -0.4418 -1.1015
  729MOL0     H96195   3.788   5.311   6.171  0.6394  0.7494  0.6502
  729MOL0     H96196   3.804   5.008   6.125  1.1342  0.2541  1.6086
  729MOL0     H96197   3.674   5.110   6.082  0.7640  3.0652 -0.5901
  729MOL0     H96198   3.729   5.053   6.359 -0.8263 -0.5897  0.1883
  729MOL0     H96199   3.629   4.944   6.258 -0.9705  0.2690  1.2645
  729MOL0     H96200   3.576   5.236   6.339  0.5908 -0.3612  0.6214
  729MOL0     H96201   3.470   5.162   6.226 -0.2239  0.4614  0.1790
  729MOL0     H96202   3.402   5.163   6.465 -0.1845 -1.7571  2.3643
  729MOL0     H96203   3.545   5.065   6.498 -0.5340 -2.5454 -1.3247
  729MOL0     H96204   3.426   4.892   6.323 -1.6602  0.9903 -2.0861
  729MOL0     H96205   3.303   5.008   6.324 -1.4744 -0.3186  1.0081
  729MOL0     H96206   3.381   4.862   6.581 -2.7251 -2.0418  0.7434
  729MOL0     H96207   3.275   5.000   6.566 -0.1285 -0.1258 -0.4850
  729MOL0     H96208   3.255   4.732   6.426  1.0076 -1.1022  2.7962
  729MOL0     H96209   3.147   4.863   6.382 -0.9046 -0.9566 -0.0485
  729MOL0     H96210   4.176   5.227   6.291  0.0732  0.7490  0.1714
  729MOL0     H96211   4.312   5.439   6.325 -0.0699 -0.7946 -2.4165
  729MOL0     H96212   4.540   5.721   6.617  1.1075  0.7417 -0.0601
  729MOL0     H96213   4.674   5.911   6.628  0.1726 -3.7463 -1.7006
  729MOL0     H96214   4.305   6.935   6.950  0.6315  1.2412  0.6577
  729MOL0     H96215   4.100   7.034   7.029 -2.5674 -0.4453 -0.7035
  729MOL0     H96216   3.692   7.202   7.123  2.6831 -1.5681  0.2834
  729MOL0     H96217   3.438   7.190   7.161  1.7647  2.0523  1.2336
  729MOL0     H96218   3.166   6.995   7.457 -0.8124 -3.5255  1.0229
  729MOL0     H96219   3.325   6.960   7.527 -0.3463  2.3054  1.0706
  729MOL0     H96220   3.217   6.808   7.295  4.4120  0.4771 -1.3294
  729MOL0     H96221   3.313   6.731   7.423 -0.0195  0.3253 -0.9165
  729MOL0     H96222   3.022   6.794   7.431  1.2969  0.2840 -0.3724
  729MOL0     H96223   3.112   6.743   7.577  0.1676 -2.2660  0.1576
  729MOL0     H96224   2.985   6.541   7.451  0.7733 -1.1252 -0.5594
  729MOL0     H96225   3.080   6.604   7.313  1.3169  3.2145  0.7276
  729MOL0     H96226   3.379   6.393   7.532  0.4568  1.0278  0.2580
  729MOL0     H96227   3.522   6.833   7.392 -1.8306  0.7325 -1.4406
  729MOL0     H96228   3.737   6.831   7.311 -1.2879 -1.6660 -3.7610
  730MOL0     O96229   6.322   8.153   9.601 -0.2022  0.5276  0.3678
  730MOL0     C96230   6.235   8.227   9.554  0.3326  0.7334 -0.2499
  730MOL0     O96231   6.168   8.205   9.432  0.1428  0.0257  0.3665
  730MOL0     C96232   6.193   8.090   9.374  0.5584  1.0615  1.5494
  730MOL0     C96233   6.213   8.081   9.233 -0.9165  0.1007  0.1778
  730MOL0     C96234   6.209   7.958   9.172  0.2448  0.1044  0.7336
  730MOL0     C96235   6.209   7.835   9.244 -1.0081  0.0905  1.0781
  730MOL0     O96236   6.227   7.707   9.193 -0.5031 -0.1019  0.1180
  730MOL0     C96237   6.313   7.686   9.077  0.5478  0.0004  0.2779
  730MOL0     C96238   6.312   7.532   9.043 -0.4259  0.4847 -0.9768
  730MOL0     C96239   6.434   7.464   9.102  0.4680  0.0023  1.4358
  730MOL0     C96240   6.445   7.325   9.044 -0.1510 -0.3292 -0.1005
  730MOL0     C96241   6.322   7.228   9.083 -0.1418 -1.4361  0.2504
  730MOL0     C96242   6.314   7.095   9.006 -0.4079  0.2458  0.0818
  730MOL0     C96243   6.213   6.993   9.040  0.1687 -0.5161  0.1935
  730MOL0     C96244   6.062   7.023   8.997 -0.4314 -0.3167  0.3417
  730MOL0     N96245   6.002   7.135   9.079 -0.1386 -0.4056 -0.6223
  730MOL0     C96246   6.010   7.155   9.217 -0.0839 -0.1621  0.9777
  730MOL0     C96247   5.956   7.268   9.248  0.6946  0.4129 -0.3461
  730MOL0     C96248   5.957   7.309   9.384 -1.1344 -0.0664  1.0130
  730MOL0     C96249   5.880   7.442   9.396 -0.8600 -0.9518  0.3835
  730MOL0     C96250   5.882   7.498   9.528  0.3813  0.1930  0.6650
  730MOL0     C96251   5.783   7.612   9.538  0.0133  0.0310 -0.3035
  730MOL0     O96252   5.728   7.593   9.668  0.3445 -0.4280  0.5245
  730MOL0     C96253   5.687   7.705   9.742  0.7297 -0.2917 -0.2767
  730MOL0     C96254   5.653   7.829   9.686 -0.7628 -0.0756  1.1821
  730MOL0     C96255   5.629   7.937   9.760 -0.2635  0.7064 -0.2294
  730MOL0     C96256   5.614   7.919   9.905  0.4044  0.4296  0.0208
  730MOL0     C96257   5.574   8.034   9.993 -0.5869 -0.5418  0.4592
  730MOL0     O96258   5.558   8.003  10.124  0.1753  1.1173  0.5410
  730MOL0     C96259   5.545   8.090  10.223  0.3566  0.3571 -1.1564
  730MOL0     C96260   5.481   8.050  10.346 -1.0815  0.0140 -1.5043
  730MOL0     C96261   5.485   8.151  10.451  0.1757 -0.1311 -0.4280
  730MOL0     C96262   5.522   8.283  10.438 -1.0683 -0.0535 -0.2820
  730MOL0     O96263   5.524   8.376  10.534  1.1954 -0.9892 -0.9430
  730MOL0     C96264   5.400   8.399  10.604  0.1528  0.2700  0.0026
  730MOL0     C96265   5.417   8.459  10.747  0.9016  0.0876 -0.0464
  730MOL0     C96266   5.516   8.574  10.754 -0.3635  0.1206 -0.4799
  730MOL0     C96267   5.516   8.653  10.883 -0.2170  0.1780 -0.3993
  730MOL0     C96268   5.614   8.775  10.890  0.1444  0.3627  0.4039
  730MOL0     C96269   5.589   8.889  10.997 -0.0022 -0.2035  0.3382
  730MOL0     C96270   5.458   8.963  10.981  0.1016 -0.0095  0.9197
  730MOL0     C96271   5.474   9.077  10.881  0.0517  0.0578  0.3983
  730MOL0    Cl96272   5.564   9.208  10.965  0.3675 -0.0016 -0.3195
  730MOL0     C96273   5.578   8.317  10.312 -0.6218 -0.7211 -0.0756
  730MOL0     C96274   5.596   8.224  10.209 -0.0534  0.2472 -0.3857
  730MOL0     O96275   5.575   8.141   9.940 -0.5604 -0.2879 -0.9346
  730MOL0     C96276   5.644   7.790   9.963 -0.4986  1.0830 -0.0862
  730MOL0     C96277   5.691   7.687   9.880 -0.8062  0.7019  0.4156
  730MOL0     N96278   5.925   7.320   9.126  0.2496  0.1147 -1.0715
  730MOL0     N96279   5.939   7.238   9.025  0.0533 -0.0733 -0.4272
  730MOL0     C96280   6.196   7.845   9.381 -0.3511 -0.8694 -0.0541
  730MOL0     C96281   6.181   7.971   9.442  0.0318  0.0969 -0.0657
  730MOL0     C96282   6.190   8.336   9.644 -0.6355  1.0079  0.0446
  730MOL0     C96283   6.271   8.367   9.760 -0.3317 -0.3011  0.0396
  730MOL0     C96284   6.216   8.454   9.859  0.1997  0.3743 -0.6506
  730MOL0     C96285   6.099   8.526   9.835  0.2578 -0.0410  0.1663
  730MOL0     O96286   6.055   8.621   9.926  0.1941  0.3010  0.2898
  730MOL0     C96287   5.916   8.618   9.963  0.0588 -0.2954 -0.0694
  730MOL0     C96288   5.919   8.683  10.107 -0.3471  0.2989  0.7599
  730MOL0     C96289   5.772   8.679  10.150 -0.0233 -0.6037 -0.7935
  730MOL0     C96290   5.756   8.694  10.302  0.2800  0.0308 -0.2797
  730MOL0     C96291   5.811   8.595  10.384 -0.4541 -0.0107 -0.2225
  730MOL0     C96292   5.864   8.513  10.460  0.9781  0.2196 -0.1116
  730MOL0     C96293   6.033   8.506   9.718 -0.5416  0.0052  0.3634
  730MOL0     C96294   6.074   8.410   9.624 -0.0839 -0.4322  0.8835
  730MOL0     H96295   6.219   8.169   9.169 -0.3310 -1.0044 -1.3356
  730MOL0     H96296   6.207   7.955   9.064 -0.3971  0.1833  0.7391
  730MOL0     H96297   6.413   7.725   9.096  0.9808 -0.1172 -1.6445
  730MOL0     H96298   6.289   7.738   8.984  1.5847 -0.7805 -0.4443
  730MOL0     H96299   6.317   7.520   8.935 -1.2616 -0.0122 -0.9720
  730MOL0     H96300   6.219   7.485   9.076 -1.2382  2.1930 -0.6911
  730MOL0     H96301   6.431   7.459   9.212  1.7081 -0.6694  1.4616
  730MOL0     H96302   6.531   7.512   9.088  0.3728  0.2857  1.7396
  730MOL0     H96303   6.454   7.331   8.935 -0.2988  3.4503 -0.0142
  730MOL0     H96304   6.538   7.291   9.092 -0.4128  3.7566  3.9584
  730MOL0     H96305   6.224   7.267   9.056 -1.4497 -3.7525  1.3825
  730MOL0     H96306   6.332   7.198   9.188  1.0718 -0.7074  0.3736
  730MOL0     H96307   6.411   7.049   9.027 -0.5984  0.4728  1.5185
  730MOL0     H96308   6.312   7.109   8.897 -1.2389 -2.1837 -0.2671
  730MOL0     H96309   6.242   6.902   8.987  3.0469  0.1617  0.4420
  730MOL0     H96310   6.213   6.973   9.147  0.5755 -0.1078  0.2771
  730MOL0     H96311   5.998   6.935   9.005 -1.1604  0.2122  0.4923
  730MOL0     H96312   6.060   7.053   8.891 -0.7652  0.7762  0.6371
  730MOL0     H96313   6.044   7.081   9.289 -1.0088 -2.2761 -0.6632
  730MOL0     H96314   6.059   7.312   9.423 -1.2412  0.5953  1.2574
  730MOL0     H96315   5.908   7.229   9.439 -2.4197  1.6304  2.4591
  730MOL0     H96316   5.779   7.413   9.366 -1.2619  0.4060  0.3603
  730MOL0     H96317   5.915   7.516   9.323 -1.4842  0.9754  1.9570
  730MOL0     H96318   5.855   7.415   9.594 -2.3901  0.7077  0.2783
  730MOL0     H96319   5.985   7.518   9.559  1.2833  1.4009 -2.7286
  730MOL0     H96320   5.709   7.620   9.458  2.8579  2.3320 -2.9756
  730MOL0     H96321   5.847   7.700   9.522  0.2257 -0.1581 -0.5064
  730MOL0     H96322   5.657   7.837   9.578  2.9095  0.8142  1.2546
  730MOL0     H96323   5.600   8.032   9.715  0.1164  1.3478  0.8636
  730MOL0     H96324   5.437   7.952  10.361 -2.7784  0.2528 -4.1382
  730MOL0     H96325   5.450   8.122  10.550  1.3161  1.3490  0.4461
  730MOL0     H96326   5.346   8.305  10.610 -0.0707  0.4356  0.6230
  730MOL0     H96327   5.343   8.472  10.545 -2.4843 -0.8918  0.9833
  730MOL0     H96328   5.451   8.373  10.806  0.2716  0.0689  0.3004
  730MOL0     H96329   5.323   8.494  10.791 -0.3729  0.1734 -2.6703
  730MOL0     H96330   5.481   8.645  10.680 -2.1457 -0.2987 -0.0735
  730MOL0     H96331   5.612   8.532  10.721 -0.3119 -0.8592  0.8291
  730MOL0     H96332   5.419   8.699  10.903 -0.6177 -0.0042 -1.8245
  730MOL0     H96333   5.545   8.578  10.958 -1.2468 -2.5996 -2.6168
  730MOL0     H96334   5.614   8.814  10.788 -0.3337  1.1312  0.6857
  730MOL0     H96335   5.708   8.727  10.919  0.0601  1.4640  2.7261
  730MOL0     H96336   5.670   8.963  10.993 -0.8927  0.7437 -1.1960
  730MOL0     H96337   5.577   8.839  11.093  1.7421  0.5327  0.9729
  730MOL0     H96338   5.371   8.908  10.945  0.6551 -0.2375 -0.1043
  730MOL0     H96339   5.417   9.005  11.074  1.7087 -0.1025  1.7183
  730MOL0     H96340   5.370   9.099  10.857  0.2612 -1.1660 -1.9361
  730MOL0     H96341   5.531   9.052  10.791  0.6462 -0.2839  0.8651
  730MOL0     H96342   5.615   8.414  10.281  0.0445 -0.4395  1.5418
  730MOL0     H96343   5.674   8.251  10.138  1.5461 -1.7306  0.5216
  730MOL0     H96344   5.650   7.767  10.069  1.7685 -0.7682 -0.5399
  730MOL0     H96345   5.720   7.592   9.922 -2.4342  0.3313  0.7768
  730MOL0     H96346   6.171   7.757   9.440 -1.4755  0.7694  2.0391
  730MOL0     H96347   6.151   7.963   9.546  0.3809 -4.4501 -0.1148
  730MOL0     H96348   6.368   8.319   9.768 -1.3961 -2.4040  1.4134
  730MOL0     H96349   6.260   8.478   9.955  0.4396  2.1065 -1.1674
  730MOL0     H96350   5.874   8.518   9.978  1.8116 -1.0989 -0.1940
  730MOL0     H96351   5.843   8.668   9.900 -0.6975 -2.8366 -1.3315
  730MOL0     H96352   5.980   8.624  10.176  0.4686  0.6554  0.3470
  730MOL0     H96353   5.968   8.780  10.111  1.4273 -0.4078 -1.5602
  730MOL0     H96354   5.718   8.585  10.133  1.4836 -1.2486 -2.3475
  730MOL0     H96355   5.716   8.761  10.104  0.3003 -1.3270 -2.5662
  730MOL0     H96356   5.805   8.787  10.333  3.1428 -1.5456  0.1871
  730MOL0     H96357   5.652   8.708  10.333  0.8005 -0.7550  2.0271
  730MOL0     H96358   5.917   8.448  10.528  1.3340  1.6756  1.0655
  730MOL0     H96359   5.950   8.569   9.685  0.8976  2.5648  1.3158
  730MOL0     H96360   6.029   8.404   9.525  0.4626  4.2079  0.1147
  731MOL0     O96361   9.984   5.397   3.483  0.4242  0.1234 -0.3315
  731MOL0     C96362   9.980   5.510   3.447 -0.9530  0.7099  0.8894
  731MOL0     O96363   9.997   5.553   3.316  0.5251 -0.6398  0.1361
  731MOL0     C96364   9.997   5.473   3.206  0.6657  0.3055  0.7070
  731MOL0     C96365   9.997   5.335   3.199  0.5710 -1.2413  0.4304
  731MOL0     C96366   9.976   5.275   3.077 -0.1511  0.4779 -1.2458
  731MOL0     C96367   9.946   5.344   2.965  0.7594 -0.0367 -0.4750
  731MOL0     O96368   9.901   5.257   2.871  0.1846 -0.0307  0.0232
  731MOL0     C96369   9.871   5.310   2.749 -0.5897 -0.1837 -0.8009
  731MOL0     C96370   9.728   5.382   2.749 -0.7931 -0.0790 -0.1626
  731MOL0     C96371   9.625   5.289   2.677  0.3816 -0.1064 -1.4254
  731MOL0     C96372   9.491   5.360   2.661 -0.1726  0.1309 -0.8886
  731MOL0     C96373   9.377   5.264   2.619 -0.4688 -0.2154  0.7226
  731MOL0     C96374   9.398   5.195   2.484 -0.4158 -0.3864 -0.5709
  731MOL0     C96375   9.365   5.284   2.370 -0.6530  0.1402  0.3988
  731MOL0     C96376   9.412   5.216   2.236  0.5390  0.2925  0.6363
  731MOL0     N96377   9.348   5.096   2.185  0.0113  0.2433  0.2266
  731MOL0     C96378   9.262   5.080   2.080 -0.3767 -0.0015 -0.4178
  731MOL0     C96379   9.245   4.950   2.076  0.6135 -1.0164 -1.5362
  731MOL0     C96380   9.148   4.876   2.002  0.3284  0.3295  0.4197
  731MOL0     C96381   9.050   4.959   1.922  0.2684 -0.6178 -0.1700
  731MOL0     C96382   8.998   4.872   1.809 -0.9410  0.2397 -0.4486
  731MOL0     C96383   8.955   4.945   1.684 -0.3011 -0.2304  0.0814
  731MOL0     O96384   8.893   4.839   1.605 -0.3648 -0.6038 -0.1532
  731MOL0     C96385   8.773   4.872   1.539 -0.3592  0.0548  0.4247
  731MOL0     C96386   8.746   5.000   1.496  0.0339 -0.0141  0.1721
  731MOL0     C96387   8.635   5.031   1.422  0.3565  0.3566 -0.2501
  731MOL0     C96388   8.532   4.937   1.393  0.7365 -0.3029 -0.0316
  731MOL0     C96389   8.412   4.985   1.315 -0.1484 -0.2283  0.1971
  731MOL0     O96390   8.303   4.928   1.345  0.5195 -0.6261 -0.2441
  731MOL0     C96391   8.190   4.978   1.273 -0.1320 -0.4373 -1.2899
  731MOL0     C96392   8.149   4.906   1.157  0.1503  1.2306 -0.8786
  731MOL0     C96393   8.025   4.946   1.090 -1.6435  0.5496  0.0535
  731MOL0     C96394   7.945   5.054   1.128  0.0214  1.2024 -0.6439
  731MOL0     O96395   7.828   5.062   1.066  0.0363 -0.4218 -0.5280
  731MOL0     C96396   7.732   5.156   1.120 -0.2734  0.9668  0.2201
  731MOL0     C96397   7.743   5.295   1.048 -0.3862  0.3368 -0.5749
  731MOL0     C96398   7.622   5.395   1.072 -0.2260  0.6772 -0.4397
  731MOL0     C96399   7.481   5.330   1.076  0.7707  0.6922  0.1506
  731MOL0     C96400   7.433   5.271   0.945  0.2909  0.4136  0.7423
  731MOL0     C96401   7.295   5.205   0.948  0.3906  0.9215  0.8053
  731MOL0     C96402   7.188   5.309   0.982  0.2682  0.5433 -0.0918
  731MOL0     C96403   7.038   5.271   0.938  0.6782 -0.0779  0.4804
  731MOL0    Cl96404   6.939   5.412   0.983 -0.0757 -0.1281  0.1667
  731MOL0     C96405   7.993   5.133   1.232 -1.3868  0.3619 -0.2622
  731MOL0     C96406   8.116   5.093   1.311 -0.0654  0.0938  0.8949
  731MOL0     O96407   8.426   5.084   1.237  0.3855 -0.1300  0.1009
  731MOL0     C96408   8.550   4.808   1.447  0.6853  0.7430 -0.2354
  731MOL0     C96409   8.671   4.772   1.514 -0.5033 -0.3435 -0.5336
  731MOL0     N96410   9.307   4.887   2.181  0.2985  0.5911 -0.9887
  731MOL0     N96411   9.378   4.972   2.236 -0.5275 -0.0467 -0.0140
  731MOL0     C96412   9.959   5.486   2.968 -0.4371  1.0035 -0.7302
  731MOL0     C96413   9.978   5.549   3.090  0.8261  0.1695  0.8885
  731MOL0     C96414   9.962   5.620   3.540  0.1591  0.0907 -0.0933
  731MOL0     C96415   9.918   5.748   3.500 -0.4628  0.3170  0.4569
  731MOL0     C96416   9.879   5.841   3.588  0.2293  1.2416  0.3405
  731MOL0     C96417   9.884   5.818   3.725 -1.3301 -1.2978 -0.0498
  731MOL0     O96418   9.825   5.916   3.803  0.0088  0.1315  0.3942
  731MOL0     C96419   9.921   5.987   3.882  0.1520  0.2727 -0.2445
  731MOL0     C96420   9.866   6.119   3.916  0.1418  0.3102 -0.0141
  731MOL0     C96421   9.878   6.215   3.798  0.6106 -1.0475 -0.5632
  731MOL0     C96422   9.959   6.329   3.853 -0.8208 -0.9727 -0.3437
  731MOL0     C96423   9.881   6.421   3.942  0.1761  0.6457 -0.2710
  731MOL0     C96424   9.824   6.476   4.044 -0.1728  0.8506  0.3044
  731MOL0     C96425   9.919   5.688   3.776 -0.1109 -1.0654 -0.4715
  731MOL0     C96426   9.958   5.588   3.680  0.2060 -0.5176  0.3069
  731MOL0     H96427  10.022   5.271   3.283  3.2739 -2.6700 -1.2996
  731MOL0     H96428   9.991   5.168   3.081  0.2403  0.5548 -0.3999
  731MOL0     H96429   9.864   5.228   2.677 -1.3136 -0.5294 -0.3560
  731MOL0     H96430   9.954   5.368   2.708 -1.4205  0.1833 -2.0448
  731MOL0     H96431   9.737   5.482   2.706 -0.3454 -0.5577 -1.2333
  731MOL0     H96432   9.691   5.389   2.851  2.5858 -0.8149  1.2576
  731MOL0     H96433   9.629   5.192   2.728  1.6308 -0.6703 -2.5461
  731MOL0     H96434   9.664   5.253   2.582 -0.2436 -1.9918 -1.0187
  731MOL0     H96435   9.466   5.409   2.755  1.4092 -2.1948  0.8775
  731MOL0     H96436   9.495   5.445   2.591 -1.9648  2.3189  1.4983
  731MOL0     H96437   9.279   5.310   2.634 -2.0015 -2.0962 -2.4152
  731MOL0     H96438   9.377   5.180   2.689  0.6082 -1.0301 -0.2180
  731MOL0     H96439   9.338   5.103   2.481 -0.7676 -0.2127  0.7251
  731MOL0     H96440   9.499   5.156   2.465 -0.4790  0.1115 -2.0347
  731MOL0     H96441   9.257   5.301   2.364 -0.5237  0.4501 -2.9842
  731MOL0     H96442   9.404   5.386   2.381  1.0408 -0.4116 -0.2632
  731MOL0     H96443   9.520   5.196   2.237  1.1520  2.6096 -2.6145
  731MOL0     H96444   9.400   5.293   2.159  3.2082 -2.3553 -2.8158
  731MOL0     H96445   9.209   5.163   2.034 -1.8759  0.5840  2.1459
  731MOL0     H96446   9.091   4.810   2.069  1.3477 -0.2729  0.7180
  731MOL0     H96447   9.207   4.802   1.947  1.1664  1.9910 -1.0204
  731MOL0     H96448   9.091   5.053   1.884 -1.5645  1.0963  1.7875
  731MOL0     H96449   8.966   4.988   1.987  1.8532  0.0502  1.6765
  731MOL0     H96450   9.062   4.785   1.790 -1.2964 -0.4714  1.3485
  731MOL0     H96451   8.909   4.824   1.850 -0.1772 -0.9982 -0.1833
  731MOL0     H96452   9.036   4.995   1.631 -0.6730 -1.6302 -1.9312
  731MOL0     H96453   8.878   5.015   1.717 -1.7832 -1.8437  0.2424
  731MOL0     H96454   8.823   5.076   1.507 -2.3648  2.2351  2.8443
  731MOL0     H96455   8.634   5.137   1.396  0.2107  0.1298 -1.2021
  731MOL0     H96456   8.207   4.818   1.131 -2.4792 -0.6910 -0.5547
  731MOL0     H96457   7.996   4.874   1.014 -1.2279 -2.0700  2.2296
  731MOL0     H96458   7.745   5.170   1.228  0.5126  1.0262  0.1178
  731MOL0     H96459   7.629   5.121   1.106 -0.0489  0.4449 -0.1175
  731MOL0     H96460   7.741   5.281   0.940 -1.8867  2.7811 -0.9441
  731MOL0     H96461   7.843   5.332   1.071  0.1700 -0.4604 -1.6244
  731MOL0     H96462   7.629   5.473   0.995  1.7933  1.2845  0.3231
  731MOL0     H96463   7.621   5.447   1.168 -1.4890 -1.5248  0.8285
  731MOL0     H96464   7.478   5.258   1.158  0.2299  1.4612  0.8220
  731MOL0     H96465   7.409   5.407   1.105 -2.3265 -0.7278 -3.0054
  731MOL0     H96466   7.503   5.196   0.906 -0.9418 -0.2517 -0.2482
  731MOL0     H96467   7.420   5.345   0.865 -3.4881  0.5137  1.2561
  731MOL0     H96468   7.290   5.115   1.010 -2.8356 -0.8041 -1.6528
  731MOL0     H96469   7.271   5.171   0.846  1.1959  0.2352  0.8263
  731MOL0     H96470   7.190   5.319   1.090  0.6305 -3.2026  0.3942
  731MOL0     H96471   7.202   5.411   0.947  0.9518  0.9894  1.4131
  731MOL0     H96472   6.996   5.188   0.996  1.1469 -1.3725 -0.9750
  731MOL0     H96473   7.017   5.258   0.832 -1.0377  6.8526 -0.5525
  731MOL0     H96474   7.950   5.230   1.253 -3.1617 -0.7325  1.5495
  731MOL0     H96475   8.165   5.151   1.389 -0.6990  0.2361  1.1954
  731MOL0     H96476   8.477   4.732   1.422 -0.9097  1.9707  0.4417
  731MOL0     H96477   8.704   4.672   1.543 -0.1175 -0.5036 -1.4916
  731MOL0     H96478   9.937   5.538   2.875  0.0113 -0.6900 -1.8172
  731MOL0     H96479   9.963   5.656   3.097 -1.6799 -0.1097  0.7734
  731MOL0     H96480   9.905   5.773   3.395  0.3510  0.0380  0.2835
  731MOL0     H96481   9.846   5.933   3.540 -0.3629  1.1507  0.5624
  731MOL0     H96482  10.012   6.004   3.825 -0.1298 -1.0852 -1.1403
  731MOL0     H96483   9.931   5.929   3.975 -2.4406  0.9331  0.5325
  731MOL0     H96484   9.760   6.119   3.944  0.2631  2.5336  0.5893
  731MOL0     H96485   9.913   6.162   4.005 -0.0405 -0.2788  0.3757
  731MOL0     H96486   9.785   6.247   3.752  1.2535  0.6679 -0.7314
  731MOL0     H96487   9.944   6.186   3.716  0.4904  0.6688 -1.2978
  731MOL0     H96488  10.049   6.291   3.902  0.4152  2.0633 -0.0776
  731MOL0     H96489   9.986   6.393   3.768  0.6127 -1.1330 -0.0427
  731MOL0     H96490   9.793   6.547   4.118 -3.2424  3.5693 -3.2047
  731MOL0     H96491   9.897   5.674   3.881  1.7044  0.4030  0.1502
  731MOL0     H96492   9.965   5.489   3.723 -3.2355 -0.7376  0.6162
  732MOL0     O96493   1.131   5.678   8.281  0.3849 -0.4417  0.2258
  732MOL0     C96494   1.213   5.594   8.312  0.8363 -0.5309 -0.0493
  732MOL0     O96495   1.191   5.464   8.332 -0.6791  0.9215  0.3137
  732MOL0     C96496   1.081   5.422   8.405  0.0296 -1.1397  0.5732
  732MOL0     C96497   0.955   5.481   8.421 -1.3029 -0.8818  0.1827
  732MOL0     C96498   0.862   5.428   8.496  0.1784 -0.1035 -0.2448
  732MOL0     C96499   0.877   5.293   8.541 -0.1102  0.2365  0.5680
  732MOL0     O96500   0.772   5.239   8.598 -0.1332 -0.7124 -0.0134
  732MOL0     C96501   0.712   5.126   8.529  0.0537  0.6851  0.2638
  732MOL0     C96502   0.587   5.076   8.609  0.6513 -0.2255  0.7020
  732MOL0     C96503   0.471   5.176   8.603  0.2434 -0.5027 -0.1338
  732MOL0     C96504   0.380   5.166   8.727 -0.1745  0.6428 -0.3571
  732MOL0     C96505   0.242   5.239   8.705  0.0793  0.8220  0.4904
  732MOL0     C96506   0.140   5.186   8.799 -0.2073  0.3983 -0.0711
  732MOL0     C96507   0.005   5.249   8.758  0.3885  0.4150 -0.4798
  732MOL0     C96508  -0.023   5.380   8.838  0.9138 -0.1145  0.2263
  732MOL0     N96509  -0.143   5.448   8.794 -0.0901  0.8501  0.7229
  732MOL0     C96510  -0.149   5.524   8.677 -1.5034  0.9014 -0.9558
  732MOL0     C96511  -0.269   5.586   8.689  0.1987 -1.1187  0.3165
  732MOL0     C96512  -0.334   5.686   8.596  0.4863 -0.4983  0.4592
  732MOL0     C96513  -0.477   5.643   8.571  0.6166  0.5870 -1.2001
  732MOL0     C96514  -0.540   5.714   8.448 -0.2660  0.5289 -0.7289
  732MOL0     C96515  -0.689   5.753   8.478  0.0176 -0.0917  0.2576
  732MOL0     O96516  -0.751   5.766   8.351  0.7145  0.6903  0.1789
  732MOL0     C96517  -0.882   5.811   8.349  0.1522  0.4312 -0.2581
  732MOL0     C96518  -0.956   5.835   8.468  0.0237  0.1681  0.6178
  732MOL0     C96519  -1.090   5.867   8.456  0.2076  0.4715 -0.4930
  732MOL0     C96520  -1.142   5.887   8.328 -0.3178 -0.2073  0.0602
  732MOL0     C96521  -1.291   5.872   8.323  0.2194 -0.5268  0.4945
  732MOL0     O96522  -1.356   5.859   8.440 -0.2646 -0.1499  0.4015
  732MOL0     C96523  -1.494   5.879   8.453 -0.8765  1.0765 -0.0892
  732MOL0     C96524  -1.571   5.766   8.409 -0.4661  0.9200  0.3201
  732MOL0     C96525  -1.716   5.780   8.414 -0.1630 -0.8462  0.6208
  732MOL0     C96526  -1.783   5.900   8.466 -0.6839  0.9562  0.1021
  732MOL0     O96527  -1.914   5.898   8.464  0.3595  0.2453  0.9201
  732MOL0     C96528  -1.973   6.017   8.498  0.2764 -0.1314 -0.5852
  732MOL0     C96529  -2.122   6.006   8.497 -0.2185 -0.0795 -0.2014
  732MOL0     C96530  -2.173   5.985   8.350  0.6910 -0.0250 -0.4506
  732MOL0     C96531  -2.313   6.033   8.329  0.0590 -0.1175  0.9213
  732MOL0     C96532  -2.370   5.993   8.199  0.5989 -0.0103  0.7742
  732MOL0     C96533  -2.364   5.841   8.172  0.1099  0.3389  0.1244
  732MOL0     C96534  -2.464   5.799   8.054  0.6044 -0.0198 -0.0378
  732MOL0     C96535  -2.571   5.696   8.079 -0.3082  0.8136 -0.6650
  732MOL0    Cl96536  -2.628   5.627   7.925  0.2146  0.0710  0.2173
  732MOL0     C96537  -1.694   6.002   8.518  0.0833 -0.2648  0.1537
  732MOL0     C96538  -1.551   5.991   8.516 -0.0332 -0.1003  0.8512
  732MOL0     O96539  -1.345   5.888   8.215  0.2600 -0.1051 -0.4000
  732MOL0     C96540  -1.059   5.871   8.220 -0.2164 -0.3741  0.7062
  732MOL0     C96541  -0.932   5.834   8.229 -0.2464  0.0772 -0.0463
  732MOL0     N96542  -0.327   5.558   8.809 -0.0843 -0.2667  0.8680
  732MOL0     N96543  -0.256   5.469   8.866 -0.0061  0.9234  0.1378
  732MOL0     C96544   1.002   5.229   8.520 -0.4481 -0.0284 -0.2564
  732MOL0     C96545   1.097   5.291   8.441 -0.4508 -0.1242  0.0527
  732MOL0     C96546   1.355   5.632   8.327 -0.3184 -0.0758  0.9442
  732MOL0     C96547   1.392   5.768   8.298 -0.8029 -0.0834 -0.0519
  732MOL0     C96548   1.530   5.797   8.297 -0.0316  0.5926 -0.8703
  732MOL0     C96549   1.624   5.701   8.305 -0.6003  0.4901  0.5169
  732MOL0     O96550   1.745   5.749   8.273 -0.2755 -0.4755  1.1519
  732MOL0     C96551   1.852   5.723   8.360 -0.4497 -0.7670  0.7105
  732MOL0     C96552   1.990   5.699   8.293 -0.0978  0.4619 -0.4349
  732MOL0     C96553   2.094   5.684   8.411 -0.6574  0.2182  0.3172
  732MOL0     C96554   2.113   5.530   8.448 -0.0324  0.1836  0.8876
  732MOL0     C96555   2.179   5.449   8.341  0.9195 -0.8536 -0.0926
  732MOL0     C96556   2.227   5.373   8.260 -0.0058 -0.3567  0.3149
  732MOL0     C96557   1.594   5.578   8.330  0.6565  0.5621 -0.5729
  732MOL0     C96558   1.460   5.539   8.356 -0.0778 -0.6241  0.0741
  732MOL0     H96559   0.937   5.584   8.388  0.4828  0.0529  1.9400
  732MOL0     H96560   0.763   5.460   8.526  0.1254  0.0172 -0.5469
  732MOL0     H96561   0.775   5.036   8.524 -2.5153 -1.1779 -1.2050
  732MOL0     H96562   0.684   5.157   8.428 -6.7633 -3.3497  0.3281
  732MOL0     H96563   0.623   5.076   8.712  4.0872  2.5970 -0.2766
  732MOL0     H96564   0.560   4.982   8.559  0.7330 -0.6056  1.3685
  732MOL0     H96565   0.429   5.159   8.503  0.1811 -3.3492  0.3081
  732MOL0     H96566   0.516   5.276   8.606  1.1121 -0.7509 -2.3839
  732MOL0     H96567   0.379   5.057   8.733 -0.2244  0.6188 -0.8390
  732MOL0     H96568   0.427   5.219   8.811 -1.6388  4.4839 -1.7604
  732MOL0     H96569   0.221   5.216   8.600 -2.6499  1.8439  0.7300
  732MOL0     H96570   0.252   5.347   8.711 -1.3045  0.9069  1.7994
  732MOL0     H96571   0.181   5.217   8.895  0.3158 -1.3411  0.3031
  732MOL0     H96572   0.142   5.076   8.800  1.3599  0.3235 -2.5340
  732MOL0     H96573  -0.004   5.277   8.653 -1.9330  1.9318  0.0606
  732MOL0     H96574  -0.082   5.185   8.773  0.2407  0.9868  1.3399
  732MOL0     H96575   0.056   5.455   8.828 -1.6009  2.6698 -0.4077
  732MOL0     H96576  -0.039   5.363   8.945  1.9178 -1.7120  0.1473
  732MOL0     H96577  -0.084   5.523   8.591  0.0663 -1.3736  0.1640
  732MOL0     H96578  -0.279   5.676   8.503 -0.6891 -1.2274 -0.1834
  732MOL0     H96579  -0.349   5.788   8.633 -1.4868 -0.7633  0.5049
  732MOL0     H96580  -0.524   5.658   8.668  2.1586 -1.2258 -0.1043
  732MOL0     H96581  -0.482   5.534   8.559 -0.1833  0.3988  0.5506
  732MOL0     H96582  -0.493   5.807   8.413  0.2315  0.4078 -0.3997
  732MOL0     H96583  -0.545   5.640   8.367 -0.3943  3.1887 -3.3527
  732MOL0     H96584  -0.696   5.851   8.527  0.7548  1.2511 -2.1704
  732MOL0     H96585  -0.742   5.673   8.531 -4.1717  1.4257 -1.2187
  732MOL0     H96586  -0.915   5.822   8.567  2.0031  0.0962 -0.1609
  732MOL0     H96587  -1.141   5.867   8.552  0.6283 -1.2457 -0.2407
  732MOL0     H96588  -1.528   5.681   8.358 -0.6938  1.2156 -0.3770
  732MOL0     H96589  -1.791   5.717   8.367 -2.2225  2.8109 -1.5105
  732MOL0     H96590  -1.944   6.100   8.433 -1.9237  0.4171 -0.9263
  732MOL0     H96591  -1.954   6.044   8.602 -5.4208 -2.8379  1.5490
  732MOL0     H96592  -2.163   6.095   8.544 -0.5652 -1.6194  2.6447
  732MOL0     H96593  -2.158   5.920   8.554 -5.5038  1.6537 -0.4326
  732MOL0     H96594  -2.153   5.882   8.318 -0.2169  0.5755 -3.2432
  732MOL0     H96595  -2.116   6.047   8.280 -1.2088 -0.3589 -2.3796
  732MOL0     H96596  -2.382   6.004   8.409 -0.6411 -2.0396 -0.3145
  732MOL0     H96597  -2.317   6.142   8.325  3.0404  0.0651  0.2807
  732MOL0     H96598  -2.322   6.043   8.115 -3.4714 -1.3925 -2.7364
  732MOL0     H96599  -2.470   6.036   8.192  0.5021 -0.4939 -2.5495
  732MOL0     H96600  -2.397   5.785   8.260  1.4553  0.7710  0.9359
  732MOL0     H96601  -2.257   5.826   8.156  0.0151  1.6647 -2.2894
  732MOL0     H96602  -2.507   5.890   8.011  0.3045 -0.2704 -0.2716
  732MOL0     H96603  -2.395   5.775   7.973  1.2059  2.3273 -0.2930
  732MOL0     H96604  -2.654   5.740   8.136 -2.1013 -1.5209 -1.3036
  732MOL0     H96605  -2.536   5.610   8.136  1.7941  0.7952 -1.8999
  732MOL0     H96606  -1.734   6.092   8.563 -2.6057 -2.3700  2.3219
  732MOL0     H96607  -1.480   6.063   8.556 -1.2831  1.1197  0.9752
  732MOL0     H96608  -1.109   5.856   8.125 -0.4748  1.1348  0.5820
  732MOL0     H96609  -0.864   5.846   8.145 -0.2272  1.1733  0.1043
  732MOL0     H96610   1.007   5.121   8.533 -2.1934 -0.1356 -0.1789
  732MOL0     H96611   1.187   5.238   8.411  0.6032  1.6507 -0.0923
  732MOL0     H96612   1.326   5.854   8.287 -0.4821 -0.0716 -2.4442
  732MOL0     H96613   1.566   5.896   8.271 -0.3273  1.3626  1.4020
  732MOL0     H96614   1.833   5.633   8.419 -1.5195 -1.0980 -0.1102
  732MOL0     H96615   1.857   5.807   8.430  0.0960 -0.0580 -0.1708
  732MOL0     H96616   1.984   5.608   8.234 -1.1345 -0.7997  1.5150
  732MOL0     H96617   2.027   5.782   8.232  1.4796 -1.0668 -1.6550
  732MOL0     H96618   2.049   5.735   8.496  0.9542 -0.1774  1.4588
  732MOL0     H96619   2.191   5.726   8.381 -0.1531 -1.9295 -1.3350
  732MOL0     H96620   2.172   5.516   8.539 -1.7518  2.4343  2.4556
  732MOL0     H96621   2.012   5.492   8.468  1.4228 -3.4348  1.9796
  732MOL0     H96622   2.270   5.312   8.183  0.2450 -0.9456  0.9164
  732MOL0     H96623   1.671   5.502   8.324 -0.5774 -0.6309 -3.8033
  732MOL0     H96624   1.450   5.432   8.373  1.5819 -0.9369 -0.7664
  733MOL0     O96625   8.539  10.746   4.102 -0.1290 -0.5553  0.6036
  733MOL0     C96626   8.450  10.788   4.023 -0.2091  0.7402  0.5420
  733MOL0     O96627   8.466  10.894   3.935  0.1724  0.9091 -0.4483
  733MOL0     C96628   8.590  10.956   3.927  1.1049  1.3093  0.2467
  733MOL0     C96629   8.622  11.018   3.801 -0.4787  0.3712 -0.7998
  733MOL0     C96630   8.746  11.077   3.772 -0.5877 -0.5831 -0.1974
  733MOL0     C96631   8.834  11.092   3.883 -0.5424  0.8971  0.6353
  733MOL0     O96632   8.950  11.155   3.884 -0.3521 -1.4405 -0.4615
  733MOL0     C96633   9.006  11.200   3.764 -0.5253  0.3148  0.9233
  733MOL0     C96634   9.158  11.225   3.779 -0.5759  0.3802 -0.5824
  733MOL0     C96635   9.231  11.291   3.662  0.2174  0.2905  0.8734
  733MOL0     C96636   9.365  11.330   3.713  0.6082  0.1841 -0.1914
  733MOL0     C96637   9.465  11.387   3.606  0.7688 -0.1722  0.3683
  733MOL0     C96638   9.526  11.267   3.526 -0.5962 -0.2680  0.2433
  733MOL0     C96639   9.678  11.250   3.565 -0.4143 -0.1884 -0.0958
  733MOL0     C96640   9.760  11.369   3.519  0.8970 -0.4907 -0.3914
  733MOL0     N96641   9.889  11.367   3.582 -0.1948  0.2594 -0.0052
  733MOL0     C96642   9.910  11.429   3.699  0.1369 -1.1725  0.1913
  733MOL0     C96643  10.031  11.388   3.740 -0.5021  0.0218  0.2132
  733MOL0     C96644  10.089  11.426   3.876  0.3246  0.3199  0.5120
  733MOL0     C96645  10.116  11.315   3.974 -0.5014  0.5383  1.5131
  733MOL0     C96646  10.004  11.207   3.973 -0.2506  0.0242 -0.2922
  733MOL0     C96647  10.005  11.127   4.101 -0.0166 -0.0976 -0.0985
  733MOL0     O96648   9.905  11.029   4.102  0.3818  0.0185 -0.2340
  733MOL0     C96649   9.872  10.954   4.215 -0.7878 -0.4253  0.2456
  733MOL0     C96650   9.757  10.874   4.203 -1.1404 -0.0067  0.2773
  733MOL0     C96651   9.712  10.791   4.310 -0.2333 -0.3764 -0.1680
  733MOL0     C96652   9.774  10.792   4.431  0.5365  0.7384 -0.2960
  733MOL0     C96653   9.723  10.723   4.551 -0.2230  0.3980  0.2824
  733MOL0     O96654   9.623  10.627   4.528  0.0192 -0.4864 -0.3500
  733MOL0     C96655   9.581  10.548   4.628  0.2928  0.5045 -0.3659
  733MOL0     C96656   9.468  10.576   4.701  0.4694 -0.4835  0.3710
  733MOL0     C96657   9.415  10.489   4.797  0.4695 -0.3220  0.3419
  733MOL0     C96658   9.479  10.371   4.839  0.7853 -0.6548 -0.0196
  733MOL0     O96659   9.438  10.281   4.932 -0.4202  0.4185  0.3763
  733MOL0     C96660   9.303  10.300   4.984  0.7555  0.4916  0.8779
  733MOL0     C96661   9.294  10.207   5.114 -0.0558 -0.1203  0.1740
  733MOL0     C96662   9.393  10.244   5.218  0.5575 -0.0262  0.0783
  733MOL0     C96663   9.376  10.166   5.341 -0.9268 -0.2045 -0.2717
  733MOL0     C96664   9.490  10.193   5.448  0.2591 -0.4703  0.3053
  733MOL0     C96665   9.501  10.340   5.502  0.8015 -0.5567 -0.0775
  733MOL0     C96666   9.376  10.387   5.573 -0.0749 -0.4404 -0.7405
  733MOL0     C96667   9.386  10.534   5.624  0.1246 -1.1036 -0.7294
  733MOL0    Cl96668   9.224  10.583   5.713 -0.0821  0.1727  0.0542
  733MOL0     C96669   9.587  10.333   4.758 -0.6523  0.1269 -0.2624
  733MOL0     C96670   9.638  10.422   4.660 -0.3267 -0.5867 -0.2827
  733MOL0     O96671   9.777  10.738   4.661 -0.1070  0.2748 -0.8835
  733MOL0     C96672   9.890  10.869   4.437  0.1908  0.1700 -0.2272
  733MOL0     C96673   9.944  10.943   4.329 -0.2764 -0.5267 -0.3355
  733MOL0     N96674  10.080  11.300   3.642 -0.2516 -0.2648 -0.7378
  733MOL0     N96675   9.994  11.301   3.546 -0.0541 -0.7013  0.1875
  733MOL0     C96676   8.796  11.048   4.004  0.4497 -0.2217 -0.1328
  733MOL0     C96677   8.675  10.980   4.027  0.2813 -0.0764 -0.3228
  733MOL0     C96678   8.316  10.726   4.019 -0.0246  0.6124  0.5651
  733MOL0     C96679   8.273  10.648   4.131  0.6328  0.1974 -0.0386
  733MOL0     C96680   8.146  10.598   4.141 -0.5970 -0.4639  0.3040
  733MOL0     C96681   8.048  10.633   4.051  0.7155 -0.4342  0.2272
  733MOL0     O96682   7.929  10.569   4.076  0.5908 -0.0839 -0.3325
  733MOL0     C96683   7.810  10.619   4.018  0.1800  0.1290  0.3466
  733MOL0     C96684   7.716  10.666   4.133 -0.2335  0.1561 -1.2380
  733MOL0     C96685   7.687  10.557   4.228  0.5883 -0.2984 -1.2136
  733MOL0     C96686   7.549  10.553   4.273  0.4051  0.0887  0.3806
  733MOL0     C96687   7.508  10.687   4.323 -0.7964  0.1219  0.5433
  733MOL0     C96688   7.472  10.800   4.351  0.2746 -0.2223 -0.3599
  733MOL0     C96689   8.082  10.739   3.955  1.3781  0.5238 -0.6411
  733MOL0     C96690   8.215  10.769   3.926 -0.3301  0.3135 -1.1193
  733MOL0     H96691   8.552  11.012   3.719 -3.0586 -1.0076  1.3443
  733MOL0     H96692   8.759  11.119   3.673 -2.3962 -4.0392 -2.1142
  733MOL0     H96693   8.960  11.294   3.730 -1.3955 -0.9102 -1.5383
  733MOL0     H96694   8.988  11.124   3.688 -1.7544  1.3954  0.0923
  733MOL0     H96695   9.197  11.126   3.803 -2.2490  0.2401  1.9799
  733MOL0     H96696   9.171  11.283   3.871 -3.6910 -0.3854  0.4865
  733MOL0     H96697   9.185  11.383   3.624  2.3545  1.0619 -0.0215
  733MOL0     H96698   9.238  11.219   3.580 -0.4135  0.2368  0.8657
  733MOL0     H96699   9.348  11.402   3.794 -1.2190 -2.4703  1.9842
  733MOL0     H96700   9.416  11.244   3.757  2.7915  1.2821 -0.4385
  733MOL0     H96701   9.544  11.438   3.660  0.8472  0.1303 -0.0259
  733MOL0     H96702   9.415  11.451   3.532 -0.4629 -0.9335  0.5037
  733MOL0     H96703   9.529  11.277   3.417  1.5154 -2.6783 -0.0052
  733MOL0     H96704   9.475  11.172   3.541  3.7049 -2.6524  1.4900
  733MOL0     H96705   9.690  11.247   3.674 -1.5218 -0.0720  0.0459
  733MOL0     H96706   9.719  11.161   3.516 -2.7398 -1.6126  0.3853
  733MOL0     H96707   9.707  11.465   3.523 -1.8914 -1.9552  1.9543
  733MOL0     H96708   9.763  11.349   3.411 -1.0457  0.7238 -0.7326
  733MOL0     H96709   9.835  11.485   3.754  0.7362 -1.3306  1.2057
  733MOL0     H96710  10.025  11.511   3.905 -1.3709  0.6824 -3.6154
  733MOL0     H96711  10.185  11.476   3.859  0.8535  0.9538  4.4348
  733MOL0     H96712  10.105  11.366   4.070  0.1747 -0.3168  2.0569
  733MOL0     H96713  10.217  11.275   3.959 -0.0518  1.8779  0.8667
  733MOL0     H96714   9.909  11.262   3.970  0.1779  1.3320  3.7925
  733MOL0     H96715  10.021  11.148   3.882  1.8668  3.4786 -2.3512
  733MOL0     H96716   9.998  11.198   4.183  0.9011  0.4102 -0.4355
  733MOL0     H96717  10.104  11.087   4.125  1.2241  3.3765  1.1224
  733MOL0     H96718   9.711  10.867   4.105 -1.6192 -2.4766  0.6034
  733MOL0     H96719   9.619  10.739   4.289  1.1765 -2.6432 -1.2502
  733MOL0     H96720   9.419  10.671   4.682  3.3040  1.1209  0.5414
  733MOL0     H96721   9.332  10.532   4.852  0.3997 -0.6501  0.4966
  733MOL0     H96722   9.224  10.284   4.911  0.8177 -2.5761  1.3428
  733MOL0     H96723   9.295  10.405   5.010 -1.5639  0.9013 -1.1025
  733MOL0     H96724   9.307  10.101   5.095 -0.8697 -0.7997  2.9501
  733MOL0     H96725   9.194  10.211   5.158  0.4453  0.4153  1.3214
  733MOL0     H96726   9.378  10.349   5.246 -0.5291  0.1292 -0.9840
  733MOL0     H96727   9.497  10.255   5.187  0.5113  2.4668  0.5865
  733MOL0     H96728   9.287  10.205   5.391 -0.9517  0.7768 -1.0356
  733MOL0     H96729   9.377  10.058   5.329  2.0405 -0.2082 -0.6329
  733MOL0     H96730   9.581  10.179   5.389  1.0053  1.3113  0.9684
  733MOL0     H96731   9.475  10.122   5.530 -0.3000  1.5457  2.0418
  733MOL0     H96732   9.534  10.405   5.421 -0.5534 -0.8348 -0.8857
  733MOL0     H96733   9.569  10.338   5.588 -2.1150 -1.9544  2.4436
  733MOL0     H96734   9.288  10.389   5.508  0.2584 -2.0429 -1.2871
  733MOL0     H96735   9.353  10.315   5.653  0.0883 -1.1965 -1.3643
  733MOL0     H96736   9.396  10.600   5.538 -0.7141  0.9219  0.6362
  733MOL0     H96737   9.466  10.552   5.697 -1.9627  1.4110  1.1294
  733MOL0     H96738   9.628  10.237   4.788 -3.2121  0.2156  4.5920
  733MOL0     H96739   9.735  10.392   4.621 -0.1928 -1.2897  0.5634
  733MOL0     H96740   9.932  10.872   4.537  1.5297 -2.5726 -0.6219
  733MOL0     H96741  10.036  10.997   4.351 -0.7642  0.9661 -1.7262
  733MOL0     H96742   8.862  11.073   4.087  2.1978 -0.8425 -1.2940
  733MOL0     H96743   8.671  10.948   4.131 -1.4520  2.0224  0.3312
  733MOL0     H96744   8.342  10.617   4.209  0.2076  0.5890  0.5011
  733MOL0     H96745   8.121  10.527   4.218  0.3496 -5.0663 -3.1858
  733MOL0     H96746   7.769  10.540   3.954 -0.1276  0.6160 -0.0607
  733MOL0     H96747   7.824  10.711   3.962 -2.6700  0.1585 -0.5009
  733MOL0     H96748   7.769  10.744   4.188  1.2131 -1.1294 -0.7453
  733MOL0     H96749   7.632  10.720   4.087  0.5681  1.1012 -1.6330
  733MOL0     H96750   7.762  10.558   4.309  1.5322  1.5403 -2.0423
  733MOL0     H96751   7.710  10.461   4.180  0.8802  0.1687 -2.0200
  733MOL0     H96752   7.483  10.532   4.188  2.2499  1.6960 -1.5759
  733MOL0     H96753   7.538  10.482   4.355 -1.5456  3.4848  3.4128
  733MOL0     H96754   7.436  10.895   4.385 -0.3276 -0.7317  0.4608
  733MOL0     H96755   8.006  10.781   3.889  2.6549  0.6110 -2.1088
  733MOL0     H96756   8.250  10.837   3.850  1.6204  0.5527 -0.0976
  734MOL0     O96757  10.226   9.017   3.821 -0.5695  0.1047  0.0449
  734MOL0     C96758  10.206   8.895   3.844 -0.6543 -0.6779  0.1232
  734MOL0     O96759  10.205   8.838   3.962 -0.8028  1.4327 -0.5293
  734MOL0     C96760  10.232   8.900   4.078 -0.2846 -1.2025  0.3786
  734MOL0     C96761  10.144   8.874   4.179  0.5181  0.4972 -0.7343
  734MOL0     C96762  10.153   8.947   4.300 -0.4553  0.6112 -0.0559
  734MOL0     C96763  10.255   9.040   4.319 -0.0403  0.2085 -0.7174
  734MOL0     O96764  10.273   9.096   4.441  1.0450 -0.3041  0.0662
  734MOL0     C96765  10.180   9.084   4.554 -0.3646 -0.6718 -0.3578
  734MOL0     C96766  10.236   9.170   4.666  0.1828  0.3927 -1.3084
  734MOL0     C96767  10.258   9.323   4.624 -0.9254 -0.2394  0.0219
  734MOL0     C96768  10.318   9.398   4.735  0.6624 -0.0594  0.2019
  734MOL0     C96769  10.341   9.551   4.724 -1.3168  0.1363  0.4302
  734MOL0     C96770  10.406   9.602   4.850 -0.6482 -0.5692 -0.1908
  734MOL0     C96771  10.408   9.755   4.865  0.2823 -0.1386  0.4443
  734MOL0     C96772  10.515   9.793   4.972  0.0385 -0.8131 -0.3716
  734MOL0     N96773  10.501   9.935   5.012 -0.0632 -0.3296  0.9368
  734MOL0     C96774  10.435   9.971   5.129  0.5813 -0.7447  0.4528
  734MOL0     C96775  10.454  10.113   5.131 -0.0088 -0.0958  0.1105
  734MOL0     C96776  10.394  10.206   5.229 -0.0646  0.0766  1.0322
  734MOL0     C96777  10.261  10.257   5.156 -0.3800  0.4999  0.0333
  734MOL0     C96778  10.161  10.325   5.238 -0.2273 -0.5801 -0.1490
  734MOL0     C96779  10.222  10.446   5.306 -0.5584 -0.8975  0.0328
  734MOL0     O96780  10.126  10.523   5.372 -0.5570 -0.8031  0.5770
  734MOL0     C96781  10.164  10.634   5.446 -0.1997  0.7010 -0.8053
  734MOL0     C96782  10.292  10.685   5.443 -0.0041 -0.4075 -0.2375
  734MOL0     C96783  10.325  10.798   5.517 -0.3618  0.9763  0.7642
  734MOL0     C96784  10.234  10.864   5.587  0.2173  0.8591 -0.5946
  734MOL0     C96785  10.271  10.977   5.675 -0.6783  0.0847  0.0394
  734MOL0     O96786  10.177  11.034   5.752 -0.6527 -0.4868  0.9689
  734MOL0     C96787  10.201  11.117   5.863 -0.8668 -0.2066 -0.5627
  734MOL0     C96788  10.103  11.209   5.899  0.3682 -0.2074  0.1598
  734MOL0     C96789  10.127  11.300   6.012  0.0719 -0.2034  0.7248
  734MOL0     C96790  10.251  11.302   6.084  0.0766  0.0694 -1.2253
  734MOL0     O96791  10.283  11.380   6.196  0.4332  0.2886  1.2416
  734MOL0     C96792  10.389  11.469   6.163 -0.1030 -0.3731 -0.7491
  734MOL0     C96793  10.516  11.440   6.243 -0.1239 -0.0166  0.4947
  734MOL0     C96794  10.632  11.524   6.203 -0.8271 -0.8344  0.1318
  734MOL0     C96795  10.768  11.503   6.269  0.6134  0.4631  0.4188
  734MOL0     C96796  10.886  11.537   6.179 -0.7765  0.1484  0.5683
  734MOL0     C96797  10.938  11.414   6.107  0.2251  0.6626  0.4186
  734MOL0     C96798  11.048  11.462   6.019 -1.7198  0.0228  0.3091
  734MOL0     C96799  11.079  11.355   5.920  0.4751  0.4303  0.2246
  734MOL0    Cl96800  11.225  11.396   5.830 -0.2544 -0.2208  0.1234
  734MOL0     C96801  10.340  11.193   6.053  0.1861  0.1741 -0.6284
  734MOL0     C96802  10.316  11.107   5.946 -0.6046  0.0386 -0.3506
  734MOL0     O96803  10.387  11.015   5.667  1.2017  0.4432 -0.5091
  734MOL0     C96804  10.105  10.815   5.586 -1.2386  0.5964 -0.3281
  734MOL0     C96805  10.077  10.689   5.535 -0.1147  0.3675 -0.0548
  734MOL0     N96806  10.519  10.152   5.023  0.2267  0.1259 -0.3767
  734MOL0     N96807  10.551  10.046   4.948  0.0765  0.3262 -0.8873
  734MOL0     C96808  10.348   9.059   4.220 -1.1186  0.2039 -0.0197
  734MOL0     C96809  10.332   8.992   4.093 -0.3492 -0.1549  0.0013
  734MOL0     C96810  10.179   8.805   3.732 -0.4760 -0.5218  0.4675
  734MOL0     C96811  10.142   8.675   3.754  0.1172 -0.1774 -0.3687
  734MOL0     C96812  10.124   8.581   3.652  0.4525 -1.2953 -0.4228
  734MOL0     C96813  10.143   8.628   3.521  0.2513  0.1620  0.4707
  734MOL0     O96814  10.131   8.539   3.416 -0.0729 -0.3445 -0.3302
  734MOL0     C96815  10.253   8.482   3.366 -0.4528  0.0301  0.6595
  734MOL0     C96816  10.235   8.381   3.257 -0.4623  0.3905 -0.0046
  734MOL0     C96817  10.376   8.321   3.202 -0.5472  0.4675  0.1536
  734MOL0     C96818  10.364   8.225   3.080  0.5205  0.0306  0.2266
  734MOL0     C96819  10.320   8.306   2.961 -0.4200  0.1856  0.2726
  734MOL0     C96820  10.264   8.368   2.869 -0.7630 -0.3230 -0.5936
  734MOL0     C96821  10.177   8.759   3.493  0.8713  0.1312  0.6800
  734MOL0     C96822  10.193   8.849   3.602 -0.4144  0.3701 -0.1734
  734MOL0     H96823  10.065   8.803   4.155  2.4278 -1.0432 -2.8152
  734MOL0     H96824  10.084   8.922   4.380 -0.9996  0.0821 -0.6822
  734MOL0     H96825  10.184   8.979   4.585 -1.6725 -0.0227  2.3350
  734MOL0     H96826  10.075   9.098   4.527  0.1004  2.8771 -0.7777
  734MOL0     H96827  10.331   9.129   4.701  0.2938  1.0492 -0.8125
  734MOL0     H96828  10.168   9.164   4.751  1.1523 -0.8683 -0.5916
  734MOL0     H96829  10.160   9.368   4.606 -0.4606  1.0988  0.6901
  734MOL0     H96830  10.326   9.327   4.538  1.3587 -2.6437  1.5370
  734MOL0     H96831  10.262   9.384   4.829 -1.3127 -0.3953 -0.9672
  734MOL0     H96832  10.412   9.347   4.757  0.6509  1.0723  3.5519
  734MOL0     H96833  10.238   9.585   4.710 -1.5993 -0.5956  0.7202
  734MOL0     H96834  10.393   9.578   4.632 -0.9886 -2.3644 -0.1784
  734MOL0     H96835  10.505   9.559   4.869  0.9810  1.6883 -2.7283
  734MOL0     H96836  10.351   9.569   4.938  1.8143  0.8640  1.9970
  734MOL0     H96837  10.451   9.809   4.781  0.2436  3.0932  2.3526
  734MOL0     H96838  10.313   9.796   4.902  0.5519  1.2183 -0.3300
  734MOL0     H96839  10.610   9.781   4.920 -1.0599 -2.3800 -2.1465
  734MOL0     H96840  10.503   9.726   5.058 -0.2688  2.9253  2.7847
  734MOL0     H96841  10.366   9.922   5.197 -0.9455  1.5450  0.6769
  734MOL0     H96842  10.471  10.282   5.239  0.9274 -0.5969 -0.9415
  734MOL0     H96843  10.375  10.146   5.318 -0.0187 -1.2963  0.1473
  734MOL0     H96844  10.213  10.173   5.105 -0.0286 -0.5337  1.3622
  734MOL0     H96845  10.285  10.316   5.067 -0.1344  0.3890  0.0258
  734MOL0     H96846  10.070  10.342   5.181 -0.4562  0.9856  0.6015
  734MOL0     H96847  10.123  10.252   5.311 -0.8454 -1.5587 -1.4130
  734MOL0     H96848  10.283  10.493   5.229  4.1363 -5.0117  0.7185
  734MOL0     H96849  10.289  10.422   5.389 -3.5576 -1.0244  2.6112
  734MOL0     H96850  10.362  10.642   5.372 -1.6098  0.7353 -2.6501
  734MOL0     H96851  10.423  10.837   5.491 -0.5888  1.0542  0.0082
  734MOL0     H96852  10.006  11.206   5.851  1.7093 -1.4515 -2.7691
  734MOL0     H96853  10.045  11.367   6.036 -1.3417 -1.5204 -0.1940
  734MOL0     H96854  10.352  11.568   6.191  0.4192  0.5436 -3.0860
  734MOL0     H96855  10.415  11.474   6.057 -0.4501  3.5926 -0.7746
  734MOL0     H96856  10.549  11.336   6.232  0.0254  0.1166 -0.3364
  734MOL0     H96857  10.493  11.440   6.350 -2.9966  3.3637  0.0266
  734MOL0     H96858  10.590  11.623   6.222 -2.0996 -1.4509  0.7059
  734MOL0     H96859  10.649  11.533   6.095  0.7546 -0.9637  0.3489
  734MOL0     H96860  10.780  11.571   6.354 -0.2453 -2.1176  2.7646
  734MOL0     H96861  10.777  11.399   6.301  1.2999 -0.0816 -1.4218
  734MOL0     H96862  10.967  11.588   6.231  0.0332  0.4515 -0.9321
  734MOL0     H96863  10.839  11.602   6.104 -1.0088 -0.7851 -0.1177
  734MOL0     H96864  10.858  11.368   6.047  2.3821 -0.7735 -1.5528
  734MOL0     H96865  10.977  11.346   6.182 -0.6107 -0.2982  0.0132
  734MOL0     H96866  11.016  11.559   5.982  0.9779  1.3079  1.0906
  734MOL0     H96867  11.141  11.475   6.075 -1.7677  1.5229  0.0634
  734MOL0     H96868  10.995  11.334   5.853  0.0231 -0.9381  1.1817
  734MOL0     H96869  11.082  11.257   5.969 -2.6262  1.1914  2.2093
  734MOL0     H96870  10.434  11.188   6.107 -0.3937 -0.4377  0.3560
  734MOL0     H96871  10.399  11.045   5.914 -1.7318 -0.4408 -2.5068
  734MOL0     H96872  10.027  10.875   5.633 -1.6055  1.0782 -1.5276
  734MOL0     H96873   9.974  10.657   5.546 -0.0242  0.0477 -0.1450
  734MOL0     H96874  10.439   9.118   4.222 -0.9826 -0.0132  0.1599
  734MOL0     H96875  10.407   9.033   4.026 -0.5032  1.1608  0.5983
  734MOL0     H96876  10.135   8.640   3.857  2.1357  1.8246  0.5405
  734MOL0     H96877  10.114   8.473   3.667  3.2079 -1.9284 -2.4559
  734MOL0     H96878  10.322   8.430   3.434  0.1306 -3.0296 -2.0562
  734MOL0     H96879  10.314   8.565   3.329 -0.7127  1.4668  3.2092
  734MOL0     H96880  10.178   8.299   3.301 -0.9898  0.4872 -0.4886
  734MOL0     H96881  10.173   8.423   3.177  0.2326  3.4702  0.9430
  734MOL0     H96882  10.434   8.262   3.274  0.1064 -0.7036 -1.2866
  734MOL0     H96883  10.439   8.409   3.187  0.3552  0.6587  3.9812
  734MOL0     H96884  10.458   8.170   3.073  0.9721  0.5559  1.7044
  734MOL0     H96885  10.276   8.165   3.107  0.5289  0.9561  2.5589
  734MOL0     H96886  10.217   8.432   2.797  1.4457  1.3578 -0.6159
  734MOL0     H96887  10.196   8.794   3.392  2.9147 -1.9024  0.2560
  734MOL0     H96888  10.226   8.951   3.587 -1.1917  1.0825  2.4978
  735MOL0     O96889   5.441  10.822   7.094  0.1732 -0.4516 -0.3176
  735MOL0     C96890   5.372  10.845   6.993  0.9514  0.1251  0.5235
  735MOL0     O96891   5.428  10.882   6.873 -0.3453  0.7004  0.6393
  735MOL0     C96892   5.540  10.965   6.876 -0.4471 -0.3433  0.1485
  735MOL0     C96893   5.595  11.032   6.989  0.7954 -1.3723 -0.2946
  735MOL0     C96894   5.719  11.100   6.970 -0.8655  0.9944 -0.3533
  735MOL0     C96895   5.789  11.102   6.855  0.2760 -1.2317  0.0614
  735MOL0     O96896   5.919  11.158   6.843  0.0574  0.5060 -0.1967
  735MOL0     C96897   6.024  11.112   6.930  0.6529  1.4349 -0.0389
  735MOL0     C96898   6.154  11.195   6.900  1.3263  0.3702  0.1971
  735MOL0     C96899   6.128  11.342   6.937  0.5362 -0.6618  0.0621
  735MOL0     C96900   6.100  11.365   7.087 -0.4554 -0.3277  1.1989
  735MOL0     C96901   6.132  11.514   7.129 -0.1802 -0.0632 -0.0543
  735MOL0     C96902   6.058  11.621   7.038 -0.3540  0.3135 -0.1866
  735MOL0     C96903   5.912  11.594   7.053 -0.1902  0.1705  0.3129
  735MOL0     C96904   5.865  11.708   6.970  0.3248  0.9349  0.2851
  735MOL0     N96905   5.731  11.743   7.014  0.2357 -0.3141  0.2164
  735MOL0     C96906   5.679  11.763   7.141 -1.0255 -0.3243 -1.1938
  735MOL0     C96907   5.555  11.806   7.129  0.1934 -0.5966 -0.2713
  735MOL0     C96908   5.467  11.822   7.238 -0.2801 -0.6613 -0.0845
  735MOL0     C96909   5.425  11.689   7.298  0.3592  0.4232  0.0076
  735MOL0     C96910   5.307  11.710   7.387  1.0680 -0.6127 -0.3804
  735MOL0     C96911   5.334  11.771   7.527  0.2370  0.2868 -0.1662
  735MOL0     O96912   5.265  11.900   7.540  0.2804 -0.3165  0.6186
  735MOL0     C96913   5.128  11.912   7.546  0.4389 -0.0938  0.6500
  735MOL0     C96914   5.067  12.039   7.513  0.8311  0.0813  0.0051
  735MOL0     C96915   4.926  12.051   7.516  0.0075 -0.3760  0.0563
  735MOL0     C96916   4.841  11.943   7.528  0.3219 -0.6390 -0.3077
  735MOL0     C96917   4.692  11.960   7.511  0.3972  0.4063  0.4293
  735MOL0     O96918   4.624  12.079   7.490  0.9292  0.3290 -0.0508
  735MOL0     C96919   4.489  12.075   7.487 -0.7808  0.3074  0.2537
  735MOL0     C96920   4.422  12.174   7.560 -1.2758  0.2543 -0.4706
  735MOL0     C96921   4.283  12.173   7.574 -0.0619  0.7360 -0.1424
  735MOL0     C96922   4.208  12.076   7.507 -0.0228  0.1016  0.1172
  735MOL0     O96923   4.069  12.086   7.523 -0.7037  0.2076 -0.0788
  735MOL0     C96924   3.987  11.984   7.459  0.8749  0.2347  0.0522
  735MOL0     C96925   3.848  12.042   7.463  0.6109  0.4401  0.3982
  735MOL0     C96926   3.730  11.946   7.449  0.6424  0.6355 -0.7810
  735MOL0     C96927   3.593  12.009   7.485  0.0360  0.6284  0.3040
  735MOL0     C96928   3.483  11.908   7.478  0.6826 -0.0214  0.2354
  735MOL0     C96929   3.343  11.962   7.532 -0.1451  0.1087  0.4860
  735MOL0     C96930   3.286  12.082   7.449  0.4869  0.6949  0.0495
  735MOL0     C96931   3.196  12.154   7.552  0.1826 -0.5257  0.2476
  735MOL0    Cl96932   3.035  12.068   7.574 -0.2748  0.2409 -0.3812
  735MOL0     C96933   4.275  11.978   7.432 -0.0968  1.2133 -1.0541
  735MOL0     C96934   4.414  11.981   7.423 -0.3638 -0.5546 -0.7974
  735MOL0     O96935   4.632  11.851   7.528 -0.5101  0.2001  0.2431
  735MOL0     C96936   4.899  11.822   7.542  0.7445  0.2889 -0.1047
  735MOL0     C96937   5.040  11.811   7.558  0.0376  0.3004  0.2069
  735MOL0     N96938   5.527  11.820   6.991  0.0341 -0.2926  0.1677
  735MOL0     N96939   5.632  11.789   6.929  0.7413 -0.3393  0.3439
  735MOL0     C96940   5.726  11.050   6.746  0.0260 -1.4899 -0.6636
  735MOL0     C96941   5.597  10.981   6.753 -0.5361  0.1611 -0.0803
  735MOL0     C96942   5.229  10.810   6.992 -0.5986  0.0167  0.3235
  735MOL0     C96943   5.156  10.844   6.876  0.5691 -0.2490  0.9417
  735MOL0     C96944   5.019  10.837   6.877 -0.5758 -0.1818 -0.0271
  735MOL0     C96945   4.942  10.782   6.986 -0.1048 -0.7229  0.3037
  735MOL0     O96946   4.810  10.785   6.952 -1.1802  0.2319 -0.5102
  735MOL0     C96947   4.730  10.764   7.066  0.4324 -0.0864 -0.9610
  735MOL0     C96948   4.582  10.768   7.029 -0.0108 -0.0220 -0.4310
  735MOL0     C96949   4.550  10.665   6.912 -0.0899  0.3167 -0.5158
  735MOL0     C96950   4.557  10.519   6.955 -0.4946 -0.0160 -1.0106
  735MOL0     C96951   4.440  10.483   7.040 -0.5009 -0.2193 -0.2046
  735MOL0     C96952   4.342  10.464   7.104  0.3859  0.5753 -0.8020
  735MOL0     C96953   5.015  10.745   7.098  0.1453  1.1467  0.0703
  735MOL0     C96954   5.159  10.750   7.105  0.3900  0.6994  0.9221
  735MOL0     H96955   5.542  11.028   7.084  0.1794  0.1342 -0.5509
  735MOL0     H96956   5.769  11.147   7.054  0.8804 -2.7549  0.9464
  735MOL0     H96957   6.057  11.014   6.894 -0.4414  2.4653 -4.3746
  735MOL0     H96958   6.005  11.108   7.038 -0.8653 -0.5154 -0.3025
  735MOL0     H96959   6.182  11.170   6.797  0.2112 -0.3935  0.0623
  735MOL0     H96960   6.244  11.154   6.947  0.1635 -1.3254  1.0196
  735MOL0     H96961   6.042  11.377   6.879  1.3096 -2.9522 -2.7123
  735MOL0     H96962   6.213  11.397   6.894  0.0054  1.0585  1.1074
  735MOL0     H96963   5.996  11.338   7.105 -0.4082 -0.7182  0.8964
  735MOL0     H96964   6.163  11.305   7.154 -0.1073  0.3879  1.5185
  735MOL0     H96965   6.241  11.522   7.119 -0.0055 -3.5267 -2.6225
  735MOL0     H96966   6.115  11.524   7.237  1.3272 -1.7990  0.4003
  735MOL0     H96967   6.084  11.613   6.932  2.5809 -0.8545  0.5176
  735MOL0     H96968   6.083  11.721   7.074  4.0703 -0.8884  0.6985
  735MOL0     H96969   5.879  11.495   7.020  1.8230  0.0320 -1.5089
  735MOL0     H96970   5.877  11.609   7.156 -2.7374  0.1260 -0.4779
  735MOL0     H96971   5.858  11.670   6.867  1.0297  2.2157 -0.2607
  735MOL0     H96972   5.923  11.800   6.972 -0.8681  1.8929 -2.6115
  735MOL0     H96973   5.721  11.747   7.240  0.9533 -3.3215 -2.3617
  735MOL0     H96974   5.379  11.872   7.196  1.5208  2.8778 -0.0866
  735MOL0     H96975   5.520  11.896   7.299 -0.0670 -0.0012 -1.0439
  735MOL0     H96976   5.506  11.645   7.357 -0.4806 -0.5746  0.4578
  735MOL0     H96977   5.391  11.618   7.221 -1.6960  1.2010  0.1465
  735MOL0     H96978   5.226  11.764   7.338 -0.5581  0.8329  3.4797
  735MOL0     H96979   5.273  11.608   7.408  2.1617 -0.5511  1.9925
  735MOL0     H96980   5.441  11.783   7.546  0.4838 -0.8700 -0.7551
  735MOL0     H96981   5.301  11.698   7.601  4.9679 -1.5718  0.4681
  735MOL0     H96982   5.128  12.128   7.502  3.6186 -1.9293 -2.2561
  735MOL0     H96983   4.886  12.151   7.501  0.5749 -0.4435 -2.1663
  735MOL0     H96984   4.476  12.249   7.617 -0.0480 -1.7867  1.2274
  735MOL0     H96985   4.243  12.239   7.650  0.6793 -1.0875  1.9504
  735MOL0     H96986   3.994  11.888   7.512 -2.0330 -1.3214 -2.0950
  735MOL0     H96987   4.030  11.977   7.359  0.1636 -2.2402 -0.1420
  735MOL0     H96988   3.855  12.111   7.378  1.3908  1.6809  1.4380
  735MOL0     H96989   3.838  12.106   7.551  1.8962  1.2351 -0.0183
  735MOL0     H96990   3.758  11.872   7.526  0.5702 -0.7234 -2.0128
  735MOL0     H96991   3.730  11.893   7.354  0.7600  0.1106 -0.4939
  735MOL0     H96992   3.588  12.052   7.585 -2.5423 -0.2842  0.6295
  735MOL0     H96993   3.568  12.094   7.420  1.8438  0.8698 -0.1295
  735MOL0     H96994   3.508  11.820   7.538 -0.3553 -0.1032  0.5638
  735MOL0     H96995   3.462  11.882   7.375 -1.2008  1.4563  0.2001
  735MOL0     H96996   3.357  11.998   7.634  0.2793  1.4884 -0.0376
  735MOL0     H96997   3.273  11.878   7.536  0.5601 -0.4435  2.4828
  735MOL0     H96998   3.360  12.148   7.403 -0.7788  1.1995 -1.3786
  735MOL0     H96999   3.222  12.047   7.367  1.1488 -2.9168  0.9024
  735MOL0     H97000   3.188  12.257   7.517  1.0764 -0.1806  1.0271
  735MOL0     H97001   3.241  12.167   7.651 -1.3373 -0.5018  0.9650
  735MOL0     H97002   4.218  11.902   7.381 -3.4494  0.9440  2.5384
  735MOL0     H97003   4.464  11.905   7.364  2.2407 -0.3393  0.9656
  735MOL0     H97004   4.840  11.731   7.551  2.2087 -0.9373 -2.0462
  735MOL0     H97005   5.080  11.715   7.591 -0.2641 -0.5848 -1.8168
  735MOL0     H97006   5.772  11.051   6.648  2.1681 -1.2214  0.3054
  735MOL0     H97007   5.571  10.945   6.653  2.8534  0.9319 -1.3799
  735MOL0     H97008   5.209  10.878   6.788 -2.6502  2.1262 -0.2688
  735MOL0     H97009   4.965  10.882   6.794  1.7305  2.3335 -0.3149
  735MOL0     H97010   4.760  10.848   7.130  2.8189 -0.1399 -1.9090
  735MOL0     H97011   4.747  10.664   7.106  3.0492  0.8293  0.4647
  735MOL0     H97012   4.514  10.757   7.114 -0.7055  1.9238 -0.6882
  735MOL0     H97013   4.567  10.871   6.995  2.2385  0.6319  0.3771
  735MOL0     H97014   4.620  10.682   6.830  0.7725 -0.0704  0.1337
  735MOL0     H97015   4.447  10.682   6.879 -1.4577  1.1021  3.6191
  735MOL0     H97016   4.563  10.445   6.874 -0.3896 -2.2098  0.8859
  735MOL0     H97017   4.651  10.508   7.010  0.8848  2.6895 -2.6027
  735MOL0     H97018   4.254  10.454   7.163 -1.0880  5.0407 -1.8581
  735MOL0     H97019   4.965  10.693   7.178 -2.6898  3.2605 -0.1789
  735MOL0     H97020   5.205  10.708   7.194 -1.8057 -1.1315  1.2759
  736MOL0     O97021   9.483   7.332   8.688  0.2099 -0.1558 -0.2635
  736MOL0     C97022   9.539   7.402   8.772  0.5556 -0.3425 -0.7052
  736MOL0     O97023   9.503   7.522   8.804  0.5308 -1.0573  0.0168
  736MOL0     C97024   9.390   7.585   8.758 -0.3737 -0.9456  0.4425
  736MOL0     C97025   9.271   7.528   8.717  0.2519  0.3639  0.6129
  736MOL0     C97026   9.164   7.597   8.673  0.7926  0.1067  0.6698
  736MOL0     C97027   9.166   7.740   8.667 -0.2782 -0.7651  0.0571
  736MOL0     O97028   9.048   7.813   8.636 -0.2764 -0.0185 -0.5014
  736MOL0     C97029   9.071   7.947   8.599 -0.1091 -0.3175 -0.0725
  736MOL0     C97030   8.950   8.008   8.526 -0.1799 -0.2664 -0.2552
  736MOL0     C97031   8.989   8.135   8.450 -0.8559  0.1076  0.2585
  736MOL0     C97032   8.891   8.184   8.346  0.1983 -0.8149 -0.7715
  736MOL0     C97033   8.756   8.230   8.418  0.1556 -0.4574  0.0330
  736MOL0     C97034   8.788   8.326   8.541  1.2951  0.8254 -0.1033
  736MOL0     C97035   8.655   8.394   8.580  0.4323  0.2147 -0.0667
  736MOL0     C97036   8.602   8.500   8.483  0.0311 -0.4749  0.1858
  736MOL0     N97037   8.494   8.570   8.538  0.1632  0.0190 -0.0510
  736MOL0     C97038   8.501   8.673   8.621  0.5878  0.4207 -0.7555
  736MOL0     C97039   8.390   8.745   8.610  0.6915 -0.8638  0.5324
  736MOL0     C97040   8.368   8.868   8.686 -0.5263 -0.9224 -0.1032
  736MOL0     C97041   8.224   8.868   8.743  0.4839 -0.7209 -0.1398
  736MOL0     C97042   8.160   9.003   8.785  0.2179  0.2207 -0.3148
  736MOL0     C97043   8.122   9.106   8.678  1.1688 -0.4971  0.5114
  736MOL0     O97044   8.027   9.201   8.731 -0.1519 -0.1501 -0.1031
  736MOL0     C97045   7.925   9.242   8.642 -0.1256  0.2331 -0.3362
  736MOL0     C97046   7.945   9.257   8.505 -0.1775 -0.4253  0.2015
  736MOL0     C97047   7.847   9.314   8.422 -1.1312  0.5556 -0.7925
  736MOL0     C97048   7.732   9.372   8.475 -0.3051 -0.2039 -0.1586
  736MOL0     C97049   7.620   9.422   8.397 -0.2991 -0.0539  0.4182
  736MOL0     O97050   7.521   9.474   8.467  0.2174  0.2789  0.3862
  736MOL0     C97051   7.401   9.499   8.406  0.3442 -0.8102 -0.6401
  736MOL0     C97052   7.321   9.402   8.345 -0.6146  0.3839 -0.4177
  736MOL0     C97053   7.210   9.453   8.273  0.2059  0.5944 -0.2793
  736MOL0     C97054   7.178   9.591   8.265  0.1557 -0.5249  0.1456
  736MOL0     O97055   7.084   9.638   8.175 -0.6251 -0.3611  1.1419
  736MOL0     C97056   6.951   9.580   8.191 -0.0386 -0.5399 -0.3703
  736MOL0     C97057   6.844   9.609   8.081 -0.0205  0.1480 -0.1413
  736MOL0     C97058   6.916   9.641   7.945  0.3313  0.6637  0.6233
  736MOL0     C97059   6.818   9.643   7.827 -0.8503  0.5822  1.0559
  736MOL0     C97060   6.896   9.729   7.724  0.0654  1.0238 -0.4808
  736MOL0     C97061   6.827   9.717   7.587  1.1416 -0.0742 -0.0857
  736MOL0     C97062   6.881   9.797   7.476  0.4139 -0.8409  0.2333
  736MOL0     C97063   6.777   9.854   7.371 -0.1981 -0.1926 -0.3250
  736MOL0    Cl97064   6.867   9.934   7.238 -0.1992  0.2238 -0.3359
  736MOL0     C97065   7.251   9.675   8.347 -0.2064  0.6103 -0.0008
  736MOL0     C97066   7.358   9.633   8.424  0.0138 -0.8318 -0.4039
  736MOL0     O97067   7.624   9.416   8.273  0.6629  0.8439 -0.2174
  736MOL0     C97068   7.716   9.351   8.618  0.2981  0.2500 -0.4326
  736MOL0     C97069   7.808   9.285   8.695 -0.2416 -0.3887 -0.3643
  736MOL0     N97070   8.308   8.677   8.520  0.1052 -1.2208 -1.0502
  736MOL0     N97071   8.370   8.571   8.484  0.4641 -0.8123  0.5829
  736MOL0     C97072   9.287   7.804   8.714  0.0242 -0.5827 -0.7288
  736MOL0     C97073   9.399   7.725   8.761 -0.3276 -0.2838  0.8815
  736MOL0     C97074   9.659   7.356   8.840 -0.6705 -0.3313  0.2907
  736MOL0     C97075   9.741   7.438   8.927  0.6134 -0.3178 -0.3347
  736MOL0     C97076   9.864   7.388   8.977 -0.3350  1.0435 -0.2208
  736MOL0     C97077   9.900   7.256   8.953 -0.0448  0.6722 -0.2031
  736MOL0     O97078  10.012   7.204   9.012  0.0662  0.0180 -0.7277
  736MOL0     C97079  10.139   7.255   8.955 -0.7528 -0.7517 -0.5971
  736MOL0     C97080  10.180   7.205   8.823  0.6758  0.4926 -0.0419
  736MOL0     C97081  10.303   7.269   8.766  0.4725  0.2295 -1.2736
  736MOL0     C97082  10.336   7.222   8.625 -0.4031  0.3899  0.7774
  736MOL0     C97083  10.425   7.314   8.560 -0.1208  0.7581 -0.2538
  736MOL0     C97084  10.483   7.398   8.495 -0.4634  0.1675  0.3593
  736MOL0     C97085   9.819   7.179   8.879 -0.4114  0.7327  0.1266
  736MOL0     C97086   9.699   7.221   8.819  1.0979  0.0473 -0.7170
  736MOL0     H97087   9.260   7.420   8.707 -1.6695  0.7103 -5.0534
  736MOL0     H97088   9.075   7.551   8.630  1.7440  0.7163 -2.0971
  736MOL0     H97089   9.160   7.959   8.537  2.6004 -1.2110  3.2988
  736MOL0     H97090   9.091   8.003   8.691 -0.6079  0.2472 -0.3012
  736MOL0     H97091   8.873   8.025   8.602 -0.1856  1.0802 -0.5334
  736MOL0     H97092   8.905   7.941   8.453 -2.2649  0.0530  0.6600
  736MOL0     H97093   9.083   8.108   8.400  0.0300  2.9095  0.1875
  736MOL0     H97094   9.012   8.218   8.518  0.9894  0.5219 -0.7939
  736MOL0     H97095   8.945   8.274   8.317 -0.3359  0.5703  2.2308
  736MOL0     H97096   8.868   8.115   8.264 -1.7198  0.7936 -1.6775
  736MOL0     H97097   8.691   8.144   8.439  1.3311 -1.2340  0.6743
  736MOL0     H97098   8.706   8.295   8.347  0.4797  0.4799  0.6480
  736MOL0     H97099   8.864   8.392   8.498  1.8327  0.3365  0.0791
  736MOL0     H97100   8.834   8.276   8.627 -0.5216  1.6739  1.4262
  736MOL0     H97101   8.573   8.325   8.600 -0.6017  1.3978 -0.1524
  736MOL0     H97102   8.683   8.449   8.670 -0.7014 -0.0154  0.4402
  736MOL0     H97103   8.569   8.444   8.396 -0.8295 -1.5464  1.1820
  736MOL0     H97104   8.687   8.565   8.459 -0.6052  0.1485 -0.4383
  736MOL0     H97105   8.587   8.698   8.683  0.8846  0.7627 -1.2978
  736MOL0     H97106   8.397   8.954   8.625  1.4990 -0.0967  1.8637
  736MOL0     H97107   8.433   8.877   8.773  0.2002 -0.6511 -0.6636
  736MOL0     H97108   8.224   8.804   8.832 -1.7690  0.1051  0.5101
  736MOL0     H97109   8.153   8.817   8.678  1.1714 -1.2385 -0.5000
  736MOL0     H97110   8.079   8.978   8.854  1.6989  3.3863  2.8549
  736MOL0     H97111   8.231   9.053   8.852  2.0559  0.6842 -2.4752
  736MOL0     H97112   8.087   9.056   8.588 -1.9771  0.1041  1.2838
  736MOL0     H97113   8.209   9.172   8.668  0.6066  0.0167 -1.2749
  736MOL0     H97114   8.040   9.227   8.461 -0.1332  1.2943 -0.9644
  736MOL0     H97115   7.877   9.310   8.318  4.4745 -1.7189  0.4840
  736MOL0     H97116   7.355   9.299   8.358  2.9917  1.6904  2.4110
  736MOL0     H97117   7.138   9.377   8.243  1.0198 -0.9465  1.4585
  736MOL0     H97118   6.917   9.632   8.281  0.2284 -1.8378  0.5153
  736MOL0     H97119   6.960   9.473   8.215  0.4518 -0.5142 -0.4416
  736MOL0     H97120   6.773   9.685   8.112 -0.5224  0.4676 -1.9714
  736MOL0     H97121   6.776   9.525   8.064 -0.1534  0.3744 -0.7348
  736MOL0     H97122   6.977   9.554   7.917  1.4345  0.9902  1.8975
  736MOL0     H97123   6.993   9.719   7.950  1.8392 -0.7744  1.0176
  736MOL0     H97124   6.786   9.546   7.788 -0.3389  0.2509  1.4530
  736MOL0     H97125   6.721   9.686   7.853  0.5112  2.8141  2.8594
  736MOL0     H97126   6.998   9.691   7.718 -1.2712 -2.9853 -0.8975
  736MOL0     H97127   6.896   9.832   7.762  1.0872  0.4397  1.1881
  736MOL0     H97128   6.719   9.734   7.584  1.5773  3.5031 -0.4067
  736MOL0     H97129   6.841   9.612   7.562 -0.2527  0.2030 -2.2240
  736MOL0     H97130   6.919   9.882   7.532  0.1531 -0.3326 -0.3489
  736MOL0     H97131   6.957   9.735   7.427 -0.3644 -2.2812  0.7851
  736MOL0     H97132   6.718   9.932   7.420  2.0906  1.3075  0.2337
  736MOL0     H97133   6.707   9.776   7.343  1.1843 -2.0435  1.1117
  736MOL0     H97134   7.227   9.781   8.343 -0.0653  0.6860  0.9805
  736MOL0     H97135   7.403   9.720   8.472 -1.9895  0.6966 -1.1518
  736MOL0     H97136   7.623   9.389   8.660 -0.8792  0.7514 -3.2865
  736MOL0     H97137   7.791   9.267   8.800  0.5661 -0.9269 -0.3239
  736MOL0     H97138   9.300   7.912   8.713  4.2853 -0.9500 -0.4072
  736MOL0     H97139   9.490   7.773   8.795  2.4599 -2.5281 -2.6618
  736MOL0     H97140   9.717   7.543   8.942 -2.3274 -0.6163 -2.1507
  736MOL0     H97141   9.934   7.446   9.035  1.2838 -2.1721  1.2890
  736MOL0     H97142  10.216   7.225   9.027  0.1111  0.5873 -0.9285
  736MOL0     H97143  10.128   7.364   8.948  2.3858 -0.4352 -3.0487
  736MOL0     H97144  10.193   7.098   8.838  0.2680  0.3670 -0.5617
  736MOL0     H97145  10.095   7.211   8.755 -0.7414 -1.2722  1.4840
  736MOL0     H97146  10.389   7.247   8.831 -0.7627  4.9968  2.5154
  736MOL0     H97147  10.286   7.376   8.752 -1.6673  0.1158  0.0678
  736MOL0     H97148  10.373   7.119   8.622 -2.8865 -0.5620  0.4437
  736MOL0     H97149  10.246   7.223   8.563  0.7104  1.8774 -0.9113
  736MOL0     H97150  10.533   7.470   8.434 -0.0502 -1.6735 -1.5948
  736MOL0     H97151   9.863   7.081   8.869  1.9155  1.7062  0.2814
  736MOL0     H97152   9.646   7.146   8.763 -0.8981 -1.6910  3.1491
  737MOL0     O97153  11.254   9.869   5.271 -0.1541 -0.4467 -0.5245
  737MOL0     C97154  11.305   9.970   5.326  0.2130 -0.5624  0.8286
  737MOL0     O97155  11.256  10.023   5.443  0.5103 -0.5339 -0.2300
  737MOL0     C97156  11.185   9.941   5.527 -0.3711  1.2152 -0.1008
  737MOL0     C97157  11.217   9.798   5.550  0.3986  0.7427  0.4545
  737MOL0     C97158  11.131   9.713   5.632 -0.6472 -0.2536 -0.6389
  737MOL0     C97159  11.027   9.780   5.704  0.3539 -1.2460  0.0138
  737MOL0     O97160  10.945   9.691   5.779 -0.1440 -0.1953  0.6993
  737MOL0     C97161  10.913   9.738   5.913  0.4033  0.6846 -1.0589
  737MOL0     C97162  11.026   9.789   6.006 -0.1184 -0.3694 -0.5372
  737MOL0     C97163  11.123   9.688   6.062 -0.4100 -0.4088 -0.5117
  737MOL0     C97164  11.184   9.732   6.196  0.2938  0.2396  0.4407
  737MOL0     C97165  11.315   9.814   6.172  0.5961 -0.4527  0.3968
  737MOL0     C97166  11.439   9.719   6.169  0.7748  0.1321  0.3147
  737MOL0     C97167  11.477   9.662   6.310  0.1013  0.5810  0.4656
  737MOL0     C97168  11.603   9.572   6.306 -0.0726  0.7033 -0.0398
  737MOL0     N97169  11.571   9.433   6.260 -0.9339  0.2456 -0.3889
  737MOL0     C97170  11.578   9.314   6.331 -0.4641 -0.0518  0.4444
  737MOL0     C97171  11.542   9.214   6.247  0.1151  0.1888 -0.0163
  737MOL0     C97172  11.524   9.073   6.269  0.8439  0.7638 -0.3050
  737MOL0     C97173  11.662   9.015   6.278 -0.5477  0.6698 -0.2141
  737MOL0     C97174  11.681   8.946   6.414  0.2580 -0.0327 -0.0239
  737MOL0     C97175  11.827   8.908   6.445 -0.5824 -0.4464  0.1051
  737MOL0     O97176  11.891   9.033   6.470  1.0996 -0.5720 -0.3991
  737MOL0     C97177  12.020   9.054   6.426 -0.5454  0.3996  0.6192
  737MOL0     C97178  12.124   8.961   6.428 -0.5292  0.8656 -1.1222
  737MOL0     C97179  12.257   8.973   6.379  0.2104 -0.4668  0.1814
  737MOL0     C97180  12.286   9.101   6.317  0.6918 -0.0854  0.0170
  737MOL0     C97181  12.422   9.124   6.257  0.7307 -0.6184  0.1906
  737MOL0     O97182  12.443   9.250   6.203  0.2091 -0.7303  0.6665
  737MOL0     C97183  12.567   9.262   6.136 -0.2347 -0.8389  0.2369
  737MOL0     C97184  12.697   9.229   6.178  0.5464 -0.1789 -0.2347
  737MOL0     C97185  12.806   9.254   6.110  0.5175  0.1062  0.7087
  737MOL0     C97186  12.791   9.309   5.977 -0.5603 -0.2156  0.3007
  737MOL0     O97187  12.890   9.325   5.884 -0.8233 -0.1985 -0.5786
  737MOL0     C97188  13.022   9.333   5.948  0.0631  0.2214  0.6981
  737MOL0     C97189  13.116   9.411   5.858  0.3024  0.1562 -0.2506
  737MOL0     C97190  13.131   9.341   5.716  1.3087  0.0606 -0.3455
  737MOL0     C97191  13.246   9.400   5.625  0.3359  0.0454 -0.1320
  737MOL0     C97192  13.241   9.348   5.477 -0.7027  0.6643 -1.0064
  737MOL0     C97193  13.349   9.417   5.398  0.7490 -0.5800  0.3134
  737MOL0     C97194  13.303   9.562   5.374 -0.0463 -0.1218  0.7419
  737MOL0     C97195  13.372   9.645   5.265 -0.0723  0.0159  0.3768
  737MOL0    Cl97196  13.541   9.704   5.321 -0.1062 -0.1904  0.0852
  737MOL0     C97197  12.671   9.356   5.939  1.5867 -0.2303  0.3027
  737MOL0     C97198  12.563   9.337   6.019  0.0673  0.1170 -0.0624
  737MOL0     O97199  12.500   9.032   6.264 -0.1519 -0.3443 -0.5729
  737MOL0     C97200  12.185   9.201   6.317  0.8933 -0.1318  0.6456
  737MOL0     C97201  12.062   9.180   6.379 -0.4273  0.6920  0.2652
  737MOL0     N97202  11.528   9.272   6.125 -0.6172 -0.1438  0.6823
  737MOL0     N97203  11.541   9.402   6.130  0.4268  0.2839 -0.2618
  737MOL0     C97204  11.009   9.923   5.696 -0.4578  0.2973  0.9973
  737MOL0     C97205  11.090   9.998   5.610  1.0058 -1.1056 -0.2046
  737MOL0     C97206  11.404  10.043   5.249 -0.1302  0.7604 -0.8025
  737MOL0     C97207  11.461  10.164   5.298  0.3639  1.2207  0.2072
  737MOL0     C97208  11.563  10.229   5.227  0.6009 -0.6214 -0.4383
  737MOL0     C97209  11.604  10.176   5.105 -0.1438  0.2706 -0.5767
  737MOL0     O97210  11.710  10.232   5.050  0.8454  0.3327  0.3477
  737MOL0     C97211  11.777  10.176   4.939  0.2469 -0.1776 -0.0524
  737MOL0     C97212  11.892  10.268   4.893  0.7862 -0.0515 -0.8306
  737MOL0     C97213  12.024  10.259   4.972 -0.7054  0.1567 -0.0931
  737MOL0     C97214  12.147  10.272   4.878 -0.1708  0.7021  0.3510
  737MOL0     C97215  12.185  10.406   4.829  0.3925  1.3171  0.2127
  737MOL0     C97216  12.200  10.514   4.786  0.3752 -0.2852 -0.3501
  737MOL0     C97217  11.540  10.059   5.055  0.6834  0.8005  0.0937
  737MOL0     C97218  11.443   9.996   5.125 -0.0574 -0.2997 -0.0278
  737MOL0     H97219  11.298   9.745   5.502 -0.2839 -2.4981  2.5934
  737MOL0     H97220  11.149   9.606   5.624  2.8584  0.2983 -2.3444
  737MOL0     H97221  10.863   9.657   5.968  1.1995 -0.0969 -1.4526
  737MOL0     H97222  10.836   9.815   5.903 -1.5046 -0.6973  1.6640
  737MOL0     H97223  10.970   9.844   6.082 -3.0539 -0.5114 -2.4035
  737MOL0     H97224  11.069   9.868   5.943 -1.2682  0.3969 -0.4057
  737MOL0     H97225  11.202   9.676   5.986  2.5526  1.9874  1.9203
  737MOL0     H97226  11.086   9.586   6.061  0.9076 -0.9191  0.1511
  737MOL0     H97227  11.112   9.793   6.251 -0.5083 -1.3769  1.2554
  737MOL0     H97228  11.219   9.651   6.260  0.8673  1.0161  1.1361
  737MOL0     H97229  11.327   9.875   6.262 -0.0733 -2.5533  1.9991
  737MOL0     H97230  11.302   9.872   6.080 -1.6974  0.1731  1.0563
  737MOL0     H97231  11.513   9.787   6.125 -1.8008  2.4273 -0.7603
  737MOL0     H97232  11.426   9.633   6.103  1.3824  0.3950 -0.1700
  737MOL0     H97233  11.507   9.750   6.367 -0.5594  0.4222  1.0720
  737MOL0     H97234  11.393   9.617   6.363 -1.1323 -0.1005 -1.9570
  737MOL0     H97235  11.659   9.563   6.399 -0.8850 -0.2835  0.3744
  737MOL0     H97236  11.672   9.624   6.240  0.2127  1.0552  0.5307
  737MOL0     H97237  11.606   9.307   6.436 -1.4470 -1.2420  0.6526
  737MOL0     H97238  11.471   9.040   6.180  2.0722 -0.1960 -0.7107
  737MOL0     H97239  11.460   9.067   6.358 -1.1766 -1.0342 -1.7604
  737MOL0     H97240  11.744   9.087   6.268  0.4565 -0.6669 -2.2461
  737MOL0     H97241  11.666   8.932   6.208  0.3664 -0.3983  1.0435
  737MOL0     H97242  11.639   9.008   6.494 -1.1004 -0.1657 -0.6076
  737MOL0     H97243  11.625   8.852   6.403  2.1206 -1.0406 -1.4150
  737MOL0     H97244  11.882   8.846   6.373  0.1185  1.4112 -1.0427
  737MOL0     H97245  11.816   8.856   6.540 -2.0003  0.1649  0.3034
  737MOL0     H97246  12.102   8.873   6.486  1.8353  0.4868 -0.7087
  737MOL0     H97247  12.335   8.899   6.385 -0.7011 -1.3454  1.7620
  737MOL0     H97248  12.728   9.198   6.277  1.7912  1.7357  0.0330
  737MOL0     H97249  12.902   9.220   6.147 -0.0741  1.3250  3.5936
  737MOL0     H97250  13.059   9.230   5.951  0.1764  0.1591 -1.6709
  737MOL0     H97251  13.017   9.386   6.044 -0.9169  2.5688 -0.5777
  737MOL0     H97252  13.218   9.411   5.896  0.2966  1.9373 -0.1629
  737MOL0     H97253  13.079   9.512   5.842 -1.6836 -0.6569 -1.1779
  737MOL0     H97254  13.036   9.338   5.662  1.3420 -1.6602 -0.3780
  737MOL0     H97255  13.150   9.233   5.726  0.0803 -0.3779 -2.2037
  737MOL0     H97256  13.229   9.508   5.630  2.4800  0.4140  0.3689
  737MOL0     H97257  13.342   9.382   5.675  0.6223  4.1452  1.1342
  737MOL0     H97258  13.147   9.360   5.422  0.1611  0.5445 -2.5647
  737MOL0     H97259  13.268   9.242   5.480  0.4757  0.9436 -1.6089
  737MOL0     H97260  13.362   9.363   5.304 -3.4098 -2.3988  0.5600
  737MOL0     H97261  13.438   9.414   5.461 -0.1850 -0.2728  1.7092
  737MOL0     H97262  13.195   9.563   5.354 -0.0410 -0.6169  0.6732
  737MOL0     H97263  13.310   9.611   5.471  0.5371  0.0335  0.6248
  737MOL0     H97264  13.306   9.732   5.255 -0.2788  0.1582  2.4923
  737MOL0     H97265  13.373   9.587   5.172 -0.5051 -0.9415  0.9503
  737MOL0     H97266  12.654   9.420   5.853  0.7406 -1.3447 -0.3833
  737MOL0     H97267  12.468   9.388   6.008  0.5130  0.8564 -0.5660
  737MOL0     H97268  12.217   9.300   6.287 -3.9344  1.7055  0.7333
  737MOL0     H97269  11.991   9.261   6.392 -3.1319 -1.8910  3.2562
  737MOL0     H97270  10.933   9.973   5.756 -1.4158  0.0460  0.0318
  737MOL0     H97271  11.068  10.104   5.606  2.1722 -0.8422 -0.0697
  737MOL0     H97272  11.423  10.210   5.389  0.3359  1.3179  0.1471
  737MOL0     H97273  11.620  10.314   5.264  0.2065  0.1162 -1.4936
  737MOL0     H97274  11.713  10.172   4.850  0.2296 -1.4385  0.0041
  737MOL0     H97275  11.815  10.078   4.968  0.8823  0.6523  2.0874
  737MOL0     H97276  11.915  10.230   4.793  2.9231  0.5460 -0.6187
  737MOL0     H97277  11.858  10.372   4.879 -0.7665 -0.3571  0.3841
  737MOL0     H97278  12.039  10.163   5.022 -1.5664 -1.0117 -1.9936
  737MOL0     H97279  12.029  10.335   5.051  0.1097 -0.1260  0.1380
  737MOL0     H97280  12.226  10.236   4.944 -1.5291 -1.0958  1.0813
  737MOL0     H97281  12.134  10.199   4.797 -0.5800 -1.7217  2.4688
  737MOL0     H97282  12.208  10.619   4.769  2.3437 -0.5966 -1.7199
  737MOL0     H97283  11.587  10.004   4.974  1.2205  1.2032  0.1256
  737MOL0     H97284  11.393   9.927   5.058  0.8820  0.7876 -1.9008
  738MOL0     O97285   2.493   6.850   1.594 -0.7833 -0.2222 -0.1294
  738MOL0     C97286   2.516   6.904   1.490  0.7335 -0.6426  1.4031
  738MOL0     O97287   2.426   6.986   1.427 -0.1672  0.0270  0.5904
  738MOL0     C97288   2.297   6.980   1.488 -0.3504  0.1464 -0.1254
  738MOL0     C97289   2.210   6.881   1.455  0.1533 -0.0821  0.9226
  738MOL0     C97290   2.084   6.878   1.510  0.0288 -0.2705  0.0172
  738MOL0     C97291   2.048   6.970   1.606  0.2401 -0.7445  0.3897
  738MOL0     O97292   1.914   6.982   1.651  0.1731  0.3990  0.1238
  738MOL0     C97293   1.805   6.902   1.595 -0.3335  0.0944  0.6269
  738MOL0     C97294   1.702   6.893   1.709  0.5487 -0.9270  0.5909
  738MOL0     C97295   1.556   6.877   1.656  0.1984 -0.5560  0.9226
  738MOL0     C97296   1.448   6.831   1.759  0.4896 -0.3930  1.0255
  738MOL0     C97297   1.315   6.777   1.697  0.2177  0.6877 -0.6504
  738MOL0     C97298   1.239   6.693   1.803 -0.7940 -0.5708 -0.2207
  738MOL0     C97299   1.097   6.663   1.749  0.0094 -0.5179 -0.1506
  738MOL0     C97300   1.030   6.575   1.848 -0.0282 -0.0219  0.2606
  738MOL0     N97301   0.893   6.550   1.803  0.1961  0.0490  0.3970
  738MOL0     C97302   0.787   6.646   1.789 -0.4026 -0.0050 -0.6013
  738MOL0     C97303   0.678   6.569   1.753  0.6209  0.5089  0.2689
  738MOL0     C97304   0.537   6.627   1.733 -0.1369 -0.3917  0.7754
  738MOL0     C97305   0.426   6.621   1.840 -0.6992 -0.0020  0.7143
  738MOL0     C97306   0.382   6.482   1.865  0.6805  0.4710  0.4881
  738MOL0     C97307   0.322   6.404   1.749  0.2422 -0.1153  0.6657
  738MOL0     O97308   0.296   6.267   1.792 -0.1334  0.4934  0.0035
  738MOL0     C97309   0.179   6.238   1.849  0.8902 -0.2974 -0.9317
  738MOL0     C97310   0.054   6.316   1.842 -0.6538 -0.6404 -0.9962
  738MOL0     C97311  -0.049   6.278   1.936 -0.2531  0.0133 -0.0522
  738MOL0     C97312  -0.042   6.153   2.002  0.9003  0.2679  0.0986
  738MOL0     C97313  -0.150   6.119   2.100  1.1442 -0.0795  0.2320
  738MOL0     O97314  -0.124   6.010   2.181 -0.1250 -0.2009 -0.0329
  738MOL0     C97315  -0.230   5.965   2.257 -0.5274  0.7074  0.3173
  738MOL0     C97316  -0.288   6.025   2.367  0.1284 -0.5061  0.4794
  738MOL0     C97317  -0.390   5.951   2.440 -0.2110  0.0686 -1.0217
  738MOL0     C97318  -0.421   5.815   2.406  0.6749 -0.1556  0.7134
  738MOL0     O97319  -0.520   5.743   2.464  0.4371 -0.7811  0.7236
  738MOL0     C97320  -0.637   5.821   2.505 -0.1333 -0.0092  0.8196
  738MOL0     C97321  -0.735   5.714   2.565 -0.4813  0.1464 -0.5853
  738MOL0     C97322  -0.817   5.627   2.467  0.1213  0.6781  1.2524
  738MOL0     C97323  -0.730   5.562   2.352  0.1084  0.2483 -0.6069
  738MOL0     C97324  -0.650   5.442   2.404 -0.8119  0.3048  0.3506
  738MOL0     C97325  -0.609   5.351   2.291  0.7003 -0.1033  0.0112
  738MOL0     C97326  -0.554   5.221   2.345  0.1714  0.2172  0.0864
  738MOL0     C97327  -0.459   5.238   2.457  0.0671  0.6068 -0.3254
  738MOL0    Cl97328  -0.299   5.313   2.432 -0.3882  0.7276 -0.2862
  738MOL0     C97329  -0.354   5.751   2.308  0.6968 -0.9471  0.1344
  738MOL0     C97330  -0.263   5.827   2.235 -0.4408  0.1200  0.5213
  738MOL0     O97331  -0.246   6.204   2.114 -0.8526  0.8645  0.6818
  738MOL0     C97332   0.072   6.078   1.986 -0.7404  1.3239  0.0160
  738MOL0     C97333   0.182   6.119   1.915  0.0077 -1.1379 -0.0911
  738MOL0     N97334   0.719   6.432   1.730  0.3977  0.0055  0.2697
  738MOL0     N97335   0.851   6.426   1.760  0.5037  0.7413 -0.5319
  738MOL0     C97336   2.133   7.078   1.642 -0.6587 -0.0734 -0.0278
  738MOL0     C97337   2.263   7.081   1.579  0.2169  0.5423 -0.3070
  738MOL0     C97338   2.639   6.874   1.424 -0.0090  0.0421 -0.5452
  738MOL0     C97339   2.737   6.816   1.506 -0.8629  0.1103  1.2415
  738MOL0     C97340   2.862   6.783   1.455 -0.0941 -0.1136 -1.2502
  738MOL0     C97341   2.883   6.807   1.323 -0.2486 -1.2022 -0.1039
  738MOL0     O97342   3.004   6.766   1.275 -0.2525  0.4276  0.1833
  738MOL0     C97343   3.112   6.864   1.251 -0.3870  0.4229 -0.7208
  738MOL0     C97344   3.159   6.935   1.373  1.0000  0.3069 -0.6388
  738MOL0     C97345   3.210   6.879   1.500  0.3662 -1.2846 -0.2961
  738MOL0     C97346   3.320   6.768   1.482  0.8144 -0.9001  0.6300
  738MOL0     C97347   3.354   6.701   1.609 -0.2070 -0.0987  0.5048
  738MOL0     C97348   3.386   6.644   1.707 -0.4837  0.3152 -0.5244
  738MOL0     C97349   2.789   6.887   1.248 -0.2970 -0.1453 -0.3551
  738MOL0     C97350   2.672   6.920   1.303 -0.4106  1.1472  0.4253
  738MOL0     H97351   2.246   6.798   1.395 -0.2580  0.5435 -0.2261
  738MOL0     H97352   2.008   6.803   1.491 -1.8962  1.3601  0.8234
  738MOL0     H97353   1.836   6.799   1.578  1.5080  0.5390  1.0862
  738MOL0     H97354   1.772   6.947   1.501  0.3605 -1.6405 -0.4848
  738MOL0     H97355   1.706   6.986   1.767 -1.2804 -0.0656 -0.5619
  738MOL0     H97356   1.719   6.809   1.777  3.0774 -0.6895  0.3439
  738MOL0     H97357   1.560   6.801   1.577  1.5481  1.0408 -0.6433
  738MOL0     H97358   1.528   6.978   1.624 -2.3782 -1.1264  1.1980
  738MOL0     H97359   1.485   6.748   1.819 -1.0538 -2.1779 -0.3712
  738MOL0     H97360   1.433   6.918   1.824  0.4073 -0.2462  0.8131
  738MOL0     H97361   1.339   6.710   1.614  2.6407 -0.1616  0.6209
  738MOL0     H97362   1.251   6.861   1.669 -3.4817 -2.1062 -1.3701
  738MOL0     H97363   1.237   6.744   1.899 -0.0338  0.6769 -0.8385
  738MOL0     H97364   1.299   6.603   1.820  1.2781  0.2484 -2.5110
  738MOL0     H97365   1.055   6.764   1.753 -0.0916 -0.5677  2.9108
  738MOL0     H97366   1.092   6.633   1.644  0.7164 -2.5795  0.3604
  738MOL0     H97367   1.030   6.621   1.947 -1.4423 -0.3769  0.4485
  738MOL0     H97368   1.083   6.479   1.846  0.0321  0.0137  0.1354
  738MOL0     H97369   0.787   6.749   1.822  1.9638 -1.1101  3.6633
  738MOL0     H97370   0.489   6.588   1.643 -1.9218  2.6520  0.2665
  738MOL0     H97371   0.551   6.733   1.710  0.5728 -0.9121 -1.4727
  738MOL0     H97372   0.344   6.685   1.808 -2.2698 -1.5190  1.5391
  738MOL0     H97373   0.472   6.663   1.930  1.6723 -0.3890 -0.2303
  738MOL0     H97374   0.475   6.440   1.905  1.5010  2.1378  0.4659
  738MOL0     H97375   0.308   6.485   1.946  1.0955 -2.3534  1.0498
  738MOL0     H97376   0.393   6.400   1.666 -1.8633  2.4949 -1.4655
  738MOL0     H97377   0.233   6.453   1.707 -0.7650 -0.4374  2.3509
  738MOL0     H97378   0.043   6.405   1.781  1.9581  0.5438  0.1460
  738MOL0     H97379  -0.134   6.338   1.965 -2.4295 -3.8974  2.6862
  738MOL0     H97380  -0.274   6.125   2.406 -0.0368  0.3096 -1.4170
  738MOL0     H97381  -0.430   6.005   2.525  2.7515  1.5866 -0.4611
  738MOL0     H97382  -0.691   5.863   2.420 -0.1076 -1.3545  0.1054
  738MOL0     H97383  -0.603   5.893   2.579 -0.9214  1.6495 -0.3744
  738MOL0     H97384  -0.801   5.766   2.636 -0.1382 -0.6586  0.3455
  738MOL0     H97385  -0.676   5.649   2.631 -2.2160 -0.1520  0.7604
  738MOL0     H97386  -0.905   5.673   2.421  1.2810 -0.1851 -2.2064
  738MOL0     H97387  -0.873   5.555   2.527 -3.0849  3.5616  2.0398
  738MOL0     H97388  -0.802   5.527   2.277 -2.0318  0.6060  1.1574
  738MOL0     H97389  -0.657   5.625   2.302  0.5971 -1.5487 -2.2841
  738MOL0     H97390  -0.710   5.384   2.475 -0.5787  0.8437  0.9936
  738MOL0     H97391  -0.560   5.481   2.453 -1.3427  3.7788 -1.1936
  738MOL0     H97392  -0.531   5.396   2.230  2.0336  0.6087  2.1378
  738MOL0     H97393  -0.696   5.327   2.229 -0.5441  3.2360  0.3056
  738MOL0     H97394  -0.631   5.149   2.375 -1.6758  2.4945  1.1827
  738MOL0     H97395  -0.499   5.172   2.265  0.3944 -0.3252  0.5650
  738MOL0     H97396  -0.436   5.134   2.480  0.4900  0.5528 -0.9839
  738MOL0     H97397  -0.510   5.285   2.542 -0.0520 -1.9473  1.1247
  738MOL0     H97398  -0.371   5.648   2.277  0.5881 -1.1233  0.7819
  738MOL0     H97399  -0.215   5.778   2.151 -1.6353 -2.5004  1.2381
  738MOL0     H97400   0.093   5.986   2.039 -0.2685  0.9143 -0.8751
  738MOL0     H97401   0.273   6.060   1.923  0.1714 -0.8172  0.5176
  738MOL0     H97402   2.087   7.163   1.692 -1.5646  0.1893 -1.2620
  738MOL0     H97403   2.348   7.144   1.602  0.8228 -0.5396  0.5173
  738MOL0     H97404   2.715   6.790   1.609 -1.8036 -2.0101  0.5681
  738MOL0     H97405   2.938   6.744   1.522 -1.6130  0.7881  1.1236
  738MOL0     H97406   3.067   6.940   1.186  0.7453  1.5710 -0.2014
  738MOL0     H97407   3.193   6.825   1.189  0.3854  1.4806 -0.4045
  738MOL0     H97408   3.231   7.010   1.339 -0.4492  2.3258  0.5640
  738MOL0     H97409   3.067   6.982   1.408 -0.8572 -5.8066  4.7628
  738MOL0     H97410   3.132   6.828   1.557  1.5954 -0.5329  2.2015
  738MOL0     H97411   3.245   6.964   1.560 -1.8440 -0.4010 -0.1527
  738MOL0     H97412   3.292   6.705   1.397  0.5053 -0.2694  0.2562
  738MOL0     H97413   3.412   6.808   1.438 -1.1231  0.8403 -2.1430
  738MOL0     H97414   3.414   6.619   1.808  3.0315 -1.2236 -1.7233
  738MOL0     H97415   2.806   6.907   1.142 -1.3773 -3.5407 -1.2983
  738MOL0     H97416   2.602   6.987   1.254 -2.1570  0.3499  1.7385
  739MOL0     O97417   5.548   6.814   4.768 -0.1494  0.1582  0.4440
  739MOL0     C97418   5.532   6.931   4.809 -0.4280 -0.3693  1.0404
  739MOL0     O97419   5.632   7.028   4.804 -0.7632 -0.3264 -0.1301
  739MOL0     C97420   5.761   6.997   4.770  0.6719 -0.5059  0.5968
  739MOL0     C97421   5.799   6.899   4.670 -1.5209 -0.2312 -0.8523
  739MOL0     C97422   5.935   6.862   4.651 -0.0273 -0.1791 -0.8563
  739MOL0     C97423   6.031   6.916   4.732 -0.5646 -0.5863  0.1575
  739MOL0     O97424   6.156   6.867   4.710 -0.7633 -0.3889 -0.3663
  739MOL0     C97425   6.259   6.958   4.758 -0.0212  0.0211  0.5611
  739MOL0     C97426   6.394   6.908   4.716 -0.1920 -0.4232  0.0470
  739MOL0     C97427   6.497   6.945   4.814  0.9666  0.1587 -0.0062
  739MOL0     C97428   6.625   6.864   4.786  0.2898  0.3178 -0.2458
  739MOL0     C97429   6.727   6.865   4.900 -1.2264  0.0179 -0.3894
  739MOL0     C97430   6.833   6.759   4.865 -0.1049 -1.0053 -0.0436
  739MOL0     C97431   6.968   6.811   4.804  0.8872 -0.5268 -0.0155
  739MOL0     C97432   7.072   6.698   4.783  0.0613 -0.0121 -0.4866
  739MOL0     N97433   7.145   6.703   4.664 -0.0176 -0.1775  0.4028
  739MOL0     C97434   7.090   6.712   4.532  0.4933  0.4820 -0.9960
  739MOL0     C97435   7.186   6.694   4.449 -0.4425  0.9588  0.3161
  739MOL0     C97436   7.170   6.660   4.300 -0.1913 -0.6389  0.0277
  739MOL0     C97437   7.020   6.670   4.261 -0.5754  0.7336 -0.3078
  739MOL0     C97438   6.956   6.533   4.269  0.4677  0.0490 -0.6416
  739MOL0     C97439   6.809   6.541   4.242  0.6798  0.5245  0.3670
  739MOL0     O97440   6.750   6.655   4.313  0.3589 -0.1080 -0.0809
  739MOL0     C97441   6.617   6.674   4.299 -0.1473 -0.3240 -0.1714
  739MOL0     C97442   6.537   6.580   4.242 -0.1956  0.2982  0.4351
  739MOL0     C97443   6.408   6.601   4.241  0.6318  0.3356  0.3446
  739MOL0     C97444   6.345   6.719   4.306  0.4107 -0.6964 -0.2500
  739MOL0     C97445   6.195   6.726   4.321 -0.2221 -0.4538  0.3545
  739MOL0     O97446   6.123   6.615   4.286  0.4994 -0.0244 -0.5018
  739MOL0     C97447   5.992   6.622   4.310 -0.0670 -0.8553  0.5616
  739MOL0     C97448   5.924   6.506   4.345 -0.2709 -0.1713  0.1853
  739MOL0     C97449   5.786   6.500   4.368  0.1637 -0.8956  0.3206
  739MOL0     C97450   5.702   6.604   4.351 -0.3254  0.0265  0.4312
  739MOL0     O97451   5.573   6.581   4.380 -0.9919  0.7067  0.2103
  739MOL0     C97452   5.499   6.701   4.420 -0.9750  0.2154  0.5160
  739MOL0     C97453   5.360   6.648   4.473 -1.1890  0.1997  0.2338
  739MOL0     C97454   5.384   6.566   4.604  0.4233 -0.1694 -0.6596
  739MOL0     C97455   5.253   6.515   4.649  0.2243  1.1973 -0.0418
  739MOL0     C97456   5.285   6.424   4.769 -0.0531 -0.4242  0.1114
  739MOL0     C97457   5.173   6.366   4.857  0.0520 -0.8817 -0.6116
  739MOL0     C97458   5.102   6.466   4.949  0.2136 -0.3657  0.7104
  739MOL0     C97459   5.043   6.386   5.076  0.5686 -0.5397 -0.9626
  739MOL0    Cl97460   5.193   6.338   5.178  0.0719  0.0804  0.0629
  739MOL0     C97461   5.767   6.720   4.294  0.2611  0.2424 -0.4842
  739MOL0     C97462   5.908   6.733   4.279 -0.2079  0.1510  0.2259
  739MOL0     O97463   6.148   6.828   4.372  0.4784  0.4040  0.4438
  739MOL0     C97464   6.433   6.813   4.368  0.8101 -0.3901 -0.6931
  739MOL0     C97465   6.567   6.787   4.371 -0.5087 -0.6444  0.3815
  739MOL0     N97466   7.297   6.686   4.523 -1.3245  1.3516  0.1233
  739MOL0     N97467   7.277   6.688   4.648 -0.9185  0.0665  0.6622
  739MOL0     C97468   5.995   7.020   4.817  0.5708 -0.6010 -0.5774
  739MOL0     C97469   5.860   7.066   4.831 -0.5245 -0.5017  0.5282
  739MOL0     C97470   5.400   6.975   4.863 -0.0559  0.2721 -0.0652
  739MOL0     C97471   5.394   7.071   4.962  0.1078  0.3308  0.3699
  739MOL0     C97472   5.269   7.099   5.024 -0.4812 -0.1566  0.1840
  739MOL0     C97473   5.152   7.030   4.980 -1.3397 -0.3637  0.3295
  739MOL0     O97474   5.049   7.049   5.067  0.5500  0.4776  0.4065
  739MOL0     C97475   4.928   6.986   5.059 -0.6205  0.6109  0.0291
  739MOL0     C97476   4.951   6.838   5.121  0.6230  0.4826  0.3170
  739MOL0     C97477   5.041   6.830   5.245  0.8782 -0.5046 -0.1031
  739MOL0     C97478   4.993   6.925   5.350  0.5573  0.0660 -0.9957
  739MOL0     C97479   5.084   6.929   5.463  0.0687 -0.7553  0.2437
  739MOL0     C97480   5.161   6.957   5.550  0.0142  0.1523  0.1263
  739MOL0     C97481   5.162   6.953   4.863 -0.3395 -0.7369 -0.2564
  739MOL0     C97482   5.283   6.899   4.826 -0.1481  0.5371 -0.4752
  739MOL0     H97483   5.721   6.846   4.616 -2.2550 -0.6311  0.5448
  739MOL0     H97484   5.967   6.790   4.576  0.7928 -0.8906  0.1331
  739MOL0     H97485   6.251   6.954   4.867 -2.5394  0.4796  0.4477
  739MOL0     H97486   6.252   7.065   4.737  0.3973 -0.1916 -0.8234
  739MOL0     H97487   6.418   6.951   4.618 -1.6218 -1.1778 -0.6638
  739MOL0     H97488   6.390   6.800   4.696 -2.6443  0.1031 -3.2312
  739MOL0     H97489   6.467   6.943   4.919  0.5223 -0.9308 -0.1376
  739MOL0     H97490   6.514   7.049   4.785  2.4989 -0.4231 -1.3486
  739MOL0     H97491   6.599   6.758   4.781  3.2942 -0.5118 -0.0435
  739MOL0     H97492   6.653   6.899   4.686 -1.9041  0.0773 -0.9998
  739MOL0     H97493   6.681   6.849   4.998  0.2591 -1.1242  0.1403
  739MOL0     H97494   6.779   6.961   4.888 -0.3419 -0.0439  2.3445
  739MOL0     H97495   6.802   6.672   4.806  1.1665 -2.7701  1.7417
  739MOL0     H97496   6.855   6.712   4.961 -2.4492  3.0224  2.7725
  739MOL0     H97497   6.953   6.851   4.703  0.6853  0.6810  0.4798
  739MOL0     H97498   7.016   6.892   4.859  2.2901 -0.3690 -1.3869
  739MOL0     H97499   7.028   6.602   4.810  3.5247 -1.2842  1.1815
  739MOL0     H97500   7.154   6.716   4.853 -0.5178 -1.4091  0.6088
  739MOL0     H97501   6.984   6.723   4.512  1.0667  2.7950 -3.3709
  739MOL0     H97502   7.213   6.562   4.278 -0.3185 -0.6062 -0.3859
  739MOL0     H97503   7.233   6.730   4.244  3.2274 -1.1403  2.9215
  739MOL0     H97504   7.018   6.705   4.158  2.5218  1.4982 -0.1889
  739MOL0     H97505   6.959   6.738   4.322  0.8695  1.7508  0.0523
  739MOL0     H97506   6.999   6.457   4.203  2.4924  1.1054 -0.6290
  739MOL0     H97507   6.969   6.508   4.374  2.4782  0.4360 -0.7529
  739MOL0     H97508   6.766   6.447   4.277  1.0606  0.2066 -0.0051
  739MOL0     H97509   6.790   6.545   4.134  2.8029  2.7988 -0.0104
  739MOL0     H97510   6.579   6.491   4.195 -4.2015 -0.2918 -2.5614
  739MOL0     H97511   6.345   6.519   4.208 -1.4262  1.6935  0.6920
  739MOL0     H97512   5.977   6.421   4.387 -1.7268 -0.7594  0.8651
  739MOL0     H97513   5.741   6.409   4.405  0.0508 -1.6242 -1.4719
  739MOL0     H97514   5.489   6.773   4.338 -3.0159 -0.9860 -0.3836
  739MOL0     H97515   5.558   6.754   4.495 -0.4195 -0.4739  0.5768
  739MOL0     H97516   5.314   6.580   4.401  1.8047 -2.7601  0.8515
  739MOL0     H97517   5.299   6.735   4.501 -1.2356  0.4252 -0.5229
  739MOL0     H97518   5.419   6.638   4.679  1.1534  1.6411 -2.6447
  739MOL0     H97519   5.458   6.488   4.585  0.8386  0.7811 -3.4224
  739MOL0     H97520   5.194   6.602   4.680  1.1240  2.2421 -1.1722
  739MOL0     H97521   5.207   6.451   4.573  1.5952  1.4523 -1.1359
  739MOL0     H97522   5.354   6.463   4.844  2.7194 -5.1813  0.4588
  739MOL0     H97523   5.337   6.342   4.720 -0.7695 -0.3192 -0.8541
  739MOL0     H97524   5.218   6.286   4.918  0.0515 -0.5773 -0.2091
  739MOL0     H97525   5.092   6.323   4.798 -1.6111 -0.3387  1.1716
  739MOL0     H97526   5.161   6.553   4.980 -0.9956  0.6867  0.1495
  739MOL0     H97527   5.018   6.506   4.891 -0.6626 -0.4714  1.8539
  739MOL0     H97528   4.987   6.296   5.049  1.7511 -1.3783 -0.6824
  739MOL0     H97529   4.972   6.454   5.125 -0.8897 -1.0006 -2.3264
  739MOL0     H97530   5.701   6.804   4.275  0.2680  0.1595 -0.8826
  739MOL0     H97531   5.956   6.820   4.237  3.6149 -0.3429  3.0535
  739MOL0     H97532   6.380   6.897   4.411  1.0977 -0.2648 -0.5772
  739MOL0     H97533   6.631   6.868   4.405  0.1760 -1.0944  0.1666
  739MOL0     H97534   6.068   7.078   4.874 -1.8442 -0.9486  3.1580
  739MOL0     H97535   5.836   7.143   4.904  1.6964  0.8431 -0.0692
  739MOL0     H97536   5.483   7.124   4.996  1.4571 -1.8694  0.4910
  739MOL0     H97537   5.260   7.172   5.104 -2.7159 -0.3784  0.1987
  739MOL0     H97538   4.897   6.985   4.955  0.7179  2.7811 -0.4628
  739MOL0     H97539   4.855   7.031   5.128  1.7814  2.6547  1.4069
  739MOL0     H97540   4.864   6.775   5.137 -2.2841  3.4967 -2.0317
  739MOL0     H97541   4.994   6.791   5.032 -0.1714 -2.8475  1.5539
  739MOL0     H97542   5.145   6.850   5.215  1.0550  1.3292  1.5750
  739MOL0     H97543   5.027   6.737   5.300 -1.1454  0.2338  0.7294
  739MOL0     H97544   4.988   7.031   5.324 -0.3969  0.3389  0.1982
  739MOL0     H97545   4.893   6.895   5.381  1.4373 -1.7197  0.3471
  739MOL0     H97546   5.222   6.966   5.638  1.0193  0.0299 -0.5475
  739MOL0     H97547   5.071   6.909   4.822 -1.7671  0.0784  1.8611
  739MOL0     H97548   5.295   6.822   4.751  1.4225  1.7133 -1.4987
  740MOL0     O97549   2.635   0.052   5.439  0.4602  0.5488 -0.2470
  740MOL0     C97550   2.522   0.050   5.485  0.0919  0.1276  0.0103
  740MOL0     O97551   2.410  -0.003   5.426  0.8515 -0.5089  1.2770
  740MOL0     C97552   2.382   0.002   5.288 -0.1447 -0.2641 -1.2439
  740MOL0     C97553   2.270  -0.064   5.251 -0.9067  0.0248  0.0910
  740MOL0     C97554   2.238  -0.068   5.115  0.0590  0.5157  0.5723
  740MOL0     C97555   2.295   0.016   5.022 -0.3476 -0.4225 -0.0720
  740MOL0     O97556   2.258   0.024   4.886  0.0331  1.0694 -0.8951
  740MOL0     C97557   2.169  -0.072   4.822 -0.0470  0.7983  1.3935
  740MOL0     C97558   2.193  -0.078   4.677 -0.5053  0.0370 -0.0221
  740MOL0     C97559   2.339  -0.111   4.640  0.2639  0.2328  0.0954
  740MOL0     C97560   2.374  -0.135   4.493  0.6626 -0.9432  0.1036
  740MOL0     C97561   2.307  -0.279   4.460  0.4586  0.2206  0.9475
  740MOL0     C97562   2.370  -0.337   4.329 -0.3420 -0.1580  1.1723
  740MOL0     C97563   2.319  -0.257   4.209 -0.3886 -0.0123  1.5949
  740MOL0     C97564   2.369  -0.320   4.081 -0.8543  0.6529  0.2703
  740MOL0     N97565   2.509  -0.290   4.053  0.7455  0.1492  0.3959
  740MOL0     C97566   2.571  -0.163   4.052  0.1559 -1.1525 -0.2150
  740MOL0     C97567   2.703  -0.206   4.031  0.3529  0.4863  1.1259
  740MOL0     C97568   2.828  -0.131   4.017  0.8246 -0.2443 -0.3172
  740MOL0     C97569   2.857  -0.045   3.885 -0.3970 -0.1427  0.3394
  740MOL0     C97570   2.736   0.045   3.865 -0.2127 -0.0470 -0.8176
  740MOL0     C97571   2.629  -0.007   3.762  0.1814 -0.1847 -0.8071
  740MOL0     O97572   2.514   0.076   3.784  0.8466 -0.3177  0.0812
  740MOL0     C97573   2.398   0.019   3.830  0.5863 -0.8533 -0.8085
  740MOL0     C97574   2.327  -0.082   3.761 -1.2908 -0.0914 -0.7714
  740MOL0     C97575   2.205  -0.124   3.808 -0.2543 -0.3112 -0.9796
  740MOL0     C97576   2.131  -0.057   3.916 -0.0906 -0.9015 -0.4404
  740MOL0     C97577   1.998  -0.091   3.983 -1.1238 -0.3715  0.1761
  740MOL0     O97578   1.945  -0.000   4.067 -0.0203 -0.0118 -0.3175
  740MOL0     C97579   1.816  -0.002   4.116 -0.7764  0.8377 -0.0738
  740MOL0     C97580   1.790   0.066   4.246  1.0030  0.6681  0.7143
  740MOL0     C97581   1.655   0.080   4.287 -0.2662 -0.3268  0.6396
  740MOL0     C97582   1.553   0.027   4.205 -0.0582 -0.5132 -0.5622
  740MOL0     O97583   1.415   0.041   4.223  0.1052 -0.5736 -0.3008
  740MOL0     C97584   1.366   0.127   4.321  0.7654  0.4293 -0.0120
  740MOL0     C97585   1.385   0.277   4.302  0.3570 -0.1188  0.4546
  740MOL0     C97586   1.277   0.352   4.222  0.2620 -0.0595 -0.1810
  740MOL0     C97587   1.298   0.500   4.221  0.0563  0.3810  0.0311
  740MOL0     C97588   1.183   0.574   4.155  0.9533  0.5633 -0.0859
  740MOL0     C97589   1.176   0.542   4.010 -0.7700  0.4338 -0.5701
  740MOL0     C97590   1.073   0.635   3.935  0.2744 -0.6552 -0.2873
  740MOL0     C97591   1.116   0.773   3.956 -0.3396  0.6596  0.0501
  740MOL0    Cl97592   1.053   0.869   3.827 -0.1599 -0.1651  0.2267
  740MOL0     C97593   1.583  -0.035   4.085  0.3338  0.5506 -0.2425
  740MOL0     C97594   1.716  -0.048   4.041 -0.7589  0.2160 -0.1489
  740MOL0     O97595   1.952  -0.202   3.945  0.7794  0.3452 -0.3235
  740MOL0     C97596   2.211   0.046   3.980 -0.0638  0.1674 -0.5895
  740MOL0     C97597   2.333   0.078   3.937 -1.1345  0.0943 -0.2633
  740MOL0     N97598   2.716  -0.341   4.014  0.4050 -0.6781 -0.1816
  740MOL0     N97599   2.600  -0.387   4.044 -1.7988 -0.5474 -0.3330
  740MOL0     C97600   2.387   0.108   5.072 -0.8791 -0.0913 -0.1576
  740MOL0     C97601   2.440   0.088   5.195  0.2058  0.6687 -0.3234
  740MOL0     C97602   2.501   0.107   5.624  0.5108 -0.4862  0.3464
  740MOL0     C97603   2.373   0.101   5.685  0.2141 -0.2835 -0.2420
  740MOL0     C97604   2.348   0.151   5.820  0.4702 -0.3673 -0.0547
  740MOL0     C97605   2.456   0.217   5.879  0.3904 -0.1059  0.2647
  740MOL0     O97606   2.441   0.247   6.014  0.0314  0.2773  0.5777
  740MOL0     C97607   2.561   0.262   6.095  0.0477  0.2544 -0.3183
  740MOL0     C97608   2.506   0.298   6.237  0.4275  0.2524 -0.2193
  740MOL0     C97609   2.626   0.321   6.330  0.2499  0.4241 -0.0457
  740MOL0     C97610   2.581   0.323   6.473  0.4171  0.7564 -0.9137
  740MOL0     C97611   2.470   0.414   6.511  0.1735  0.0417  0.2445
  740MOL0     C97612   2.383   0.491   6.546  0.5157 -0.2367  0.0511
  740MOL0     C97613   2.582   0.224   5.824  0.3252 -0.0875 -0.0994
  740MOL0     C97614   2.604   0.171   5.697  0.0502  0.0265 -0.1114
  740MOL0     H97615   2.221  -0.121   5.329  2.4754  2.2347  4.2228
  740MOL0     H97616   2.153  -0.133   5.096 -1.7498  2.8806  0.0963
  740MOL0     H97617   2.066  -0.040   4.840  0.4338  2.7679  0.8640
  740MOL0     H97618   2.193  -0.172   4.861  1.4996  0.8158  0.5684
  740MOL0     H97619   2.175   0.010   4.615  0.1507 -0.9426 -1.6892
  740MOL0     H97620   2.125  -0.158   4.645  1.5824 -3.7804  4.0025
  740MOL0     H97621   2.373  -0.199   4.694  1.3949  1.0109  0.6909
  740MOL0     H97622   2.408  -0.041   4.688  0.6329 -0.7971  1.1032
  740MOL0     H97623   2.329  -0.055   4.434  0.1403 -1.7609 -0.6200
  740MOL0     H97624   2.482  -0.142   4.475  0.3787  0.4347 -2.5339
  740MOL0     H97625   2.201  -0.256   4.444  1.2192  4.5452  0.9241
  740MOL0     H97626   2.305  -0.348   4.544 -0.3311  1.4541  1.9926
  740MOL0     H97627   2.351  -0.444   4.317  2.2853 -0.3217 -3.7209
  740MOL0     H97628   2.479  -0.338   4.323 -0.3737  1.2375 -0.2684
  740MOL0     H97629   2.210  -0.254   4.197 -0.2268 -1.7271 -1.8068
  740MOL0     H97630   2.349  -0.152   4.219 -2.6309  0.6112  2.2149
  740MOL0     H97631   2.312  -0.285   3.994 -0.5611 -1.5277 -0.8604
  740MOL0     H97632   2.345  -0.426   4.087 -0.1166  0.3300 -1.8610
  740MOL0     H97633   2.527  -0.068   4.078 -0.0838 -2.0561  3.0663
  740MOL0     H97634   2.911  -0.203   4.024  1.2361  0.3492  4.9240
  740MOL0     H97635   2.839  -0.067   4.105  3.1414  2.7200 -2.5607
  740MOL0     H97636   2.890  -0.095   3.793 -1.5835 -0.0535 -0.1588
  740MOL0     H97637   2.940   0.019   3.917 -0.8161 -0.4588  2.1512
  740MOL0     H97638   2.687   0.064   3.960  0.4567 -2.2028  0.0091
  740MOL0     H97639   2.758   0.145   3.827 -2.8591  1.5630  1.4938
  740MOL0     H97640   2.610  -0.113   3.781  1.5767 -0.5410 -1.2574
  740MOL0     H97641   2.664  -0.003   3.659 -0.3318  0.8626 -0.9529
  740MOL0     H97642   2.377  -0.131   3.679  0.2990 -1.9064  1.1550
  740MOL0     H97643   2.170  -0.212   3.756  2.2036 -2.1536  0.2951
  740MOL0     H97644   1.876   0.106   4.300  0.5622 -1.0726  2.8566
  740MOL0     H97645   1.621   0.124   4.380 -2.4630 -2.0721  0.7408
  740MOL0     H97646   1.394   0.091   4.421  2.0540  0.8196 -0.2041
  740MOL0     H97647   1.257   0.125   4.328  0.6057  0.9703 -1.9404
  740MOL0     H97648   1.484   0.289   4.258  0.3889 -1.4597  0.1135
  740MOL0     H97649   1.385   0.320   4.403 -1.2503  0.6359  0.1690
  740MOL0     H97650   1.182   0.326   4.270  0.1117 -0.8803 -0.8918
  740MOL0     H97651   1.272   0.311   4.121  0.0284  0.2203 -0.2845
  740MOL0     H97652   1.309   0.533   4.325 -1.4856 -1.5233  0.8703
  740MOL0     H97653   1.385   0.525   4.160 -2.2300 -0.3161 -3.8379
  740MOL0     H97654   1.217   0.677   4.166 -1.6890  1.4770  0.3240
  740MOL0     H97655   1.087   0.536   4.192  0.1007  0.6994 -2.0118
  740MOL0     H97656   1.136   0.441   3.997 -0.2373  0.2423 -0.7533
  740MOL0     H97657   1.277   0.545   3.968  0.3494 -1.9418  1.6605
  740MOL0     H97658   1.060   0.605   3.831 -2.1960  1.3987 -0.6736
  740MOL0     H97659   0.979   0.620   3.988 -0.1420 -0.0431 -0.8400
  740MOL0     H97660   1.225   0.778   3.960 -0.4239  1.8448  2.8122
  740MOL0     H97661   1.090   0.804   4.058  0.6012  0.9718  0.2088
  740MOL0     H97662   1.504  -0.082   4.027  0.4424 -2.4201  1.7824
  740MOL0     H97663   1.737  -0.090   3.943 -0.5062 -0.8441  0.3357
  740MOL0     H97664   2.177   0.097   4.069  2.7375 -1.1078  1.3612
  740MOL0     H97665   2.379   0.160   3.992 -1.3298  0.0474 -0.0292
  740MOL0     H97666   2.435   0.182   5.009  0.1581  1.2317  2.0648
  740MOL0     H97667   2.527   0.143   5.228 -0.0298  1.3675 -0.8375
  740MOL0     H97668   2.296   0.041   5.638 -0.0892 -2.2462  2.5306
  740MOL0     H97669   2.254   0.144   5.873  2.6131 -2.8253  3.8914
  740MOL0     H97670   2.624   0.344   6.061 -1.3746  1.4951 -0.0669
  740MOL0     H97671   2.617   0.169   6.081  2.5512  2.0672 -3.5748
  740MOL0     H97672   2.436   0.382   6.234 -1.4596 -1.2607 -0.4533
  740MOL0     H97673   2.451   0.215   6.282 -2.0708  2.0779  0.2668
  740MOL0     H97674   2.680   0.412   6.303 -0.2099 -0.0073 -2.6275
  740MOL0     H97675   2.699   0.243   6.307 -1.2448 -0.2784 -2.8259
  740MOL0     H97676   2.550   0.223   6.507  1.0184  0.4848 -1.1506
  740MOL0     H97677   2.668   0.336   6.538 -0.1709 -3.8358  1.2055
  740MOL0     H97678   2.305   0.554   6.584 -0.0143 -1.6145  1.3618
  740MOL0     H97679   2.663   0.279   5.871 -0.2241  0.4636  0.2193
  740MOL0     H97680   2.704   0.163   5.655  1.0614  1.4121  1.8470
  741MOL0     O97681   5.822   4.667   9.786 -0.5186  0.4984  1.1051
  741MOL0     C97682   5.839   4.729   9.679  0.7023 -0.2827  0.2999
  741MOL0     O97683   5.888   4.683   9.557 -0.5063  0.4390 -0.2677
  741MOL0     C97684   5.903   4.549   9.530 -0.2120 -0.1932  0.9239
  741MOL0     C97685   5.949   4.442   9.618  0.0271 -0.0526 -0.7320
  741MOL0     C97686   5.986   4.310   9.572 -0.3424 -0.7713 -0.2163
  741MOL0     C97687   5.979   4.286   9.433  0.0391 -0.0259 -0.0898
  741MOL0     O97688   5.999   4.151   9.390 -0.1129 -0.3527 -0.1156
  741MOL0     C97689   5.981   4.122   9.255  0.0264  0.7329  0.4558
  741MOL0     C97690   6.031   3.980   9.219 -1.1299  0.0456  0.2304
  741MOL0     C97691   5.969   3.870   9.307  1.1702  0.0875  0.3144
  741MOL0     C97692   6.019   3.737   9.236  0.3899 -0.8529 -0.6388
  741MOL0     C97693   5.943   3.615   9.290  0.7895  0.2376 -0.4421
  741MOL0     C97694   5.798   3.618   9.255  0.0708  0.3488 -0.6773
  741MOL0     C97695   5.736   3.474   9.295  0.0777 -0.1016 -0.4301
  741MOL0     C97696   5.793   3.355   9.212  0.5668  0.4329 -0.4816
  741MOL0     N97697   5.705   3.239   9.188 -0.0658 -0.1723 -0.9907
  741MOL0     C97698   5.697   3.134   9.274 -0.3072  0.4938  0.8327
  741MOL0     C97699   5.639   3.036   9.195 -0.7177  0.3321  0.1881
  741MOL0     C97700   5.609   2.896   9.239 -0.0010 -0.0786  0.6488
  741MOL0     C97701   5.748   2.828   9.260 -0.2554  0.3219 -0.0810
  741MOL0     C97702   5.754   2.673   9.240 -0.0651 -0.0592 -0.0634
  741MOL0     C97703   5.892   2.621   9.222  0.4713  0.9671 -0.0358
  741MOL0     O97704   5.987   2.662   9.325  0.3865 -0.1111  0.8069
  741MOL0     C97705   6.119   2.612   9.307 -0.4480 -0.3743 -0.7842
  741MOL0     C97706   6.165   2.528   9.407  0.3779  0.5333  0.2435
  741MOL0     C97707   6.286   2.468   9.395 -0.3312  0.5275 -0.0012
  741MOL0     C97708   6.375   2.506   9.296  0.5925  1.0022 -0.0714
  741MOL0     C97709   6.507   2.451   9.277 -1.0744  0.5685 -0.4982
  741MOL0     O97710   6.532   2.331   9.340  0.0061 -0.2239 -0.1508
  741MOL0     C97711   6.662   2.308   9.390  0.2246  0.1155 -0.0325
  741MOL0     C97712   6.679   2.172   9.420  0.8215 -0.0951 -0.0966
  741MOL0     C97713   6.806   2.127   9.463 -0.4827 -0.8862 -0.8550
  741MOL0     C97714   6.915   2.213   9.460 -0.9772  0.2234  0.5490
  741MOL0     O97715   7.034   2.159   9.488 -0.8248  0.1062  0.4768
  741MOL0     C97716   7.111   2.241   9.582 -0.2914 -0.8507  1.0955
  741MOL0     C97717   7.192   2.139   9.665  0.0213 -0.0322  0.2154
  741MOL0     C97718   7.225   2.004   9.579  0.7428 -0.4008 -0.3504
  741MOL0     C97719   7.372   1.956   9.584 -0.3302  0.1195  0.0716
  741MOL0     C97720   7.376   1.799   9.587 -0.1315 -0.2861 -0.5604
  741MOL0     C97721   7.515   1.741   9.623  0.0263 -0.0046  0.6265
  741MOL0     C97722   7.502   1.593   9.645 -0.1359  0.3441 -0.0322
  741MOL0     C97723   7.590   1.505   9.560  0.3133  0.7394 -0.8027
  741MOL0    Cl97724   7.506   1.479   9.399 -0.0295 -0.5184  0.2045
  741MOL0     C97725   6.898   2.347   9.416  0.1935  0.1166  0.8134
  741MOL0     C97726   6.777   2.395   9.384  0.3813 -0.6459 -0.2736
  741MOL0     O97727   6.589   2.518   9.219  0.0939 -0.5712 -0.4641
  741MOL0     C97728   6.323   2.596   9.206 -0.0218  0.0016  0.3702
  741MOL0     C97729   6.200   2.649   9.204  0.1980  0.3837 -0.4157
  741MOL0     N97730   5.625   3.078   9.062 -0.4513 -0.3282 -0.4079
  741MOL0     N97731   5.672   3.205   9.063  0.2336  0.7580  0.4253
  741MOL0     C97732   5.943   4.391   9.351 -0.2099 -0.2743  0.0440
  741MOL0     C97733   5.894   4.513   9.402 -1.1634  1.1055 -0.0032
  741MOL0     C97734   5.766   4.854   9.669  0.4206 -1.1409  0.8012
  741MOL0     C97735   5.663   4.895   9.758  0.3344 -0.1898  0.1773
  741MOL0     C97736   5.590   5.020   9.738  0.4930  0.0260  0.2280
  741MOL0     C97737   5.593   5.075   9.617 -0.6817  0.6671  0.3487
  741MOL0     O97738   5.512   5.180   9.601  0.2306  0.6015  0.5554
  741MOL0     C97739   5.473   5.233   9.471 -0.1316 -0.0253 -0.2754
  741MOL0     C97740   5.329   5.284   9.464 -0.1165 -0.1465  0.0292
  741MOL0     C97741   5.222   5.190   9.505 -0.5579 -0.3823  0.2523
  741MOL0     C97742   5.084   5.268   9.490 -0.2081  0.3081 -0.4623
  741MOL0     C97743   5.004   5.212   9.377 -0.4727 -0.0993 -0.0505
  741MOL0     C97744   4.937   5.171   9.279 -0.8868 -0.9127 -0.8875
  741MOL0     C97745   5.692   5.022   9.528  0.7969  0.8107 -0.1454
  741MOL0     C97746   5.793   4.927   9.552  1.1185 -0.1309  0.5068
  741MOL0     H97747   5.965   4.470   9.721  1.5036 -2.8542 -0.0779
  741MOL0     H97748   6.019   4.227   9.633  0.5140 -0.7446 -0.6243
  741MOL0     H97749   6.048   4.192   9.205 -1.5438  0.9299 -1.4987
  741MOL0     H97750   5.877   4.130   9.223 -0.5488 -0.4430  1.9187
  741MOL0     H97751   6.140   3.976   9.229 -0.6238  1.5214 -3.2730
  741MOL0     H97752   6.010   3.950   9.116 -2.4409 -1.2424  0.8480
  741MOL0     H97753   5.860   3.870   9.296  1.2669 -0.1053 -0.7130
  741MOL0     H97754   6.005   3.872   9.410  0.3714  1.4305  0.5904
  741MOL0     H97755   6.006   3.745   9.128 -1.3029  0.4703 -0.3765
  741MOL0     H97756   6.125   3.723   9.263  1.2384  3.6746 -0.8705
  741MOL0     H97757   5.948   3.621   9.399  1.9449 -1.9512 -0.3173
  741MOL0     H97758   5.982   3.518   9.258 -0.6411 -0.1326 -1.1523
  741MOL0     H97759   5.786   3.645   9.150  0.1099  0.4388 -0.6580
  741MOL0     H97760   5.756   3.694   9.321  0.5786 -0.2699  0.3838
  741MOL0     H97761   5.752   3.454   9.402 -0.8953  2.1930  0.2026
  741MOL0     H97762   5.628   3.473   9.276  0.2110  0.8929 -1.2975
  741MOL0     H97763   5.885   3.314   9.254  1.2048 -2.7237 -4.3179
  741MOL0     H97764   5.828   3.392   9.115  1.4329  2.4761  0.5264
  741MOL0     H97765   5.728   3.128   9.378 -3.5380 -1.7420  1.8501
  741MOL0     H97766   5.547   2.838   9.170  1.0528 -2.8971  1.8954
  741MOL0     H97767   5.561   2.890   9.337 -1.5357 -1.6942 -0.1589
  741MOL0     H97768   5.795   2.859   9.354 -0.3500 -0.3121  0.1829
  741MOL0     H97769   5.807   2.880   9.185 -1.7678  2.0955 -0.1214
  741MOL0     H97770   5.706   2.628   9.328 -0.6015  1.4969  0.4770
  741MOL0     H97771   5.692   2.639   9.157  0.6176 -0.2950 -0.4840
  741MOL0     H97772   5.927   2.662   9.127 -1.8375  1.4288 -0.7469
  741MOL0     H97773   5.884   2.512   9.221 -1.4960  0.9728  2.9568
  741MOL0     H97774   6.097   2.490   9.483 -0.2761 -1.0064 -1.0632
  741MOL0     H97775   6.319   2.385   9.458 -0.5654  0.9310  0.6642
  741MOL0     H97776   6.588   2.114   9.411 -0.2310  1.7363 -2.0741
  741MOL0     H97777   6.811   2.028   9.507 -1.6695 -0.2428  0.8322
  741MOL0     H97778   7.048   2.291   9.656  0.7700 -2.0919  2.9163
  741MOL0     H97779   7.169   2.309   9.519 -1.1712  0.8497  2.0637
  741MOL0     H97780   7.126   2.116   9.749 -1.2334 -2.0560 -1.2176
  741MOL0     H97781   7.286   2.179   9.706  0.2774 -1.0832  0.6804
  741MOL0     H97782   7.222   2.018   9.470 -2.8309 -1.8270 -0.5603
  741MOL0     H97783   7.152   1.925   9.595  0.6534 -0.6158 -1.6751
  741MOL0     H97784   7.427   1.991   9.496 -1.7419  0.2373 -0.7980
  741MOL0     H97785   7.433   1.994   9.667  0.2474  0.2617 -0.4039
  741MOL0     H97786   7.344   1.760   9.490  1.3724  2.5188 -2.3283
  741MOL0     H97787   7.303   1.770   9.663  0.4579 -2.6382 -0.8142
  741MOL0     H97788   7.549   1.802   9.707 -1.5135 -0.4538  1.6154
  741MOL0     H97789   7.585   1.740   9.539 -0.1294 -1.1355  0.4955
  741MOL0     H97790   7.554   1.565   9.737  4.6431  0.5195 -2.3819
  741MOL0     H97791   7.399   1.556   9.653  0.7111 -1.9940  0.9311
  741MOL0     H97792   7.597   1.404   9.603 -3.9949  1.1653  1.4207
  741MOL0     H97793   7.689   1.548   9.542 -0.0135  2.8474  1.7591
  741MOL0     H97794   6.980   2.418   9.418 -1.1865  1.7851  0.8255
  741MOL0     H97795   6.768   2.501   9.363  2.8581 -0.6250 -1.6417
  741MOL0     H97796   6.384   2.626   9.121 -0.9222  1.9522  0.3616
  741MOL0     H97797   6.156   2.696   9.116 -0.9687 -1.2974 -0.7722
  741MOL0     H97798   5.936   4.385   9.242  2.4191  1.8985 -0.3714
  741MOL0     H97799   5.870   4.586   9.326 -0.5342 -0.4340 -1.7730
  741MOL0     H97800   5.655   4.839   9.850  2.7251 -1.3921 -0.2660
  741MOL0     H97801   5.529   5.073   9.810  1.1855  1.5746 -0.2658
  741MOL0     H97802   5.482   5.148   9.403 -1.3461 -3.5636  3.5552
  741MOL0     H97803   5.541   5.315   9.447 -0.0434 -0.1953 -0.6130
  741MOL0     H97804   5.317   5.376   9.522 -0.3936  0.4929 -1.0035
  741MOL0     H97805   5.327   5.322   9.361  0.3880 -0.3586 -0.0643
  741MOL0     H97806   5.233   5.163   9.611 -1.0372  0.0312  0.4126
  741MOL0     H97807   5.221   5.095   9.451  0.9051 -0.6342  0.6243
  741MOL0     H97808   5.029   5.256   9.583  1.1549 -1.9056  0.1502
  741MOL0     H97809   5.108   5.374   9.482  3.8003 -0.2787  1.1233
  741MOL0     H97810   4.880   5.122   9.203 -0.8171 -2.9264  0.2777
  741MOL0     H97811   5.688   5.077   9.434  1.7383 -1.3975 -1.5582
  741MOL0     H97812   5.872   4.898   9.484  1.8619 -0.3468  1.4343
  742MOL0     O97813   0.368   0.605   6.535 -0.3494  0.5382  0.2839
  742MOL0     C97814   0.393   0.661   6.427  0.2548 -0.7154  0.0040
  742MOL0     O97815   0.318   0.636   6.311 -0.0005  0.9084 -0.8111
  742MOL0     C97816   0.224   0.537   6.312  0.0061  0.5291 -0.2037
  742MOL0     C97817   0.124   0.525   6.408  0.3961  0.7281 -0.0187
  742MOL0     C97818   0.024   0.429   6.387  0.3443  0.9230  0.0228
  742MOL0     C97819   0.030   0.339   6.284 -0.6227  0.9801  0.2311
  742MOL0     O97820  -0.066   0.239   6.282  0.2086  0.3726 -0.4790
  742MOL0     C97821  -0.027   0.110   6.314  1.0880  0.8937 -0.5307
  742MOL0     C97822  -0.054   0.093   6.470 -0.6109  0.7389  0.4790
  742MOL0     C97823   0.078   0.134   6.552 -0.1906  0.2866 -0.2473
  742MOL0     C97824   0.084   0.057   6.691 -0.8812  0.0294 -0.4163
  742MOL0     C97825   0.115   0.154   6.808  0.2351  0.1318  0.0138
  742MOL0     C97826   0.256   0.203   6.805 -1.1622  0.5740  0.1689
  742MOL0     C97827   0.269   0.319   6.896 -1.0257  0.5696  0.7505
  742MOL0     C97828   0.399   0.390   6.882 -0.6363  0.6904  0.0597
  742MOL0     N97829   0.415   0.495   6.989 -0.2616 -1.2115 -0.3094
  742MOL0     C97830   0.457   0.479   7.121  0.3673 -1.1490  0.4516
  742MOL0     C97831   0.463   0.612   7.177 -0.0988 -0.6548 -0.5120
  742MOL0     C97832   0.513   0.648   7.313  0.8264 -0.0328  0.6955
  742MOL0     C97833   0.409   0.729   7.393  0.6322 -0.3180 -0.3831
  742MOL0     C97834   0.388   0.877   7.351  0.7424  0.2382  0.3615
  742MOL0     C97835   0.511   0.975   7.358 -0.2260  0.2599 -0.1648
  742MOL0     O97836   0.459   1.114   7.353 -0.2482  0.3265  0.1425
  742MOL0     C97837   0.472   1.199   7.455  0.2396  0.0929 -1.2276
  742MOL0     C97838   0.491   1.147   7.591 -0.3776  0.2301 -0.9028
  742MOL0     C97839   0.504   1.237   7.696 -0.4042  0.1003 -0.1657
  742MOL0     C97840   0.511   1.378   7.673  0.0200  0.6851 -0.0603
  742MOL0     C97841   0.536   1.464   7.800 -0.0208  0.0451  0.2718
  742MOL0     O97842   0.517   1.593   7.776 -0.2166  0.1116 -0.1227
  742MOL0     C97843   0.547   1.677   7.883  0.0846 -0.4306 -0.0176
  742MOL0     C97844   0.471   1.687   7.994  0.1192 -0.5094 -0.5421
  742MOL0     C97845   0.487   1.794   8.092 -0.6765  0.4216 -0.5851
  742MOL0     C97846   0.595   1.884   8.092  0.8544 -0.3194  0.5383
  742MOL0     O97847   0.613   1.972   8.193  1.0940 -0.4325 -0.1301
  742MOL0     C97848   0.749   1.997   8.224 -1.0735  0.4656  0.6125
  742MOL0     C97849   0.747   2.087   8.343  0.2679  0.0500 -0.3198
  742MOL0     C97850   0.890   2.141   8.373  0.4256 -0.2066 -0.3448
  742MOL0     C97851   0.882   2.219   8.504  0.1130  0.3765  0.2119
  742MOL0     C97852   1.015   2.271   8.555  0.1153  0.2399  0.4964
  742MOL0     C97853   1.093   2.178   8.643 -0.4078  0.1334 -0.0719
  742MOL0     C97854   1.194   2.264   8.731  0.8509 -0.2721  0.0828
  742MOL0     C97855   1.294   2.338   8.638  0.9154  0.4037 -0.9598
  742MOL0    Cl97856   1.406   2.423   8.749 -0.4801  0.6478  0.1084
  742MOL0     C97857   0.676   1.867   7.976 -1.0748  0.1901 -0.8455
  742MOL0     C97858   0.652   1.779   7.880  0.6588 -0.0246  0.8699
  742MOL0     O97859   0.573   1.413   7.908 -0.0522 -0.1935  0.2762
  742MOL0     C97860   0.484   1.432   7.545 -0.1585  0.2555  0.0815
  742MOL0     C97861   0.463   1.345   7.440  0.1701  0.3725  0.2660
  742MOL0     N97862   0.421   0.705   7.078 -0.6043 -0.5077  0.0402
  742MOL0     N97863   0.393   0.633   6.970  0.0116  0.0280  0.5528
  742MOL0     C97864   0.129   0.351   6.189  0.5670 -0.2650  0.1402
  742MOL0     C97865   0.230   0.452   6.206  0.3643  0.4901  0.1744
  742MOL0     C97866   0.505   0.771   6.420 -0.1806  0.0550  0.5985
  742MOL0     C97867   0.514   0.827   6.297 -0.4040  0.5386  0.3742
  742MOL0     C97868   0.620   0.914   6.266 -0.3716 -0.1137  0.5293
  742MOL0     C97869   0.699   0.962   6.380  0.5738 -0.2485 -0.3877
  742MOL0     O97870   0.788   1.057   6.391 -0.2252 -0.2302  0.2543
  742MOL0     C97871   0.758   1.182   6.324 -0.0921 -0.1114 -0.9009
  742MOL0     C97872   0.677   1.281   6.414  0.0792  0.8701  0.0626
  742MOL0     C97873   0.743   1.327   6.550 -0.3566  0.8644 -0.3540
  742MOL0     C97874   0.659   1.431   6.635 -0.4683  0.6736  0.8583
  742MOL0     C97875   0.677   1.564   6.584  0.3128 -0.3162 -0.2144
  742MOL0     C97876   0.696   1.674   6.533 -0.1791 -1.2762  0.0431
  742MOL0     C97877   0.681   0.900   6.504 -0.2167  0.6048  0.8224
  742MOL0     C97878   0.589   0.807   6.525 -0.2166  1.1815 -0.2263
  742MOL0     H97879   0.114   0.599   6.487 -0.4532  1.5401 -0.8668
  742MOL0     H97880  -0.056   0.425   6.461 -0.0913  0.1946 -0.4759
  742MOL0     H97881   0.073   0.085   6.275 -0.8089 -3.5520 -3.4498
  742MOL0     H97882  -0.089   0.043   6.253 -0.1136  3.8938 -2.8914
  742MOL0     H97883  -0.082  -0.011   6.487 -0.6496  0.5890 -0.4572
  742MOL0     H97884  -0.133   0.162   6.501 -1.1445  1.9713 -3.1258
  742MOL0     H97885   0.072   0.241   6.570  0.7149  0.5093 -1.1649
  742MOL0     H97886   0.171   0.114   6.498 -0.4035 -0.6587 -0.2930
  742MOL0     H97887  -0.019   0.026   6.711 -0.3857  0.1952  2.8813
  742MOL0     H97888   0.145  -0.034   6.689 -1.5079 -0.4116 -2.6632
  742MOL0     H97889   0.096   0.108   6.906 -1.4437 -1.0910 -0.8154
  742MOL0     H97890   0.046   0.239   6.804 -1.3645 -1.0768  0.3370
  742MOL0     H97891   0.291   0.232   6.705  0.2616 -0.2655  0.3936
  742MOL0     H97892   0.318   0.116   6.826 -1.1749  0.0210 -1.8922
  742MOL0     H97893   0.185   0.382   6.864 -1.5115 -0.6886 -0.5469
  742MOL0     H97894   0.254   0.278   6.997  1.9116 -1.7834  0.3729
  742MOL0     H97895   0.390   0.445   6.787  0.4226 -1.9232 -1.6596
  742MOL0     H97896   0.488   0.326   6.877 -0.9188  0.3580 -2.6401
  742MOL0     H97897   0.486   0.385   7.166 -1.3182 -1.8234  0.2014
  742MOL0     H97898   0.604   0.708   7.310  0.4340  0.7063  2.5971
  742MOL0     H97899   0.536   0.551   7.358  4.8621  0.2805 -0.3188
  742MOL0     H97900   0.442   0.725   7.498 -0.8100 -1.4725  0.0700
  742MOL0     H97901   0.312   0.680   7.380  0.3542  0.3613 -0.8953
  742MOL0     H97902   0.344   0.875   7.251  1.3849 -0.4114  0.0731
  742MOL0     H97903   0.316   0.918   7.422 -1.1509 -2.9926  0.5003
  742MOL0     H97904   0.565   0.951   7.266 -1.7169 -1.5087 -0.6287
  742MOL0     H97905   0.578   0.957   7.442  2.8671 -1.3509 -2.7558
  742MOL0     H97906   0.487   1.043   7.622  1.8084  0.7579  1.4601
  742MOL0     H97907   0.525   1.200   7.796 -1.9411 -1.7415 -0.4823
  742MOL0     H97908   0.392   1.614   8.011  1.5516 -2.9806 -3.4121
  742MOL0     H97909   0.411   1.792   8.169 -0.2109 -0.1804 -0.1313
  742MOL0     H97910   0.810   2.049   8.150 -1.1362 -0.2238  0.0679
  742MOL0     H97911   0.802   1.905   8.249 -0.7762  0.1023 -1.2295
  742MOL0     H97912   0.703   2.033   8.427  0.8169  0.3402  0.1637
  742MOL0     H97913   0.683   2.175   8.341  0.7152  0.5071  2.1847
  742MOL0     H97914   0.908   2.216   8.296  0.0551 -0.3028 -0.5260
  742MOL0     H97915   0.969   2.066   8.389  0.9327  0.0227 -1.7056
  742MOL0     H97916   0.809   2.300   8.492 -3.4327 -2.6178  0.0156
  742MOL0     H97917   0.842   2.161   8.588 -0.1537  1.5802  0.9448
  742MOL0     H97918   0.983   2.341   8.633  1.7864  0.4866  1.0107
  742MOL0     H97919   1.074   2.323   8.479 -2.7763  0.6791 -1.6017
  742MOL0     H97920   1.156   2.119   8.575  0.3559 -0.0312  0.7642
  742MOL0     H97921   1.017   2.125   8.701 -0.4694 -0.3783 -0.6118
  742MOL0     H97922   1.131   2.337   8.781 -0.1638 -0.5141 -0.7973
  742MOL0     H97923   1.249   2.198   8.799  0.8386 -0.1609  0.1999
  742MOL0     H97924   1.243   2.416   8.580 -1.6521  0.5572  1.3066
  742MOL0     H97925   1.337   2.266   8.568  0.8317 -1.7052  1.0364
  742MOL0     H97926   0.759   1.936   7.968 -0.3316 -0.6716 -0.7719
  742MOL0     H97927   0.721   1.781   7.796 -1.4489 -0.3126 -0.9670
  742MOL0     H97928   0.472   1.538   7.528 -2.3121 -0.2384 -2.0649
  742MOL0     H97929   0.445   1.389   7.343  0.8314  0.8283  0.3401
  742MOL0     H97930   0.119   0.282   6.106 -3.6153  0.6127 -0.2901
  742MOL0     H97931   0.301   0.468   6.126 -0.5001  2.4801 -0.2482
  742MOL0     H97932   0.462   0.789   6.209 -0.9769 -3.5703  2.2427
  742MOL0     H97933   0.634   0.955   6.167 -2.2523  2.1332  1.1054
  742MOL0     H97934   0.707   1.166   6.228  0.6304 -0.0661 -1.3000
  742MOL0     H97935   0.848   1.242   6.307 -0.4134  0.3414 -1.0254
  742MOL0     H97936   0.665   1.366   6.347 -1.2439 -1.5676 -3.0202
  742MOL0     H97937   0.579   1.237   6.436  0.2164  0.3781 -0.2774
  742MOL0     H97938   0.845   1.359   6.526  0.1248 -1.3106 -1.5084
  742MOL0     H97939   0.769   1.242   6.613 -0.3777  0.4665 -0.8676
  742MOL0     H97940   0.553   1.408   6.616  0.4329 -1.1213 -2.9676
  742MOL0     H97941   0.692   1.406   6.736 -0.4591 -0.9033  0.4937
  742MOL0     H97942   0.723   1.775   6.510 -0.4875 -0.5548  2.5689
  742MOL0     H97943   0.730   0.931   6.595 -0.1229  0.4073  0.8394
  742MOL0     H97944   0.569   0.750   6.615 -1.8499  0.6100 -0.9023
  743MOL0     O97945   3.127   8.560   0.769 -0.0176 -0.2314  0.7756
  743MOL0     C97946   3.078   8.467   0.845 -0.1508  0.6253  0.8361
  743MOL0     O97947   3.127   8.344   0.848 -0.9974  0.2786  0.5396
  743MOL0     C97948   3.245   8.322   0.773  0.9592 -0.2771 -0.6160
  743MOL0     C97949   3.231   8.269   0.645 -0.5221 -0.2176 -0.7649
  743MOL0     C97950   3.343   8.223   0.580  0.6849 -0.7495 -0.3854
  743MOL0     C97951   3.471   8.209   0.649 -0.6280 -1.0248 -0.1089
  743MOL0     O97952   3.578   8.147   0.589 -0.3453 -0.1507 -0.0659
  743MOL0     C97953   3.564   8.092   0.455 -0.5661 -0.4030 -0.5112
  743MOL0     C97954   3.684   8.003   0.459  0.5577 -0.2480  0.1153
  743MOL0     C97955   3.711   7.952   0.319 -0.3053 -0.3142  0.1991
  743MOL0     C97956   3.834   7.848   0.331 -0.9047 -0.0977 -1.0842
  743MOL0     C97957   3.825   7.751   0.206 -0.8168 -0.4604  0.0238
  743MOL0     C97958   3.913   7.623   0.209 -0.5564 -0.7099  0.6199
  743MOL0     C97959   4.055   7.660   0.182 -0.5877  0.1108 -0.1424
  743MOL0     C97960   4.149   7.534   0.207  0.4921  0.1909  0.4842
  743MOL0     N97961   4.136   7.440   0.097  0.4407 -0.4152 -0.3703
  743MOL0     C97962   4.084   7.306   0.096  0.7679 -0.8847 -0.1306
  743MOL0     C97963   4.109   7.249  -0.020  0.7040 -0.4233  0.0243
  743MOL0     C97964   4.060   7.107  -0.070  0.3568 -1.4601 -0.9467
  743MOL0     C97965   4.138   7.004   0.023  0.2209  0.1312  0.0053
  743MOL0     C97966   4.126   6.855  -0.012 -0.3080 -0.1942  0.3825
  743MOL0     C97967   4.157   6.831  -0.159 -0.0490  0.1593  0.1749
  743MOL0     O97968   4.169   6.690  -0.178 -0.0917  0.2058 -0.2270
  743MOL0     C97969   4.300   6.647  -0.187  0.5357  0.0714  0.9038
  743MOL0     C97970   4.390   6.704  -0.277  0.1286  0.2001 -0.1459
  743MOL0     C97971   4.527   6.666  -0.273 -0.1470  0.7557 -0.3247
  743MOL0     C97972   4.568   6.562  -0.184 -0.4569 -0.1446 -0.1996
  743MOL0     C97973   4.711   6.516  -0.189 -0.1500 -0.4090  0.5913
  743MOL0     O97974   4.785   6.565  -0.289  0.2248  0.0791  0.0928
  743MOL0     C97975   4.912   6.514  -0.307  0.4214  0.0457  0.2028
  743MOL0     C97976   4.935   6.430  -0.417 -0.4796  0.3896 -0.1333
  743MOL0     C97977   5.050   6.362  -0.431 -0.3042 -0.2572 -0.1440
  743MOL0     C97978   5.162   6.378  -0.346  0.3908  0.1202  1.0960
  743MOL0     O97979   5.271   6.304  -0.396  0.4413 -0.3354  0.0326
  743MOL0     C97980   5.399   6.333  -0.336 -0.3862 -0.0259 -1.3036
  743MOL0     C97981   5.449   6.466  -0.375  0.2944  0.3929 -0.2206
  743MOL0     C97982   5.534   6.528  -0.260  0.0569 -0.1433  0.2789
  743MOL0     C97983   5.595   6.668  -0.297 -0.1852 -0.1806 -0.0033
  743MOL0     C97984   5.681   6.721  -0.188 -0.3318 -0.7868 -0.1870
  743MOL0     C97985   5.742   6.857  -0.223  0.2940  0.2588  0.5598
  743MOL0     C97986   5.840   6.904  -0.123  0.2505 -0.2970 -0.1416
  743MOL0     C97987   5.922   7.030  -0.172  0.3368  0.6708  0.0773
  743MOL0    Cl97988   6.046   7.072  -0.045 -0.4109  0.3148 -0.2171
  743MOL0     C97989   5.139   6.468  -0.241  0.4618  0.2471 -0.0861
  743MOL0     C97990   5.017   6.537  -0.227 -0.7288  0.0742  0.7639
  743MOL0     O97991   4.758   6.446  -0.095 -0.6510 -0.0680  0.2364
  743MOL0     C97992   4.475   6.501  -0.098  0.2164  0.2260  0.2863
  743MOL0     C97993   4.342   6.541  -0.101  0.0295  0.3907  0.4695
  743MOL0     N97994   4.165   7.350  -0.091 -0.1290  0.6363  1.1876
  743MOL0     N97995   4.188   7.458  -0.027 -0.3537 -0.6951  0.5739
  743MOL0     C97996   3.481   8.254   0.783  0.1960 -0.3994 -0.0198
  743MOL0     C97997   3.367   8.311   0.836 -0.5793 -0.4182 -0.3152
  743MOL0     C97998   2.950   8.503   0.912 -0.0737 -0.4076 -0.6804
  743MOL0     C97999   2.866   8.602   0.864  0.3778 -0.5013  1.1820
  743MOL0     C98000   2.751   8.635   0.936 -0.4389  0.1370  0.5485
  743MOL0     C98001   2.723   8.564   1.057  0.8692 -0.0119 -0.6368
  743MOL0     O98002   2.610   8.584   1.131  0.3760 -0.3436 -0.5679
  743MOL0     C98003   2.510   8.661   1.062  0.1710 -0.1629  0.1979
  743MOL0     C98004   2.379   8.653   1.147 -0.6005  1.5563 -0.1735
  743MOL0     C98005   2.333   8.514   1.179  0.0448  0.1183 -0.2904
  743MOL0     C98006   2.182   8.504   1.172 -1.4720  0.5997 -0.2895
  743MOL0     C98007   2.134   8.399   1.263 -0.7157  0.6536  0.9021
  743MOL0     C98008   2.076   8.317   1.338 -0.0174  0.1151 -0.4098
  743MOL0     C98009   2.807   8.464   1.113 -0.0948  0.1925 -0.6380
  743MOL0     C98010   2.923   8.438   1.037  0.3321  0.0844  0.5252
  743MOL0     H98011   3.133   8.286   0.601 -1.2655  0.2588  0.9963
  743MOL0     H98012   3.338   8.219   0.472 -1.0327  5.4093 -0.9322
  743MOL0     H98013   3.574   8.176   0.385 -1.5894  0.7031  0.6236
  743MOL0     H98014   3.471   8.043   0.427 -0.3260 -1.3516  0.2920
  743MOL0     H98015   3.673   7.924   0.534  1.1331 -1.9992 -1.5770
  743MOL0     H98016   3.767   8.063   0.498  0.3648  1.1649 -1.5364
  743MOL0     H98017   3.722   8.038   0.253  0.0267 -0.0565  0.5822
  743MOL0     H98018   3.637   7.891   0.267  0.0094  0.2329 -0.9060
  743MOL0     H98019   3.928   7.899   0.352 -0.8213 -0.5504 -0.2899
  743MOL0     H98020   3.816   7.785   0.419 -0.6162  0.4700 -0.6115
  743MOL0     H98021   3.857   7.808   0.118 -0.3623  0.1097  0.5407
  743MOL0     H98022   3.722   7.719   0.191 -2.4798  3.5643  1.4409
  743MOL0     H98023   3.885   7.550   0.132 -2.4012  0.1147  0.4767
  743MOL0     H98024   3.904   7.564   0.301  0.4002 -0.4331  0.9090
  743MOL0     H98025   4.068   7.692   0.078 -3.0183 -1.0375 -0.8823
  743MOL0     H98026   4.096   7.730   0.255 -0.2084 -0.8206  0.5687
  743MOL0     H98027   4.125   7.486   0.302  1.2608 -0.1005  0.5392
  743MOL0     H98028   4.250   7.574   0.216  0.6758 -0.3407  0.7997
  743MOL0     H98029   4.025   7.275   0.182 -0.8926  0.0774 -0.8798
  743MOL0     H98030   4.083   7.099  -0.176  2.1211  2.3019 -1.0274
  743MOL0     H98031   3.951   7.097  -0.056  0.5442 -2.1049  0.2225
  743MOL0     H98032   4.102   7.019   0.125 -1.8928  0.9835 -0.8055
  743MOL0     H98033   4.243   7.029   0.007  0.1437  0.9396  0.6770
  743MOL0     H98034   4.186   6.790   0.052 -1.0140  1.7180  3.1342
  743MOL0     H98035   4.022   6.829   0.011 -0.1182 -2.0290 -0.6638
  743MOL0     H98036   4.243   6.892  -0.187 -0.8605  0.8487 -0.8584
  743MOL0     H98037   4.077   6.867  -0.224  2.0127  1.8352 -1.5594
  743MOL0     H98038   4.363   6.785  -0.344 -0.6122 -0.9503 -1.3090
  743MOL0     H98039   4.598   6.716  -0.338 -0.6496 -0.0323 -1.5234
  743MOL0     H98040   4.856   6.422  -0.491 -0.7715 -0.1425  0.2329
  743MOL0     H98041   5.059   6.294  -0.516  0.5168  0.9199 -1.0174
  743MOL0     H98042   5.463   6.251  -0.369  0.8338  0.6142 -0.6114
  743MOL0     H98043   5.377   6.331  -0.228 -1.1279 -0.9979 -1.4600
  743MOL0     H98044   5.365   6.532  -0.399  0.9268  1.2245 -0.1905
  743MOL0     H98045   5.507   6.456  -0.467  0.1486  0.4894 -0.3238
  743MOL0     H98046   5.624   6.471  -0.239 -0.1262 -0.2671  0.7370
  743MOL0     H98047   5.482   6.535  -0.164 -2.2352 -0.2556 -0.8965
  743MOL0     H98048   5.648   6.658  -0.392 -2.3898  0.9414 -1.4390
  743MOL0     H98049   5.518   6.738  -0.331  1.0520  0.9833 -0.5742
  743MOL0     H98050   5.761   6.656  -0.153  0.6507  1.7161  2.6913
  743MOL0     H98051   5.616   6.746  -0.104 -3.0315 -1.9246 -1.8237
  743MOL0     H98052   5.667   6.936  -0.226  0.9140  0.9173  1.8695
  743MOL0     H98053   5.800   6.844  -0.315 -0.1414 -0.4952  0.3800
  743MOL0     H98054   5.791   6.916  -0.026 -1.9976  3.2160 -1.4940
  743MOL0     H98055   5.914   6.823  -0.122 -0.0957 -0.7438 -2.8660
  743MOL0     H98056   5.856   7.115  -0.197  0.7010  0.2467 -2.6668
  743MOL0     H98057   5.981   7.001  -0.259  2.1706  0.1416  1.4380
  743MOL0     H98058   5.214   6.512  -0.177  1.8993 -1.9553 -0.1284
  743MOL0     H98059   5.005   6.593  -0.134  0.6372 -0.7164  1.4543
  743MOL0     H98060   4.512   6.425  -0.030 -0.7000 -1.1029 -0.6592
  743MOL0     H98061   4.258   6.505  -0.042 -1.2574  0.8496 -0.9972
  743MOL0     H98062   3.578   8.237   0.829 -0.7420 -2.0587  1.4618
  743MOL0     H98063   3.373   8.339   0.941  0.8605  0.7293 -0.6748
  743MOL0     H98064   2.906   8.652   0.777  2.4749 -0.4232  2.1221
  743MOL0     H98065   2.690   8.707   0.881 -2.7703 -2.8961 -1.1425
  743MOL0     H98066   2.494   8.622   0.961  1.4990  0.8520 -0.4386
  743MOL0     H98067   2.542   8.765   1.049  0.9609 -0.3889  0.2921
  743MOL0     H98068   2.398   8.714   1.235  1.4040 -0.7218  1.0974
  743MOL0     H98069   2.307   8.713   1.091  1.9796  3.9534 -1.1943
  743MOL0     H98070   2.371   8.479   1.275  0.9021  1.1932 -0.2223
  743MOL0     H98071   2.385   8.436   1.121 -3.0377 -3.1523  0.9659
  743MOL0     H98072   2.146   8.604   1.199 -0.4449  0.2091  2.8966
  743MOL0     H98073   2.154   8.472   1.071  0.8885 -3.0461  0.0309
  743MOL0     H98074   2.014   8.248   1.391 -1.0374 -0.1960 -1.9418
  743MOL0     H98075   2.783   8.426   1.212 -0.9320  1.8258 -0.1692
  743MOL0     H98076   2.993   8.362   1.072  1.0317 -0.9793 -2.7527
  744MOL0     O98077   8.184   8.817  10.547 -0.3729 -0.3690 -0.0201
  744MOL0     C98078   8.272   8.734  10.510  0.5765 -0.3262  0.4833
  744MOL0     O98079   8.404   8.748  10.524 -0.4831 -0.0063 -0.4964
  744MOL0     C98080   8.460   8.862  10.590  0.5765 -0.0339  1.3403
  744MOL0     C98081   8.431   8.898  10.724  0.6039 -0.0425  0.1135
  744MOL0     C98082   8.490   9.017  10.775  0.3578 -0.4666 -0.2811
  744MOL0     C98083   8.571   9.101  10.697  0.4050  0.9550 -0.3096
  744MOL0     O98084   8.614   9.222  10.752  0.4095 -0.3993  0.2890
  744MOL0     C98085   8.754   9.260  10.751 -0.6833 -0.8039  1.0070
  744MOL0     C98086   8.765   9.407  10.791  0.9575  0.2686  0.0928
  744MOL0     C98087   8.729   9.423  10.940  0.1096 -0.2405  0.3202
  744MOL0     C98088   8.717   9.568  10.975 -0.0086 -1.2773  0.0316
  744MOL0     C98089   8.594   9.589  11.073 -0.9404  0.5200 -0.2073
  744MOL0     C98090   8.597   9.536  11.211  0.5714 -0.5103  0.3116
  744MOL0     C98091   8.451   9.541  11.267 -0.1252 -0.5014  0.1771
  744MOL0     C98092   8.430   9.463  11.396  0.3455  0.5232  0.5162
  744MOL0     N98093   8.288   9.429  11.421  0.3171 -0.2507  0.9159
  744MOL0     C98094   8.181   9.515  11.442  0.8748 -0.3684 -0.2626
  744MOL0     C98095   8.084   9.433  11.497  0.2187 -0.2872 -0.0928
  744MOL0     C98096   7.961   9.501  11.548  0.3309  0.6112 -1.0401
  744MOL0     C98097   7.837   9.476  11.459  0.4931 -1.5542 -0.5818
  744MOL0     C98098   7.721   9.564  11.511 -0.0673  1.1075  0.3316
  744MOL0     C98099   7.581   9.534  11.458 -0.2518 -0.7232  0.6731
  744MOL0     O98100   7.502   9.661  11.465  0.1446 -0.8580 -1.0590
  744MOL0     C98101   7.486   9.724  11.588 -0.4617  1.0309 -0.6747
  744MOL0     C98102   7.499   9.671  11.718  0.4858  0.6511  0.3826
  744MOL0     C98103   7.501   9.754  11.834  0.0734  0.1607  0.7780
  744MOL0     C98104   7.477   9.895  11.831  0.3562 -1.1308  0.0530
  744MOL0     C98105   7.484   9.975  11.951 -0.1216  0.0292 -0.7161
  744MOL0     O98106   7.469  10.109  11.928  0.3229 -0.1622  0.3492
  744MOL0     C98107   7.491  10.194  12.034 -0.1571 -0.2717 -0.6933
  744MOL0     C98108   7.434  10.325  12.043 -0.2237  0.3406 -0.4731
  744MOL0     C98109   7.458  10.412  12.151 -0.0236 -0.1897  0.3165
  744MOL0     C98110   7.551  10.375  12.243 -0.7950  0.0657  0.4414
  744MOL0     O98111   7.563  10.461  12.354  0.1700  0.3042 -0.3146
  744MOL0     C98112   7.503  10.415  12.475 -0.5404  0.7239  0.4533
  744MOL0     C98113   7.514  10.542  12.563  0.7886 -0.7139  0.6830
  744MOL0     C98114   7.520  10.501  12.710 -0.0464 -0.9201  0.8991
  744MOL0     C98115   7.469  10.612  12.811  0.1591  0.6303 -0.5161
  744MOL0     C98116   7.536  10.589  12.944  0.5181  0.9633  0.2406
  744MOL0     C98117   7.525  10.694  13.056  0.2179  0.3554  0.6452
  744MOL0     C98118   7.628  10.664  13.163 -0.3664 -0.3563 -0.6009
  744MOL0     C98119   7.785  10.668  13.133 -0.5798  0.5056  0.4809
  744MOL0    Cl98120   7.856  10.582  13.270 -0.0520 -0.5697  0.0792
  744MOL0     C98121   7.626  10.260  12.228 -0.4940  0.0002  0.4149
  744MOL0     C98122   7.608  10.176  12.122  0.2352  0.7067 -0.4206
  744MOL0     O98123   7.510   9.922  12.053 -0.4613  0.0881 -0.2043
  744MOL0     C98124   7.455   9.948  11.705  0.9397  0.0020  0.6416
  744MOL0     C98125   7.464   9.861  11.585  0.5523  0.8683 -0.7072
  744MOL0     N98126   8.134   9.301  11.492  0.5061 -0.7522  0.0393
  744MOL0     N98127   8.257   9.303  11.454  0.0758  0.2117 -0.1498
  744MOL0     C98128   8.594   9.065  10.564 -0.0854 -0.7662 -0.4724
  744MOL0     C98129   8.539   8.944  10.517  0.0808  0.3710 -0.4165
  744MOL0     C98130   8.244   8.636  10.413  0.7748  1.2597 -0.5608
  744MOL0     C98131   8.123   8.629  10.342 -0.1759  0.7777 -0.2711
  744MOL0     C98132   8.092   8.535  10.242 -0.7480 -0.2041 -0.8669
  744MOL0     C98133   8.186   8.434  10.214  0.7286  0.6955 -0.1141
  744MOL0     O98134   8.160   8.328  10.139 -0.0133  1.0486 -0.1568
  744MOL0     C98135   8.179   8.338  10.005  0.2212  0.6123  0.6599
  744MOL0     C98136   8.047   8.334   9.931 -0.5110 -0.0055 -0.5485
  744MOL0     C98137   7.990   8.194   9.930  0.2800 -0.7408 -0.7026
  744MOL0     C98138   7.869   8.193   9.835 -0.1714 -0.2182  0.6907
  744MOL0     C98139   7.777   8.079   9.850 -0.6940  0.3088  0.8418
  744MOL0     C98140   7.715   7.971   9.867 -0.5215 -0.3039  0.4677
  744MOL0     C98141   8.306   8.436  10.290 -0.4691 -0.0667 -1.2772
  744MOL0     C98142   8.338   8.537  10.377 -0.2054 -0.1648 -0.8338
  744MOL0     H98143   8.370   8.835  10.788  0.4421 -0.8828 -0.8258
  744MOL0     H98144   8.463   9.045  10.876 -1.6348  1.1136 -1.1888
  744MOL0     H98145   8.812   9.239  10.661  0.9149  2.7206  1.0566
  744MOL0     H98146   8.805   9.195  10.822 -1.1982  1.2384  3.4043
  744MOL0     H98147   8.697   9.468  10.731  0.0112  2.9179  3.5068
  744MOL0     H98148   8.862   9.457  10.779 -0.1333  2.7773  1.0003
  744MOL0     H98149   8.810   9.371  10.992  0.3903 -0.4452 -0.3115
  744MOL0     H98150   8.636   9.369  10.962 -0.5450 -0.0775 -1.7787
  744MOL0     H98151   8.817   9.606  11.002  0.4597 -1.3596 -1.4932
  744MOL0     H98152   8.689   9.619  10.883  0.2192  0.5298  0.9137
  744MOL0     H98153   8.510   9.544  11.021 -0.3541 -2.1914  0.9916
  744MOL0     H98154   8.587   9.697  11.088  2.0054  0.8653 -0.7106
  744MOL0     H98155   8.660   9.591  11.281  0.0832  0.4251  0.0278
  744MOL0     H98156   8.622   9.430  11.203  0.5127 -0.4052 -2.4023
  744MOL0     H98157   8.415   9.644  11.279 -0.6746 -0.7852  1.0428
  744MOL0     H98158   8.383   9.504  11.189 -0.8927 -1.6320  1.3495
  744MOL0     H98159   8.465   9.519  11.484 -0.1566 -0.0155  1.0745
  744MOL0     H98160   8.476   9.363  11.395 -1.6407 -0.5222  2.7501
  744MOL0     H98161   8.171   9.622  11.426  0.8937 -0.1404  1.1197
  744MOL0     H98162   7.976   9.609  11.554 -0.9869  0.7638 -0.2685
  744MOL0     H98163   7.949   9.475  11.653 -2.3478 -3.7434 -2.1569
  744MOL0     H98164   7.800   9.373  11.456 -1.9567 -0.7618  0.2020
  744MOL0     H98165   7.864   9.517  11.361  0.5375  1.2956  0.5278
  744MOL0     H98166   7.716   9.533  11.616  0.1791 -1.4278 -0.3463
  744MOL0     H98167   7.752   9.669  11.517  2.6943  0.5532 -2.2162
  744MOL0     H98168   7.549   9.445  11.513  1.2651 -2.0038 -0.4422
  744MOL0     H98169   7.590   9.506  11.353  1.4340 -2.3002  1.1819
  744MOL0     H98170   7.502   9.562  11.720 -0.5876  0.4920 -2.1065
  744MOL0     H98171   7.491   9.697  11.926 -1.4093 -4.2622 -1.8017
  744MOL0     H98172   7.355  10.349  11.973 -2.2661 -0.7657  1.3314
  744MOL0     H98173   7.402  10.505  12.154 -0.1601 -0.2594  0.0548
  744MOL0     H98174   7.549  10.334  12.534  0.6720  1.2233  0.2326
  744MOL0     H98175   7.401  10.378  12.460 -0.6904  1.1019  0.5451
  744MOL0     H98176   7.434  10.612  12.537  1.4048  0.7533  2.5237
  744MOL0     H98177   7.608  10.591  12.537  0.4545 -0.8904 -0.9607
  744MOL0     H98178   7.616  10.453  12.734  1.1742  0.1364 -1.5621
  744MOL0     H98179   7.441  10.432  12.743 -1.5116  1.2300  2.0769
  744MOL0     H98180   7.502  10.712  12.781 -1.4637  1.2607 -0.3322
  744MOL0     H98181   7.360  10.607  12.813  0.1678 -0.9306 -1.9116
  744MOL0     H98182   7.641  10.589  12.912  0.1301  1.5367 -1.0900
  744MOL0     H98183   7.499  10.491  12.975  1.0389  0.9679  0.8930
  744MOL0     H98184   7.421  10.695  13.088  0.0851 -1.2718  0.3354
  744MOL0     H98185   7.546  10.789  13.005  1.4330 -0.2246  0.0291
  744MOL0     H98186   7.598  10.736  13.241 -2.4250 -1.0538 -0.6819
  744MOL0     H98187   7.603  10.566  13.204  0.3689  0.5354  2.2636
  744MOL0     H98188   7.838  10.763  13.131  2.2025 -0.8502  2.4503
  744MOL0     H98189   7.805  10.615  13.039 -1.5596  0.2043  0.4255
  744MOL0     H98190   7.702  10.246  12.304 -2.6216 -1.1570  2.4553
  744MOL0     H98191   7.661  10.082  12.106 -1.4889 -0.0502 -2.0926
  744MOL0     H98192   7.430  10.050  11.679 -0.5492 -0.0688  1.6843
  744MOL0     H98193   7.429   9.901  11.490 -2.0685 -0.7247 -0.5118
  744MOL0     H98194   8.661   9.123  10.501 -0.8753 -0.5836 -1.1703
  744MOL0     H98195   8.562   8.908  10.417  1.0859  1.6486 -0.6662
  744MOL0     H98196   8.052   8.708  10.363 -1.3702  0.4082 -2.5917
  744MOL0     H98197   7.993   8.530  10.199 -1.3454  0.5392  0.3528
  744MOL0     H98198   8.242   8.255   9.970  3.1163  3.7754 -2.4605
  744MOL0     H98199   8.224   8.434   9.979  1.3851 -0.0512  0.1102
  744MOL0     H98200   7.970   8.398   9.975  0.7193  1.1592 -0.0021
  744MOL0     H98201   8.066   8.365   9.827 -0.3213 -1.9344 -1.1192
  744MOL0     H98202   7.950   8.165  10.027  3.5108  0.0816  1.0202
  744MOL0     H98203   8.062   8.126   9.882 -1.0241 -0.9386 -2.5171
  744MOL0     H98204   7.816   8.288   9.843  1.5718  0.8469  0.1173
  744MOL0     H98205   7.915   8.191   9.736  1.1131  2.9321  1.1150
  744MOL0     H98206   7.678   7.875   9.896  1.0247 -0.5306  1.8870
  744MOL0     H98207   8.387   8.369  10.264  1.1857  0.0333  2.8332
  744MOL0     H98208   8.427   8.530  10.438 -1.5630 -2.8047  1.0419
  745MOL0     O98209  10.444   0.422  10.922  0.2799  0.3346  0.1811
  745MOL0     C98210  10.320   0.396  10.914 -0.7032  0.2177  0.1754
  745MOL0     O98211  10.242   0.355  11.015 -0.0298  0.0987 -0.5337
  745MOL0     C98212  10.308   0.334  11.132 -0.0377  0.5670 -0.7348
  745MOL0     C98213  10.388   0.213  11.155 -0.2574 -0.1119 -0.9474
  745MOL0     C98214  10.438   0.179  11.278  0.1217 -0.8374 -0.7737
  745MOL0     C98215  10.412   0.263  11.382 -0.1810  0.1020 -0.1920
  745MOL0     O98216  10.471   0.239  11.504  0.1411  0.0942  0.3279
  745MOL0     C98217  10.458   0.329  11.614  0.2997 -0.5033 -1.3108
  745MOL0     C98218  10.550   0.274  11.729 -0.4868 -0.9391 -0.0358
  745MOL0     C98219  10.473   0.144  11.775  0.9824  0.5474 -0.0808
  745MOL0     C98220  10.541   0.065  11.881  0.3112  0.1104  0.5470
  745MOL0     C98221  10.659  -0.011  11.819  0.2085 -0.3348  0.0238
  745MOL0     C98222  10.772  -0.039  11.920 -0.1937 -0.2667 -0.7796
  745MOL0     C98223  10.847   0.083  11.967 -0.3116  0.5126 -0.0858
  745MOL0     C98224  10.976   0.047  12.043  0.7249 -0.4712  0.1371
  745MOL0     N98225  11.040   0.183  12.073  0.7239 -0.3086 -0.2392
  745MOL0     C98226  11.160   0.195  12.144  0.9120  1.2472  0.2270
  745MOL0     C98227  11.192   0.327  12.121 -0.0296 -0.6623 -0.3432
  745MOL0     C98228  11.317   0.394  12.175  0.5310 -0.4822 -0.4811
  745MOL0     C98229  11.447   0.322  12.151 -0.2533  0.0345  0.7424
  745MOL0     C98230  11.485   0.313  12.001  1.0491  0.5514  1.0801
  745MOL0     C98231  11.635   0.268  11.990 -0.2040 -0.3534  0.3760
  745MOL0     O98232  11.645   0.150  12.062 -0.4070  0.3656 -0.0557
  745MOL0     C98233  11.772   0.093  12.064 -0.4233  0.5519 -0.2545
  745MOL0     C98234  11.787  -0.023  12.147  0.2321  0.3236 -1.1776
  745MOL0     C98235  11.908  -0.089  12.161  0.7666  0.0872 -0.0946
  745MOL0     C98236  12.027  -0.021  12.116  1.3134  0.3488 -1.1027
  745MOL0     C98237  12.159  -0.070  12.143  0.0284  0.5127 -0.3227
  745MOL0     O98238  12.260   0.013  12.100  0.4685  0.5186  0.3065
  745MOL0     C98239  12.385  -0.032  12.113 -0.4657  0.2122  0.5584
  745MOL0     C98240  12.479   0.054  12.169 -0.7047 -0.2128  0.5818
  745MOL0     C98241  12.620   0.031  12.159 -0.7410  0.1626  0.1537
  745MOL0     C98242  12.663  -0.098  12.115  0.0066  0.0196  0.4784
  745MOL0     O98243  12.797  -0.122  12.128 -0.8618 -0.4724  0.6834
  745MOL0     C98244  12.850  -0.257  12.115 -0.4556 -0.3369 -0.1615
  745MOL0     C98245  12.799  -0.342  12.230  0.1770  0.0271  0.1681
  745MOL0     C98246  12.838  -0.485  12.228  0.4574 -0.6619  0.3192
  745MOL0     C98247  12.758  -0.566  12.128  0.4012 -1.0641  0.0131
  745MOL0     C98248  12.830  -0.704  12.115  0.1658  0.1696 -0.3338
  745MOL0     C98249  12.725  -0.819  12.094  0.4624 -0.0513 -0.1273
  745MOL0     C98250  12.800  -0.953  12.049 -0.2487 -1.1228  0.0268
  745MOL0     C98251  12.858  -1.019  12.172  0.0833  0.6286  0.1040
  745MOL0    Cl98252  13.005  -1.103  12.151  0.3094  0.1839  0.5708
  745MOL0     C98253  12.572  -0.184  12.070  0.2359  0.4029  0.4918
  745MOL0     C98254  12.435  -0.146  12.054 -0.1578 -0.2500 -0.1448
  745MOL0     O98255  12.165  -0.183  12.208  0.1312 -0.2770  0.4220
  745MOL0     C98256  12.015   0.097  12.035 -0.0590  0.2525  0.0169
  745MOL0     C98257  11.889   0.145  12.008 -0.4140  0.0285  0.6543
  745MOL0     N98258  11.093   0.389  12.037 -0.5754 -0.2750  0.2467
  745MOL0     N98259  11.017   0.294  11.994 -0.2938  0.9482 -0.5756
  745MOL0     C98260  10.317   0.366  11.364  0.3802 -0.2510 -0.8320
  745MOL0     C98261  10.266   0.406  11.244 -0.3046  0.8205  1.1067
  745MOL0     C98262  10.242   0.432  10.787 -0.4778  0.4450  0.4669
  745MOL0     C98263  10.116   0.376  10.770  0.9593 -0.2160  0.1932
  745MOL0     C98264  10.045   0.412  10.658 -1.1509 -0.1594  0.2740
  745MOL0     C98265  10.100   0.490  10.551  0.3262 -0.7452  0.3699
  745MOL0     O98266  10.013   0.520  10.443  0.2316 -1.1439  0.7609
  745MOL0     C98267  10.050   0.631  10.360  0.1705 -1.2525 -0.1385
  745MOL0     C98268  10.055   0.765  10.436  1.2879 -0.4141  0.2499
  745MOL0     C98269   9.916   0.838  10.408  0.0183 -0.1622 -0.1564
  745MOL0     C98270   9.919   0.907  10.278  0.2664  1.0704 -0.5940
  745MOL0     C98271   9.815   1.011  10.277 -0.0403  0.3783  0.1461
  745MOL0     C98272   9.730   1.097  10.292 -0.8456 -0.3869  0.3352
  745MOL0     C98273  10.234   0.528  10.565 -0.8840 -0.5333 -0.3017
  745MOL0     C98274  10.313   0.502  10.680 -0.9776 -0.4188 -0.1745
  745MOL0     H98275  10.392   0.151  11.065  0.7126  0.3945 -1.2604
  745MOL0     H98276  10.488   0.083  11.271 -1.6191 -1.8349 -0.1738
  745MOL0     H98277  10.349   0.327  11.625  0.2729 -2.9696 -1.5020
  745MOL0     H98278  10.482   0.432  11.587 -1.5756  0.8034  1.4943
  745MOL0     H98279  10.557   0.341  11.815 -2.7260 -0.8691  0.1706
  745MOL0     H98280  10.649   0.261  11.686 -0.4212  2.2742 -1.1095
  745MOL0     H98281  10.465   0.076  11.690  0.8424  2.0429 -1.3066
  745MOL0     H98282  10.382   0.193  11.811  1.1989  3.2210 -2.8258
  745MOL0     H98283  10.581   0.141  11.949 -0.0196  1.3219 -0.5661
  745MOL0     H98284  10.467   0.007  11.937 -2.6081  2.0320 -1.0254
  745MOL0     H98285  10.704   0.046  11.737 -0.6150 -1.3687 -1.1895
  745MOL0     H98286  10.630  -0.104  11.769  0.1689  0.3564 -1.2888
  745MOL0     H98287  10.837  -0.102  11.859  2.0948  0.2990  0.9233
  745MOL0     H98288  10.729  -0.097  12.001 -1.9339 -1.1400 -2.2570
  745MOL0     H98289  10.881   0.140  11.880  1.0160  0.1602  0.1760
  745MOL0     H98290  10.784   0.146  12.030 -0.3168  0.0911  0.3353
  745MOL0     H98291  11.047  -0.018  11.991  2.9193 -0.1049  2.4851
  745MOL0     H98292  10.957  -0.006  12.137  0.4263 -1.4733 -0.4830
  745MOL0     H98293  11.199   0.113  12.203 -0.7675  1.3535  1.5796
  745MOL0     H98294  11.310   0.420  12.281  1.5597  0.1845 -0.5587
  745MOL0     H98295  11.325   0.491  12.124 -0.0444 -1.4139 -2.4223
  745MOL0     H98296  11.444   0.220  12.191  0.9724  0.2659  1.4666
  745MOL0     H98297  11.529   0.375  12.200 -0.4414 -0.3342  1.4608
  745MOL0     H98298  11.423   0.242  11.946 -1.4808  4.1336 -1.0700
  745MOL0     H98299  11.470   0.407  11.946  0.4726  0.6960  1.4779
  745MOL0     H98300  11.703   0.339  12.038 -1.1680  0.9452 -0.1241
  745MOL0     H98301  11.665   0.249  11.887  2.8311 -1.1131  1.2949
  745MOL0     H98302  11.693  -0.064  12.182  0.6028  1.7363  1.8029
  745MOL0     H98303  11.919  -0.186  12.209  0.6139 -1.1068 -2.3426
  745MOL0     H98304  12.446   0.149  12.211  1.4506 -0.6450  3.5568
  745MOL0     H98305  12.689   0.107  12.193  0.7275 -0.3515 -1.5265
  745MOL0     H98306  12.958  -0.245  12.124 -0.6921  0.1939  2.7380
  745MOL0     H98307  12.834  -0.316  12.024  1.7267 -2.8691  0.9779
  745MOL0     H98308  12.690  -0.343  12.237  0.1120  0.6481 -0.6554
  745MOL0     H98309  12.845  -0.290  12.314  0.4125  2.7038 -1.5196
  745MOL0     H98310  12.802  -0.518  12.325 -0.9163 -0.2483 -0.0256
  745MOL0     H98311  12.945  -0.483  12.206 -0.0737 -1.6835 -2.8384
  745MOL0     H98312  12.652  -0.565  12.155  0.8841 -0.3398  2.0690
  745MOL0     H98313  12.750  -0.525  12.026  1.6793 -2.8859 -0.8787
  745MOL0     H98314  12.886  -0.736  12.203 -1.5621 -1.9267  0.0516
  745MOL0     H98315  12.895  -0.703  12.027 -3.1262 -1.4495 -3.0023
  745MOL0     H98316  12.654  -0.791  12.016 -2.7259  1.7544  3.1303
  745MOL0     H98317  12.664  -0.817  12.185  0.5035  0.7694 -0.1104
  745MOL0     H98318  12.736  -1.028  12.003 -0.0367 -0.0910 -2.0756
  745MOL0     H98319  12.873  -0.921  11.974  1.2517  0.3127  1.9680
  745MOL0     H98320  12.788  -1.094  12.210 -0.6847  1.9700  1.4777
  745MOL0     H98321  12.870  -0.948  12.254 -0.0523 -2.1680  2.7331
  745MOL0     H98322  12.602  -0.285  12.044 -0.3912 -0.0834  1.5898
  745MOL0     H98323  12.364  -0.211  12.003 -0.0668  0.1799 -0.8273
  745MOL0     H98324  12.100   0.135  11.979  0.2845  0.9452  0.9976
  745MOL0     H98325  11.888   0.235  11.948 -2.6786 -0.5000 -0.2060
  745MOL0     H98326  10.315   0.435  11.447  0.7281 -0.6684 -0.4689
  745MOL0     H98327  10.195   0.486  11.228 -0.8501 -0.1542 -2.1605
  745MOL0     H98328  10.079   0.302  10.839 -1.2255  1.3541  0.7860
  745MOL0     H98329   9.953   0.358  10.641 -0.4421 -0.6871 -2.3041
  745MOL0     H98330   9.979   0.639  10.278  0.2294  2.2299  0.0102
  745MOL0     H98331  10.146   0.636  10.308 -0.0188  3.7955 -0.5024
  745MOL0     H98332  10.075   0.763  10.544  0.0151  3.8657  0.7523
  745MOL0     H98333  10.131   0.825  10.386 -0.5884  1.7958 -0.1039
  745MOL0     H98334   9.889   0.911  10.485 -0.3415 -0.0969 -0.3465
  745MOL0     H98335   9.841   0.759  10.402  0.2817 -0.3057 -2.1958
  745MOL0     H98336  10.013   0.958  10.251  1.0689 -0.2668 -0.4038
  745MOL0     H98337   9.879   0.846  10.196 -0.4941  0.8716 -0.0805
  745MOL0     H98338   9.638   1.151  10.283 -0.6431  0.0885  0.9705
  745MOL0     H98339  10.277   0.592  10.488  4.3878 -1.5056  1.4054
  745MOL0     H98340  10.417   0.525  10.699 -1.5421  0.3978  2.2248
  746MOL0     O98341   6.561   7.219   7.431 -0.9293  0.7289 -0.2158
  746MOL0     C98342   6.679   7.185   7.426  0.2943 -0.2511  0.5017
  746MOL0     O98343   6.725   7.063   7.453  0.5448  0.3241 -0.6649
  746MOL0     C98344   6.645   6.983   7.537 -0.7247  0.5883 -0.3545
  746MOL0     C98345   6.602   7.019   7.654  0.2079  0.0614 -1.2152
  746MOL0     C98346   6.526   6.948   7.748 -0.0815  0.4134  0.1208
  746MOL0     C98347   6.487   6.816   7.713 -0.7598  0.3960 -0.2326
  746MOL0     O98348   6.410   6.746   7.799  0.3021  0.4279 -0.3005
  746MOL0     C98349   6.376   6.609   7.764 -0.6022 -0.5599 -0.0862
  746MOL0     C98350   6.257   6.593   7.660 -0.3469  0.3374  0.5156
  746MOL0     C98351   6.134   6.560   7.729  0.0842  0.9962 -0.7474
  746MOL0     C98352   6.021   6.524   7.633  0.6668  0.3495 -0.1291
  746MOL0     C98353   5.883   6.490   7.687 -0.9788 -0.3221  0.4973
  746MOL0     C98354   5.825   6.608   7.747 -0.3450 -0.7714 -0.1429
  746MOL0     C98355   5.689   6.562   7.818  0.5814  0.2500  0.5296
  746MOL0     C98356   5.570   6.662   7.797 -0.5219 -0.0058  0.0669
  746MOL0     N98357   5.521   6.656   7.655 -0.8701  0.2346 -0.6007
  746MOL0     C98358   5.433   6.555   7.627  0.5685  0.6004  0.4630
  746MOL0     C98359   5.417   6.563   7.489 -0.5266 -0.9390 -0.5243
  746MOL0     C98360   5.314   6.508   7.402  0.2547 -0.2172 -1.0936
  746MOL0     C98361   5.336   6.368   7.352 -0.8167 -1.0086  0.4049
  746MOL0     C98362   5.457   6.357   7.259  0.3579 -0.4491  0.0071
  746MOL0     C98363   5.456   6.460   7.150 -0.0748 -0.2585 -0.7516
  746MOL0     O98364   5.347   6.453   7.066  0.9213 -0.1001 -0.5335
  746MOL0     C98365   5.316   6.341   6.990 -0.7251  0.2449  1.4031
  746MOL0     C98366   5.403   6.242   6.938  0.1164 -0.0919  0.6845
  746MOL0     C98367   5.356   6.136   6.865  0.3520 -0.1362 -0.2014
  746MOL0     C98368   5.227   6.139   6.806  0.1160 -0.3131  0.5587
  746MOL0     C98369   5.180   6.027   6.729  1.2318 -0.1364 -0.4932
  746MOL0     O98370   5.042   6.014   6.727  0.0983  0.3041 -0.2282
  746MOL0     C98371   5.001   5.884   6.704 -0.4603 -0.6715 -0.4202
  746MOL0     C98372   4.959   5.794   6.800  0.0025  1.0965  0.5031
  746MOL0     C98373   4.908   5.668   6.770  0.0779 -0.0613  0.5303
  746MOL0     C98374   4.893   5.628   6.633 -0.3976 -0.0204  0.4547
  746MOL0     O98375   4.848   5.507   6.583  0.3686  0.6844 -0.1456
  746MOL0     C98376   4.825   5.399   6.676 -0.5478 -0.2302 -0.0606
  746MOL0     C98377   4.790   5.273   6.590 -0.6154 -0.4290  0.0560
  746MOL0     C98378   4.914   5.216   6.514  0.3028  0.2816 -0.1891
  746MOL0     C98379   4.889   5.100   6.416 -0.3830  0.2523  0.3616
  746MOL0     C98380   4.990   5.090   6.298 -0.1948 -0.0111 -0.6581
  746MOL0     C98381   5.144   5.081   6.331  0.0860 -0.3259 -0.7182
  746MOL0     C98382   5.188   4.960   6.414  0.4257  0.6660  1.4906
  746MOL0     C98383   5.148   4.818   6.357  0.6933  0.3806 -0.0498
  746MOL0    Cl98384   5.258   4.707   6.425 -0.5153 -0.4513  0.2401
  746MOL0     C98385   4.932   5.714   6.535  0.0506 -0.2551  0.4628
  746MOL0     C98386   4.985   5.841   6.573  0.0399  0.1669  0.3549
  746MOL0     O98387   5.268   5.953   6.680  0.2236 -0.2965 -0.1690
  746MOL0     C98388   5.135   6.239   6.853 -1.1532 -0.7301 -0.5984
  746MOL0     C98389   5.185   6.333   6.938  0.3752 -0.2847 -0.4264
  746MOL0     N98390   5.505   6.667   7.446  0.1579 -0.1283  0.1888
  746MOL0     N98391   5.574   6.718   7.543  0.0775 -0.3551 -0.1848
  746MOL0     C98392   6.523   6.777   7.582 -0.2080 -0.3493 -0.0470
  746MOL0     C98393   6.605   6.849   7.498  0.1392  0.0737 -0.0905
  746MOL0     C98394   6.762   7.278   7.362 -0.6178 -0.1902 -0.3320
  746MOL0     C98395   6.741   7.418   7.368  0.3661 -0.1553 -0.0109
  746MOL0     C98396   6.838   7.508   7.310 -0.4462 -0.3038  0.9362
  746MOL0     C98397   6.952   7.457   7.232  0.2737 -0.3977 -0.4437
  746MOL0     O98398   7.022   7.558   7.170 -0.8169 -0.6092  0.7071
  746MOL0     C98399   7.155   7.529   7.113  0.1427 -0.0098 -0.1779
  746MOL0     C98400   7.148   7.482   6.976 -1.0182 -0.1111 -0.0388
  746MOL0     C98401   7.226   7.350   6.948  0.0165 -0.1001 -0.2615
  746MOL0     C98402   7.381   7.373   6.994 -0.2955 -0.1642  0.1917
  746MOL0     C98403   7.425   7.345   7.132  0.2110  0.6379 -0.4712
  746MOL0     C98404   7.485   7.336   7.238 -0.6804  0.4818 -0.3173
  746MOL0     C98405   6.964   7.318   7.224 -0.4919 -0.7066 -0.1366
  746MOL0     C98406   6.873   7.233   7.282  0.4563 -0.5167  0.0558
  746MOL0     H98407   6.637   7.115   7.692 -2.6620  0.4849  0.6675
  746MOL0     H98408   6.502   7.000   7.840 -1.1908  0.7313 -0.3284
  746MOL0     H98409   6.358   6.554   7.857 -0.4813 -0.2282  0.1373
  746MOL0     H98410   6.470   6.566   7.730 -0.2627 -3.1703  3.5698
  746MOL0     H98411   6.280   6.516   7.586  0.0825 -0.4532  1.4506
  746MOL0     H98412   6.238   6.691   7.616  1.8958  0.1422 -1.0198
  746MOL0     H98413   6.109   6.654   7.779 -1.1481  1.5740 -2.3777
  746MOL0     H98414   6.142   6.485   7.808  0.0865 -1.2559 -2.7766
  746MOL0     H98415   6.015   6.608   7.563 -1.7313  0.5254  0.1972
  746MOL0     H98416   6.049   6.445   7.564 -0.0243  2.9538 -3.6740
  746MOL0     H98417   5.895   6.419   7.769  2.1563 -0.6060 -0.0904
  746MOL0     H98418   5.816   6.450   7.610 -2.7212  3.7733 -0.4128
  746MOL0     H98419   5.806   6.675   7.662  4.3614 -1.5522 -2.1180
  746MOL0     H98420   5.898   6.656   7.812 -0.2612  1.2003 -1.5904
  746MOL0     H98421   5.649   6.475   7.765  1.9716  1.4484 -2.7628
  746MOL0     H98422   5.710   6.547   7.924  1.6244 -2.4858  0.0234
  746MOL0     H98423   5.604   6.765   7.816 -1.7511  0.6892 -1.2604
  746MOL0     H98424   5.483   6.641   7.861  1.2886 -1.5367  2.1717
  746MOL0     H98425   5.366   6.493   7.684  0.8580  0.9294  1.1804
  746MOL0     H98426   5.301   6.573   7.315  4.0296  0.8044 -1.0708
  746MOL0     H98427   5.221   6.505   7.459  0.4227 -4.5031 -0.7100
  746MOL0     H98428   5.252   6.331   7.292 -2.3073  1.4351  0.8260
  746MOL0     H98429   5.342   6.307   7.442  1.8982  0.2757  1.1824
  746MOL0     H98430   5.548   6.363   7.318 -1.3144  1.2801  2.6288
  746MOL0     H98431   5.455   6.264   7.201 -1.2014  0.4033 -1.4164
  746MOL0     H98432   5.550   6.442   7.097  0.6989 -3.2432  1.3423
  746MOL0     H98433   5.466   6.563   7.186 -2.7834  2.1310 -5.7213
  746MOL0     H98434   5.503   6.246   6.979  0.7112  2.3224 -0.7552
  746MOL0     H98435   5.426   6.059   6.832 -1.9205 -1.8672 -1.3184
  746MOL0     H98436   4.974   5.828   6.902 -0.7591  3.7772 -0.1897
  746MOL0     H98437   4.866   5.612   6.853 -1.3894  0.4898  0.1893
  746MOL0     H98438   4.745   5.426   6.745 -1.1316  0.7003 -1.0756
  746MOL0     H98439   4.916   5.379   6.734 -1.2994 -0.4562  1.0714
  746MOL0     H98440   4.704   5.281   6.524 -1.8238 -0.9621  1.5172
  746MOL0     H98441   4.761   5.200   6.666 -2.0414 -0.7061 -0.7263
  746MOL0     H98442   4.984   5.192   6.595 -0.2793  2.3292  0.9873
  746MOL0     H98443   4.952   5.298   6.452  2.4798  0.8473  1.7641
  746MOL0     H98444   4.883   4.998   6.455 -0.3035  0.0259 -0.2160
  746MOL0     H98445   4.795   5.124   6.365  0.7404  2.6246 -0.7047
  746MOL0     H98446   4.971   5.171   6.226  0.3068 -0.6045 -1.4733
  746MOL0     H98447   4.958   5.000   6.244 -0.1185 -0.4417  0.0026
  746MOL0     H98448   5.173   5.177   6.373  0.3415 -1.6512  2.3869
  746MOL0     H98449   5.196   5.093   6.235 -0.3577  0.0293 -0.9175
  746MOL0     H98450   5.297   4.959   6.423  0.5641  2.0399  0.3249
  746MOL0     H98451   5.139   4.964   6.512 -0.7271  0.9280  0.9268
  746MOL0     H98452   5.148   4.809   6.248 -0.0722  0.9510 -0.1024
  746MOL0     H98453   5.052   4.781   6.392  1.4366 -2.6115 -0.9272
  746MOL0     H98454   4.926   5.685   6.431 -3.6008 -1.1281  0.7435
  746MOL0     H98455   5.000   5.907   6.488  0.5940 -0.3580  0.0349
  746MOL0     H98456   5.033   6.257   6.823 -0.6428 -0.3146 -2.1627
  746MOL0     H98457   5.123   6.420   6.958  0.7790  0.2413 -1.3907
  746MOL0     H98458   6.497   6.682   7.538 -1.7328 -0.4425  0.9816
  746MOL0     H98459   6.632   6.802   7.404 -0.3218  0.5043 -0.4433
  746MOL0     H98460   6.653   7.460   7.415 -0.2829  0.7633 -1.9633
  746MOL0     H98461   6.815   7.613   7.321  0.5295 -0.1071  1.2109
  746MOL0     H98462   7.192   7.451   7.180  1.6867 -0.5592 -1.6018
  746MOL0     H98463   7.226   7.612   7.113 -0.5044  0.5576 -0.0738
  746MOL0     H98464   7.047   7.470   6.938 -1.3159 -2.7894  1.3050
  746MOL0     H98465   7.191   7.561   6.914  2.8118 -0.5482  1.7134
  746MOL0     H98466   7.221   7.313   6.845 -0.5411 -0.7737 -0.0006
  746MOL0     H98467   7.185   7.270   7.010 -3.7849  1.6158 -0.3071
  746MOL0     H98468   7.456   7.334   6.924  0.9586  0.6205  1.0620
  746MOL0     H98469   7.409   7.478   6.984  1.7536 -0.7280 -0.3988
  746MOL0     H98470   7.543   7.301   7.322 -2.0605 -0.7542  0.1627
  746MOL0     H98471   7.046   7.274   7.168  2.6576  1.3152  2.4919
  746MOL0     H98472   6.881   7.127   7.263  2.4254 -0.0804 -1.9321
  747MOL0     O98473   2.758   1.799   8.199 -0.0224 -1.0961 -0.2231
  747MOL0     C98474   2.820   1.736   8.112 -0.4898 -0.1953 -0.4347
  747MOL0     O98475   2.776   1.615   8.061  0.2215 -0.0205  0.1976
  747MOL0     C98476   2.656   1.555   8.082 -0.8307 -0.6137 -0.7102
  747MOL0     C98477   2.600   1.547   8.204 -0.1509  0.8771 -1.0097
  747MOL0     C98478   2.484   1.464   8.230 -0.3115 -0.5772  0.2551
  747MOL0     C98479   2.439   1.387   8.125  0.4223 -0.4410 -0.2815
  747MOL0     O98480   2.352   1.290   8.141 -0.1630  0.0668  0.2501
  747MOL0     C98481   2.242   1.298   8.229 -0.1818  0.1308  0.1001
  747MOL0     C98482   2.150   1.401   8.194  0.0760 -0.6235  0.2145
  747MOL0     C98483   2.048   1.432   8.305  0.7096 -0.4006 -0.8604
  747MOL0     C98484   2.063   1.556   8.385 -0.4404 -0.2794 -0.7222
  747MOL0     C98485   2.174   1.542   8.481  1.1794 -0.0712 -0.0815
  747MOL0     C98486   2.191   1.668   8.570 -0.6716 -1.2042 -0.2120
  747MOL0     C98487   2.078   1.689   8.666  0.3031  0.3678 -1.3238
  747MOL0     C98488   2.051   1.828   8.728  0.3811  0.2795 -0.1677
  747MOL0     N98489   2.166   1.874   8.805  0.0765  0.0733 -0.2309
  747MOL0     C98490   2.283   1.927   8.753  0.3387  0.6140  1.0681
  747MOL0     C98491   2.372   1.939   8.854 -0.5260  0.5086 -1.2187
  747MOL0     C98492   2.519   1.974   8.861 -0.4193 -0.5404 -1.1536
  747MOL0     C98493   2.552   2.097   8.946  0.0391 -0.7569  0.7575
  747MOL0     C98494   2.701   2.138   8.947  0.0223 -0.8083  1.0602
  747MOL0     C98495   2.806   2.026   8.973  0.1032 -0.5931  0.1481
  747MOL0     O98496   2.836   1.968   8.849  0.4023  0.7700 -0.1590
  747MOL0     C98497   2.968   1.982   8.799 -0.2322  0.6329 -0.0507
  747MOL0     C98498   3.084   1.929   8.860  0.1649  0.4114  0.4125
  747MOL0     C98499   3.209   1.941   8.807 -0.4439  0.2025  0.1969
  747MOL0     C98500   3.222   2.020   8.696 -0.4339  0.2407 -0.1480
  747MOL0     C98501   3.354   2.064   8.630 -0.5239  0.6365 -0.2078
  747MOL0     O98502   3.357   2.134   8.515 -0.2850  0.4802 -0.1896
  747MOL0     C98503   3.481   2.192   8.485 -1.0854  0.5919 -0.5136
  747MOL0     C98504   3.527   2.171   8.355  0.0250  0.9045  0.1678
  747MOL0     C98505   3.652   2.220   8.312  0.3342 -0.7381  1.0087
  747MOL0     C98506   3.723   2.305   8.395 -0.7794 -0.5342  0.8639
  747MOL0     O98507   3.846   2.349   8.361  0.0683 -0.6668  0.4899
  747MOL0     C98508   3.885   2.369   8.232 -0.6536  0.2047 -0.8774
  747MOL0     C98509   4.032   2.413   8.233  0.6260 -1.2900  0.3051
  747MOL0     C98510   4.081   2.447   8.090  0.0428  0.0318 -0.0376
  747MOL0     C98511   4.208   2.526   8.092  0.1745  0.2951  1.1476
  747MOL0     C98512   4.268   2.561   7.954 -0.8863  1.0026 -0.6812
  747MOL0     C98513   4.180   2.661   7.881 -0.3389  0.0075 -0.7591
  747MOL0     C98514   4.233   2.695   7.739 -0.6187  0.4336 -0.2773
  747MOL0     C98515   4.130   2.654   7.623  0.0641 -0.3888 -0.4072
  747MOL0    Cl98516   4.212   2.660   7.467  0.2502 -0.1998 -0.1848
  747MOL0     C98517   3.679   2.324   8.518 -0.6213  0.1809  0.8226
  747MOL0     C98518   3.563   2.265   8.570  0.5161  0.0789  0.0650
  747MOL0     O98519   3.448   2.000   8.675 -1.6564 -0.3125 -0.5039
  747MOL0     C98520   3.106   2.078   8.641  0.7256 -0.0357 -0.1327
  747MOL0     C98521   2.980   2.055   8.686  0.5345  0.1810  0.5321
  747MOL0     N98522   2.296   1.920   8.970 -1.1703  0.1409  0.0828
  747MOL0     N98523   2.181   1.887   8.937  0.4041 -0.3144  0.0786
  747MOL0     C98524   2.487   1.408   7.995 -0.5433  1.0753 -0.7923
  747MOL0     C98525   2.605   1.483   7.976  0.5279  0.0663  0.0308
  747MOL0     C98526   2.945   1.794   8.062  0.0908 -0.2152  0.4207
  747MOL0     C98527   2.999   1.752   7.940  0.2085 -1.0832  0.8993
  747MOL0     C98528   3.114   1.809   7.898 -0.2599 -0.7490  0.0717
  747MOL0     C98529   3.187   1.904   7.979  0.0176  0.2015  0.0178
  747MOL0     O98530   3.305   1.955   7.931  0.9479  0.2362  0.0964
  747MOL0     C98531   3.421   1.879   7.969  0.4325  0.1191  0.2677
  747MOL0     C98532   3.536   1.955   7.901 -0.8086  0.2936  0.3557
  747MOL0     C98533   3.549   2.102   7.948 -0.0807  0.7567  0.4203
  747MOL0     C98534   3.637   2.204   7.869  0.7783 -0.3151  0.6400
  747MOL0     C98535   3.776   2.167   7.871  1.5348  0.0582  0.5265
  747MOL0     C98536   3.893   2.140   7.854  0.4017 -0.2798 -0.9253
  747MOL0     C98537   3.136   1.950   8.100  0.9039 -0.4073 -0.5301
  747MOL0     C98538   3.014   1.897   8.148 -0.4029 -0.3736 -0.5360
  747MOL0     H98539   2.642   1.602   8.288  3.9617  0.0053 -2.2896
  747MOL0     H98540   2.443   1.461   8.331  2.3484 -1.6468  1.3851
  747MOL0     H98541   2.273   1.315   8.333 -0.3318  0.4758  0.0885
  747MOL0     H98542   2.202   1.197   8.226  0.8472 -0.2696 -1.6329
  747MOL0     H98543   2.091   1.364   8.109 -1.7447  0.3749  0.9888
  747MOL0     H98544   2.204   1.491   8.166 -1.2440 -0.6353 -2.8098
  747MOL0     H98545   2.044   1.353   8.380  0.8077  1.7304  1.5101
  747MOL0     H98546   1.952   1.434   8.253  1.1268  1.7660 -1.6541
  747MOL0     H98547   2.070   1.641   8.317 -2.3132  0.9899  0.5840
  747MOL0     H98548   1.965   1.567   8.432 -0.6659  0.9633 -1.4434
  747MOL0     H98549   2.273   1.527   8.436  0.5330 -2.9151 -0.7479
  747MOL0     H98550   2.155   1.448   8.534  0.7226 -0.4453 -0.9065
  747MOL0     H98551   2.202   1.745   8.493 -3.9270 -1.6296 -1.2734
  747MOL0     H98552   2.280   1.661   8.632 -0.7121  0.9227  0.1513
  747MOL0     H98553   1.986   1.672   8.610 -1.2660 -0.0002  1.1987
  747MOL0     H98554   2.079   1.615   8.747  0.9559  1.1941 -0.5692
  747MOL0     H98555   1.969   1.810   8.798  2.9373 -0.3610  2.9120
  747MOL0     H98556   2.020   1.902   8.654  0.3385 -0.6031 -1.0427
  747MOL0     H98557   2.299   1.953   8.648 -2.2959  1.4006  0.7811
  747MOL0     H98558   2.554   1.993   8.758 -1.6283 -0.1053 -1.4973
  747MOL0     H98559   2.571   1.887   8.903 -3.2081 -0.5699  2.6771
  747MOL0     H98560   2.519   2.094   9.050 -0.5196  1.7140  0.7164
  747MOL0     H98561   2.491   2.169   8.890 -0.8628 -1.9657  0.1212
  747MOL0     H98562   2.732   2.197   8.860 -1.6434  1.0012  1.6114
  747MOL0     H98563   2.701   2.211   9.029 -1.8381  1.7720 -1.0524
  747MOL0     H98564   2.762   1.951   9.038  4.2794 -2.3077  1.3509
  747MOL0     H98565   2.893   2.064   9.028 -1.7606 -1.3952  3.9516
  747MOL0     H98566   3.089   1.883   8.958  0.4879  0.4602  0.4213
  747MOL0     H98567   3.291   1.899   8.865 -1.9289 -1.1775  1.3753
  747MOL0     H98568   3.469   2.101   8.297  0.3081 -0.4040  1.4117
  747MOL0     H98569   3.684   2.198   8.211  0.2024 -1.0781  1.0383
  747MOL0     H98570   3.811   2.446   8.211 -0.4652  1.1114  1.5059
  747MOL0     H98571   3.880   2.275   8.176 -0.5715 -1.2734  1.4821
  747MOL0     H98572   4.098   2.343   8.284  0.1452 -2.7271 -0.9796
  747MOL0     H98573   4.028   2.508   8.288 -1.1587 -0.6997 -0.7400
  747MOL0     H98574   3.994   2.502   8.052  1.2426  1.5461 -0.6767
  747MOL0     H98575   4.090   2.352   8.036 -0.1947  0.2165 -0.4043
  747MOL0     H98576   4.185   2.615   8.151  0.1615  2.4023 -1.8206
  747MOL0     H98577   4.288   2.473   8.145  1.3596  0.5246 -0.3517
  747MOL0     H98578   4.285   2.468   7.900  0.8403  0.3450  0.8601
  747MOL0     H98579   4.367   2.604   7.976 -2.6115  3.8996  2.3589
  747MOL0     H98580   4.164   2.752   7.940  2.5512  0.0383  0.1448
  747MOL0     H98581   4.089   2.601   7.873  1.1613 -2.6816  0.8564
  747MOL0     H98582   4.249   2.803   7.742 -1.1136  0.5000  0.7579
  747MOL0     H98583   4.321   2.634   7.718 -0.1726  1.0745 -0.3087
  747MOL0     H98584   4.041   2.717   7.628  1.6269  1.8439  1.7751
  747MOL0     H98585   4.103   2.549   7.643  0.5472 -0.3775  0.3843
  747MOL0     H98586   3.739   2.385   8.585 -0.5043  0.3425  0.5697
  747MOL0     H98587   3.531   2.278   8.672 -1.6459  3.7703 -0.8814
  747MOL0     H98588   3.114   2.145   8.556 -3.7312 -0.6769 -1.3396
  747MOL0     H98589   2.887   2.092   8.646 -0.5379 -1.7044  1.1430
  747MOL0     H98590   2.445   1.349   7.914  0.1776 -1.3899  0.5460
  747MOL0     H98591   2.649   1.495   7.877 -1.1442  3.2667 -0.4519
  747MOL0     H98592   2.964   1.678   7.869  3.3245 -1.7040 -0.1816
  747MOL0     H98593   3.175   1.791   7.810 -1.6558  1.1521 -1.3514
  747MOL0     H98594   3.404   1.776   7.937  1.8668 -0.0758  0.0517
  747MOL0     H98595   3.439   1.874   8.076  0.2061 -1.3805  0.2565
  747MOL0     H98596   3.628   1.900   7.925 -1.6854 -1.1410  0.5898
  747MOL0     H98597   3.524   1.955   7.792 -0.0968  0.2313  0.2715
  747MOL0     H98598   3.580   2.111   8.053  0.5719  1.1123  0.1967
  747MOL0     H98599   3.453   2.155   7.947 -0.2081  0.8933  4.3046
  747MOL0     H98600   3.600   2.224   7.768 -0.0531  0.9591  1.1838
  747MOL0     H98601   3.623   2.302   7.915 -0.2888 -0.6948  1.1461
  747MOL0     H98602   3.995   2.115   7.833  2.2435  4.5941  0.8085
  747MOL0     H98603   3.192   2.027   8.152 -0.9601  0.2458  0.6211
  747MOL0     H98604   2.973   1.930   8.243 -0.8330  1.1701 -1.2328
  748MOL0     O98605   5.159   1.424  10.346  0.0066  0.1508 -0.3570
  748MOL0     C98606   5.160   1.321  10.280 -0.1339  0.7413 -0.0109
  748MOL0     O98607   5.050   1.254  10.239  0.0215 -0.6441  0.3436
  748MOL0     C98608   4.929   1.327  10.238 -0.5118  0.8223  0.7566
  748MOL0     C98609   4.829   1.233  10.239  0.5022 -1.0506 -0.7048
  748MOL0     C98610   4.694   1.270  10.251  0.0443 -0.7460  0.5746
  748MOL0     C98611   4.654   1.406  10.251  0.0710  0.4674 -0.2623
  748MOL0     O98612   4.525   1.437  10.281  0.1456 -0.8116 -0.9786
  748MOL0     C98613   4.488   1.534  10.383 -0.1235 -0.6921  0.7280
  748MOL0     C98614   4.543   1.516  10.520  0.2509  0.9796 -0.5970
  748MOL0     C98615   4.444   1.446  10.626 -0.2033  0.1215 -1.0559
  748MOL0     C98616   4.403   1.311  10.584 -0.0855 -0.1970 -0.2778
  748MOL0     C98617   4.248   1.311  10.535 -0.2268  0.3288 -0.1027
  748MOL0     C98618   4.232   1.175  10.454  1.0477 -0.1365 -1.6498
  748MOL0     C98619   4.093   1.161  10.400 -0.3227 -0.8195  0.8057
  748MOL0     C98620   3.987   1.131  10.502  0.2318 -0.1539 -0.5080
  748MOL0     N98621   3.858   1.167  10.451  0.1493  0.2895  0.1633
  748MOL0     C98622   3.769   1.096  10.370 -0.3023 -0.7319  0.2621
  748MOL0     C98623   3.664   1.175  10.354  1.1598  0.4623 -0.4911
  748MOL0     C98624   3.545   1.132  10.279 -0.1085 -0.9248 -0.2176
  748MOL0     C98625   3.423   1.218  10.307 -0.1452 -0.0214 -0.3309
  748MOL0     C98626   3.372   1.204  10.450  0.5007  0.7207  0.5649
  748MOL0     C98627   3.250   1.283  10.488  0.0104  0.2242 -0.1281
  748MOL0     O98628   3.160   1.269  10.374 -0.0186 -0.4604  0.0708
  748MOL0     C98629   3.036   1.326  10.377 -0.4740  0.9477  0.3933
  748MOL0     C98630   2.996   1.393  10.266 -0.4514 -0.0278 -0.4455
  748MOL0     C98631   2.869   1.457  10.267 -0.0480  0.0733 -0.2580
  748MOL0     C98632   2.785   1.456  10.385  0.4963  0.5069  0.1365
  748MOL0     C98633   2.653   1.519  10.380 -0.0250 -0.5270 -0.3603
  748MOL0     O98634   2.622   1.579  10.261  0.7033 -0.3649  0.3867
  748MOL0     C98635   2.509   1.661  10.239  1.0419 -0.1742 -0.0809
  748MOL0     C98636   2.470   1.678  10.109 -0.1012 -0.1178  0.1875
  748MOL0     C98637   2.356   1.755  10.074  0.0430 -0.1428 -0.2728
  748MOL0     C98638   2.290   1.826  10.171  0.0305  0.6476 -0.1660
  748MOL0     O98639   2.192   1.894  10.127  0.4554 -0.0457  0.1944
  748MOL0     C98640   2.069   1.884  10.198  0.5756 -0.1835  0.1000
  748MOL0     C98641   1.947   1.885  10.118 -0.3656 -0.8416 -0.6257
  748MOL0     C98642   1.927   2.019  10.031  0.1308  0.0845 -0.0037
  748MOL0     C98643   1.788   2.017   9.961 -0.0999 -0.5083 -0.3092
  748MOL0     C98644   1.743   2.155   9.905  1.1740 -0.4948  0.7022
  748MOL0     C98645   1.624   2.124   9.808  0.2502 -0.3083 -0.4390
  748MOL0     C98646   1.597   2.243   9.717  0.3554  0.2009 -0.0666
  748MOL0     C98647   1.470   2.224   9.645  0.0223  0.6190  0.0369
  748MOL0    Cl98648   1.474   2.340   9.502  0.1142  0.0117  0.5248
  748MOL0     C98649   2.330   1.806  10.305 -0.7275 -0.5899  0.2316
  748MOL0     C98650   2.434   1.724  10.338 -0.7373 -0.0111 -0.0503
  748MOL0     O98651   2.590   1.518  10.484 -0.2343 -0.3118 -0.3934
  748MOL0     C98652   2.830   1.384  10.498 -0.0561  0.0340 -0.1877
  748MOL0     C98653   2.951   1.313  10.491 -0.0768  0.2763  0.3522
  748MOL0     N98654   3.677   1.292  10.430  0.1489  0.3268  0.1426
  748MOL0     N98655   3.787   1.275  10.492 -0.5457 -0.6885 -0.8538
  748MOL0     C98656   4.759   1.495  10.226  0.7066  0.2232  1.1440
  748MOL0     C98657   4.895   1.461  10.224 -0.3302 -0.0825  0.9826
  748MOL0     C98658   5.292   1.262  10.262 -0.1134 -0.8264 -0.6339
  748MOL0     C98659   5.412   1.334  10.269  0.1712 -0.4166 -0.8409
  748MOL0     C98660   5.528   1.272  10.240 -1.0357  0.3507 -0.6414
  748MOL0     C98661   5.543   1.133  10.223  1.0965 -0.5250 -0.6060
  748MOL0     O98662   5.663   1.071  10.215 -0.3164  0.4934  0.0792
  748MOL0     C98663   5.785   1.143  10.208 -0.0201 -0.3352  0.6001
  748MOL0     C98664   5.888   1.044  10.167  0.4820 -0.4629 -0.5984
  748MOL0     C98665   6.026   1.101  10.167  0.4550  0.9821  0.1444
  748MOL0     C98666   6.130   1.003  10.117 -1.1453 -0.1203  0.7449
  748MOL0     C98667   6.266   1.051  10.095  0.8553 -0.7970 -0.2863
  748MOL0     C98668   6.380   1.096  10.081 -0.2335 -0.0465  0.4388
  748MOL0     C98669   5.423   1.066  10.222  0.1811 -0.3673 -0.2159
  748MOL0     C98670   5.298   1.129  10.231  0.0491  0.0395 -0.6481
  748MOL0     H98671   4.861   1.131  10.262  2.9555  0.0528  1.2126
  748MOL0     H98672   4.612   1.204  10.277 -1.7618  0.6754 -1.1503
  748MOL0     H98673   4.379   1.534  10.374  0.0319 -0.8856 -1.6374
  748MOL0     H98674   4.502   1.636  10.348 -0.5500 -1.3608 -1.5459
  748MOL0     H98675   4.574   1.612  10.564  0.1984  0.4289  0.6856
  748MOL0     H98676   4.642   1.469  10.511 -0.3198 -0.3179 -0.3031
  748MOL0     H98677   4.357   1.507  10.653 -1.1391  0.7911 -4.9002
  748MOL0     H98678   4.504   1.440  10.717  0.9866  4.5045 -1.3314
  748MOL0     H98679   4.467   1.282  10.501 -0.8662  4.7250 -2.9609
  748MOL0     H98680   4.412   1.250  10.674 -0.2336  1.9013  1.2354
  748MOL0     H98681   4.218   1.400  10.480  1.6815  0.6310 -0.7162
  748MOL0     H98682   4.185   1.304  10.625  0.9971 -1.3875  0.6691
  748MOL0     H98683   4.251   1.100  10.532  0.4401 -1.6885 -2.9291
  748MOL0     H98684   4.306   1.180  10.374  0.3149  2.8881 -2.2668
  748MOL0     H98685   4.069   1.242  10.330 -2.1696 -1.0436  1.1357
  748MOL0     H98686   4.106   1.065  10.348  0.0336 -0.6881  0.6479
  748MOL0     H98687   4.004   1.207  10.579 -1.2589  1.8792 -2.0562
  748MOL0     H98688   3.998   1.031  10.544 -0.0811 -0.3540 -0.9088
  748MOL0     H98689   3.789   1.002  10.318  3.6056  0.1812 -0.2195
  748MOL0     H98690   3.527   1.029  10.312  0.3927 -0.3128  2.1560
  748MOL0     H98691   3.577   1.126  10.175  3.5889  0.5359  0.6651
  748MOL0     H98692   3.356   1.179  10.231  1.1403  0.1572 -1.6036
  748MOL0     H98693   3.447   1.324  10.290  1.2549 -0.0893  1.0142
  748MOL0     H98694   3.343   1.100  10.464 -1.9298  0.9609 -1.7783
  748MOL0     H98695   3.451   1.227  10.522  0.2696  3.4693  0.0471
  748MOL0     H98696   3.277   1.387  10.505  0.8210 -0.1337  0.8525
  748MOL0     H98697   3.205   1.244  10.580  2.2389 -1.2257  0.4252
  748MOL0     H98698   3.064   1.398  10.182  0.9348  0.4183  0.6728
  748MOL0     H98699   2.849   1.513  10.176  0.6157 -3.2553 -2.6200
  748MOL0     H98700   2.518   1.626  10.026 -0.4030  0.7550 -0.5573
  748MOL0     H98701   2.315   1.763   9.974  0.1556  3.3625 -0.1398
  748MOL0     H98702   2.079   1.959  10.276  2.9102  0.2839 -0.5593
  748MOL0     H98703   2.063   1.786  10.246 -0.2272 -1.8485 -3.0750
  748MOL0     H98704   1.859   1.877  10.183 -0.8930 -2.2816 -1.4650
  748MOL0     H98705   1.942   1.803  10.046 -0.7404 -0.8765 -0.5649
  748MOL0     H98706   1.998   2.043   9.951 -1.4727  1.0329 -1.2016
  748MOL0     H98707   1.928   2.091  10.113 -0.3494 -0.8403  0.8397
  748MOL0     H98708   1.801   1.932   9.894  0.6021 -0.0654 -0.7454
  748MOL0     H98709   1.718   1.986  10.039  1.0742  1.3921  1.6398
  748MOL0     H98710   1.828   2.201   9.854  2.5643 -1.3200  2.2004
  748MOL0     H98711   1.713   2.217   9.990  0.5786 -0.5707  0.5552
  748MOL0     H98712   1.538   2.104   9.873 -1.3237  3.2488 -1.1863
  748MOL0     H98713   1.654   2.041   9.744  0.7998  0.6800 -1.4883
  748MOL0     H98714   1.585   2.328   9.785 -2.4504  1.3189 -1.7512
  748MOL0     H98715   1.674   2.273   9.645 -0.0393  0.2876 -0.4618
  748MOL0     H98716   1.387   2.226   9.717 -0.4739 -2.4058 -0.2916
  748MOL0     H98717   1.463   2.122   9.606 -1.3094 -0.0753  1.9405
  748MOL0     H98718   2.271   1.858  10.381  1.9692  2.2755  0.5431
  748MOL0     H98719   2.469   1.705  10.439 -1.3386 -1.6306 -0.1195
  748MOL0     H98720   2.759   1.383  10.579  0.2199 -3.6013  0.1531
  748MOL0     H98721   2.977   1.243  10.570 -0.9611 -0.0275  0.3835
  748MOL0     H98722   4.743   1.601  10.210  1.7017  0.1510 -0.5093
  748MOL0     H98723   4.980   1.522  10.194  0.4575 -2.1885 -1.3330
  748MOL0     H98724   5.418   1.441  10.284 -2.1067 -0.6137  2.4728
  748MOL0     H98725   5.613   1.339  10.234  1.2189 -2.3799 -1.5087
  748MOL0     H98726   5.822   1.193  10.299  2.2515  0.6023 -0.7435
  748MOL0     H98727   5.785   1.218  10.128  0.6205 -1.4135 -0.4397
  748MOL0     H98728   5.887   0.977  10.254 -0.3539  3.0884  2.3683
  748MOL0     H98729   5.862   0.987  10.077 -2.2321 -2.5457  1.3321
  748MOL0     H98730   6.060   1.134  10.266 -0.3711  0.8749  0.4761
  748MOL0     H98731   6.028   1.185  10.098 -1.9281  3.2289  2.5657
  748MOL0     H98732   6.139   0.914  10.180  1.0230 -0.4705  0.0249
  748MOL0     H98733   6.094   0.977  10.018  0.2368  0.1649  0.1402
  748MOL0     H98734   6.480   1.134  10.069  0.3504 -1.1563  1.6126
  748MOL0     H98735   5.416   0.958  10.228  1.8844 -0.5143 -0.3958
  748MOL0     H98736   5.211   1.065  10.226  1.0921 -1.8805  2.7454
  749MOL0     O98737   9.390   3.632   9.198  0.4232  0.2686  0.4719
  749MOL0     C98738   9.415   3.731   9.266  0.7275  0.0422  0.0842
  749MOL0     O98739   9.373   3.753   9.394  0.1843  0.6391  0.1846
  749MOL0     C98740   9.279   3.659   9.426  0.0411 -0.0214 -0.2995
  749MOL0     C98741   9.147   3.673   9.381  0.1960 -0.2728  0.0652
  749MOL0     C98742   9.041   3.594   9.449 -0.9388 -0.9303  1.5218
  749MOL0     C98743   9.071   3.501   9.552  1.1053 -0.0130  0.0379
  749MOL0     O98744   8.984   3.409   9.603 -0.5145 -0.5869  0.0396
  749MOL0     C98745   8.858   3.451   9.653 -0.5539 -0.6365  0.6049
  749MOL0     C98746   8.854   3.565   9.762 -0.5724  0.6159  0.1541
  749MOL0     C98747   8.709   3.581   9.801 -0.4664 -0.1851  0.6425
  749MOL0     C98748   8.615   3.640   9.704  0.4164  0.4808  0.4919
  749MOL0     C98749   8.479   3.669   9.770  0.1481 -0.3100 -0.4672
  749MOL0     C98750   8.372   3.707   9.669  0.3961 -0.5736  0.2735
  749MOL0     C98751   8.264   3.778   9.750  0.2349  0.4146  0.6189
  749MOL0     C98752   8.183   3.694   9.841 -0.6884  0.1244  0.6739
  749MOL0     N98753   8.053   3.756   9.878  0.4154 -0.2993  0.9980
  749MOL0     C98754   8.053   3.868   9.953 -0.2006 -0.4482  0.3267
  749MOL0     C98755   7.928   3.889   9.981  0.0475 -0.3225  0.8356
  749MOL0     C98756   7.866   4.001  10.071 -0.5259  0.0909 -0.4022
  749MOL0     C98757   7.735   4.039  10.009 -1.2270  0.0893 -0.5732
  749MOL0     C98758   7.621   4.035  10.107  0.2655  0.1136 -0.2716
  749MOL0     C98759   7.487   4.038  10.022 -0.2767 -0.2134  0.0499
  749MOL0     O98760   7.386   4.066  10.117 -0.0768 -0.5001  0.2389
  749MOL0     C98761   7.252   4.060  10.077 -0.2311 -0.4099  0.1871
  749MOL0     C98762   7.213   4.041   9.944 -0.5154 -0.9003  0.2563
  749MOL0     C98763   7.084   4.043   9.909 -0.2023  0.9265 -0.1478
  749MOL0     C98764   6.983   4.057  10.002  0.0297  0.6878 -1.0413
  749MOL0     C98765   6.841   4.071   9.958  0.3194  0.1572 -0.4207
  749MOL0     O98766   6.757   4.108  10.058  0.3731  0.1118 -0.0119
  749MOL0     C98767   6.639   4.171  10.025  0.3949 -0.1702 -0.0792
  749MOL0     C98768   6.596   4.229   9.907 -0.2690 -0.0496  0.1484
  749MOL0     C98769   6.474   4.301   9.896  0.0350  0.5239 -0.7699
  749MOL0     C98770   6.381   4.300  10.002 -0.4977  0.7897 -0.2744
  749MOL0     O98771   6.257   4.360   9.985 -0.2190  0.1401  0.0944
  749MOL0     C98772   6.144   4.307  10.057  0.3386 -0.8108  0.1912
  749MOL0     C98773   6.069   4.409  10.151  0.2026  0.0334 -0.0927
  749MOL0     C98774   6.000   4.523  10.080  0.1328  0.4871 -0.2313
  749MOL0     C98775   5.935   4.601  10.197 -0.3431  0.4620 -0.3713
  749MOL0     C98776   5.836   4.701  10.142 -0.1183 -0.3402  0.4608
  749MOL0     C98777   5.785   4.792  10.252 -0.3225  0.0185  0.5045
  749MOL0     C98778   5.689   4.888  10.188 -0.7389  0.6032  0.2076
  749MOL0     C98779   5.668   5.001  10.271 -0.6646 -0.4527 -0.3925
  749MOL0    Cl98780   5.596   5.117  10.161  0.3474  0.3659  0.2469
  749MOL0     C98781   6.423   4.237  10.116  0.7888  0.3297 -0.9723
  749MOL0     C98782   6.551   4.176  10.132  0.8284 -0.6572 -0.7511
  749MOL0     O98783   6.805   4.036   9.846 -0.5126 -0.0436  0.3572
  749MOL0     C98784   7.021   4.063  10.139  0.3400 -0.2717 -0.2409
  749MOL0     C98785   7.153   4.057  10.178 -0.7954 -0.3414  0.0913
  749MOL0     N98786   7.853   3.789   9.922 -0.2266 -0.7797 -0.5004
  749MOL0     N98787   7.927   3.718   9.850 -0.2069  0.5446 -0.3588
  749MOL0     C98788   9.194   3.486   9.592 -0.4083  0.2342 -0.1122
  749MOL0     C98789   9.300   3.570   9.536  0.4453  0.1834  0.6859
  749MOL0     C98790   9.485   3.843   9.199  0.0602 -0.6643  0.0200
  749MOL0     C98791   9.535   3.949   9.273  0.1184  0.6809 -0.8641
  749MOL0     C98792   9.587   4.062   9.215 -0.6278  0.2004  0.9974
  749MOL0     C98793   9.615   4.061   9.074  0.9722 -0.5127 -0.3113
  749MOL0     O98794   9.687   4.157   9.018 -0.2310  0.0015 -0.0747
  749MOL0     C98795   9.781   4.236   9.089 -1.1048 -0.5729 -0.4885
  749MOL0     C98796   9.874   4.320   8.993  0.1487 -0.2399  0.5457
  749MOL0     C98797   9.992   4.369   9.071  1.4789  0.3791 -0.2610
  749MOL0     C98798  10.084   4.468   8.998  0.4465  0.1027  0.4294
  749MOL0     C98799  10.198   4.489   9.076 -0.0709  0.0408  0.3367
  749MOL0     C98800  10.299   4.511   9.133 -0.2503  0.7438  0.2437
  749MOL0     C98801   9.579   3.950   9.002 -0.0922  0.5086 -0.1201
  749MOL0     C98802   9.510   3.839   9.062 -0.4074 -0.8440  0.7960
  749MOL0     H98803   9.128   3.753   9.311  1.6209  1.2315  1.3279
  749MOL0     H98804   8.940   3.614   9.416 -0.4608 -1.1408 -0.1532
  749MOL0     H98805   8.825   3.357   9.697  3.7868 -1.5539  2.4648
  749MOL0     H98806   8.786   3.473   9.574  1.2493  2.2748 -0.4176
  749MOL0     H98807   8.889   3.666   9.741 -0.3204  0.4605 -0.1884
  749MOL0     H98808   8.889   3.523   9.857 -0.9178 -0.8699 -0.3431
  749MOL0     H98809   8.710   3.636   9.896 -0.6298  0.5570  0.2255
  749MOL0     H98810   8.666   3.485   9.830  0.4039 -1.4623 -1.9889
  749MOL0     H98811   8.654   3.727   9.650 -0.2037 -0.1070 -0.9850
  749MOL0     H98812   8.604   3.555   9.635  3.6544 -1.2709  1.9387
  749MOL0     H98813   8.498   3.753   9.837  3.6186 -2.4609  1.5720
  749MOL0     H98814   8.442   3.590   9.835  0.2280 -0.6601 -0.8413
  749MOL0     H98815   8.330   3.619   9.619 -2.2385 -0.1744  1.5927
  749MOL0     H98816   8.406   3.772   9.589  0.1156  0.6889  1.1550
  749MOL0     H98817   8.306   3.869   9.794 -1.7187  2.3640 -1.3279
  749MOL0     H98818   8.191   3.825   9.684 -1.0577 -4.3941 -1.8785
  749MOL0     H98819   8.243   3.677   9.931  1.4839 -1.6706 -1.0045
  749MOL0     H98820   8.161   3.600   9.790 -0.5021  1.8209 -2.8027
  749MOL0     H98821   8.132   3.925   9.999 -1.3617  0.6226  1.0635
  749MOL0     H98822   7.929   4.090  10.078 -3.3012  2.0115  3.1312
  749MOL0     H98823   7.852   3.958  10.171  0.1929 -2.0235 -1.1494
  749MOL0     H98824   7.713   3.969   9.928 -0.1296 -2.4809  1.2156
  749MOL0     H98825   7.734   4.139   9.964 -0.4019  1.3027  1.9187
  749MOL0     H98826   7.627   3.947  10.171  0.7599 -0.3803 -0.9755
  749MOL0     H98827   7.627   4.120  10.176  1.7912 -1.9657  2.3397
  749MOL0     H98828   7.465   3.943   9.972  0.0374 -0.5908  0.6093
  749MOL0     H98829   7.496   4.118   9.949  2.4176 -2.0831 -1.8755
  749MOL0     H98830   7.269   4.033   9.851 -0.9886  0.5267 -0.1858
  749MOL0     H98831   7.060   4.034   9.804  1.1498 -3.3329 -0.2529
  749MOL0     H98832   6.666   4.239   9.824 -0.8024  1.3371 -0.1640
  749MOL0     H98833   6.440   4.343   9.802  3.6518  0.7471 -2.1214
  749MOL0     H98834   6.170   4.212  10.105 -0.6928 -2.2642 -1.9364
  749MOL0     H98835   6.067   4.269   9.988 -1.7758  0.1774  1.8769
  749MOL0     H98836   6.132   4.445  10.233  0.0577  2.1547 -0.8638
  749MOL0     H98837   5.989   4.355  10.204  0.2509  1.3638  1.4061
  749MOL0     H98838   5.931   4.497   9.999  0.9288 -1.7269 -0.2640
  749MOL0     H98839   6.065   4.598  10.034  0.1718  0.4229 -0.2798
  749MOL0     H98840   5.887   4.535  10.270 -1.0772  0.5744 -0.7446
  749MOL0     H98841   6.014   4.650  10.256 -0.6983 -1.1619  1.5567
  749MOL0     H98842   5.752   4.646  10.097 -1.2047  0.8283  1.0071
  749MOL0     H98843   5.877   4.754  10.055 -2.0664  2.2307  1.0113
  749MOL0     H98844   5.878   4.843  10.280  0.6731 -0.4202 -1.7751
  749MOL0     H98845   5.747   4.733  10.336  0.9256 -0.2128  0.9248
  749MOL0     H98846   5.724   4.923  10.090 -1.0212  0.3674  0.0209
  749MOL0     H98847   5.604   4.824  10.163  1.6183 -1.5264 -3.3717
  749MOL0     H98848   5.764   5.040  10.308 -1.3509 -0.4219  1.4042
  749MOL0     H98849   5.597   4.989  10.352 -0.6416 -1.4979 -0.5221
  749MOL0     H98850   6.358   4.244  10.203 -2.1255 -2.4875 -2.7305
  749MOL0     H98851   6.577   4.118  10.220  1.4047  2.3324  1.1844
  749MOL0     H98852   6.958   4.065  10.227 -2.0690 -2.8084 -1.7480
  749MOL0     H98853   7.183   4.059  10.283  1.2381 -2.9976 -0.3305
  749MOL0     H98854   9.229   3.423   9.673  0.5523  0.7734 -0.0912
  749MOL0     H98855   9.405   3.572   9.566  0.2879 -2.7725  1.7598
  749MOL0     H98856   9.536   3.947   9.381  3.6904 -1.8136 -0.7716
  749MOL0     H98857   9.596   4.152   9.276 -1.0352  0.4418  0.7027
  749MOL0     H98858   9.847   4.167   9.143  0.1558 -1.1977 -2.6915
  749MOL0     H98859   9.727   4.304   9.155  0.5172 -1.3318  1.7439
  749MOL0     H98860   9.903   4.266   8.902 -0.1636  1.0708 -0.3595
  749MOL0     H98861   9.818   4.402   8.949  1.1041  0.4039  0.4878
  749MOL0     H98862  10.052   4.284   9.103  1.2606  0.2521 -0.1882
  749MOL0     H98863   9.952   4.430   9.152 -0.4998  1.2709 -1.8207
  749MOL0     H98864  10.131   4.424   8.909  0.5518  0.8829  0.0865
  749MOL0     H98865  10.032   4.561   8.973 -2.6141 -1.7857 -0.7579
  749MOL0     H98866  10.379   4.523   9.204  0.0260 -3.3443  0.8670
  749MOL0     H98867   9.584   3.954   8.894 -0.0415  0.5813 -0.1148
  749MOL0     H98868   9.477   3.764   8.990  0.6067 -1.2625  0.7492
  750MOL0     O98869   9.431   5.859   1.550 -0.4045 -0.0442 -0.3941
  750MOL0     C98870   9.511   5.792   1.498  0.5394 -0.5454  0.8488
  750MOL0     O98871   9.486   5.703   1.391  0.2390  0.6088  0.0863
  750MOL0     C98872   9.370   5.690   1.319  0.3208  0.1728 -0.2800
  750MOL0     C98873   9.256   5.765   1.343  0.1712  0.1420  0.6227
  750MOL0     C98874   9.140   5.749   1.264  0.7006  0.0711  0.4609
  750MOL0     C98875   9.135   5.645   1.165  0.2385  0.4829  0.4787
  750MOL0     O98876   9.020   5.627   1.084 -0.1213  0.0668 -0.0445
  750MOL0     C98877   8.912   5.730   1.085 -0.5205  0.2550 -0.3996
  750MOL0     C98878   8.789   5.686   1.002  0.6852  0.5752 -0.8744
  750MOL0     C98879   8.821   5.630   0.869  1.0303  0.6357 -0.1423
  750MOL0     C98880   8.688   5.581   0.795 -0.0311 -0.6300 -0.7113
  750MOL0     C98881   8.711   5.566   0.642  0.2218 -0.3951 -1.1988
  750MOL0     C98882   8.591   5.487   0.575 -0.0128  0.1611 -0.6150
  750MOL0     C98883   8.620   5.437   0.435  0.1911  0.4994  0.6198
  750MOL0     C98884   8.496   5.463   0.342  0.4204  0.5584 -0.3100
  750MOL0     N98885   8.379   5.387   0.372 -0.1044  0.4324 -0.9607
  750MOL0     C98886   8.350   5.270   0.317  0.0785 -0.0765  0.0454
  750MOL0     C98887   8.219   5.256   0.358  0.5195  0.7432  0.7510
  750MOL0     C98888   8.131   5.143   0.310 -0.5033 -0.2932  0.2527
  750MOL0     C98889   8.072   5.155   0.173 -0.6214  0.2435  0.4720
  750MOL0     C98890   8.000   5.032   0.131  1.0057  0.0279 -0.1917
  750MOL0     C98891   7.876   4.990   0.228 -0.2246 -0.1861  1.1455
  750MOL0     O98892   7.905   4.861   0.290  0.1978  0.1558 -0.2714
  750MOL0     C98893   7.790   4.788   0.314  0.1135  0.5934  0.5439
  750MOL0     C98894   7.673   4.847   0.372 -0.0712 -0.6761 -0.0156
  750MOL0     C98895   7.562   4.764   0.389  0.0775 -0.7715 -0.5163
  750MOL0     C98896   7.560   4.632   0.359 -0.0987 -0.1881  0.6398
  750MOL0     C98897   7.435   4.556   0.371  0.2949  0.1779 -0.7000
  750MOL0     O98898   7.338   4.616   0.454  0.3890  0.3439 -0.9457
  750MOL0     C98899   7.208   4.567   0.490  0.0615 -0.1482  0.6055
  750MOL0     C98900   7.132   4.642   0.583 -0.0019  0.4336  0.7759
  750MOL0     C98901   7.007   4.597   0.621  0.1105  0.4762  0.1889
  750MOL0     C98902   6.951   4.472   0.593  0.1774 -0.5065  1.3347
  750MOL0     O98903   6.832   4.420   0.618  0.4433  0.2935 -0.2929
  750MOL0     C98904   6.796   4.432   0.762  0.4059 -0.5191  0.1823
  750MOL0     C98905   6.732   4.291   0.811 -0.5663 -0.2657 -0.4061
  750MOL0     C98906   6.613   4.298   0.907 -0.1327  0.3296 -0.1233
  750MOL0     C98907   6.576   4.174   0.992 -0.3142  0.1788  0.4172
  750MOL0     C98908   6.468   4.196   1.086  0.2352  0.2704  0.1261
  750MOL0     C98909   6.521   4.287   1.204  0.2041  0.3047 -0.0314
  750MOL0     C98910   6.429   4.292   1.329  0.3208 -0.8450  0.9755
  750MOL0     C98911   6.313   4.385   1.288 -0.4598 -0.1071  0.1686
  750MOL0    Cl98912   6.360   4.563   1.285 -0.5860  0.4084 -0.3030
  750MOL0     C98913   7.024   4.398   0.492  0.4554  0.8294 -0.6474
  750MOL0     C98914   7.145   4.449   0.436 -0.4464 -0.0598 -0.8163
  750MOL0     O98915   7.420   4.453   0.299 -0.1030 -0.6053 -0.5065
  750MOL0     C98916   7.675   4.569   0.306  0.2391 -0.3783  0.6146
  750MOL0     C98917   7.789   4.651   0.293 -1.3274  0.8537 -0.3980
  750MOL0     N98918   8.186   5.351   0.453  0.6583  0.7015  0.3022
  750MOL0     N98919   8.276   5.434   0.447 -0.4566 -0.3923 -0.1499
  750MOL0     C98920   9.247   5.563   1.143  0.0480 -0.1282  0.2451
  750MOL0     C98921   9.363   5.585   1.220 -0.7258  1.2685 -0.0438
  750MOL0     C98922   9.647   5.793   1.555 -0.0905  0.3103 -0.6931
  750MOL0     C98923   9.666   5.849   1.690 -1.0566  0.8936  0.4682
  750MOL0     C98924   9.794   5.852   1.749 -0.1298 -0.2889 -0.2353
  750MOL0     C98925   9.902   5.797   1.684 -0.4644 -1.3496 -0.7010
  750MOL0     O98926  10.015   5.773   1.762  0.0334  0.1487 -0.1344
  750MOL0     C98927  10.027   5.633   1.793 -1.2494 -0.0974 -0.6890
  750MOL0     C98928  10.151   5.602   1.879 -0.1180  0.6093  1.2531
  750MOL0     C98929  10.097   5.553   2.019 -0.2508 -0.4576 -0.0208
  750MOL0     C98930  10.197   5.503   2.126  0.0145  0.6697 -0.2896
  750MOL0     C98931  10.296   5.610   2.146  0.8541  0.3000 -0.3908
  750MOL0     C98932  10.385   5.689   2.150 -1.0282  0.0396 -0.1612
  750MOL0     C98933   9.888   5.742   1.559 -0.1426  0.1981  0.0595
  750MOL0     C98934   9.767   5.739   1.492 -0.3748  0.0651  0.3491
  750MOL0     H98935   9.250   5.832   1.428  1.6398  3.3334 -1.5688
  750MOL0     H98936   9.054   5.807   1.296  0.7786 -1.3160  3.5454
  750MOL0     H98937   8.946   5.821   1.033 -2.0790  1.2697  0.2788
  750MOL0     H98938   8.871   5.748   1.184  1.1226  2.1418  0.0025
  750MOL0     H98939   8.723   5.774   1.001 -1.9162 -1.2128  0.6497
  750MOL0     H98940   8.731   5.606   1.050  1.7791 -0.5805 -1.4324
  750MOL0     H98941   8.879   5.540   0.892 -1.0631 -0.0125  3.3018
  750MOL0     H98942   8.880   5.704   0.815  2.9287  1.3271  2.6636
  750MOL0     H98943   8.656   5.485   0.836  0.0098  0.3070  1.7140
  750MOL0     H98944   8.605   5.651   0.812  0.5901 -0.2042  0.7378
  750MOL0     H98945   8.806   5.516   0.619  0.0301 -1.8886  0.8690
  750MOL0     H98946   8.705   5.666   0.600 -1.8808  0.0171 -0.0590
  750MOL0     H98947   8.499   5.543   0.590 -1.5143 -2.5322  0.8845
  750MOL0     H98948   8.576   5.402   0.642  1.4469  0.4400  0.1049
  750MOL0     H98949   8.691   5.501   0.382 -1.0304  1.6572  0.3056
  750MOL0     H98950   8.656   5.335   0.425  1.7975  1.1546 -0.8683
  750MOL0     H98951   8.528   5.432   0.242 -1.3918  0.9452 -1.0444
  750MOL0     H98952   8.471   5.570   0.337 -1.4744  0.3053  1.9272
  750MOL0     H98953   8.423   5.222   0.253  0.4550 -0.6910  0.9246
  750MOL0     H98954   8.048   5.136   0.381 -0.9253 -1.6462 -0.3373
  750MOL0     H98955   8.187   5.049   0.308  0.4718  0.1982 -3.4417
  750MOL0     H98956   8.151   5.168   0.099  1.3671  1.4436  2.6844
  750MOL0     H98957   7.999   5.236   0.158 -0.3398  0.3038 -0.6559
  750MOL0     H98958   7.956   5.043   0.032 -0.3448  0.5501  0.4455
  750MOL0     H98959   8.074   4.953   0.118  0.9250  0.1041 -1.1784
  750MOL0     H98960   7.784   4.981   0.168 -0.0607  1.7277  0.5113
  750MOL0     H98961   7.853   5.062   0.307 -1.1742 -0.1668  0.8712
  750MOL0     H98962   7.655   4.953   0.381 -1.0387 -0.8655  0.4134
  750MOL0     H98963   7.473   4.820   0.419 -0.7698 -2.9931  1.4543
  750MOL0     H98964   7.170   4.736   0.622 -1.3263  1.0699  0.5719
  750MOL0     H98965   6.943   4.656   0.687  0.3030 -0.8356  1.6092
  750MOL0     H98966   6.717   4.505   0.779  0.5894 -0.4083  0.5790
  750MOL0     H98967   6.882   4.457   0.824 -3.3161  3.1164  4.6422
  750MOL0     H98968   6.805   4.229   0.863 -0.5743 -0.3744 -0.5220
  750MOL0     H98969   6.693   4.236   0.724 -0.0184 -2.0021  0.3995
  750MOL0     H98970   6.526   4.319   0.843  2.6841  1.3140 -4.0297
  750MOL0     H98971   6.631   4.387   0.968 -0.6410 -0.4188  1.1431
  750MOL0     H98972   6.547   4.098   0.920  1.1331 -0.8929  0.9150
  750MOL0     H98973   6.662   4.145   1.053 -1.3199  2.2742  3.0357
  750MOL0     H98974   6.437   4.099   1.126 -1.2174  0.9952  0.8480
  750MOL0     H98975   6.379   4.249   1.049 -0.8025 -0.0418  2.0661
  750MOL0     H98976   6.533   4.391   1.173 -1.5332  1.3885  2.5737
  750MOL0     H98977   6.616   4.246   1.240  0.3459 -0.3771 -1.1257
  750MOL0     H98978   6.386   4.191   1.335 -1.9138  0.1091  2.4261
  750MOL0     H98979   6.481   4.323   1.419 -0.0784 -0.9032  1.2292
  750MOL0     H98980   6.235   4.375   1.364  0.2282  3.7791  1.6368
  750MOL0     H98981   6.263   4.362   1.194  0.4598 -1.2825 -0.0522
  750MOL0     H98982   6.980   4.304   0.460  0.9077 -0.5376  2.3620
  750MOL0     H98983   7.187   4.396   0.351  2.0459  0.0674  0.2614
  750MOL0     H98984   7.677   4.463   0.281 -0.0861 -0.1878 -0.2693
  750MOL0     H98985   7.891   4.620   0.270 -1.4134 -0.0666  0.4227
  750MOL0     H98986   9.243   5.480   1.073 -2.1052 -1.4324  1.8251
  750MOL0     H98987   9.439   5.509   1.209 -1.4741 -0.2318  3.7370
  750MOL0     H98988   9.575   5.872   1.744 -3.6771  2.4040 -4.0664
  750MOL0     H98989   9.814   5.893   1.847 -0.3563 -6.0879  2.6378
  750MOL0     H98990  10.056   5.570   1.708 -1.0725  0.1547 -0.8155
  750MOL0     H98991   9.940   5.594   1.847  0.4332 -1.0824  1.4929
  750MOL0     H98992  10.211   5.523   1.833 -1.0999  0.5708 -0.0149
  750MOL0     H98993  10.206   5.696   1.890  0.1277  0.2554  3.6222
  750MOL0     H98994  10.020   5.478   1.998  1.7691 -2.5488 -0.3955
  750MOL0     H98995  10.049   5.641   2.061 -1.7658 -0.9299 -0.7036
  750MOL0     H98996  10.147   5.477   2.220  0.1715  1.1688 -0.0629
  750MOL0     H98997  10.249   5.414   2.089  0.8466  0.6803  0.8267
  750MOL0     H98998  10.469   5.749   2.177  0.5762 -2.6956  1.2820
  750MOL0     H98999   9.991   5.721   1.531 -0.0669  0.2314  0.3147
  750MOL0     H99000   9.762   5.699   1.391 -0.4412  2.4305 -0.6413
  751MOL0     O99001   4.455   0.706   6.238 -0.1024  0.2138 -0.0474
  751MOL0     C99002   4.386   0.757   6.146 -0.1858 -0.1633 -0.0033
  751MOL0     O99003   4.432   0.785   6.020  0.3634 -0.4576  0.0462
  751MOL0     C99004   4.561   0.784   5.991 -0.1412  0.1828 -0.5944
  751MOL0     C99005   4.667   0.832   6.069 -0.2118  0.1302  0.0906
  751MOL0     C99006   4.797   0.812   6.035 -0.3438 -0.8745 -0.1794
  751MOL0     C99007   4.832   0.765   5.908  0.0313  0.0212  0.0432
  751MOL0     O99008   4.964   0.771   5.874 -0.9391  0.3100 -0.6129
  751MOL0     C99009   4.997   0.734   5.734  0.0404 -0.4845  0.9208
  751MOL0     C99010   5.143   0.708   5.720  0.0046  0.4662 -0.3422
  751MOL0     C99011   5.166   0.642   5.582  0.9390  0.8477 -0.1731
  751MOL0     C99012   5.293   0.570   5.573 -0.5439  0.2108  0.3182
  751MOL0     C99013   5.415   0.662   5.589  0.1905  0.3372  0.6423
  751MOL0     C99014   5.539   0.586   5.557 -0.4568 -0.0566  0.0992
  751MOL0     C99015   5.654   0.680   5.580  0.4271 -0.3819 -0.4983
  751MOL0     C99016   5.790   0.611   5.609  0.3174 -0.3867  0.2831
  751MOL0     N99017   5.899   0.707   5.634  0.2387  1.1922  0.8067
  751MOL0     C99018   5.968   0.731   5.745 -0.9839 -0.7608  0.3443
  751MOL0     C99019   6.062   0.820   5.706  0.1286 -0.2133 -0.3486
  751MOL0     C99020   6.175   0.869   5.786 -0.3796  0.3647 -0.9822
  751MOL0     C99021   6.304   0.804   5.727 -0.5345  0.4571  0.3739
  751MOL0     C99022   6.324   0.658   5.767  1.1823  0.8079 -0.4539
  751MOL0     C99023   6.470   0.619   5.803  0.3859 -0.0884 -0.1229
  751MOL0     O99024   6.561   0.708   5.730  0.5229 -0.8641  0.1779
  751MOL0     C99025   6.695   0.724   5.762  0.2376 -0.8524  0.8030
  751MOL0     C99026   6.757   0.665   5.875  0.3211  0.1185 -0.1650
  751MOL0     C99027   6.900   0.664   5.896 -0.1513 -0.0861 -0.0535
  751MOL0     C99028   6.980   0.724   5.793 -0.2163 -0.6906 -0.4876
  751MOL0     C99029   7.128   0.748   5.807  0.2930  0.9130 -0.2043
  751MOL0     O99030   7.190   0.699   5.917 -0.1752  0.1602  0.1251
  751MOL0     C99031   7.326   0.712   5.933  0.7701  0.6247 -0.9518
  751MOL0     C99032   7.386   0.824   5.974 -0.1190  0.6687  0.2029
  751MOL0     C99033   7.522   0.828   5.997 -0.5906 -0.3580 -0.2455
  751MOL0     C99034   7.608   0.728   5.952  0.1599 -0.5444  0.5437
  751MOL0     O99035   7.745   0.744   5.961  0.9424 -0.1095  0.1253
  751MOL0     C99036   7.829   0.637   5.922 -1.0239  0.0855 -0.1952
  751MOL0     C99037   7.832   0.545   6.038 -0.1885  0.1333  0.2349
  751MOL0     C99038   7.953   0.580   6.128 -0.3053 -0.5196 -0.1219
  751MOL0     C99039   7.936   0.513   6.267  0.9719  0.4626 -0.5360
  751MOL0     C99040   8.057   0.537   6.353 -0.6427  0.0089  0.1114
  751MOL0     C99041   8.096   0.693   6.366  0.0540 -0.5345  0.5467
  751MOL0     C99042   8.115   0.735   6.507  0.1074 -0.4298 -0.2615
  751MOL0     C99043   8.261   0.716   6.549  0.3510  0.4475 -0.3954
  751MOL0    Cl99044   8.355   0.869   6.528 -0.3895  0.0927  0.2323
  751MOL0     C99045   7.540   0.616   5.894 -0.0754 -0.9983 -0.6892
  751MOL0     C99046   7.402   0.607   5.885 -0.0166  0.7985  0.3741
  751MOL0     O99047   7.171   0.838   5.744  0.3277 -0.3677 -1.5880
  751MOL0     C99048   6.923   0.771   5.676 -0.1854 -0.5542 -0.4069
  751MOL0     C99049   6.782   0.777   5.665  1.0430  0.2357  0.2627
  751MOL0     N99050   6.046   0.861   5.573 -0.4080 -0.4768 -0.5252
  751MOL0     N99051   5.943   0.790   5.533 -0.1387 -0.1172  0.0224
  751MOL0     C99052   4.725   0.720   5.825  0.0170  0.5704  0.5949
  751MOL0     C99053   4.588   0.735   5.866  0.1912  0.6968 -0.1079
  751MOL0     C99054   4.242   0.790   6.169  0.3810  0.0399  0.6879
  751MOL0     C99055   4.150   0.816   6.062  0.3674  0.6487  0.5128
  751MOL0     C99056   4.027   0.867   6.083 -0.7848 -0.0726  0.2679
  751MOL0     C99057   3.985   0.886   6.206  0.4859 -0.0163  0.7220
  751MOL0     O99058   3.863   0.947   6.215  0.6398 -0.9757 -0.2163
  751MOL0     C99059   3.808   0.977   6.348 -1.5146 -0.6029  0.3891
  751MOL0     C99060   3.659   1.028   6.337  0.0006 -0.2209 -0.1510
  751MOL0     C99061   3.609   1.110   6.465  0.2549  0.1577  1.4244
  751MOL0     C99062   3.462   1.105   6.499  0.0283  0.2702  0.7369
  751MOL0     C99063   3.425   0.968   6.542 -0.0934  0.6042 -0.7590
  751MOL0     C99064   3.400   0.852   6.582 -0.2366 -0.6000 -0.7946
  751MOL0     C99065   4.073   0.866   6.323  0.6789 -0.5411  0.8405
  751MOL0     C99066   4.198   0.826   6.304 -0.1847  0.0454  0.7688
  751MOL0     H99067   4.655   0.880   6.165 -1.1270  0.2411 -0.0637
  751MOL0     H99068   4.878   0.848   6.097 -0.0090  1.7271 -1.9738
  751MOL0     H99069   4.964   0.809   5.662  1.6122 -1.3760 -0.8114
  751MOL0     H99070   4.946   0.640   5.710  1.4125 -0.3714 -3.0424
  751MOL0     H99071   5.171   0.642   5.803  0.1874 -0.4611 -1.1132
  751MOL0     H99072   5.188   0.807   5.724 -2.7341  1.7681 -0.1913
  751MOL0     H99073   5.173   0.710   5.497  0.6178 -1.5550 -2.2212
  751MOL0     H99074   5.087   0.574   5.550 -0.9231  0.8025  3.8884
  751MOL0     H99075   5.303   0.482   5.637 -1.4144  0.7206  1.1737
  751MOL0     H99076   5.294   0.529   5.471  1.3547  2.5230 -0.6990
  751MOL0     H99077   5.407   0.701   5.691  2.2461  1.0490  0.5807
  751MOL0     H99078   5.411   0.753   5.528  2.5359  1.1688  1.5909
  751MOL0     H99079   5.547   0.580   5.448 -0.0818 -3.5750  0.2209
  751MOL0     H99080   5.540   0.493   5.614 -2.8388  1.1156  2.2415
  751MOL0     H99081   5.679   0.749   5.500 -0.3928  0.7501  0.1828
  751MOL0     H99082   5.629   0.740   5.668 -2.6604 -1.5901 -0.4145
  751MOL0     H99083   5.812   0.538   5.531 -1.7150 -0.8748  0.1246
  751MOL0     H99084   5.770   0.550   5.698  0.7511  1.5096  1.7558
  751MOL0     H99085   5.948   0.688   5.842 -1.2794 -0.6849  0.3163
  751MOL0     H99086   6.165   0.840   5.891  0.0424  1.7475 -0.5399
  751MOL0     H99087   6.189   0.977   5.795  2.5422 -0.0439  0.8955
  751MOL0     H99088   6.395   0.856   5.759  0.3193 -2.4051  3.1348
  751MOL0     H99089   6.304   0.807   5.618  1.4520  0.3058  0.3174
  751MOL0     H99090   6.255   0.625   5.845  0.4330 -1.3476 -1.9474
  751MOL0     H99091   6.291   0.609   5.675  1.1172 -0.5121  0.2507
  751MOL0     H99092   6.494   0.513   5.788 -2.2264 -0.7341 -0.2628
  751MOL0     H99093   6.485   0.646   5.908 -1.6814 -0.4830  0.3147
  751MOL0     H99094   6.705   0.613   5.955 -1.2347 -0.6661 -1.6317
  751MOL0     H99095   6.959   0.623   5.977 -1.2941 -0.5081  0.5846
  751MOL0     H99096   7.329   0.914   5.995  1.2018  1.3001  1.1850
  751MOL0     H99097   7.567   0.920   6.034  0.6347 -1.2206  0.4375
  751MOL0     H99098   7.927   0.684   5.912 -2.9068  4.1546 -2.1248
  751MOL0     H99099   7.793   0.590   5.829 -4.3969 -1.9786  1.9148
  751MOL0     H99100   7.845   0.443   6.001  0.1128  0.7072 -1.3214
  751MOL0     H99101   7.745   0.549   6.104 -1.4403  0.6813 -1.3894
  751MOL0     H99102   7.955   0.689   6.142  1.0899 -0.5039 -0.2368
  751MOL0     H99103   8.048   0.544   6.087  1.2028  1.4405  1.4322
  751MOL0     H99104   7.853   0.555   6.323  0.4871 -3.6796  2.3024
  751MOL0     H99105   7.916   0.406   6.263 -3.3401  1.0243  0.9710
  751MOL0     H99106   8.141   0.474   6.322 -2.8533 -2.3368 -1.5785
  751MOL0     H99107   8.029   0.510   6.456  0.8360 -1.3519  0.1888
  751MOL0     H99108   8.019   0.759   6.324  0.8534  0.2126  0.2379
  751MOL0     H99109   8.188   0.715   6.313  0.4828  2.0889  2.1853
  751MOL0     H99110   8.083   0.836   6.536  0.4922  0.3234 -2.2903
  751MOL0     H99111   8.054   0.675   6.575  0.0974  0.6377  0.7186
  751MOL0     H99112   8.310   0.631   6.501 -0.9610 -1.3355  1.2964
  751MOL0     H99113   8.275   0.674   6.649  2.6219 -1.1468 -1.2852
  751MOL0     H99114   7.585   0.530   5.846 -1.7693 -1.5613 -1.3684
  751MOL0     H99115   7.352   0.521   5.842  1.0606  2.2406 -4.4056
  751MOL0     H99116   6.980   0.801   5.589 -1.2897 -1.1301 -1.3608
  751MOL0     H99117   6.740   0.818   5.574  0.3626  0.4577  0.6748
  751MOL0     H99118   4.746   0.675   5.729  0.7649 -0.8460  1.3799
  751MOL0     H99119   4.516   0.696   5.794 -0.2631 -1.1233  1.2697
  751MOL0     H99120   4.177   0.805   5.957  2.0276  0.3017  0.9407
  751MOL0     H99121   3.954   0.896   6.008 -1.7069  1.3376  1.6631
  751MOL0     H99122   3.864   1.057   6.397 -0.8565 -0.1616 -1.0380
  751MOL0     H99123   3.818   0.889   6.412  0.0481 -1.6465 -1.2016
  751MOL0     H99124   3.647   1.100   6.256  0.6237 -2.9395 -2.8297
  751MOL0     H99125   3.592   0.941   6.327 -0.6457  0.4741 -2.3561
  751MOL0     H99126   3.639   1.213   6.443 -1.1426  0.1886 -0.5611
  751MOL0     H99127   3.677   1.080   6.545  1.2750  1.4864  1.0931
  751MOL0     H99128   3.442   1.174   6.581  1.2217  1.1369  0.3199
  751MOL0     H99129   3.400   1.122   6.411  0.0949  2.5482  1.0790
  751MOL0     H99130   3.385   0.750   6.611  0.6553 -0.2069  1.2610
  751MOL0     H99131   4.038   0.889   6.423  2.0748  0.7572  1.0674
  751MOL0     H99132   4.274   0.822   6.381 -0.5528 -0.7519  1.1102
  752MOL0     O99133   2.687   4.129   5.953 -0.1487  0.8591  0.4016
  752MOL0     C99134   2.625   4.038   5.894 -0.0122  0.1049 -0.0551
  752MOL0     O99135   2.624   4.002   5.754 -0.0858 -0.5711 -0.3419
  752MOL0     C99136   2.702   4.084   5.673 -0.1459  0.2649  1.3301
  752MOL0     C99137   2.647   4.158   5.564  0.0166  0.0469 -0.4004
  752MOL0     C99138   2.739   4.229   5.474  0.6832 -0.3191 -1.5170
  752MOL0     C99139   2.876   4.217   5.488 -0.3843  1.2460  0.3794
  752MOL0     O99140   2.968   4.271   5.396  0.0939 -1.0081 -0.7193
  752MOL0     C99141   2.966   4.418   5.416 -0.0968  0.1407  0.0816
  752MOL0     C99142   3.110   4.472   5.396 -0.1734 -0.1744 -0.2504
  752MOL0     C99143   3.105   4.618   5.360  0.0194 -0.6276  0.5322
  752MOL0     C99144   3.244   4.668   5.307 -0.3587  0.3040  1.0631
  752MOL0     C99145   3.363   4.655   5.410 -0.4986  0.0346  0.2560
  752MOL0     C99146   3.499   4.705   5.354 -0.0403  0.2436 -0.1972
  752MOL0     C99147   3.615   4.638   5.430 -0.2348 -0.3244  0.4464
  752MOL0     C99148   3.745   4.718   5.417 -0.0890 -0.1528 -0.1769
  752MOL0     N99149   3.782   4.745   5.279  0.0513  0.0951 -0.5274
  752MOL0     C99150   3.846   4.667   5.191 -0.2068  0.7398  0.2867
  752MOL0     C99151   3.806   4.708   5.064  0.1536  0.0862 -0.2633
  752MOL0     C99152   3.855   4.656   4.932  1.0688  0.2098  0.2761
  752MOL0     C99153   3.741   4.655   4.826 -0.2876  0.0079  1.2270
  752MOL0     C99154   3.645   4.547   4.875 -0.5662 -0.0303 -0.1229
  752MOL0     C99155   3.557   4.496   4.771  0.0727 -0.5998  0.9511
  752MOL0     O99156   3.456   4.596   4.738 -0.5108  0.0818 -0.4607
  752MOL0     C99157   3.343   4.541   4.680  0.0986  0.3915  0.0678
  752MOL0     C99158   3.240   4.629   4.693  0.1592  0.3131  0.7020
  752MOL0     C99159   3.108   4.596   4.649 -0.6184 -0.0184 -0.2843
  752MOL0     C99160   3.081   4.470   4.582 -0.3124  0.5919 -0.1759
  752MOL0     C99161   2.954   4.443   4.518 -0.1156  0.0521  0.1142
  752MOL0     O99162   2.844   4.519   4.566 -0.4187  0.0389  0.4312
  752MOL0     C99163   2.718   4.512   4.500  0.1133 -0.6612  0.7801
  752MOL0     C99164   2.699   4.537   4.364 -0.5064  0.2128 -0.0653
  752MOL0     C99165   2.569   4.564   4.313  0.0873 -0.3417  0.3812
  752MOL0     C99166   2.457   4.525   4.381  1.0286  0.0542 -0.3333
  752MOL0     O99167   2.334   4.556   4.315  0.3381  0.7978 -0.0091
  752MOL0     C99168   2.207   4.514   4.366  0.2925 -0.1594 -0.3300
  752MOL0     C99169   2.106   4.620   4.311  0.1689  0.2342  0.0493
  752MOL0     C99170   2.124   4.760   4.379 -0.1778  0.4967  0.4027
  752MOL0     C99171   2.032   4.873   4.319 -0.3496 -0.3536 -0.3268
  752MOL0     C99172   1.885   4.851   4.299  1.4563  0.1751 -0.7287
  752MOL0     C99173   1.801   4.789   4.411 -0.2544 -0.5055 -0.2184
  752MOL0     C99174   1.658   4.782   4.347  0.3542 -1.2983  0.8045
  752MOL0     C99175   1.594   4.924   4.353 -0.3939  0.0125 -0.3726
  752MOL0    Cl99176   1.438   4.920   4.270 -0.7123  0.1039  0.2144
  752MOL0     C99177   2.474   4.487   4.518 -0.2410  0.5723 -0.0545
  752MOL0     C99178   2.603   4.493   4.576  0.9305  0.9389 -0.0976
  752MOL0     O99179   2.957   4.373   4.422  0.8562 -0.4642  0.5049
  752MOL0     C99180   3.199   4.373   4.578 -0.0769  0.1790  0.6422
  752MOL0     C99181   3.323   4.412   4.620 -0.4709 -0.6818 -0.3634
  752MOL0     N99182   3.735   4.822   5.083  0.3074 -0.7037  0.6251
  752MOL0     N99183   3.719   4.842   5.204 -0.0938  0.5707 -0.0222
  752MOL0     C99184   2.930   4.131   5.591 -0.3704  0.0259  0.9377
  752MOL0     C99185   2.838   4.063   5.675 -0.2261  0.1849 -0.8120
  752MOL0     C99186   2.560   3.941   5.991 -1.2002  0.4101  0.0163
  752MOL0     C99187   2.551   3.967   6.134 -0.2827 -0.1772  0.6724
  752MOL0     C99188   2.470   3.884   6.212  0.4277 -0.3053 -0.4018
  752MOL0     C99189   2.396   3.777   6.161  0.6858  0.9288 -0.9417
  752MOL0     O99190   2.323   3.694   6.240 -0.1242 -0.1293  0.1493
  752MOL0     C99191   2.191   3.669   6.185 -0.5992 -0.3945  0.0441
  752MOL0     C99192   2.092   3.788   6.180 -0.4704 -0.0433  0.1758
  752MOL0     C99193   2.058   3.855   6.313 -0.1700  0.1982  1.0369
  752MOL0     C99194   2.012   3.765   6.416 -0.5654  0.0989 -0.3196
  752MOL0     C99195   1.907   3.668   6.381  0.1007 -0.2599 -0.3292
  752MOL0     C99196   1.804   3.600   6.354  0.4727  0.2338 -0.6685
  752MOL0     C99197   2.416   3.746   6.020  0.1131 -0.1817 -0.5847
  752MOL0     C99198   2.494   3.840   5.939  0.6228  0.5368  0.0637
  752MOL0     H99199   2.540   4.162   5.544 -0.2125 -2.1864  0.1546
  752MOL0     H99200   2.697   4.286   5.391 -2.3368  3.3368  2.0548
  752MOL0     H99201   2.918   4.451   5.508  0.1590 -1.1973  0.7234
  752MOL0     H99202   2.919   4.466   5.330  1.0033  1.1943  0.0365
  752MOL0     H99203   3.148   4.416   5.310 -4.0974 -2.1138 -0.9765
  752MOL0     H99204   3.170   4.471   5.487  0.6694  1.8094 -0.7364
  752MOL0     H99205   3.084   4.673   5.452 -1.5963 -0.2226 -0.0445
  752MOL0     H99206   3.037   4.642   5.277  1.6111 -1.3425 -1.0482
  752MOL0     H99207   3.268   4.609   5.218  1.5892  1.2485  0.9079
  752MOL0     H99208   3.238   4.775   5.283  0.8366  0.3380  0.8659
  752MOL0     H99209   3.362   4.547   5.427  1.0096  0.4433  3.8683
  752MOL0     H99210   3.331   4.715   5.496  1.3443  1.5144 -0.0149
  752MOL0     H99211   3.500   4.814   5.357 -2.6723  0.3280 -0.0515
  752MOL0     H99212   3.521   4.671   5.252 -0.8141 -0.5534 -0.1147
  752MOL0     H99213   3.593   4.631   5.537 -0.8488  1.2149  0.4545
  752MOL0     H99214   3.633   4.533   5.406 -1.0861 -0.0636 -1.6255
  752MOL0     H99215   3.823   4.654   5.458 -1.5947 -1.3694  0.9147
  752MOL0     H99216   3.723   4.812   5.468 -0.1665 -0.7084  0.8431
  752MOL0     H99217   3.915   4.585   5.206  2.6220  2.7978 -0.7307
  752MOL0     H99218   3.884   4.550   4.943  1.1333 -0.0248 -1.8440
  752MOL0     H99219   3.940   4.720   4.905  0.5335  2.1071  2.7352
  752MOL0     H99220   3.782   4.626   4.729  0.5759 -1.4742  2.0089
  752MOL0     H99221   3.695   4.754   4.819  1.4222  0.9363  2.2890
  752MOL0     H99222   3.707   4.463   4.909  1.1982  0.6160 -1.5582
  752MOL0     H99223   3.591   4.583   4.963 -0.3666 -2.2532  0.9877
  752MOL0     H99224   3.509   4.401   4.794 -2.0192 -0.0754 -0.9379
  752MOL0     H99225   3.615   4.478   4.680 -0.0265  0.8931  0.5606
  752MOL0     H99226   3.265   4.729   4.727 -1.2592 -0.0440  3.0128
  752MOL0     H99227   3.029   4.670   4.656  0.1291  0.9766 -1.7782
  752MOL0     H99228   2.786   4.568   4.307  0.2614 -0.6624  0.5969
  752MOL0     H99229   2.570   4.626   4.223 -0.9152  1.2653  1.4317
  752MOL0     H99230   2.201   4.519   4.475 -0.3371  2.4339 -0.4047
  752MOL0     H99231   2.175   4.412   4.342 -1.9154  0.4623 -0.2441
  752MOL0     H99232   2.003   4.584   4.312  0.6477 -1.5668 -3.0126
  752MOL0     H99233   2.138   4.649   4.210  0.0973  0.9723  0.2319
  752MOL0     H99234   2.227   4.796   4.366  0.0162  0.1165  0.8836
  752MOL0     H99235   2.105   4.740   4.485 -1.0862 -0.4970  0.0700
  752MOL0     H99236   2.033   4.961   4.383 -1.9941 -0.1021 -0.6078
  752MOL0     H99237   2.073   4.902   4.222  1.6478 -0.3821  0.4557
  752MOL0     H99238   1.876   4.785   4.212  1.1923  1.4355 -1.6851
  752MOL0     H99239   1.839   4.950   4.288  1.7748  0.2317 -1.7227
  752MOL0     H99240   1.809   4.853   4.499  2.9048  1.7100 -1.9119
  752MOL0     H99241   1.835   4.688   4.436 -0.5112 -0.1971  1.4970
  752MOL0     H99242   1.664   4.750   4.243  2.4129  2.2377 -0.3340
  752MOL0     H99243   1.602   4.709   4.406 -0.6392 -0.8761  0.4032
  752MOL0     H99244   1.649   5.000   4.296 -2.7239  0.8557 -1.6191
  752MOL0     H99245   1.578   4.961   4.455  0.3813 -1.0436  0.1624
  752MOL0     H99246   2.394   4.468   4.589  0.5188 -0.8601  0.4646
  752MOL0     H99247   2.616   4.479   4.683  2.2917 -2.1287 -0.5474
  752MOL0     H99248   3.171   4.282   4.526 -1.0674  0.9187 -0.1630
  752MOL0     H99249   3.413   4.352   4.617 -0.4336 -0.6551  0.2050
  752MOL0     H99250   3.033   4.095   5.593 -0.8424 -1.3455  1.4275
  752MOL0     H99251   2.877   3.991   5.746 -2.1349  0.4605  0.5927
  752MOL0     H99252   2.590   4.055   6.185 -1.1368  0.2526  0.6114
  752MOL0     H99253   2.473   3.915   6.316  2.9382  3.5312 -1.3883
  752MOL0     H99254   2.144   3.590   6.245 -0.7923 -0.7404 -0.5576
  752MOL0     H99255   2.202   3.619   6.088  2.7558  0.9036 -0.3883
  752MOL0     H99256   2.138   3.869   6.123  0.3321  0.3086  1.2738
  752MOL0     H99257   2.006   3.754   6.121  1.3358 -0.2256 -2.5373
  752MOL0     H99258   1.985   3.932   6.285 -1.1113 -0.8842  0.4389
  752MOL0     H99259   2.145   3.910   6.349 -0.1585 -0.5371  2.1604
  752MOL0     H99260   2.099   3.706   6.446 -0.0920  0.3285 -1.2139
  752MOL0     H99261   1.978   3.820   6.505  2.2520 -0.5513  1.2918
  752MOL0     H99262   1.718   3.546   6.319  0.2021 -0.2275  0.6456
  752MOL0     H99263   2.371   3.658   5.977 -0.9394  1.1095 -2.2194
  752MOL0     H99264   2.504   3.827   5.832  3.5558  1.4597  0.1447
  753MOL0     O99265   7.688   0.127  10.165  0.2944  0.2805 -0.3103
  753MOL0     C99266   7.668   0.202  10.077 -0.0999 -0.7383 -0.1822
  753MOL0     O99267   7.571   0.302  10.080  0.3618  0.8380 -0.2398
  753MOL0     C99268   7.505   0.318  10.202 -0.5893 -0.1813 -0.1479
  753MOL0     C99269   7.385   0.242  10.241 -0.4790  0.1179  0.7075
  753MOL0     C99270   7.298   0.281  10.343 -0.6860  0.0483  0.6390
  753MOL0     C99271   7.341   0.385  10.423  0.6495 -0.3343  0.0472
  753MOL0     O99272   7.261   0.451  10.512  0.0148  0.3503  0.0941
  753MOL0     C99273   7.133   0.488  10.463 -0.0212 -0.5439  0.0836
  753MOL0     C99274   7.103   0.612  10.547  0.1908 -0.2002 -0.8983
  753MOL0     C99275   6.973   0.682  10.501  0.3348 -0.0883 -1.2859
  753MOL0     C99276   6.933   0.799  10.592  0.1250  0.0793  0.4242
  753MOL0     C99277   6.824   0.744  10.688  0.1637 -0.0363  0.4719
  753MOL0     C99278   6.779   0.850  10.798  0.1447 -0.4721  0.6566
  753MOL0     C99279   6.677   0.788  10.906 -0.4500 -0.7062 -0.0048
  753MOL0     C99280   6.660   0.895  11.019  1.0817 -0.0861  0.0813
  753MOL0     N99281   6.578   1.003  10.964  0.4269  0.0894 -0.7790
  753MOL0     C99282   6.614   1.108  10.888  0.1400 -0.3105 -0.0119
  753MOL0     C99283   6.500   1.167  10.850  0.0859  0.1646 -0.3544
  753MOL0     C99284   6.503   1.292  10.771  1.5837  0.3543  0.7034
  753MOL0     C99285   6.395   1.294  10.657  0.0709 -0.7823 -0.3295
  753MOL0     C99286   6.413   1.208  10.537  0.2108 -0.8530 -0.3391
  753MOL0     C99287   6.321   1.251  10.433  0.7717  0.3939  0.6640
  753MOL0     O99288   6.188   1.238  10.484  0.2844  0.3411 -0.1215
  753MOL0     C99289   6.097   1.332  10.464  0.7700 -0.3011 -0.1600
  753MOL0     C99290   5.975   1.316  10.531 -0.4710  0.4521  0.8636
  753MOL0     C99291   5.875   1.413  10.530  0.3563 -0.4355  0.1268
  753MOL0     C99292   5.889   1.524  10.439  0.3161  0.3045 -0.7537
  753MOL0     C99293   5.779   1.629  10.449 -0.5268 -0.9531  0.7347
  753MOL0     O99294   5.662   1.576  10.494 -0.4653 -0.0328 -0.4504
  753MOL0     C99295   5.548   1.647  10.479 -0.5507 -0.0993 -0.5969
  753MOL0     C99296   5.441   1.578  10.530  0.1860 -0.3328 -0.5783
  753MOL0     C99297   5.317   1.642  10.549  0.6592 -0.3390  0.2365
  753MOL0     C99298   5.294   1.770  10.504 -0.1301  0.3742 -0.4567
  753MOL0     O99299   5.176   1.839  10.524  0.2502  0.3784  0.4902
  753MOL0     C99300   5.069   1.799  10.611  0.7756  0.6824  0.3210
  753MOL0     C99301   4.930   1.869  10.562 -1.1425 -0.3137 -0.9867
  753MOL0     C99302   4.883   1.823  10.428  0.0974 -0.2914 -0.3423
  753MOL0     C99303   4.757   1.906  10.383 -0.4892  0.0810  0.0246
  753MOL0     C99304   4.627   1.897  10.471 -0.4615  0.9670  0.0422
  753MOL0     C99305   4.496   1.943  10.401  0.2171 -0.5057 -0.3187
  753MOL0     C99306   4.386   1.942  10.504  0.6036 -0.3169 -0.4037
  753MOL0     C99307   4.272   2.039  10.484  0.1857  0.2589  0.3241
  753MOL0    Cl99308   4.196   2.008  10.316 -0.3360 -0.2985  0.0004
  753MOL0     C99309   5.401   1.838  10.446  0.1486 -0.2007 -0.1644
  753MOL0     C99310   5.524   1.772  10.425 -0.0575 -0.3020  0.2753
  753MOL0     O99311   5.798   1.743  10.396  0.4382 -0.0574 -0.2841
  753MOL0     C99312   6.007   1.536  10.365  0.0121 -0.4831  0.1354
  753MOL0     C99313   6.111   1.444  10.380  0.8340  0.3364  0.8612
  753MOL0     N99314   6.392   1.101  10.916  0.2719  0.4848  0.0290
  753MOL0     N99315   6.439   0.995  10.971  0.0858  0.7280 -0.1895
  753MOL0     C99316   7.462   0.457  10.394  0.9602  0.1519 -0.4936
  753MOL0     C99317   7.539   0.426  10.281  0.1934  0.3993 -0.3186
  753MOL0     C99318   7.751   0.202   9.960  0.4963 -0.2880  0.4156
  753MOL0     C99319   7.753   0.293   9.858 -0.6050  0.5636 -0.6225
  753MOL0     C99320   7.838   0.286   9.754  0.3251 -0.6201 -0.7693
  753MOL0     C99321   7.938   0.194   9.731 -0.2313  0.3813 -1.1580
  753MOL0     O99322   8.045   0.197   9.644  0.5080 -0.1356 -0.4765
  753MOL0     C99323   8.049   0.319   9.564  0.0173  0.1474 -0.8375
  753MOL0     C99324   8.129   0.427   9.642  0.4388 -0.1048  0.4109
  753MOL0     C99325   8.277   0.406   9.616  0.0926 -0.2145  0.1334
  753MOL0     C99326   8.341   0.309   9.706 -0.0395  0.7738  0.1574
  753MOL0     C99327   8.483   0.307   9.673  0.3457  0.2922  0.0039
  753MOL0     C99328   8.600   0.320   9.652 -0.3327  0.0665  0.1494
  753MOL0     C99329   7.931   0.082   9.825  0.8386  0.7504  0.0690
  753MOL0     C99330   7.845   0.092   9.935 -1.1571  0.0288 -0.5441
  753MOL0     H99331   7.356   0.149  10.194 -0.8639  0.1437  0.8943
  753MOL0     H99332   7.200   0.240  10.367 -0.5509  1.8968  5.3423
  753MOL0     H99333   7.058   0.409  10.477 -3.5434  2.1541 -1.7032
  753MOL0     H99334   7.148   0.523  10.360 -0.3241  2.1588  0.8792
  753MOL0     H99335   7.188   0.677  10.529 -0.8975  1.2886 -0.8007
  753MOL0     H99336   7.080   0.599  10.653 -1.3372  1.4990 -0.9650
  753MOL0     H99337   6.897   0.603  10.490 -0.0182 -0.1406  1.0136
  753MOL0     H99338   6.995   0.722  10.402  0.1125 -1.7471 -2.0411
  753MOL0     H99339   7.015   0.849  10.645  0.6227  0.9236 -1.0750
  753MOL0     H99340   6.892   0.885  10.537  0.1375 -1.7573 -2.6906
  753MOL0     H99341   6.861   0.649  10.728  2.0048  0.9268  1.1782
  753MOL0     H99342   6.742   0.721  10.619  1.0523  1.1906 -1.0481
  753MOL0     H99343   6.750   0.943  10.748  1.7396 -0.2878  0.0111
  753MOL0     H99344   6.865   0.879  10.860  2.3589 -1.0002 -1.9752
  753MOL0     H99345   6.575   0.779  10.869 -1.2805  1.9069  1.4046
  753MOL0     H99346   6.704   0.689  10.946  1.3552 -1.2887 -2.4429
  753MOL0     H99347   6.753   0.942  11.053  1.5886  1.2486 -2.8584
  753MOL0     H99348   6.608   0.854  11.106 -0.8013  0.3530 -0.7914
  753MOL0     H99349   6.715   1.145  10.870  0.3855 -0.5479  0.8444
  753MOL0     H99350   6.604   1.314  10.736  1.0726  1.1944 -0.3091
  753MOL0     H99351   6.474   1.372  10.841 -0.2939  1.4462 -1.1858
  753MOL0     H99352   6.383   1.394  10.615 -4.7828 -1.4792 -1.1397
  753MOL0     H99353   6.299   1.272  10.704 -0.5700  1.3562 -0.5433
  753MOL0     H99354   6.513   1.204  10.493 -0.8671  0.0413 -3.0721
  753MOL0     H99355   6.385   1.111  10.578  1.6588 -0.1992  2.4564
  753MOL0     H99356   6.329   1.184  10.347  3.1513  2.1437 -0.5827
  753MOL0     H99357   6.343   1.350  10.393 -2.7611  1.0537 -0.0083
  753MOL0     H99358   5.961   1.216  10.571  0.7875 -1.3809 -2.7910
  753MOL0     H99359   5.785   1.398  10.589 -0.4677  0.5481 -0.8261
  753MOL0     H99360   5.445   1.470  10.545 -1.5656 -0.4892 -0.9456
  753MOL0     H99361   5.234   1.588  10.594  1.3428 -0.6584  1.1221
  753MOL0     H99362   5.100   1.825  10.712 -0.5991 -1.3717  1.3570
  753MOL0     H99363   5.051   1.691  10.603 -0.3685  0.9720 -1.7213
  753MOL0     H99364   4.958   1.974  10.556 -2.2158  0.4144  3.2645
  753MOL0     H99365   4.856   1.861  10.642 -1.6029 -0.2646 -1.4013
  753MOL0     H99366   4.860   1.717  10.444 -0.1313  0.1333  2.8994
  753MOL0     H99367   4.964   1.843  10.358  0.4433 -3.2826 -0.9280
  753MOL0     H99368   4.785   2.012  10.388  2.5854 -0.3648 -3.4254
  753MOL0     H99369   4.739   1.873  10.280  3.0091  0.8738 -0.9948
  753MOL0     H99370   4.642   1.941  10.570 -1.0159  1.0243  0.1036
  753MOL0     H99371   4.616   1.793  10.502 -2.2008  1.5936  1.7129
  753MOL0     H99372   4.476   1.882  10.312 -1.5345 -0.5890  0.0919
  753MOL0     H99373   4.503   2.049  10.378 -1.1040  0.0952  1.7709
  753MOL0     H99374   4.341   1.844  10.516 -1.6499  0.8696  1.6750
  753MOL0     H99375   4.424   1.976  10.601  0.2698  3.2305 -1.3606
  753MOL0     H99376   4.304   2.144  10.494  1.4429  0.0812 -1.4609
  753MOL0     H99377   4.201   2.028  10.566 -1.0882  1.4737 -0.5583
  753MOL0     H99378   5.380   1.942  10.424 -0.5187 -0.3701 -0.3702
  753MOL0     H99379   5.588   1.820  10.351 -1.8860  1.7842 -0.0429
  753MOL0     H99380   6.031   1.632  10.320  0.6857  1.3507  4.0141
  753MOL0     H99381   6.200   1.460  10.320  1.2986  1.3345  1.7984
  753MOL0     H99382   7.487   0.551  10.443 -2.3755 -0.0209  1.8878
  753MOL0     H99383   7.612   0.494  10.237  0.7725 -2.0646 -3.5921
  753MOL0     H99384   7.673   0.367   9.854 -0.8580  0.2473 -2.3210
  753MOL0     H99385   7.825   0.365   9.680  0.2190  0.4045  0.3185
  753MOL0     H99386   7.954   0.372   9.550 -0.5987  0.0160  2.1152
  753MOL0     H99387   8.092   0.300   9.466  1.5332 -1.0348  0.0013
  753MOL0     H99388   8.106   0.529   9.609 -0.2226  0.9502  3.7874
  753MOL0     H99389   8.104   0.432   9.748  1.6841  2.6671  0.6489
  753MOL0     H99390   8.327   0.503   9.625 -0.0855 -0.1092 -0.0142
  753MOL0     H99391   8.297   0.378   9.512 -1.2687  0.4339 -0.3237
  753MOL0     H99392   8.328   0.325   9.814 -0.5484 -0.3913  0.2847
  753MOL0     H99393   8.304   0.208   9.688  1.3940  0.7138 -2.9025
  753MOL0     H99394   8.702   0.347   9.638 -0.5262  0.8140  0.1271
  753MOL0     H99395   7.992  -0.006   9.807 -2.5045 -1.8507  0.5093
  753MOL0     H99396   7.859   0.017  10.012  1.1676 -0.5986 -1.4624
  754MOL0     O99397   5.686   4.846   8.913 -0.1018 -0.6666 -0.5335
  754MOL0     C99398   5.751   4.925   8.852 -0.0050  0.6679  0.7389
  754MOL0     O99399   5.707   5.046   8.796  0.2927 -0.1545  0.0080
  754MOL0     C99400   5.576   5.076   8.779  0.4415 -0.6552 -0.1367
  754MOL0     C99401   5.537   5.201   8.817  0.5690 -0.5348 -0.1268
  754MOL0     C99402   5.401   5.241   8.799 -0.8516  0.4145  0.3478
  754MOL0     C99403   5.310   5.150   8.742  0.4092 -0.4801  0.1901
  754MOL0     O99404   5.176   5.194   8.732  0.1172  0.8239 -1.0739
  754MOL0     C99405   5.114   5.189   8.859 -0.0662 -0.0904  0.5156
  754MOL0     C99406   4.968   5.239   8.851  0.7203 -0.4572  1.3392
  754MOL0     C99407   4.873   5.156   8.763 -0.8201 -0.1656  0.1286
  754MOL0     C99408   4.885   5.157   8.608 -0.0465 -0.7252  0.7543
  754MOL0     C99409   4.769   5.087   8.534  0.5847  0.3598  0.7372
  754MOL0     C99410   4.754   4.940   8.573 -0.0259  0.6944  0.5193
  754MOL0     C99411   4.637   4.862   8.487 -0.6273 -0.1099 -0.2752
  754MOL0     C99412   4.684   4.829   8.338  0.0291 -0.3547  0.3645
  754MOL0     N99413   4.598   4.728   8.271  0.4182  0.8777 -1.1919
  754MOL0     C99414   4.552   4.716   8.144 -0.3447 -0.3349 -0.2872
  754MOL0     C99415   4.465   4.609   8.160 -0.4699 -0.2537  0.1508
  754MOL0     C99416   4.375   4.568   8.047 -0.2985  0.6488  0.0153
  754MOL0     C99417   4.232   4.587   8.052 -1.2196  0.6009 -0.4036
  754MOL0     C99418   4.193   4.739   8.068  0.0365  0.6695 -0.7854
  754MOL0     C99419   4.178   4.827   7.945  0.2281  0.1156 -0.0719
  754MOL0     O99420   4.177   4.972   7.978 -0.5062  0.9435  0.2783
  754MOL0     C99421   4.052   5.029   7.999  0.6962  0.4847 -0.3547
  754MOL0     C99422   3.965   5.058   7.897  0.3547 -0.4673 -0.9966
  754MOL0     C99423   3.840   5.121   7.908 -0.0880  0.0460  0.3153
  754MOL0     C99424   3.809   5.170   8.035  0.4116  0.7681 -1.0985
  754MOL0     C99425   3.695   5.250   8.054 -0.1680 -0.6536 -0.2900
  754MOL0     O99426   3.680   5.306   8.187  0.5644 -0.1061  0.3464
  754MOL0     C99427   3.606   5.417   8.198  0.0980  1.0864 -0.0475
  754MOL0     C99428   3.632   5.535   8.136  0.7391 -0.1274 -0.8002
  754MOL0     C99429   3.575   5.653   8.176  0.5305  0.2043  1.1906
  754MOL0     C99430   3.468   5.652   8.268  1.2466 -1.2920 -0.2731
  754MOL0     O99431   3.412   5.777   8.307  0.6742  0.2013 -0.4160
  754MOL0     C99432   3.360   5.866   8.206  0.5472  0.8825 -0.1367
  754MOL0     C99433   3.206   5.882   8.209 -0.6536 -1.0925  0.2737
  754MOL0     C99434   3.162   5.988   8.316  0.3212  1.0681  0.4063
  754MOL0     C99435   3.152   6.136   8.271 -0.6480  0.2490  0.5556
  754MOL0     C99436   3.008   6.188   8.255 -0.0897 -0.2956  0.1266
  754MOL0     C99437   2.934   6.097   8.147  0.0061  0.5064 -0.0799
  754MOL0     C99438   2.793   6.163   8.120 -0.4908  0.0249  0.4493
  754MOL0     C99439   2.724   6.108   8.001  0.0687 -0.1829 -0.3384
  754MOL0    Cl99440   2.572   6.197   7.960 -0.1013  0.3445  0.7222
  754MOL0     C99441   3.421   5.537   8.309 -0.1858  0.2607 -0.1342
  754MOL0     C99442   3.493   5.425   8.289  0.1774 -0.0596  0.4201
  754MOL0     O99443   3.618   5.276   7.956 -0.4355 -1.0878  0.0667
  754MOL0     C99444   3.893   5.129   8.147 -0.5617  0.6584 -0.2331
  754MOL0     C99445   4.009   5.059   8.129 -0.7053 -0.5265 -0.7096
  754MOL0     N99446   4.478   4.552   8.287 -0.2751 -0.0219 -0.4208
  754MOL0     N99447   4.569   4.616   8.353  0.8491 -0.0015 -0.3170
  754MOL0     C99448   5.344   5.023   8.703 -0.4275 -0.1233 -0.2670
  754MOL0     C99449   5.479   4.988   8.723 -0.5737  0.6978 -0.1971
  754MOL0     C99450   5.904   4.915   8.869  0.7661  0.3288  0.3523
  754MOL0     C99451   5.960   4.795   8.929  0.1937  0.2280  0.0600
  754MOL0     C99452   6.093   4.774   8.957 -0.3149 -0.7292 -0.2041
  754MOL0     C99453   6.190   4.870   8.912  0.3104 -0.0927 -1.0225
  754MOL0     O99454   6.324   4.836   8.932  0.0507 -0.2775  0.0673
  754MOL0     C99455   6.420   4.894   8.846  0.4055  0.1977  0.2636
  754MOL0     C99456   6.543   4.804   8.812  0.2819 -0.2854  0.1365
  754MOL0     C99457   6.645   4.768   8.919 -0.3991 -0.7101 -0.5556
  754MOL0     C99458   6.730   4.899   8.953  0.3144  0.5597  0.0541
  754MOL0     C99459   6.785   4.872   9.089 -1.0094 -0.7701 -0.6321
  754MOL0     C99460   6.824   4.832   9.200  0.9044 -0.5709 -0.7052
  754MOL0     C99461   6.137   4.991   8.855  0.2449 -1.2559  0.2734
  754MOL0     C99462   5.999   5.003   8.824  0.8067 -0.1430 -1.1348
  754MOL0     H99463   5.601   5.272   8.870 -0.0723 -0.9983  1.3219
  754MOL0     H99464   5.373   5.345   8.812 -1.4639  0.3082 -0.0623
  754MOL0     H99465   5.168   5.249   8.933 -2.8216  2.5451  0.5646
  754MOL0     H99466   5.115   5.087   8.899  0.5791 -0.7377 -1.0602
  754MOL0     H99467   4.982   5.341   8.815  1.6325 -0.8563  0.5176
  754MOL0     H99468   4.928   5.237   8.953 -1.3442  1.2324  0.6245
  754MOL0     H99469   4.769   5.185   8.785 -0.3261  1.3350  0.5622
  754MOL0     H99470   4.873   5.050   8.791 -0.0892 -0.2217 -0.0721
  754MOL0     H99471   4.897   5.261   8.578 -1.0522  0.0952  2.9883
  754MOL0     H99472   4.977   5.106   8.578  1.4724  1.7275  1.0140
  754MOL0     H99473   4.794   5.102   8.428  0.3871 -0.6825  0.5399
  754MOL0     H99474   4.676   5.145   8.533 -0.0909 -0.6908 -0.7059
  754MOL0     H99475   4.735   4.925   8.680 -0.3078 -0.1861  0.3525
  754MOL0     H99476   4.851   4.895   8.555 -0.6610 -0.0683 -1.2142
  754MOL0     H99477   4.619   4.768   8.541 -1.0109  0.8133  1.2751
  754MOL0     H99478   4.559   4.937   8.492 -2.2520 -1.7769  0.6918
  754MOL0     H99479   4.786   4.789   8.336 -0.4343 -1.7496  2.2162
  754MOL0     H99480   4.674   4.924   8.284  1.9279 -0.2769  0.0719
  754MOL0     H99481   4.566   4.786   8.063  1.8444 -2.5010 -1.9224
  754MOL0     H99482   4.394   4.465   8.015  0.1426  1.3295 -2.0452
  754MOL0     H99483   4.402   4.620   7.955 -2.2003 -1.5012 -1.8927
  754MOL0     H99484   4.185   4.513   8.117  0.5476 -0.9284 -0.7707
  754MOL0     H99485   4.191   4.554   7.955  0.4609  3.5258 -2.2540
  754MOL0     H99486   4.093   4.741   8.114 -0.2459 -0.3870 -1.3215
  754MOL0     H99487   4.261   4.797   8.131 -2.2794  2.3850  0.3137
  754MOL0     H99488   4.083   4.806   7.894  0.9972  0.6315 -1.7917
  754MOL0     H99489   4.257   4.805   7.873  0.2164 -0.3215  0.0457
  754MOL0     H99490   3.995   5.025   7.798  1.5876 -0.6289 -0.5808
  754MOL0     H99491   3.779   5.136   7.820 -0.2300 -0.6797  0.2807
  754MOL0     H99492   3.716   5.539   8.066 -0.4126  1.6237 -2.1969
  754MOL0     H99493   3.617   5.746   8.140  2.0558  0.0372  2.4312
  754MOL0     H99494   3.393   5.825   8.110 -1.3411  0.6515 -0.7383
  754MOL0     H99495   3.409   5.963   8.222 -0.6264  1.4531  0.1852
  754MOL0     H99496   3.156   5.785   8.215 -1.9607 -0.3517  2.2590
  754MOL0     H99497   3.177   5.927   8.114 -2.9425 -0.8858  1.0088
  754MOL0     H99498   3.242   5.966   8.387  0.7809  0.8354 -0.1817
  754MOL0     H99499   3.069   5.972   8.373  2.3133 -0.0238  3.5982
  754MOL0     H99500   3.198   6.199   8.349 -1.3087 -0.8301  1.8487
  754MOL0     H99501   3.208   6.154   8.179  0.8442 -0.4350  1.2928
  754MOL0     H99502   3.006   6.288   8.210  0.3697 -0.7543 -0.9590
  754MOL0     H99503   2.956   6.183   8.351 -4.7386 -0.6995 -2.1120
  754MOL0     H99504   2.925   5.998   8.192  0.5728  0.0887 -0.8740
  754MOL0     H99505   2.993   6.104   8.055  2.3148  0.2491  1.3117
  754MOL0     H99506   2.730   6.153   8.209 -2.3484  0.6195 -0.7441
  754MOL0     H99507   2.808   6.269   8.097 -0.7554 -0.6754 -3.7369
  754MOL0     H99508   2.699   6.003   8.018 -0.5820  0.1693  1.0021
  754MOL0     H99509   2.794   6.106   7.917  1.9610 -1.5328  1.1602
  754MOL0     H99510   3.331   5.537   8.370  0.1122  0.3685  0.3090
  754MOL0     H99511   3.462   5.332   8.335  0.4726 -0.7517 -0.7352
  754MOL0     H99512   3.857   5.149   8.247  1.5398  0.1685  0.6768
  754MOL0     H99513   4.071   5.048   8.217 -0.2388 -2.3867 -1.2395
  754MOL0     H99514   5.271   4.958   8.656 -1.5179  0.8634  0.0306
  754MOL0     H99515   5.515   4.888   8.702  1.7611  2.2312 -4.6329
  754MOL0     H99516   5.900   4.712   8.966  0.7049 -0.7964 -1.2987
  754MOL0     H99517   6.125   4.680   9.003  1.1204  0.5960  1.6558
  754MOL0     H99518   6.455   4.992   8.876 -0.5519  1.3120 -1.9683
  754MOL0     H99519   6.375   4.914   8.748  0.3156  1.9924  0.6439
  754MOL0     H99520   6.498   4.712   8.773  2.4781 -0.7636 -1.4159
  754MOL0     H99521   6.598   4.847   8.729  0.2067 -0.3699  0.0421
  754MOL0     H99522   6.709   4.682   8.897  0.5719  0.0224 -0.6704
  754MOL0     H99523   6.588   4.732   9.005 -0.5433  0.2323 -0.2499
  754MOL0     H99524   6.810   4.899   8.879  0.8288  0.7911  0.5985
  754MOL0     H99525   6.665   4.987   8.957  0.0494  0.3579  0.2032
  754MOL0     H99526   6.881   4.796   9.283  1.3705  0.4128 -0.5820
  754MOL0     H99527   6.201   5.072   8.823  1.5387 -0.7246  3.6811
  754MOL0     H99528   5.973   5.096   8.775  3.4290  0.7817 -0.8977
  755MOL0     O99529   9.071   8.712   8.537 -0.5713  0.1703 -0.0920
  755MOL0     C99530   9.005   8.651   8.622  0.5038  0.5409  0.5058
  755MOL0     O99531   8.871   8.661   8.633  0.2723  0.3209 -0.0268
  755MOL0     C99532   8.827   8.780   8.582  0.7091  0.0084  0.2410
  755MOL0     C99533   8.800   8.889   8.673 -0.3596 -0.3867 -0.3059
  755MOL0     C99534   8.747   9.012   8.632  0.7114 -0.2388 -0.2766
  755MOL0     C99535   8.711   9.032   8.494  1.0808 -0.5427 -0.5405
  755MOL0     O99536   8.654   9.150   8.447  0.5843 -1.0899 -0.1542
  755MOL0     C99537   8.542   9.193   8.528 -0.5329  0.3332 -0.4909
  755MOL0     C99538   8.494   9.317   8.463  0.3738  0.0297  0.1838
  755MOL0     C99539   8.450   9.413   8.571  0.9390 -0.4247 -0.2577
  755MOL0     C99540   8.371   9.534   8.508  0.5192  0.0164  0.1139
  755MOL0     C99541   8.475   9.637   8.443  0.1492 -0.2903  0.3530
  755MOL0     C99542   8.547   9.730   8.551 -0.1979  0.9409  0.0350
  755MOL0     C99543   8.460   9.796   8.651 -0.0290  0.1401 -0.3483
  755MOL0     C99544   8.377   9.906   8.588 -0.1508  0.2537 -0.6903
  755MOL0     N99545   8.312   9.993   8.684  1.1501 -0.8084  0.0985
  755MOL0     C99546   8.345  10.134   8.695  1.1030  0.8755 -0.0612
  755MOL0     C99547   8.271  10.180   8.798  0.0182 -1.1134 -0.8151
  755MOL0     C99548   8.261  10.309   8.861 -0.6780  2.0690 -0.3029
  755MOL0     C99549   8.383  10.402   8.858 -0.1552  0.9635  0.3111
  755MOL0     C99550   8.518  10.338   8.902  0.4775 -1.5318 -0.4408
  755MOL0     C99551   8.503  10.302   9.053 -0.0019 -0.1560 -0.7097
  755MOL0     O99552   8.629  10.260   9.099  0.1613 -0.2865  0.1537
  755MOL0     C99553   8.659  10.128   9.085 -0.7341  0.0357 -0.1513
  755MOL0     C99554   8.588  10.033   9.013 -0.5285  0.7727 -0.5333
  755MOL0     C99555   8.628   9.900   9.008 -0.3447  0.2589 -0.5406
  755MOL0     C99556   8.749   9.859   9.077 -0.1574  0.5801 -0.9409
  755MOL0     C99557   8.786   9.714   9.077  0.1983  0.2484  0.2439
  755MOL0     O99558   8.878   9.677   9.161 -1.5487 -0.3289 -0.3383
  755MOL0     C99559   8.899   9.542   9.187 -0.3375 -0.6769  0.3290
  755MOL0     C99560   8.913   9.497   9.316 -0.0241 -1.2141 -0.1750
  755MOL0     C99561   8.934   9.364   9.349  0.3478 -0.3241  0.0246
  755MOL0     C99562   8.957   9.267   9.253  0.5194  0.0745  0.2384
  755MOL0     O99563   8.977   9.134   9.279  0.2024 -0.0630 -0.0071
  755MOL0     C99564   8.954   9.085   9.409  0.5048 -0.2681 -0.7709
  755MOL0     C99565   9.076   9.110   9.492 -0.2856 -0.0312 -0.3675
  755MOL0     C99566   9.135   8.986   9.562  0.8321  0.0041 -0.7020
  755MOL0     C99567   9.255   9.018   9.651  0.0651 -0.1472  0.1474
  755MOL0     C99568   9.364   9.064   9.565 -0.4974  0.0048 -0.6790
  755MOL0     C99569   9.491   9.078   9.645  0.5595 -1.0099  0.8634
  755MOL0     C99570   9.603   9.123   9.553 -0.4484 -0.0182 -0.0125
  755MOL0     C99571   9.726   9.174   9.639  0.2910 -0.2779  0.3037
  755MOL0    Cl99572   9.698   9.354   9.643  0.3228  0.4329 -0.2941
  755MOL0     C99573   8.960   9.310   9.113  1.2297  1.2818 -0.6782
  755MOL0     C99574   8.923   9.443   9.083 -0.2444  0.6715  0.1815
  755MOL0     O99575   8.734   9.640   8.995 -0.1858  0.0928 -0.1069
  755MOL0     C99576   8.820   9.955   9.164 -0.2613 -0.4545  0.1208
  755MOL0     C99577   8.770  10.086   9.162 -0.4130  0.5337  0.1658
  755MOL0     N99578   8.176  10.086   8.831  0.5917  1.2472 -0.2643
  755MOL0     N99579   8.199   9.974   8.763  0.0140 -0.2770 -0.3700
  755MOL0     C99580   8.727   8.919   8.408  0.8500 -0.4594  0.3872
  755MOL0     C99581   8.786   8.803   8.447 -0.9111 -0.0408  0.1448
  755MOL0     C99582   9.071   8.536   8.676  0.0916 -0.8936 -0.9696
  755MOL0     C99583   9.199   8.492   8.645  0.1991  0.5061 -0.2650
  755MOL0     C99584   9.259   8.382   8.686  1.1806 -0.8221  0.1178
  755MOL0     C99585   9.197   8.310   8.781  0.0497 -0.1160 -0.3678
  755MOL0     O99586   9.271   8.203   8.820 -0.0468  0.0072  0.3527
  755MOL0     C99587   9.228   8.114   8.922 -0.1217  1.2104  0.0150
  755MOL0     C99588   9.248   8.174   9.060 -0.0937 -1.0678  0.3414
  755MOL0     C99589   9.404   8.197   9.088  0.8195 -0.2725  0.4582
  755MOL0     C99590   9.423   8.307   9.200 -0.0349 -0.0483  0.1526
  755MOL0     C99591   9.355   8.275   9.326  0.8548 -0.4379 -0.0965
  755MOL0     C99592   9.293   8.243   9.429  0.7301 -0.3880  0.6110
  755MOL0     C99593   9.069   8.345   8.823  0.7530 -0.0900  0.3640
  755MOL0     C99594   9.002   8.460   8.773 -0.0657  0.7853  0.1942
  755MOL0     H99595   8.829   8.879   8.778 -1.8297 -0.3017  0.1306
  755MOL0     H99596   8.735   9.089   8.708  3.2866  1.6365 -1.6063
  755MOL0     H99597   8.561   9.224   8.631  1.9502  0.0338 -0.7850
  755MOL0     H99598   8.463   9.118   8.531  0.7034 -1.0257 -0.4319
  755MOL0     H99599   8.412   9.286   8.398 -1.5047  0.0237  2.4314
  755MOL0     H99600   8.569   9.366   8.400 -0.8479  0.5618 -0.9096
  755MOL0     H99601   8.542   9.445   8.620 -0.4907  1.4991  1.3439
  755MOL0     H99602   8.393   9.355   8.644  1.3040 -1.2960 -0.6479
  755MOL0     H99603   8.302   9.497   8.432  1.3064  0.5855 -0.9013
  755MOL0     H99604   8.317   9.587   8.587  2.1078 -0.6953  1.7529
  755MOL0     H99605   8.409   9.681   8.367  0.9161  0.2593 -0.0063
  755MOL0     H99606   8.554   9.591   8.384  0.2049  1.7850 -1.3359
  755MOL0     H99607   8.602   9.807   8.497 -0.9038  0.4889 -1.4099
  755MOL0     H99608   8.615   9.667   8.608 -0.5695  0.5356  0.0380
  755MOL0     H99609   8.410   9.722   8.714  1.6584 -0.3447  0.4898
  755MOL0     H99610   8.524   9.838   8.729  0.7248  0.6076 -1.2115
  755MOL0     H99611   8.301   9.857   8.526 -2.4418 -0.1550  2.2256
  755MOL0     H99612   8.439   9.976   8.530  0.5256  2.0174  1.9760
  755MOL0     H99613   8.430  10.181   8.645  1.6318 -0.7654 -0.7801
  755MOL0     H99614   8.233  10.290   8.966  0.6777  0.4790 -0.1836
  755MOL0     H99615   8.172  10.353   8.815 -2.6791 -0.9414  0.3188
  755MOL0     H99616   8.353  10.489   8.917 -4.5361 -0.2798  0.2648
  755MOL0     H99617   8.391  10.440   8.756 -1.3404 -1.9151 -0.9501
  755MOL0     H99618   8.550  10.250   8.846  1.3550 -0.5691 -1.4829
  755MOL0     H99619   8.602  10.408   8.896  0.0330 -0.3353  3.6911
  755MOL0     H99620   8.419  10.236   9.074 -1.2962  1.7501  0.5047
  755MOL0     H99621   8.468  10.395   9.100  0.1646 -0.1688 -0.5582
  755MOL0     H99622   8.507  10.062   8.947  0.5223  1.3810 -1.5849
  755MOL0     H99623   8.566   9.831   8.952  0.7784  0.5981 -2.3026
  755MOL0     H99624   8.906   9.575   9.391 -2.2005 -0.2543 -1.2477
  755MOL0     H99625   8.937   9.333   9.453 -2.9441  2.9569  1.3118
  755MOL0     H99626   8.939   8.977   9.400  1.6004 -0.9843  3.7379
  755MOL0     H99627   8.867   9.132   9.456  1.3876 -2.1957  3.2270
  755MOL0     H99628   9.070   9.196   9.559  2.6277 -0.0968  0.1089
  755MOL0     H99629   9.163   9.136   9.431 -0.9522  0.5450 -1.0911
  755MOL0     H99630   9.165   8.907   9.492 -0.1927 -1.8248  0.8066
  755MOL0     H99631   9.061   8.938   9.627  2.0214 -1.4930 -0.4024
  755MOL0     H99632   9.223   9.086   9.731 -2.0683 -3.4643  2.3487
  755MOL0     H99633   9.276   8.922   9.698 -0.3559 -0.0248  0.5897
  755MOL0     H99634   9.337   9.163   9.527  0.2370  0.2013 -0.7142
  755MOL0     H99635   9.392   8.999   9.482  0.2017 -1.3411  0.5756
  755MOL0     H99636   9.521   8.979   9.679  2.4040 -0.8215 -0.0630
  755MOL0     H99637   9.477   9.144   9.731 -1.8770 -0.6864  0.2971
  755MOL0     H99638   9.630   9.034   9.496 -1.0878 -1.2186  1.4898
  755MOL0     H99639   9.578   9.202   9.481  0.5244 -1.8782 -2.5389
  755MOL0     H99640   9.821   9.161   9.587  0.2357 -0.1203  0.1637
  755MOL0     H99641   9.737   9.135   9.741 -1.1747 -0.5739  0.3758
  755MOL0     H99642   8.963   9.239   9.031  3.1342 -1.3071  1.4679
  755MOL0     H99643   8.922   9.477   8.980  3.6933 -0.6131 -0.4406
  755MOL0     H99644   8.909   9.924   9.218  0.9696 -2.0072 -2.5974
  755MOL0     H99645   8.824  10.168   9.208 -0.5062 -0.2737  1.8063
  755MOL0     H99646   8.710   8.928   8.301 -0.9585  2.1546  0.7877
  755MOL0     H99647   8.813   8.720   8.382  2.1619  1.7676 -1.1278
  755MOL0     H99648   9.258   8.557   8.581 -0.5201  1.9599  0.4973
  755MOL0     H99649   9.359   8.352   8.655  1.9621  1.0704  0.6651
  755MOL0     H99650   9.290   8.023   8.920  2.1357  2.6756 -1.3215
  755MOL0     H99651   9.123   8.087   8.905  0.0899  2.1841 -3.7508
  755MOL0     H99652   9.196   8.269   9.053 -1.4639 -1.8392 -0.4260
  755MOL0     H99653   9.213   8.100   9.133  0.7307 -3.9111 -1.9458
  755MOL0     H99654   9.448   8.238   8.996 -0.6172 -1.5689 -0.8491
  755MOL0     H99655   9.457   8.107   9.120 -0.6479 -2.3060 -2.4297
  755MOL0     H99656   9.530   8.319   9.219 -0.1570 -0.4228  1.1805
  755MOL0     H99657   9.394   8.407   9.167  3.1300  2.6838  4.5498
  755MOL0     H99658   9.247   8.195   9.513  0.1159  0.2153  0.6268
  755MOL0     H99659   9.016   8.282   8.893 -3.7296  1.2494 -1.4703
  755MOL0     H99660   8.899   8.473   8.804 -0.2061  2.3730 -0.8007
  756MOL0     O99661   9.404   4.727   7.004 -0.5521 -0.6221 -0.4892
  756MOL0     C99662   9.310   4.746   7.079 -0.8508  0.0159 -0.4323
  756MOL0     O99663   9.220   4.845   7.064  0.5637  0.3557 -0.2968
  756MOL0     C99664   9.190   4.918   6.952 -0.0869  0.3980 -0.0008
  756MOL0     C99665   9.246   4.902   6.825 -0.3670 -0.9402  0.2554
  756MOL0     C99666   9.204   4.994   6.720  0.4399  0.0172 -0.0576
  756MOL0     C99667   9.118   5.104   6.745 -0.1326  0.3434  0.2581
  756MOL0     O99668   9.082   5.209   6.656  0.4237  0.7721 -0.4467
  756MOL0     C99669   9.066   5.164   6.514  0.4443  0.4109 -0.3172
  756MOL0     C99670   9.036   5.286   6.432  0.1984  0.1143  0.1546
  756MOL0     C99671   8.900   5.358   6.460 -0.1294 -0.0109 -0.2817
  756MOL0     C99672   8.895   5.492   6.383 -0.0060  0.5355 -0.0230
  756MOL0     C99673   8.753   5.565   6.392 -0.4710 -0.1534  0.0473
  756MOL0     C99674   8.758   5.678   6.281  0.0293  0.0775  1.5231
  756MOL0     C99675   8.629   5.763   6.268 -0.2823  0.4490 -0.6552
  756MOL0     C99676   8.503   5.677   6.249  0.1528  0.0017  0.8343
  756MOL0     N99677   8.385   5.757   6.209 -0.6688  0.1865 -0.8751
  756MOL0     C99678   8.279   5.776   6.294  0.1810  0.5346 -0.2569
  756MOL0     C99679   8.188   5.823   6.201  0.7672  0.6254 -0.4341
  756MOL0     C99680   8.044   5.868   6.204  0.4188  0.4020  0.1522
  756MOL0     C99681   7.950   5.750   6.252  0.2162  0.3414 -0.8747
  756MOL0     C99682   7.933   5.635   6.141 -0.1672  0.3140  0.5475
  756MOL0     C99683   7.955   5.491   6.200  0.3827  0.1772 -0.4645
  756MOL0     O99684   8.074   5.484   6.283  0.6353 -0.2376  0.4382
  756MOL0     C99685   8.184   5.442   6.221 -0.1465  0.6199  1.0741
  756MOL0     C99686   8.266   5.359   6.298  0.0645  0.4159 -0.4542
  756MOL0     C99687   8.384   5.304   6.249 -0.6442 -1.0912  1.0094
  756MOL0     C99688   8.435   5.335   6.112  0.0054  0.9307 -0.3279
  756MOL0     C99689   8.567   5.292   6.053 -0.0816 -0.2796  0.4220
  756MOL0     O99690   8.645   5.224   6.149 -0.6618 -0.0391  0.0858
  756MOL0     C99691   8.758   5.151   6.125 -0.7424  0.3074  0.3858
  756MOL0     C99692   8.815   5.090   6.240  0.8163 -0.5820  0.0458
  756MOL0     C99693   8.919   5.002   6.234 -0.6563 -0.5778 -0.7253
  756MOL0     C99694   8.976   4.964   6.114  0.4997  0.1477 -1.1067
  756MOL0     O99695   9.082   4.880   6.091 -0.9441 -0.6726 -0.4399
  756MOL0     C99696   9.142   4.817   6.200 -0.2242  1.0457  0.2498
  756MOL0     C99697   9.255   4.740   6.138 -0.4078 -0.3464 -1.1088
  756MOL0     C99698   9.226   4.658   6.015  0.1338  0.7139  0.6729
  756MOL0     C99699   9.347   4.545   6.001 -0.2769  0.1805  0.6611
  756MOL0     C99700   9.316   4.448   5.893  0.3637  0.3244 -0.1031
  756MOL0     C99701   9.402   4.328   5.878 -0.4664  0.0114 -1.1791
  756MOL0     C99702   9.412   4.221   5.990  0.2444  0.4206  0.0907
  756MOL0     C99703   9.549   4.210   6.064 -0.4518 -0.2173 -0.1965
  756MOL0    Cl99704   9.508   4.112   6.208  0.6482 -0.1501 -0.1100
  756MOL0     C99705   8.926   5.034   6.002 -0.3799 -0.2263 -0.7283
  756MOL0     C99706   8.816   5.134   6.001 -1.4106  0.6328  0.1270
  756MOL0     O99707   8.601   5.323   5.948  0.1755 -0.1873  0.3529
  756MOL0     C99708   8.348   5.420   6.042 -0.4230 -0.5723  0.2785
  756MOL0     C99709   8.226   5.472   6.089 -0.3766 -0.7146 -0.8248
  756MOL0     N99710   8.245   5.846   6.081  0.1778 -0.5724  1.2731
  756MOL0     N99711   8.365   5.807   6.082  0.5444 -0.3659  0.2420
  756MOL0     C99712   9.073   5.114   6.872 -0.7037 -0.0110  0.5148
  756MOL0     C99713   9.100   5.017   6.967  0.3313  0.2266 -0.0043
  756MOL0     C99714   9.284   4.656   7.187  0.9010  0.1312  0.3063
  756MOL0     C99715   9.372   4.554   7.214  1.3780  0.0551  0.5485
  756MOL0     C99716   9.344   4.457   7.306 -0.3519 -0.8529 -0.9169
  756MOL0     C99717   9.229   4.456   7.385 -0.0077  0.0254 -0.1481
  756MOL0     O99718   9.197   4.356   7.467  0.0924  0.1999 -0.1007
  756MOL0     C99719   9.298   4.277   7.530  0.0658  0.1331  0.4132
  756MOL0     C99720   9.219   4.167   7.605  0.5344  0.0857  0.8664
  756MOL0     C99721   9.311   4.092   7.707 -0.3336  0.6509 -0.3163
  756MOL0     C99722   9.361   4.179   7.815 -0.1008  0.4985 -0.1408
  756MOL0     C99723   9.504   4.173   7.821  0.4914  0.4080  0.0443
  756MOL0     C99724   9.629   4.181   7.827  0.6215  0.1333 -0.0391
  756MOL0     C99725   9.140   4.562   7.360  0.0242  0.3704 -0.0115
  756MOL0     C99726   9.163   4.658   7.262 -0.0741 -0.0384 -0.3249
  756MOL0     H99727   9.320   4.826   6.805 -1.2827 -1.2329 -2.4870
  756MOL0     H99728   9.242   4.981   6.619 -2.6834  2.4100 -1.7422
  756MOL0     H99729   8.993   5.084   6.498  1.0010 -0.0461 -0.5953
  756MOL0     H99730   9.166   5.129   6.487  1.4820  1.0264  2.3978
  756MOL0     H99731   9.043   5.258   6.326  1.8887  0.5993  0.0974
  756MOL0     H99732   9.108   5.366   6.452 -1.2888  1.8182 -0.9771
  756MOL0     H99733   8.888   5.361   6.569  1.6069  1.5140 -0.0943
  756MOL0     H99734   8.812   5.301   6.428 -0.8645  0.8508  0.1556
  756MOL0     H99735   8.976   5.557   6.418 -0.7128  0.5038  1.7836
  756MOL0     H99736   8.914   5.468   6.278 -4.2896  0.6942 -1.0020
  756MOL0     H99737   8.726   5.610   6.488 -1.1566  3.9900 -1.8794
  756MOL0     H99738   8.684   5.483   6.367  1.3836 -1.2291 -1.9636
  756MOL0     H99739   8.781   5.625   6.188 -0.1533  3.2275 -0.4751
  756MOL0     H99740   8.842   5.742   6.312  1.4389 -1.8523  1.8168
  756MOL0     H99741   8.617   5.814   6.364  1.0433 -1.6516  0.6915
  756MOL0     H99742   8.643   5.832   6.184  0.7211  1.2332  0.1416
  756MOL0     H99743   8.495   5.615   6.339  1.0031  0.7126  1.4129
  756MOL0     H99744   8.522   5.610   6.165 -0.9558  1.4840 -0.6830
  756MOL0     H99745   8.270   5.750   6.399  0.7422 -1.1766 -0.5983
  756MOL0     H99746   7.998   5.908   6.113  0.4743 -0.9727 -0.5149
  756MOL0     H99747   8.051   5.946   6.281  0.8017  0.6421 -0.1249
  756MOL0     H99748   7.853   5.791   6.282  0.2815  0.0985 -0.3396
  756MOL0     H99749   7.996   5.712   6.343  0.6754  3.8652  0.5448
  756MOL0     H99750   7.834   5.630   6.094  0.7422  0.3796 -1.4754
  756MOL0     H99751   8.000   5.655   6.057 -1.8322 -0.8452 -1.1280
  756MOL0     H99752   7.971   5.420   6.119 -2.5020 -1.5909  0.3823
  756MOL0     H99753   7.867   5.440   6.240  0.6752 -0.2529 -0.3531
  756MOL0     H99754   8.256   5.355   6.406 -2.2892  3.9962 -0.3644
  756MOL0     H99755   8.447   5.266   6.329  1.1462 -2.0020 -0.7539
  756MOL0     H99756   8.778   5.109   6.340  4.9129 -1.9353  2.0419
  756MOL0     H99757   8.939   4.958   6.331 -1.9634 -0.9813 -0.6204
  756MOL0     H99758   9.072   4.750   6.252  1.5497 -1.0968  0.0477
  756MOL0     H99759   9.184   4.888   6.272  0.5004  2.1309 -1.1836
  756MOL0     H99760   9.286   4.671   6.216  3.7346  1.9888 -0.4128
  756MOL0     H99761   9.348   4.797   6.149 -0.2573 -1.1529  3.7259
  756MOL0     H99762   9.217   4.719   5.925  0.3535  0.0732  0.2131
  756MOL0     H99763   9.132   4.605   6.036  0.6780 -0.6520 -0.1989
  756MOL0     H99764   9.442   4.595   5.981 -1.8577  2.6207 -1.3018
  756MOL0     H99765   9.366   4.495   6.097  2.0423 -1.5352 -0.5956
  756MOL0     H99766   9.312   4.501   5.798  0.0066 -2.9742 -2.0849
  756MOL0     H99767   9.215   4.405   5.898  0.6458 -0.6663 -1.9701
  756MOL0     H99768   9.501   4.358   5.841 -0.7935  1.8442 -0.6478
  756MOL0     H99769   9.355   4.287   5.788  0.2757 -0.6689 -1.2740
  756MOL0     H99770   9.335   4.236   6.067 -0.5351  0.1089 -0.6133
  756MOL0     H99771   9.395   4.124   5.942 -2.6361  1.6379 -1.6196
  756MOL0     H99772   9.584   4.305   6.106 -0.3468 -1.0934  1.8646
  756MOL0     H99773   9.632   4.164   6.011 -0.8915 -0.5919 -0.5674
  756MOL0     H99774   8.993   5.019   5.918  1.2089  1.5534  0.1496
  756MOL0     H99775   8.788   5.186   5.910 -1.7952  0.0952 -0.0693
  756MOL0     H99776   8.376   5.454   5.943 -0.3363  4.4449  1.7459
  756MOL0     H99777   8.187   5.560   6.038  2.6169  1.8396  0.9183
  756MOL0     H99778   9.004   5.196   6.890 -3.5381 -2.5941  2.1376
  756MOL0     H99779   9.071   5.014   7.072 -2.0228  1.0076 -0.5776
  756MOL0     H99780   9.467   4.559   7.163  0.8789  4.3232 -0.3561
  756MOL0     H99781   9.421   4.380   7.307  1.7813  1.1416  1.6786
  756MOL0     H99782   9.363   4.338   7.594 -0.5369  2.1879 -0.8391
  756MOL0     H99783   9.343   4.224   7.445 -2.5044  2.0875 -2.3740
  756MOL0     H99784   9.149   4.225   7.666  4.3966  2.2703  3.7335
  756MOL0     H99785   9.152   4.106   7.545 -2.2676  2.0808  1.7341
  756MOL0     H99786   9.393   4.037   7.660  1.1276  1.7879  0.8005
  756MOL0     H99787   9.254   4.005   7.740  2.5922 -0.8544  1.0967
  756MOL0     H99788   9.326   4.282   7.808 -2.5720  0.1119  3.5608
  756MOL0     H99789   9.329   4.139   7.912  0.0244 -2.9064 -1.3461
  756MOL0     H99790   9.733   4.195   7.847  0.9745 -0.9112 -1.0376
  756MOL0     H99791   9.043   4.574   7.408 -0.0999  1.7910 -0.5791
  756MOL0     H99792   9.085   4.729   7.238  1.6722  1.1630 -2.7887
  757MOL0     O99793   4.513   4.108   1.698 -0.8964  0.0887 -1.2493
  757MOL0     C99794   4.447   4.030   1.768  0.5050  0.4578  0.8040
  757MOL0     O99795   4.497   3.947   1.854 -0.1856  0.6491  0.4325
  757MOL0     C99796   4.626   3.914   1.856 -0.3096  0.1515 -0.6378
  757MOL0     C99797   4.709   3.881   1.755  0.0885 -0.0717 -0.3181
  757MOL0     C99798   4.841   3.836   1.768  0.8212  0.3683  0.9109
  757MOL0     C99799   4.901   3.826   1.884  0.1319  0.6189 -1.2628
  757MOL0     O99800   5.037   3.809   1.888  0.2257  0.1583 -0.3480
  757MOL0     C99801   5.100   3.734   2.000  0.5827 -0.0628 -0.0056
  757MOL0     C99802   5.257   3.737   1.997  0.6090 -0.0536  1.0826
  757MOL0     C99803   5.327   3.682   2.111  0.0797  0.1122 -0.1377
  757MOL0     C99804   5.280   3.533   2.136 -0.3349 -0.1756 -1.2198
  757MOL0     C99805   5.351   3.474   2.265 -0.5239  0.0411  1.0510
  757MOL0     C99806   5.326   3.316   2.262 -0.0143  0.2026 -0.1137
  757MOL0     C99807   5.423   3.253   2.357  0.3838 -1.2102 -0.3023
  757MOL0     C99808   5.376   3.110   2.391 -0.1084 -0.9113  0.5561
  757MOL0     N99809   5.474   3.041   2.476 -1.0243  0.2628  0.3029
  757MOL0     C99810   5.595   2.987   2.425  0.1642 -0.3855  0.5199
  757MOL0     C99811   5.654   2.928   2.533 -0.2852 -1.1561  0.5332
  757MOL0     C99812   5.789   2.867   2.532  0.0304  0.0062 -0.4752
  757MOL0     C99813   5.899   2.969   2.530 -0.7229  0.5963  0.3455
  757MOL0     C99814   5.886   3.080   2.637  0.4679  0.8016  0.5315
  757MOL0     C99815   6.029   3.143   2.651 -0.3979 -0.2710 -0.1236
  757MOL0     O99816   6.115   3.047   2.722  0.7471  0.3566  0.2921
  757MOL0     C99817   6.248   3.076   2.728  0.4103 -0.1339 -0.1536
  757MOL0     C99818   6.301   3.202   2.707  0.8955 -0.8428 -0.3159
  757MOL0     C99819   6.442   3.227   2.699  0.0097  1.3911 -0.5250
  757MOL0     C99820   6.538   3.130   2.731  0.4008 -0.1704 -0.1101
  757MOL0     C99821   6.675   3.171   2.748  0.1149  0.8635 -0.2504
  757MOL0     O99822   6.711   3.288   2.697 -1.1339 -0.2495 -0.7015
  757MOL0     C99823   6.828   3.350   2.710  0.0705  0.4770  0.1471
  757MOL0     C99824   6.936   3.306   2.791 -0.8910  0.0928 -0.1192
  757MOL0     C99825   7.054   3.376   2.798  0.3349  1.0411  0.2545
  757MOL0     C99826   7.062   3.502   2.739  0.8775  0.1190 -0.4777
  757MOL0     O99827   7.179   3.566   2.769 -0.3060 -0.1308 -0.4713
  757MOL0     C99828   7.152   3.704   2.809  0.2504  0.4920 -0.0852
  757MOL0     C99829   7.285   3.787   2.804  0.6362 -0.2099 -0.3395
  757MOL0     C99830   7.365   3.791   2.672  0.1565  0.4655  0.4253
  757MOL0     C99831   7.283   3.851   2.553 -0.4977  0.4213  0.1046
  757MOL0     C99832   7.380   3.882   2.438 -0.2612 -0.3641  0.3533
  757MOL0     C99833   7.424   3.742   2.375 -0.3829 -1.0290  0.1307
  757MOL0     C99834   7.490   3.769   2.241 -0.1497  0.9211  0.5102
  757MOL0     C99835   7.555   3.636   2.176  0.2928  0.4591  0.4732
  757MOL0    Cl99836   7.716   3.580   2.226  0.0151  0.2505 -0.3286
  757MOL0     C99837   6.955   3.557   2.662 -0.2822 -0.5218  0.3078
  757MOL0     C99838   6.843   3.476   2.648  0.5415 -0.2390  0.3170
  757MOL0     O99839   6.742   3.098   2.821  0.5887 -0.1077 -0.0483
  757MOL0     C99840   6.480   2.998   2.745 -0.3402 -0.2268  0.0522
  757MOL0     C99841   6.343   2.970   2.742  0.3052  0.0009  0.5238
  757MOL0     N99842   5.581   2.970   2.639  0.6318  0.2665 -0.5192
  757MOL0     N99843   5.477   3.044   2.608 -1.0844 -0.3314 -0.2627
  757MOL0     C99844   4.817   3.842   1.997 -0.7267  0.3003  0.1239
  757MOL0     C99845   4.679   3.885   1.980 -0.0422 -0.4934  0.3040
  757MOL0     C99846   4.303   4.024   1.749 -0.3306 -0.4076 -0.2594
  757MOL0     C99847   4.235   3.943   1.837  0.8330  0.2131 -0.3088
  757MOL0     C99848   4.098   3.932   1.822  0.4259  1.0154  0.5660
  757MOL0     C99849   4.029   3.997   1.722  0.1139 -1.0983  0.1071
  757MOL0     O99850   3.889   3.984   1.701 -0.4697  0.2763 -0.2874
  757MOL0     C99851   3.814   4.053   1.596  0.3281  0.6316  0.5617
  757MOL0     C99852   3.785   4.191   1.654 -1.5851 -0.5512  0.0704
  757MOL0     C99853   3.727   4.185   1.804 -0.8794  0.5913  0.0413
  757MOL0     C99854   3.612   4.088   1.821 -0.4585 -0.6848  0.0723
  757MOL0     C99855   3.509   4.119   1.718  0.5380 -0.5045  0.6758
  757MOL0     C99856   3.430   4.128   1.627  0.5398  1.3955 -0.4083
  757MOL0     C99857   4.101   4.085   1.633  0.7520  0.2272  0.1056
  757MOL0     C99858   4.236   4.093   1.646  0.3070  0.0051 -0.0291
  757MOL0     H99859   4.669   3.882   1.654  0.9284 -6.7467 -1.1931
  757MOL0     H99860   4.891   3.824   1.672  2.2787 -0.7833  1.7789
  757MOL0     H99861   5.062   3.632   1.990  2.2239 -0.5752 -1.4617
  757MOL0     H99862   5.065   3.771   2.097 -2.9696 -0.8625 -0.8360
  757MOL0     H99863   5.290   3.841   1.989 -0.1718  0.1810  0.8044
  757MOL0     H99864   5.297   3.688   1.908  3.9028 -0.7382  2.7524
  757MOL0     H99865   5.308   3.744   2.200  0.8789  1.9910 -1.2036
  757MOL0     H99866   5.435   3.679   2.093  0.3800 -0.6776  1.5969
  757MOL0     H99867   5.176   3.533   2.171  0.0845  1.4134  0.1532
  757MOL0     H99868   5.289   3.469   2.047 -1.0066 -0.8868 -0.7909
  757MOL0     H99869   5.324   3.521   2.359 -0.9185 -0.9097  1.4308
  757MOL0     H99870   5.460   3.478   2.267 -0.5362  0.3596  1.1541
  757MOL0     H99871   5.340   3.277   2.161  3.9026  2.2792 -0.5709
  757MOL0     H99872   5.223   3.302   2.295  0.7069 -2.1114  1.4279
  757MOL0     H99873   5.523   3.240   2.314  0.1269  1.4734 -1.9690
  757MOL0     H99874   5.432   3.302   2.454 -0.3221 -0.1916 -0.7278
  757MOL0     H99875   5.344   3.054   2.303 -0.4035 -3.3016  2.1022
  757MOL0     H99876   5.293   3.118   2.461 -0.6140  3.4761 -0.2078
  757MOL0     H99877   5.618   2.983   2.319 -3.0273  0.9012 -0.3239
  757MOL0     H99878   5.797   2.820   2.434  2.2759 -0.6788 -0.0273
  757MOL0     H99879   5.804   2.794   2.612  0.6289 -0.9167 -1.4204
  757MOL0     H99880   5.895   3.016   2.431 -1.6825 -0.6707 -0.2580
  757MOL0     H99881   6.000   2.928   2.534 -0.4338  0.3027 -4.4137
  757MOL0     H99882   5.826   3.163   2.601 -2.5536 -1.7916 -0.8654
  757MOL0     H99883   5.855   3.041   2.735  1.5708 -1.2272  0.1276
  757MOL0     H99884   6.020   3.238   2.703  0.1639 -0.3577  0.1410
  757MOL0     H99885   6.067   3.158   2.549 -2.7081 -1.5241 -1.2572
  757MOL0     H99886   6.235   3.288   2.707 -0.9791 -2.1135  2.3854
  757MOL0     H99887   6.472   3.331   2.698  1.5214  1.2089  4.1186
  757MOL0     H99888   6.946   3.207   2.834 -0.8853  0.0960 -0.1128
  757MOL0     H99889   7.139   3.333   2.849 -1.4033 -0.9235  1.6298
  757MOL0     H99890   7.108   3.700   2.909 -1.1172  2.6361 -0.5426
  757MOL0     H99891   7.073   3.753   2.751 -0.2893  0.6066  0.7193
  757MOL0     H99892   7.358   3.737   2.868  0.9886  1.5116  0.6518
  757MOL0     H99893   7.255   3.889   2.831 -2.0486 -0.7728 -0.8577
  757MOL0     H99894   7.407   3.691   2.654  0.6986  0.4631  1.6336
  757MOL0     H99895   7.456   3.851   2.680  1.2694 -1.4086  5.7934
  757MOL0     H99896   7.192   3.794   2.535 -2.1943  2.5088  1.5354
  757MOL0     H99897   7.249   3.946   2.595  1.4564  0.1426  2.5530
  757MOL0     H99898   7.466   3.943   2.469  0.6065 -1.3275 -0.0853
  757MOL0     H99899   7.322   3.936   2.363 -0.9665 -2.0173 -0.3231
  757MOL0     H99900   7.340   3.673   2.370 -0.3942 -0.9236 -1.4304
  757MOL0     H99901   7.503   3.707   2.442 -0.7553  1.4464  2.0293
  757MOL0     H99902   7.415   3.810   2.173 -0.3617 -2.4630 -1.5584
  757MOL0     H99903   7.572   3.841   2.246 -0.6849  1.7728 -1.7520
  757MOL0     H99904   7.561   3.656   2.068 -1.0431  0.7806  0.4500
  757MOL0     H99905   7.495   3.547   2.196  1.4216 -0.2495  0.8173
  757MOL0     H99906   6.962   3.656   2.620  0.1598 -0.8435 -0.3967
  757MOL0     H99907   6.761   3.529   2.601 -2.0118  0.1161  4.6237
  757MOL0     H99908   6.551   2.917   2.759  0.9923  0.4852 -2.1939
  757MOL0     H99909   6.302   2.870   2.747  0.4528 -0.0295  1.3332
  757MOL0     H99910   4.845   3.814   2.098  0.5371 -1.9841 -0.7874
  757MOL0     H99911   4.605   3.888   2.060 -0.7896 -0.6427 -0.3688
  757MOL0     H99912   4.263   3.876   1.917 -0.9767  1.1381  1.2063
  757MOL0     H99913   4.046   3.865   1.890  0.2053  0.6462  0.0395
  757MOL0     H99914   3.726   3.991   1.576  2.3850 -2.1241 -0.6439
  757MOL0     H99915   3.883   4.061   1.511 -1.5160  1.0933 -0.9947
  757MOL0     H99916   3.872   4.257   1.644  0.5516 -2.6264  3.0727
  757MOL0     H99917   3.707   4.229   1.587 -0.0045  1.0083 -0.9827
  757MOL0     H99918   3.696   4.287   1.832 -1.3855  0.1437  1.1646
  757MOL0     H99919   3.804   4.148   1.872  0.0908 -1.3412 -2.0049
  757MOL0     H99920   3.645   3.983   1.818 -0.3099 -0.6415  0.2364
  757MOL0     H99921   3.567   4.091   1.921 -0.1182 -3.1442  0.3628
  757MOL0     H99922   3.348   4.134   1.558 -0.3453 -2.7211  0.0576
  757MOL0     H99923   4.045   4.153   1.569 -0.6137 -2.1509 -1.3775
  757MOL0     H99924   4.270   4.168   1.575 -2.3560 -1.3482 -3.0169
  758MOL0     O99925   0.038   5.195   6.237  0.7699 -0.4519 -0.8412
  758MOL0     C99926   0.037   5.288   6.161 -0.1880  0.1134  0.1889
  758MOL0     O99927   0.146   5.351   6.110  0.4664  0.2255  0.0316
  758MOL0     C99928   0.270   5.329   6.165  0.2057 -1.3019  0.1378
  758MOL0     C99929   0.340   5.213   6.151  0.0700  0.0811 -0.6054
  758MOL0     C99930   0.465   5.191   6.181  0.4444 -0.0030  0.0364
  758MOL0     C99931   0.544   5.302   6.205 -0.9756  0.5706  0.0485
  758MOL0     O99932   0.680   5.280   6.210 -0.1360  0.3362 -0.3317
  758MOL0     C99933   0.757   5.397   6.152  0.4667 -0.1422 -0.6753
  758MOL0     C99934   0.894   5.412   6.213  0.2465 -0.2689  0.3169
  758MOL0     C99935   0.998   5.457   6.109  0.8594  0.2977 -0.3128
  758MOL0     C99936   1.126   5.502   6.176 -0.9448  0.8285  0.3743
  758MOL0     C99937   1.256   5.494   6.085 -0.2104  0.2837  0.2367
  758MOL0     C99938   1.256   5.571   5.953  0.8866 -0.1115  0.2654
  758MOL0     C99939   1.380   5.528   5.861 -0.4891  0.3254 -0.1638
  758MOL0     C99940   1.411   5.626   5.747  0.6366  0.1805 -0.0878
  758MOL0     N99941   1.532   5.584   5.669 -0.0162  0.5119  0.0491
  758MOL0     C99942   1.665   5.623   5.700  0.0358  0.6042 -0.1957
  758MOL0     C99943   1.740   5.567   5.603  0.1675  0.6974 -0.3026
  758MOL0     C99944   1.891   5.568   5.607  0.2246  0.6445 -0.0397
  758MOL0     C99945   1.959   5.435   5.589 -0.0066 -0.2519 -0.5357
  758MOL0     C99946   2.113   5.453   5.616 -0.1648  0.1147  1.3526
  758MOL0     C99947   2.208   5.461   5.485 -0.2560 -0.0837  0.1530
  758MOL0     O99948   2.349   5.472   5.514  0.0941  0.9777 -0.3855
  758MOL0     C99949   2.436   5.442   5.413  0.0668 -0.8726 -0.4976
  758MOL0     C99950   2.565   5.414   5.450  1.3390 -0.2639 -0.9793
  758MOL0     C99951   2.661   5.376   5.358 -0.4217  0.4571 -0.3338
  758MOL0     C99952   2.643   5.375   5.222 -0.3947  1.5854  0.2238
  758MOL0     C99953   2.755   5.340   5.127  0.3822  0.4527  0.6087
  758MOL0     O99954   2.711   5.295   5.008 -0.5008  0.5583 -0.5075
  758MOL0     C99955   2.799   5.290   4.903 -0.4062 -0.1719  0.4343
  758MOL0     C99956   2.937   5.269   4.900  0.3345 -0.7087  0.8512
  758MOL0     C99957   3.005   5.258   4.776  0.0147  0.2982  0.0897
  758MOL0     C99958   2.926   5.266   4.652  0.2379  0.5625  0.1292
  758MOL0     O99959   2.981   5.259   4.525  0.1683 -0.7741 -0.0770
  758MOL0     C99960   3.123   5.251   4.514 -0.3657  0.3537  1.1165
  758MOL0     C99961   3.155   5.292   4.378 -0.2957  0.7054 -0.0983
  758MOL0     C99962   3.289   5.245   4.316  0.1123 -0.0052 -0.2279
  758MOL0     C99963   3.404   5.297   4.386  0.1513 -0.7585  0.3337
  758MOL0     C99964   3.423   5.451   4.416  0.2633  0.9814 -0.4374
  758MOL0     C99965   3.559   5.461   4.499 -0.1552 -0.2621  0.3959
  758MOL0     C99966   3.566   5.366   4.623  0.1688  0.3519  0.0466
  758MOL0     C99967   3.667   5.409   4.716  0.3294 -1.0715 -0.4930
  758MOL0    Cl99968   3.830   5.322   4.694  0.1505  0.0342 -0.7723
  758MOL0     C99969   2.790   5.288   4.664 -0.0545  0.3194  0.0277
  758MOL0     C99970   2.728   5.299   4.784  0.4715  0.4492 -0.5631
  758MOL0     O99971   2.867   5.372   5.161  0.0284  0.0861 -0.3737
  758MOL0     C99972   2.518   5.420   5.177  0.2312 -0.0797 -0.2010
  758MOL0     C99973   2.417   5.444   5.271  0.1696  0.5628  0.1325
  758MOL0     N99974   1.654   5.506   5.518  0.3681  0.4287  0.4221
  758MOL0     N99975   1.535   5.510   5.551  0.1550  0.1756  0.1272
  758MOL0     C99976   0.486   5.421   6.239 -0.7056  0.3127 -0.3017
  758MOL0     C99977   0.350   5.443   6.219  1.2783  0.6060  0.3484
  758MOL0     C99978  -0.105   5.326   6.108 -0.0093  0.5182  0.0921
  758MOL0     C99979  -0.225   5.272   6.155 -0.6960  0.3671 -0.6097
  758MOL0     C99980  -0.346   5.321   6.109  0.2761 -0.3914 -0.6072
  758MOL0     C99981  -0.353   5.410   6.005 -0.1434 -0.8424 -0.6492
  758MOL0     O99982  -0.470   5.455   5.965 -0.3189  0.5584  0.2386
  758MOL0     C99983  -0.599   5.444   6.023  0.1954  0.4048  0.4566
  758MOL0     C99984  -0.662   5.302   5.999  0.2444 -0.1967 -0.0255
  758MOL0     C99985  -0.699   5.281   5.856  0.0213  0.4874 -0.3426
  758MOL0     C99986  -0.733   5.127   5.821 -0.3761 -0.3384 -0.4576
  758MOL0     C99987  -0.824   5.067   5.923 -0.2482  0.0764  0.6214
  758MOL0     C99988  -0.898   5.032   6.007  0.0891  0.8112  0.5410
  758MOL0     C99989  -0.234   5.459   5.951  1.0164 -0.8038 -0.3408
  758MOL0     C99990  -0.108   5.430   6.005 -0.1554 -0.3234 -0.3390
  758MOL0     H99991   0.288   5.121   6.129 -0.5615 -0.0385  1.2273
  758MOL0     H99992   0.502   5.091   6.161  0.6852  0.3887 -1.6199
  758MOL0     H99993   0.701   5.487   6.178 -0.5219 -0.0087 -2.9904
  758MOL0     H99994   0.765   5.384   6.043  0.6999  1.2472 -0.8414
  758MOL0     H99995   0.924   5.315   6.252  2.0597  0.5796  1.1421
  758MOL0     H99996   0.888   5.476   6.301 -2.2123  0.5394 -0.3533
  758MOL0     H99997   0.960   5.547   6.059 -2.2774  0.1559  1.5132
  758MOL0     H99998   1.014   5.373   6.041 -0.3694  0.1666 -0.4700
  758MOL0     H99999   1.115   5.609   6.195 -0.0660  0.5545  2.7917
  758MOL0     H    0   1.156   5.465   6.274  1.0645  0.1907 -0.4179
  758MOL0     H    1   1.279   5.391   6.056  0.8636  0.8291 -0.9175
  758MOL0     H    2   1.337   5.532   6.147 -0.3251  1.9131 -0.5578
  758MOL0     H    3   1.247   5.679   5.970 -2.6197 -0.3779  0.7740
  758MOL0     H    4   1.171   5.532   5.897  0.9169  1.8359 -1.2780
  758MOL0     H    5   1.472   5.523   5.918 -0.9643 -0.3182  0.5684
  758MOL0     H    6   1.362   5.428   5.820 -0.6781  0.4739 -0.4475
  758MOL0     H    7   1.433   5.720   5.799 -0.2112  0.6791 -0.6149
  758MOL0     H    8   1.324   5.647   5.684  1.4992  4.4126 -0.1814
  758MOL0     H    9   1.682   5.688   5.785 -3.6433 -0.4340  1.5342
  758MOL0     H   10   1.917   5.604   5.707  0.3788  1.7777 -0.4732
  758MOL0     H   11   1.937   5.634   5.532  0.1441  2.3055  1.3247
  758MOL0     H   12   1.953   5.386   5.491  0.4909 -2.8295  0.6485
  758MOL0     H   13   1.907   5.364   5.653 -0.9494  0.6634 -0.2639
  758MOL0     H   14   2.126   5.545   5.674  2.4504 -0.4360  1.7909
  758MOL0     H   15   2.150   5.364   5.669  2.4052  0.8610  0.9692
  758MOL0     H   16   2.173   5.541   5.420  1.7673  1.5337  0.9503
  758MOL0     H   17   2.196   5.361   5.442  1.7691  0.2373 -1.3007
  758MOL0     H   18   2.591   5.420   5.556 -2.2973  0.9922 -0.0128
  758MOL0     H   19   2.758   5.348   5.397 -0.8646 -0.7942 -0.0653
  758MOL0     H   20   2.988   5.246   4.992  1.7995 -2.3149 -0.2947
  758MOL0     H   21   3.110   5.234   4.786  0.3951  0.4403 -2.6573
  758MOL0     H   22   3.150   5.145   4.518  3.1795  0.9676 -1.3034
  758MOL0     H   23   3.180   5.316   4.582  0.9562  1.2086 -0.7146
  758MOL0     H   24   3.160   5.401   4.370  1.2233  0.7568  1.1288
  758MOL0     H   25   3.070   5.250   4.323  1.1084 -0.8793 -1.1708
  758MOL0     H   26   3.282   5.266   4.209 -0.3914 -2.6222 -0.7857
  758MOL0     H   27   3.300   5.137   4.326  1.2771  0.2407  1.6322
  758MOL0     H   28   3.395   5.252   4.485  1.1023 -1.6041  0.0504
  758MOL0     H   29   3.492   5.265   4.329  0.6472  1.3274 -0.1866
  758MOL0     H   30   3.346   5.491   4.483 -1.2655 -2.6326  0.2177
  758MOL0     H   31   3.423   5.490   4.314  0.0590  1.7574 -0.1427
  758MOL0     H   32   3.562   5.566   4.528  4.1900 -0.7493  2.4795
  758MOL0     H   33   3.644   5.438   4.433 -0.6177  1.3735 -0.8395
  758MOL0     H   34   3.470   5.356   4.674  0.4870 -1.2263  0.3731
  758MOL0     H   35   3.588   5.264   4.589  2.7754  0.9632 -0.3517
  758MOL0     H   36   3.644   5.372   4.817  1.6197 -0.4976  0.0382
  758MOL0     H   37   3.671   5.518   4.723 -3.3777 -0.9213  2.0169
  758MOL0     H   38   2.731   5.292   4.573 -0.6397  1.7076  0.4408
  758MOL0     H   39   2.621   5.316   4.788  0.2840 -0.9079  1.8505
  758MOL0     H   40   2.485   5.423   5.074  2.8878 -0.5421 -1.1533
  758MOL0     H   41   2.319   5.459   5.227 -0.9255 -0.0125  2.2359
  758MOL0     H   42   0.539   5.506   6.280 -1.4460  0.3002  0.7284
  758MOL0     H   43   0.303   5.541   6.219 -0.4371 -0.1700 -1.1448
  758MOL0     H   44  -0.208   5.189   6.223 -1.1508  1.0760  0.3854
  758MOL0     H   45  -0.432   5.279   6.160  1.4431  0.6985  2.5037
  758MOL0     H   46  -0.660   5.520   5.972  0.4118 -1.3530 -2.6567
  758MOL0     H   47  -0.604   5.479   6.127 -0.5031  0.1837  0.5006
  758MOL0     H   48  -0.598   5.219   6.032  1.0329  0.9413  1.4073
  758MOL0     H   49  -0.757   5.308   6.051 -0.9428 -0.5732 -2.0214
  758MOL0     H   50  -0.614   5.322   5.800  1.0280 -2.5253 -1.2102
  758MOL0     H   51  -0.787   5.344   5.841  0.3634  1.7067  2.2844
  758MOL0     H   52  -0.792   5.120   5.729 -0.0748 -2.0043 -0.5628
  758MOL0     H   53  -0.643   5.066   5.806  0.0427 -0.4290  2.0229
  758MOL0     H   54  -0.977   4.995   6.069  0.8444 -0.0804  0.9897
  758MOL0     H   55  -0.252   5.530   5.871 -1.7296 -0.1582  0.7312
  758MOL0     H   56  -0.024   5.485   5.963 -1.6214  0.2357 -2.7559
  759MOL0     O   57  10.064   9.789   9.645 -0.2730 -0.4276  0.0008
  759MOL0     C   58  10.015   9.679   9.631  0.2611  0.3302  0.5202
  759MOL0     O   59   9.942   9.614   9.729  0.5508  0.6951  0.5835
  759MOL0     C   60   9.909   9.680   9.838  0.5624 -0.1341 -0.4091
  759MOL0     C   61   9.781   9.676   9.889 -0.9656  0.4968 -0.0689
  759MOL0     C   62   9.749   9.745  10.001  0.2752  0.3585 -0.4080
  759MOL0     C   63   9.844   9.825  10.063  0.1805  0.5824 -0.9469
  759MOL0     O   64   9.808   9.906  10.166  0.1106  0.2807  0.2720
  759MOL0     C   65   9.892   9.889  10.283 -0.3150 -0.6396  0.1736
  759MOL0     C   66   9.801   9.881  10.411  0.2118 -0.6713  0.6449
  759MOL0     C   67   9.691   9.781  10.374 -0.3281  0.3045  0.0124
  759MOL0     C   68   9.637   9.711  10.504 -0.2806 -0.0662  0.8441
  759MOL0     C   69   9.519   9.613  10.479  0.0853  0.0041  0.0244
  759MOL0     C   70   9.510   9.543  10.347  0.5099 -0.2973 -1.2315
  759MOL0     C   71   9.616   9.441  10.332 -0.4407  0.5899  0.4710
  759MOL0     C   72   9.584   9.326  10.233 -0.0572 -0.3146 -0.0984
  759MOL0     N   73   9.706   9.244  10.211 -1.4279  0.5676  0.0433
  759MOL0     C   74   9.780   9.174  10.299  0.4456  0.0079 -0.8395
  759MOL0     C   75   9.863   9.094  10.233 -0.0674 -0.1199 -0.4728
  759MOL0     C   76   9.959   8.997  10.300  0.4859 -0.1802  0.3104
  759MOL0     C   77  10.003   8.886  10.202  0.3718 -0.0863  0.7259
  759MOL0     C   78  10.054   8.756  10.266  0.4419 -0.1142  0.6685
  759MOL0     C   79   9.951   8.655  10.315 -0.7968  0.5235  0.1035
  759MOL0     O   80   9.904   8.579  10.197 -0.6587  0.2863 -0.1163
  759MOL0     C   81   9.827   8.460  10.207  0.1190 -0.3913  0.2971
  759MOL0     C   82   9.810   8.382  10.320 -0.9404 -0.1674  0.6120
  759MOL0     C   83   9.728   8.273  10.333  0.0528 -0.3666  0.5979
  759MOL0     C   84   9.648   8.234  10.217  0.2299 -0.7798 -0.0830
  759MOL0     C   85   9.559   8.113  10.229 -0.9516  0.0761  0.2166
  759MOL0     O   86   9.581   8.048  10.351  0.0708  0.3436  0.7732
  759MOL0     C   87   9.522   7.933  10.385 -0.5822 -0.0033 -0.2061
  759MOL0     C   88   9.394   7.895  10.343 -0.8500 -0.0621  0.7893
  759MOL0     C   89   9.340   7.767  10.388 -0.5165 -0.4461 -0.8877
  759MOL0     C   90   9.415   7.679  10.465 -1.1087  0.1244 -0.0491
  759MOL0     O   91   9.364   7.552  10.492  0.2003  0.7072  0.0671
  759MOL0     C   92   9.445   7.461  10.548  0.8208  0.2084  0.2502
  759MOL0     C   93   9.370   7.334  10.551  0.2813 -0.0143  0.0202
  759MOL0     C   94   9.278   7.322  10.677  0.1642 -0.2391  0.2389
  759MOL0     C   95   9.188   7.195  10.677  0.1201 -0.0165  0.6717
  759MOL0     C   96   9.048   7.229  10.748 -0.4441 -1.6360 -0.2582
  759MOL0     C   97   8.962   7.105  10.727  0.3591  1.3604  0.6260
  759MOL0     C   98   8.825   7.106  10.793 -0.0824 -0.2649 -0.1295
  759MOL0     C   99   8.749   6.979  10.772 -0.4711 -0.3679 -0.0636
  759MOL0    Cl  100   8.629   6.946  10.890  0.1233  0.0137  0.0929
  759MOL0     C  101   9.547   7.717  10.500  0.5821  0.2401 -0.6837
  759MOL0     C  102   9.596   7.846  10.474  0.0486  0.6654 -0.1366
  759MOL0     O  103   9.516   8.067  10.121 -0.4394 -0.2257 -0.4874
  759MOL0     C  104   9.668   8.300  10.096 -0.2333  0.0867  0.7437
  759MOL0     C  105   9.758   8.413  10.089 -0.1901  0.4516 -0.6655
  759MOL0     N  106   9.831   9.112  10.101  0.2194 -0.0467 -0.0570
  759MOL0     N  107   9.734   9.196  10.089 -0.5157 -0.2746 -0.1339
  759MOL0     C  108   9.967   9.842  10.019 -0.7323 -0.1641  0.6483
  759MOL0     C  109  10.001   9.768   9.904  0.5877 -0.0385 -0.1209
  759MOL0     C  110  10.038   9.608   9.500  0.4463 -2.0154  0.2999
  759MOL0     C  111  10.036   9.471   9.487  0.7367 -0.0277 -0.4118
  759MOL0     C  112  10.081   9.403   9.371 -0.3381  0.1404 -0.4169
  759MOL0     C  113  10.137   9.485   9.273  0.0308  0.1300  0.2630
  759MOL0     O  114  10.181   9.441   9.152  0.4797 -0.0042 -0.5769
  759MOL0     C  115  10.166   9.306   9.108 -0.0618 -0.8282  0.4443
  759MOL0     C  116  10.026   9.260   9.065 -0.0076  0.2229  0.0262
  759MOL0     C  117   9.987   9.322   8.932  0.5859  1.5333  0.6119
  759MOL0     C  118   9.981   9.481   8.912  0.1701  0.3462 -0.2833
  759MOL0     C  119   9.897   9.531   8.798 -0.7363 -0.5724 -0.2013
  759MOL0     C  120   9.835   9.588   8.705 -0.4319 -0.5702 -0.5228
  759MOL0     C  121  10.135   9.624   9.277 -1.1079  0.5139 -0.0441
  759MOL0     C  122  10.095   9.689   9.397  0.7909  0.7064  0.2786
  759MOL0     H  123   9.711   9.615   9.833  2.1041 -4.2173  0.5913
  759MOL0     H  124   9.647   9.730  10.035  0.6902 -2.3294 -0.0920
  759MOL0     H  125   9.950   9.982  10.288  0.7533 -1.3190  1.0533
  759MOL0     H  126   9.960   9.804  10.268 -0.2939 -0.1806 -2.9479
  759MOL0     H  127   9.749   9.975  10.428  1.4530 -0.1237  1.4892
  759MOL0     H  128   9.860   9.847  10.496  1.0296  1.3240  0.9263
  759MOL0     H  129   9.728   9.708  10.302  0.1161  0.7553 -0.2271
  759MOL0     H  130   9.599   9.825  10.334  0.9033  0.8900 -2.3291
  759MOL0     H  131   9.718   9.643  10.534  0.6029 -0.7881 -2.6938
  759MOL0     H  132   9.627   9.784  10.584  1.8560 -1.4457  2.4990
  759MOL0     H  133   9.431   9.677  10.466  2.5973  3.9306  0.7419
  759MOL0     H  134   9.509   9.537  10.557 -2.6921  0.2280  0.0163
  759MOL0     H  135   9.496   9.613  10.264  3.1238  0.1448 -1.3749
  759MOL0     H  136   9.416   9.489  10.358 -1.1210  2.6752  0.7020
  759MOL0     H  137   9.702   9.493  10.289 -0.6017  0.2590 -0.2684
  759MOL0     H  138   9.640   9.400  10.430  0.7759  0.0729 -0.0195
  759MOL0     H  139   9.549   9.384  10.147  1.4486  0.2268 -0.3849
  759MOL0     H  140   9.501   9.260  10.259 -2.9304  2.8419 -0.5913
  759MOL0     H  141   9.789   9.188  10.406 -1.9058 -0.0314 -0.5795
  759MOL0     H  142   9.906   8.958  10.387 -0.6426 -3.1789 -1.5340
  759MOL0     H  143  10.044   9.050  10.342 -1.3054 -0.1977  4.3911
  759MOL0     H  144  10.085   8.913  10.135  0.1672 -0.6207  0.2561
  759MOL0     H  145   9.908   8.858  10.156  0.5719  0.1042  0.1949
  759MOL0     H  146  10.122   8.722  10.187 -1.4159  1.6233 -1.8283
  759MOL0     H  147  10.119   8.781  10.351  2.2465 -0.8141 -0.4557
  759MOL0     H  148   9.866   8.709  10.359 -1.4089 -1.4110  1.4285
  759MOL0     H  149   9.991   8.591  10.393 -0.3463 -1.3377 -1.5655
  759MOL0     H  150   9.866   8.398  10.412 -2.6731  1.5937  1.4571
  759MOL0     H  151   9.733   8.214  10.423  3.1158  0.2942  0.9901
  759MOL0     H  152   9.334   7.959  10.280  1.9262  2.2194  0.2858
  759MOL0     H  153   9.244   7.730  10.353 -1.9184  2.0199  0.0880
  759MOL0     H  154   9.486   7.484  10.647 -1.6998  2.4415  0.8839
  759MOL0     H  155   9.519   7.458  10.468 -0.1568 -3.0498 -0.6827
  759MOL0     H  156   9.445   7.254  10.555  0.1035 -0.1570  0.5465
  759MOL0     H  157   9.320   7.315  10.456  2.8937 -0.3051 -1.4053
  759MOL0     H  158   9.209   7.407  10.681 -0.9456 -1.0382 -1.1317
  759MOL0     H  159   9.345   7.329  10.763  2.6398 -1.5454 -1.4541
  759MOL0     H  160   9.162   7.168  10.574  0.4355  1.8921  0.0496
  759MOL0     H  161   9.234   7.102  10.712  2.1775  0.4691 -0.6084
  759MOL0     H  162   9.005   7.320  10.704 -1.3597 -1.3165  1.2291
  759MOL0     H  163   9.050   7.248  10.856  1.8280 -0.0368 -0.4881
  759MOL0     H  164   9.004   7.012  10.766 -2.3897 -0.0051  0.5775
  759MOL0     H  165   8.955   7.086  10.619  1.0707 -0.9660  0.9435
  759MOL0     H  166   8.818   7.134  10.899 -2.1687 -1.8142  0.2183
  759MOL0     H  167   8.770   7.181  10.735 -1.9185 -1.8036 -0.4692
  759MOL0     H  168   8.822   6.897  10.778  2.9087  2.4895  1.8829
  759MOL0     H  169   8.699   6.978  10.674 -0.6362 -1.7096  0.0054
  759MOL0     H  170   9.600   7.654  10.570 -0.7045  2.7568  2.8713
  759MOL0     H  171   9.690   7.863  10.525  1.0853 -2.1313 -0.9403
  759MOL0     H  172   9.620   8.263  10.006  1.7320 -1.7677  0.3747
  759MOL0     H  173   9.774   8.475  10.001 -2.1014 -1.3309 -2.3693
  759MOL0     H  174  10.038   9.911  10.064 -0.7910 -0.4122  1.1338
  759MOL0     H  175  10.105   9.767   9.873  0.7042 -2.0903  0.2057
  759MOL0     H  176  10.003   9.412   9.572 -1.2648 -0.3954 -1.3749
  759MOL0     H  177  10.067   9.295   9.373  0.6704 -0.0259  1.9798
  759MOL0     H  178  10.183   9.239   9.193 -0.5521 -0.7234  0.6317
  759MOL0     H  179  10.246   9.290   9.036  1.6103  0.2178  1.9770
  759MOL0     H  180  10.020   9.151   9.072  2.0629  0.1985  4.4292
  759MOL0     H  181   9.956   9.295   9.141  2.1447  1.5756  1.5064
  759MOL0     H  182   9.884   9.286   8.924  0.3717  1.4386  2.8887
  759MOL0     H  183  10.054   9.281   8.857 -1.5584  0.8790 -1.0355
  759MOL0     H  184   9.935   9.521   9.003 -0.2943  0.8127 -0.7180
  759MOL0     H  185  10.086   9.513   8.912  0.4674 -0.3096  2.8420
  759MOL0     H  186   9.800   9.637   8.616  2.0365  1.8696 -0.2687
  759MOL0     H  187  10.171   9.660   9.181  0.0011 -4.2787 -1.7015
  759MOL0     H  188  10.107   9.796   9.387  0.5632  0.6594 -0.4991
  760MOL0     O  189   6.499   0.477   6.146  0.0116  0.0459  0.1735
  760MOL0     C  190   6.490   0.360   6.172 -0.1071 -1.0697  0.3909
  760MOL0     O  191   6.380   0.284   6.153  0.2765  1.1261 -0.1605
  760MOL0     C  192   6.252   0.324   6.119  0.1729  0.1033  0.1124
  760MOL0     C  193   6.150   0.227   6.112  0.0848 -1.3027 -0.2234
  760MOL0     C  194   6.017   0.254   6.068  0.6071  0.9644  0.1768
  760MOL0     C  195   5.997   0.380   6.020 -0.3530 -0.7103  0.1011
  760MOL0     O  196   5.889   0.429   5.957  0.0679 -0.3912 -0.2546
  760MOL0     C  197   5.760   0.373   5.988  0.2803  0.5865 -0.2034
  760MOL0     C  198   5.645   0.470   5.971  0.4478 -0.3817  0.0084
  760MOL0     C  199   5.609   0.563   6.083 -0.0704 -0.0731 -0.4344
  760MOL0     C  200   5.723   0.662   6.102  0.8852  0.0191  0.5136
  760MOL0     C  201   5.699   0.751   6.213  1.1525 -0.7587 -0.5454
  760MOL0     C  202   5.787   0.876   6.212 -0.1503 -1.6313  0.0776
  760MOL0     C  203   5.827   0.927   6.350  0.0829 -0.1186 -0.4497
  760MOL0     C  204   5.900   1.054   6.332  0.4627  0.5188 -0.6113
  760MOL0     N  205   5.998   1.060   6.222  0.0306 -0.1410 -1.0206
  760MOL0     C  206   6.132   1.017   6.225  0.4276  0.2088  0.4691
  760MOL0     C  207   6.190   1.049   6.102 -0.9227  1.6798 -0.3079
  760MOL0     C  208   6.335   1.009   6.059 -0.0821 -0.1605 -0.7610
  760MOL0     C  209   6.415   1.128   6.027 -0.5226 -0.5247 -0.1351
  760MOL0     C  210   6.543   1.083   5.954  0.5694  0.7610  0.2161
  760MOL0     C  211   6.662   1.046   6.039  0.1114 -0.3617 -0.1508
  760MOL0     O  212   6.643   0.935   6.124 -0.2880  0.1080  0.1108
  760MOL0     C  213   6.757   0.881   6.180 -0.5768  1.0308 -0.4916
  760MOL0     C  214   6.885   0.930   6.186 -0.6257 -0.2647 -0.2416
  760MOL0     C  215   6.993   0.851   6.239  0.0696 -0.0550  0.3224
  760MOL0     C  216   6.978   0.734   6.305  1.7557 -0.3266 -0.2810
  760MOL0     C  217   7.104   0.670   6.364 -0.0607 -0.5086 -0.0551
  760MOL0     O  218   7.220   0.741   6.358  0.1813 -0.2081  0.5798
  760MOL0     C  219   7.334   0.674   6.405 -0.0381  1.0401  1.0927
  760MOL0     C  220   7.399   0.726   6.515  0.0973 -0.2385  0.3237
  760MOL0     C  221   7.507   0.659   6.563  0.3004 -0.3165 -0.5353
  760MOL0     C  222   7.560   0.545   6.509 -0.2290  0.8797  0.1010
  760MOL0     O  223   7.668   0.481   6.569  0.2136 -0.6742 -0.0414
  760MOL0     C  224   7.684   0.508   6.709  0.0712  0.3082  0.4448
  760MOL0     C  225   7.775   0.398   6.778  0.4943 -0.1274  0.3659
  760MOL0     C  226   7.891   0.354   6.695  0.0136 -0.1770 -0.1337
  760MOL0     C  227   7.933   0.216   6.758 -0.0163 -0.6320  0.5640
  760MOL0     C  228   8.060   0.176   6.691 -0.8189 -0.3320  0.6647
  760MOL0     C  229   8.181   0.254   6.759 -0.2372  0.3923  0.2330
  760MOL0     C  230   8.314   0.205   6.710 -0.2949 -0.0642 -0.0113
  760MOL0     C  231   8.354   0.243   6.566  0.2036  0.5177  0.2567
  760MOL0    Cl  232   8.274   0.147   6.423 -0.0869  0.4270  0.0696
  760MOL0     C  233   7.502   0.497   6.393 -0.3313  0.2006 -0.1694
  760MOL0     C  234   7.389   0.562   6.336  0.2800 -1.0895 -0.2940
  760MOL0     O  235   7.080   0.569   6.425 -0.3761  0.2210  0.7173
  760MOL0     C  236   6.844   0.696   6.313  0.3852  0.6853  0.2477
  760MOL0     C  237   6.734   0.758   6.242 -1.1116 -0.4271 -0.1784
  760MOL0     N  238   6.090   1.109   6.025  0.4024 -0.8437  0.0453
  760MOL0     N  239   5.983   1.114   6.101 -0.5937 -0.9689  0.2830
  760MOL0     C  240   6.098   0.484   6.025 -0.1783 -0.5675 -0.0643
  760MOL0     C  241   6.222   0.450   6.071 -0.0842 -0.2501  0.9920
  760MOL0     C  242   6.614   0.286   6.218  0.6399  0.8793  0.0331
  760MOL0     C  243   6.629   0.149   6.216 -0.2083 -0.0115 -0.0483
  760MOL0     C  244   6.747   0.086   6.266  0.4151  0.0020 -0.0733
  760MOL0     C  245   6.853   0.160   6.318  0.0069 -0.3132  0.3528
  760MOL0     O  246   6.961   0.087   6.366 -0.0866 -0.2854  0.2452
  760MOL0     C  247   7.045   0.154   6.467 -1.0459  0.7677 -0.4699
  760MOL0     C  248   7.133   0.050   6.538 -0.2367  0.2321  0.0182
  760MOL0     C  249   7.187  -0.061   6.443  0.7378  0.1385 -0.3001
  760MOL0     C  250   7.297  -0.017   6.349  0.7946  0.3652 -0.6950
  760MOL0     C  251   7.363  -0.130   6.279 -0.1777  0.7966 -0.0914
  760MOL0     C  252   7.407  -0.236   6.231  0.6350 -0.1076 -0.2620
  760MOL0     C  253   6.833   0.296   6.334 -0.6611  0.5342 -0.9559
  760MOL0     C  254   6.723   0.362   6.264  0.8184  0.1350 -0.3632
  760MOL0     H  255   6.175   0.137   6.166 -1.7869 -1.8617 -0.2179
  760MOL0     H  256   5.933   0.185   6.069 -2.3035  4.0111 -3.4775
  760MOL0     H  257   5.747   0.350   6.094 -0.3438  0.2915 -0.3375
  760MOL0     H  258   5.754   0.274   5.941  2.8464 -0.2676  1.0764
  760MOL0     H  259   5.555   0.415   5.944  0.0178  0.6066 -0.5865
  760MOL0     H  260   5.662   0.530   5.881 -0.9356  1.3901  0.8776
  760MOL0     H  261   5.591   0.504   6.173 -0.6003  1.0246  0.2035
  760MOL0     H  262   5.521   0.623   6.060 -1.4822 -1.5608  0.8272
  760MOL0     H  263   5.810   0.604   6.132 -0.5918 -2.3325  0.5009
  760MOL0     H  264   5.745   0.716   6.010 -0.3707  1.6994  1.1573
  760MOL0     H  265   5.711   0.701   6.309  1.5653 -0.0519 -0.2251
  760MOL0     H  266   5.595   0.786   6.213  1.3926 -0.0119 -0.9084
  760MOL0     H  267   5.729   0.959   6.169  0.7869 -0.9185  0.1631
  760MOL0     H  268   5.874   0.849   6.152  0.0730 -2.1598  0.6402
  760MOL0     H  269   5.746   0.945   6.422  0.7501 -1.0948  0.5747
  760MOL0     H  270   5.898   0.856   6.393 -1.0585  0.5004  2.7812
  760MOL0     H  271   5.949   1.075   6.427 -0.8395 -3.5885  1.1657
  760MOL0     H  272   5.819   1.123   6.304 -2.3268 -1.2128  2.5237
  760MOL0     H  273   6.187   0.976   6.309 -0.0359 -0.7227  0.3317
  760MOL0     H  274   6.320   0.939   5.975 -1.4337 -0.2819 -0.4426
  760MOL0     H  275   6.379   0.954   6.142 -2.4465 -0.8669  0.1064
  760MOL0     H  276   6.442   1.193   6.110  0.5052  0.0991 -0.9311
  760MOL0     H  277   6.349   1.192   5.967 -0.2263 -2.1442 -2.3495
  760MOL0     H  278   6.533   0.987   5.902 -0.1904  0.8376  0.2092
  760MOL0     H  279   6.584   1.163   5.892  3.2520  0.3738  1.3474
  760MOL0     H  280   6.674   1.140   6.092 -4.6741  1.1308 -1.1917
  760MOL0     H  281   6.746   1.017   5.975 -1.0430 -1.4920 -1.2166
  760MOL0     H  282   6.906   1.026   6.140  3.1131 -2.0830 -2.9016
  760MOL0     H  283   7.089   0.900   6.230 -0.6107  0.9184 -2.6835
  760MOL0     H  284   7.354   0.803   6.577 -1.5635 -1.0606  0.1975
  760MOL0     H  285   7.557   0.702   6.650  1.7508 -0.9336 -1.0171
  760MOL0     H  286   7.591   0.490   6.765  0.4976  1.4649  1.5873
  760MOL0     H  287   7.721   0.609   6.729  0.6711  0.3636 -0.8434
  760MOL0     H  288   7.726   0.303   6.802  2.9770 -0.9055  3.0638
  760MOL0     H  289   7.803   0.427   6.880 -4.3782  0.4333  1.7929
  760MOL0     H  290   7.964   0.435   6.690  0.0728  0.0313  2.6669
  760MOL0     H  291   7.858   0.336   6.592 -0.8622  1.5269 -0.1783
  760MOL0     H  292   7.955   0.221   6.865 -1.4178 -2.8102  1.0129
  760MOL0     H  293   7.858   0.137   6.753 -0.0429 -0.8013  2.8406
  760MOL0     H  294   8.074   0.193   6.584  1.4182  0.2512  1.0004
  760MOL0     H  295   8.067   0.069   6.709 -0.3014 -0.2890  0.7353
  760MOL0     H  296   8.174   0.223   6.864  1.5404 -2.3326 -0.3439
  760MOL0     H  297   8.179   0.362   6.744  0.8712  0.7067  2.0669
  760MOL0     H  298   8.393   0.250   6.772 -3.7520  0.7242  4.2866
  760MOL0     H  299   8.332   0.098   6.711 -0.9162 -0.1701  1.1197
  760MOL0     H  300   8.461   0.222   6.556  0.2321  1.4875 -2.3736
  760MOL0     H  301   8.344   0.350   6.547 -1.3810  0.5972  1.3927
  760MOL0     H  302   7.540   0.411   6.339  1.9130  0.4188  0.9487
  760MOL0     H  303   7.333   0.525   6.251 -0.9136  1.5791 -0.7803
  760MOL0     H  304   6.826   0.620   6.389 -1.0415  1.1452  0.3905
  760MOL0     H  305   6.633   0.725   6.263 -0.5316 -0.7911  2.3640
  760MOL0     H  306   6.075   0.585   5.994 -1.1300 -0.0919  2.0189
  760MOL0     H  307   6.293   0.532   6.065 -1.4584  0.8776 -1.5336
  760MOL0     H  308   6.543   0.100   6.172  0.1208 -1.0636  0.4401
  760MOL0     H  309   6.756  -0.022   6.257  0.2346 -0.1184  1.0662
  760MOL0     H  310   6.986   0.201   6.547 -2.0424  0.6516 -1.1166
  760MOL0     H  311   7.108   0.236   6.432  0.0370  2.4005  4.3952
  760MOL0     H  312   7.222   0.090   6.588 -1.0380  0.1238  1.5868
  760MOL0     H  313   7.073   0.003   6.616  1.7120 -0.0707  1.4123
  760MOL0     H  314   7.105  -0.103   6.384  0.0717  2.5011 -1.1663
  760MOL0     H  315   7.220  -0.145   6.505 -1.5719 -1.0417 -0.5372
  760MOL0     H  316   7.263   0.055   6.274 -0.3003  3.6116  2.5827
  760MOL0     H  317   7.367   0.047   6.404  1.3892 -0.2253 -0.7514
  760MOL0     H  318   7.448  -0.324   6.185 -2.1717 -1.4071 -0.5171
  760MOL0     H  319   6.919   0.347   6.377  0.9268 -2.6653  0.0327
  760MOL0     H  320   6.714   0.470   6.265 -0.9229  0.0367  1.5605
  761MOL0     O  321   3.401   0.034   1.777  0.9423  0.7345 -0.1360
  761MOL0     C  322   3.409   0.140   1.823  1.1016 -0.5065  0.7875
  761MOL0     O  323   3.309   0.232   1.836 -0.2732  0.0819 -0.3356
  761MOL0     C  324   3.194   0.205   1.762 -0.4872 -0.6785 -0.0478
  761MOL0     C  325   3.203   0.231   1.625  0.3307 -0.2273 -0.0466
  761MOL0     C  326   3.082   0.216   1.548 -0.1437 -0.4185 -0.4130
  761MOL0     C  327   2.957   0.180   1.614  0.3279  1.7124 -0.0619
  761MOL0     O  328   2.846   0.141   1.548  0.2857  0.7503 -0.0976
  761MOL0     C  329   2.837   0.112   1.405 -0.5081 -0.5679 -0.1276
  761MOL0     C  330   2.702   0.056   1.376  0.0861 -0.3318 -0.6027
  761MOL0     C  331   2.678  -0.075   1.450 -0.1886 -0.2903 -0.0040
  761MOL0     C  332   2.606  -0.059   1.589  0.2429  0.9695 -0.7699
  761MOL0     C  333   2.546  -0.191   1.668 -0.2691 -1.0679  1.4927
  761MOL0     C  334   2.455  -0.267   1.584 -0.4678 -0.3028 -0.0152
  761MOL0     C  335   2.392  -0.379   1.662 -0.2237  0.1335 -0.2377
  761MOL0     C  336   2.306  -0.460   1.565  0.5202 -0.5930 -0.0038
  761MOL0     N  337   2.176  -0.391   1.528 -0.0124  0.6760  0.0985
  761MOL0     C  338   2.072  -0.353   1.614 -0.1178  0.1216 -0.0465
  761MOL0     C  339   1.982  -0.289   1.538  0.2901 -0.3209 -0.1644
  761MOL0     C  340   1.846  -0.234   1.593 -0.7398 -0.2058 -0.7234
  761MOL0     C  341   1.733  -0.340   1.569  0.6315 -0.0188 -0.4569
  761MOL0     C  342   1.714  -0.362   1.421  0.1179 -0.0188  0.3550
  761MOL0     C  343   1.571  -0.379   1.386  0.6767 -0.7415  0.5796
  761MOL0     O  344   1.521  -0.484   1.466 -0.3618  0.3416  0.4146
  761MOL0     C  345   1.412  -0.553   1.417  0.3098 -0.7787  0.2669
  761MOL0     C  346   1.391  -0.684   1.465 -0.4729 -0.3480 -0.1795
  761MOL0     C  347   1.286  -0.764   1.409 -0.7805  0.0852 -0.2612
  761MOL0     C  348   1.204  -0.708   1.306  0.0023  0.8428 -0.6365
  761MOL0     C  349   1.091  -0.792   1.256  0.1618  0.0323  0.4032
  761MOL0     O  350   1.080  -0.912   1.308 -0.1904  0.3280 -0.1704
  761MOL0     C  351   0.992  -1.003   1.255  1.1016  0.3421  1.0206
  761MOL0     C  352   1.004  -1.063   1.129 -0.9278 -0.9914 -0.7969
  761MOL0     C  353   0.905  -1.140   1.081  0.4857  0.7872  0.1818
  761MOL0     C  354   0.786  -1.173   1.152  1.2493  0.0782 -0.6300
  761MOL0     O  355   0.688  -1.251   1.100 -0.1280 -0.0871  0.5515
  761MOL0     C  356   0.551  -1.226   1.138  0.2479  0.3981  0.0903
  761MOL0     C  357   0.469  -1.326   1.054  0.2778  0.7181 -0.2192
  761MOL0     C  358   0.468  -1.470   1.110  0.8873 -0.3499  0.0052
  761MOL0     C  359   0.416  -1.468   1.258 -0.1545 -0.1212 -0.2999
  761MOL0     C  360   0.341  -1.599   1.294 -0.2695  0.0757 -1.2800
  761MOL0     C  361   0.324  -1.600   1.444  0.4249  0.5608 -0.1654
  761MOL0     C  362   0.220  -1.706   1.483  0.0230 -0.9959 -0.4124
  761MOL0     C  363   0.219  -1.746   1.639  0.7461  0.2448 -0.0442
  761MOL0    Cl  364   0.144  -1.911   1.668 -0.0404 -0.6167  0.1488
  761MOL0     C  365   0.781  -1.117   1.281 -0.7586 -0.1985 -0.1984
  761MOL0     C  366   0.882  -1.039   1.334 -0.9313 -0.7902  0.8109
  761MOL0     O  367   1.019  -0.744   1.164 -0.5077  0.5503  0.2050
  761MOL0     C  368   1.217  -0.567   1.279 -0.4384 -0.2730  1.0882
  761MOL0     C  369   1.319  -0.488   1.330 -0.0811  0.6096 -1.3647
  761MOL0     N  370   2.025  -0.293   1.405  0.1161  0.5692 -0.3664
  761MOL0     N  371   2.146  -0.347   1.404  0.2898 -0.0661 -0.1296
  761MOL0     C  372   2.957   0.163   1.749  0.1658 -0.9633 -0.5965
  761MOL0     C  373   3.072   0.182   1.823 -0.0178 -0.0386  0.3459
  761MOL0     C  374   3.547   0.183   1.847 -0.7297  0.0447 -0.1724
  761MOL0     C  375   3.645   0.090   1.894 -0.2114 -0.8484 -0.4403
  761MOL0     C  376   3.782   0.133   1.900  0.0351 -0.0190 -0.3339
  761MOL0     C  377   3.825   0.264   1.883 -0.8966 -0.6869  1.2725
  761MOL0     O  378   3.954   0.310   1.917 -0.4759  0.1636  0.0029
  761MOL0     C  379   4.048   0.212   1.970 -0.1886  0.0200 -0.1845
  761MOL0     C  380   4.165   0.290   2.032  0.1810 -0.4839  0.3759
  761MOL0     C  381   4.136   0.351   2.171 -0.1819 -0.1210 -0.5742
  761MOL0     C  382   4.252   0.441   2.220 -0.7750 -0.4458  0.3512
  761MOL0     C  383   4.367   0.383   2.284 -0.1965  0.5391  0.0952
  761MOL0     C  384   4.463   0.333   2.341 -0.9649 -0.1217 -1.3431
  761MOL0     C  385   3.731   0.360   1.845  0.1835  0.3666  0.4046
  761MOL0     C  386   3.599   0.310   1.827 -0.5559 -0.6536 -0.5156
  761MOL0     H  387   3.294   0.257   1.571 -1.0776  0.2093 -2.3858
  761MOL0     H  388   3.090   0.231   1.441  1.0039 -0.2920 -0.3285
  761MOL0     H  389   2.928   0.058   1.373  1.8184  4.0846 -2.3796
  761MOL0     H  390   2.843   0.207   1.351  1.0064  0.0204  0.9927
  761MOL0     H  391   2.683   0.035   1.270 -1.2155 -4.1756  0.2166
  761MOL0     H  392   2.641   0.141   1.408  2.9748  1.0327  1.7628
  761MOL0     H  393   2.771  -0.132   1.460 -0.8065 -1.0656  1.6232
  761MOL0     H  394   2.600  -0.121   1.389 -3.2124  3.8015  0.4363
  761MOL0     H  395   2.679  -0.017   1.658  0.8463 -0.5220 -0.4468
  761MOL0     H  396   2.530   0.019   1.581 -1.6180 -0.6207  0.3455
  761MOL0     H  397   2.495  -0.159   1.760 -3.5591 -0.1323 -0.4755
  761MOL0     H  398   2.626  -0.260   1.696 -0.6129 -1.3734  1.7308
  761MOL0     H  399   2.516  -0.301   1.499  0.4397  0.9227  0.1245
  761MOL0     H  400   2.380  -0.196   1.549 -1.1295 -1.9756 -2.2321
  761MOL0     H  401   2.463  -0.445   1.714 -0.4664  0.5883  0.7078
  761MOL0     H  402   2.334  -0.349   1.750 -1.4031  1.1479 -1.3417
  761MOL0     H  403   2.271  -0.556   1.604 -1.1011  0.5364  1.4715
  761MOL0     H  404   2.353  -0.477   1.468  0.5568  0.6861 -0.2249
  761MOL0     H  405   2.053  -0.371   1.719 -0.9850 -1.5291 -0.4443
  761MOL0     H  406   1.824  -0.138   1.546 -1.3869  0.8382  1.5748
  761MOL0     H  407   1.848  -0.217   1.702  1.5874  0.2759 -0.7899
  761MOL0     H  408   1.642  -0.295   1.610  1.7776  2.1956 -0.1792
  761MOL0     H  409   1.760  -0.431   1.623 -1.1211 -2.0577 -2.7731
  761MOL0     H  410   1.742  -0.273   1.364  0.4778 -0.7361 -0.6176
  761MOL0     H  411   1.778  -0.447   1.394 -0.0324 -0.6569  1.9395
  761MOL0     H  412   1.552  -0.397   1.280 -3.8918  0.0859  1.0456
  761MOL0     H  413   1.526  -0.283   1.412  1.4214  0.2351 -1.4871
  761MOL0     H  414   1.458  -0.726   1.539 -3.0689  0.4350  2.8571
  761MOL0     H  415   1.273  -0.867   1.441  0.6131 -0.1389 -0.3518
  761MOL0     H  416   1.095  -1.039   1.075  0.3931  0.0792  1.7170
  761MOL0     H  417   0.913  -1.180   0.981  3.3702  1.7571 -0.0935
  761MOL0     H  418   0.522  -1.121   1.127  0.4961  0.3415 -1.2558
  761MOL0     H  419   0.527  -1.236   1.245  1.5013 -0.1059  0.3396
  761MOL0     H  420   0.483  -1.322   0.945 -1.0807 -2.2394 -0.5880
  761MOL0     H  421   0.364  -1.297   1.059 -0.5883 -2.2835  3.6508
  761MOL0     H  422   0.569  -1.509   1.115 -0.1065 -3.1957 -0.4239
  761MOL0     H  423   0.400  -1.532   1.050  0.2263 -2.0827  2.3786
  761MOL0     H  424   0.493  -1.450   1.334  0.3909 -2.1781 -0.3067
  761MOL0     H  425   0.341  -1.390   1.269 -0.3193 -0.2538 -0.5003
  761MOL0     H  426   0.406  -1.681   1.263 -0.2851 -0.5036  0.1502
  761MOL0     H  427   0.243  -1.603   1.246  0.2811 -2.9393 -2.3546
  761MOL0     H  428   0.287  -1.505   1.485 -0.1803  0.4393 -0.4204
  761MOL0     H  429   0.416  -1.616   1.500  0.4332 -0.0282 -0.3437
  761MOL0     H  430   0.117  -1.682   1.455 -0.3099 -0.6998  0.9862
  761MOL0     H  431   0.243  -1.798   1.429  1.1516  0.0498 -1.8026
  761MOL0     H  432   0.168  -1.667   1.695  1.2378  1.2374 -0.9384
  761MOL0     H  433   0.319  -1.757   1.680 -0.4853 -3.3744  2.4749
  761MOL0     H  434   0.705  -1.163   1.342 -0.1948 -1.4818 -0.4441
  761MOL0     H  435   0.887  -0.997   1.434 -1.1645  1.4632 -0.0766
  761MOL0     H  436   1.160  -0.517   1.202 -1.2048  0.9611  2.4250
  761MOL0     H  437   1.323  -0.382   1.304  2.9438  0.3433 -2.3312
  761MOL0     H  438   2.866   0.152   1.808 -1.0092 -1.9411 -2.5139
  761MOL0     H  439   3.062   0.171   1.930 -3.9309  2.4023  0.4535
  761MOL0     H  440   3.613  -0.012   1.914  1.2181 -1.0842  0.8275
  761MOL0     H  441   3.851   0.061   1.942  0.9929  3.0323  4.0935
  761MOL0     H  442   4.091   0.156   1.886  0.7474 -3.5673  2.4150
  761MOL0     H  443   4.016   0.141   2.047  2.4345 -0.9228  0.1646
  761MOL0     H  444   4.253   0.225   2.034  1.1144  0.6629 -1.2973
  761MOL0     H  445   4.190   0.374   1.967  0.1387  0.5577  1.6667
  761MOL0     H  446   4.107   0.272   2.241 -0.3721 -0.1249 -0.6570
  761MOL0     H  447   4.055   0.424   2.160 -1.0008 -1.1498 -1.7381
  761MOL0     H  448   4.293   0.491   2.131 -3.5396  1.5293  0.0471
  761MOL0     H  449   4.208   0.510   2.293 -1.8001 -2.1982  1.4735
  761MOL0     H  450   4.552   0.288   2.379 -1.1132 -1.1592 -2.1899
  761MOL0     H  451   3.762   0.460   1.818  0.2639  0.0097 -0.8995
  761MOL0     H  452   3.520   0.371   1.784 -3.3258 -3.0366  0.8343
  762MOL0     O  453   9.808   8.865   0.952 -0.5396  0.3633 -0.1677
  762MOL0     C  454   9.853   8.978   0.989  0.9559  0.6928  0.8139
  762MOL0     O  455   9.780   9.090   0.984  0.4482 -0.2452 -0.5438
  762MOL0     C  456   9.650   9.096   0.952 -0.0570 -0.8448  0.3677
  762MOL0     C  457   9.613   9.057   0.829 -0.4421 -0.4674 -0.2662
  762MOL0     C  458   9.490   9.080   0.771  0.1173  0.8051 -0.5469
  762MOL0     C  459   9.385   9.132   0.859 -0.4706 -0.5146 -1.0179
  762MOL0     O  460   9.262   9.172   0.810  0.3098 -0.2852 -0.0766
  762MOL0     C  461   9.151   9.235   0.885  0.5635  0.7202 -0.0701
  762MOL0     C  462   9.045   9.256   0.779  0.0535 -0.5216  0.6743
  762MOL0     C  463   8.955   9.377   0.829  0.3441  0.1021  0.1464
  762MOL0     C  464   8.842   9.425   0.741 -0.8875 -0.6101  0.7944
  762MOL0     C  465   8.862   9.574   0.692 -0.0820 -0.6948  0.6709
  762MOL0     C  466   8.782   9.623   0.566 -0.1035  0.6880  1.1378
  762MOL0     C  467   8.833   9.558   0.428  0.7073  0.2604  0.4121
  762MOL0     C  468   8.723   9.570   0.331 -0.7507  0.9248  0.4509
  762MOL0     N  469   8.781   9.516   0.203  0.1845  0.7112 -0.0956
  762MOL0     C  470   8.884   9.571   0.128  0.5518  0.4384 -0.2074
  762MOL0     C  471   8.881   9.500   0.018 -0.3800  0.0153  0.5973
  762MOL0     C  472   8.986   9.532  -0.081  0.1226  0.4696  0.1377
  762MOL0     C  473   9.009   9.413  -0.187 -0.5384  0.6029  1.2415
  762MOL0     C  474   9.125   9.314  -0.147  0.4145 -0.9057  1.0135
  762MOL0     C  475   9.096   9.187  -0.062 -0.3707  0.1977 -0.0002
  762MOL0     O  476   9.000   9.102  -0.120 -0.2569  0.1730 -0.2120
  762MOL0     C  477   9.021   9.047  -0.242  0.4548 -0.5887  0.2136
  762MOL0     C  478   8.893   9.022  -0.307 -0.2503  0.0906 -0.4617
  762MOL0     C  479   8.896   8.939  -0.422 -0.6191  0.2263 -0.4041
  762MOL0     C  480   9.018   8.892  -0.471  0.3443 -0.6387 -0.3173
  762MOL0     C  481   9.015   8.804  -0.595  0.5585 -0.1737 -0.3932
  762MOL0     O  482   8.891   8.760  -0.635  0.3050 -0.2097 -0.7587
  762MOL0     C  483   8.867   8.653  -0.709 -0.5768  0.2443  0.8689
  762MOL0     C  484   8.927   8.526  -0.678 -0.6244  0.0965  0.2159
  762MOL0     C  485   8.908   8.413  -0.761 -0.0497 -0.4096 -0.9109
  762MOL0     C  486   8.817   8.416  -0.874 -0.3980 -1.3803 -1.1175
  762MOL0     O  487   8.803   8.315  -0.966  0.3565  0.3610  0.3198
  762MOL0     C  488   8.669   8.257  -0.957  0.3596 -0.4199 -1.4827
  762MOL0     C  489   8.636   8.183  -1.096 -0.0809 -0.0476  0.4806
  762MOL0     C  490   8.512   8.097  -1.077  0.3239 -0.8187  0.1040
  762MOL0     C  491   8.474   8.024  -1.207 -0.6851 -0.4343 -0.6740
  762MOL0     C  492   8.354   7.936  -1.187  0.3722  1.3855 -0.5472
  762MOL0     C  493   8.296   7.903  -1.319  0.1405  0.8709  0.8556
  762MOL0     C  494   8.209   7.775  -1.299 -0.3310  0.2276  0.0947
  762MOL0     C  495   8.057   7.803  -1.308  0.2996  0.8031  0.9055
  762MOL0    Cl  496   8.005   7.824  -1.476 -0.2889  0.4924  0.0443
  762MOL0     C  497   8.747   8.538  -0.891 -0.0682 -0.4976  0.1714
  762MOL0     C  498   8.773   8.656  -0.815 -0.1923  0.7460  0.1782
  762MOL0     O  499   9.122   8.769  -0.640  0.2029  0.2911 -0.0475
  762MOL0     C  500   9.138   8.931  -0.407  1.0226  0.4236  0.1110
  762MOL0     C  501   9.145   9.009  -0.295 -0.3839 -0.1382  0.0420
  762MOL0     N  502   8.800   9.395   0.035  1.1317 -0.0361 -0.0063
  762MOL0     N  503   8.735   9.401   0.152 -1.2091 -1.4819 -0.2067
  762MOL0     C  504   9.419   9.154   0.995  0.0077  0.1392 -0.0013
  762MOL0     C  505   9.553   9.145   1.044 -0.2104  0.1377  0.1564
  762MOL0     C  506   9.991   8.994   1.021 -0.7174  0.3046 -0.7092
  762MOL0     C  507  10.090   8.887   1.042  1.2994 -0.0327 -0.8907
  762MOL0     C  508  10.216   8.912   1.101  0.1921  0.1277  0.2243
  762MOL0     C  509  10.257   9.036   1.121  0.3555 -0.5817 -0.2023
  762MOL0     O  510  10.379   9.060   1.167 -0.4404  0.0100 -0.4493
  762MOL0     C  511  10.423   9.019   1.298 -0.0111 -0.2371  1.1061
  762MOL0     C  512  10.336   9.096   1.407 -0.6615  0.4870 -0.1954
  762MOL0     C  513  10.361   9.037   1.544  0.7632 -0.3087  0.6861
  762MOL0     C  514  10.271   9.108   1.644 -0.5619  0.0701  0.9963
  762MOL0     C  515  10.133   9.050   1.646 -0.3568  0.1273  0.7431
  762MOL0     C  516  10.014   9.045   1.670 -1.6515 -0.0994  0.4307
  762MOL0     C  517  10.174   9.143   1.092 -0.3749 -0.5499 -0.3175
  762MOL0     C  518  10.044   9.123   1.042 -0.1048 -0.2189  0.6846
  762MOL0     H  519   9.685   9.013   0.760  2.4932  1.9968  0.9568
  762MOL0     H  520   9.463   9.063   0.667 -1.0878  1.6596 -0.4042
  762MOL0     H  521   9.172   9.329   0.935 -2.9268  2.8400 -2.1697
  762MOL0     H  522   9.106   9.162   0.953  2.6810 -0.0580  0.5878
  762MOL0     H  523   8.988   9.164   0.764 -1.3748  0.3618  0.4645
  762MOL0     H  524   9.081   9.283   0.679  0.6902  0.1982  1.0908
  762MOL0     H  525   9.018   9.467   0.838  2.9419 -1.6620  0.5705
  762MOL0     H  526   8.916   9.361   0.930  2.2034 -2.2319  0.5556
  762MOL0     H  527   8.836   9.358   0.655 -3.8011  0.2888  0.1949
  762MOL0     H  528   8.744   9.415   0.787 -0.0218  0.4205  3.0380
  762MOL0     H  529   8.968   9.583   0.667 -0.0875 -0.7817  0.6160
  762MOL0     H  530   8.843   9.637   0.780 -1.9645 -1.2432  0.7092
  762MOL0     H  531   8.777   9.733   0.560 -0.4960  0.5994 -0.8854
  762MOL0     H  532   8.677   9.595   0.582 -0.0691 -1.3320 -1.4642
  762MOL0     H  533   8.921   9.608   0.387  1.5992 -2.8593 -1.8913
  762MOL0     H  534   8.862   9.454   0.446  2.0399  0.9999  3.0955
  762MOL0     H  535   8.694   9.674   0.312  0.1789  0.6081 -3.7973
  762MOL0     H  536   8.635   9.514   0.361 -2.4605  3.9131  1.4448
  762MOL0     H  537   8.938   9.656   0.167  2.1892 -0.5407 -0.2076
  762MOL0     H  538   9.075   9.569  -0.030 -1.3673  1.3886  2.1899
  762MOL0     H  539   8.950   9.607  -0.153  0.1381 -3.1201 -4.0792
  762MOL0     H  540   9.044   9.459  -0.280 -1.0878 -1.0699  0.1538
  762MOL0     H  541   8.919   9.353  -0.203 -0.7762  0.9684  1.1857
  762MOL0     H  542   9.173   9.285  -0.241 -4.0511  0.3096 -1.9570
  762MOL0     H  543   9.194   9.382  -0.096 -1.4333  1.6467  0.3041
  762MOL0     H  544   9.055   9.199   0.038  2.4796 -1.5010  1.5112
  762MOL0     H  545   9.188   9.129  -0.051  0.0628  0.3273 -2.4301
  762MOL0     H  546   8.798   9.052  -0.262  1.5659  3.8575  1.3083
  762MOL0     H  547   8.800   8.917  -0.468 -0.7331  0.2672 -0.1869
  762MOL0     H  548   9.002   8.525  -0.598  1.3688  0.6744 -1.5444
  762MOL0     H  549   8.963   8.327  -0.724 -3.0843 -0.6449  3.8510
  762MOL0     H  550   8.595   8.329  -0.922  3.4920  0.4700  4.6824
  762MOL0     H  551   8.659   8.184  -0.876 -1.3858 -0.7234 -1.9211
  762MOL0     H  552   8.720   8.120  -1.127  0.3660  0.0814  1.4114
  762MOL0     H  553   8.624   8.261  -1.172 -3.5159  1.1070  2.0392
  762MOL0     H  554   8.423   8.152  -1.046 -0.6162 -2.2216  0.0172
  762MOL0     H  555   8.532   8.024  -0.998 -1.7505 -0.7602  0.7606
  762MOL0     H  556   8.448   8.094  -1.286  0.2433  0.6288 -0.0608
  762MOL0     H  557   8.559   7.961  -1.236 -0.7746 -1.0639  0.3665
  762MOL0     H  558   8.273   7.982  -1.129 -1.0013  0.0423 -1.3073
  762MOL0     H  559   8.406   7.860  -1.128 -1.2057  1.3899  0.9536
  762MOL0     H  560   8.370   7.861  -1.388  1.7710 -0.5358  3.2902
  762MOL0     H  561   8.243   7.984  -1.368  0.2942  1.6249  1.8970
  762MOL0     H  562   8.237   7.705  -1.378 -0.5599  1.5627 -1.2311
  762MOL0     H  563   8.228   7.724  -1.205  0.9959  0.4684 -0.0270
  762MOL0     H  564   8.027   7.892  -1.251 -0.2281 -0.4213  2.6357
  762MOL0     H  565   8.004   7.722  -1.256 -3.5377  3.5571  1.7667
  762MOL0     H  566   8.681   8.552  -0.976  0.6612  0.0659 -0.3211
  762MOL0     H  567   8.718   8.748  -0.828 -2.3223 -0.7149 -1.8702
  762MOL0     H  568   9.230   8.886  -0.442  0.2887 -2.7938  1.9395
  762MOL0     H  569   9.247   9.038  -0.274 -0.5563  1.8103 -1.5129
  762MOL0     H  570   9.354   9.195   1.071  1.6388 -1.5085  2.3924
  762MOL0     H  571   9.593   9.174   1.140 -0.3144 -0.7995  0.4997
  762MOL0     H  572  10.058   8.783   1.038 -2.3054  0.9928 -3.0716
  762MOL0     H  573  10.284   8.832   1.128 -0.7518 -1.2669 -1.3574
  762MOL0     H  574  10.530   9.040   1.307 -0.1789  2.4485 -1.6640
  762MOL0     H  575  10.397   8.913   1.293 -1.6935  0.1701  0.0585
  762MOL0     H  576  10.378   9.197   1.413  0.2067  0.0514  2.9126
  762MOL0     H  577  10.227   9.098   1.399 -0.9830  4.2395  2.2770
  762MOL0     H  578  10.467   9.058   1.566  0.4635  0.9651  0.9753
  762MOL0     H  579  10.341   8.930   1.546 -0.1475 -0.3105 -2.8375
  762MOL0     H  580  10.311   9.074   1.740 -1.9713 -0.1475  1.5295
  762MOL0     H  581  10.282   9.217   1.635 -0.1914  0.1129  1.8708
  762MOL0     H  582   9.907   9.041   1.674 -1.6807 -0.4387 -0.4596
  762MOL0     H  583  10.214   9.242   1.109 -0.2697 -0.5828 -0.3728
  762MOL0     H  584   9.992   9.218   1.032 -0.0883 -0.2071  0.7096
  763MOL0     O  585   1.227   6.557  11.350  0.2795  0.0725 -0.5176
  763MOL0     C  586   1.132   6.572  11.277  0.4895  0.1657  0.3207
  763MOL0     O  587   1.118   6.664  11.179 -0.7171 -0.6206 -0.1760
  763MOL0     C  588   1.215   6.764  11.178 -0.5401  0.1580 -0.0986
  763MOL0     C  589   1.226   6.856  11.287 -0.3501  0.3947  0.0159
  763MOL0     C  590   1.310   6.968  11.270 -0.2538  0.3299  0.6098
  763MOL0     C  591   1.372   7.000  11.153 -0.1910 -0.5655 -0.6945
  763MOL0     O  592   1.444   7.115  11.146  0.2707  0.1184  0.1776
  763MOL0     C  593   1.584   7.098  11.118 -0.1307 -0.0342  0.8607
  763MOL0     C  594   1.656   7.232  11.135  0.6729  0.5999 -0.0531
  763MOL0     C  595   1.793   7.224  11.107 -0.5269  1.7541 -0.1108
  763MOL0     C  596   1.828   7.179  10.960 -0.2440  0.0238  0.2234
  763MOL0     C  597   1.989   7.179  10.963 -0.2626 -0.1760 -0.0107
  763MOL0     C  598   2.066   7.151  10.831 -0.6605 -0.1757 -0.0704
  763MOL0     C  599   2.124   7.278  10.769 -0.8472  0.2661 -0.0898
  763MOL0     C  600   2.025   7.398  10.767  0.2321 -0.5061  0.0998
  763MOL0     N  601   2.109   7.509  10.709  0.1712 -0.3251  0.0877
  763MOL0     C  602   2.116   7.523  10.573 -0.3050 -0.5700  1.1965
  763MOL0     C  603   2.162   7.655  10.553 -0.5254  0.1556  0.2607
  763MOL0     C  604   2.207   7.724  10.428 -0.3976  0.5040  0.6510
  763MOL0     C  605   2.200   7.641  10.290  0.2327  0.2734 -0.4887
  763MOL0     C  606   2.269   7.717  10.171 -0.3583 -0.3995 -0.0292
  763MOL0     C  607   2.428   7.725  10.184 -0.1643  0.1407  0.5417
  763MOL0     O  608   2.489   7.621  10.109  0.2258 -0.6498 -0.0622
  763MOL0     C  609   2.626   7.626  10.101 -0.8736 -0.5200  0.1714
  763MOL0     C  610   2.704   7.694  10.207  0.5621  0.0399 -0.1720
  763MOL0     C  611   2.844   7.689  10.208 -0.3049 -0.1735  0.7037
  763MOL0     C  612   2.911   7.619  10.115 -0.3605  0.2354  0.5004
  763MOL0     C  613   3.051   7.614  10.115 -0.1244  0.2664 -0.2931
  763MOL0     O  614   3.114   7.732  10.134 -0.7306 -0.1194 -0.4050
  763MOL0     C  615   3.234   7.769  10.082  0.0288 -0.1982 -0.1634
  763MOL0     C  616   3.289   7.726   9.954 -0.4318  0.3754  0.3706
  763MOL0     C  617   3.407   7.780   9.910 -0.2337 -0.1148  0.3410
  763MOL0     C  618   3.483   7.871   9.986  0.4974  0.9529  0.8162
  763MOL0     O  619   3.593   7.906   9.919 -0.4176 -0.2146 -0.2598
  763MOL0     C  620   3.645   8.039   9.955 -0.3574  1.2499 -0.1777
  763MOL0     C  621   3.759   8.070   9.865  0.1751  0.1585  0.0165
  763MOL0     C  622   3.842   8.194   9.907  0.0940 -0.7493  0.9771
  763MOL0     C  623   3.958   8.200   9.803  0.5534  0.5874  0.5372
  763MOL0     C  624   4.073   8.302   9.828  0.2217  0.7233 -0.5981
  763MOL0     C  625   4.028   8.449   9.842 -0.5247 -0.2670  0.5159
  763MOL0     C  626   3.947   8.491   9.726  0.0179 -0.7483 -0.0962
  763MOL0     C  627   3.909   8.643   9.742  0.4578 -0.3363 -0.5169
  763MOL0    Cl  628   3.816   8.672   9.891  0.4994 -0.3943  0.0415
  763MOL0     C  629   3.422   7.921  10.096 -0.2220  0.5994 -0.2719
  763MOL0     C  630   3.299   7.867  10.152  0.6285 -0.1300  0.3236
  763MOL0     O  631   3.100   7.506  10.103 -0.0457  0.2086  0.3868
  763MOL0     C  632   2.837   7.566  10.012 -0.3723  0.7485  0.3096
  763MOL0     C  633   2.698   7.562  10.000 -0.1780  1.0123 -0.1389
  763MOL0     N  634   2.193   7.705  10.674 -0.0298 -0.2124 -0.0508
  763MOL0     N  635   2.163   7.624  10.766 -0.0467 -0.1961 -0.3866
  763MOL0     C  636   1.348   6.912  11.044  0.5403 -0.4455 -0.5771
  763MOL0     C  637   1.274   6.797  11.057  0.0612  0.2677  0.3533
  763MOL0     C  638   1.009   6.492  11.310 -0.2132  0.0434  0.2000
  763MOL0     C  639   1.017   6.399  11.414  0.2872 -0.4112  0.0627
  763MOL0     C  640   0.903   6.330  11.442 -0.3678  0.0837 -0.0173
  763MOL0     C  641   0.791   6.335  11.364 -0.0463  0.6464 -0.0890
  763MOL0     O  642   0.687   6.249  11.411  0.0386  0.7344 -0.2841
  763MOL0     C  643   0.617   6.180  11.308 -0.2555 -0.0692 -0.3562
  763MOL0     C  644   0.474   6.212  11.313  2.1181  0.0082 -0.1082
  763MOL0     C  645   0.404   6.135  11.202 -0.5812 -0.1738  0.6426
  763MOL0     C  646   0.273   6.203  11.167  0.7475  0.2105  0.5096
  763MOL0     C  647   0.198   6.104  11.080 -0.0863 -0.1787 -0.3440
  763MOL0     C  648   0.143   6.010  11.027 -0.0597 -0.4018  0.3001
  763MOL0     C  649   0.776   6.423  11.260 -0.2164 -0.0296  0.4558
  763MOL0     C  650   0.894   6.499  11.228  0.4165 -0.2497  0.5095
  763MOL0     H  651   1.153   6.845  11.367  2.6846 -2.8620  2.6790
  763MOL0     H  652   1.314   7.031  11.358  1.4956  1.5803 -0.3140
  763MOL0     H  653   1.603   7.071  11.014  2.9675 -1.1835  1.6122
  763MOL0     H  654   1.634   7.017  11.172  0.7583  2.0286  3.3428
  763MOL0     H  655   1.639   7.272  11.235 -0.4485  0.3559 -0.1340
  763MOL0     H  656   1.620   7.314  11.073 -0.4739 -1.0059 -1.6024
  763MOL0     H  657   1.847   7.161  11.179  1.0360  2.1860 -0.8613
  763MOL0     H  658   1.841   7.321  11.125  2.0295  0.3574  1.2047
  763MOL0     H  659   1.788   7.081  10.933 -1.2856  1.0738 -2.4703
  763MOL0     H  660   1.788   7.256  10.893 -0.1906  0.0962  0.2761
  763MOL0     H  661   2.014   7.088  11.018 -0.9851 -1.1817 -1.2790
  763MOL0     H  662   2.043   7.262  11.009 -0.7284  0.6065 -0.8310
  763MOL0     H  663   2.015   7.083  10.762 -0.6597 -1.6914  1.3517
  763MOL0     H  664   2.149   7.083  10.855 -0.0757 -0.0218 -1.5297
  763MOL0     H  665   2.212   7.304  10.828 -1.6506  1.0701  0.8020
  763MOL0     H  666   2.163   7.260  10.669  0.3868  2.0360  0.0250
  763MOL0     H  667   1.987   7.422  10.867 -3.0790  1.9493 -1.5379
  763MOL0     H  668   1.941   7.376  10.700 -2.2120  2.4879  1.9055
  763MOL0     H  669   2.092   7.457  10.491  4.1815  1.1748 -1.9519
  763MOL0     H  670   2.314   7.743  10.436 -0.0207 -0.7425 -0.9006
  763MOL0     H  671   2.148   7.815  10.413  0.6527  1.0144 -0.5663
  763MOL0     H  672   2.099   7.610  10.260  1.1481 -1.6703 -1.7223
  763MOL0     H  673   2.255   7.548  10.308 -1.0212 -0.0947  1.8180
  763MOL0     H  674   2.247   7.665  10.077 -0.9644  1.5319 -1.0094
  763MOL0     H  675   2.229   7.819  10.171 -1.6092 -0.8713  0.6838
  763MOL0     H  676   2.452   7.718  10.290 -2.0363  1.3104  1.0907
  763MOL0     H  677   2.466   7.821  10.150 -0.5151  0.5781  1.3637
  763MOL0     H  678   2.660   7.753  10.286 -0.0094 -3.4190  2.2656
  763MOL0     H  679   2.910   7.739  10.279  0.9902 -0.6665 -0.1187
  763MOL0     H  680   3.240   7.644   9.902  0.6686  0.0831 -0.2341
  763MOL0     H  681   3.450   7.750   9.815  2.8974  0.6642  1.3794
  763MOL0     H  682   3.689   8.034  10.055  1.2058  1.5690 -0.8277
  763MOL0     H  683   3.563   8.109   9.938 -1.9537 -1.1234 -3.2848
  763MOL0     H  684   3.698   8.083   9.775 -0.5449  0.5584  0.5536
  763MOL0     H  685   3.831   7.988   9.866  2.7637  2.2773  2.8372
  763MOL0     H  686   3.885   8.184  10.007  0.3545  0.1109  0.9593
  763MOL0     H  687   3.782   8.284   9.894  2.4411  0.5995 -2.0718
  763MOL0     H  688   4.009   8.104   9.792  0.6224  0.0800  4.2141
  763MOL0     H  689   3.910   8.231   9.709 -0.1243  0.3827  0.8082
  763MOL0     H  690   4.140   8.312   9.742  2.9806  0.9730  1.4484
  763MOL0     H  691   4.130   8.278   9.918  0.1303 -1.0154 -0.9730
  763MOL0     H  692   4.118   8.509   9.852 -0.5682  0.8132 -3.6737
  763MOL0     H  693   3.973   8.458   9.936  2.2251  0.2539  2.1620
  763MOL0     H  694   4.011   8.480   9.638  0.0598 -0.8149 -0.0566
  763MOL0     H  695   3.863   8.432   9.690 -0.0106  0.3005 -1.8531
  763MOL0     H  696   3.847   8.668   9.655 -1.2975  1.0590  1.0384
  763MOL0     H  697   3.995   8.711   9.741  1.2468 -1.3214 -0.5584
  763MOL0     H  698   3.483   8.006  10.126  0.9124 -0.3212  0.0752
  763MOL0     H  699   3.262   7.898  10.250 -0.0641 -4.0638  1.4729
  763MOL0     H  700   2.889   7.533   9.922 -0.2973  0.8262  0.3242
  763MOL0     H  701   2.648   7.535   9.907  1.0480  1.9734 -1.1182
  763MOL0     H  702   1.383   6.939  10.945  1.1455  2.2828  0.3145
  763MOL0     H  703   1.264   6.731  10.971  2.2390 -0.2921  0.4721
  763MOL0     H  704   1.103   6.376  11.476 -0.0814  1.8147  1.5256
  763MOL0     H  705   0.914   6.261  11.525  1.4558  1.3499  0.8655
  763MOL0     H  706   0.628   6.072  11.324 -1.2103  0.0775  1.6282
  763MOL0     H  707   0.652   6.209  11.209  0.8064  0.5260  0.1741
  763MOL0     H  708   0.436   6.181  11.411  0.7987  0.1506 -0.5584
  763MOL0     H  709   0.447   6.318  11.306 -1.8137 -0.4318  3.9136
  763MOL0     H  710   0.389   6.032  11.238  0.8340 -1.2033 -1.4621
  763MOL0     H  711   0.463   6.128  11.111 -2.5067  1.2310 -0.7912
  763MOL0     H  712   0.210   6.220  11.255 -2.1159  2.9042 -1.8313
  763MOL0     H  713   0.283   6.298  11.113 -1.0776  0.8912  1.3155
  763MOL0     H  714   0.093   5.919  11.001  0.3060 -0.4038 -0.4130
  763MOL0     H  715   0.685   6.426  11.202 -0.2560 -1.6823  0.3839
  763MOL0     H  716   0.884   6.565  11.143 -0.4300  2.6676  2.7085
  764MOL0     O  717   9.778   1.706   4.179  1.1163 -0.1651  0.2813
  764MOL0     C  718   9.862   1.675   4.088  0.0849 -0.1095 -0.3614
  764MOL0     O  719   9.830   1.616   3.970 -0.3450  0.0537 -0.1803
  764MOL0     C  720   9.708   1.582   3.922 -0.1851 -0.2192 -0.9458
  764MOL0     C  721   9.586   1.581   3.999  0.0723  0.4291 -0.6771
  764MOL0     C  722   9.461   1.559   3.941  0.4043  1.1498 -0.2176
  764MOL0     C  723   9.453   1.515   3.803  0.1941 -0.6069  0.2128
  764MOL0     O  724   9.340   1.503   3.732 -1.3836 -0.1866  0.2143
  764MOL0     C  725   9.222   1.432   3.780  0.8507  0.4673 -0.1026
  764MOL0     C  726   9.108   1.515   3.832  0.3239 -1.1278 -0.5184
  764MOL0     C  727   9.058   1.623   3.734  0.4262 -0.2723 -0.4829
  764MOL0     C  728   8.916   1.680   3.777 -0.3444  0.8051 -0.1218
  764MOL0     C  729   8.794   1.590   3.786 -0.1505  0.1173  0.0795
  764MOL0     C  730   8.768   1.513   3.648  0.2793  0.4876 -0.2372
  764MOL0     C  731   8.654   1.421   3.660 -0.1039 -0.3692  0.3171
  764MOL0     C  732   8.662   1.306   3.755 -0.7242  0.1489 -0.0859
  764MOL0     N  733   8.779   1.219   3.725  0.4072 -0.3308  0.8018
  764MOL0     C  734   8.770   1.116   3.637  0.5573  0.1633 -0.0028
  764MOL0     C  735   8.878   1.039   3.673  0.5133 -0.1186  0.0496
  764MOL0     C  736   8.897   0.904   3.620 -0.2591  0.3993 -0.5585
  764MOL0     C  737   8.922   0.800   3.741  0.5175  0.3953 -0.9449
  764MOL0     C  738   8.878   0.661   3.705 -0.3586 -0.2479 -0.6016
  764MOL0     C  739   8.726   0.645   3.707  0.1663  0.1504 -0.6055
  764MOL0     O  740   8.705   0.508   3.672  0.0556  0.4051  0.0796
  764MOL0     C  741   8.591   0.485   3.602  1.0680 -0.2393  0.7512
  764MOL0     C  742   8.608   0.426   3.474 -1.1810  0.3503 -0.0277
  764MOL0     C  743   8.501   0.391   3.392 -0.0029  0.5003 -0.3355
  764MOL0     C  744   8.374   0.419   3.438 -0.4564 -0.5309 -0.0767
  764MOL0     C  745   8.254   0.383   3.357  0.2414  0.5672  0.4188
  764MOL0     O  746   8.132   0.415   3.419 -0.3045 -0.0959  0.2835
  764MOL0     C  747   8.019   0.407   3.342  0.4170 -0.4904 -0.0892
  764MOL0     C  748   8.025   0.439   3.204  0.1322 -0.2006 -0.5266
  764MOL0     C  749   7.909   0.450   3.136 -0.5359 -0.2156  1.5330
  764MOL0     C  750   7.784   0.407   3.181 -0.4824  0.5949  0.4400
  764MOL0     O  751   7.670   0.407   3.106 -0.0395  0.0429  0.1091
  764MOL0     C  752   7.651   0.306   3.010 -0.1843  0.6042 -0.9267
  764MOL0     C  753   7.535   0.343   2.918  0.2701  1.3921  0.3780
  764MOL0     C  754   7.572   0.464   2.831  0.1968 -0.6486 -0.6344
  764MOL0     C  755   7.591   0.598   2.906 -0.3125  0.3630 -0.1283
  764MOL0     C  756   7.573   0.722   2.811 -0.2663  0.1067  1.1611
  764MOL0     C  757   7.678   0.719   2.691  0.6403  0.4265  0.1854
  764MOL0     C  758   7.824   0.773   2.731  1.0423  0.1994 -0.3037
  764MOL0     C  759   7.926   0.658   2.764 -0.1777  0.7985 -0.1187
  764MOL0    Cl  760   7.963   0.580   2.607 -0.2320 -0.3763 -0.0556
  764MOL0     C  761   7.787   0.365   3.313  0.0542  0.2735  1.1719
  764MOL0     C  762   7.899   0.371   3.396  0.8733 -0.4399 -0.1924
  764MOL0     O  763   8.269   0.311   3.259  1.1521 -0.3312  0.0202
  764MOL0     C  764   8.359   0.499   3.553 -0.1537 -0.8829 -0.2250
  764MOL0     C  765   8.465   0.526   3.638 -1.0722 -0.8306 -0.9514
  764MOL0     N  766   8.956   1.098   3.768 -0.3121  0.1270  0.2283
  764MOL0     N  767   8.892   1.205   3.802  0.2383 -0.6680 -0.1701
  764MOL0     C  768   9.569   1.508   3.726 -0.1638 -0.2146 -1.0051
  764MOL0     C  769   9.695   1.544   3.791  0.0364  0.1063  0.0709
  764MOL0     C  770  10.008   1.708   4.098  0.7364  0.0533 -0.1369
  764MOL0     C  771  10.102   1.651   4.006  0.6893 -0.0707 -0.2680
  764MOL0     C  772  10.239   1.697   4.018 -0.7307 -0.4650 -0.0392
  764MOL0     C  773  10.271   1.795   4.114  0.5154 -0.3638 -0.0567
  764MOL0     O  774  10.401   1.846   4.123  0.3445 -0.1480  0.4146
  764MOL0     C  775  10.516   1.768   4.091  0.0053 -0.1615 -0.6144
  764MOL0     C  776  10.596   1.730   4.217  0.2702  0.0944  0.6975
  764MOL0     C  777  10.513   1.647   4.316 -0.5236 -0.0122 -0.1763
  764MOL0     C  778  10.419   1.718   4.405  0.1743  0.0232 -0.4576
  764MOL0     C  779  10.341   1.622   4.477 -1.0766 -0.5977 -0.9494
  764MOL0     C  780  10.286   1.539   4.547 -0.3100  1.0646  0.0851
  764MOL0     C  781  10.174   1.851   4.192  1.0471 -0.2009 -0.1412
  764MOL0     C  782  10.040   1.813   4.183 -0.3822 -1.0423 -0.6688
  764MOL0     H  783   9.584   1.586   4.108 -2.6193 -0.6623 -0.6063
  764MOL0     H  784   9.373   1.564   4.003 -0.4273 -0.3763 -1.2136
  764MOL0     H  785   9.251   1.350   3.847 -3.0254 -1.5696 -0.6125
  764MOL0     H  786   9.181   1.370   3.699 -0.5294  0.1191  0.8286
  764MOL0     H  787   9.121   1.561   3.930  1.2322 -0.9093 -0.7226
  764MOL0     H  788   9.025   1.445   3.841 -0.0101 -0.5446  1.2049
  764MOL0     H  789   9.058   1.569   3.639 -2.3219 -1.5455  0.1281
  764MOL0     H  790   9.117   1.715   3.732 -0.9197  0.6531  0.4045
  764MOL0     H  791   8.909   1.736   3.870 -3.3318 -1.1683  0.9969
  764MOL0     H  792   8.906   1.759   3.702  1.1285  1.7928  0.6783
  764MOL0     H  793   8.704   1.648   3.807 -1.5944 -1.4018 -1.5446
  764MOL0     H  794   8.813   1.525   3.872  0.2120 -0.4495 -0.4243
  764MOL0     H  795   8.856   1.456   3.619  0.4882 -0.6029  2.3012
  764MOL0     H  796   8.760   1.590   3.570  1.2427  0.8212 -0.0136
  764MOL0     H  797   8.557   1.468   3.682 -0.0496 -0.2737  0.3483
  764MOL0     H  798   8.639   1.375   3.561 -2.8883 -0.8204  0.8452
  764MOL0     H  799   8.572   1.245   3.765 -0.5173  0.1250  2.2561
  764MOL0     H  800   8.683   1.356   3.851 -3.3208  2.4840 -0.5931
  764MOL0     H  801   8.689   1.096   3.568  1.1385  0.9841 -0.9640
  764MOL0     H  802   8.972   0.895   3.541  2.0462 -2.6359  1.6968
  764MOL0     H  803   8.804   0.868   3.575  0.6988 -0.2997 -2.0691
  764MOL0     H  804   8.857   0.837   3.821  0.8736 -1.7425  0.4195
  764MOL0     H  805   9.026   0.803   3.777  0.4680  1.1623 -0.8422
  764MOL0     H  806   8.918   0.641   3.606 -0.0197 -1.6383 -0.1980
  764MOL0     H  807   8.919   0.587   3.774 -1.8602  1.2728  2.1028
  764MOL0     H  808   8.690   0.720   3.636 -0.2141  2.7732  2.1362
  764MOL0     H  809   8.677   0.666   3.803  0.5536  3.5673 -1.0162
  764MOL0     H  810   8.709   0.410   3.438 -1.4370 -1.6036  0.0411
  764MOL0     H  811   8.513   0.344   3.295 -3.1769 -0.7253 -0.2595
  764MOL0     H  812   8.118   0.470   3.158  0.5734  0.4005  0.7071
  764MOL0     H  813   7.916   0.494   3.037 -0.9698  1.2241  2.1177
  764MOL0     H  814   7.645   0.204   3.046  3.2872  0.8955  0.9640
  764MOL0     H  815   7.748   0.311   2.958 -0.0929  2.9779 -0.6533
  764MOL0     H  816   7.440   0.344   2.973  0.0353 -0.6900  0.0819
  764MOL0     H  817   7.540   0.257   2.851  1.0900  1.6889  0.0471
  764MOL0     H  818   7.509   0.465   2.741 -2.9350  0.8083  1.4062
  764MOL0     H  819   7.671   0.434   2.793  0.0878  1.3862 -2.7663
  764MOL0     H  820   7.522   0.603   2.990  1.9425  1.6851  1.7606
  764MOL0     H  821   7.690   0.598   2.954 -0.7699 -0.4260  0.8414
  764MOL0     H  822   7.587   0.815   2.867  4.7160 -0.5162  1.3850
  764MOL0     H  823   7.480   0.725   2.754  1.7906 -3.1195 -2.9716
  764MOL0     H  824   7.646   0.788   2.612  0.9378 -2.9393 -3.1850
  764MOL0     H  825   7.686   0.619   2.646 -0.7198  0.4989 -0.2358
  764MOL0     H  826   7.871   0.834   2.653  2.9520 -0.0423  0.5955
  764MOL0     H  827   7.798   0.849   2.806  1.1321  0.0623 -0.1320
  764MOL0     H  828   7.880   0.581   2.826 -0.1080  0.3026 -0.6722
  764MOL0     H  829   8.018   0.685   2.816  0.2542 -2.1895  0.8531
  764MOL0     H  830   7.697   0.316   3.348 -0.4254  0.8689  0.7842
  764MOL0     H  831   7.895   0.334   3.498  2.0037 -3.8093 -1.2054
  764MOL0     H  832   8.262   0.537   3.584  0.3542 -1.3022  2.0568
  764MOL0     H  833   8.442   0.578   3.731 -0.7625  0.2273 -1.4489
  764MOL0     H  834   9.565   1.472   3.623  0.3500 -2.5673 -0.2666
  764MOL0     H  835   9.784   1.535   3.729  0.5704 -2.2702  1.0656
  764MOL0     H  836  10.064   1.590   3.925 -1.6698  1.4419 -0.4075
  764MOL0     H  837  10.310   1.648   3.953 -0.8436 -3.9437  2.2012
  764MOL0     H  838  10.583   1.831   4.031  2.3910  1.6833  3.6002
  764MOL0     H  839  10.496   1.675   4.037  4.3291 -1.0069 -1.1217
  764MOL0     H  840  10.681   1.665   4.197 -0.8988 -1.9157  1.9067
  764MOL0     H  841  10.625   1.824   4.267  1.9559  1.6553 -2.8809
  764MOL0     H  842  10.579   1.585   4.377 -2.9502 -1.3832  1.2184
  764MOL0     H  843  10.445   1.586   4.255 -0.8102  0.6937 -0.5781
  764MOL0     H  844  10.474   1.768   4.485 -1.8222 -1.1471  1.7748
  764MOL0     H  845  10.349   1.788   4.359 -0.7170 -0.2239  0.4853
  764MOL0     H  846  10.237   1.462   4.602  1.4891  0.4432  0.8933
  764MOL0     H  847  10.192   1.926   4.268 -0.1767 -0.2243  0.1958
  764MOL0     H  848   9.959   1.857   4.239  1.0424  1.1405 -0.2122
  765MOL0     O  849   6.890   8.961  10.353 -0.1159 -0.5017 -0.3778
  765MOL0     C  850   6.834   8.967  10.463  0.7442  1.0696 -0.2754
  765MOL0     O  851   6.744   9.061  10.510 -0.7215 -0.3083  0.2799
  765MOL0     C  852   6.684   9.147  10.415 -0.7904  0.1778  0.4424
  765MOL0     C  853   6.642   9.112  10.279  0.2669 -0.5971 -0.2089
  765MOL0     C  854   6.576   9.210  10.202 -0.0894 -0.4256  0.0779
  765MOL0     C  855   6.534   9.333  10.252 -0.3362  0.6845 -0.3644
  765MOL0     O  856   6.476   9.432  10.188  0.4025  0.0306  1.0410
  765MOL0     C  857   6.530   9.455  10.051  0.5797  0.4197  0.2901
  765MOL0     C  858   6.436   9.536   9.963 -0.9635  0.4904  0.4089
  765MOL0     C  859   6.416   9.684  10.005 -0.5937  0.1709 -0.2299
  765MOL0     C  860   6.284   9.746   9.968 -0.4780 -0.7263 -0.0124
  765MOL0     C  861   6.274   9.891  10.020 -0.0978 -0.1992  0.3152
  765MOL0     C  862   6.161   9.968   9.944 -0.1513  0.9030 -0.3639
  765MOL0     C  863   6.177  10.121   9.954  0.1156  0.6121  0.3458
  765MOL0     C  864   6.072  10.205   9.882 -0.0853 -0.4440  0.6106
  765MOL0     N  865   6.077  10.187   9.738  0.3432 -0.3665  0.3170
  765MOL0     C  866   6.193  10.197   9.662 -0.3569  0.2973  0.0609
  765MOL0     C  867   6.151  10.182   9.538 -0.0987  0.9948  1.0046
  765MOL0     C  868   6.231  10.163   9.413  0.6535 -0.8962 -1.2281
  765MOL0     C  869   6.359  10.229   9.415 -0.1805 -0.6959 -0.5543
  765MOL0     C  870   6.426  10.188   9.283 -0.6541 -0.7972  0.6413
  765MOL0     C  871   6.578  10.238   9.287  0.1606 -0.3963  0.1115
  765MOL0     O  872   6.656  10.198   9.171 -0.5844  0.0426 -1.6519
  765MOL0     C  873   6.623  10.251   9.055 -0.7137 -0.2065  0.8069
  765MOL0     C  874   6.625  10.159   8.953  0.2766 -0.2644  0.4278
  765MOL0     C  875   6.587  10.204   8.823 -0.0014  0.2689 -0.6073
  765MOL0     C  876   6.565  10.343   8.793 -0.0200 -0.0724  0.0761
  765MOL0     C  877   6.531  10.403   8.661  0.1086  0.2767  0.9998
  765MOL0     O  878   6.533  10.538   8.664 -0.1473  0.2418  0.6612
  765MOL0     C  879   6.521  10.599   8.540 -0.6225 -0.7790 -0.2303
  765MOL0     C  880   6.606  10.567   8.431  0.7447 -0.5739 -1.7697
  765MOL0     C  881   6.582  10.620   8.308 -0.5853 -0.2322  0.5333
  765MOL0     C  882   6.473  10.708   8.286  0.5667  0.6253 -0.1259
  765MOL0     O  883   6.442  10.760   8.163 -0.2717  0.6427  0.1414
  765MOL0     C  884   6.462  10.677   8.047 -0.5399  0.7453 -0.5858
  765MOL0     C  885   6.337  10.664   7.961 -1.0112  0.3042 -0.4079
  765MOL0     C  886   6.378  10.591   7.832  0.3893  0.4244 -0.6153
  765MOL0     C  887   6.459  10.677   7.726  0.2310  0.8296 -0.2946
  765MOL0     C  888   6.511  10.594   7.614  0.2287 -0.8406  0.3998
  765MOL0     C  889   6.586  10.693   7.519  0.6751 -0.2796  0.1405
  765MOL0     C  890   6.641  10.609   7.401  0.8304 -0.4347 -0.6614
  765MOL0     C  891   6.680  10.699   7.292 -0.2603  0.6916 -0.2026
  765MOL0    Cl  892   6.535  10.693   7.184  0.5623 -0.2809  0.2157
  765MOL0     C  893   6.395  10.747   8.398  0.8623  0.7450  0.0657
  765MOL0     C  894   6.414  10.688   8.520 -0.5817  0.2408 -0.2092
  765MOL0     O  895   6.507  10.329   8.565  0.1486 -0.0065  0.2444
  765MOL0     C  896   6.557  10.425   8.904 -0.4657  0.3663  0.8514
  765MOL0     C  897   6.581  10.386   9.030  0.5594 -0.2728 -0.6399
  765MOL0     N  898   6.013  10.188   9.530  0.1034 -0.5797  0.4688
  765MOL0     N  899   5.971  10.172   9.655 -0.1850  0.9426  0.2394
  765MOL0     C  900   6.584   9.372  10.373  0.7969  0.0723 -1.0671
  765MOL0     C  901   6.657   9.276  10.462 -0.1542 -0.1127  0.4159
  765MOL0     C  902   6.838   8.855  10.554  0.5894  1.0304  0.2480
  765MOL0     C  903   6.822   8.864  10.689 -0.2795  1.2875  0.2405
  765MOL0     C  904   6.816   8.758  10.781 -0.5292 -0.6203  0.1960
  765MOL0     C  905   6.849   8.630  10.738 -1.2098 -0.7112 -0.2551
  765MOL0     O  906   6.843   8.531  10.829 -0.1815 -0.1096 -0.2742
  765MOL0     C  907   6.813   8.395  10.782 -0.4379 -0.1821 -0.2402
  765MOL0     C  908   6.846   8.298  10.896 -0.3219 -0.7297  1.3010
  765MOL0     C  909   6.809   8.152  10.869  0.3325 -0.2433  0.2955
  765MOL0     C  910   6.766   8.084  11.004 -0.6630  0.7248  0.4355
  765MOL0     C  911   6.874   8.083  11.094 -0.1339 -0.7376  0.9568
  765MOL0     C  912   6.983   8.087  11.149  0.0224 -0.3407  0.3551
  765MOL0     C  913   6.853   8.614  10.596  0.0261 -0.4535 -0.0735
  765MOL0     C  914   6.834   8.727  10.507  0.0780 -0.6746 -0.4433
  765MOL0     H  915   6.667   9.017  10.233  3.0072  1.2167 -2.8511
  765MOL0     H  916   6.537   9.171  10.108 -0.4381 -4.1949  1.6100
  765MOL0     H  917   6.546   9.356  10.006  0.5001  0.7402 -0.4550
  765MOL0     H  918   6.630   9.497  10.065  0.8260  0.4798 -1.4142
  765MOL0     H  919   6.340   9.484   9.961  0.5302 -2.5469 -2.8184
  765MOL0     H  920   6.468   9.548   9.859  0.9076 -0.0929  0.8828
  765MOL0     H  921   6.493   9.746   9.958 -0.0093  0.6157  1.2680
  765MOL0     H  922   6.426   9.697  10.113 -0.4308 -1.8646  0.0311
  765MOL0     H  923   6.262   9.747   9.860 -2.4840  0.1767  0.3578
  765MOL0     H  924   6.203   9.682  10.002  0.6860 -1.8593  0.7101
  765MOL0     H  925   6.366   9.944   9.996 -0.8593  0.6674 -0.7869
  765MOL0     H  926   6.246   9.891  10.126  2.7377 -3.9468  1.3026
  765MOL0     H  927   6.063   9.947   9.987  1.0853  0.5664  2.5164
  765MOL0     H  928   6.156   9.946   9.837 -0.7794  0.2828 -0.2099
  765MOL0     H  929   6.177  10.153  10.059  0.3839  3.3424 -0.4155
  765MOL0     H  930   6.279  10.146   9.923 -0.0417 -1.1394 -1.8315
  765MOL0     H  931   6.087  10.311   9.904 -1.8492  0.3750 -1.6535
  765MOL0     H  932   5.972  10.189   9.925 -0.7259  3.5237  1.0530
  765MOL0     H  933   6.296  10.203   9.694  0.0429  0.8452 -1.2746
  765MOL0     H  934   6.177  10.204   9.328 -0.2673 -0.5794 -0.4981
  765MOL0     H  935   6.230  10.053   9.414 -4.3294 -1.0826  0.3536
  765MOL0     H  936   6.415  10.203   9.505  1.9797 -0.0627 -1.6627
  765MOL0     H  937   6.334  10.335   9.419  0.9750 -0.3947 -0.9603
  765MOL0     H  938   6.406  10.081   9.272 -2.6550 -0.3765 -0.0620
  765MOL0     H  939   6.387  10.260   9.211  1.4506 -0.2715 -0.0562
  765MOL0     H  940   6.622  10.195   9.377  1.5439 -2.6616 -1.5330
  765MOL0     H  941   6.592  10.346   9.287  0.3504 -0.4197 -0.0243
  765MOL0     H  942   6.636  10.053   8.974 -0.7554 -0.3879  0.4191
  765MOL0     H  943   6.574  10.127   8.748 -1.3182 -0.2460  0.1073
  765MOL0     H  944   6.691  10.501   8.447 -0.1863 -0.9857  2.8741
  765MOL0     H  945   6.662  10.601   8.238  2.4636 -0.1601  3.7596
  765MOL0     H  946   6.499  10.581   8.083  0.3122  0.5788 -1.8547
  765MOL0     H  947   6.540  10.721   7.985 -1.7238 -1.0784 -3.5587
  765MOL0     H  948   6.303  10.764   7.932  3.6250  1.7531 -1.8062
  765MOL0     H  949   6.259  10.618   8.021 -3.2295  2.7691 -1.2133
  765MOL0     H  950   6.283  10.560   7.786  0.4718  2.2792 -2.1368
  765MOL0     H  951   6.443  10.505   7.851  1.4674  0.7114 -2.7113
  765MOL0     H  952   6.385  10.751   7.696  0.0956  0.6836 -0.3204
  765MOL0     H  953   6.534  10.734   7.782  1.3025  0.2527 -1.1064
  765MOL0     H  954   6.431  10.539   7.563 -0.3701  0.8682 -0.5563
  765MOL0     H  955   6.570  10.510   7.651 -0.5230 -0.7439  1.8679
  765MOL0     H  956   6.661  10.742   7.581  1.0747 -0.3040 -0.3151
  765MOL0     H  957   6.514  10.760   7.472 -1.9540 -2.8341  0.2094
  765MOL0     H  958   6.718  10.550   7.452  0.1820  0.6506  1.7060
  765MOL0     H  959   6.563  10.537   7.372  1.2195 -0.9641 -0.4126
  765MOL0     H  960   6.775  10.671   7.244  0.1454 -0.7223  1.3406
  765MOL0     H  961   6.698  10.800   7.329  1.4024  0.6676 -0.8350
  765MOL0     H  962   6.313  10.815   8.376 -0.0791  0.1121  1.4707
  765MOL0     H  963   6.353  10.725   8.602 -1.8311  0.4494 -1.2016
  765MOL0     H  964   6.551  10.533   8.902 -0.9801  0.4008  2.7214
  765MOL0     H  965   6.595  10.458   9.110  1.0511 -1.8333  0.7266
  765MOL0     H  966   6.572   9.469  10.420  0.3896 -0.7638  0.6328
  765MOL0     H  967   6.689   9.297  10.563 -1.0628  0.5014  0.5813
  765MOL0     H  968   6.823   8.967  10.725 -1.2481  0.6055  2.3089
  765MOL0     H  969   6.790   8.762  10.886  3.1474  0.3207  1.2478
  765MOL0     H  970   6.875   8.365  10.697 -2.8621 -1.7085 -1.6053
  765MOL0     H  971   6.707   8.386  10.753  0.0996  1.3574 -3.0152
  765MOL0     H  972   6.949   8.311  10.931 -0.4429  0.0481  1.3759
  765MOL0     H  973   6.777   8.335  10.973 -0.5324 -0.7536  1.1260
  765MOL0     H  974   6.889   8.098  10.816  1.1190  1.7402 -0.6566
  765MOL0     H  975   6.731   8.156  10.792  1.6409  1.9190 -1.0203
  765MOL0     H  976   6.688   8.148  11.045 -0.4437  1.0695  0.3170
  765MOL0     H  977   6.722   7.986  10.983  1.1698  0.3246 -1.9630
  765MOL0     H  978   7.081   8.085  11.193  0.0936  1.2905  0.3130
  765MOL0     H  979   6.876   8.518  10.550  4.4937 -0.0308  0.8098
  765MOL0     H  980   6.826   8.717  10.399  2.9635  3.0072 -1.2066
  766MOL0     O  981   5.065   8.136  10.536  0.5331 -0.1757 -0.2290
  766MOL0     C  982   5.098   8.195  10.428  0.0234 -0.3375  0.5297
  766MOL0     O  983   5.093   8.334  10.407 -0.0810  1.1948  0.5468
  766MOL0     C  984   5.026   8.429  10.473 -0.1652  0.3226 -0.6920
  766MOL0     C  985   4.903   8.400  10.523 -0.5859  0.1881  0.4222
  766MOL0     C  986   4.834   8.495  10.593  0.3449 -0.0663  0.4172
  766MOL0     C  987   4.883   8.626  10.614 -0.6210 -0.4727 -0.0969
  766MOL0     O  988   4.816   8.713  10.697 -1.2574 -0.3916 -0.7776
  766MOL0     C  989   4.797   8.665  10.826  0.3924  0.3147  0.7870
  766MOL0     C  990   4.794   8.788  10.918 -0.2509 -0.2890 -0.3560
  766MOL0     C  991   4.686   8.896  10.891 -0.4407 -0.5654 -0.7953
  766MOL0     C  992   4.742   9.041  10.902  0.0175 -0.0900 -0.6260
  766MOL0     C  993   4.664   9.145  10.826 -0.1800 -0.1742  1.3199
  766MOL0     C  994   4.527   9.157  10.893  0.0367 -0.1299  0.0792
  766MOL0     C  995   4.438   9.268  10.838 -0.6025  0.4599  0.4963
  766MOL0     C  996   4.328   9.320  10.933  0.2818 -1.0868 -0.1214
  766MOL0     N  997   4.218   9.219  10.941 -0.4763  0.5371  0.8310
  766MOL0     C  998   4.149   9.198  11.058  0.4140  0.1198  0.3153
  766MOL0     C  999   4.047   9.106  11.020  0.0847 -0.3988 -0.3451
  766MOL0     C 1000   3.939   9.028  11.091 -0.0125  0.1416  0.2926
  766MOL0     C 1001   3.809   9.040  11.018 -0.0048 -1.0420 -0.2194
  766MOL0     C 1002   3.711   8.947  11.082 -0.3772 -0.2930  1.0476
  766MOL0     C 1003   3.570   8.969  11.048  0.7884 -0.0910  0.7769
  766MOL0     O 1004   3.542   8.973  10.902  0.1186  0.4089  0.1417
  766MOL0     C 1005   3.413   8.991  10.860 -0.1541 -0.1642 -0.3346
  766MOL0     C 1006   3.395   8.997  10.720  0.2954 -0.2239 -0.0364
  766MOL0     C 1007   3.270   9.016  10.668 -0.3322  0.9721  0.1367
  766MOL0     C 1008   3.152   9.034  10.747 -0.5339  0.8924 -0.9951
  766MOL0     C 1009   3.020   9.030  10.682  0.8428 -0.1084 -0.4146
  766MOL0     O 1010   3.003   9.058  10.546 -0.2003 -0.1794 -0.0135
  766MOL0     C 1011   2.881   9.055  10.489 -0.2293  0.0742  0.6732
  766MOL0     C 1012   2.795   8.953  10.505  0.9113  0.2305  0.0649
  766MOL0     C 1013   2.675   8.941  10.441 -0.3585  0.0643 -0.1326
  766MOL0     C 1014   2.629   9.048  10.356  0.2002  0.0540 -0.7029
  766MOL0     O 1015   2.506   9.031  10.298 -0.1296 -0.5617 -0.1362
  766MOL0     C 1016   2.435   9.153  10.270 -0.4969  0.3002  0.5040
  766MOL0     C 1017   2.301   9.116  10.212 -0.6069 -0.5943 -1.2339
  766MOL0     C 1018   2.220   9.005  10.284  0.8936 -0.0370  0.1278
  766MOL0     C 1019   2.180   9.051  10.422  0.3225 -0.2204 -0.0857
  766MOL0     C 1020   2.091   8.941  10.482  0.8054 -0.2477 -0.3963
  766MOL0     C 1021   1.968   9.005  10.558 -1.4507 -0.0185  0.9354
  766MOL0     C 1022   1.884   8.908  10.646  0.3593  0.5147  1.0425
  766MOL0     C 1023   1.767   8.989  10.714 -1.2421  0.3546 -0.3007
  766MOL0    Cl 1024   1.825   9.096  10.845  0.0808 -0.6956 -0.4231
  766MOL0     C 1025   2.715   9.164  10.351  0.3502 -0.9749 -0.3552
  766MOL0     C 1026   2.847   9.162  10.406 -0.0361  0.3870 -0.4596
  766MOL0     O 1027   2.931   9.009  10.766  0.1399 -1.2869  0.4590
  766MOL0     C 1028   3.174   9.047  10.893 -0.0393 -0.1026  0.5022
  766MOL0     C 1029   3.304   9.024  10.944 -0.0536  1.4847 -0.0010
  766MOL0     N 1030   4.085   9.059  10.893 -0.4088 -0.2329 -1.4266
  766MOL0     N 1031   4.184   9.137  10.841  1.0426  0.0663  0.5428
  766MOL0     C 1032   5.006   8.655  10.562  0.4568  0.3774 -0.6007
  766MOL0     C 1033   5.074   8.557  10.498 -0.5775  0.1785 -0.0798
  766MOL0     C 1034   5.128   8.114  10.308  0.5363  0.7814  0.0611
  766MOL0     C 1035   5.164   8.172  10.182 -0.0352 -0.5476 -0.0255
  766MOL0     C 1036   5.200   8.095  10.072  1.0830  0.2769  0.3415
  766MOL0     C 1037   5.198   7.956  10.077 -0.9673  0.0951  0.1331
  766MOL0     O 1038   5.242   7.881   9.971 -0.5274  0.1744  0.1238
  766MOL0     C 1039   5.184   7.926   9.843 -0.0806  0.9878 -0.6098
  766MOL0     C 1040   5.148   7.804   9.761 -0.5644  0.2378  0.8354
  766MOL0     C 1041   5.266   7.733   9.706 -0.2570 -0.1003  0.4326
  766MOL0     C 1042   5.224   7.633   9.608  0.3114  0.5471 -0.6369
  766MOL0     C 1043   5.341   7.553   9.571  0.7450  0.4676  0.5710
  766MOL0     C 1044   5.445   7.500   9.545 -0.1906 -0.9879 -0.2450
  766MOL0     C 1045   5.166   7.897  10.199 -0.3978 -0.8460 -0.1780
  766MOL0     C 1046   5.135   7.980  10.312 -0.2899  0.0393  0.0773
  766MOL0     H 1047   4.862   8.300  10.509 -0.9226 -0.0380  2.6966
  766MOL0     H 1048   4.742   8.458  10.637 -0.7848  0.4398 -1.4148
  766MOL0     H 1049   4.884   8.607  10.856  0.5589 -0.0403 -0.3261
  766MOL0     H 1050   4.707   8.602  10.828  0.1155  0.7139  2.5077
  766MOL0     H 1051   4.895   8.829  10.909  0.5886 -1.2817  3.0096
  766MOL0     H 1052   4.783   8.769  11.025 -3.3281  0.0278 -0.5310
  766MOL0     H 1053   4.603   8.887  10.962  0.3948  0.5427  0.3784
  766MOL0     H 1054   4.640   8.891  10.792 -0.8230 -0.6399 -0.6146
  766MOL0     H 1055   4.748   9.062  11.010  3.8994 -1.8059 -0.3396
  766MOL0     H 1056   4.844   9.044  10.863 -0.7982 -1.2080 -3.0287
  766MOL0     H 1057   4.644   9.111  10.724  0.2627  1.6090  0.6039
  766MOL0     H 1058   4.721   9.237  10.806  1.0405 -1.0553  0.5580
  766MOL0     H 1059   4.547   9.164  11.001 -1.0921 -0.3528  0.3076
  766MOL0     H 1060   4.467   9.070  10.864  1.8381 -0.8488 -1.7884
  766MOL0     H 1061   4.504   9.352  10.816 -0.6876  0.4294  0.1158
  766MOL0     H 1062   4.405   9.242  10.737 -0.9356 -0.5106  0.8434
  766MOL0     H 1063   4.299   9.411  10.879  0.3595 -1.7408 -1.3097
  766MOL0     H 1064   4.370   9.338  11.032  1.2986 -1.6122 -0.4435
  766MOL0     H 1065   4.162   9.244  11.155  0.7989  0.0182  0.3111
  766MOL0     H 1066   3.920   9.041  11.198  0.6546 -1.8780  0.7062
  766MOL0     H 1067   3.970   8.924  11.085 -2.3638 -0.6322  0.7878
  766MOL0     H 1068   3.822   9.004  10.916  0.1295  1.1129 -1.0052
  766MOL0     H 1069   3.766   9.140  11.018 -0.8853 -1.4077 -0.8930
  766MOL0     H 1070   3.734   8.844  11.056  1.0149 -0.2476  1.9940
  766MOL0     H 1071   3.716   8.958  11.191  0.7032  0.7971  0.9126
  766MOL0     H 1072   3.537   9.068  11.079 -0.8145 -0.7324  1.2506
  766MOL0     H 1073   3.496   8.906  11.098  0.1958  0.4827  0.6336
  766MOL0     H 1074   3.477   8.983  10.649  2.7376  3.1267  1.8600
  766MOL0     H 1075   3.254   9.013  10.561 -2.9171  0.4447  0.4877
  766MOL0     H 1076   2.838   8.870  10.561 -0.0097  0.6082  1.3701
  766MOL0     H 1077   2.623   8.846  10.447  2.1841 -1.4394  0.0209
  766MOL0     H 1078   2.486   9.212  10.193 -0.7769 -0.4689 -0.2934
  766MOL0     H 1079   2.424   9.207  10.364 -0.5189 -0.7354  1.1184
  766MOL0     H 1080   2.333   9.089  10.111  1.3522 -1.4712 -0.4374
  766MOL0     H 1081   2.234   9.201  10.196  0.1450 -0.0360 -1.5020
  766MOL0     H 1082   2.278   8.912  10.283 -1.0914 -1.3479  1.0030
  766MOL0     H 1083   2.131   8.976  10.228  0.2579 -0.8457  1.5014
  766MOL0     H 1084   2.264   9.075  10.487  0.0711  1.8179 -0.4495
  766MOL0     H 1085   2.124   9.143  10.401  0.6985 -0.2720 -1.3773
  766MOL0     H 1086   2.139   8.883  10.561  0.4201  0.8215  0.6477
  766MOL0     H 1087   2.067   8.870  10.402 -0.9514  0.6097 -0.6797
  766MOL0     H 1088   1.908   9.047  10.477  2.0640  3.2900 -0.2416
  766MOL0     H 1089   1.999   9.091  10.618  1.0505  1.1635 -1.7848
  766MOL0     H 1090   1.840   8.826  10.587  0.6513 -0.1557  1.7353
  766MOL0     H 1091   1.952   8.866  10.720 -0.7775 -1.3592  1.0951
  766MOL0     H 1092   1.690   8.920  10.748  0.3831 -1.1208  0.5506
  766MOL0     H 1093   1.718   9.052  10.639 -0.3628 -0.1629 -1.3409
  766MOL0     H 1094   2.689   9.252  10.293  2.8786 -1.1442 -1.9198
  766MOL0     H 1095   2.914   9.244  10.384 -0.0431  0.4699 -0.1816
  766MOL0     H 1096   3.102   9.084  10.966 -0.7662  0.7098 -0.5884
  766MOL0     H 1097   3.311   9.031  11.052  0.1726 -2.5182  0.3751
  766MOL0     H 1098   5.070   8.742  10.576  1.3626  0.0743 -2.4471
  766MOL0     H 1099   5.172   8.573  10.453  0.7402  1.9082  3.0429
  766MOL0     H 1100   5.168   8.280  10.172  1.2923 -0.2616  2.6867
  766MOL0     H 1101   5.252   8.147   9.993 -0.8640  1.7782 -0.0349
  766MOL0     H 1102   5.259   7.991   9.798  1.7777  1.8942  3.3943
  766MOL0     H 1103   5.093   7.985   9.855 -0.8656 -0.4338  0.9129
  766MOL0     H 1104   5.095   7.738   9.830  1.1241 -0.3762  1.5811
  766MOL0     H 1105   5.095   7.827   9.668  0.9193 -0.2421 -0.1691
  766MOL0     H 1106   5.325   7.694   9.790 -2.4886  0.7318  2.4868
  766MOL0     H 1107   5.329   7.806   9.655 -1.8074  0.2309 -1.0831
  766MOL0     H 1108   5.150   7.562   9.647  2.5206 -1.0475  0.8236
  766MOL0     H 1109   5.185   7.688   9.521  2.6629  2.5973 -0.4813
  766MOL0     H 1110   5.536   7.452   9.514  0.0821  0.5524 -1.9803
  766MOL0     H 1111   5.169   7.791  10.224 -1.7298 -0.2564  2.9281
  766MOL0     H 1112   5.093   7.925  10.395 -0.5285  1.9752  1.3065
  767MOL0     O 1113   0.901   5.447   0.448 -1.1800  0.2207  0.3580
  767MOL0     C 1114   0.889   5.514   0.544  0.1455 -1.4311 -0.9105
  767MOL0     O 1115   0.769   5.552   0.599 -0.0022  0.3022 -0.3019
  767MOL0     C 1116   0.657   5.539   0.522  1.1098 -0.1308  0.2032
  767MOL0     C 1117   0.634   5.619   0.407 -0.4476 -0.4113 -0.5628
  767MOL0     C 1118   0.519   5.599   0.330 -0.3010  0.3851 -0.9426
  767MOL0     C 1119   0.427   5.499   0.372 -0.3279 -0.5990 -1.1993
  767MOL0     O 1120   0.298   5.504   0.321 -0.0185  0.6363  0.7579
  767MOL0     C 1121   0.206   5.587   0.397 -0.3770 -0.3126 -1.2128
  767MOL0     C 1122   0.074   5.622   0.319  0.4105 -0.0004 -0.8419
  767MOL0     C 1123  -0.041   5.525   0.322  0.9143 -0.0681 -0.3149
  767MOL0     C 1124  -0.018   5.426   0.207  0.2048 -0.1691  0.0536
  767MOL0     C 1125  -0.146   5.343   0.173 -0.2154 -0.1583 -0.0810
  767MOL0     C 1126  -0.266   5.425   0.124 -0.1935  0.5157  0.1086
  767MOL0     C 1127  -0.396   5.344   0.156 -0.2005 -0.6802  0.2680
  767MOL0     C 1128  -0.439   5.362   0.305  0.1486  0.1760  0.6247
  767MOL0     N 1129  -0.563   5.291   0.338  0.1793  0.2999 -0.1621
  767MOL0     C 1130  -0.676   5.355   0.388 -0.1001 -0.1309  0.3608
  767MOL0     C 1131  -0.765   5.257   0.408 -0.4330  0.0212 -0.3113
  767MOL0     C 1132  -0.910   5.283   0.447 -0.9859  0.1973  0.8932
  767MOL0     C 1133  -0.952   5.170   0.543 -0.4877  0.5166 -0.4069
  767MOL0     C 1134  -0.862   5.153   0.669  0.1107  0.0948  0.5355
  767MOL0     C 1135  -0.886   5.257   0.786 -0.1143  0.3269 -0.2696
  767MOL0     O 1136  -0.832   5.380   0.749 -0.4075 -0.4161  0.1131
  767MOL0     C 1137  -0.858   5.491   0.830  0.0253 -2.2735  0.3737
  767MOL0     C 1138  -0.947   5.507   0.939 -0.0439 -0.6365  0.3277
  767MOL0     C 1139  -0.949   5.625   1.009 -0.0363 -0.0115 -0.1083
  767MOL0     C 1140  -0.877   5.739   0.960 -0.0740  0.9389 -1.0753
  767MOL0     C 1141  -0.894   5.874   1.021  0.0653  0.2327  0.4014
  767MOL0     O 1142  -0.857   5.988   0.950  0.0503 -0.6294 -0.4759
  767MOL0     C 1143  -0.897   6.117   0.983 -0.3329  0.3146 -0.2030
  767MOL0     C 1144  -0.893   6.170   1.108  0.7419 -0.7933 -0.0084
  767MOL0     C 1145  -0.946   6.301   1.122 -0.3309 -0.0218 -0.5816
  767MOL0     C 1146  -0.987   6.378   1.016  0.6905 -0.1170 -0.6704
  767MOL0     O 1147  -1.022   6.510   1.030  0.1548  0.7648 -0.6340
  767MOL0     C 1148  -1.016   6.572   1.159  0.8168  1.2030 -0.5117
  767MOL0     C 1149  -1.035   6.719   1.125 -0.5381 -0.4057  0.0524
  767MOL0     C 1150  -1.068   6.812   1.244  0.0024  0.5605 -0.4178
  767MOL0     C 1151  -1.209   6.807   1.299  0.0604  0.1555 -0.2133
  767MOL0     C 1152  -1.237   6.921   1.399  0.6850 -0.3685  0.1208
  767MOL0     C 1153  -1.365   6.901   1.498 -0.5103 -0.1492  1.4482
  767MOL0     C 1154  -1.491   6.896   1.406  0.3047  0.1743  0.2637
  767MOL0     C 1155  -1.508   7.018   1.320  0.0495 -1.4103  0.8139
  767MOL0    Cl 1156  -1.673   7.011   1.248 -0.2316 -0.0100 -0.1836
  767MOL0     C 1157  -0.984   6.323   0.895  1.1755 -0.0355  0.5001
  767MOL0     C 1158  -0.933   6.194   0.878 -0.2422  0.4003  0.4753
  767MOL0     O 1159  -0.963   5.878   1.120 -0.1917 -0.4754 -0.2205
  767MOL0     C 1160  -0.796   5.725   0.854 -0.3258 -0.3146 -0.2596
  767MOL0     C 1161  -0.780   5.604   0.783  0.5034  0.8247  0.4268
  767MOL0     N 1162  -0.702   5.137   0.379  0.4839 -0.2653 -0.7278
  767MOL0     N 1163  -0.586   5.157   0.325  0.6232  0.2522  0.3941
  767MOL0     C 1164   0.449   5.432   0.494  1.3959 -0.1863  0.0896
  767MOL0     C 1165   0.559   5.449   0.573 -1.1079  0.3642 -0.1574
  767MOL0     C 1166   1.011   5.555   0.617  0.1260  0.1749 -0.2833
  767MOL0     C 1167   1.139   5.510   0.588  0.8470 -0.2802 -0.0673
  767MOL0     C 1168   1.246   5.556   0.661 -0.1032 -0.4749  0.0652
  767MOL0     C 1169   1.235   5.647   0.768 -0.0769  0.1537 -0.6303
  767MOL0     O 1170   1.353   5.689   0.830  0.4167 -0.1947 -0.0530
  767MOL0     C 1171   1.338   5.782   0.937 -0.0776 -0.9444  0.0601
  767MOL0     C 1172   1.461   5.791   1.042  0.0115  0.6776  0.7370
  767MOL0     C 1173   1.588   5.833   0.970 -0.1410  0.6151 -0.1250
  767MOL0     C 1174   1.711   5.845   1.075 -0.1468 -0.1072  0.1293
  767MOL0     C 1175   1.780   5.709   1.074  0.0180  0.7821  0.2747
  767MOL0     C 1176   1.810   5.594   1.087 -0.0937  0.1165 -0.9573
  767MOL0     C 1177   1.105   5.694   0.802 -0.4976 -0.5712 -0.2106
  767MOL0     C 1178   1.002   5.642   0.728 -0.5394  0.9553 -0.2687
  767MOL0     H 1179   0.707   5.694   0.379  1.0425 -1.6915 -0.2316
  767MOL0     H 1180   0.490   5.664   0.249 -2.6396 -0.0293 -0.5101
  767MOL0     H 1181   0.253   5.684   0.415 -2.6943  1.0542 -2.1161
  767MOL0     H 1182   0.193   5.537   0.494 -0.2158 -0.6324 -1.3553
  767MOL0     H 1183   0.103   5.662   0.221  0.2516 -0.3470 -1.0305
  767MOL0     H 1184   0.038   5.710   0.373 -1.6513 -2.1110  1.4686
  767MOL0     H 1185  -0.129   5.586   0.302  0.9842 -0.3885 -1.7006
  767MOL0     H 1186  -0.048   5.463   0.411  0.9928  0.7921  0.3086
  767MOL0     H 1187   0.020   5.479   0.119  0.6643 -2.3026 -1.0893
  767MOL0     H 1188   0.056   5.350   0.233 -0.3551 -0.5746  0.4749
  767MOL0     H 1189  -0.164   5.273   0.255 -0.6011  0.7805  0.6563
  767MOL0     H 1190  -0.120   5.284   0.085  3.1299  2.1002 -0.8242
  767MOL0     H 1191  -0.264   5.441   0.016 -1.2275  1.9087  0.2658
  767MOL0     H 1192  -0.273   5.520   0.179  0.6106 -0.4240  1.9660
  767MOL0     H 1193  -0.468   5.393   0.090  0.4089 -0.8263 -0.5121
  767MOL0     H 1194  -0.379   5.238   0.133 -2.9228 -0.4577 -3.7045
  767MOL0     H 1195  -0.471   5.467   0.313 -0.8842 -0.1483  0.8356
  767MOL0     H 1196  -0.355   5.327   0.365  1.9562  0.7950 -1.3995
  767MOL0     H 1197  -0.687   5.462   0.395 -2.9819 -0.3556  0.3129
  767MOL0     H 1198  -0.972   5.302   0.359  3.3622  1.6152 -2.2136
  767MOL0     H 1199  -0.915   5.377   0.503 -1.1358  0.1050  1.0358
  767MOL0     H 1200  -0.946   5.078   0.484 -2.1974 -1.2174  1.9519
  767MOL0     H 1201  -1.059   5.174   0.566 -0.7697  0.8610 -1.6822
  767MOL0     H 1202  -0.879   5.053   0.709 -0.1972 -0.0008  0.1802
  767MOL0     H 1203  -0.759   5.158   0.633 -0.2253  0.5547 -0.4309
  767MOL0     H 1204  -0.852   5.227   0.885 -0.0399  1.0085 -0.0852
  767MOL0     H 1205  -0.995   5.268   0.785 -0.0320  1.1896 -0.0873
  767MOL0     H 1206  -1.014   5.434   0.982 -0.9866  0.0335  0.0233
  767MOL0     H 1207  -1.015   5.620   1.095 -0.2434 -0.0943 -0.2727
  767MOL0     H 1208  -0.871   6.123   1.204  0.7270  0.5924  0.7016
  767MOL0     H 1209  -0.931   6.337   1.223  0.1172  3.1572 -1.6614
  767MOL0     H 1210  -0.921   6.546   1.207 -0.4207  0.5455  1.6654
  767MOL0     H 1211  -1.103   6.556   1.223 -0.5632  1.7844 -2.1535
  767MOL0     H 1212  -1.115   6.723   1.051  1.0616 -0.1939 -1.7646
  767MOL0     H 1213  -0.948   6.757   1.070 -0.9323 -0.3938 -0.5738
  767MOL0     H 1214  -1.045   6.911   1.205  1.4976  1.0989  1.6197
  767MOL0     H 1215  -1.004   6.792   1.331  0.9849  0.3852 -1.1687
  767MOL0     H 1216  -1.280   6.803   1.216  0.0225  1.2332 -0.2449
  767MOL0     H 1217  -1.220   6.716   1.359  2.1223  2.7713  4.7919
  767MOL0     H 1218  -1.245   7.012   1.338  0.3935  1.0035  2.1148
  767MOL0     H 1219  -1.154   6.923   1.470 -1.6453  0.6663  3.0232
  767MOL0     H 1220  -1.359   6.981   1.571  1.9496  1.8500 -0.7499
  767MOL0     H 1221  -1.353   6.800   1.538  2.7481  0.1529  1.5174
  767MOL0     H 1222  -1.489   6.809   1.341  1.5972 -0.5359  1.2098
  767MOL0     H 1223  -1.575   6.888   1.477 -0.9110 -0.3930 -1.1910
  767MOL0     H 1224  -1.441   7.013   1.234  0.9357 -2.2068  1.5304
  767MOL0     H 1225  -1.484   7.111   1.372 -0.2044  2.1858 -4.6600
  767MOL0     H 1226  -1.021   6.386   0.815  2.6134 -0.8327 -0.8339
  767MOL0     H 1227  -0.952   6.130   0.792  0.4055 -0.8065  1.2058
  767MOL0     H 1228  -0.742   5.809   0.811  1.7518 -1.8176 -0.7060
  767MOL0     H 1229  -0.725   5.596   0.690  1.3145 -0.3018  0.9903
  767MOL0     H 1230   0.360   5.379   0.525  0.7707  2.6498  3.8808
  767MOL0     H 1231   0.586   5.385   0.657 -0.5403 -0.1560 -0.7264
  767MOL0     H 1232   1.151   5.430   0.516 -0.5407 -0.4916 -0.0922
  767MOL0     H 1233   1.347   5.526   0.634 -0.4656 -1.0191 -0.7207
  767MOL0     H 1234   1.256   5.754   1.004 -1.8099  0.3876 -1.4098
  767MOL0     H 1235   1.321   5.877   0.886 -3.5068 -1.4006  0.1331
  767MOL0     H 1236   1.424   5.852   1.125 -1.6706  0.9496 -0.1701
  767MOL0     H 1237   1.488   5.692   1.082  2.8199  1.3152  0.6052
  767MOL0     H 1238   1.572   5.934   0.931 -1.9092  0.6971  0.7090
  767MOL0     H 1239   1.621   5.757   0.900  0.0497  0.4733  0.1181
  767MOL0     H 1240   1.771   5.921   1.025 -1.1162  1.0647  0.7024
  767MOL0     H 1241   1.680   5.879   1.174  0.6801  2.6857 -0.4769
  767MOL0     H 1242   1.835   5.495   1.057 -0.4053  0.0273 -0.9284
  767MOL0     H 1243   1.091   5.753   0.892 -2.8464 -0.5526 -0.5213
  767MOL0     H 1244   0.902   5.663   0.766 -0.6960  0.4469 -0.3931
  768MOL0     O 1245   1.825   3.302   7.876 -0.2016  0.0796 -0.3606
  768MOL0     C 1246   1.794   3.410   7.825  0.3495 -0.0577  0.4648
  768MOL0     O 1247   1.660   3.465   7.831  0.1998 -0.2875  0.0557
  768MOL0     C 1248   1.544   3.393   7.846 -0.0997  0.3003 -0.1163
  768MOL0     C 1249   1.430   3.428   7.773  0.1383 -1.1405 -0.1690
  768MOL0     C 1250   1.298   3.368   7.804 -0.9481  0.2812 -0.3910
  768MOL0     C 1251   1.300   3.266   7.904 -0.5792 -0.5947  0.0701
  768MOL0     O 1252   1.178   3.228   7.948 -0.0283  0.4295 -0.3874
  768MOL0     C 1253   1.097   3.171   7.838  0.1155  0.0956 -0.6212
  768MOL0     C 1254   0.956   3.236   7.842 -0.4989  0.0591 -0.1287
  768MOL0     C 1255   0.867   3.183   7.733 -0.0166 -0.0140 -0.3275
  768MOL0     C 1256   0.719   3.237   7.747 -0.9174 -1.7143  0.4913
  768MOL0     C 1257   0.598   3.167   7.676  0.0664  0.1228 -0.4478
  768MOL0     C 1258   0.596   3.170   7.526  0.6252 -0.6641 -0.1813
  768MOL0     C 1259   0.475   3.113   7.463  0.1125  0.4697  0.5500
  768MOL0     C 1260   0.466   3.154   7.317  0.3828 -0.3040  0.3302
  768MOL0     N 1261   0.348   3.086   7.267  0.7804  0.4840 -0.4004
  768MOL0     C 1262   0.325   2.949   7.242  0.1494 -0.1641 -0.3653
  768MOL0     C 1263   0.196   2.943   7.198  0.4182  0.3295 -0.4118
  768MOL0     C 1264   0.120   2.816   7.163 -0.2391  0.2177 -0.8391
  768MOL0     C 1265   0.038   2.764   7.285  0.3984  1.1052 -0.8139
  768MOL0     C 1266  -0.030   2.629   7.262  0.0946 -0.0485  0.3618
  768MOL0     C 1267  -0.094   2.589   7.390  0.6738 -1.1686  0.3143
  768MOL0     O 1268  -0.116   2.452   7.380 -0.3240 -0.2082  0.0005
  768MOL0     C 1269  -0.226   2.402   7.323  0.5585  0.8290 -0.3565
  768MOL0     C 1270  -0.218   2.277   7.262  0.1421 -0.3677 -0.6231
  768MOL0     C 1271  -0.323   2.212   7.199  0.0161  0.4537 -0.3408
  768MOL0     C 1272  -0.450   2.270   7.209  1.0711  0.3097  0.6726
  768MOL0     C 1273  -0.560   2.203   7.144  0.2500  0.1238 -0.5540
  768MOL0     O 1274  -0.687   2.266   7.162 -0.0590  0.8609 -0.2847
  768MOL0     C 1275  -0.809   2.209   7.121 -0.6648 -0.9043  1.4095
  768MOL0     C 1276  -0.925   2.257   7.184  1.2363  0.8792  0.0612
  768MOL0     C 1277  -1.055   2.226   7.142  0.2342  0.6657 -0.2470
  768MOL0     C 1278  -1.073   2.144   7.027  0.4706  0.5137  0.4287
  768MOL0     O 1279  -1.205   2.111   6.992 -0.0842  0.1596  0.0703
  768MOL0     C 1280  -1.260   2.065   6.866 -0.1003 -1.2979 -0.5923
  768MOL0     C 1281  -1.341   2.191   6.817 -0.2952  0.5368 -0.9694
  768MOL0     C 1282  -1.413   2.167   6.687 -0.1411 -0.3871  0.1314
  768MOL0     C 1283  -1.453   2.297   6.631 -0.0066  0.3762 -0.6168
  768MOL0     C 1284  -1.515   2.280   6.494  0.0206  0.0671  0.8046
  768MOL0     C 1285  -1.638   2.200   6.478  0.1125 -0.0251 -0.0489
  768MOL0     C 1286  -1.699   2.216   6.333  0.1520 -0.3426  0.0207
  768MOL0     C 1287  -1.818   2.132   6.299 -0.2182  0.0706  0.0511
  768MOL0    Cl 1288  -1.888   2.180   6.138 -0.3218  0.3966 -0.2712
  768MOL0     C 1289  -0.962   2.101   6.962  0.2191  1.3292  0.3371
  768MOL0     C 1290  -0.829   2.138   7.002  0.5639 -0.0135  0.4703
  768MOL0     O 1291  -0.544   2.108   7.081  0.0947 -0.4826  0.3004
  768MOL0     C 1292  -0.462   2.399   7.260  0.1041  0.4381  0.7921
  768MOL0     C 1293  -0.352   2.462   7.319  0.0326 -0.2410  0.0311
  768MOL0     N 1294   0.138   3.074   7.199 -0.7645 -0.1621 -0.0981
  768MOL0     N 1295   0.230   3.151   7.242  0.0682 -0.4234 -0.4251
  768MOL0     C 1296   1.413   3.218   7.961  0.5361 -0.4575 -0.2601
  768MOL0     C 1297   1.529   3.289   7.939  0.0293 -0.7463  0.2257
  768MOL0     C 1298   1.901   3.502   7.775  0.6305  0.2802  0.3349
  768MOL0     C 1299   2.028   3.477   7.806 -1.0201 -0.4256  0.0714
  768MOL0     C 1300   2.132   3.562   7.755 -0.0276  0.6437 -0.3646
  768MOL0     C 1301   2.109   3.655   7.663 -0.5713 -0.1458  0.5330
  768MOL0     O 1302   2.222   3.716   7.616 -0.2409 -0.3855  0.5440
  768MOL0     C 1303   2.207   3.815   7.505 -1.1674  0.4775 -0.3500
  768MOL0     C 1304   2.223   3.746   7.370  0.5539 -0.2111 -0.0618
  768MOL0     C 1305   2.375   3.738   7.346  0.7805  0.5973  0.7269
  768MOL0     C 1306   2.429   3.842   7.236  0.8623 -0.6463 -0.3907
  768MOL0     C 1307   2.531   3.922   7.293 -0.0822 -0.1005  0.0618
  768MOL0     C 1308   2.636   3.970   7.324 -0.0137 -0.0592 -1.5064
  768MOL0     C 1309   1.970   3.690   7.638 -0.8889 -0.1159  1.1291
  768MOL0     C 1310   1.867   3.610   7.693 -0.7157  0.3493 -0.7385
  768MOL0     H 1311   1.438   3.505   7.698 -2.7252  1.3789  1.8913
  768MOL0     H 1312   1.209   3.407   7.757  0.1651 -0.6402 -3.4743
  768MOL0     H 1313   1.081   3.063   7.845  1.8024 -0.3809 -2.7615
  768MOL0     H 1314   1.144   3.181   7.739 -0.8168 -0.0627 -1.0911
  768MOL0     H 1315   0.974   3.344   7.839 -3.5523  0.6726  0.5257
  768MOL0     H 1316   0.911   3.205   7.936  1.3044 -0.6983  0.5347
  768MOL0     H 1317   0.871   3.074   7.737  1.0275  0.0374  1.8600
  768MOL0     H 1318   0.901   3.201   7.631 -0.5523  1.9038 -0.1999
  768MOL0     H 1319   0.696   3.236   7.854 -0.2523 -1.5107  0.6351
  768MOL0     H 1320   0.717   3.340   7.710 -1.6092 -0.9000  2.6562
  768MOL0     H 1321   0.508   3.215   7.717  0.4211 -0.3838  0.9895
  768MOL0     H 1322   0.584   3.064   7.710 -0.1764 -0.6866 -2.8497
  768MOL0     H 1323   0.684   3.141   7.469 -2.2107 -0.6513 -5.1635
  768MOL0     H 1324   0.595   3.275   7.494 -0.3150 -0.7027 -0.3318
  768MOL0     H 1325   0.494   3.005   7.456 -1.5442  0.2599 -1.8252
  768MOL0     H 1326   0.381   3.121   7.519 -0.0679 -1.3004  0.5726
  768MOL0     H 1327   0.556   3.121   7.263  1.0430 -0.3453  1.4261
  768MOL0     H 1328   0.462   3.263   7.305  1.9032 -0.4480 -2.3296
  768MOL0     H 1329   0.387   2.862   7.262 -0.6529 -0.4767  0.8705
  768MOL0     H 1330   0.187   2.733   7.137 -1.7467 -1.6289  0.9069
  768MOL0     H 1331   0.060   2.838   7.075 -1.9240  0.1836  0.2656
  768MOL0     H 1332  -0.042   2.831   7.316  0.5466  0.2840  1.5538
  768MOL0     H 1333   0.116   2.767   7.362  3.5068 -0.2553 -3.6290
  768MOL0     H 1334  -0.096   2.633   7.175 -0.1613  0.5840  0.5801
  768MOL0     H 1335   0.037   2.551   7.226 -1.7913 -0.4055 -2.7884
  768MOL0     H 1336  -0.183   2.648   7.412 -0.4039 -2.9367  0.9282
  768MOL0     H 1337  -0.025   2.599   7.474 -0.4095  1.1302  1.0173
  768MOL0     H 1338  -0.120   2.231   7.256  0.6983  0.8706 -1.4175
  768MOL0     H 1339  -0.309   2.108   7.170 -1.6614 -0.1864  0.9048
  768MOL0     H 1340  -0.914   2.314   7.276 -1.4446 -2.2783  2.6526
  768MOL0     H 1341  -1.142   2.246   7.203  0.7329 -3.1260  2.0002
  768MOL0     H 1342  -1.325   1.978   6.881 -0.1666 -1.0808  0.4425
  768MOL0     H 1343  -1.185   2.039   6.790  1.9964  0.6545  0.6719
  768MOL0     H 1344  -1.272   2.274   6.802  0.2433  0.1027 -0.9454
  768MOL0     H 1345  -1.424   2.213   6.884 -1.9159 -0.9938 -2.3392
  768MOL0     H 1346  -1.499   2.100   6.690 -1.9386  1.6630 -1.8911
  768MOL0     H 1347  -1.344   2.124   6.614 -1.5195  0.7460 -1.9685
  768MOL0     H 1348  -1.532   2.332   6.698  0.5350  1.0576 -0.3258
  768MOL0     H 1349  -1.368   2.366   6.634 -0.8358  1.4397  3.0368
  768MOL0     H 1350  -1.435   2.242   6.430  0.9188  3.2824 -0.1917
  768MOL0     H 1351  -1.537   2.381   6.457  0.9935  0.8250  2.1669
  768MOL0     H 1352  -1.716   2.245   6.540  0.8239 -0.3856  1.1313
  768MOL0     H 1353  -1.628   2.095   6.507 -0.3465 -0.3698 -1.0897
  768MOL0     H 1354  -1.723   2.320   6.309  0.7869 -0.7388 -2.6336
  768MOL0     H 1355  -1.614   2.181   6.274  0.5281  2.1697 -1.0837
  768MOL0     H 1356  -1.883   2.145   6.387 -1.7906 -0.6686 -0.9600
  768MOL0     H 1357  -1.784   2.029   6.301 -1.5789 -0.3921  1.7364
  768MOL0     H 1358  -0.967   2.054   6.864  1.9225  0.0686  0.8034
  768MOL0     H 1359  -0.751   2.115   6.930  1.7605  3.3758  0.4955
  768MOL0     H 1360  -0.556   2.454   7.266 -0.5621 -0.7023  1.0729
  768MOL0     H 1361  -0.372   2.561   7.361  0.4394  0.0617 -0.4916
  768MOL0     H 1362   1.417   3.135   8.030  2.3445 -0.1238  0.0717
  768MOL0     H 1363   1.609   3.262   8.006  2.4117  0.5176 -1.9614
  768MOL0     H 1364   2.059   3.395   7.870 -0.5604  0.4440  0.9970
  768MOL0     H 1365   2.231   3.541   7.793  0.2684  4.0508  1.1234
  768MOL0     H 1366   2.288   3.889   7.513  1.8449 -2.5569 -0.5592
  768MOL0     H 1367   2.108   3.860   7.499 -2.1373 -1.5624 -0.2161
  768MOL0     H 1368   2.176   3.647   7.367 -3.4731  1.5028  0.4122
  768MOL0     H 1369   2.173   3.800   7.290 -0.9301  1.5256  1.9174
  768MOL0     H 1370   2.387   3.634   7.317 -3.3655  0.7800 -2.6103
  768MOL0     H 1371   2.431   3.767   7.435 -0.5577  3.0344  0.8774
  768MOL0     H 1372   2.463   3.796   7.142  1.7208  1.2288 -1.0541
  768MOL0     H 1373   2.340   3.899   7.209 -1.0662 -3.3048 -0.0419
  768MOL0     H 1374   2.725   4.025   7.349 -0.6671  0.0116  0.9044
  768MOL0     H 1375   1.950   3.773   7.571  1.1517 -0.3349  0.1918
  768MOL0     H 1376   1.762   3.632   7.675 -0.8053 -1.5922 -3.1221
  769MOL0     O 1377   7.678   6.083   5.435 -0.3658  0.0562  0.7418
  769MOL0     C 1378   7.732   6.160   5.356 -0.4306 -0.3606  0.3152
  769MOL0     O 1379   7.704   6.292   5.348  0.3043  0.0301  0.2898
  769MOL0     C 1380   7.616   6.335   5.449  0.4242 -0.3117  0.4272
  769MOL0     C 1381   7.663   6.335   5.584  0.1987  0.0111 -0.9027
  769MOL0     C 1382   7.578   6.380   5.685 -0.1286  0.0279  0.5393
  769MOL0     C 1383   7.441   6.417   5.664  0.5692  0.1214 -0.0543
  769MOL0     O 1384   7.361   6.475   5.759  0.0197 -0.1649  0.3183
  769MOL0     C 1385   7.288   6.379   5.836  0.4291 -0.8409 -0.3925
  769MOL0     C 1386   7.196   6.464   5.935 -0.0294  0.0722  0.4987
  769MOL0     C 1387   7.264   6.546   6.039  0.0284 -1.0981  0.5966
  769MOL0     C 1388   7.381   6.482   6.119 -0.3253 -0.0971 -1.1595
  769MOL0     C 1389   7.407   6.550   6.263  0.2381  0.6003  0.4279
  769MOL0     C 1390   7.481   6.689   6.241 -0.4217 -0.2696 -0.4305
  769MOL0     C 1391   7.507   6.752   6.382  0.0369  0.2812  0.1376
  769MOL0     C 1392   7.574   6.893   6.357  0.3986  0.3071 -0.1871
  769MOL0     N 1393   7.561   6.958   6.488 -0.1520  0.2826 -0.4086
  769MOL0     C 1394   7.640   6.939   6.601  0.1703  0.2129  1.0165
  769MOL0     C 1395   7.569   6.982   6.700 -0.5612  0.5278  0.4782
  769MOL0     C 1396   7.629   6.969   6.841  0.4850  1.2322 -0.6738
  769MOL0     C 1397   7.678   7.113   6.897 -0.5460 -0.5837  0.2768
  769MOL0     C 1398   7.736   7.110   7.043 -0.8014  0.1801  0.0916
  769MOL0     C 1399   7.834   7.007   7.083 -0.4087  1.2843 -0.6960
  769MOL0     O 1400   7.947   7.011   6.996 -0.6458 -0.1411  0.2490
  769MOL0     C 1401   8.050   6.926   7.028 -0.7001  0.3929 -0.0432
  769MOL0     C 1402   8.057   6.856   7.153 -0.3850  0.0837  0.8417
  769MOL0     C 1403   8.177   6.788   7.198  1.2584 -0.4426  0.1971
  769MOL0     C 1404   8.285   6.776   7.106  0.1580  0.4233 -0.7723
  769MOL0     C 1405   8.420   6.720   7.153 -1.2880 -0.1050 -0.1670
  769MOL0     O 1406   8.431   6.680   7.280 -0.1414  0.0502  0.5554
  769MOL0     C 1407   8.547   6.632   7.340 -0.4572  0.3185 -0.7297
  769MOL0     C 1408   8.574   6.669   7.473 -0.6517  0.0467 -0.0619
  769MOL0     C 1409   8.685   6.621   7.540 -0.4238 -0.8304 -0.6986
  769MOL0     C 1410   8.769   6.540   7.475  0.4091 -0.8805  0.1549
  769MOL0     O 1411   8.882   6.521   7.538  0.6359 -0.0774 -0.3882
  769MOL0     C 1412   8.992   6.435   7.502  0.3362  0.6414  0.7562
  769MOL0     C 1413   9.088   6.432   7.616 -0.1611  0.2345 -0.9841
  769MOL0     C 1414   9.222   6.367   7.583 -0.1644  1.0629  0.0925
  769MOL0     C 1415   9.329   6.378   7.690 -1.0014 -0.5216  0.3620
  769MOL0     C 1416   9.471   6.308   7.664  0.1341 -0.0343  0.1189
  769MOL0     C 1417   9.507   6.327   7.513  0.7486 -0.3040 -0.2051
  769MOL0     C 1418   9.660   6.310   7.494  0.1385  0.2831 -0.3269
  769MOL0     C 1419   9.682   6.166   7.454 -0.1271 -0.2447  0.7643
  769MOL0    Cl 1420   9.618   6.138   7.296 -0.0099 -0.5227 -0.0718
  769MOL0     C 1421   8.741   6.496   7.346  0.3710 -0.5943  0.7720
  769MOL0     C 1422   8.622   6.533   7.286 -1.1920  0.1770  0.6194
  769MOL0     O 1423   8.521   6.740   7.080 -0.3397 -1.1961 -0.4157
  769MOL0     C 1424   8.274   6.832   6.977 -0.0766  0.2191  0.6305
  769MOL0     C 1425   8.164   6.910   6.944  0.3899  0.9192 -0.0756
  769MOL0     N 1426   7.446   7.017   6.658  0.2767 -1.3507 -0.2304
  769MOL0     N 1427   7.443   7.007   6.532  0.0573  0.6877  0.2043
  769MOL0     C 1428   7.394   6.395   5.532 -0.8070 -0.5648 -0.4510
  769MOL0     C 1429   7.480   6.355   5.423  0.1693  0.0831  0.3941
  769MOL0     C 1430   7.836   6.107   5.268  0.2862  0.7875 -0.2099
  769MOL0     C 1431   7.917   6.202   5.201 -0.7872  0.1926 -1.0855
  769MOL0     C 1432   8.007   6.143   5.110 -1.0333  0.5947  0.3325
  769MOL0     C 1433   8.023   6.008   5.096  0.0025  0.3313  0.0236
  769MOL0     O 1434   8.119   5.943   5.021 -0.0046  0.4054 -0.5646
  769MOL0     C 1435   8.241   6.012   5.001 -0.4167  0.0554  0.5557
  769MOL0     C 1436   8.235   6.117   4.880 -0.2230 -0.8068 -0.8524
  769MOL0     C 1437   8.245   6.046   4.746  0.3222 -0.4210  0.3153
  769MOL0     C 1438   8.232   6.158   4.639 -0.1696  0.4253 -0.6110
  769MOL0     C 1439   8.364   6.218   4.621 -0.3547 -0.5720  0.1981
  769MOL0     C 1440   8.470   6.276   4.606 -0.0952  0.3901  0.2055
  769MOL0     C 1441   7.936   5.921   5.167  0.1239 -0.5210 -0.1645
  769MOL0     C 1442   7.842   5.974   5.243  0.3686  0.7580 -0.6855
  769MOL0     H 1443   7.766   6.313   5.609  0.6955  3.1437  0.3115
  769MOL0     H 1444   7.609   6.398   5.788  0.7009 -2.1627  0.7186
  769MOL0     H 1445   7.367   6.315   5.875  0.4226 -1.3877 -1.2579
  769MOL0     H 1446   7.229   6.320   5.765 -0.5759 -0.0649 -0.2232
  769MOL0     H 1447   7.128   6.394   5.986 -1.1266  1.1405  0.5507
  769MOL0     H 1448   7.135   6.521   5.864  1.2550  1.5745  0.5529
  769MOL0     H 1449   7.187   6.572   6.112 -1.4310  1.8262 -1.7263
  769MOL0     H 1450   7.300   6.638   5.992 -0.9420 -0.3931  1.2077
  769MOL0     H 1451   7.362   6.376   6.139  2.3904 -0.4686 -0.0953
  769MOL0     H 1452   7.474   6.479   6.063 -0.8360 -2.9839 -2.0206
  769MOL0     H 1453   7.468   6.488   6.329  0.4450 -0.9297 -1.1488
  769MOL0     H 1454   7.312   6.553   6.318 -0.5887 -1.2493 -0.8231
  769MOL0     H 1455   7.404   6.748   6.191 -0.5989 -1.4662 -1.6183
  769MOL0     H 1456   7.578   6.683   6.191 -0.4288  2.8868 -1.0088
  769MOL0     H 1457   7.420   6.757   6.448  0.6982 -0.8712  1.1439
  769MOL0     H 1458   7.576   6.683   6.432 -0.2323  1.5023  2.3415
  769MOL0     H 1459   7.518   6.949   6.282  0.2649  0.1617 -0.1958
  769MOL0     H 1460   7.674   6.888   6.312  0.0453  0.1232 -0.9844
  769MOL0     H 1461   7.738   6.894   6.593 -0.1695 -0.2084 -2.2079
  769MOL0     H 1462   7.709   6.895   6.839 -0.9517 -0.3896 -0.0757
  769MOL0     H 1463   7.545   6.926   6.897  1.1088  0.6681 -0.1493
  769MOL0     H 1464   7.601   7.191   6.903 -1.6367 -1.5367 -0.7538
  769MOL0     H 1465   7.747   7.153   6.822 -1.5095 -0.7320 -0.7079
  769MOL0     H 1466   7.781   7.208   7.064 -1.5263  0.7236 -0.7867
  769MOL0     H 1467   7.646   7.106   7.105 -1.7253  2.3526 -0.9789
  769MOL0     H 1468   7.775   6.916   7.095 -0.9175  1.7971  1.1393
  769MOL0     H 1469   7.854   7.032   7.188 -1.0011 -0.5888 -0.0900
  769MOL0     H 1470   7.974   6.856   7.224 -0.1700 -1.8301  1.1649
  769MOL0     H 1471   8.191   6.750   7.299  1.6165  0.7176  0.5995
  769MOL0     H 1472   8.510   6.754   7.493 -0.2380  0.4266 -0.3313
  769MOL0     H 1473   8.719   6.653   7.638 -1.5430  0.2796 -0.6436
  769MOL0     H 1474   9.037   6.482   7.414 -1.0098 -0.7925 -0.7638
  769MOL0     H 1475   8.950   6.338   7.476 -2.8053  2.8425 -4.0112
  769MOL0     H 1476   9.041   6.386   7.703 -0.5617  2.2262 -0.1001
  769MOL0     H 1477   9.117   6.532   7.650  1.7219 -0.0985 -1.4975
  769MOL0     H 1478   9.260   6.411   7.491 -0.1307  1.5283  0.3285
  769MOL0     H 1479   9.207   6.260   7.563  2.2620  0.8863 -1.0955
  769MOL0     H 1480   9.351   6.485   7.685 -5.3960  0.5119 -2.0674
  769MOL0     H 1481   9.291   6.342   7.786 -1.2206 -1.5283 -0.0881
  769MOL0     H 1482   9.471   6.201   7.687  0.2131  0.7156  4.7893
  769MOL0     H 1483   9.549   6.344   7.733  1.1283  0.1357 -1.0644
  769MOL0     H 1484   9.485   6.432   7.491  0.1065 -0.3049  0.4151
  769MOL0     H 1485   9.443   6.271   7.444 -0.5290 -2.1130  2.2626
  769MOL0     H 1486   9.706   6.370   7.415  4.8416 -1.0303  1.1108
  769MOL0     H 1487   9.713   6.346   7.582 -1.4866  1.8763  0.0590
  769MOL0     H 1488   9.635   6.093   7.520  0.5730 -1.7814 -0.3934
  769MOL0     H 1489   9.784   6.128   7.448 -0.4086 -1.0552  0.9775
  769MOL0     H 1490   8.800   6.424   7.289 -0.6216  0.2264 -1.4109
  769MOL0     H 1491   8.575   6.485   7.200 -1.7639  0.1776  0.9230
  769MOL0     H 1492   8.347   6.804   6.901 -0.6541 -0.2719  0.2448
  769MOL0     H 1493   8.161   6.955   6.845 -0.7726  0.3930 -0.3062
  769MOL0     H 1494   7.288   6.406   5.509 -0.3310 -0.2673 -2.6695
  769MOL0     H 1495   7.435   6.335   5.326  1.0469  0.4766 -0.1052
  769MOL0     H 1496   7.905   6.305   5.234  1.4741  0.3615 -0.6519
  769MOL0     H 1497   8.064   6.222   5.063  0.2757  1.1277  2.6446
  769MOL0     H 1498   8.318   5.935   4.992 -1.4219 -0.7195 -3.2492
  769MOL0     H 1499   8.267   6.075   5.086 -0.5752  2.4921 -1.0894
  769MOL0     H 1500   8.148   6.183   4.875  1.1451  1.1550  0.1260
  769MOL0     H 1501   8.315   6.190   4.892 -0.0313 -0.6363 -2.8544
  769MOL0     H 1502   8.163   5.975   4.729  0.8968 -1.3729  1.3756
  769MOL0     H 1503   8.338   5.989   4.736  0.6277 -0.3946  2.4114
  769MOL0     H 1504   8.214   6.102   4.547 -1.2434 -0.9515  0.3875
  769MOL0     H 1505   8.159   6.236   4.662  1.9533  1.7151  2.3970
  769MOL0     H 1506   8.555   6.339   4.591 -1.0262  1.0508 -2.9449
  769MOL0     H 1507   7.947   5.814   5.152 -1.4774 -0.5273 -1.6727
  769MOL0     H 1508   7.780   5.897   5.289  0.7096  1.1708  0.5027
  770MOL0     O 1509   6.230   0.107   3.386 -0.1225  0.9631 -0.1514
  770MOL0     C 1510   6.164   0.208   3.416 -1.4485 -0.5908  0.5882
  770MOL0     O 1511   6.029   0.220   3.452 -0.3379 -0.1814 -0.0433
  770MOL0     C 1512   5.967   0.095   3.459 -0.6516 -1.1829 -0.1945
  770MOL0     C 1513   5.972   0.014   3.580 -0.5616 -0.2535 -0.2819
  770MOL0     C 1514   5.911  -0.100   3.585 -0.1963  0.4201  0.5221
  770MOL0     C 1515   5.853  -0.154   3.469 -0.2439  1.2553  0.8782
  770MOL0     O 1516   5.820  -0.287   3.457 -0.0675  0.5552  1.2615
  770MOL0     C 1517   5.868  -0.378   3.543 -0.6847 -1.4931 -0.0271
  770MOL0     C 1518   5.775  -0.502   3.535 -0.6789  0.0946  0.6992
  770MOL0     C 1519   5.752  -0.558   3.391 -0.4945 -0.8526 -0.4447
  770MOL0     C 1520   5.669  -0.685   3.386 -0.7383  0.6277 -0.3590
  770MOL0     C 1521   5.532  -0.666   3.459 -0.0233  1.0642  0.8216
  770MOL0     C 1522   5.430  -0.766   3.403  0.7478  0.1112 -0.6949
  770MOL0     C 1523   5.308  -0.781   3.495  0.1888  0.6633  0.4504
  770MOL0     C 1524   5.192  -0.844   3.419 -0.4171  0.3469  0.2639
  770MOL0     N 1525   5.230  -0.969   3.352  0.3667 -0.0492  0.4257
  770MOL0     C 1526   5.209  -0.975   3.215 -0.7333  0.1643  0.5234
  770MOL0     C 1527   5.233  -1.102   3.179 -0.1998  0.7286 -0.3410
  770MOL0     C 1528   5.204  -1.165   3.051 -0.8926  0.4002  0.9911
  770MOL0     C 1529   5.073  -1.237   3.026  0.1597 -0.4862 -0.5572
  770MOL0     C 1530   5.086  -1.324   2.908 -0.2920  1.0435 -0.5435
  770MOL0     C 1531   4.957  -1.405   2.894  0.2668  0.7810 -0.6970
  770MOL0     O 1532   4.983  -1.509   2.799 -0.4427 -0.2452  0.0187
  770MOL0     C 1533   4.922  -1.637   2.815  0.1838 -1.0644 -0.6801
  770MOL0     C 1534   4.821  -1.669   2.910  0.0381 -0.0461  0.0123
  770MOL0     C 1535   4.759  -1.793   2.918 -0.6985 -0.3135 -0.3196
  770MOL0     C 1536   4.801  -1.890   2.832  0.2938  0.0596  0.7144
  770MOL0     C 1537   4.725  -2.025   2.831 -0.1070 -0.1230 -0.2463
  770MOL0     O 1538   4.791  -2.138   2.793  0.5068  1.0852 -0.0961
  770MOL0     C 1539   4.719  -2.260   2.787  0.1602  0.3719 -0.6021
  770MOL0     C 1540   4.795  -2.369   2.828  0.6712 -0.3878  0.6075
  770MOL0     C 1541   4.738  -2.497   2.841 -0.2759  0.1333 -0.5918
  770MOL0     C 1542   4.610  -2.521   2.795 -0.4330  0.3383  0.4388
  770MOL0     O 1543   4.553  -2.646   2.780 -0.3073 -0.7338 -0.2486
  770MOL0     C 1544   4.617  -2.760   2.848  0.0185  0.1887 -0.0486
  770MOL0     C 1545   4.533  -2.877   2.814 -0.3491  0.0377  0.2479
  770MOL0     C 1546   4.563  -2.994   2.905  0.6693  0.1414 -1.0409
  770MOL0     C 1547   4.475  -3.117   2.883  0.1752  0.2908  1.0467
  770MOL0     C 1548   4.522  -3.241   2.957  0.5134 -0.1266 -0.5789
  770MOL0     C 1549   4.494  -3.232   3.109  0.3879  0.1933  0.3344
  770MOL0     C 1550   4.551  -3.362   3.176 -0.0002  0.2294 -0.3216
  770MOL0     C 1551   4.522  -3.376   3.319  0.2429 -0.0729  0.3835
  770MOL0    Cl 1552   4.351  -3.406   3.345  0.4706  0.1788  0.1103
  770MOL0     C 1553   4.531  -2.413   2.752 -0.5322  0.2807  0.0881
  770MOL0     C 1554   4.587  -2.282   2.747 -0.1126  0.0361 -0.7103
  770MOL0     O 1555   4.614  -2.028   2.890  0.4358  0.3884 -0.6825
  770MOL0     C 1556   4.906  -1.869   2.736  0.6720  0.1694  0.3328
  770MOL0     C 1557   4.965  -1.745   2.730  0.0291  0.0282  0.1119
  770MOL0     N 1558   5.276  -1.172   3.293  0.8867 -0.4160  0.3826
  770MOL0     N 1559   5.264  -1.091   3.404 -0.2741 -0.8456  0.6144
  770MOL0     C 1560   5.843  -0.079   3.353  0.4203 -0.5101 -0.1394
  770MOL0     C 1561   5.898   0.047   3.349  0.2251  0.5771 -0.2147
  770MOL0     C 1562   6.239   0.333   3.389 -0.4626  0.2689  0.8676
  770MOL0     C 1563   6.192   0.460   3.427  1.2799  0.2375  0.6260
  770MOL0     C 1564   6.269   0.581   3.418 -0.3567  0.1635  1.3001
  770MOL0     C 1565   6.393   0.566   3.358  0.5431  0.5464  0.1954
  770MOL0     O 1566   6.475   0.674   3.347 -0.6005 -0.9382  0.2733
  770MOL0     C 1567   6.467   0.732   3.209  0.1543  0.1041 -0.8697
  770MOL0     C 1568   6.514   0.882   3.211  0.1785 -0.1489  0.3067
  770MOL0     C 1569   6.522   0.965   3.081  0.2198 -0.9622  0.2974
  770MOL0     C 1570   6.636   1.066   3.076 -1.7027 -0.4963 -0.7008
  770MOL0     C 1571   6.668   1.120   3.211  0.5503  0.1590 -0.3358
  770MOL0     C 1572   6.684   1.142   3.329  0.1215 -0.8673 -0.0517
  770MOL0     C 1573   6.442   0.448   3.312  0.1748  0.2811 -0.2595
  770MOL0     C 1574   6.366   0.330   3.326 -0.1020 -0.2745 -0.1967
  770MOL0     H 1575   6.004   0.061   3.673  1.9467 -4.1201  1.0330
  770MOL0     H 1576   5.903  -0.156   3.677 -4.3202 -3.3140 -1.7080
  770MOL0     H 1577   5.863  -0.353   3.649 -1.9747 -2.9407  0.2743
  770MOL0     H 1578   5.970  -0.410   3.518  1.6535  4.3671  0.2798
  770MOL0     H 1579   5.679  -0.472   3.577 -2.1305 -0.2885 -2.1106
  770MOL0     H 1580   5.824  -0.575   3.599  1.4101 -1.2370 -2.1590
  770MOL0     H 1581   5.854  -0.585   3.361 -0.4226 -2.7722  1.2819
  770MOL0     H 1582   5.715  -0.479   3.325  3.3826  0.9991 -0.7052
  770MOL0     H 1583   5.649  -0.703   3.280 -0.0296  2.2575 -0.8019
  770MOL0     H 1584   5.723  -0.770   3.429  0.6475  2.3444  1.4932
  770MOL0     H 1585   5.485  -0.568   3.442 -0.6263  0.8748  1.3701
  770MOL0     H 1586   5.536  -0.679   3.567 -0.0939 -0.9911  0.6147
  770MOL0     H 1587   5.481  -0.862   3.396 -1.0450 -0.7834 -2.2751
  770MOL0     H 1588   5.396  -0.729   3.306 -2.5743  0.6544  0.5571
  770MOL0     H 1589   5.347  -0.856   3.565  0.0589 -1.1132 -1.2676
  770MOL0     H 1590   5.286  -0.688   3.548  3.0299  3.1907 -2.4069
  770MOL0     H 1591   5.156  -0.774   3.343  3.6984  1.6006 -0.7863
  770MOL0     H 1592   5.116  -0.866   3.495  0.3890 -2.9584  0.2710
  770MOL0     H 1593   5.176  -0.895   3.150  2.2290  3.0222  2.2196
  770MOL0     H 1594   5.274  -1.249   3.044  0.0087  0.9444  2.7396
  770MOL0     H 1595   5.224  -1.088   2.977  1.8200 -1.2447 -0.1439
  770MOL0     H 1596   4.997  -1.160   3.017  2.1701  1.7698  0.6960
  770MOL0     H 1597   5.045  -1.288   3.119 -0.2193  2.1903  0.9041
  770MOL0     H 1598   5.094  -1.267   2.815 -0.0831  3.5863  0.9260
  770MOL0     H 1599   5.171  -1.392   2.908 -0.1030  1.2773 -0.9553
  770MOL0     H 1600   4.876  -1.337   2.864  1.1227  1.0248 -2.5522
  770MOL0     H 1601   4.938  -1.449   2.993 -2.3087  0.5636 -1.2204
  770MOL0     H 1602   4.778  -1.585   2.963  0.7672 -0.0143  0.5577
  770MOL0     H 1603   4.686  -1.816   2.994  2.7033  0.3961  3.5687
  770MOL0     H 1604   4.888  -2.349   2.879  0.3872 -3.2092  2.4716
  770MOL0     H 1605   4.811  -2.573   2.868 -0.7569 -0.2137 -0.2525
  770MOL0     H 1606   4.615  -2.739   2.956 -2.9463 -0.7880  0.1828
  770MOL0     H 1607   4.721  -2.781   2.821  0.0954 -0.7850  0.9413
  770MOL0     H 1608   4.557  -2.906   2.712  1.2957  0.2134  0.5464
  770MOL0     H 1609   4.428  -2.855   2.833 -0.0759  2.4836 -0.7407
  770MOL0     H 1610   4.544  -2.965   3.009  0.5092  1.1558 -1.3479
  770MOL0     H 1611   4.667  -3.027   2.899  1.1041  1.5326 -1.4407
  770MOL0     H 1612   4.372  -3.091   2.908 -1.6734 -3.6127 -1.5971
  770MOL0     H 1613   4.481  -3.142   2.776  3.8743 -1.3237  1.4777
  770MOL0     H 1614   4.628  -3.264   2.948  0.0016 -2.7092 -0.7750
  770MOL0     H 1615   4.467  -3.327   2.918 -3.7461  3.1336 -2.6633
  770MOL0     H 1616   4.388  -3.227   3.135  0.9848  2.3451  2.8795
  770MOL0     H 1617   4.536  -3.141   3.154  1.1994 -0.3230  0.6546
  770MOL0     H 1618   4.526  -3.455   3.124 -1.3484  1.5008 -2.0659
  770MOL0     H 1619   4.660  -3.366   3.169  0.0763 -1.5431  1.0799
  770MOL0     H 1620   4.551  -3.280   3.363 -0.9163  1.0602 -1.2087
  770MOL0     H 1621   4.580  -3.448   3.377 -0.2729  0.5336  1.7022
  770MOL0     H 1622   4.430  -2.435   2.720 -0.8280  0.2346  1.0512
  770MOL0     H 1623   4.523  -2.198   2.723  1.4607  0.8007 -2.4509
  770MOL0     H 1624   4.947  -1.953   2.681  1.3536  1.2517 -0.8627
  770MOL0     H 1625   5.056  -1.722   2.675 -0.4812  1.7345 -0.0693
  770MOL0     H 1626   5.802  -0.125   3.263  0.4741  0.9246 -0.9234
  770MOL0     H 1627   5.888   0.118   3.267  1.7317  0.4023 -0.5833
  770MOL0     H 1628   6.094   0.475   3.471  0.7785 -1.6959  0.2744
  770MOL0     H 1629   6.221   0.672   3.451  0.9629  2.1581 -1.8142
  770MOL0     H 1630   6.363   0.724   3.177 -0.3825  1.4184  0.3825
  770MOL0     H 1631   6.530   0.668   3.147  0.2221 -2.6029  1.7445
  770MOL0     H 1632   6.475   0.935   3.298  1.8153 -2.7405  2.7712
  770MOL0     H 1633   6.619   0.872   3.238  0.0063  1.8207  1.9559
  770MOL0     H 1634   6.425   1.017   3.082 -1.0467 -3.1795  0.3383
  770MOL0     H 1635   6.524   0.911   2.986 -1.1796 -0.5522  0.0022
  770MOL0     H 1636   6.731   1.017   3.055  0.9065  2.3514  3.0472
  770MOL0     H 1637   6.627   1.141   2.997 -1.2750  0.1601 -0.1405
  770MOL0     H 1638   6.700   1.161   3.433 -0.8655 -3.0230  0.5581
  770MOL0     H 1639   6.545   0.442   3.279  0.9667 -0.2665  2.0860
  770MOL0     H 1640   6.395   0.235   3.281  1.1789  0.0618 -0.1055
  771MOL0     O 1641   3.995   7.029  10.585  0.4705  0.4367  0.1162
  771MOL0     C 1642   3.988   6.994  10.707  0.7508 -0.4935 -0.2079
  771MOL0     O 1643   4.063   6.894  10.766 -0.3541 -0.3327  0.2489
  771MOL0     C 1644   4.154   6.810  10.692  0.8113 -0.7587 -0.8170
  771MOL0     C 1645   4.273   6.780  10.741 -0.3816  0.1682  0.4515
  771MOL0     C 1646   4.367   6.693  10.682 -0.4588  0.2596 -0.1756
  771MOL0     C 1647   4.315   6.620  10.571  0.0398  0.4250 -0.0381
  771MOL0     O 1648   4.407   6.538  10.512 -0.3181 -0.9658 -0.1509
  771MOL0     C 1649   4.365   6.444  10.412 -0.4681 -0.5209  0.1014
  771MOL0     C 1650   4.474   6.346  10.391  0.1073  0.8926 -0.1883
  771MOL0     C 1651   4.456   6.227  10.296 -0.8000  0.9382  0.1317
  771MOL0     C 1652   4.575   6.129  10.305 -0.0302  0.4907 -0.3703
  771MOL0     C 1653   4.543   5.990  10.234  0.1519  0.8916  0.2411
  771MOL0     C 1654   4.452   5.903  10.321 -1.3662  0.0931  0.1570
  771MOL0     C 1655   4.439   5.763  10.255 -0.6652 -0.6863 -0.5502
  771MOL0     C 1656   4.411   5.756  10.095  0.4225  0.5151 -0.8751
  771MOL0     N 1657   4.299   5.837  10.057 -0.2604 -0.4651 -0.7584
  771MOL0     C 1658   4.185   5.842  10.130  0.9392  0.0626 -0.9733
  771MOL0     C 1659   4.118   5.934  10.052 -0.4989 -1.1240 -0.3707
  771MOL0     C 1660   3.981   5.995  10.093 -0.2655 -0.0551  0.1345
  771MOL0     C 1661   3.856   5.926  10.027  0.2536  0.5577  0.0145
  771MOL0     C 1662   3.726   5.993  10.082  0.8358 -0.0735  0.7028
  771MOL0     C 1663   3.606   5.982   9.991 -0.2794  0.5486  0.1563
  771MOL0     O 1664   3.488   6.043  10.042  0.0257  0.3317 -0.5503
  771MOL0     C 1665   3.378   6.052   9.966  0.0266  0.7975  0.6905
  771MOL0     C 1666   3.374   5.993   9.839 -0.3961 -0.3754 -0.8229
  771MOL0     C 1667   3.247   5.988   9.766 -0.7946 -1.1464 -0.4017
  771MOL0     C 1668   3.132   6.037   9.828  0.5621 -0.5980  0.1255
  771MOL0     C 1669   3.004   6.029   9.761  0.2598  0.2665 -0.0647
  771MOL0     O 1670   2.898   6.047   9.847 -0.3261  0.7952  0.3646
  771MOL0     C 1671   2.767   6.036   9.818 -0.5065 -0.1349 -0.0119
  771MOL0     C 1672   2.690   5.967   9.912 -0.4944  0.1324 -0.5989
  771MOL0     C 1673   2.550   5.965   9.904  1.1847  0.5121  0.4461
  771MOL0     C 1674   2.493   6.041   9.799  0.5984  0.7462  0.2282
  771MOL0     O 1675   2.355   6.035   9.815 -0.0035  0.2888  1.1880
  771MOL0     C 1676   2.261   6.130   9.762  0.4109  0.0461  0.3113
  771MOL0     C 1677   2.238   6.102   9.616  1.2625  0.3318 -0.4537
  771MOL0     C 1678   2.150   6.205   9.538 -0.7343  0.0775 -0.4261
  771MOL0     C 1679   2.019   6.237   9.594  0.8559  1.0010 -0.0633
  771MOL0     C 1680   1.909   6.134   9.574  0.5084 -0.0824  0.3851
  771MOL0     C 1681   1.917   6.018   9.675  0.9910  0.7942  0.0328
  771MOL0     C 1682   1.775   5.944   9.668  0.1449  0.9528 -0.9809
  771MOL0     C 1683   1.650   6.018   9.707  0.1839  0.1459 -0.4399
  771MOL0    Cl 1684   1.668   6.063   9.881  0.2016 -0.5228 -0.0834
  771MOL0     C 1685   2.574   6.107   9.705  0.3691 -0.0249  0.1362
  771MOL0     C 1686   2.710   6.103   9.720  0.3222 -1.0446 -0.2352
  771MOL0     O 1687   3.000   5.996   9.643  0.0615  0.2625 -0.4904
  771MOL0     C 1688   3.145   6.100   9.951  1.0737 -0.5603  0.1561
  771MOL0     C 1689   3.265   6.108  10.019  0.5194  0.3992 -0.1213
  771MOL0     N 1690   4.178   5.968   9.937 -0.1789 -0.4784 -0.1656
  771MOL0     N 1691   4.289   5.906   9.938 -0.9338 -0.1283 -0.1107
  771MOL0     C 1692   4.189   6.647  10.516  0.5455  0.1173 -0.6076
  771MOL0     C 1693   4.109   6.749  10.574 -0.0673 -0.1653  0.2148
  771MOL0     C 1694   3.902   7.081  10.789  0.7056 -0.4470 -0.8790
  771MOL0     C 1695   3.878   7.051  10.930 -0.6401 -0.0751 -0.6933
  771MOL0     C 1696   3.814   7.140  11.011 -0.0512 -0.5066 -0.3264
  771MOL0     C 1697   3.756   7.256  10.954  0.1573 -0.3821  0.2438
  771MOL0     O 1698   3.671   7.338  11.028  0.6280  0.4741 -0.5154
  771MOL0     C 1699   3.673   7.357  11.173 -0.1582 -0.0681  0.7381
  771MOL0     C 1700   3.790   7.444  11.215  0.3354 -0.2971  0.4274
  771MOL0     C 1701   3.786   7.579  11.148 -0.3028 -0.7222  0.2431
  771MOL0     C 1702   3.925   7.636  11.120 -0.7019  0.0356 -0.1846
  771MOL0     C 1703   3.943   7.771  11.172 -0.8489 -0.1963  0.3474
  771MOL0     C 1704   3.967   7.886  11.203  0.4242  0.8027  0.5853
  771MOL0     C 1705   3.764   7.280  10.827 -0.9923 -0.2938  1.0780
  771MOL0     C 1706   3.846   7.207  10.737  0.2340  0.4987  0.7388
  771MOL0     H 1707   4.309   6.835  10.826 -0.3474  0.4400  0.2633
  771MOL0     H 1708   4.472   6.674  10.699 -0.3785  3.3067  4.9237
  771MOL0     H 1709   4.340   6.484  10.314 -3.3738 -5.1332 -1.3614
  771MOL0     H 1710   4.284   6.384  10.454 -0.8505  0.0433  0.1651
  771MOL0     H 1711   4.494   6.301  10.489 -1.1253  0.8601  0.0652
  771MOL0     H 1712   4.562   6.394  10.348 -0.0405  1.9160  0.6015
  771MOL0     H 1713   4.457   6.259  10.192 -1.1303  1.3851  0.2637
  771MOL0     H 1714   4.360   6.179  10.317 -1.5106  0.6305 -3.2631
  771MOL0     H 1715   4.667   6.176  10.270 -0.3025 -1.4653 -4.1929
  771MOL0     H 1716   4.604   6.113  10.410  1.1589  0.0291 -0.7526
  771MOL0     H 1717   4.634   5.934  10.208 -1.2072 -1.0481 -0.6804
  771MOL0     H 1718   4.512   6.005  10.130  2.5847  0.1939 -0.6561
  771MOL0     H 1719   4.356   5.954  10.333 -1.5496 -0.5704  1.7432
  771MOL0     H 1720   4.491   5.889  10.422 -1.0474 -5.6425 -0.4251
  771MOL0     H 1721   4.532   5.710  10.279 -0.1303 -0.0134 -1.1052
  771MOL0     H 1722   4.357   5.713  10.308 -1.1658  0.4774 -0.1912
  771MOL0     H 1723   4.387   5.652  10.073 -2.9621  0.7024  1.2899
  771MOL0     H 1724   4.502   5.779  10.039  0.6092 -0.7455 -1.1321
  771MOL0     H 1725   4.148   5.796  10.222 -3.0158  0.3662 -2.2208
  771MOL0     H 1726   3.992   6.098  10.057  2.3196 -0.4272 -0.3352
  771MOL0     H 1727   3.984   6.005  10.201  0.7954 -1.3377  0.2589
  771MOL0     H 1728   3.863   5.824  10.064  4.9287  0.3780 -0.7131
  771MOL0     H 1729   3.867   5.928   9.919  0.8761 -0.8022  0.0345
  771MOL0     H 1730   3.698   5.961  10.183 -0.6422  0.3830  0.4614
  771MOL0     H 1731   3.729   6.101  10.091 -0.5676 -0.0678  1.3154
  771MOL0     H 1732   3.594   5.875   9.973 -0.4102  0.3131  1.5060
  771MOL0     H 1733   3.633   6.046   9.907 -2.3516  1.8758  0.4202
  771MOL0     H 1734   3.467   5.955   9.797 -1.6210 -1.4620 -2.6932
  771MOL0     H 1735   3.258   5.931   9.674  2.0721  2.4712 -2.5662
  771MOL0     H 1736   2.746   5.921   9.992  0.9261  1.4963 -0.7572
  771MOL0     H 1737   2.503   5.928   9.995  3.5373  0.9943  1.9333
  771MOL0     H 1738   2.294   6.233   9.779 -1.5248  0.8346 -0.4181
  771MOL0     H 1739   2.167   6.122   9.818  0.3619  3.3792  0.8984
  771MOL0     H 1740   2.188   6.006   9.607 -2.4654  1.9930  0.6285
  771MOL0     H 1741   2.330   6.091   9.558  0.9041  0.5107 -1.0671
  771MOL0     H 1742   2.125   6.159   9.442  1.0083 -0.2053 -0.7745
  771MOL0     H 1743   2.203   6.298   9.516 -2.4655  0.7426 -2.0891
  771MOL0     H 1744   2.016   6.250   9.702  2.3784  1.0345 -0.0056
  771MOL0     H 1745   1.993   6.334   9.551 -1.8526  0.0912 -0.6854
  771MOL0     H 1746   1.890   6.093   9.474 -0.5710 -0.9880  0.9337
  771MOL0     H 1747   1.821   6.195   9.593  1.5849  1.8546 -0.5792
  771MOL0     H 1748   1.929   6.054   9.777 -2.0718  2.5159 -0.1115
  771MOL0     H 1749   2.003   5.956   9.647  0.9625  2.5630 -5.0100
  771MOL0     H 1750   1.762   5.903   9.567  3.5822 -0.3446 -1.0476
  771MOL0     H 1751   1.790   5.852   9.726  0.8147  0.0539 -2.4842
  771MOL0     H 1752   1.568   5.946   9.693  1.5655 -1.7685  0.8386
  771MOL0     H 1753   1.622   6.105   9.646 -2.0727 -0.8425 -0.9430
  771MOL0     H 1754   2.530   6.157   9.619 -0.4171 -0.2459  0.3984
  771MOL0     H 1755   2.783   6.152   9.655 -0.4923 -0.6074 -0.8346
  771MOL0     H 1756   3.059   6.153   9.990  2.3164  3.4552 -1.9873
  771MOL0     H 1757   3.277   6.153  10.116  2.0040  1.9738 -0.9799
  771MOL0     H 1758   4.165   6.606  10.419 -2.1153 -1.6537  0.6673
  771MOL0     H 1759   4.026   6.787  10.515 -2.1360 -0.8071  2.5478
  771MOL0     H 1760   3.931   6.967  10.974  1.5980  0.6267 -1.9040
  771MOL0     H 1761   3.800   7.127  11.118  0.6185  0.3735 -0.1197
  771MOL0     H 1762   3.689   7.264  11.226  0.5004 -1.8244 -2.3081
  771MOL0     H 1763   3.576   7.405  11.194 -1.3073 -2.0628  0.2134
  771MOL0     H 1764   3.790   7.461  11.323 -0.7926  4.3053 -0.0780
  771MOL0     H 1765   3.887   7.397  11.193 -0.3911 -2.2863  1.2784
  771MOL0     H 1766   3.737   7.645  11.220  1.7405 -1.3730  2.3604
  771MOL0     H 1767   3.728   7.575  11.056 -3.7647 -3.3780  2.2763
  771MOL0     H 1768   4.003   7.583  11.176 -1.9995  0.5595  2.2650
  771MOL0     H 1769   3.950   7.620  11.015 -0.2572 -3.1612  0.3206
  771MOL0     H 1770   3.990   7.988  11.225  0.4197  0.1593  4.1689
  771MOL0     H 1771   3.725   7.370  10.781 -0.2758 -1.6498 -2.5647
  771MOL0     H 1772   3.854   7.223  10.630  2.4462  1.9631  1.0638
  772MOL0     O 1773   0.904   2.692   2.755 -0.8101  0.3484 -0.3143
  772MOL0     C 1774   1.017   2.734   2.718  0.9215 -0.2214 -0.3248
  772MOL0     O 1775   1.039   2.842   2.628 -0.5572 -0.9723 -0.0002
  772MOL0     C 1776   0.931   2.897   2.569 -0.2794  0.2666 -0.0779
  772MOL0     C 1777   0.891   3.032   2.585 -0.4460  0.3951 -1.3291
  772MOL0     C 1778   0.788   3.079   2.510 -0.1863  0.2222 -0.1629
  772MOL0     C 1779   0.716   2.999   2.422  0.5990  0.6754  0.1815
  772MOL0     O 1780   0.604   3.035   2.353  0.9520 -0.4583 -0.3776
  772MOL0     C 1781   0.574   3.178   2.353  0.2900  0.3085  0.0130
  772MOL0     C 1782   0.450   3.237   2.278 -0.3555  1.0614 -0.4253
  772MOL0     C 1783   0.324   3.228   2.369 -0.3195  0.1606  0.3019
  772MOL0     C 1784   0.201   3.257   2.289  0.0886 -0.4910 -0.4687
  772MOL0     C 1785   0.075   3.251   2.374  0.3221  0.0235  0.5926
  772MOL0     C 1786   0.031   3.114   2.410 -0.0074 -0.4645 -0.6420
  772MOL0     C 1787  -0.109   3.114   2.471 -0.6196  0.2504 -0.1719
  772MOL0     C 1788  -0.137   3.188   2.606  0.6217 -0.5128 -0.5370
  772MOL0     N 1789  -0.275   3.194   2.627  0.5588  0.0510  0.0442
  772MOL0     C 1790  -0.362   3.093   2.664  0.4009 -0.0070  0.3195
  772MOL0     C 1791  -0.483   3.151   2.649  1.1595 -0.5145 -0.8121
  772MOL0     C 1792  -0.609   3.080   2.685  0.2562 -0.7034  0.3836
  772MOL0     C 1793  -0.659   3.050   2.544  1.0034 -0.1870  0.1458
  772MOL0     C 1794  -0.798   2.982   2.553  0.4881  0.5741  0.2072
  772MOL0     C 1795  -0.830   2.948   2.409 -0.7293  0.7633 -0.3194
  772MOL0     O 1796  -0.938   2.852   2.392 -0.1135 -0.7186  0.5027
  772MOL0     C 1797  -1.057   2.909   2.377 -0.0233  0.6760 -0.8138
  772MOL0     C 1798  -1.155   2.818   2.353 -0.2787  0.5035  0.0414
  772MOL0     C 1799  -1.287   2.854   2.350  0.4945 -0.8258 -0.8378
  772MOL0     C 1800  -1.335   2.985   2.394  0.5684 -0.1162 -0.2246
  772MOL0     C 1801  -1.482   3.015   2.405 -0.4541 -0.7988  0.0301
  772MOL0     O 1802  -1.518   3.144   2.435 -0.2467 -0.6472  0.2674
  772MOL0     C 1803  -1.653   3.183   2.413 -0.7393 -0.8905 -1.0804
  772MOL0     C 1804  -1.720   3.167   2.293 -0.7650  0.4435  0.2033
  772MOL0     C 1805  -1.849   3.209   2.271  0.6535 -0.3915  0.0883
  772MOL0     C 1806  -1.929   3.272   2.371 -1.3894 -0.1739  1.0169
  772MOL0     O 1807  -2.059   3.310   2.344 -0.0153 -0.1719  0.4205
  772MOL0     C 1808  -2.150   3.364   2.439 -0.3826  0.1321 -0.8575
  772MOL0     C 1809  -2.277   3.306   2.394 -0.2433 -0.3678  0.2570
  772MOL0     C 1810  -2.387   3.325   2.495  0.8736  1.3974  0.2110
  772MOL0     C 1811  -2.526   3.282   2.431 -1.4418  0.2212  0.3841
  772MOL0     C 1812  -2.635   3.290   2.540  0.6452 -0.0789 -0.1622
  772MOL0     C 1813  -2.657   3.441   2.581 -0.2677 -0.3465 -0.9117
  772MOL0     C 1814  -2.803   3.456   2.627 -0.1527 -0.1469 -0.6433
  772MOL0     C 1815  -2.821   3.582   2.700  0.4064  0.0529  0.3136
  772MOL0    Cl 1816  -2.755   3.574   2.862 -0.1085 -0.4630  0.3003
  772MOL0     C 1817  -1.862   3.303   2.490 -1.0146 -0.4824 -0.4226
  772MOL0     C 1818  -1.729   3.249   2.515 -0.7614 -1.0576 -0.4322
  772MOL0     O 1819  -1.562   2.928   2.385  0.2469  0.2472  1.1594
  772MOL0     C 1820  -1.234   3.077   2.428  0.0755  0.1751  0.3201
  772MOL0     C 1821  -1.099   3.040   2.416 -0.4856  0.9848  0.2880
  772MOL0     N 1822  -0.463   3.290   2.611  0.0586  0.4735 -0.7313
  772MOL0     N 1823  -0.340   3.304   2.595 -0.0192  0.0286  0.4595
  772MOL0     C 1824   0.754   2.870   2.412 -0.3004  0.4415  0.2478
  772MOL0     C 1825   0.857   2.813   2.485 -0.6306 -0.6028 -0.1534
  772MOL0     C 1826   1.143   2.680   2.770 -0.4790  0.2328 -0.2168
  772MOL0     C 1827   1.155   2.556   2.842  0.2635 -0.1218 -0.1700
  772MOL0     C 1828   1.279   2.517   2.885 -0.6307 -0.0947  0.0191
  772MOL0     C 1829   1.393   2.574   2.840 -0.1747 -0.2978 -0.6447
  772MOL0     O 1830   1.521   2.541   2.881  0.5192 -0.5563 -0.7095
  772MOL0     C 1831   1.540   2.451   2.991 -0.2302  0.9673  0.0271
  772MOL0     C 1832   1.686   2.479   3.041  0.2812  0.6891  0.5607
  772MOL0     C 1833   1.801   2.419   2.960 -0.1694 -0.2422  0.4042
  772MOL0     C 1834   1.803   2.264   2.953 -0.1570 -0.1500  0.8369
  772MOL0     C 1835   1.938   2.228   2.912 -0.1039  0.2475  0.9162
  772MOL0     C 1836   2.051   2.220   2.876 -0.4187  0.2206 -0.5807
  772MOL0     C 1837   1.388   2.689   2.754 -0.6241  0.2040 -0.8492
  772MOL0     C 1838   1.264   2.740   2.726  0.3053 -1.4628 -0.3476
  772MOL0     H 1839   0.951   3.105   2.637 -1.9153 -1.3195  3.2967
  772MOL0     H 1840   0.757   3.183   2.510  1.6389  0.8170  1.1202
  772MOL0     H 1841   0.660   3.230   2.310  0.7069 -1.0453 -0.8263
  772MOL0     H 1842   0.568   3.221   2.453  1.0927 -1.5149  0.8815
  772MOL0     H 1843   0.440   3.187   2.181  0.5753  1.4311 -0.7255
  772MOL0     H 1844   0.484   3.339   2.259  0.7501  0.9596  0.8515
  772MOL0     H 1845   0.342   3.306   2.443  0.2631 -0.0561  0.3964
  772MOL0     H 1846   0.324   3.129   2.416 -1.4029  0.0195  0.0173
  772MOL0     H 1847   0.226   3.356   2.249  0.3801 -0.3254  0.1143
  772MOL0     H 1848   0.181   3.182   2.212  0.1254 -1.1660  0.1675
  772MOL0     H 1849  -0.002   3.312   2.327  1.4458  1.3952  0.4715
  772MOL0     H 1850   0.108   3.305   2.463  0.8850  3.2011 -1.4033
  772MOL0     H 1851   0.099   3.057   2.473  2.4932  2.5986 -0.3167
  772MOL0     H 1852   0.033   3.066   2.312 -3.5144 -0.4771 -0.8258
  772MOL0     H 1853  -0.164   3.162   2.390 -0.9785  3.8706  2.0232
  772MOL0     H 1854  -0.140   3.010   2.489 -1.7304  0.6282  0.1804
  772MOL0     H 1855  -0.091   3.287   2.605 -2.6025  1.1155 -0.6016
  772MOL0     H 1856  -0.103   3.131   2.694 -2.4007 -1.6963  0.0037
  772MOL0     H 1857  -0.339   2.988   2.679  1.0409  0.1081  0.1409
  772MOL0     H 1858  -0.676   3.128   2.758  0.8170 -0.8751  1.0156
  772MOL0     H 1859  -0.593   2.980   2.724 -1.8152 -0.7778  1.2045
  772MOL0     H 1860  -0.593   2.996   2.476  3.4140  3.2744 -0.5380
  772MOL0     H 1861  -0.674   3.141   2.486 -0.5586 -0.3550  0.2402
  772MOL0     H 1862  -0.806   2.895   2.618 -2.2684 -0.0588 -0.8174
  772MOL0     H 1863  -0.873   3.054   2.588  0.7010  2.3830 -2.7097
  772MOL0     H 1864  -0.747   2.903   2.354 -2.2824 -1.2669 -1.1364
  772MOL0     H 1865  -0.851   3.044   2.361  0.9872  1.4522  0.2205
  772MOL0     H 1866  -1.128   2.716   2.326 -1.3893  0.7490 -2.2823
  772MOL0     H 1867  -1.360   2.782   2.316  0.6821 -1.7356  0.6028
  772MOL0     H 1868  -1.670   3.129   2.205  0.7291 -1.8974  1.9520
  772MOL0     H 1869  -1.904   3.186   2.181 -1.9310 -1.9130  1.9241
  772MOL0     H 1870  -2.138   3.472   2.425 -0.2426 -0.1515 -3.4620
  772MOL0     H 1871  -2.133   3.345   2.545 -0.6444  1.0611 -0.6357
  772MOL0     H 1872  -2.262   3.200   2.371  0.1861  0.1958 -2.2868
  772MOL0     H 1873  -2.310   3.354   2.302 -0.5899  0.2571  0.6949
  772MOL0     H 1874  -2.395   3.429   2.528 -0.3797  0.8064  1.9581
  772MOL0     H 1875  -2.376   3.258   2.582  1.1490 -0.3608 -1.1160
  772MOL0     H 1876  -2.557   3.356   2.358 -2.9462 -3.6181 -3.3079
  772MOL0     H 1877  -2.529   3.179   2.392 -1.6811 -0.7377  2.7388
  772MOL0     H 1878  -2.625   3.227   2.629 -4.1369 -0.2586  0.4973
  772MOL0     H 1879  -2.728   3.257   2.493 -0.2236 -0.7183  1.8883
  772MOL0     H 1880  -2.627   3.504   2.497 -1.1261  0.4463 -0.6433
  772MOL0     H 1881  -2.587   3.470   2.660  1.2636  1.1351 -2.7426
  772MOL0     H 1882  -2.861   3.459   2.534  0.9726 -2.2430 -1.4662
  772MOL0     H 1883  -2.838   3.366   2.678 -2.0427  1.1576  0.5055
  772MOL0     H 1884  -2.930   3.586   2.704 -0.2075 -2.6771 -4.6558
  772MOL0     H 1885  -2.782   3.663   2.638  0.0614  0.4155  0.5692
  772MOL0     H 1886  -1.908   3.373   2.560 -0.2449 -2.7108  2.5440
  772MOL0     H 1887  -1.675   3.281   2.604  1.2655  0.2449 -2.0405
  772MOL0     H 1888  -1.270   3.176   2.457  1.3963  1.5986 -2.4528
  772MOL0     H 1889  -1.023   3.114   2.441  0.8610 -0.7593  1.6039
  772MOL0     H 1890   0.691   2.810   2.348  0.0998  0.6814 -0.3820
  772MOL0     H 1891   0.893   2.711   2.470  3.0143  0.4979  0.1924
  772MOL0     H 1892   1.070   2.499   2.880 -1.1480  1.1812 -1.2547
  772MOL0     H 1893   1.286   2.433   2.954 -4.6457  1.7082  3.0156
  772MOL0     H 1894   1.533   2.348   2.954 -1.4992  0.5946  1.2551
  772MOL0     H 1895   1.467   2.468   3.070  0.9273 -1.0293  1.6283
  772MOL0     H 1896   1.707   2.586   3.040  2.9079  0.3059 -2.1342
  772MOL0     H 1897   1.687   2.445   3.145 -0.2090 -2.8341 -0.4297
  772MOL0     H 1898   1.891   2.469   2.998 -3.4379  4.4526  2.9605
  772MOL0     H 1899   1.794   2.445   2.854  0.5524 -0.6765  0.2402
  772MOL0     H 1900   1.765   2.222   3.047 -1.2130 -1.5579 -0.1823
  772MOL0     H 1901   1.727   2.232   2.881  2.3675  1.3890 -2.7566
  772MOL0     H 1902   2.150   2.199   2.842 -0.7951 -0.4695 -1.2960
  772MOL0     H 1903   1.483   2.734   2.727 -1.0793  1.6881 -0.0966
  772MOL0     H 1904   1.263   2.829   2.665  4.0238 -1.2428 -0.3082
  773MOL0     O 1905  11.026   8.084   4.559 -0.5643 -0.4200 -0.1214
  773MOL0     C 1906  11.106   8.167   4.514  0.6760 -0.1728  0.5006
  773MOL0     O 1907  11.102   8.302   4.525 -0.1268  0.4737  1.0428
  773MOL0     C 1908  10.993   8.369   4.570  0.3214  0.1692  0.3385
  773MOL0     C 1909  10.931   8.346   4.694  0.3731  0.1442 -0.2902
  773MOL0     C 1910  10.822   8.419   4.742  0.2764 -0.2207 -0.1983
  773MOL0     C 1911  10.772   8.524   4.669 -0.1310 -0.8170 -0.0026
  773MOL0     O 1912  10.659   8.598   4.718  0.2188  0.2536  0.2680
  773MOL0     C 1913  10.620   8.724   4.652 -0.7434  0.3350 -0.2520
  773MOL0     C 1914  10.511   8.794   4.726 -0.3985  0.7477  0.0148
  773MOL0     C 1915  10.572   8.861   4.854 -0.1308  0.8222  1.0878
  773MOL0     C 1916  10.465   8.950   4.921 -0.2595 -0.3020  0.5065
  773MOL0     C 1917  10.528   9.041   5.031 -0.4186 -0.1249 -0.1552
  773MOL0     C 1918  10.605   9.150   4.962 -0.2922 -0.7266  0.0145
  773MOL0     C 1919  10.725   9.209   5.041  0.0976  0.6562 -0.0456
  773MOL0     C 1920  10.695   9.281   5.168  0.2497  0.5050 -0.4024
  773MOL0     N 1921  10.824   9.339   5.215  0.8683  0.9160  0.2630
  773MOL0     C 1922  10.895   9.434   5.147  0.1182 -0.2346  0.0448
  773MOL0     C 1923  11.013   9.431   5.202  0.6708 -0.0807 -0.2001
  773MOL0     C 1924  11.119   9.532   5.170 -0.8656  0.0457 -0.2166
  773MOL0     C 1925  11.247   9.452   5.137  0.5785 -0.0688  1.4781
  773MOL0     C 1926  11.284   9.451   4.989  0.2759  0.8836  0.1590
  773MOL0     C 1927  11.198   9.342   4.921 -0.2066  0.1033 -0.1951
  773MOL0     O 1928  11.173   9.375   4.784  0.0024 -0.2242 -0.2968
  773MOL0     C 1929  11.088   9.283   4.718  0.3623  0.0287 -0.3260
  773MOL0     C 1930  11.115   9.259   4.584  0.1733  0.0847  0.2128
  773MOL0     C 1931  11.052   9.173   4.502  0.8424  0.1304 -0.0659
  773MOL0     C 1932  10.931   9.107   4.562 -0.0392  0.3688  0.4725
  773MOL0     C 1933  10.840   9.024   4.486 -0.5460  0.5459  0.6438
  773MOL0     O 1934  10.876   8.969   4.364  0.3122  0.4210 -0.1514
  773MOL0     C 1935  10.802   8.881   4.288  0.6137 -0.4097  0.5725
  773MOL0     C 1936  10.661   8.866   4.293 -1.0528 -0.9796 -0.6764
  773MOL0     C 1937  10.598   8.765   4.219  0.5099  0.1618  0.5907
  773MOL0     C 1938  10.672   8.686   4.137  0.0144  0.7691 -0.0942
  773MOL0     O 1939  10.621   8.583   4.063 -0.5596  0.1861 -0.7633
  773MOL0     C 1940  10.510   8.620   3.979  0.8707 -0.5903  0.6197
  773MOL0     C 1941  10.515   8.552   3.841  0.1340 -0.5327  0.3467
  773MOL0     C 1942  10.645   8.599   3.769 -1.2160  0.1433 -0.7636
  773MOL0     C 1943  10.644   8.549   3.622  0.1724  0.3227  0.6766
  773MOL0     C 1944  10.703   8.659   3.526 -0.0387 -0.6218 -0.3913
  773MOL0     C 1945  10.853   8.677   3.515 -1.7378 -0.2490 -0.2858
  773MOL0     C 1946  10.917   8.748   3.388  0.6805  0.3864 -0.3125
  773MOL0     C 1947  11.069   8.741   3.393 -0.8718 -0.8129 -0.7035
  773MOL0    Cl 1948  11.136   8.850   3.267 -0.0739  0.1927 -0.2449
  773MOL0     C 1949  10.813   8.704   4.131 -0.2316  0.5248  0.2606
  773MOL0     C 1950  10.878   8.803   4.199  0.1279 -0.3060  0.3133
  773MOL0     O 1951  10.729   9.004   4.532 -0.4144  0.0686 -0.8002
  773MOL0     C 1952  10.911   9.130   4.696  0.0417 -0.1866 -0.5667
  773MOL0     C 1953  10.987   9.214   4.773  0.2318  0.6737 -1.0778
  773MOL0     N 1954  11.000   9.355   5.313 -1.2128 -0.0548  1.2868
  773MOL0     N 1955  10.898   9.278   5.310 -0.5266 -0.3823 -0.6445
  773MOL0     C 1956  10.829   8.548   4.540  0.2941 -0.8022 -0.3905
  773MOL0     C 1957  10.936   8.470   4.494 -0.0049 -0.1178  0.7577
  773MOL0     C 1958  11.203   8.118   4.407 -0.0469 -0.1899  0.2675
  773MOL0     C 1959  11.199   7.991   4.359  0.6666 -0.3021  0.1201
  773MOL0     C 1960  11.283   7.940   4.266  0.2035  0.0657 -0.8601
  773MOL0     C 1961  11.387   8.009   4.216 -0.0630  0.0590  0.2869
  773MOL0     O 1962  11.473   7.967   4.119  0.5761  0.2705  0.0170
  773MOL0     C 1963  11.407   7.944   3.991  0.1611  0.8692 -0.5403
  773MOL0     C 1964  11.440   7.804   3.939 -0.0560  0.3855  0.0791
  773MOL0     C 1965  11.356   7.782   3.811 -0.4623 -0.2531  1.2091
  773MOL0     C 1966  11.453   7.778   3.690 -1.1169 -0.4692  0.0141
  773MOL0     C 1967  11.514   7.904   3.665  0.1285  0.8642  0.5954
  773MOL0     C 1968  11.575   8.003   3.647 -0.5411  0.6834 -0.0322
  773MOL0     C 1969  11.401   8.138   4.265  0.7796  0.7872  0.6583
  773MOL0     C 1970  11.310   8.187   4.361 -0.7546  1.0907  0.2017
  773MOL0     H 1971  10.972   8.268   4.757 -0.5494  0.7790  1.1386
  773MOL0     H 1972  10.766   8.391   4.832  4.6423 -3.3744  1.8945
  773MOL0     H 1973  10.578   8.700   4.554 -0.0619 -0.8110 -0.2796
  773MOL0     H 1974  10.711   8.781   4.635  0.4430 -1.3263  0.2743
  773MOL0     H 1975  10.435   8.724   4.764  1.6874  0.8544  5.2518
  773MOL0     H 1976  10.474   8.872   4.659 -2.6595  0.5243  0.9094
  773MOL0     H 1977  10.664   8.916   4.831  1.0710 -0.6255  2.2186
  773MOL0     H 1978  10.598   8.779   4.923  0.4593 -1.2754 -1.4709
  773MOL0     H 1979  10.406   9.005   4.847 -2.2283 -0.6272  1.7843
  773MOL0     H 1980  10.387   8.891   4.969 -0.8196  1.2867  1.6260
  773MOL0     H 1981  10.595   8.970   5.081 -0.4649 -0.7266 -0.9385
  773MOL0     H 1982  10.463   9.091   5.102  1.3954  3.2909 -0.6906
  773MOL0     H 1983  10.544   9.235   4.931  2.3718  1.3402  0.0274
  773MOL0     H 1984  10.648   9.113   4.869 -0.7146 -1.3454  0.0600
  773MOL0     H 1985  10.794   9.128   5.066 -0.6378 -0.9480 -2.7269
  773MOL0     H 1986  10.781   9.274   4.973 -3.1309  4.4336  0.5577
  773MOL0     H 1987  10.660   9.213   5.246 -0.8711  2.1893  0.6314
  773MOL0     H 1988  10.621   9.359   5.149 -0.1294  0.3417  0.3594
  773MOL0     H 1989  10.859   9.496   5.064  0.3819 -1.5587 -1.0963
  773MOL0     H 1990  11.134   9.593   5.260 -0.9964 -2.5637  1.7040
  773MOL0     H 1991  11.088   9.597   5.088  0.1879 -0.4110 -1.0073
  773MOL0     H 1992  11.231   9.354   5.183 -0.8574  0.0303  1.2143
  773MOL0     H 1993  11.331   9.498   5.191 -1.3405  0.2238  4.4530
  773MOL0     H 1994  11.271   9.549   4.941 -1.9909 -0.2517 -1.8265
  773MOL0     H 1995  11.386   9.413   4.981 -0.2333 -0.4192 -0.5102
  773MOL0     H 1996  11.108   9.332   4.983  0.3564  1.0576  0.8091
  773MOL0     H 1997  11.251   9.247   4.920 -4.6043 -2.6402 -1.3368
  773MOL0     H 1998  11.213   9.301   4.570  1.6344 -3.1777 -0.3378
  773MOL0     H 1999  11.071   9.156   4.397 -2.2041 -1.4536 -0.4712
  773MOL0     H 2000  10.606   8.934   4.357  2.7638  0.1061  1.7730
  773MOL0     H 2001  10.494   8.738   4.233  0.9394 -1.1744  1.3512
  773MOL0     H 2002  10.513   8.728   3.960 -2.5713 -0.1817  1.5948
  773MOL0     H 2003  10.418   8.592   4.031  1.6720 -0.5203  2.1267
  773MOL0     H 2004  10.427   8.599   3.796  1.0290  2.1523  1.2121
  773MOL0     H 2005  10.524   8.443   3.848  0.9646 -0.5121 -0.3416
  773MOL0     H 2006  10.733   8.568   3.826 -2.2417  4.1794  3.6736
  773MOL0     H 2007  10.652   8.707   3.783  1.0345  0.2148 -1.8416
  773MOL0     H 2008  10.692   8.451   3.613 -1.3688 -0.3934 -0.2759
  773MOL0     H 2009  10.538   8.538   3.595  0.3929 -0.0961 -0.0591
  773MOL0     H 2010  10.668   8.759   3.553  1.2775  1.0266 -4.0933
  773MOL0     H 2011  10.669   8.641   3.423 -0.8136 -0.0982 -0.2386
  773MOL0     H 2012  10.906   8.581   3.520  1.8137  1.6303  2.0243
  773MOL0     H 2013  10.882   8.736   3.603  3.8319  1.3964 -2.7438
  773MOL0     H 2014  10.887   8.697   3.297 -0.6322  0.9600 -0.2238
  773MOL0     H 2015  10.881   8.852   3.386  0.2193  0.2156 -1.5729
  773MOL0     H 2016  11.111   8.641   3.383 -0.0613 -0.6137  0.4349
  773MOL0     H 2017  11.109   8.794   3.481  2.2380  0.0558 -2.4508
  773MOL0     H 2018  10.873   8.639   4.069  1.1798  0.5519  1.5481
  773MOL0     H 2019  10.981   8.837   4.188 -0.4589  2.2272  1.8168
  773MOL0     H 2020  10.835   9.067   4.742  1.6504 -1.6292  0.2251
  773MOL0     H 2021  10.957   9.206   4.877  0.5389  2.5773 -0.7913
  773MOL0     H 2022  10.789   8.625   4.475  1.9198 -0.2616 -0.7941
  773MOL0     H 2023  10.973   8.495   4.395 -4.2038  0.4609 -0.8639
  773MOL0     H 2024  11.130   7.919   4.403 -3.8054  1.6682 -2.8925
  773MOL0     H 2025  11.271   7.836   4.236  2.6344 -1.6534  3.2707
  773MOL0     H 2026  11.441   8.024   3.925 -1.6274  3.1622  1.1397
  773MOL0     H 2027  11.298   7.955   4.003 -0.1043 -0.5112 -1.3961
  773MOL0     H 2028  11.547   7.804   3.918  0.7129 -0.0059  3.4053
  773MOL0     H 2029  11.418   7.722   4.008  0.8247  0.4065  0.3906
  773MOL0     H 2030  11.290   7.866   3.790 -0.3955 -0.5975 -0.4955
  773MOL0     H 2031  11.305   7.685   3.809 -1.1563 -0.0625  4.0518
  773MOL0     H 2032  11.529   7.699   3.686  2.0972  2.4282 -0.8062
  773MOL0     H 2033  11.383   7.767   3.607  0.7700  0.9589 -1.8974
  773MOL0     H 2034  11.624   8.097   3.632  1.9481 -0.3815  0.9345
  773MOL0     H 2035  11.483   8.200   4.232  0.6785 -0.0277 -1.2542
  773MOL0     H 2036  11.337   8.284   4.403  1.2192  0.5629  0.2852
  774MOL0     O 2037   1.767   9.956   3.580 -0.2036 -0.3368  1.1993
  774MOL0     C 2038   1.732   9.845   3.597 -0.6039  0.1431 -0.0442
  774MOL0     O 2039   1.605   9.804   3.601  0.0109  0.4254  0.1960
  774MOL0     C 2040   1.491   9.882   3.607 -0.6126  0.4141 -0.5631
  774MOL0     C 2041   1.373   9.821   3.661  0.0464  0.1966  0.6374
  774MOL0     C 2042   1.254   9.892   3.653  0.2999  0.2305 -1.0026
  774MOL0     C 2043   1.242  10.023   3.610 -0.5600  0.8314 -0.3279
  774MOL0     O 2044   1.119  10.083   3.623 -0.1463  0.7516  0.1124
  774MOL0     C 2045   1.128  10.218   3.647 -0.3823 -0.3150  0.4355
  774MOL0     C 2046   1.107  10.288   3.516  0.6676  0.4719  0.1670
  774MOL0     C 2047   0.955  10.298   3.480 -0.3222  0.0917  1.0457
  774MOL0     C 2048   0.936  10.334   3.334  0.7036  0.5241  0.2048
  774MOL0     C 2049   0.793  10.382   3.315 -0.1567 -0.0651 -0.0255
  774MOL0     C 2050   0.682  10.287   3.385 -0.0700 -0.0047 -0.1555
  774MOL0     C 2051   0.552  10.315   3.328 -0.3938  1.0218  0.4237
  774MOL0     C 2052   0.434  10.234   3.394  0.1455  0.4450  0.0019
  774MOL0     N 2053   0.416  10.230   3.541  0.1137 -0.0644 -0.7070
  774MOL0     C 2054   0.364  10.329   3.626 -0.0582  0.0834  0.5733
  774MOL0     C 2055   0.384  10.273   3.749 -0.1221  0.1143 -0.5981
  774MOL0     C 2056   0.328  10.333   3.883  0.2182 -0.1484  0.2255
  774MOL0     C 2057   0.191  10.268   3.913  0.5611 -1.4359 -0.2046
  774MOL0     C 2058   0.087  10.278   3.800 -0.5866  0.9704 -0.4332
  774MOL0     C 2059   0.057  10.421   3.765  0.0345 -0.4376 -1.1332
  774MOL0     O 2060  -0.029  10.409   3.649 -0.8071 -0.4924 -0.0217
  774MOL0     C 2061  -0.121  10.505   3.612  0.3438 -0.2970 -0.7921
  774MOL0     C 2062  -0.212  10.479   3.512 -1.0666  0.2701  0.1182
  774MOL0     C 2063  -0.305  10.573   3.471 -0.2535  0.5345  0.4835
  774MOL0     C 2064  -0.310  10.696   3.524  0.0352 -0.5478 -0.3439
  774MOL0     C 2065  -0.410  10.798   3.489  0.4784  0.3929  0.2692
  774MOL0     O 2066  -0.453  10.793   3.349  0.1917  0.4583 -0.6032
  774MOL0     C 2067  -0.545  10.871   3.293 -0.2903 -0.2292  0.1680
  774MOL0     C 2068  -0.534  10.894   3.160 -0.5752  0.2551  1.3378
  774MOL0     C 2069  -0.624  10.974   3.088 -0.1804  0.5887  1.2352
  774MOL0     C 2070  -0.739  11.013   3.146  0.0722  0.8631  0.1573
  774MOL0     O 2071  -0.830  11.083   3.079  0.0446 -0.9327 -0.0921
  774MOL0     C 2072  -0.918  11.009   2.989 -0.5684  0.1406 -0.3211
  774MOL0     C 2073  -1.066  11.055   2.999  0.1282  0.1522 -0.1216
  774MOL0     C 2074  -1.114  11.049   3.140  0.2905  0.1127 -0.0646
  774MOL0     C 2075  -1.260  11.096   3.153  0.0235  0.1272  0.2212
  774MOL0     C 2076  -1.322  11.054   3.281 -0.2847 -1.2377 -0.5004
  774MOL0     C 2077  -1.472  11.101   3.281  0.5602  0.7737 -0.7712
  774MOL0     C 2078  -1.561  11.066   3.157  0.6305  0.8150  0.0366
  774MOL0     C 2079  -1.710  11.087   3.175 -0.6573 -0.5878 -0.5161
  774MOL0    Cl 2080  -1.766  11.000   3.321  0.0395 -0.5131 -0.0804
  774MOL0     C 2081  -0.749  10.996   3.284  0.4232 -1.1232 -0.0308
  774MOL0     C 2082  -0.661  10.927   3.357 -0.7280 -0.2995  0.1162
  774MOL0     O 2083  -0.452  10.874   3.574  1.1700  0.7705  0.2153
  774MOL0     C 2084  -0.224  10.728   3.628  0.0929  0.0541  0.0570
  774MOL0     C 2085  -0.123  10.634   3.667 -0.5002 -0.3404 -0.7379
  774MOL0     N 2086   0.433  10.144   3.733 -0.0087 -0.6940 -1.0625
  774MOL0     N 2087   0.445  10.118   3.617  0.0441  0.4484 -0.2407
  774MOL0     C 2088   1.362  10.081   3.564  0.0640  0.2122  0.7055
  774MOL0     C 2089   1.479  10.011   3.553  0.5555 -0.1294 -0.1284
  774MOL0     C 2090   1.842   9.745   3.621 -0.8064 -0.6626 -0.0519
  774MOL0     C 2091   1.976   9.787   3.618 -0.4312  0.4812 -0.4237
  774MOL0     C 2092   2.076   9.696   3.666  0.0822 -0.1623  1.8731
  774MOL0     C 2093   2.040   9.567   3.697 -0.4569 -0.4667 -0.2421
  774MOL0     O 2094   2.133   9.475   3.733 -0.5580  0.5128  0.1875
  774MOL0     C 2095   2.238   9.445   3.629 -0.0638 -0.1850  0.3637
  774MOL0     C 2096   2.282   9.300   3.648 -0.5146 -0.4436  0.2586
  774MOL0     C 2097   2.388   9.269   3.540  0.1022 -0.0277  0.6034
  774MOL0     C 2098   2.459   9.132   3.555 -0.0152 -0.0767 -0.1303
  774MOL0     C 2099   2.556   9.094   3.457 -0.0156 -0.4348 -0.5445
  774MOL0     C 2100   2.635   9.058   3.369 -0.1172  1.0195  0.2050
  774MOL0     C 2101   1.901   9.529   3.678 -0.5366  0.5247 -0.3792
  774MOL0     C 2102   1.806   9.617   3.652  0.6471  0.1677  0.0914
  774MOL0     H 2103   1.383   9.720   3.698  1.5164  0.0874  0.0242
  774MOL0     H 2104   1.157   9.859   3.690 -1.9916  5.3529 -1.5595
  774MOL0     H 2105   1.218  10.249   3.701  0.1119 -0.2367 -0.4125
  774MOL0     H 2106   1.044  10.247   3.712 -0.6556 -0.0157 -0.0471
  774MOL0     H 2107   1.154  10.227   3.437  1.4921 -0.7400  1.5388
  774MOL0     H 2108   1.155  10.386   3.517 -2.1968  2.0272 -1.5460
  774MOL0     H 2109   0.906  10.382   3.531  2.2175  3.2387 -1.2992
  774MOL0     H 2110   0.899  10.207   3.503  1.8694 -1.0442  2.1723
  774MOL0     H 2111   1.001  10.421   3.315 -1.5992  2.0101 -1.4416
  774MOL0     H 2112   0.961  10.245   3.276  1.0561 -0.1714  1.4082
  774MOL0     H 2113   0.775  10.392   3.207  0.9365  1.2530 -0.0984
  774MOL0     H 2114   0.776  10.482   3.353 -0.8506 -0.5734  1.0535
  774MOL0     H 2115   0.674  10.312   3.491 -1.9923 -0.4343 -0.1672
  774MOL0     H 2116   0.693  10.179   3.373  0.9461  0.3921 -3.8764
  774MOL0     H 2117   0.542  10.423   3.313 -0.7429  1.2919  2.3142
  774MOL0     H 2118   0.553  10.272   3.227  2.0142  1.4242  0.2268
  774MOL0     H 2119   0.431  10.128   3.367 -2.3389  0.6722 -0.8054
  774MOL0     H 2120   0.347  10.288   3.357 -0.7876  0.4271  2.0795
  774MOL0     H 2121   0.325  10.427   3.601 -2.6485 -1.5683 -2.7380
  774MOL0     H 2122   0.317  10.441   3.877  4.0250  0.3031 -1.3522
  774MOL0     H 2123   0.395  10.303   3.964  2.1056 -0.9269 -1.5398
  774MOL0     H 2124   0.149  10.310   4.005  3.4755  0.4270  0.4149
  774MOL0     H 2125   0.206  10.160   3.928 -1.3596 -1.7553 -0.3699
  774MOL0     H 2126   0.125  10.219   3.716 -3.0119 -2.0588  0.4108
  774MOL0     H 2127  -0.009  10.233   3.826  0.7094 -2.8561 -1.6841
  774MOL0     H 2128   0.152  10.469   3.740  2.2865 -4.6219 -1.5143
  774MOL0     H 2129   0.029  10.476   3.855  2.4655  1.6122 -1.5017
  774MOL0     H 2130  -0.185  10.386   3.464 -0.4434 -0.2089  1.3382
  774MOL0     H 2131  -0.368  10.541   3.389 -0.4496  1.8897  0.0752
  774MOL0     H 2132  -0.447  10.858   3.105 -0.4105 -1.5505  2.6784
  774MOL0     H 2133  -0.606  11.004   2.985  1.2018 -0.3034  1.1899
  774MOL0     H 2134  -0.908  10.905   3.023 -1.1557  0.9817  2.8258
  774MOL0     H 2135  -0.887  11.006   2.885 -1.5799  0.3996 -0.6446
  774MOL0     H 2136  -1.120  10.984   2.936  1.8277 -0.6762 -0.7128
  774MOL0     H 2137  -1.077  11.156   2.959  0.1036  0.4664  0.6751
  774MOL0     H 2138  -1.047  11.107   3.203  0.7291 -2.3889  1.9442
  774MOL0     H 2139  -1.101  10.947   3.177 -1.7233 -1.0467 -2.2490
  774MOL0     H 2140  -1.256  11.205   3.147  3.5857  0.1808  1.3934
  774MOL0     H 2141  -1.324  11.050   3.076 -1.5754  0.9758  0.9877
  774MOL0     H 2142  -1.268  11.098   3.365  0.7818  1.3972 -2.4397
  774MOL0     H 2143  -1.296  10.949   3.301  3.6736 -0.5149 -0.9614
  774MOL0     H 2144  -1.474  11.209   3.266 -1.1308  0.7611 -0.8319
  774MOL0     H 2145  -1.520  11.074   3.376  1.1659  0.1220 -0.6436
  774MOL0     H 2146  -1.530  11.118   3.066 -1.5588  1.3999 -0.4296
  774MOL0     H 2147  -1.548  10.959   3.138  0.1871  0.7966 -0.1605
  774MOL0     H 2148  -1.764  11.043   3.091  2.8807 -1.9155 -2.2938
  774MOL0     H 2149  -1.730  11.194   3.186 -2.4330 -0.6355 -2.6407
  774MOL0     H 2150  -0.841  11.024   3.333  0.0686 -2.7311  0.2745
  774MOL0     H 2151  -0.680  10.890   3.457 -1.0811  0.4749  0.3436
  774MOL0     H 2152  -0.241  10.825   3.673 -2.1559  0.9641 -2.4764
  774MOL0     H 2153  -0.048  10.662   3.740 -0.2051 -3.0430  0.0818
  774MOL0     H 2154   1.356  10.170   3.501 -2.3536  0.3069  0.9752
  774MOL0     H 2155   1.551  10.056   3.485 -3.7696  3.7106 -2.7309
  774MOL0     H 2156   2.013   9.888   3.602  4.0666 -0.6790  1.1402
  774MOL0     H 2157   2.171   9.739   3.697 -0.1406  0.4046  1.7947
  774MOL0     H 2158   2.325   9.506   3.653  1.2811 -0.8102 -2.5170
  774MOL0     H 2159   2.203   9.465   3.527  2.3438  2.4993 -0.0422
  774MOL0     H 2160   2.315   9.291   3.752 -1.4818 -3.3792  0.4116
  774MOL0     H 2161   2.196   9.233   3.645  0.7914 -2.3024  1.8650
  774MOL0     H 2162   2.471   9.339   3.538 -0.9282  1.4829 -4.6425
  774MOL0     H 2163   2.344   9.285   3.441  1.7343  2.1635  0.1826
  774MOL0     H 2164   2.501   9.132   3.656  2.4506 -0.3465 -1.0937
  774MOL0     H 2165   2.375   9.062   3.548  0.0784 -0.2585  0.4576
  774MOL0     H 2166   2.703   9.036   3.289 -2.8796 -1.2284 -1.7469
  774MOL0     H 2167   1.868   9.428   3.699 -0.1590  0.1698 -1.4318
  774MOL0     H 2168   1.699   9.604   3.643 -0.4894  5.8476  1.5889
  775MOL0     O 2169   8.700   4.020   5.407  0.0367  0.7345  1.0736
  775MOL0     C 2170   8.644   4.110   5.460 -0.4583 -0.0730 -0.3428
  775MOL0     O 2171   8.671   4.240   5.428  0.4738  0.8754 -0.0409
  775MOL0     C 2172   8.687   4.276   5.298  0.9341  0.5435  0.3039
  775MOL0     C 2173   8.587   4.251   5.198 -0.1541  0.6544  0.3840
  775MOL0     C 2174   8.607   4.289   5.068  1.2338  0.1315 -0.4844
  775MOL0     C 2175   8.706   4.383   5.033  0.4484  0.2751 -0.1465
  775MOL0     O 2176   8.703   4.419   4.902 -0.5048  0.2820 -0.2777
  775MOL0     C 2177   8.786   4.528   4.863 -0.4641 -0.0387  0.0488
  775MOL0     C 2178   8.743   4.578   4.724 -0.2259  0.2801  0.1968
  775MOL0     C 2179   8.842   4.680   4.667 -0.3480  0.1853 -0.2077
  775MOL0     C 2180   8.837   4.818   4.728 -0.8082  0.6219 -0.5404
  775MOL0     C 2181   8.694   4.873   4.724 -0.6816  0.5658 -0.2182
  775MOL0     C 2182   8.673   5.022   4.759 -0.0791  0.2187  0.0971
  775MOL0     C 2183   8.545   5.083   4.696  0.0807  0.6311  0.0756
  775MOL0     C 2184   8.555   5.234   4.663 -0.1661 -0.0543  0.9156
  775MOL0     N 2185   8.613   5.311   4.780  0.0137 -0.4966 -0.1044
  775MOL0     C 2186   8.570   5.307   4.912  0.9423 -0.6079 -0.0814
  775MOL0     C 2187   8.679   5.347   4.986 -1.0745  1.1564 -0.4921
  775MOL0     C 2188   8.691   5.375   5.128 -0.3761 -0.2470 -0.6453
  775MOL0     C 2189   8.834   5.339   5.192  0.6968 -0.1833 -0.5652
  775MOL0     C 2190   8.901   5.204   5.175  0.3430 -0.0379  0.1684
  775MOL0     C 2191   9.048   5.188   5.210 -0.6147  0.2467 -0.1922
  775MOL0     O 2192   9.070   5.046   5.236 -0.2219  0.4977 -0.3657
  775MOL0     C 2193   9.195   5.013   5.281 -0.1878 -0.2702 -0.4493
  775MOL0     C 2194   9.304   5.096   5.294 -0.1352  0.5115 -0.5439
  775MOL0     C 2195   9.432   5.058   5.342  0.9200 -0.3651  0.2405
  775MOL0     C 2196   9.444   4.929   5.390  0.5798 -0.0164 -0.6965
  775MOL0     C 2197   9.568   4.891   5.463 -0.2591 -0.5930  0.5333
  775MOL0     O 2198   9.679   4.971   5.439 -0.3580 -0.6397  0.5954
  775MOL0     C 2199   9.803   4.922   5.484 -0.3211  0.4145 -0.6073
  775MOL0     C 2200   9.861   4.796   5.472  0.2421  0.4800  0.1602
  775MOL0     C 2201   9.981   4.765   5.533 -0.3933 -0.0159  0.2686
  775MOL0     C 2202  10.054   4.856   5.608  0.3305  0.3847 -0.1902
  775MOL0     O 2203  10.165   4.842   5.682 -0.4219  0.3680 -0.0148
  775MOL0     C 2204  10.241   4.720   5.666 -1.2453  1.2456  0.3860
  775MOL0     C 2205  10.325   4.679   5.791 -0.2052  0.3416 -1.1103
  775MOL0     C 2206  10.222   4.656   5.905 -0.1565  0.8565  0.2465
  775MOL0     C 2207  10.300   4.618   6.029 -0.7337 -0.0749  0.5439
  775MOL0     C 2208  10.232   4.635   6.163 -0.4847 -1.2573  0.1188
  775MOL0     C 2209  10.313   4.571   6.276 -0.0108 -0.4698  0.4309
  775MOL0     C 2210  10.264   4.588   6.419 -0.0427  0.1468  0.2192
  775MOL0     C 2211  10.283   4.727   6.476 -0.3267 -0.2970 -1.3291
  775MOL0    Cl 2212  10.152   4.849   6.428 -0.6726  0.3711 -0.0400
  775MOL0     C 2213   9.998   4.986   5.611  0.2122  0.4447  0.0749
  775MOL0     C 2214   9.877   5.019   5.553  0.2705 -0.8513  0.0556
  775MOL0     O 2215   9.564   4.797   5.544 -0.0135  0.2736 -0.1869
  775MOL0     C 2216   9.333   4.837   5.386 -0.2525 -0.1954  0.3366
  775MOL0     C 2217   9.214   4.884   5.319  0.4406 -0.1489 -0.3426
  775MOL0     N 2218   8.782   5.364   4.896  0.6094 -0.0789 -0.1082
  775MOL0     N 2219   8.743   5.351   4.777  0.2928  0.2209 -0.2229
  775MOL0     C 2220   8.794   4.427   5.135  0.1275  0.0061  0.1057
  775MOL0     C 2221   8.787   4.361   5.260  0.5154 -0.3143  0.4554
  775MOL0     C 2222   8.571   4.086   5.585 -0.0820 -0.6528  0.1978
  775MOL0     C 2223   8.546   4.189   5.677  0.3214  0.9722 -0.0067
  775MOL0     C 2224   8.499   4.149   5.799  0.6645 -0.3977  0.6057
  775MOL0     C 2225   8.458   4.027   5.829 -0.2732  0.6470 -0.3053
  775MOL0     O 2226   8.410   4.011   5.953  0.4799 -0.3005 -0.4503
  775MOL0     C 2227   8.394   3.885   6.013  0.3177  0.3367  0.1069
  775MOL0     C 2228   8.364   3.887   6.166  0.4110 -0.8140 -0.3532
  775MOL0     C 2229   8.469   3.956   6.252 -0.0399 -0.4101 -0.3959
  775MOL0     C 2230   8.449   3.913   6.397  0.1750 -1.2111  0.3261
  775MOL0     C 2231   8.337   3.997   6.449 -0.3743 -0.1887  0.3547
  775MOL0     C 2232   8.254   4.078   6.488 -0.9084  1.2860  0.3020
  775MOL0     C 2233   8.477   3.923   5.738  0.6162  0.2473  0.3718
  775MOL0     C 2234   8.529   3.960   5.614 -0.1810  0.3581 -1.1112
  775MOL0     H 2235   8.511   4.180   5.228  2.8119 -1.5293  3.4309
  775MOL0     H 2236   8.544   4.262   4.984 -0.6901 -1.0902  1.2620
  775MOL0     H 2237   8.888   4.490   4.854  0.1042  1.0910  1.3647
  775MOL0     H 2238   8.779   4.605   4.940  1.3393 -0.5553  0.7895
  775MOL0     H 2239   8.638   4.608   4.722  0.2299  1.9305 -0.9500
  775MOL0     H 2240   8.730   4.500   4.649 -5.2949  0.8169  0.2036
  775MOL0     H 2241   8.831   4.692   4.559 -2.1590  2.5521  0.1757
  775MOL0     H 2242   8.946   4.645   4.671 -0.1416  0.2032 -3.4461
  775MOL0     H 2243   8.864   4.831   4.833 -0.9485  0.7132 -0.5150
  775MOL0     H 2244   8.899   4.879   4.661 -1.4162 -1.4685 -3.1700
  775MOL0     H 2245   8.618   4.822   4.783 -1.1811  0.1684 -1.1765
  775MOL0     H 2246   8.664   4.851   4.621 -1.7052 -1.6051  0.4931
  775MOL0     H 2247   8.759   5.078   4.721 -0.8822  2.5999  1.5586
  775MOL0     H 2248   8.656   5.028   4.866 -3.2296 -1.8646 -0.1553
  775MOL0     H 2249   8.504   5.015   4.621 -0.3973  0.7469  0.2267
  775MOL0     H 2250   8.476   5.080   4.780  0.7043  0.2735  0.5784
  775MOL0     H 2251   8.452   5.266   4.645 -0.7596 -0.1317  3.7212
  775MOL0     H 2252   8.600   5.261   4.567 -3.9552  1.0754 -0.7052
  775MOL0     H 2253   8.465   5.293   4.938  0.9234 -0.3263  0.0051
  775MOL0     H 2254   8.617   5.322   5.189  1.9288 -0.5138  2.1657
  775MOL0     H 2255   8.662   5.477   5.152 -0.1601 -0.8361  2.6679
  775MOL0     H 2256   8.830   5.354   5.301  0.3554  0.2314 -0.6315
  775MOL0     H 2257   8.901   5.412   5.147 -0.2164  0.3449 -1.1140
  775MOL0     H 2258   8.848   5.140   5.246  0.6335 -0.6145 -0.1298
  775MOL0     H 2259   8.886   5.162   5.076 -1.5014  1.0228 -0.0485
  775MOL0     H 2260   9.070   5.256   5.292 -1.1051 -1.0438  1.0671
  775MOL0     H 2261   9.105   5.218   5.122 -1.6444  1.3011 -0.5204
  775MOL0     H 2262   9.302   5.197   5.252  0.8791 -0.1331 -2.2591
  775MOL0     H 2263   9.509   5.132   5.361  1.3498 -0.1856 -1.9005
  775MOL0     H 2264   9.808   4.723   5.410  3.2031  0.4909 -2.6736
  775MOL0     H 2265  10.031   4.672   5.508  1.2419  0.4704  1.5364
  775MOL0     H 2266  10.312   4.722   5.583  0.2082  2.9782  1.5845
  775MOL0     H 2267  10.172   4.638   5.646 -0.1062  0.7355 -1.8149
  775MOL0     H 2268  10.399   4.748   5.832  2.8892 -2.3570 -1.7692
  775MOL0     H 2269  10.381   4.588   5.771  0.7906  1.1225 -2.0203
  775MOL0     H 2270  10.164   4.567   5.881  1.3587 -0.6226  1.7604
  775MOL0     H 2271  10.149   4.736   5.918  0.8015  2.2851 -2.3617
  775MOL0     H 2272  10.328   4.513   6.021 -0.8070 -0.0923  0.5218
  775MOL0     H 2273  10.398   4.667   6.037 -2.3005  3.4599 -0.0566
  775MOL0     H 2274  10.133   4.588   6.157 -0.4430 -1.2306 -0.8895
  775MOL0     H 2275  10.215   4.742   6.180  0.6684 -1.3974  2.5732
  775MOL0     H 2276  10.417   4.603   6.264 -1.1597  3.1671 -1.7099
  775MOL0     H 2277  10.317   4.463   6.259 -2.3148 -0.6238  0.6159
  775MOL0     H 2278  10.158   4.562   6.415 -0.4486  1.5782  0.7569
  775MOL0     H 2279  10.324   4.527   6.488 -1.5159  1.2083  2.5619
  775MOL0     H 2280  10.388   4.758   6.468 -0.1362  0.0670  1.3594
  775MOL0     H 2281  10.270   4.714   6.584 -1.0488  0.8261 -1.2648
  775MOL0     H 2282  10.059   5.058   5.663 -1.8196  2.0454  0.4002
  775MOL0     H 2283   9.834   5.119   5.554  0.2413 -0.7589 -2.5064
  775MOL0     H 2284   9.336   4.736   5.424 -1.1146 -1.5890 -2.9237
  775MOL0     H 2285   9.132   4.813   5.310  1.3049 -1.3264  0.6447
  775MOL0     H 2286   8.870   4.503   5.121 -2.7405  2.6986 -2.5306
  775MOL0     H 2287   8.866   4.376   5.333  1.1708  3.4945 -0.8013
  775MOL0     H 2288   8.571   4.291   5.649  2.1126  0.5957  0.0876
  775MOL0     H 2289   8.463   4.229   5.864 -0.8818  1.6283 -2.5125
  775MOL0     H 2290   8.480   3.819   5.995 -0.3031 -0.1091 -1.4454
  775MOL0     H 2291   8.318   3.821   5.966  0.5282 -0.2596  0.5698
  775MOL0     H 2292   8.271   3.942   6.181  1.3479  0.4000  1.3777
  775MOL0     H 2293   8.350   3.785   6.203 -1.9125  0.4855  2.7949
  775MOL0     H 2294   8.453   4.064   6.238  0.8840 -0.3573 -1.1116
  775MOL0     H 2295   8.568   3.928   6.214  0.0820  1.7695 -1.8741
  775MOL0     H 2296   8.427   3.806   6.407 -0.7338 -0.9688  0.9749
  775MOL0     H 2297   8.543   3.939   6.446  0.6103 -1.8763 -0.1379
  775MOL0     H 2298   8.189   4.138   6.548 -0.7176  1.4916  0.3061
  775MOL0     H 2299   8.439   3.822   5.752  0.7677  0.2417  0.7583
  775MOL0     H 2300   8.536   3.883   5.538  0.5288 -0.7523  0.0514
  776MOL0     O 2301   0.583   6.219   3.073 -0.0760 -0.3846  0.1589
  776MOL0     C 2302   0.663   6.149   3.017 -0.1581  0.2712 -0.3432
  776MOL0     O 2303   0.651   6.010   2.988 -0.9876 -0.1209 -0.6080
  776MOL0     C 2304   0.533   5.956   3.025  0.4386 -0.8393 -0.7909
  776MOL0     C 2305   0.508   5.934   3.165 -0.0095  0.6844  0.0584
  776MOL0     C 2306   0.385   5.883   3.206 -0.0151  0.9245  0.5619
  776MOL0     C 2307   0.280   5.871   3.122 -0.4897  0.5306 -0.7112
  776MOL0     O 2308   0.157   5.844   3.173  0.3493 -0.3976 -0.0797
  776MOL0     C 2309   0.053   5.792   3.099 -0.6568 -0.0082  0.4619
  776MOL0     C 2310  -0.053   5.894   3.060 -1.0478 -0.5992 -0.5425
  776MOL0     C 2311  -0.169   5.826   2.987 -0.4334  0.7108 -0.3668
  776MOL0     C 2312  -0.279   5.925   2.971  0.6523 -0.3166  0.2589
  776MOL0     C 2313  -0.403   5.871   2.897 -0.0710 -0.1760  0.5325
  776MOL0     C 2314  -0.494   5.790   3.003  0.2263 -0.7711  0.5037
  776MOL0     C 2315  -0.636   5.789   2.952  0.5126  0.6648 -0.4930
  776MOL0     C 2316  -0.742   5.764   3.066  0.6349  0.0697 -1.4292
  776MOL0     N 2317  -0.879   5.752   3.025  0.8545  0.1275  0.1955
  776MOL0     C 2318  -0.943   5.651   2.956  0.6685 -0.0641 -0.2181
  776MOL0     C 2319  -1.060   5.708   2.922 -0.8019 -0.4917  0.5409
  776MOL0     C 2320  -1.174   5.653   2.847  0.0025 -0.2976 -0.3489
  776MOL0     C 2321  -1.154   5.656   2.697 -0.1533 -0.2554 -0.1835
  776MOL0     C 2322  -1.268   5.579   2.631 -0.0857 -0.1949 -0.5095
  776MOL0     C 2323  -1.297   5.595   2.481 -0.3675 -0.3403 -0.8560
  776MOL0     O 2324  -1.406   5.513   2.465  0.2783 -0.0176 -0.0478
  776MOL0     C 2325  -1.486   5.541   2.358  0.5887 -0.6527 -0.3732
  776MOL0     C 2326  -1.541   5.420   2.315  0.0689 -0.3798 -0.0375
  776MOL0     C 2327  -1.633   5.427   2.209  0.3483  0.3399 -0.1206
  776MOL0     C 2328  -1.678   5.545   2.152  0.0224 -0.0392 -0.6241
  776MOL0     C 2329  -1.768   5.529   2.031  0.3325 -1.2912 -0.5979
  776MOL0     O 2330  -1.799   5.406   2.001  0.2829 -0.5620  0.5106
  776MOL0     C 2331  -1.881   5.359   1.891  0.2011 -0.1572 -1.5718
  776MOL0     C 2332  -1.920   5.228   1.889  0.1576 -0.0700 -0.1931
  776MOL0     C 2333  -2.003   5.179   1.790 -0.0428  0.0292  0.4252
  776MOL0     C 2334  -2.054   5.257   1.690  0.0756 -0.7251  0.5452
  776MOL0     O 2335  -2.133   5.192   1.596  0.4352  0.1274  0.1920
  776MOL0     C 2336  -2.150   5.256   1.472 -0.2381  0.8974 -0.2265
  776MOL0     C 2337  -2.187   5.149   1.366  0.3767  1.1202  0.3509
  776MOL0     C 2338  -2.059   5.075   1.325 -0.2629  0.3679 -0.0342
  776MOL0     C 2339  -2.071   4.975   1.213 -0.1805  0.2573 -0.2127
  776MOL0     C 2340  -1.947   4.946   1.123 -0.2894  0.3344 -0.4210
  776MOL0     C 2341  -1.942   4.822   1.027  0.4532  0.5845 -0.3917
  776MOL0     C 2342  -1.923   4.697   1.118 -0.2878 -0.4835 -0.2443
  776MOL0     C 2343  -1.858   4.590   1.041  0.8545  0.2794  0.2252
  776MOL0    Cl 2344  -1.833   4.453   1.163  0.1497 -0.0015 -0.2699
  776MOL0     C 2345  -2.023   5.395   1.690 -1.4270  0.0031 -0.4402
  776MOL0     C 2346  -1.932   5.441   1.789  0.7974  0.2308  0.3195
  776MOL0     O 2347  -1.819   5.633   1.991 -0.3956 -0.0210 -0.5904
  776MOL0     C 2348  -1.623   5.657   2.206  0.1131  0.4668  0.4987
  776MOL0     C 2349  -1.522   5.661   2.305 -0.2431 -0.0809  0.1227
  776MOL0     N 2350  -1.072   5.844   2.962 -0.5008 -0.8560 -0.6633
  776MOL0     N 2351  -0.956   5.867   3.011  0.1531  0.3568 -0.0126
  776MOL0     C 2352   0.306   5.882   2.980  0.1679 -0.6074 -0.2459
  776MOL0     C 2353   0.426   5.930   2.936 -0.3352  0.2852  0.3925
  776MOL0     C 2354   0.802   6.203   2.989  0.2923 -0.0170  0.1987
  776MOL0     C 2355   0.840   6.314   3.058  0.3505 -0.3597  0.7755
  776MOL0     C 2356   0.972   6.365   3.054  0.0621 -0.5533 -0.5836
  776MOL0     C 2357   1.075   6.300   2.977  0.5465  0.4491 -0.0772
  776MOL0     O 2358   1.206   6.335   2.961 -0.1127  0.5203 -0.1538
  776MOL0     C 2359   1.244   6.470   3.000 -0.0213 -0.0377 -0.6635
  776MOL0     C 2360   1.370   6.507   2.933  0.1450  0.1132 -0.0072
  776MOL0     C 2361   1.373   6.655   2.932  0.5921 -0.3690  0.1106
  776MOL0     C 2362   1.519   6.685   2.879  0.2559  0.5186 -0.4130
  776MOL0     C 2363   1.530   6.820   2.821 -0.7885  0.2431  0.1343
  776MOL0     C 2364   1.545   6.926   2.768 -0.7981 -0.1567  0.6523
  776MOL0     C 2365   1.030   6.188   2.911  0.2603  0.1783 -0.4376
  776MOL0     C 2366   0.898   6.142   2.910 -0.3822 -0.3749 -0.7718
  776MOL0     H 2367   0.583   5.942   3.243 -0.2808 -1.7261  0.6620
  776MOL0     H 2368   0.370   5.867   3.312  0.7720  1.1987  0.7188
  776MOL0     H 2369   0.024   5.719   3.175  0.9343 -0.4355  0.7016
  776MOL0     H 2370   0.093   5.739   3.012 -1.7706 -0.4599  0.2104
  776MOL0     H 2371  -0.001   5.974   3.007  2.7275 -1.9126  0.8341
  776MOL0     H 2372  -0.090   5.940   3.152  3.1253  0.7379  0.7144
  776MOL0     H 2373  -0.198   5.742   3.050  0.4886 -0.7146 -1.7739
  776MOL0     H 2374  -0.149   5.784   2.888 -5.3078 -0.7120 -1.0112
  776MOL0     H 2375  -0.307   5.955   3.072 -0.4522  0.8151 -0.3564
  776MOL0     H 2376  -0.241   6.016   2.924  0.9536  1.0212  2.9140
  776MOL0     H 2377  -0.365   5.822   2.807  2.3694 -0.2067  1.4723
  776MOL0     H 2378  -0.466   5.952   2.860 -1.1151  0.3188  3.1695
  776MOL0     H 2379  -0.484   5.850   3.095  0.6327 -0.0154 -0.0177
  776MOL0     H 2380  -0.449   5.691   3.006  0.6413 -0.5979  0.1200
  776MOL0     H 2381  -0.668   5.886   2.913 -4.3599 -0.8306 -0.8071
  776MOL0     H 2382  -0.652   5.717   2.871 -1.2789 -0.2487  0.6312
  776MOL0     H 2383  -0.734   5.844   3.141  2.3303 -1.1461 -0.2295
  776MOL0     H 2384  -0.713   5.678   3.127  2.8120  2.2740  0.9127
  776MOL0     H 2385  -0.927   5.544   2.947  1.0555  0.1131 -2.1730
  776MOL0     H 2386  -1.258   5.713   2.884 -0.3650 -0.7404 -0.4528
  776MOL0     H 2387  -1.187   5.546   2.868 -0.7235 -0.2136 -0.3477
  776MOL0     H 2388  -1.056   5.611   2.676 -0.9984 -2.5533  0.5119
  776MOL0     H 2389  -1.161   5.756   2.653  0.7664  1.3931  3.1242
  776MOL0     H 2390  -1.253   5.474   2.658 -3.2507 -0.4368  0.7002
  776MOL0     H 2391  -1.363   5.603   2.679  0.9076  0.6254  1.1801
  776MOL0     H 2392  -1.212   5.563   2.421  1.0737 -0.7723  1.3001
  776MOL0     H 2393  -1.319   5.698   2.452 -0.7808 -0.6739 -1.7492
  776MOL0     H 2394  -1.510   5.323   2.352 -3.2328 -1.1157  1.1777
  776MOL0     H 2395  -1.677   5.330   2.189 -0.9415  0.2191  2.7862
  776MOL0     H 2396  -1.893   5.155   1.965  0.4293 -0.0327 -0.2503
  776MOL0     H 2397  -2.047   5.080   1.787 -3.9929  1.5774 -0.5542
  776MOL0     H 2398  -2.060   5.309   1.438  1.9576  1.1904  5.1745
  776MOL0     H 2399  -2.234   5.323   1.492 -0.1794  0.4953  1.4936
  776MOL0     H 2400  -2.224   5.198   1.275  3.2823 -0.1997 -1.6627
  776MOL0     H 2401  -2.252   5.075   1.413  0.2853 -2.0908 -4.2022
  776MOL0     H 2402  -2.022   5.015   1.409 -2.2562  0.6931  1.1331
  776MOL0     H 2403  -1.980   5.145   1.294  0.1515  0.4044  1.0625
  776MOL0     H 2404  -2.100   4.879   1.256 -0.3752 -0.3261 -1.5683
  776MOL0     H 2405  -2.148   5.011   1.144  1.0317  1.5795 -0.9487
  776MOL0     H 2406  -1.853   4.957   1.180 -0.5519  1.8886 -0.2345
  776MOL0     H 2407  -1.945   5.032   1.056 -0.7380 -1.1332 -2.3774
  776MOL0     H 2408  -1.855   4.840   0.963 -0.7866  3.9351 -1.3676
  776MOL0     H 2409  -2.032   4.810   0.966 -1.4617 -1.6116  2.5886
  776MOL0     H 2410  -1.837   4.712   1.184 -0.3679  0.0973 -0.2725
  776MOL0     H 2411  -2.016   4.663   1.165 -1.8866  1.3303 -1.9405
  776MOL0     H 2412  -1.765   4.609   0.988  1.6166  1.1499  1.7939
  776MOL0     H 2413  -1.933   4.566   0.966  0.4114  1.1221  0.3908
  776MOL0     H 2414  -2.059   5.454   1.605 -0.5146 -0.2499 -1.0096
  776MOL0     H 2415  -1.918   5.548   1.782 -1.4219  0.7304  2.3322
  776MOL0     H 2416  -1.663   5.748   2.162  3.0125  0.0943 -3.4268
  776MOL0     H 2417  -1.478   5.753   2.344 -0.6746  0.4242 -0.5646
  776MOL0     H 2418   0.223   5.876   2.911 -0.2237 -2.6296  0.3472
  776MOL0     H 2419   0.426   5.931   2.827 -1.6112 -2.7599  0.2526
  776MOL0     H 2420   0.768   6.368   3.118 -0.3316 -0.9479  0.4937
  776MOL0     H 2421   0.978   6.447   3.125 -4.4717  0.0348 -0.5673
  776MOL0     H 2422   1.251   6.493   3.107  0.9263  2.7069 -1.2259
  776MOL0     H 2423   1.158   6.532   2.974 -2.4752 -1.1554  3.6907
  776MOL0     H 2424   1.461   6.474   2.983 -0.9524 -0.2992  1.8033
  776MOL0     H 2425   1.368   6.455   2.836  1.0374 -1.2237  0.6630
  776MOL0     H 2426   1.352   6.694   3.031  0.7652  1.1996 -0.4510
  776MOL0     H 2427   1.292   6.685   2.865 -1.2597 -1.8563  1.5674
  776MOL0     H 2428   1.593   6.670   2.958 -1.8107 -0.8879  1.3486
  776MOL0     H 2429   1.549   6.619   2.797  1.7654  4.2448 -3.1524
  776MOL0     H 2430   1.529   7.021   2.721  0.5336  0.2814  1.0448
  776MOL0     H 2431   1.101   6.125   2.859 -0.2848  0.4234 -1.5004
  776MOL0     H 2432   0.878   6.053   2.852 -0.3977  0.8133 -2.6544
  777MOL0     O 2433   2.369   6.662   0.344 -0.1220  0.0949  0.6353
  777MOL0     C 2434   2.305   6.566   0.313 -0.6636 -0.3879  0.1000
  777MOL0     O 2435   2.262   6.472   0.398  0.2184 -0.3400 -0.5100
  777MOL0     C 2436   2.295   6.486   0.529 -0.9094  0.6791 -0.0924
  777MOL0     C 2437   2.204   6.552   0.618 -0.0779  0.0348  0.1519
  777MOL0     C 2438   2.243   6.555   0.750  0.0734  0.4059  0.7825
  777MOL0     C 2439   2.353   6.484   0.798 -0.0891  0.1639 -0.4871
  777MOL0     O 2440   2.383   6.471   0.930  0.7188  0.2473  0.2524
  777MOL0     C 2441   2.285   6.513   1.029 -0.2636  0.0294 -0.3034
  777MOL0     C 2442   2.307   6.432   1.153  1.2196  0.1169  0.4301
  777MOL0     C 2443   2.443   6.439   1.218  0.0820  0.2807 -0.2246
  777MOL0     C 2444   2.463   6.341   1.334 -0.8810  0.5363  0.1875
  777MOL0     C 2445   2.558   6.401   1.434  0.5935 -0.1526 -0.1630
  777MOL0     C 2446   2.563   6.302   1.554 -0.2733  0.0467  0.9079
  777MOL0     C 2447   2.631   6.354   1.676  0.9103 -0.7624 -0.9738
  777MOL0     C 2448   2.767   6.422   1.648  0.3280 -1.0152  0.0183
  777MOL0     N 2449   2.836   6.459   1.775 -0.3663 -0.5321 -0.1824
  777MOL0     C 2450   2.921   6.380   1.850 -0.4072  0.3054  0.6130
  777MOL0     C 2451   2.977   6.456   1.938 -0.5789 -0.3603  0.6003
  777MOL0     C 2452   3.099   6.413   2.017 -0.2101  0.0758 -0.7307
  777MOL0     C 2453   3.200   6.524   2.040 -0.3922 -0.1728 -0.8857
  777MOL0     C 2454   3.325   6.471   2.100  0.0394 -0.2884  0.6443
  777MOL0     C 2455   3.317   6.399   2.237 -0.3246  0.9142  0.5492
  777MOL0     O 2456   3.444   6.335   2.259 -0.2534 -0.3501  0.0408
  777MOL0     C 2457   3.480   6.282   2.381 -0.4997 -0.2874  0.9503
  777MOL0     C 2458   3.404   6.272   2.492 -0.0734 -0.1580 -0.6140
  777MOL0     C 2459   3.461   6.250   2.624 -0.0004  0.6525  0.7701
  777MOL0     C 2460   3.598   6.205   2.628  0.3184 -0.0767 -0.0859
  777MOL0     C 2461   3.656   6.192   2.768  0.1366 -0.0221 -1.0212
  777MOL0     O 2462   3.603   6.252   2.882 -0.1440  0.1216  0.4866
  777MOL0     C 2463   3.660   6.236   3.005 -0.3745  0.1791  0.1169
  777MOL0     C 2464   3.794   6.220   3.028 -0.6608 -0.1362 -0.8870
  777MOL0     C 2465   3.843   6.215   3.157 -1.0644 -0.4742 -0.4203
  777MOL0     C 2466   3.761   6.204   3.273  0.6707 -0.1602  0.1941
  777MOL0     O 2467   3.822   6.204   3.395 -0.4302 -0.2523  0.3498
  777MOL0     C 2468   3.749   6.169   3.506 -0.2263 -0.0680 -0.3682
  777MOL0     C 2469   3.839   6.191   3.626 -0.4499 -0.4695  0.4564
  777MOL0     C 2470   3.970   6.106   3.633  0.0917 -0.6348 -0.0790
  777MOL0     C 2471   3.939   5.948   3.629  0.4090 -0.7068  0.7515
  777MOL0     C 2472   4.065   5.871   3.609 -0.9067 -0.1432  0.0921
  777MOL0     C 2473   4.129   5.832   3.740  0.4722  0.3098  0.0617
  777MOL0     C 2474   4.277   5.791   3.728 -0.1349 -0.5569 -0.0755
  777MOL0     C 2475   4.287   5.678   3.623  0.3002  0.1375  0.0226
  777MOL0    Cl 2476   4.444   5.602   3.650 -0.1233  0.8849 -0.0123
  777MOL0     C 2477   3.621   6.216   3.251 -0.1107 -0.7721  0.4564
  777MOL0     C 2478   3.580   6.228   3.116  0.7403  0.1381 -0.0177
  777MOL0     O 2479   3.742   6.104   2.770 -0.4622 -0.7290  0.2906
  777MOL0     C 2480   3.673   6.203   2.505 -0.4954 -0.3457  0.2414
  777MOL0     C 2481   3.614   6.242   2.384  0.6291  0.7606 -0.7811
  777MOL0     N 2482   2.921   6.583   1.930 -0.3826 -0.6663 -0.3263
  777MOL0     N 2483   2.846   6.580   1.825  0.1908  0.2218  0.5353
  777MOL0     C 2484   2.441   6.436   0.708 -0.2211 -0.5633  0.6312
  777MOL0     C 2485   2.416   6.436   0.570 -0.8229  0.1529 -0.3422
  777MOL0     C 2486   2.243   6.577   0.183 -0.0701  0.0261  0.3787
  777MOL0     C 2487   2.151   6.483   0.148 -0.3238  0.1174  0.5404
  777MOL0     C 2488   2.081   6.481   0.024 -0.0638 -0.2204 -0.3510
  777MOL0     C 2489   2.116   6.579  -0.069  0.6956 -0.0039  0.2571
  777MOL0     O 2490   2.044   6.601  -0.188  0.6420 -0.0029  0.2966
  777MOL0     C 2491   1.916   6.538  -0.209 -0.5805 -0.3883 -0.7265
  777MOL0     C 2492   1.816   6.614  -0.115  0.7987 -0.0529 -0.5213
  777MOL0     C 2493   1.819   6.767  -0.137  0.0099  0.4563 -0.4021
  777MOL0     C 2494   1.784   6.850  -0.009 -0.3300 -0.1809  0.2654
  777MOL0     C 2495   1.891   6.836   0.088 -0.2793  0.5220 -0.1397
  777MOL0     C 2496   1.961   6.815   0.186  0.0403 -0.1146  0.4646
  777MOL0     C 2497   2.207   6.683  -0.039  0.6945  0.5994 -0.7385
  777MOL0     C 2498   2.276   6.675   0.089  0.4802 -0.5943  1.0244
  777MOL0     H 2499   2.112   6.586   0.571  1.0138  0.4241 -1.8214
  777MOL0     H 2500   2.174   6.606   0.817  0.9518  2.0703  0.4772
  777MOL0     H 2501   2.187   6.489   0.987 -0.7730 -0.4853  1.1223
  777MOL0     H 2502   2.290   6.620   1.050 -2.4153  0.5155 -1.9356
  777MOL0     H 2503   2.283   6.327   1.134 -0.1206  0.6260 -0.9033
  777MOL0     H 2504   2.229   6.469   1.220 -0.7564 -2.0090 -0.5787
  777MOL0     H 2505   2.439   6.545   1.246  2.2830  0.5598 -0.8015
  777MOL0     H 2506   2.523   6.421   1.146  1.9480 -2.8512  2.3843
  777MOL0     H 2507   2.366   6.310   1.374 -0.0002 -1.4815  0.8766
  777MOL0     H 2508   2.507   6.249   1.295  1.1969  2.2280 -1.8288
  777MOL0     H 2509   2.523   6.496   1.474 -0.9450 -0.4516 -0.7347
  777MOL0     H 2510   2.664   6.406   1.407  1.4572  1.6421  3.0479
  777MOL0     H 2511   2.622   6.217   1.518  2.5214  2.5587 -0.9574
  777MOL0     H 2512   2.465   6.274   1.593  0.3472 -0.5940  2.0686
  777MOL0     H 2513   2.572   6.436   1.719  2.1999 -0.2274 -0.1815
  777MOL0     H 2514   2.643   6.273   1.748  3.7788 -2.0347 -2.6898
  777MOL0     H 2515   2.737   6.513   1.594 -0.1284 -0.5943  0.9619
  777MOL0     H 2516   2.826   6.355   1.585 -0.5303 -1.3772 -0.4038
  777MOL0     H 2517   2.942   6.274   1.842  3.0075  0.8154  1.5267
  777MOL0     H 2518   3.141   6.321   1.975  0.6597  0.6496 -1.1393
  777MOL0     H 2519   3.053   6.404   2.116  0.2679  1.7652 -0.3217
  777MOL0     H 2520   3.162   6.601   2.107  0.3797 -1.9988  1.8286
  777MOL0     H 2521   3.228   6.574   1.947 -0.4222  0.9122 -0.3190
  777MOL0     H 2522   3.360   6.398   2.027 -0.2494  2.5223 -2.5041
  777MOL0     H 2523   3.384   6.561   2.122 -2.3599  0.8949  2.8357
  777MOL0     H 2524   3.235   6.326   2.243 -1.1737  1.9077  1.4773
  777MOL0     H 2525   3.295   6.473   2.314  1.6232 -0.7166  2.8094
  777MOL0     H 2526   3.300   6.302   2.481 -0.0773  1.0191  1.9223
  777MOL0     H 2527   3.398   6.250   2.712 -1.6735  0.0661 -0.3704
  777MOL0     H 2528   3.864   6.218   2.945 -0.9846  0.1599 -1.1712
  777MOL0     H 2529   3.950   6.211   3.173 -1.3826  0.8359  2.9162
  777MOL0     H 2530   3.715   6.065   3.499  1.8302 -1.2491  3.9906
  777MOL0     H 2531   3.656   6.221   3.528  1.0567  1.8322  0.9052
  777MOL0     H 2532   3.789   6.161   3.719 -2.0261  2.0784  0.5067
  777MOL0     H 2533   3.860   6.298   3.625  2.7606 -0.9778 -1.6256
  777MOL0     H 2534   4.021   6.132   3.727  0.4173 -0.0597 -0.4020
  777MOL0     H 2535   4.032   6.141   3.550  5.4083 -2.8050  2.5062
  777MOL0     H 2536   3.880   5.922   3.717 -3.5239  0.7708 -1.2045
  777MOL0     H 2537   3.883   5.924   3.538  0.0467  0.0730  0.7551
  777MOL0     H 2538   4.135   5.930   3.549  0.4520 -0.7663  1.0029
  777MOL0     H 2539   4.046   5.778   3.555 -0.1981 -1.0655  1.3769
  777MOL0     H 2540   4.086   5.737   3.775  0.5675  1.0758  2.4435
  777MOL0     H 2541   4.118   5.913   3.812 -0.1967  1.6239 -1.4692
  777MOL0     H 2542   4.344   5.872   3.696 -1.5792 -1.0397 -5.2384
  777MOL0     H 2543   4.308   5.747   3.823  0.2162 -1.9854 -0.8184
  777MOL0     H 2544   4.287   5.733   3.528 -2.6049  0.4944  0.1485
  777MOL0     H 2545   4.202   5.611   3.616  1.0863 -1.7033  4.7422
  777MOL0     H 2546   3.555   6.206   3.336  1.9512 -2.0174  2.0298
  777MOL0     H 2547   3.476   6.247   3.094  0.4851 -1.0164  0.1420
  777MOL0     H 2548   3.780   6.187   2.513  0.4840  3.4162 -2.3739
  777MOL0     H 2549   3.663   6.237   2.287  1.7996 -0.4963 -0.1527
  777MOL0     H 2550   2.534   6.385   0.730 -1.6845 -5.0746 -2.1959
  777MOL0     H 2551   2.486   6.395   0.498  2.1562  1.4037  1.6420
  777MOL0     H 2552   2.131   6.401   0.216 -2.4606  0.6534  0.6232
  777MOL0     H 2553   2.012   6.401  -0.001 -1.6350  0.5870  1.1716
  777MOL0     H 2554   1.906   6.438  -0.167 -5.0860  0.1757 -0.0452
  777MOL0     H 2555   1.885   6.536  -0.314  1.0950 -0.7368 -1.2579
  777MOL0     H 2556   1.716   6.571  -0.125 -0.0433  1.9770 -1.5879
  777MOL0     H 2557   1.849   6.596  -0.012 -2.3152  0.4271  0.6996
  777MOL0     H 2558   1.749   6.792  -0.217  1.3143 -1.5177 -2.2736
  777MOL0     H 2559   1.917   6.812  -0.158 -0.0507 -0.0777 -2.0352
  777MOL0     H 2560   1.777   6.954  -0.044 -0.4913 -0.8076 -1.6840
  777MOL0     H 2561   1.689   6.816   0.035 -1.5379  1.4359 -0.9408
  777MOL0     H 2562   2.019   6.795   0.274 -0.0173 -4.4147 -0.2448
  777MOL0     H 2563   2.215   6.765  -0.111 -3.3774  2.2711  0.4494
  777MOL0     H 2564   2.351   6.748   0.115 -1.6632  3.2143 -2.2226
  778MOL0     O 2565   0.105  10.149   0.775 -0.7517 -0.0500 -0.6258
  778MOL0     C 2566   0.054  10.197   0.670 -0.3934 -0.4960  0.4179
  778MOL0     O 2567  -0.076  10.236   0.652 -1.0322 -0.0485 -0.1828
  778MOL0     C 2568  -0.166  10.185   0.738  0.5731 -0.0285 -0.0336
  778MOL0     C 2569  -0.159  10.057   0.802  0.3753 -0.2023 -0.3700
  778MOL0     C 2570  -0.273  10.011   0.880  0.2195 -0.2586  0.4671
  778MOL0     C 2571  -0.378  10.102   0.913 -0.3030  0.3969  0.9013
  778MOL0     O 2572  -0.481  10.063   0.991  0.5126 -0.4358 -0.2999
  778MOL0     C 2573  -0.486  10.118   1.124  0.4922  0.7050  0.0397
  778MOL0     C 2574  -0.519  10.018   1.234  0.9019 -0.0918  0.0403
  778MOL0     C 2575  -0.662   9.984   1.247  0.7003 -0.7230 -0.0400
  778MOL0     C 2576  -0.676   9.845   1.301 -0.0358 -0.7898 -0.2641
  778MOL0     C 2577  -0.812   9.822   1.362 -1.1614  0.0964 -0.0556
  778MOL0     C 2578  -0.826   9.888   1.501  0.9814 -0.5955  0.2225
  778MOL0     C 2579  -0.738   9.817   1.605 -0.3650 -0.1392  0.8039
  778MOL0     C 2580  -0.761   9.861   1.747  0.5606  1.0429 -0.3081
  778MOL0     N 2581  -0.896   9.850   1.812  0.5775  0.1893  0.3071
  778MOL0     C 2582  -0.915   9.775   1.927 -0.4706 -0.4785 -0.0843
  778MOL0     C 2583  -1.046   9.777   1.945  0.9797  0.4788 -0.4038
  778MOL0     C 2584  -1.125   9.703   2.053 -0.7711  0.1702  0.0933
  778MOL0     C 2585  -1.151   9.787   2.177 -0.5532  0.3590 -0.1904
  778MOL0     C 2586  -1.251   9.898   2.146 -0.2230  0.0072 -0.7101
  778MOL0     C 2587  -1.393   9.848   2.117 -0.0818  0.6340  0.0227
  778MOL0     O 2588  -1.476   9.964   2.119  1.0614 -0.6599  0.2630
  778MOL0     C 2589  -1.504  10.024   1.996  0.6018 -0.5287 -0.1407
  778MOL0     C 2590  -1.440   9.992   1.873  0.7186  0.2226  0.8044
  778MOL0     C 2591  -1.476  10.058   1.747 -0.3989 -0.0320 -0.1604
  778MOL0     C 2592  -1.585  10.148   1.745  0.6433  0.0602  0.7222
  778MOL0     C 2593  -1.622  10.231   1.627 -0.4818  1.0717 -0.3567
  778MOL0     O 2594  -1.582  10.177   1.508 -0.3291  0.2957  0.6026
  778MOL0     C 2595  -1.608  10.241   1.387 -0.9210  0.4699 -1.6609
  778MOL0     C 2596  -1.636  10.374   1.362 -0.4127 -0.1043 -0.4219
  778MOL0     C 2597  -1.661  10.414   1.228 -0.2753 -0.0661  0.3713
  778MOL0     C 2598  -1.652  10.326   1.119 -0.9281 -0.0548  0.0686
  778MOL0     O 2599  -1.682  10.344   0.987 -0.6211  0.9458  0.3411
  778MOL0     C 2600  -1.718  10.474   0.936  0.4284 -0.7825  0.4011
  778MOL0     C 2601  -1.870  10.505   0.953  0.5363 -0.8608 -0.3023
  778MOL0     C 2602  -1.968  10.485   0.827  0.5009  0.1900  0.2220
  778MOL0     C 2603  -2.114  10.508   0.874 -0.1738 -0.6288 -0.8094
  778MOL0     C 2604  -2.204  10.473   0.754 -0.1770 -0.1372  0.9907
  778MOL0     C 2605  -2.350  10.524   0.789 -0.0609 -0.2587  0.6524
  778MOL0     C 2606  -2.413  10.473   0.910  1.4609  0.2767 -0.2428
  778MOL0     C 2607  -2.492  10.345   0.893  0.2504  1.0039 -0.1241
  778MOL0    Cl 2608  -2.635  10.380   0.789  0.6264  0.2131  0.4393
  778MOL0     C 2609  -1.604  10.204   1.148 -0.6290 -0.9414 -0.9258
  778MOL0     C 2610  -1.592  10.156   1.281  0.9589 -0.5030  0.5690
  778MOL0     O 2611  -1.683  10.338   1.644 -0.6550  0.1737 -0.0794
  778MOL0     C 2612  -1.650  10.178   1.865  0.6010  1.2981  0.1576
  778MOL0     C 2613  -1.611  10.117   1.985  0.3334 -0.2119  0.0046
  778MOL0     N 2614  -1.107   9.847   1.845  0.6346 -0.3142  0.5976
  778MOL0     N 2615  -1.016   9.893   1.769  0.5146  0.0643  0.3518
  778MOL0     C 2616  -0.383  10.234   0.850  0.0375 -0.3814 -0.6503
  778MOL0     C 2617  -0.280  10.263   0.759 -0.1413 -0.6975  0.1395
  778MOL0     C 2618   0.141  10.204   0.554  0.2428 -0.0529 -0.0434
  778MOL0     C 2619   0.282  10.191   0.564  0.6011 -1.0946  0.3109
  778MOL0     C 2620   0.356  10.203   0.451 -0.4843 -0.9468 -0.1221
  778MOL0     C 2621   0.303  10.222   0.324 -0.4575 -0.0510 -0.1117
  778MOL0     O 2622   0.379  10.208   0.211  1.2193  0.8801 -0.0697
  778MOL0     C 2623   0.407  10.326   0.141 -0.2935 -0.4396 -0.0330
  778MOL0     C 2624   0.477  10.286   0.013 -0.4786  0.2248  1.0731
  778MOL0     C 2625   0.503  10.410  -0.064 -0.2732 -0.1074 -0.0112
  778MOL0     C 2626   0.639  10.477  -0.024 -0.2597  0.3028  0.1784
  778MOL0     C 2627   0.646  10.548   0.101 -0.3142  0.2744  0.5558
  778MOL0     C 2628   0.659  10.614   0.204  0.2333  0.4721  0.0694
  778MOL0     C 2629   0.166  10.239   0.324  0.9915  0.7879 -0.3184
  778MOL0     C 2630   0.076  10.233   0.431  0.3216 -0.9507 -0.3138
  778MOL0     H 2631  -0.079   9.987   0.783  0.2868 -0.7097  1.0363
  778MOL0     H 2632  -0.284   9.911   0.920 -1.1086  1.6075  5.6002
  778MOL0     H 2633  -0.555  10.202   1.130 -0.5533 -0.1817  1.1205
  778MOL0     H 2634  -0.387  10.144   1.163  1.2399  0.6655 -1.7205
  778MOL0     H 2635  -0.479  10.052   1.330  2.2900  2.6065 -1.3874
  778MOL0     H 2636  -0.457   9.933   1.205 -1.5165 -0.9859 -3.0293
  778MOL0     H 2637  -0.714   9.981   1.151  0.7000  1.3784 -0.1339
  778MOL0     H 2638  -0.713  10.060   1.307  0.3432 -1.8353  1.1094
  778MOL0     H 2639  -0.670   9.767   1.224 -0.6741 -1.0903 -0.0189
  778MOL0     H 2640  -0.596   9.813   1.368  1.2977  0.6657 -1.0957
  778MOL0     H 2641  -0.814   9.713   1.373 -1.4358  0.3320  3.1094
  778MOL0     H 2642  -0.887   9.861   1.293  0.4072 -0.0678 -1.9567
  778MOL0     H 2643  -0.933   9.898   1.525  0.4512  0.7367 -2.3198
  778MOL0     H 2644  -0.796   9.993   1.491 -2.2790  0.4397  0.1258
  778MOL0     H 2645  -0.751   9.708   1.603 -1.0640 -0.0554 -0.4705
  778MOL0     H 2646  -0.633   9.841   1.585 -0.3704 -0.6689  0.1099
  778MOL0     H 2647  -0.724   9.964   1.756  2.9180  0.5976 -3.2293
  778MOL0     H 2648  -0.693   9.801   1.808  0.6111  0.5469 -0.8453
  778MOL0     H 2649  -0.842   9.711   1.975  1.6868  2.0427  0.2119
  778MOL0     H 2650  -1.083   9.604   2.073 -1.7759 -0.4603 -0.8034
  778MOL0     H 2651  -1.219   9.665   2.012  0.5545 -3.1118 -0.2315
  778MOL0     H 2652  -1.058   9.830   2.216 -0.7208 -0.5457  1.2834
  778MOL0     H 2653  -1.187   9.725   2.260 -1.4143  0.9446 -0.1125
  778MOL0     H 2654  -1.238   9.968   2.229 -1.0540  2.5656 -2.5990
  778MOL0     H 2655  -1.220   9.944   2.051  0.7250  0.8240 -0.0174
  778MOL0     H 2656  -1.426   9.787   2.202 -0.4687  0.2021 -0.4295
  778MOL0     H 2657  -1.395   9.780   2.031 -2.5682  0.3556  0.2365
  778MOL0     H 2658  -1.353   9.928   1.872  1.9409  1.8068  0.9378
  778MOL0     H 2659  -1.408  10.051   1.663  1.0456  0.1629  0.9333
  778MOL0     H 2660  -1.652  10.450   1.438  0.9177  0.5556 -0.7646
  778MOL0     H 2661  -1.703  10.514   1.221 -0.8988 -0.1308  2.5371
  778MOL0     H 2662  -1.691  10.477   0.830  1.9375 -0.1219  0.7728
  778MOL0     H 2663  -1.665  10.560   0.978 -1.5588  1.3322 -1.1567
  778MOL0     H 2664  -1.881  10.612   0.972 -2.6678 -0.9379 -1.2092
  778MOL0     H 2665  -1.912  10.457   1.043 -1.2054  2.0569  0.5856
  778MOL0     H 2666  -1.959  10.383   0.789  1.1494  0.4075 -0.2281
  778MOL0     H 2667  -1.954  10.553   0.743 -3.6093 -0.4483 -1.1812
  778MOL0     H 2668  -2.142  10.452   0.964 -0.2107  4.3623  2.7084
  778MOL0     H 2669  -2.127  10.615   0.895  1.5201 -0.0402 -2.4061
  778MOL0     H 2670  -2.204  10.364   0.746 -0.9781 -0.3499  3.0188
  778MOL0     H 2671  -2.166  10.526   0.667  1.7906 -1.4688  0.9794
  778MOL0     H 2672  -2.410  10.530   0.697  1.3945  0.1661 -0.3080
  778MOL0     H 2673  -2.325  10.629   0.806 -1.8465  0.1163  1.2541
  778MOL0     H 2674  -2.346  10.462   0.995 -0.9554 -4.3177  1.4436
  778MOL0     H 2675  -2.496  10.539   0.940  0.6863 -0.2626 -1.1313
  778MOL0     H 2676  -2.528  10.311   0.991 -0.4874  1.5049 -0.2156
  778MOL0     H 2677  -2.442  10.262   0.841  2.6791  0.8059  2.3234
  778MOL0     H 2678  -1.599  10.139   1.062 -2.2654 -1.4860 -0.6346
  778MOL0     H 2679  -1.553  10.056   1.293 -1.0983 -1.5877 -1.0154
  778MOL0     H 2680  -1.724  10.257   1.859  1.5447  2.2692  0.8117
  778MOL0     H 2681  -1.673  10.138   2.072  0.7308 -2.2411  0.8413
  778MOL0     H 2682  -0.463  10.308   0.855 -3.0131 -3.2886 -1.9830
  778MOL0     H 2683  -0.288  10.351   0.695  1.8122 -1.2493 -0.9463
  778MOL0     H 2684   0.336  10.168   0.655  1.8248  0.8913  0.1452
  778MOL0     H 2685   0.464  10.194   0.457 -0.2145  0.6127 -1.8891
  778MOL0     H 2686   0.471  10.390   0.203 -0.3393  0.3376 -0.7746
  778MOL0     H 2687   0.326  10.397   0.126  2.8757  3.0701 -2.2283
  778MOL0     H 2688   0.568  10.228   0.034  0.6070  1.2095 -0.5945
  778MOL0     H 2689   0.422  10.222  -0.056  1.3418  1.7989 -2.0592
  778MOL0     H 2690   0.430  10.491  -0.053  1.4449  1.2028  3.0842
  778MOL0     H 2691   0.517  10.380  -0.168 -4.2659 -4.3920  0.3705
  778MOL0     H 2692   0.711  10.395  -0.018 -1.0973 -0.4335  0.2460
  778MOL0     H 2693   0.665  10.547  -0.104 -2.4634  0.6323 -0.3138
  778MOL0     H 2694   0.669  10.659   0.301 -0.7910  0.3020  0.2628
  778MOL0     H 2695   0.105  10.267   0.238  1.5993  0.4439 -0.8698
  778MOL0     H 2696  -0.030  10.254   0.423  0.8057  1.7915 -0.8076
  779MOL0     O 2697   2.390   4.729   6.635  0.7084  0.1354  0.5328
  779MOL0     C 2698   2.436   4.843   6.650 -0.3254 -0.1850  0.3192
  779MOL0     O 2699   2.564   4.867   6.690  0.8244 -0.5634 -0.1642
  779MOL0     C 2700   2.645   4.943   6.601 -0.2906 -0.8007 -0.3290
  779MOL0     C 2701   2.769   4.963   6.654 -0.3142  1.4227  0.4682
  779MOL0     C 2702   2.869   5.027   6.579  0.7389  0.0497 -0.2567
  779MOL0     C 2703   2.835   5.089   6.452 -0.3776 -0.2683  0.2344
  779MOL0     O 2704   2.933   5.164   6.401 -0.6505  0.5111  0.2051
  779MOL0     C 2705   2.971   5.123   6.266  0.7484  0.6327 -0.2186
  779MOL0     C 2706   3.015   5.245   6.183 -0.6948  0.2226 -0.1407
  779MOL0     C 2707   3.145   5.304   6.221 -0.3458 -0.4150 -0.0367
  779MOL0     C 2708   3.151   5.448   6.178  0.0510  0.2855  0.6304
  779MOL0     C 2709   3.288   5.508   6.228  1.1493  0.0254  0.2834
  779MOL0     C 2710   3.323   5.624   6.141  1.3832 -0.0949  1.3219
  779MOL0     C 2711   3.430   5.725   6.200 -0.2081 -0.3538  0.1990
  779MOL0     C 2712   3.564   5.650   6.216 -0.1883  0.1999  0.4297
  779MOL0     N 2713   3.669   5.745   6.264 -0.2350 -0.6449 -0.4303
  779MOL0     C 2714   3.771   5.799   6.185  0.1627 -0.1182  0.7070
  779MOL0     C 2715   3.859   5.866   6.260  0.6384  0.8177 -0.2721
  779MOL0     C 2716   3.995   5.894   6.218  0.7180  0.3674 -0.6561
  779MOL0     C 2717   3.995   5.976   6.082 -0.7862  0.3665 -1.0507
  779MOL0     C 2718   4.139   6.017   6.037  0.7040 -0.6752 -0.6785
  779MOL0     C 2719   4.119   6.096   5.910  0.2023 -0.1772  0.8538
  779MOL0     O 2720   4.040   6.027   5.805 -0.6116 -0.0311 -0.1501
  779MOL0     C 2721   4.098   5.936   5.717  0.2561  0.5110 -0.5681
  779MOL0     C 2722   4.220   5.881   5.733  0.6800 -0.2516 -0.2141
  779MOL0     C 2723   4.259   5.777   5.647 -0.4552 -1.3097 -0.8354
  779MOL0     C 2724   4.183   5.735   5.540 -0.3797 -0.1232  0.2843
  779MOL0     C 2725   4.217   5.607   5.464 -0.0287 -0.3859 -0.5557
  779MOL0     O 2726   4.342   5.549   5.478  0.3762  0.1703 -0.8347
  779MOL0     C 2727   4.365   5.430   5.405  0.7777 -0.6294 -1.0215
  779MOL0     C 2728   4.421   5.314   5.460 -0.0292  0.5404 -0.4340
  779MOL0     C 2729   4.455   5.204   5.378  0.2323 -0.3264 -0.6518
  779MOL0     C 2730   4.428   5.204   5.245  0.3580 -0.5460 -0.0980
  779MOL0     O 2731   4.462   5.103   5.154  1.0402 -0.3228 -0.8988
  779MOL0     C 2732   4.596   5.050   5.151 -0.0031  0.2849  0.5251
  779MOL0     C 2733   4.688   5.156   5.117 -0.2355 -0.3439  0.5446
  779MOL0     C 2734   4.836   5.106   5.105  0.5194  0.0115 -0.9843
  779MOL0     C 2735   4.858   4.998   4.996  0.5520  0.1918 -0.1574
  779MOL0     C 2736   5.000   4.952   4.998 -0.6716 -0.1959  1.2142
  779MOL0     C 2737   5.021   4.803   4.962  0.4199  0.3427 -0.1975
  779MOL0     C 2738   4.956   4.778   4.828 -0.0281  0.2662 -0.4374
  779MOL0     C 2739   4.824   4.702   4.831  0.7646  0.2527  0.0679
  779MOL0    Cl 2740   4.848   4.529   4.868 -0.3535 -0.1600  0.0734
  779MOL0     C 2741   4.370   5.312   5.185 -0.5170  0.3992  0.6349
  779MOL0     C 2742   4.345   5.429   5.265  0.2491 -0.2743  0.4205
  779MOL0     O 2743   4.128   5.556   5.401  0.3327 -0.6239  0.6028
  779MOL0     C 2744   4.067   5.805   5.516  0.8822  0.9103  0.0423
  779MOL0     C 2745   4.021   5.904   5.596  0.1168 -0.0554  0.4747
  779MOL0     N 2746   3.812   5.845   6.394 -0.0721  0.1635 -0.7286
  779MOL0     N 2747   3.695   5.778   6.396 -1.1943  0.0045 -0.2746
  779MOL0     C 2748   2.705   5.083   6.408 -0.3619  0.3414 -0.2502
  779MOL0     C 2749   2.608   5.013   6.482 -0.4452  0.6914 -0.7904
  779MOL0     C 2750   2.345   4.955   6.655 -0.4022  0.0205  0.3098
  779MOL0     C 2751   2.382   5.080   6.705  0.3366 -0.7207 -0.7349
  779MOL0     C 2752   2.281   5.174   6.719 -0.2976 -0.2958  0.1493
  779MOL0     C 2753   2.151   5.162   6.674 -1.0053  1.3063  0.9577
  779MOL0     O 2754   2.056   5.264   6.671 -0.5315 -0.7350 -0.7420
  779MOL0     C 2755   2.045   5.344   6.794  0.3634 -0.2977  1.1022
  779MOL0     C 2756   1.913   5.414   6.811 -0.2474 -0.5011 -0.1134
  779MOL0     C 2757   1.784   5.347   6.790  0.7514  0.2342 -0.0329
  779MOL0     C 2758   1.715   5.402   6.657 -0.2012  0.1718 -0.2396
  779MOL0     C 2759   1.576   5.360   6.659  0.4775  0.9994  1.0430
  779MOL0     C 2760   1.461   5.312   6.649  0.0072 -0.0964  0.1527
  779MOL0     C 2761   2.110   5.041   6.619  0.5553 -0.1493 -0.4922
  779MOL0     C 2762   2.206   4.939   6.612  0.2754  0.1179 -1.3319
  779MOL0     H 2763   2.786   4.933   6.757 -0.2673 -3.2249 -0.6832
  779MOL0     H 2764   2.970   5.035   6.618 -0.1526  4.7176  1.8498
  779MOL0     H 2765   2.891   5.071   6.211  1.5760 -0.5014 -0.4036
  779MOL0     H 2766   3.054   5.052   6.273 -0.7786 -1.0561  2.1862
  779MOL0     H 2767   2.935   5.320   6.178 -1.1648 -0.2894 -0.6145
  779MOL0     H 2768   3.017   5.233   6.074 -0.2260 -0.0333 -0.1062
  779MOL0     H 2769   3.216   5.238   6.169 -1.6639 -0.3018 -2.0947
  779MOL0     H 2770   3.155   5.297   6.330  6.7029 -1.9320 -0.2890
  779MOL0     H 2771   3.147   5.442   6.069 -0.7731  1.8516  0.5501
  779MOL0     H 2772   3.068   5.507   6.217 -0.8259  1.2359 -2.3658
  779MOL0     H 2773   3.367   5.432   6.223  1.0070 -0.0148 -2.2050
  779MOL0     H 2774   3.279   5.537   6.333 -2.2101 -1.0228  0.4022
  779MOL0     H 2775   3.237   5.685   6.110  2.3458 -0.6987 -3.1319
  779MOL0     H 2776   3.366   5.594   6.045 -1.6806  1.7437 -0.8118
  779MOL0     H 2777   3.434   5.804   6.125 -0.2835 -0.5047  0.0344
  779MOL0     H 2778   3.392   5.771   6.292  1.4359  0.5219  0.4815
  779MOL0     H 2779   3.590   5.604   6.121 -1.1037 -0.6369  0.5642
  779MOL0     H 2780   3.554   5.577   6.297 -1.6799  1.7337  1.7047
  779MOL0     H 2781   3.785   5.782   6.079 -1.5571 -4.0807  0.9261
  779MOL0     H 2782   4.039   5.794   6.205 -2.1233 -0.7325 -2.9277
  779MOL0     H 2783   4.040   5.950   6.300  0.8415 -0.5745 -0.0616
  779MOL0     H 2784   3.942   6.071   6.095  1.5982  1.7673 -1.0533
  779MOL0     H 2785   3.946   5.910   6.009 -1.1705 -0.3954 -0.1256
  779MOL0     H 2786   4.205   6.061   6.113  0.9027  1.5504 -2.0430
  779MOL0     H 2787   4.191   5.923   6.019  0.4113 -0.6171 -1.9532
  779MOL0     H 2788   4.215   6.128   5.868 -1.3976  2.2326 -1.3206
  779MOL0     H 2789   4.067   6.191   5.926  0.3135 -0.0134  0.2833
  779MOL0     H 2790   4.283   5.902   5.819  1.4997  0.5836 -0.9906
  779MOL0     H 2791   4.352   5.725   5.669  0.0448 -0.4481 -0.8397
  779MOL0     H 2792   4.438   5.306   5.567 -6.2142 -3.4248  0.7096
  779MOL0     H 2793   4.494   5.113   5.421 -0.2420  0.1463  0.8369
  779MOL0     H 2794   4.605   4.960   5.089  2.1997  1.6432 -1.2737
  779MOL0     H 2795   4.628   5.014   5.250  1.2559 -5.0252 -1.4351
  779MOL0     H 2796   4.703   5.236   5.189  1.2794 -1.2277  1.2592
  779MOL0     H 2797   4.650   5.201   5.025  0.9195 -0.2413  0.1048
  779MOL0     H 2798   4.853   5.059   5.203 -1.2275  1.3894  0.0462
  779MOL0     H 2799   4.908   5.186   5.086  0.4355  0.1760 -0.6280
  779MOL0     H 2800   4.797   4.912   5.026 -0.2720  0.1331 -1.9306
  779MOL0     H 2801   4.837   5.044   4.900  0.7092  0.1722 -0.2010
  779MOL0     H 2802   5.045   4.965   5.097  1.4916 -1.9409  0.5491
  779MOL0     H 2803   5.066   5.010   4.932  0.5186  0.2472  2.7206
  779MOL0     H 2804   4.973   4.734   5.032  2.5955 -1.6869 -0.5748
  779MOL0     H 2805   5.126   4.774   4.948  0.7918  1.9026 -0.7590
  779MOL0     H 2806   4.947   4.873   4.774  0.0972  2.0653  2.5097
  779MOL0     H 2807   5.024   4.722   4.764 -0.5749  1.4496 -2.1322
  779MOL0     H 2808   4.781   4.702   4.730  0.9248 -1.8472 -0.0613
  779MOL0     H 2809   4.760   4.747   4.907  2.1929 -1.1611  2.2390
  779MOL0     H 2810   4.353   5.314   5.077 -0.4896  0.1341  0.6240
  779MOL0     H 2811   4.311   5.524   5.225  0.8693 -1.0886 -2.2746
  779MOL0     H 2812   4.004   5.772   5.434  0.4583  0.2078  0.6346
  779MOL0     H 2813   3.925   5.954   5.589  1.2027  2.1387  0.3523
  779MOL0     H 2814   2.670   5.135   6.319  0.0994  2.0221  0.5205
  779MOL0     H 2815   2.512   5.004   6.432 -2.6894  0.6984  3.1063
  779MOL0     H 2816   2.481   5.100   6.744  1.2125 -3.4636 -1.2848
  779MOL0     H 2817   2.328   5.262   6.761  0.8854 -2.2040  3.2718
  779MOL0     H 2818   2.127   5.416   6.794 -1.3582  1.7930  0.8475
  779MOL0     H 2819   2.051   5.281   6.883 -1.6980  1.5646  2.7049
  779MOL0     H 2820   1.921   5.443   6.916  1.7016 -0.9353 -0.1040
  779MOL0     H 2821   1.920   5.499   6.743 -0.3056 -2.9554 -3.4219
  779MOL0     H 2822   1.726   5.360   6.882  2.3427 -0.7180  1.1595
  779MOL0     H 2823   1.810   5.241   6.781  0.8444  0.1154  1.4238
  779MOL0     H 2824   1.711   5.511   6.649  0.8500  0.6075  3.5167
  779MOL0     H 2825   1.778   5.384   6.569  1.9003  1.4814  0.9261
  779MOL0     H 2826   1.371   5.262   6.623  0.8759 -0.8595 -1.5116
  779MOL0     H 2827   2.007   5.037   6.584 -0.5580  1.6116  2.1844
  779MOL0     H 2828   2.175   4.845   6.568  1.4018 -1.1941  0.5176
  780MOL0     O 2829   5.257   4.137   7.373 -0.7369 -0.3466 -0.0017
  780MOL0     C 2830   5.169   4.063   7.423  0.0071 -0.0251 -0.2617
  780MOL0     O 2831   5.161   3.926   7.412 -0.3278 -0.4475 -0.0491
  780MOL0     C 2832   5.268   3.863   7.341 -0.1856 -0.2944  0.6564
  780MOL0     C 2833   5.410   3.883   7.378 -0.5016  0.3938 -0.4624
  780MOL0     C 2834   5.496   3.809   7.309 -0.4247 -0.2041 -0.1097
  780MOL0     C 2835   5.464   3.716   7.206  0.6902 -0.0507 -0.4782
  780MOL0     O 2836   5.560   3.655   7.140 -0.4320 -0.2527 -0.5619
  780MOL0     C 2837   5.640   3.741   7.048  1.0438 -0.3860 -0.0313
  780MOL0     C 2838   5.738   3.649   6.970 -0.2143  0.1418 -0.7659
  780MOL0     C 2839   5.838   3.721   6.891 -1.1853  0.5971 -0.2128
  780MOL0     C 2840   5.956   3.630   6.850 -0.2544  0.3738  0.1146
  780MOL0     C 2841   6.067   3.708   6.786 -0.1881  0.4612  0.4675
  780MOL0     C 2842   6.157   3.605   6.717  0.4083 -0.3648  0.0374
  780MOL0     C 2843   6.265   3.700   6.658  0.1091 -0.7281 -0.1381
  780MOL0     C 2844   6.343   3.623   6.557 -0.4546  0.0212  0.6667
  780MOL0     N 2845   6.431   3.520   6.617  0.3771 -0.8477  1.3781
  780MOL0     C 2846   6.560   3.547   6.657 -0.9828  0.5257 -0.3317
  780MOL0     C 2847   6.624   3.431   6.671 -0.1386  0.5087  0.2544
  780MOL0     C 2848   6.760   3.417   6.737 -0.0061 -0.7127 -0.7498
  780MOL0     C 2849   6.798   3.262   6.740 -0.7233 -0.1484 -0.9935
  780MOL0     C 2850   6.801   3.194   6.602 -0.0750  0.7594 -0.3399
  780MOL0     C 2851   6.931   3.113   6.580  0.5166 -1.4713  0.8520
  780MOL0     O 2852   6.924   3.030   6.464 -0.2080 -0.3898  0.1789
  780MOL0     C 2853   7.025   2.943   6.438  0.3496  0.5408 -0.1506
  780MOL0     C 2854   7.121   2.899   6.527 -1.1472 -0.5399 -0.5761
  780MOL0     C 2855   7.235   2.825   6.478 -0.7633 -0.6463  0.4699
  780MOL0     C 2856   7.230   2.761   6.352 -0.5281  0.1152  0.9894
  780MOL0     C 2857   7.332   2.654   6.310 -0.5360 -1.1383 -0.4845
  780MOL0     O 2858   7.432   2.629   6.404 -0.4231 -0.1023  0.0938
  780MOL0     C 2859   7.506   2.513   6.390  0.0978 -0.0489 -1.1227
  780MOL0     C 2860   7.450   2.388   6.363 -0.1932  0.0074 -0.2780
  780MOL0     C 2861   7.532   2.282   6.349  0.2009  0.6838 -0.2711
  780MOL0     C 2862   7.672   2.296   6.372  0.1504  0.2037  0.1878
  780MOL0     O 2863   7.766   2.202   6.341 -0.2218  0.1129 -0.5800
  780MOL0     C 2864   7.734   2.065   6.316  0.1640  0.2300  0.5039
  780MOL0     C 2865   7.828   2.011   6.202  0.0305 -0.2635 -0.4132
  780MOL0     C 2866   7.796   1.870   6.176  0.3830 -0.1255 -0.4985
  780MOL0     C 2867   7.813   1.776   6.299 -0.6970 -0.4761 -0.3732
  780MOL0     C 2868   7.682   1.710   6.351 -0.3811 -0.7242  0.2809
  780MOL0     C 2869   7.698   1.642   6.487 -0.0880 -0.4807  0.4555
  780MOL0     C 2870   7.801   1.528   6.480 -0.0015  1.0281 -1.2793
  780MOL0     C 2871   7.824   1.479   6.625  0.4284 -0.7615 -0.2481
  780MOL0    Cl 2872   7.666   1.412   6.699  0.0354 -0.0814 -0.3279
  780MOL0     C 2873   7.728   2.417   6.412  0.0197  0.7422  0.5101
  780MOL0     C 2874   7.643   2.529   6.421 -0.5137 -0.1828  0.1246
  780MOL0     O 2875   7.317   2.603   6.199  0.4497  0.7333 -0.3338
  780MOL0     C 2876   7.120   2.798   6.269 -0.7511  0.0273  1.0413
  780MOL0     C 2877   7.027   2.890   6.315 -0.5324  0.1696  0.2136
  780MOL0     N 2878   6.539   3.331   6.628 -0.7279 -0.7895  0.2720
  780MOL0     N 2879   6.421   3.383   6.609 -0.9346 -0.2657 -0.2606
  780MOL0     C 2880   5.328   3.709   7.170 -0.3443 -0.3816  0.1778
  780MOL0     C 2881   5.231   3.788   7.230 -0.6286  0.9612  0.0888
  780MOL0     C 2882   5.077   4.142   7.515  0.9728  0.8949 -0.6432
  780MOL0     C 2883   4.980   4.068   7.593  0.0241  0.0135 -0.2774
  780MOL0     C 2884   4.909   4.124   7.702  0.1621 -0.7327  0.7058
  780MOL0     C 2885   4.920   4.258   7.724  0.2964  0.4717  0.1830
  780MOL0     O 2886   4.859   4.328   7.832  0.1340 -0.2721  0.6201
  780MOL0     C 2887   4.767   4.262   7.925 -0.2085  0.0267 -0.3072
  780MOL0     C 2888   4.719   4.347   8.041  0.4732 -0.1806  1.0205
  780MOL0     C 2889   4.839   4.388   8.120  0.0446 -0.3396 -0.3803
  780MOL0     C 2890   4.805   4.392   8.267 -0.5524 -0.4890  0.0230
  780MOL0     C 2891   4.906   4.475   8.344  1.0338  0.5800  0.2034
  780MOL0     C 2892   4.984   4.561   8.384  0.5491 -0.5132 -0.0664
  780MOL0     C 2893   5.014   4.336   7.653  0.1434  0.4167  0.0063
  780MOL0     C 2894   5.094   4.271   7.558 -0.1323 -0.7048 -0.5913
  780MOL0     H 2895   5.434   3.951   7.459  0.0971 -1.5757  1.1021
  780MOL0     H 2896   5.602   3.828   7.324 -0.8997  1.4161  1.6409
  780MOL0     H 2897   5.704   3.816   7.093  4.2539 -0.3456 -4.1104
  780MOL0     H 2898   5.576   3.801   6.982 -0.2698  1.2213  2.5560
  780MOL0     H 2899   5.685   3.583   6.900  0.6943 -0.8399 -0.5689
  780MOL0     H 2900   5.800   3.596   7.043  0.6167  1.3762 -0.5472
  780MOL0     H 2901   5.885   3.798   6.952 -0.4668  1.6073 -1.9606
  780MOL0     H 2902   5.791   3.771   6.805 -1.1896  1.5339  0.3298
  780MOL0     H 2903   5.994   3.578   6.938  3.3731  2.8725  0.2511
  780MOL0     H 2904   5.913   3.559   6.779  1.6902 -0.6373 -0.1242
  780MOL0     H 2905   6.119   3.757   6.868 -1.9066  2.3974  0.4764
  780MOL0     H 2906   6.030   3.787   6.720  0.3520 -0.5062 -1.0654
  780MOL0     H 2907   6.091   3.565   6.639 -3.1902  3.9307  0.4879
  780MOL0     H 2908   6.208   3.535   6.784  1.4030 -0.3820 -0.7143
  780MOL0     H 2909   6.225   3.792   6.614 -1.2326 -1.6722 -0.9438
  780MOL0     H 2910   6.340   3.732   6.731  1.0104 -1.4481 -0.7269
  780MOL0     H 2911   6.406   3.687   6.494 -1.7528 -1.3022 -2.1839
  780MOL0     H 2912   6.270   3.573   6.493  1.0843 -4.2573  1.9080
  780MOL0     H 2913   6.607   3.643   6.675  1.4629 -0.1617 -2.3514
  780MOL0     H 2914   6.741   3.455   6.838 -3.6043 -1.6697 -0.9285
  780MOL0     H 2915   6.834   3.479   6.686  0.8547 -1.8366 -0.9007
  780MOL0     H 2916   6.725   3.212   6.803  0.2318 -0.3852 -0.0476
  780MOL0     H 2917   6.894   3.256   6.792 -0.4473  0.4391 -1.4193
  780MOL0     H 2918   6.714   3.129   6.589 -2.6594  3.4913  1.8811
  780MOL0     H 2919   6.797   3.265   6.519 -1.5971 -2.0086 -2.8296
  780MOL0     H 2920   6.946   3.043   6.663  3.1345 -1.4943  0.4401
  780MOL0     H 2921   7.008   3.190   6.580 -0.5035 -0.3636 -0.9244
  780MOL0     H 2922   7.113   2.918   6.634 -1.6425 -0.7303 -0.5762
  780MOL0     H 2923   7.314   2.797   6.547  1.3796 -1.4675 -2.1458
  780MOL0     H 2924   7.346   2.361   6.351  0.1806 -1.7420  0.0632
  780MOL0     H 2925   7.493   2.186   6.315  1.1113 -0.1823  1.0538
  780MOL0     H 2926   7.634   2.045   6.277  1.2243 -3.3058 -0.7104
  780MOL0     H 2927   7.738   2.013   6.412 -2.3751 -0.4680  0.3179
  780MOL0     H 2928   7.935   2.015   6.224 -0.5936 -0.7207  3.4078
  780MOL0     H 2929   7.796   2.071   6.116 -2.8892 -0.9672  0.0660
  780MOL0     H 2930   7.857   1.825   6.097  2.4670  0.9552  0.4151
  780MOL0     H 2931   7.694   1.870   6.135  0.3218 -1.3574 -0.3687
  780MOL0     H 2932   7.901   1.711   6.293  1.2905  2.0305 -0.4246
  780MOL0     H 2933   7.859   1.842   6.374  1.0559 -1.0692 -0.8820
  780MOL0     H 2934   7.640   1.640   6.278 -0.5723  0.4161 -0.7450
  780MOL0     H 2935   7.595   1.777   6.355 -1.3914 -2.0350  1.4888
  780MOL0     H 2936   7.594   1.615   6.505 -1.5548 -0.1044 -5.4144
  780MOL0     H 2937   7.732   1.721   6.554  1.9246  0.8598 -1.9950
  780MOL0     H 2938   7.770   1.437   6.427 -2.1735  1.8321 -1.5052
  780MOL0     H 2939   7.894   1.563   6.435  0.6368  2.6974  1.1576
  780MOL0     H 2940   7.846   1.568   6.683 -1.1306 -0.7956  0.4385
  780MOL0     H 2941   7.898   1.398   6.628  1.4948  0.2188  0.2304
  780MOL0     H 2942   7.834   2.429   6.432  0.6577 -0.3676 -1.8557
  780MOL0     H 2943   7.686   2.628   6.434 -0.4331  0.2585 -2.7824
  780MOL0     H 2944   7.098   2.767   6.167  0.1984  2.3819  0.0556
  780MOL0     H 2945   6.946   2.913   6.247 -0.5997 -2.5309 -0.7293
  780MOL0     H 2946   5.307   3.634   7.095  0.3815 -0.0303 -0.3848
  780MOL0     H 2947   5.127   3.780   7.202 -0.0962 -1.7679 -1.4924
  780MOL0     H 2948   4.959   3.962   7.581 -0.3233  0.0199  0.2289
  780MOL0     H 2949   4.834   4.071   7.759  1.1169 -2.5100  0.3707
  780MOL0     H 2950   4.819   4.179   7.974 -1.5548 -0.9621 -0.4901
  780MOL0     H 2951   4.680   4.225   7.869  0.2064  0.8236 -1.5266
  780MOL0     H 2952   4.650   4.426   8.008  1.5307 -0.3605 -1.9290
  780MOL0     H 2953   4.647   4.294   8.103 -0.5214  0.4290  0.4154
  780MOL0     H 2954   4.874   4.474   8.062  2.2987 -2.1061 -1.7864
  780MOL0     H 2955   4.922   4.317   8.122  0.6351  0.3412  0.7634
  780MOL0     H 2956   4.701   4.421   8.280 -1.6414 -3.2298 -1.5950
  780MOL0     H 2957   4.812   4.289   8.303 -0.9470  1.0896  5.5743
  780MOL0     H 2958   5.046   4.644   8.411  0.5415 -0.8730  1.1180
  780MOL0     H 2959   5.028   4.442   7.674 -0.5496  0.8016 -1.3723
  780MOL0     H 2960   5.177   4.333   7.526  0.3572  1.3254  3.8487
  781MOL0     O 2961   2.316   6.940   8.482 -0.0379 -0.5090  0.0661
  781MOL0     C 2962   2.210   6.979   8.545 -0.5436  0.1702 -0.2678
  781MOL0     O 2963   2.198   7.102   8.606  0.2785 -0.3344 -0.7205
  781MOL0     C 2964   2.277   7.201   8.562  0.3567  0.2064 -0.1247
  781MOL0     C 2965   2.414   7.212   8.561 -1.0410  0.3550 -0.2519
  781MOL0     C 2966   2.478   7.335   8.547 -1.0882 -0.8336 -1.1185
  781MOL0     C 2967   2.410   7.452   8.555  0.1075  0.0156  0.5535
  781MOL0     O 2968   2.493   7.568   8.573  0.0430  0.2740 -0.1909
  781MOL0     C 2969   2.476   7.665   8.466 -0.1325 -0.3717  0.0533
  781MOL0     C 2970   2.568   7.781   8.479  0.3564  0.6730 -0.3078
  781MOL0     C 2971   2.560   7.874   8.361  0.8984  0.2139 -0.4473
  781MOL0     C 2972   2.661   7.833   8.254 -0.9107  0.1369  0.5295
  781MOL0     C 2973   2.654   7.907   8.120 -0.6997 -0.3614 -0.4150
  781MOL0     C 2974   2.679   8.059   8.142  0.5020 -0.0815  0.3394
  781MOL0     C 2975   2.802   8.089   8.211  0.4743  1.5768 -0.7738
  781MOL0     C 2976   2.924   8.048   8.135 -1.1049 -0.1265  0.2992
  781MOL0     N 2977   2.917   8.104   8.000  0.5928  0.0125 -0.3460
  781MOL0     C 2978   2.886   8.035   7.884  0.7108  0.7105  0.9778
  781MOL0     C 2979   2.930   8.113   7.782 -0.6017 -1.1739 -0.9249
  781MOL0     C 2980   2.948   8.077   7.637  0.1899 -0.1240 -0.7863
  781MOL0     C 2981   2.822   8.080   7.545 -0.8188 -1.3734  0.0629
  781MOL0     C 2982   2.842   8.000   7.418  0.5915  0.6543  0.0542
  781MOL0     C 2983   2.742   8.019   7.311 -0.1311  1.0142  0.5791
  781MOL0     O 2984   2.765   7.908   7.217 -0.3283  0.0816 -0.3334
  781MOL0     C 2985   2.682   7.882   7.108  0.2314  0.4018  0.2852
  781MOL0     C 2986   2.583   7.969   7.060  0.2416 -0.8829  0.2080
  781MOL0     C 2987   2.516   7.939   6.938 -0.9749 -0.4404  0.4426
  781MOL0     C 2988   2.540   7.821   6.876 -0.0754  0.5510  0.6754
  781MOL0     C 2989   2.451   7.778   6.761  0.2500  0.4974  0.4127
  781MOL0     O 2990   2.397   7.889   6.687 -0.1420 -0.8063 -0.1360
  781MOL0     C 2991   2.301   7.867   6.580 -0.1281  0.2542 -0.2189
  781MOL0     C 2992   2.316   7.781   6.473  0.4079 -0.9370 -0.6070
  781MOL0     C 2993   2.224   7.779   6.368 -0.4098 -0.2541 -0.5739
  781MOL0     C 2994   2.112   7.862   6.381 -0.2963  0.0714 -0.0136
  781MOL0     O 2995   2.008   7.854   6.288 -0.7092 -0.2379 -0.4301
  781MOL0     C 2996   2.020   7.807   6.154  0.1349  0.7091 -0.6710
  781MOL0     C 2997   1.942   7.680   6.121 -0.9113  0.0730 -0.4712
  781MOL0     C 2998   2.043   7.553   6.111  0.4170 -0.0437  1.1681
  781MOL0     C 2999   1.964   7.429   6.109 -0.6386  0.7296  0.0082
  781MOL0     C 3000   2.054   7.305   6.122  0.2541 -0.2089  0.3967
  781MOL0     C 3001   2.000   7.188   6.046 -0.8154 -0.4095  0.2000
  781MOL0     C 3002   2.058   7.209   5.910  0.5058  1.2572  0.1594
  781MOL0     C 3003   2.009   7.110   5.798  0.1717 -0.4344  0.0327
  781MOL0    Cl 3004   1.829   7.061   5.795  0.0867 -0.2799 -0.3494
  781MOL0     C 3005   2.097   7.947   6.484  0.6350  0.5215  0.0495
  781MOL0     C 3006   2.188   7.947   6.594  0.7755  1.0395  0.0923
  781MOL0     O 3007   2.408   7.660   6.758  0.0087 -0.1962 -0.1353
  781MOL0     C 3008   2.637   7.729   6.924  0.9878 -0.0549  0.8889
  781MOL0     C 3009   2.701   7.762   7.037  0.6111  0.5507 -1.0191
  781MOL0     N 3010   2.952   8.240   7.838  0.6525  0.3283  0.0587
  781MOL0     N 3011   2.951   8.229   7.962 -1.0689  0.5986 -0.5870
  781MOL0     C 3012   2.278   7.444   8.552 -0.9806  0.1027  0.4366
  781MOL0     C 3013   2.213   7.323   8.552  0.9998 -0.3318 -0.3084
  781MOL0     C 3014   2.089   6.898   8.524  0.7855  0.5771 -0.2235
  781MOL0     C 3015   1.976   6.932   8.590  0.4488 -0.0223 -0.0554
  781MOL0     C 3016   1.852   6.845   8.583 -0.2348  0.4556 -0.5803
  781MOL0     C 3017   1.851   6.731   8.500  0.4893 -0.9631 -0.1187
  781MOL0     O 3018   1.737   6.656   8.501  0.1453  0.3191  0.0381
  781MOL0     C 3019   1.645   6.665   8.614  0.6668 -0.6944  0.5511
  781MOL0     C 3020   1.534   6.554   8.610 -0.2112 -0.2619 -0.7357
  781MOL0     C 3021   1.441   6.570   8.493 -0.9080  0.0881  0.0186
  781MOL0     C 3022   1.323   6.469   8.494  0.1570 -0.8927 -0.3344
  781MOL0     C 3023   1.351   6.330   8.452 -0.5280 -0.5878 -0.2442
  781MOL0     C 3024   1.362   6.214   8.419 -0.2034 -0.7830  0.4562
  781MOL0     C 3025   1.968   6.712   8.420  0.1228  0.1024 -0.8758
  781MOL0     C 3026   2.084   6.785   8.440  0.4549 -0.7995  0.6599
  781MOL0     H 3027   2.472   7.124   8.587 -0.4899  0.3040 -1.5687
  781MOL0     H 3028   2.587   7.337   8.545 -1.1108  0.2528 -1.6245
  781MOL0     H 3029   2.380   7.717   8.467  0.0483  0.1143 -2.3961
  781MOL0     H 3030   2.495   7.622   8.367 -0.0090  1.9647 -0.9896
  781MOL0     H 3031   2.668   7.738   8.490 -0.8028 -2.9157 -2.1062
  781MOL0     H 3032   2.540   7.834   8.571 -3.3161 -2.8993  0.9139
  781MOL0     H 3033   2.591   7.974   8.394  0.5580 -0.8337  3.4383
  781MOL0     H 3034   2.458   7.873   8.322 -0.5081  1.9399  2.8480
  781MOL0     H 3035   2.762   7.835   8.296 -1.6163 -2.2192  2.6194
  781MOL0     H 3036   2.648   7.728   8.227 -0.4572  0.0575  0.6003
  781MOL0     H 3037   2.556   7.895   8.073 -0.7003  1.4489 -0.9475
  781MOL0     H 3038   2.737   7.867   8.061 -0.3318 -1.4563  0.8069
  781MOL0     H 3039   2.598   8.101   8.202 -0.7049  0.9191 -1.8492
  781MOL0     H 3040   2.672   8.105   8.043 -2.0241  1.7272  1.2336
  781MOL0     H 3041   2.795   8.198   8.222 -0.1618  1.4835 -0.1674
  781MOL0     H 3042   2.812   8.042   8.309 -1.0657  1.6173 -0.5783
  781MOL0     H 3043   2.937   7.941   8.116  0.7923  0.4844 -2.2483
  781MOL0     H 3044   3.008   8.096   8.185 -0.3844 -2.4884  1.4846
  781MOL0     H 3045   2.852   7.934   7.865 -2.0127  1.4334  1.5559
  781MOL0     H 3046   3.000   7.981   7.631 -0.9402 -0.6885 -2.2746
  781MOL0     H 3047   3.021   8.147   7.596 -0.1400  0.2414 -0.7616
  781MOL0     H 3048   2.815   8.186   7.520  2.3643 -1.5239 -2.1922
  781MOL0     H 3049   2.733   8.052   7.602  0.4372  0.1753  2.9996
  781MOL0     H 3050   2.937   8.036   7.376  0.5990 -1.2054 -1.6852
  781MOL0     H 3051   2.854   7.897   7.453 -0.7527  0.0657 -1.1485
  781MOL0     H 3052   2.767   8.110   7.257 -0.8269  0.9705  0.1627
  781MOL0     H 3053   2.641   8.004   7.352 -0.4669  0.8737 -0.2745
  781MOL0     H 3054   2.564   8.072   7.087 -1.7587 -0.9572 -0.6797
  781MOL0     H 3055   2.436   8.003   6.902 -0.5705  1.2021  2.2722
  781MOL0     H 3056   2.413   7.732   6.477  0.4700 -0.7514  3.5407
  781MOL0     H 3057   2.229   7.719   6.278  2.3009 -0.9035 -0.0753
  781MOL0     H 3058   2.124   7.817   6.123 -0.1947 -1.0213 -2.5250
  781MOL0     H 3059   1.973   7.884   6.092 -0.5143  0.6783 -0.2344
  781MOL0     H 3060   1.899   7.694   6.021  0.5483  0.1394 -1.1138
  781MOL0     H 3061   1.867   7.663   6.198  0.1458  0.3631  0.6532
  781MOL0     H 3062   2.114   7.566   6.193  0.2572 -2.5115  1.7745
  781MOL0     H 3063   2.097   7.559   6.016 -0.1995  2.7184  0.8841
  781MOL0     H 3064   1.893   7.436   6.192 -0.7718 -1.5605  0.1288
  781MOL0     H 3065   1.908   7.427   6.014  0.3093 -2.5471 -0.6101
  781MOL0     H 3066   2.046   7.286   6.230 -0.3908 -0.1864  0.3570
  781MOL0     H 3067   2.160   7.320   6.101 -0.1799  0.2279 -1.6871
  781MOL0     H 3068   1.895   7.162   6.060 -0.6238 -0.7701  1.0212
  781MOL0     H 3069   2.051   7.099   6.085  1.2699  0.5967 -0.0644
  781MOL0     H 3070   2.042   7.311   5.875  1.1147  1.3588  0.1673
  781MOL0     H 3071   2.167   7.208   5.922  0.5687  3.2347  0.0624
  781MOL0     H 3072   2.063   7.019   5.825 -1.2277 -0.7141  2.0712
  781MOL0     H 3073   2.037   7.146   5.699 -0.1299 -1.5650 -0.4748
  781MOL0     H 3074   2.007   8.007   6.486  1.2090  1.5881 -2.5119
  781MOL0     H 3075   2.175   8.011   6.681  0.5469 -0.4597  1.2104
  781MOL0     H 3076   2.659   7.629   6.886  1.0149 -0.5488  2.1579
  781MOL0     H 3077   2.775   7.701   7.087 -0.2445 -0.6755 -1.1921
  781MOL0     H 3078   2.225   7.538   8.561  0.1798  0.7747  0.5307
  781MOL0     H 3079   2.104   7.324   8.545  0.9105 -1.0322  0.7763
  781MOL0     H 3080   1.971   7.019   8.654 -0.5933 -0.0070 -0.1438
  781MOL0     H 3081   1.768   6.888   8.636  0.1797  1.2060 -0.5079
  781MOL0     H 3082   1.588   6.758   8.606  3.2375  0.9863  0.8134
  781MOL0     H 3083   1.699   6.654   8.708 -0.8711 -0.5297  1.4922
  781MOL0     H 3084   1.585   6.458   8.595 -1.8381 -0.7812 -4.0907
  781MOL0     H 3085   1.477   6.551   8.704 -1.5490  1.2889 -1.4505
  781MOL0     H 3086   1.497   6.549   8.401 -0.5151  4.7286 -1.0526
  781MOL0     H 3087   1.403   6.671   8.480  0.2391  0.5794  0.3799
  781MOL0     H 3088   1.267   6.481   8.587  1.5957  2.4020  0.2479
  781MOL0     H 3089   1.257   6.501   8.413  1.9789 -0.0221 -1.5395
  781MOL0     H 3090   1.384   6.112   8.396 -0.9093 -0.3341 -2.7267
  781MOL0     H 3091   1.948   6.630   8.351 -2.9999 -0.5413  0.5868
  781MOL0     H 3092   2.173   6.749   8.389  0.2813  0.0948 -0.3236
  782MOL0     O 3093   5.468   9.483   1.467 -0.0354  0.5377  0.1107
  782MOL0     C 3094   5.448   9.552   1.559 -0.9295 -0.1054 -0.8603
  782MOL0     O 3095   5.337   9.555   1.638 -0.6560  0.0225 -0.0869
  782MOL0     C 3096   5.245   9.452   1.616  0.6078 -0.8413  0.2566
  782MOL0     C 3097   5.122   9.483   1.552  1.2505  0.1437  0.9600
  782MOL0     C 3098   5.036   9.379   1.515 -0.9926  0.1025 -0.4041
  782MOL0     C 3099   5.068   9.242   1.552 -0.0318 -0.5790  0.1909
  782MOL0     O 3100   4.981   9.138   1.548 -0.2474 -0.2334  0.9426
  782MOL0     C 3101   4.842   9.161   1.552 -0.1911 -0.2148  0.8295
  782MOL0     C 3102   4.776   9.167   1.421 -0.8189  0.1604  0.1820
  782MOL0     C 3103   4.626   9.181   1.423  1.2767  0.4901  0.4801
  782MOL0     C 3104   4.566   9.151   1.275 -0.4014 -0.4482 -0.0666
  782MOL0     C 3105   4.416   9.193   1.264 -0.0183  0.1642 -0.1272
  782MOL0     C 3106   4.374   9.216   1.113  0.1122 -0.2049 -0.2409
  782MOL0     C 3107   4.221   9.221   1.118 -1.0257  1.6788  0.3875
  782MOL0     C 3108   4.167   9.211   0.981 -0.7497 -1.4401  0.1479
  782MOL0     N 3109   4.022   9.212   0.985  0.1035  0.9251  0.3262
  782MOL0     C 3110   3.945   9.122   1.055 -0.1544  0.8815  0.1660
  782MOL0     C 3111   3.824   9.180   1.057 -0.0301  0.9996  1.3292
  782MOL0     C 3112   3.690   9.127   1.104  0.2093 -0.5714  0.4316
  782MOL0     C 3113   3.670   8.979   1.093  0.2992  0.6216  0.0170
  782MOL0     C 3114   3.545   8.920   1.022  0.7834  0.0236  0.4041
  782MOL0     C 3115   3.411   8.977   1.073  0.0219  1.1503 -0.0015
  782MOL0     O 3116   3.305   8.885   1.044 -0.1396  0.5769 -0.0069
  782MOL0     C 3117   3.188   8.922   1.095  0.1363 -0.9729 -0.6028
  782MOL0     C 3118   3.164   9.048   1.164  0.3061 -0.0320 -0.2051
  782MOL0     C 3119   3.033   9.090   1.201 -0.3188  0.5891  0.0530
  782MOL0     C 3120   2.929   8.993   1.179  0.0909 -0.4670 -0.2815
  782MOL0     C 3121   2.793   9.014   1.242  0.2222  0.0149  1.0577
  782MOL0     O 3122   2.781   9.105   1.339  0.3441 -0.2939  0.2016
  782MOL0     C 3123   2.653   9.113   1.398 -0.5878 -0.7117 -0.4537
  782MOL0     C 3124   2.626   9.045   1.515  0.2134 -0.1060 -0.4204
  782MOL0     C 3125   2.496   9.066   1.578  0.4018 -0.5772 -0.6172
  782MOL0     C 3126   2.392   9.143   1.521  0.5899  1.0357  0.4254
  782MOL0     O 3127   2.265   9.165   1.576 -0.1011 -1.2293 -0.2470
  782MOL0     C 3128   2.167   9.094   1.494 -0.0885 -0.7739  0.2752
  782MOL0     C 3129   2.024   9.098   1.551  0.4049 -0.2176 -0.7941
  782MOL0     C 3130   1.916   9.163   1.448  0.6695  0.3112 -1.0692
  782MOL0     C 3131   1.916   9.317   1.439  0.5097  0.9165 -0.0775
  782MOL0     C 3132   1.790   9.363   1.369 -0.0567 -0.4374  0.0122
  782MOL0     C 3133   1.799   9.506   1.339 -0.2152  0.0591 -0.2061
  782MOL0     C 3134   1.691   9.562   1.259  1.1339  0.2653  1.1757
  782MOL0     C 3135   1.658   9.719   1.265  0.1360  0.2579 -0.3583
  782MOL0    Cl 3136   1.816   9.815   1.285  0.2813  0.0332  0.4289
  782MOL0     C 3137   2.428   9.208   1.403  0.0179  0.7800  0.5871
  782MOL0     C 3138   2.556   9.196   1.342 -0.6036 -0.5984 -0.5947
  782MOL0     O 3139   2.705   8.942   1.200  0.5340 -0.0442  0.5120
  782MOL0     C 3140   2.957   8.860   1.128 -0.1683  0.6981  0.4535
  782MOL0     C 3141   3.083   8.833   1.083  0.3442 -0.6128 -0.7175
  782MOL0     N 3142   3.824   9.290   0.975 -0.2519  0.3243 -0.2964
  782MOL0     N 3143   3.941   9.308   0.920  0.6311  0.3198 -0.2846
  782MOL0     C 3144   5.173   9.217   1.633 -0.1738  0.9281 -0.9584
  782MOL0     C 3145   5.263   9.317   1.661 -0.4723  0.1559  0.2563
  782MOL0     C 3146   5.557   9.650   1.585  0.3149  0.5497  0.7497
  782MOL0     C 3147   5.689   9.622   1.536  0.2598 -0.0010  0.1298
  782MOL0     C 3148   5.798   9.697   1.579 -0.3128  0.1106  0.1023
  782MOL0     C 3149   5.776   9.817   1.650 -1.3902  0.2322  0.4771
  782MOL0     O 3150   5.901   9.885   1.666 -0.5045  1.1040  0.5908
  782MOL0     C 3151   5.890  10.014   1.723 -0.2572 -0.2232  1.3874
  782MOL0     C 3152   6.022  10.070   1.767  0.6012 -0.3677  1.0707
  782MOL0     C 3153   6.076  10.003   1.888 -0.5850 -0.5750 -0.1749
  782MOL0     C 3154   6.206  10.056   1.935  1.0454  0.5167  0.4680
  782MOL0     C 3155   6.204  10.184   1.995  0.4265 -0.1802 -0.5180
  782MOL0     C 3156   6.192  10.300   2.024  0.3693 -0.5435  0.3013
  782MOL0     C 3157   5.646   9.856   1.680 -0.1358  0.3386  0.2987
  782MOL0     C 3158   5.541   9.771   1.657 -0.4175 -0.2276  0.3942
  782MOL0     H 3159   5.092   9.580   1.515 -1.9327 -1.0533  0.1095
  782MOL0     H 3160   4.935   9.388   1.476 -0.6050  0.9174 -1.2422
  782MOL0     H 3161   4.817   9.253   1.606  1.4868  2.8047 -3.0770
  782MOL0     H 3162   4.786   9.087   1.610 -3.3043  1.5087  0.2442
  782MOL0     H 3163   4.802   9.070   1.380 -2.6670 -0.6514  0.8197
  782MOL0     H 3164   4.829   9.240   1.359 -0.2490 -2.8252 -3.1836
  782MOL0     H 3165   4.609   9.285   1.452 -0.3569  0.9170 -1.7456
  782MOL0     H 3166   4.593   9.108   1.497  3.1015 -0.0413  0.8356
  782MOL0     H 3167   4.625   9.219   1.211 -1.1129  3.4117  3.0017
  782MOL0     H 3168   4.581   9.046   1.249  0.4421 -1.4209  3.7630
  782MOL0     H 3169   4.409   9.290   1.313  1.5040 -0.2551  0.9943
  782MOL0     H 3170   4.357   9.115   1.312  1.5869  0.5748  2.7277
  782MOL0     H 3171   4.415   9.126   1.066 -0.7474 -0.5533 -0.3582
  782MOL0     H 3172   4.423   9.306   1.076 -0.7783  0.6720  0.6372
  782MOL0     H 3173   4.181   9.137   1.176  2.4866 -1.7815 -1.7421
  782MOL0     H 3174   4.192   9.309   1.175  1.3038  1.3711  2.1894
  782MOL0     H 3175   4.195   9.120   0.928  0.9577 -0.9084  0.0829
  782MOL0     H 3176   4.203   9.296   0.922 -1.3427 -0.3907  1.2525
  782MOL0     H 3177   3.983   9.030   1.098  1.0827  1.3770  0.1939
  782MOL0     H 3178   3.608   9.179   1.053  0.2144  1.5825  2.4495
  782MOL0     H 3179   3.695   9.153   1.210 -3.1555 -1.6564  0.9808
  782MOL0     H 3180   3.675   8.951   1.198  0.0953  1.8766  0.3814
  782MOL0     H 3181   3.759   8.919   1.072  0.1049 -0.9111  3.1013
  782MOL0     H 3182   3.546   8.941   0.914  0.5137 -1.1940  0.1533
  782MOL0     H 3183   3.546   8.814   1.045  0.7529  0.0113  0.3506
  782MOL0     H 3184   3.387   9.072   1.025  0.0968  1.0072 -0.3235
  782MOL0     H 3185   3.410   8.992   1.181  0.1801 -0.4260  0.2461
  782MOL0     H 3186   3.240   9.123   1.184  0.3160  1.1674 -4.0200
  782MOL0     H 3187   3.018   9.184   1.254  0.5052  0.7883 -0.0632
  782MOL0     H 3188   2.693   8.994   1.584 -0.9701 -0.1166  0.7704
  782MOL0     H 3189   2.483   9.020   1.676  0.3703  1.0115  0.1456
  782MOL0     H 3190   2.205   8.992   1.481  2.6859  0.3040 -1.0493
  782MOL0     H 3191   2.159   9.141   1.395  0.3355  1.3712  1.2172
  782MOL0     H 3192   2.035   9.155   1.643  0.2345  0.4394 -1.1729
  782MOL0     H 3193   2.002   8.994   1.576  1.0896 -0.3218 -0.5858
  782MOL0     H 3194   1.817   9.136   1.486  1.6011 -1.6636  0.0954
  782MOL0     H 3195   1.931   9.118   1.350  1.3442  0.5253 -1.0678
  782MOL0     H 3196   1.930   9.371   1.533  1.8690 -0.5247  0.5883
  782MOL0     H 3197   2.001   9.351   1.379  0.3659 -0.3120 -1.0161
  782MOL0     H 3198   1.701   9.354   1.431  1.2652  2.1339  2.5367
  782MOL0     H 3199   1.780   9.299   1.281  1.2545 -1.9418  0.8798
  782MOL0     H 3200   1.887   9.523   1.277 -0.5886  0.1267 -0.7228
  782MOL0     H 3201   1.797   9.564   1.431  0.0033  1.9893 -1.3787
  782MOL0     H 3202   1.703   9.556   1.150  3.8120  2.0939  1.2784
  782MOL0     H 3203   1.600   9.509   1.287 -1.9312  2.1937 -3.8231
  782MOL0     H 3204   1.599   9.731   1.356  3.4766 -1.7585  2.3016
  782MOL0     H 3205   1.597   9.748   1.178  0.7668 -1.6935 -1.5052
  782MOL0     H 3206   2.365   9.263   1.333  2.3857  0.2822 -2.1373
  782MOL0     H 3207   2.587   9.255   1.256  3.2045  1.5315  1.9277
  782MOL0     H 3208   2.883   8.780   1.129  1.2286 -0.6887 -1.2165
  782MOL0     H 3209   3.090   8.731   1.045  0.4524 -0.4581 -1.1229
  782MOL0     H 3210   5.201   9.119   1.669  2.9745  2.1227  0.2287
  782MOL0     H 3211   5.348   9.290   1.723  0.0941  0.3786 -0.4142
  782MOL0     H 3212   5.700   9.545   1.460  0.6047  0.9488 -0.8076
  782MOL0     H 3213   5.900   9.673   1.549 -0.1346  1.5021 -0.4509
  782MOL0     H 3214   5.825  10.005   1.810 -1.3074  0.7330  0.7222
  782MOL0     H 3215   5.849  10.087   1.653  0.0985 -2.0595 -0.8409
  782MOL0     H 3216   6.089  10.059   1.681  2.2496 -1.5482  2.4427
  782MOL0     H 3217   6.011  10.179   1.774  0.6956 -0.3142  0.4251
  782MOL0     H 3218   6.077   9.896   1.869  0.5065 -0.3255 -1.7153
  782MOL0     H 3219   6.007  10.019   1.972 -0.8677  0.9262 -0.6480
  782MOL0     H 3220   6.251   9.980   2.001  0.3029 -0.8144 -0.5032
  782MOL0     H 3221   6.278  10.067   1.853  2.7032 -0.8228  1.6459
  782MOL0     H 3222   6.182  10.400   2.060  0.8048  0.0598 -1.1684
  782MOL0     H 3223   5.628   9.953   1.725 -1.0232  0.4041 -0.1905
  782MOL0     H 3224   5.441   9.810   1.666 -1.1413 -1.8561 -0.1942
  783MOL0     O 3225   8.489   8.058   3.486  0.1405 -0.1864 -0.5897
  783MOL0     C 3226   8.495   7.955   3.420  0.5863  0.3024 -1.1381
  783MOL0     O 3227   8.417   7.849   3.442  0.6347  0.2892  0.0933
  783MOL0     C 3228   8.324   7.855   3.546  0.9671  1.1629 -0.0683
  783MOL0     C 3229   8.366   7.859   3.680  1.0009 -0.0192 -0.4031
  783MOL0     C 3230   8.268   7.854   3.789  0.2737  0.1856  0.4846
  783MOL0     C 3231   8.139   7.799   3.759 -0.5378  0.3077  0.2832
  783MOL0     O 3232   8.037   7.774   3.852 -1.2653  0.4322  0.5109
  783MOL0     C 3233   8.029   7.869   3.959 -0.2025 -0.5301 -0.2819
  783MOL0     C 3234   8.054   7.807   4.097 -0.4110 -0.7646  1.0521
  783MOL0     C 3235   8.079   7.920   4.191 -0.7479 -0.0533  0.4631
  783MOL0     C 3236   8.056   7.882   4.341  0.0013 -1.6832  0.4377
  783MOL0     C 3237   7.919   7.832   4.396 -0.2583  0.7152  0.1672
  783MOL0     C 3238   7.794   7.910   4.330 -0.3202  0.8266 -0.4127
  783MOL0     C 3239   7.661   7.853   4.388  0.1605 -0.6524 -0.3306
  783MOL0     C 3240   7.654   7.895   4.534 -0.4569  0.0527  0.1765
  783MOL0     N 3241   7.529   7.837   4.580  1.2591  0.9291 -0.4622
  783MOL0     C 3242   7.411   7.901   4.575 -0.1051 -1.0217  0.2385
  783MOL0     C 3243   7.332   7.806   4.614 -0.4628  0.7382 -0.7853
  783MOL0     C 3244   7.179   7.813   4.640  0.8240  1.0508 -0.0534
  783MOL0     C 3245   7.135   7.871   4.776  0.0525  0.4673 -0.6094
  783MOL0     C 3246   6.988   7.860   4.795  0.2871  0.2894 -0.8715
  783MOL0     C 3247   6.923   7.913   4.924 -0.8157  0.5888 -0.0247
  783MOL0     O 3248   6.785   7.891   4.899 -0.1011 -0.3433  0.1573
  783MOL0     C 3249   6.687   7.905   5.000  0.5271  0.6733  0.8006
  783MOL0     C 3250   6.566   7.860   4.970 -0.2875 -0.2307  0.1657
  783MOL0     C 3251   6.459   7.877   5.063 -0.1167  0.2613 -0.6833
  783MOL0     C 3252   6.472   7.942   5.186 -0.0832 -0.3534  0.4586
  783MOL0     C 3253   6.355   7.955   5.275  0.1398 -0.6457 -0.4899
  783MOL0     O 3254   6.244   7.892   5.240 -0.7424 -0.1909 -0.6413
  783MOL0     C 3255   6.152   7.849   5.332  0.3526  0.3962 -0.6395
  783MOL0     C 3256   6.180   7.833   5.467 -0.8335  0.1748 -0.0797
  783MOL0     C 3257   6.082   7.807   5.559  0.2667 -0.3895 -0.4521
  783MOL0     C 3258   5.949   7.776   5.512  0.3257 -0.5960 -1.5002
  783MOL0     O 3259   5.863   7.748   5.624  0.8093 -0.2543  0.4937
  783MOL0     C 3260   5.770   7.635   5.608  0.0726  0.2998 -0.5732
  783MOL0     C 3261   5.695   7.612   5.737  0.8979  0.6271  0.1866
  783MOL0     C 3262   5.774   7.530   5.852 -0.4439  0.7264  1.5636
  783MOL0     C 3263   5.673   7.514   5.968 -0.1313  0.1075 -0.0135
  783MOL0     C 3264   5.729   7.453   6.100  0.0281 -0.0774  0.8707
  783MOL0     C 3265   5.779   7.307   6.106 -0.3468 -0.2825  1.0703
  783MOL0     C 3266   5.931   7.303   6.083 -0.0134 -0.0956  0.8627
  783MOL0     C 3267   5.994   7.164   6.063 -0.4236  0.9000  0.7409
  783MOL0    Cl 3268   5.913   7.075   5.924 -0.1419 -0.1184  0.1091
  783MOL0     C 3269   5.919   7.780   5.375 -0.8063 -0.8582  0.9074
  783MOL0     C 3270   6.019   7.823   5.286 -0.3165 -0.6310 -0.9406
  783MOL0     O 3271   6.365   8.028   5.373 -0.6190 -0.5712 -0.5581
  783MOL0     C 3272   6.608   7.968   5.222  0.0954 -0.1176 -0.1700
  783MOL0     C 3273   6.710   7.959   5.122  0.9816  0.3616  0.3501
  783MOL0     N 3274   7.406   7.693   4.650 -1.2321  0.8746 -0.0496
  783MOL0     N 3275   7.532   7.712   4.629 -0.1345 -0.5549  0.2568
  783MOL0     C 3276   8.110   7.780   3.632  0.2244 -0.1303  0.0158
  783MOL0     C 3277   8.199   7.803   3.523 -0.3343  0.6614 -0.5212
  783MOL0     C 3278   8.614   7.934   3.334  0.3878 -0.8427 -1.0078
  783MOL0     C 3279   8.622   7.817   3.249  0.8643  0.9164  0.2043
  783MOL0     C 3280   8.727   7.796   3.164  0.5438  0.8702 -0.0242
  783MOL0     C 3281   8.832   7.885   3.157  0.4714  0.2794 -0.4479
  783MOL0     O 3282   8.939   7.850   3.080  0.7615  0.3530 -0.4612
  783MOL0     C 3283   8.944   7.934   2.963 -0.4767 -0.0526 -0.0017
  783MOL0     C 3284   9.022   7.862   2.855 -0.1473  0.1648 -0.1808
  783MOL0     C 3285   9.157   7.789   2.909 -0.3518 -0.5663  0.3021
  783MOL0     C 3286   9.248   7.737   2.791  0.2222  0.1358  0.5762
  783MOL0     C 3287   9.306   7.836   2.700  0.0625 -0.2156  0.2086
  783MOL0     C 3288   9.342   7.910   2.608 -0.4496  0.9565 -0.5391
  783MOL0     C 3289   8.816   8.007   3.223  0.0815 -1.1615 -0.4262
  783MOL0     C 3290   8.715   8.027   3.308 -0.1224 -0.7829  0.5176
  783MOL0     H 3291   8.471   7.880   3.697  1.1533 -0.6593 -0.5419
  783MOL0     H 3292   8.299   7.869   3.892  1.3009 -2.0450  0.5684
  783MOL0     H 3293   7.936   7.924   3.969 -0.2200 -0.3085 -1.5325
  783MOL0     H 3294   8.103   7.945   3.930 -1.4896 -0.4449 -3.8033
  783MOL0     H 3295   8.142   7.744   4.117  0.9738  0.7076 -0.1077
  783MOL0     H 3296   7.963   7.747   4.109 -0.7999 -1.0284 -2.2345
  783MOL0     H 3297   8.024   8.008   4.159  0.1614 -0.9300 -4.3417
  783MOL0     H 3298   8.180   7.951   4.163 -1.0544 -0.8448 -1.6795
  783MOL0     H 3299   8.129   7.802   4.358  1.3335 -0.7995 -0.9261
  783MOL0     H 3300   8.090   7.967   4.400  0.0121 -1.7622  0.5447
  783MOL0     H 3301   7.930   7.851   4.503  0.5310 -0.7739  0.3718
  783MOL0     H 3302   7.910   7.724   4.387  1.8313  0.3021  2.2804
  783MOL0     H 3303   7.795   7.897   4.222 -0.9843 -0.0364 -0.3301
  783MOL0     H 3304   7.801   8.016   4.357 -1.0476  0.9463 -0.6722
  783MOL0     H 3305   7.576   7.892   4.330  0.5329 -0.2424 -0.6074
  783MOL0     H 3306   7.648   7.745   4.378 -5.1725 -0.5101  1.7280
  783MOL0     H 3307   7.660   8.003   4.551 -0.2559  0.0125  0.3708
  783MOL0     H 3308   7.737   7.841   4.580  0.8731  0.4085 -1.6619
  783MOL0     H 3309   7.385   8.000   4.541  2.3937 -0.0298  0.9461
  783MOL0     H 3310   7.130   7.716   4.623  1.0139  0.9852 -0.2355
  783MOL0     H 3311   7.147   7.892   4.572  1.8203  2.6231  1.2146
  783MOL0     H 3312   7.158   7.978   4.771  2.6583 -0.0684 -1.7187
  783MOL0     H 3313   7.189   7.833   4.863 -0.2766 -3.8659 -2.0469
  783MOL0     H 3314   6.935   7.911   4.714 -1.4758  0.7148  0.4929
  783MOL0     H 3315   6.956   7.756   4.783 -2.8779  1.2696 -1.9937
  783MOL0     H 3316   6.954   8.018   4.933  4.0219 -0.7427  2.4708
  783MOL0     H 3317   6.966   7.864   5.012  0.3998  0.2157 -0.7922
  783MOL0     H 3318   6.541   7.818   4.874 -0.1565 -1.9621  0.8451
  783MOL0     H 3319   6.364   7.826   5.047  1.0354 -1.6637 -1.6992
  783MOL0     H 3320   6.278   7.847   5.511 -0.2426 -0.0931 -1.2806
  783MOL0     H 3321   6.089   7.795   5.667 -3.2555 -0.2485 -0.0743
  783MOL0     H 3322   5.817   7.543   5.571 -1.1471 -0.1025 -1.1802
  783MOL0     H 3323   5.698   7.667   5.533 -1.8034  1.1787  1.4864
  783MOL0     H 3324   5.599   7.562   5.721  1.1785 -0.2105  1.0194
  783MOL0     H 3325   5.662   7.705   5.784  0.3454  0.3602  0.3378
  783MOL0     H 3326   5.873   7.574   5.868  1.6170 -2.0890 -1.7659
  783MOL0     H 3327   5.805   7.434   5.810  1.2124  1.0884  1.8520
  783MOL0     H 3328   5.648   7.617   5.996  0.4034  0.5292 -1.0153
  783MOL0     H 3329   5.585   7.452   5.947  0.6448 -1.9152  2.2951
  783MOL0     H 3330   5.642   7.457   6.166  1.1048 -2.0048  2.5118
  783MOL0     H 3331   5.797   7.528   6.140  0.3751 -0.3264  0.7525
  783MOL0     H 3332   5.714   7.253   6.037 -2.1407  0.4132  2.1373
  783MOL0     H 3333   5.746   7.269   6.203  1.3845 -1.0023  1.4097
  783MOL0     H 3334   5.968   7.365   6.001 -1.4857  2.1083  1.7607
  783MOL0     H 3335   5.976   7.342   6.175  0.1726  0.2141  0.6422
  783MOL0     H 3336   5.994   7.107   6.157 -2.5545 -0.7591 -0.1802
  783MOL0     H 3337   6.100   7.181   6.043 -0.9587  0.8584 -2.6280
  783MOL0     H 3338   5.820   7.754   5.338  0.2981 -0.5902 -2.6289
  783MOL0     H 3339   6.001   7.815   5.179  5.6076 -2.6076 -2.1999
  783MOL0     H 3340   6.616   8.010   5.322  0.2177  2.0602 -1.0345
  783MOL0     H 3341   6.812   7.985   5.150  0.8421 -0.5405  1.7599
  783MOL0     H 3342   8.009   7.752   3.603 -0.3699 -0.8860  2.5354
  783MOL0     H 3343   8.168   7.772   3.424 -0.8594 -1.4044  0.2373
  783MOL0     H 3344   8.534   7.754   3.243 -0.5689  2.7907  0.4285
  783MOL0     H 3345   8.738   7.701   3.112  1.6169  2.2433 -2.4701
  783MOL0     H 3346   9.008   8.019   2.990 -0.3711 -0.6537  1.7995
  783MOL0     H 3347   8.847   7.967   2.923 -1.1138 -0.7855  0.9008
  783MOL0     H 3348   8.963   7.784   2.805 -4.0212  3.1781 -0.7360
  783MOL0     H 3349   9.050   7.936   2.780  2.0383 -0.1291  0.2896
  783MOL0     H 3350   9.121   7.699   2.960 -0.5380 -1.5413 -1.4736
  783MOL0     H 3351   9.224   7.842   2.978  1.7502 -3.9722  1.1144
  783MOL0     H 3352   9.322   7.688   2.855  0.8016  0.3620  0.0891
  783MOL0     H 3353   9.206   7.651   2.739  1.1875  0.0350 -0.0556
  783MOL0     H 3354   9.368   7.959   2.517  0.5537 -1.9742 -1.9693
  783MOL0     H 3355   8.888   8.088   3.213 -0.3429 -0.5695  0.9742
  783MOL0     H 3356   8.710   8.116   3.369  0.7037  0.5184 -1.2218
  784MOL0     O 3357   7.900   8.554   7.190  0.2578  0.0646  0.0734
  784MOL0     C 3358   7.988   8.629   7.135  0.6399 -0.4621 -0.5648
  784MOL0     O 3359   7.979   8.770   7.101 -0.4031 -0.8207 -0.8684
  784MOL0     C 3360   7.876   8.859   7.123 -0.1514 -0.2953 -0.1648
  784MOL0     C 3361   7.759   8.830   7.199  0.6336 -0.7753 -0.4060
  784MOL0     C 3362   7.664   8.927   7.209  0.7634  0.4053  0.0490
  784MOL0     C 3363   7.682   9.050   7.147  0.5410 -0.1083 -0.2621
  784MOL0     O 3364   7.583   9.136   7.158 -0.4491  0.1192 -0.2728
  784MOL0     C 3365   7.597   9.259   7.224  0.0363 -1.1814  0.2216
  784MOL0     C 3366   7.479   9.353   7.172 -0.0442 -0.2779  0.6190
  784MOL0     C 3367   7.345   9.294   7.212 -1.4756  0.1572  0.2937
  784MOL0     C 3368   7.243   9.353   7.113  0.5521  0.2466 -0.3708
  784MOL0     C 3369   7.103   9.291   7.147  0.2582  0.6407  0.6813
  784MOL0     C 3370   7.035   9.361   7.263 -0.2651 -0.1264 -0.0758
  784MOL0     C 3371   6.921   9.276   7.316  0.7770  0.7611 -0.2903
  784MOL0     C 3372   6.834   9.365   7.406 -0.0320  0.2229 -0.0745
  784MOL0     N 3373   6.701   9.304   7.415  0.3468  1.1689 -0.0402
  784MOL0     C 3374   6.593   9.356   7.482 -0.2059 -0.3405 -1.2689
  784MOL0     C 3375   6.502   9.253   7.484  0.1706  0.3303 -0.7098
  784MOL0     C 3376   6.363   9.233   7.562  0.2345 -0.8789  0.2225
  784MOL0     C 3377   6.247   9.215   7.468 -0.8298  0.8165 -0.4179
  784MOL0     C 3378   6.116   9.180   7.551  0.5441  0.2683  0.2383
  784MOL0     C 3379   6.005   9.105   7.482 -0.3568 -0.1900  0.7065
  784MOL0     O 3380   5.941   9.187   7.382 -0.7517 -0.1484 -0.5904
  784MOL0     C 3381   5.861   9.117   7.291  0.0956 -0.7363  0.2802
  784MOL0     C 3382   5.853   8.982   7.271  0.8707  0.1580 -0.0386
  784MOL0     C 3383   5.766   8.939   7.168  0.7162 -0.0544 -0.7072
  784MOL0     C 3384   5.683   9.023   7.092 -0.5345 -0.2376  0.5598
  784MOL0     C 3385   5.594   8.977   6.993  0.2839  0.6696 -1.1634
  784MOL0     O 3386   5.523   9.078   6.929 -0.0082 -0.1395 -1.6585
  784MOL0     C 3387   5.426   9.037   6.843  0.7332  0.1444 -0.2819
  784MOL0     C 3388   5.445   9.005   6.712 -0.2426 -0.4905  0.3453
  784MOL0     C 3389   5.344   8.974   6.622  0.7179 -0.1174 -0.3119
  784MOL0     C 3390   5.215   8.974   6.673  0.0960 -0.6905 -0.5791
  784MOL0     O 3391   5.113   8.958   6.594 -0.3739  0.1596 -0.7433
  784MOL0     C 3392   5.109   8.816   6.553 -0.2029  1.1152  0.2756
  784MOL0     C 3393   5.006   8.775   6.437 -0.0831 -0.3835  0.8492
  784MOL0     C 3394   4.869   8.846   6.438  0.0926 -0.7408  0.5678
  784MOL0     C 3395   4.789   8.808   6.571  0.4659 -0.5163  0.8394
  784MOL0     C 3396   4.671   8.900   6.588  1.0472 -0.7216  1.0261
  784MOL0     C 3397   4.593   8.885   6.715 -0.3746 -0.5724  0.3532
  784MOL0     C 3398   4.452   8.958   6.707 -0.4999  1.3335 -0.3869
  784MOL0     C 3399   4.379   8.985   6.836 -0.8759 -0.0471  0.3142
  784MOL0    Cl 3400   4.398   8.853   6.964 -1.0810 -0.4236 -0.5825
  784MOL0     C 3401   5.191   9.002   6.807  0.5488  0.0586  0.3455
  784MOL0     C 3402   5.298   9.028   6.895  0.6721 -0.3119  0.0733
  784MOL0     O 3403   5.577   8.853   6.993 -0.0271 -1.0639  0.6127
  784MOL0     C 3404   5.715   9.162   7.109  0.4439 -0.5169  0.0664
  784MOL0     C 3405   5.804   9.207   7.206  0.5283 -0.5289  0.9448
  784MOL0     N 3406   6.550   9.144   7.415  0.4103 -0.2208 -0.2633
  784MOL0     N 3407   6.673   9.174   7.379  0.5886 -0.5001 -0.3023
  784MOL0     C 3408   7.806   9.079   7.091  0.6930  0.0670  0.0643
  784MOL0     C 3409   7.902   8.984   7.071  0.4218 -0.0852  0.1431
  784MOL0     C 3410   8.121   8.562   7.100  0.0529 -0.0361  0.0392
  784MOL0     C 3411   8.220   8.620   7.016  0.6386  0.4535 -0.6029
  784MOL0     C 3412   8.344   8.551   6.985 -0.3154  0.0946  0.2341
  784MOL0     C 3413   8.372   8.421   7.050  0.2643  0.2696  0.1470
  784MOL0     O 3414   8.477   8.343   7.022 -0.3827 -0.0851  0.0089
  784MOL0     C 3415   8.590   8.391   6.945  0.6215 -0.1867  0.5787
  784MOL0     C 3416   8.688   8.272   6.937 -0.6615 -0.0459 -0.3777
  784MOL0     C 3417   8.834   8.309   6.894  0.0004  0.4014  0.3926
  784MOL0     C 3418   8.904   8.181   6.845  0.6574  0.4531 -0.0190
  784MOL0     C 3419   8.972   8.082   6.938 -0.0417  0.4479 -0.3454
  784MOL0     C 3420   9.048   8.006   6.999  1.1089  0.2507  1.4402
  784MOL0     C 3421   8.261   8.369   7.122 -0.5273  0.2182 -0.3941
  784MOL0     C 3422   8.146   8.437   7.144  0.0426 -0.4495 -0.2735
  784MOL0     H 3423   7.751   8.735   7.251 -1.2010  0.2429  1.2921
  784MOL0     H 3424   7.568   8.907   7.256 -0.0909  1.7923 -1.0137
  784MOL0     H 3425   7.694   9.303   7.200  1.2180 -1.4830  3.8928
  784MOL0     H 3426   7.591   9.248   7.333 -2.6588  1.4260  0.4531
  784MOL0     H 3427   7.485   9.359   7.063  1.4209  0.8871  0.7392
  784MOL0     H 3428   7.493   9.455   7.207 -3.1836  1.1286 -1.7383
  784MOL0     H 3429   7.328   9.331   7.313 -1.4414  0.3685  0.2245
  784MOL0     H 3430   7.342   9.185   7.216 -1.3094  0.1285 -0.2270
  784MOL0     H 3431   7.227   9.459   7.135 -2.4780 -0.2441  0.3382
  784MOL0     H 3432   7.266   9.340   7.007  1.3837 -3.0391  0.1008
  784MOL0     H 3433   7.120   9.184   7.159  2.7802  0.7539 -1.0277
  784MOL0     H 3434   7.041   9.297   7.057  2.0921 -2.2512 -0.9236
  784MOL0     H 3435   6.995   9.458   7.231 -0.1482  0.2475  0.8776
  784MOL0     H 3436   7.102   9.377   7.348 -2.7494 -1.4907  2.3203
  784MOL0     H 3437   6.868   9.238   7.229 -1.9611 -1.0344  2.0102
  784MOL0     H 3438   6.960   9.186   7.364  1.4027 -0.4467 -2.8607
  784MOL0     H 3439   6.811   9.457   7.354 -0.5761  2.1131  3.2094
  784MOL0     H 3440   6.879   9.377   7.506 -0.5951 -2.6368  0.6192
  784MOL0     H 3441   6.576   9.449   7.535 -0.8434 -1.8758  1.3815
  784MOL0     H 3442   6.337   9.318   7.626  1.9607  0.9844 -1.3856
  784MOL0     H 3443   6.381   9.161   7.642  2.5506 -1.0565 -0.3949
  784MOL0     H 3444   6.251   9.133   7.396 -1.7903 -2.3278  2.7971
  784MOL0     H 3445   6.224   9.305   7.411  0.1602  1.5312  0.2616
  784MOL0     H 3446   6.153   9.120   7.635  1.0020 -0.2323 -0.3148
  784MOL0     H 3447   6.075   9.277   7.578 -0.3184 -0.5660  2.0932
  784MOL0     H 3448   5.935   9.083   7.562 -1.4737 -0.4924 -0.3328
  784MOL0     H 3449   6.044   9.013   7.436  0.3542  0.8687 -0.9013
  784MOL0     H 3450   5.909   8.898   7.312  0.5026 -0.3125 -0.4742
  784MOL0     H 3451   5.777   8.833   7.150  2.1684 -0.0983  0.2920
  784MOL0     H 3452   5.549   9.007   6.682 -0.5477 -3.4852 -1.3009
  784MOL0     H 3453   5.370   8.965   6.517 -0.7736  0.1653 -0.7260
  784MOL0     H 3454   5.071   8.767   6.644 -4.3229  1.5843 -0.9765
  784MOL0     H 3455   5.208   8.777   6.527 -1.7045 -4.2171  1.3013
  784MOL0     H 3456   4.986   8.668   6.448 -3.7322  0.2588  1.8130
  784MOL0     H 3457   5.053   8.784   6.339 -0.1900  0.8030  0.8897
  784MOL0     H 3458   4.817   8.828   6.344 -1.7647 -0.7872  1.5587
  784MOL0     H 3459   4.895   8.952   6.441 -0.8217 -0.4925 -0.0575
  784MOL0     H 3460   4.765   8.701   6.566  1.5784 -0.7403 -0.0314
  784MOL0     H 3461   4.857   8.815   6.657  2.5768 -5.9515  0.0484
  784MOL0     H 3462   4.607   8.898   6.499  4.0940  0.3798 -1.3810
  784MOL0     H 3463   4.713   9.001   6.598  1.8553 -1.0620  1.1104
  784MOL0     H 3464   4.654   8.912   6.802 -1.8595  1.2183  0.9176
  784MOL0     H 3465   4.578   8.778   6.728  1.5956 -0.9132  0.1403
  784MOL0     H 3466   4.462   9.054   6.656 -2.8213  0.0719 -3.5524
  784MOL0     H 3467   4.376   8.894   6.661 -0.7171  1.0177  0.3936
  784MOL0     H 3468   4.273   9.004   6.817 -0.5273  2.5858  0.5776
  784MOL0     H 3469   4.430   9.068   6.887 -1.8676  1.7308 -1.4485
  784MOL0     H 3470   5.084   9.012   6.824  0.1226  1.5156 -2.6185
  784MOL0     H 3471   5.283   9.043   7.001 -1.3689 -0.4619 -0.1544
  784MOL0     H 3472   5.657   9.231   7.049 -2.7266 -0.8643  2.4377
  784MOL0     H 3473   5.830   9.312   7.216 -1.7062  0.2324 -0.5687
  784MOL0     H 3474   7.811   9.183   7.058  3.1177 -0.3699 -1.2277
  784MOL0     H 3475   7.996   8.999   7.019  0.2568  4.3770  0.7557
  784MOL0     H 3476   8.186   8.714   6.973 -3.0484 -1.4088 -2.2209
  784MOL0     H 3477   8.414   8.590   6.913 -1.3968 -2.0798 -2.1575
  784MOL0     H 3478   8.642   8.469   7.003 -1.1190  3.2717 -2.0994
  784MOL0     H 3479   8.551   8.442   6.857 -1.7706 -0.4701  1.3969
  784MOL0     H 3480   8.700   8.231   7.038  2.5306  1.4938 -0.0032
  784MOL0     H 3481   8.647   8.194   6.873 -0.4144 -1.9569  1.6540
  784MOL0     H 3482   8.885   8.365   6.974 -0.5172 -0.1617  1.1299
  784MOL0     H 3483   8.830   8.381   6.812 -4.4758 -2.0371 -1.8993
  784MOL0     H 3484   8.843   8.119   6.779  1.0203 -1.6526  1.5435
  784MOL0     H 3485   8.989   8.213   6.783  1.0370  0.0583  0.2880
  784MOL0     H 3486   9.130   7.944   7.030  1.6623  0.3962  0.3254
  784MOL0     H 3487   8.252   8.265   7.152  0.7541  0.2484  0.1419
  784MOL0     H 3488   8.075   8.374   7.198  1.0420 -1.1175  0.2905
  785MOL0     O 3489   0.016   4.276  10.374  0.2129  0.1071  0.7012
  785MOL0     C 3490  -0.067   4.304  10.459 -0.7649  0.0699  0.9335
  785MOL0     O 3491  -0.072   4.433  10.518  0.2061 -0.6366 -0.7695
  785MOL0     C 3492   0.040   4.510  10.529  0.3113  1.0160  0.3758
  785MOL0     C 3493   0.104   4.546  10.414 -1.0055 -0.0002  0.8908
  785MOL0     C 3494   0.220   4.625  10.433  0.1584  0.0788  0.0055
  785MOL0     C 3495   0.270   4.659  10.557  1.2359 -0.1709  0.0674
  785MOL0     O 3496   0.393   4.727  10.564  0.1801  0.0694  0.0748
  785MOL0     C 3497   0.439   4.762  10.692 -1.3053  0.2177 -0.1129
  785MOL0     C 3498   0.525   4.881  10.673  0.3419  0.5814 -0.2897
  785MOL0     C 3499   0.645   4.862  10.581 -0.7074 -0.1017 -0.1614
  785MOL0     C 3500   0.744   4.986  10.581 -0.4102 -0.4897 -0.2854
  785MOL0     C 3501   0.802   5.007  10.721 -0.1886 -0.4406 -0.4269
  785MOL0     C 3502   0.931   5.087  10.722 -1.0040 -0.3842  0.6269
  785MOL0     C 3503   0.964   5.134  10.868  1.1209  0.1616  0.3181
  785MOL0     C 3504   1.112   5.151  10.898 -0.5930  1.1525  0.4803
  785MOL0     N 3505   1.126   5.260  10.993  0.2049 -0.3294  0.0594
  785MOL0     C 3506   1.080   5.389  10.996 -0.7063 -0.7576 -0.4363
  785MOL0     C 3507   1.109   5.444  11.123 -0.3823 -0.2834  0.4541
  785MOL0     C 3508   1.086   5.576  11.178 -0.3368  0.6018 -0.1171
  785MOL0     C 3509   1.098   5.589  11.336  0.7221 -0.4762 -0.1230
  785MOL0     C 3510   0.994   5.521  11.432 -1.2278 -0.0401  0.6219
  785MOL0     C 3511   0.854   5.506  11.379  0.4979  1.6011  0.3394
  785MOL0     O 3512   0.807   5.638  11.359  0.8612 -0.8610  0.0306
  785MOL0     C 3513   0.668   5.664  11.351 -0.0838  1.4578  0.2152
  785MOL0     C 3514   0.621   5.790  11.381  0.3532 -0.4305  0.3182
  785MOL0     C 3515   0.488   5.809  11.384 -0.5680  0.8464  0.0677
  785MOL0     C 3516   0.389   5.718  11.341 -0.0712  0.3114  1.0981
  785MOL0     C 3517   0.247   5.752  11.337  0.3515 -0.2900  0.9635
  785MOL0     O 3518   0.202   5.873  11.400  0.3685 -0.2730  0.2208
  785MOL0     C 3519   0.062   5.891  11.414 -0.2038 -0.3886 -0.4996
  785MOL0     C 3520   0.010   5.907  11.539 -0.9013 -0.8385 -0.4098
  785MOL0     C 3521  -0.124   5.875  11.557  0.6628  0.7050 -0.1153
  785MOL0     C 3522  -0.208   5.830  11.456  0.3951  0.1652 -0.1729
  785MOL0     O 3523  -0.338   5.786  11.482  1.2410 -0.5577  0.1792
  785MOL0     C 3524  -0.432   5.862  11.402  0.5113 -0.8447 -1.0905
  785MOL0     C 3525  -0.568   5.823  11.454  0.8179  0.7756  0.9194
  785MOL0     C 3526  -0.604   5.677  11.423 -0.3715 -0.7183 -0.6703
  785MOL0     C 3527  -0.744   5.635  11.478  0.4986  0.2649 -0.1413
  785MOL0     C 3528  -0.804   5.521  11.386  0.0667 -0.4020 -0.7222
  785MOL0     C 3529  -0.919   5.449  11.467  0.1250  0.1778 -0.8007
  785MOL0     C 3530  -0.933   5.297  11.455  0.5105  0.1858 -0.3670
  785MOL0     C 3531  -0.968   5.247  11.317  0.1397 -0.0481 -0.1421
  785MOL0    Cl 3532  -1.092   5.337  11.225  0.0575 -0.5469 -0.1725
  785MOL0     C 3533  -0.158   5.844  11.330 -0.1188  0.6740 -0.0652
  785MOL0     C 3534  -0.026   5.877  11.309 -0.1292 -0.4668 -0.3534
  785MOL0     O 3535   0.172   5.686  11.264 -0.2773  0.1501  0.9191
  785MOL0     C 3536   0.436   5.590  11.315 -0.4048 -0.2397  0.1506
  785MOL0     C 3537   0.576   5.565  11.322 -0.0579 -1.0569  0.2022
  785MOL0     N 3538   1.178   5.341  11.192 -0.8880 -0.3274  0.0713
  785MOL0     N 3539   1.187   5.238  11.118 -0.5536 -0.4141  0.0737
  785MOL0     C 3540   0.205   4.600  10.673  0.9456  0.1098  0.3778
  785MOL0     C 3541   0.081   4.533  10.657  0.7144  0.2204  0.0142
  785MOL0     C 3542  -0.174   4.203  10.486  0.7970  0.0590 -0.2645
  785MOL0     C 3543  -0.250   4.217  10.610 -0.6541 -0.1329  0.0614
  785MOL0     C 3544  -0.348   4.126  10.649  0.3331  0.2363  0.6011
  785MOL0     C 3545  -0.379   4.017  10.570  0.0496  0.6756  1.0323
  785MOL0     O 3546  -0.485   3.939  10.612  0.0430  0.1036 -0.0856
  785MOL0     C 3547  -0.582   3.898  10.509 -0.1561  0.3736 -0.9815
  785MOL0     C 3548  -0.657   3.783  10.575 -0.1717 -0.5208 -0.2638
  785MOL0     C 3549  -0.684   3.790  10.726  0.1985  0.7864  0.2738
  785MOL0     C 3550  -0.799   3.696  10.753  0.3080  0.1346 -0.1891
  785MOL0     C 3551  -0.877   3.726  10.875  0.4452 -0.9840  0.1900
  785MOL0     C 3552  -0.962   3.752  10.951 -0.2643 -0.3861 -0.0777
  785MOL0     C 3553  -0.303   3.996  10.456  0.1836 -0.5600 -0.2734
  785MOL0     C 3554  -0.199   4.088  10.420  0.5125  0.4414  0.9039
  785MOL0     H 3555   0.061   4.530  10.315  2.2634 -1.2530 -0.4633
  785MOL0     H 3556   0.260   4.686  10.352  0.8980  0.9232  0.9947
  785MOL0     H 3557   0.496   4.678  10.734 -1.3337  0.4647  0.4196
  785MOL0     H 3558   0.356   4.784  10.760 -1.4228  0.3775 -0.3079
  785MOL0     H 3559   0.561   4.885  10.776 -0.0787 -0.1123 -0.1106
  785MOL0     H 3560   0.468   4.971  10.650  0.7742  1.3853  1.6660
  785MOL0     H 3561   0.606   4.852  10.479 -0.9944  4.4305 -0.6982
  785MOL0     H 3562   0.702   4.772  10.606  1.2081 -0.4070 -4.6466
  785MOL0     H 3563   0.819   4.972  10.503 -0.7553  0.9821 -0.9224
  785MOL0     H 3564   0.689   5.073  10.544 -1.3606  1.1778  4.3095
  785MOL0     H 3565   0.821   4.909  10.766  0.4749  1.9438  5.3594
  785MOL0     H 3566   0.725   5.043  10.790  2.3216  1.2645  1.6713
  785MOL0     H 3567   0.920   5.177  10.661 -2.5634 -0.7803  0.2718
  785MOL0     H 3568   1.008   5.024  10.675 -1.1845 -1.1056  1.2677
  785MOL0     H 3569   0.898   5.219  10.888  1.1946  1.0253 -2.6014
  785MOL0     H 3570   0.937   5.051  10.934  3.9485  0.4868  2.0659
  785MOL0     H 3571   1.177   5.160  10.810 -2.8725  0.9785 -1.3078
  785MOL0     H 3572   1.154   5.061  10.945  0.9946  0.0269 -2.8010
  785MOL0     H 3573   1.017   5.428  10.916 -1.3987 -0.2254  0.3496
  785MOL0     H 3574   0.989   5.613  11.143  0.1065  0.2873 -1.7594
  785MOL0     H 3575   1.166   5.640  11.138  0.0318  0.3985  0.2880
  785MOL0     H 3576   1.083   5.696  11.349 -1.6296  0.0769 -5.1694
  785MOL0     H 3577   1.200   5.559  11.363 -0.5881 -2.7246  2.8794
  785MOL0     H 3578   1.033   5.420  11.450  2.3626  1.2380  0.8385
  785MOL0     H 3579   0.992   5.560  11.534 -0.8578  2.2192 -0.1783
  785MOL0     H 3580   0.795   5.451  11.452 -0.2517  1.1371 -0.6063
  785MOL0     H 3581   0.852   5.440  11.292  0.5075  1.8571  0.1437
  785MOL0     H 3582   0.682   5.878  11.400 -1.2923  0.2492  2.9833
  785MOL0     H 3583   0.463   5.911  11.412  0.9270  1.7741 -1.7325
  785MOL0     H 3584   0.071   5.935  11.624  0.1008  1.0279 -1.6710
  785MOL0     H 3585  -0.155   5.877  11.661 -0.8649 -3.0003 -0.3527
  785MOL0     H 3586  -0.426   5.824  11.300  4.0986 -0.9527 -0.9608
  785MOL0     H 3587  -0.415   5.970  11.401 -1.4100 -0.3530  2.8966
  785MOL0     H 3588  -0.632   5.896  11.403  1.0103 -0.2269 -0.8355
  785MOL0     H 3589  -0.584   5.846  11.559 -1.7843  0.3533  0.6986
  785MOL0     H 3590  -0.526   5.605  11.449 -0.9001 -0.9267  0.4104
  785MOL0     H 3591  -0.624   5.678  11.315 -1.1005  5.0443 -0.8031
  785MOL0     H 3592  -0.735   5.598  11.581 -0.8649  2.1566  0.7084
  785MOL0     H 3593  -0.815   5.716  11.463 -0.1626 -0.1367  0.7210
  785MOL0     H 3594  -0.725   5.451  11.356  2.3409  1.7804 -0.1701
  785MOL0     H 3595  -0.844   5.560  11.292 -0.1984  1.1163 -0.0036
  785MOL0     H 3596  -1.022   5.487  11.457  0.4403  1.3103  0.0458
  785MOL0     H 3597  -0.893   5.464  11.572  4.7492  2.2493 -1.9970
  785MOL0     H 3598  -0.830   5.269  11.480  1.2513  2.5283 -0.5179
  785MOL0     H 3599  -1.008   5.254  11.522  1.4034 -1.9706 -0.6857
  785MOL0     H 3600  -0.983   5.139  11.317  0.7453 -0.1502  1.0674
  785MOL0     H 3601  -0.877   5.268  11.260  1.0883  0.7365  1.5857
  785MOL0     H 3602  -0.214   5.814  11.242  1.1870 -0.4296 -0.5564
  785MOL0     H 3603   0.014   5.879  11.208  3.9438  1.9433  1.0665
  785MOL0     H 3604   0.364   5.511  11.301 -1.8658  1.0744  0.0566
  785MOL0     H 3605   0.630   5.478  11.286  0.3423 -0.4132 -0.8267
  785MOL0     H 3606   0.243   4.602  10.774  2.6454 -2.5171 -0.1014
  785MOL0     H 3607   0.017   4.514  10.743  3.0015 -2.6142  1.2944
  785MOL0     H 3608  -0.227   4.306  10.667  2.1757  1.3289 -3.0256
  785MOL0     H 3609  -0.405   4.138  10.741 -0.6950  1.8928 -0.1950
  785MOL0     H 3610  -0.537   3.860  10.417  0.5534 -0.9861 -0.1086
  785MOL0     H 3611  -0.639   3.989  10.489 -0.0179  1.0683  1.4125
  785MOL0     H 3612  -0.752   3.774  10.521  0.5455 -1.2589 -1.4512
  785MOL0     H 3613  -0.606   3.689  10.552 -0.6632 -1.4322  2.0903
  785MOL0     H 3614  -0.704   3.895  10.749 -3.9467  1.1041 -3.2464
  785MOL0     H 3615  -0.593   3.765  10.781  0.8326  0.4741 -0.8732
  785MOL0     H 3616  -0.871   3.704  10.671  0.8108 -1.3427 -0.8171
  785MOL0     H 3617  -0.766   3.592  10.762 -1.3719 -0.4201  0.0394
  785MOL0     H 3618  -1.035   3.785  11.022 -0.5824 -1.3420  0.0570
  785MOL0     H 3619  -0.315   3.903  10.400 -2.7346 -0.7023  0.4565
  785MOL0     H 3620  -0.131   4.059  10.341  1.4171  1.6637  1.1911
  786MOL0     O 3621   5.435   6.527   0.924  0.0453  0.4053 -0.0442
  786MOL0     C 3622   5.455   6.529   0.800  0.8931  0.0348  0.4987
  786MOL0     O 3623   5.463   6.641   0.720 -0.6050  0.5118 -0.1288
  786MOL0     C 3624   5.495   6.751   0.793  0.1942  0.2698  0.0821
  786MOL0     C 3625   5.394   6.829   0.857  0.4527  0.1898 -0.5020
  786MOL0     C 3626   5.421   6.932   0.947  1.2125 -0.1137  0.2450
  786MOL0     C 3627   5.559   6.964   0.957  0.3598 -0.2071 -0.3696
  786MOL0     O 3628   5.571   7.082   1.024  0.2756  0.2813  0.6190
  786MOL0     C 3629   5.663   7.073   1.130  0.0896 -0.3240 -0.2336
  786MOL0     C 3630   5.653   7.213   1.196 -0.9301  0.2651  0.2954
  786MOL0     C 3631   5.722   7.218   1.337 -0.5524 -0.0071  0.1353
  786MOL0     C 3632   5.707   7.356   1.398 -0.1839  0.6586 -0.2028
  786MOL0     C 3633   5.749   7.361   1.548  0.2501 -0.8665 -0.3123
  786MOL0     C 3634   5.709   7.492   1.621 -0.1792  0.4067  1.0447
  786MOL0     C 3635   5.724   7.504   1.778 -0.7655  0.4953  0.0525
  786MOL0     C 3636   5.870   7.467   1.820  0.0530  0.4404 -0.5894
  786MOL0     N 3637   5.906   7.528   1.949 -0.3012 -0.5184  0.7507
  786MOL0     C 3638   6.002   7.481   2.038 -0.3392  0.8190  0.4075
  786MOL0     C 3639   6.005   7.564   2.143  1.0264 -0.3652  0.1479
  786MOL0     C 3640   6.103   7.571   2.258 -0.1753  0.2891 -0.1350
  786MOL0     C 3641   6.075   7.459   2.369 -0.1946  0.2438  0.2832
  786MOL0     C 3642   5.942   7.475   2.424  0.1552  0.5700 -0.4244
  786MOL0     C 3643   5.912   7.362   2.528 -0.0134  0.4402 -1.3429
  786MOL0     O 3644   5.785   7.394   2.575 -0.4770 -0.6555 -0.3288
  786MOL0     C 3645   5.668   7.357   2.517  0.4328  0.0065  0.6476
  786MOL0     C 3646   5.661   7.277   2.406 -0.9992 -0.6303  0.0960
  786MOL0     C 3647   5.532   7.239   2.353 -0.2849 -0.8992 -0.7003
  786MOL0     C 3648   5.417   7.296   2.408  0.6356 -0.4135 -0.0046
  786MOL0     C 3649   5.288   7.249   2.362 -0.1751  0.6595  0.4737
  786MOL0     O 3650   5.186   7.278   2.436 -0.0655 -0.4745  0.4064
  786MOL0     C 3651   5.056   7.245   2.401 -1.0019  0.5120  0.1003
  786MOL0     C 3652   4.991   7.154   2.486  0.9310  0.0383 -0.2229
  786MOL0     C 3653   4.859   7.115   2.467  0.5849  0.8178  0.0218
  786MOL0     C 3654   4.785   7.159   2.354 -0.7821  0.8051  0.0441
  786MOL0     O 3655   4.655   7.126   2.330  0.0420 -0.2052  1.4603
  786MOL0     C 3656   4.588   7.020   2.407 -0.7516  0.0756 -1.1282
  786MOL0     C 3657   4.451   7.001   2.357 -0.2452  0.2349  0.4236
  786MOL0     C 3658   4.396   6.878   2.419  0.4567  0.0498  0.2440
  786MOL0     C 3659   4.283   6.817   2.335 -0.0521  0.0147 -0.1157
  786MOL0     C 3660   4.171   6.912   2.308  0.1149 -0.1910 -0.3265
  786MOL0     C 3661   4.109   6.975   2.431  0.4812 -0.8778  0.3426
  786MOL0     C 3662   3.961   7.001   2.423  0.3152 -0.5538  0.9183
  786MOL0     C 3663   3.884   7.027   2.557  0.0473  1.0786  0.6767
  786MOL0    Cl 3664   3.920   7.179   2.625  0.0186  0.5356  0.0037
  786MOL0     C 3665   4.844   7.253   2.270 -1.9474 -0.5826  0.2825
  786MOL0     C 3666   4.977   7.287   2.291 -0.1639 -0.0749  0.1690
  786MOL0     O 3667   5.280   7.182   2.260 -0.3253 -0.6280  0.6356
  786MOL0     C 3668   5.427   7.390   2.512  0.2789  0.7717  0.5973
  786MOL0     C 3669   5.556   7.415   2.569  0.8478 -0.3067 -0.0060
  786MOL0     N 3670   5.900   7.655   2.124  0.1359  0.1043  0.3220
  786MOL0     N 3671   5.847   7.641   2.003 -0.0283 -0.3318 -0.5021
  786MOL0     C 3672   5.660   6.899   0.888 -0.1851  0.7170 -0.4848
  786MOL0     C 3673   5.630   6.793   0.807 -0.1119  0.3497 -0.4045
  786MOL0     C 3674   5.452   6.396   0.742 -0.3043  0.5573  0.5367
  786MOL0     C 3675   5.491   6.376   0.608 -0.4047  0.0813 -0.7276
  786MOL0     C 3676   5.475   6.254   0.543 -0.0265 -0.8771  0.1675
  786MOL0     C 3677   5.427   6.137   0.597 -0.3079 -0.4427 -0.0479
  786MOL0     O 3678   5.409   6.024   0.528  0.1364  0.4972 -0.4161
  786MOL0     C 3679   5.375   5.898   0.592 -0.4395 -0.4429  0.4450
  786MOL0     C 3680   5.377   5.796   0.483 -0.6689  0.6280  0.6524
  786MOL0     C 3681   5.347   5.649   0.512 -0.1026  0.5129  0.1169
  786MOL0     C 3682   5.434   5.598   0.628  0.9153 -0.2913  0.1502
  786MOL0     C 3683   5.405   5.453   0.653  0.0842  0.1572 -0.9109
  786MOL0     C 3684   5.372   5.338   0.682 -0.4115 -0.7697  0.7284
  786MOL0     C 3685   5.390   6.153   0.731 -0.2890 -0.7442  0.4284
  786MOL0     C 3686   5.408   6.273   0.808 -0.2722 -0.4822  0.3471
  786MOL0     H 3687   5.294   6.793   0.839 -0.4247  2.5899 -0.8520
  786MOL0     H 3688   5.350   6.996   0.999 -0.1086 -1.4691  0.1669
  786MOL0     H 3689   5.763   7.046   1.094 -0.1239  0.7722 -1.7538
  786MOL0     H 3690   5.649   6.996   1.207  0.2061 -0.8220 -0.7078
  786MOL0     H 3691   5.548   7.239   1.215 -1.0992  1.2852 -1.7915
  786MOL0     H 3692   5.712   7.280   1.133  1.4993 -2.6827 -0.7943
  786MOL0     H 3693   5.826   7.203   1.308 -0.1360 -0.0630  1.5699
  786MOL0     H 3694   5.685   7.142   1.407  0.2458 -1.3584 -0.8706
  786MOL0     H 3695   5.779   7.419   1.345 -0.8390  0.5213 -1.2780
  786MOL0     H 3696   5.604   7.392   1.386 -0.5806 -0.6864 -1.0134
  786MOL0     H 3697   5.858   7.354   1.556  0.2695  0.9300  3.3305
  786MOL0     H 3698   5.694   7.279   1.597 -0.9962 -1.9056 -3.2341
  786MOL0     H 3699   5.607   7.523   1.595 -0.7409 -1.2039  1.2044
  786MOL0     H 3700   5.775   7.565   1.573  1.0090 -0.4079  1.3876
  786MOL0     H 3701   5.703   7.611   1.792  1.9803  1.2056 -0.7391
  786MOL0     H 3702   5.655   7.436   1.829 -0.8785 -1.2443 -2.2664
  786MOL0     H 3703   5.950   7.489   1.749  2.0111  1.7420  1.8832
  786MOL0     H 3704   5.871   7.358   1.819  2.7811  0.3609 -2.9992
  786MOL0     H 3705   6.078   7.406   2.017 -1.9142  0.1429 -3.7198
  786MOL0     H 3706   6.095   7.670   2.303  1.6873  0.2006  0.4778
  786MOL0     H 3707   6.210   7.562   2.234 -0.3417 -0.4767 -0.6424
  786MOL0     H 3708   6.154   7.454   2.445  2.1768 -4.0152 -2.0277
  786MOL0     H 3709   6.087   7.367   2.311  2.2743 -0.2140  1.3892
  786MOL0     H 3710   5.939   7.573   2.473 -1.7478  0.8613 -1.0675
  786MOL0     H 3711   5.871   7.461   2.343 -0.2531 -2.9393  0.3911
  786MOL0     H 3712   5.987   7.361   2.608  0.7142  1.6016 -1.9903
  786MOL0     H 3713   5.929   7.261   2.488  4.5533  0.9791 -1.2805
  786MOL0     H 3714   5.752   7.233   2.368 -1.2724 -2.5881  1.5464
  786MOL0     H 3715   5.530   7.157   2.282 -0.8500 -2.8089  1.4028
  786MOL0     H 3716   5.052   7.094   2.552 -3.5079 -1.1771  3.2541
  786MOL0     H 3717   4.804   7.049   2.533 -0.3854 -0.4467 -1.9488
  786MOL0     H 3718   4.589   7.060   2.509 -1.1083 -1.0527 -0.6712
  786MOL0     H 3719   4.647   6.928   2.413  2.6454  2.1432  4.4262
  786MOL0     H 3720   4.449   6.994   2.248  1.1572 -2.6935  0.5111
  786MOL0     H 3721   4.390   7.087   2.389 -1.6532 -1.4468  2.5078
  786MOL0     H 3722   4.359   6.903   2.518 -0.2395  0.7308 -0.1749
  786MOL0     H 3723   4.472   6.801   2.432 -0.0980 -0.8881 -1.6316
  786MOL0     H 3724   4.332   6.787   2.242  1.6326  1.4243  0.2642
  786MOL0     H 3725   4.238   6.729   2.382  0.5885 -1.4120 -2.0337
  786MOL0     H 3726   4.096   6.870   2.240  2.5866 -0.5631 -3.0568
  786MOL0     H 3727   4.202   6.998   2.247  1.4368 -3.0630 -4.1694
  786MOL0     H 3728   4.158   7.068   2.460 -1.4469  0.3529 -0.1333
  786MOL0     H 3729   4.123   6.901   2.510 -0.1084 -2.7468 -1.2111
  786MOL0     H 3730   3.938   7.093   2.368 -2.8815  0.7915  4.0226
  786MOL0     H 3731   3.921   6.914   2.370 -0.0200  1.8384 -3.2256
  786MOL0     H 3732   3.900   6.937   2.616  0.2198 -1.1038 -2.4515
  786MOL0     H 3733   3.777   7.029   2.538 -0.2858 -2.3583  1.5809
  786MOL0     H 3734   4.789   7.293   2.185 -2.5301 -0.9078  0.5050
  786MOL0     H 3735   5.033   7.357   2.230  3.9085  0.7809  4.3260
  786MOL0     H 3736   5.344   7.441   2.559 -1.0343  1.5476 -2.2991
  786MOL0     H 3737   5.545   7.481   2.654 -2.3103 -0.0331 -0.4956
  786MOL0     H 3738   5.755   6.952   0.888 -0.7569  1.8589  1.3823
  786MOL0     H 3739   5.695   6.732   0.745 -0.6629 -3.1255  2.1556
  786MOL0     H 3740   5.543   6.455   0.555 -0.2770 -1.0573 -2.3776
  786MOL0     H 3741   5.506   6.260   0.439  1.6278  0.1881  0.6821
  786MOL0     H 3742   5.270   5.912   0.620 -0.0059  3.0401  0.7993
  786MOL0     H 3743   5.442   5.869   0.674  2.1525 -0.6944 -1.6141
  786MOL0     H 3744   5.305   5.843   0.415  0.2809  0.6816 -0.3269
  786MOL0     H 3745   5.480   5.805   0.448 -0.6945 -0.4463  0.2610
  786MOL0     H 3746   5.357   5.585   0.424 -1.2693  1.1799 -0.5169
  786MOL0     H 3747   5.243   5.647   0.547  0.1897  3.7973  1.4947
  786MOL0     H 3748   5.536   5.605   0.591  0.3106  2.5924 -1.2549
  786MOL0     H 3749   5.424   5.664   0.715  1.0793  0.4293 -0.3675
  786MOL0     H 3750   5.350   5.236   0.706  0.5988 -0.4598  3.3064
  786MOL0     H 3751   5.340   6.078   0.792 -2.0947  0.0347 -0.0369
  786MOL0     H 3752   5.392   6.266   0.915 -0.8091  1.5571  0.4395
  787MOL0     O 3753   6.871   1.600   7.413 -0.0087 -0.2030 -0.4729
  787MOL0     C 3754   6.873   1.495   7.472  0.8980 -0.1470  0.4012
  787MOL0     O 3755   6.762   1.432   7.515  0.1584  0.1977  0.4068
  787MOL0     C 3756   6.632   1.483   7.484  0.1010 -0.2503 -0.8788
  787MOL0     C 3757   6.549   1.427   7.379  0.0645 -0.8178 -0.1819
  787MOL0     C 3758   6.416   1.475   7.375 -0.8274 -0.3358 -0.0288
  787MOL0     C 3759   6.356   1.566   7.466 -0.6818 -0.0042 -0.6223
  787MOL0     O 3760   6.226   1.613   7.453  0.7204  0.4121 -1.0701
  787MOL0     C 3761   6.215   1.756   7.426  0.6190 -0.0844  0.4579
  787MOL0     C 3762   6.222   1.768   7.277  0.1218 -0.1493  0.1870
  787MOL0     C 3763   6.150   1.888   7.234 -0.0974 -0.0558 -0.1271
  787MOL0     C 3764   6.157   1.928   7.085  0.3922  1.0039 -0.2154
  787MOL0     C 3765   6.034   2.010   7.061  0.7459 -0.4871 -0.7869
  787MOL0     C 3766   6.018   2.050   6.916 -0.0408 -0.5776 -0.9517
  787MOL0     C 3767   6.144   2.091   6.845  0.0258  0.2302  0.5600
  787MOL0     C 3768   6.117   2.132   6.695  0.6034 -0.6424  0.3888
  787MOL0     N 3769   6.062   2.268   6.696  0.7315 -0.8269 -0.4721
  787MOL0     C 3770   5.925   2.301   6.692 -0.3263  0.2622  0.5599
  787MOL0     C 3771   5.922   2.433   6.660 -0.1966 -0.6581  0.2813
  787MOL0     C 3772   5.796   2.507   6.625 -0.2109 -0.3257 -0.5656
  787MOL0     C 3773   5.761   2.608   6.731 -0.7786  0.1796 -0.3614
  787MOL0     C 3774   5.611   2.652   6.731  0.6126  0.6976  0.1454
  787MOL0     C 3775   5.576   2.769   6.626  0.5923  0.5266  0.2833
  787MOL0     O 3776   5.432   2.797   6.612 -0.1861 -0.0924  0.3431
  787MOL0     C 3777   5.348   2.791   6.726 -0.2806  0.8574 -0.0373
  787MOL0     C 3778   5.228   2.728   6.711 -0.3890 -0.2067 -1.2020
  787MOL0     C 3779   5.150   2.708   6.835 -0.9040  0.1775 -0.0272
  787MOL0     C 3780   5.187   2.781   6.952 -0.8480  0.4818 -0.6918
  787MOL0     C 3781   5.106   2.762   7.077  0.6529  0.1780  1.0755
  787MOL0     O 3782   5.034   2.657   7.076  0.0919  0.7057 -0.5286
  787MOL0     C 3783   4.936   2.628   7.174  0.1831 -0.4951  0.1666
  787MOL0     C 3784   4.805   2.683   7.181  0.2896  0.5449 -0.4290
  787MOL0     C 3785   4.698   2.626   7.254 -0.3447  0.3741 -0.2510
  787MOL0     C 3786   4.723   2.503   7.321  0.1228 -0.3263  0.5909
  787MOL0     O 3787   4.628   2.412   7.377 -0.9081 -0.6465 -0.0703
  787MOL0     C 3788   4.503   2.471   7.417  0.2544 -0.1880 -0.2111
  787MOL0     C 3789   4.432   2.365   7.497  0.0675 -0.1978 -0.4155
  787MOL0     C 3790   4.493   2.333   7.636 -0.5741  0.3369 -0.4223
  787MOL0     C 3791   4.415   2.243   7.733 -0.4264 -0.0233 -0.5054
  787MOL0     C 3792   4.492   2.219   7.865  0.6801 -0.3776 -0.6772
  787MOL0     C 3793   4.398   2.161   7.967 -0.4155 -0.0268  0.2540
  787MOL0     C 3794   4.486   2.134   8.093  0.6346 -0.6580 -0.7078
  787MOL0     C 3795   4.394   2.109   8.217  0.6397  0.1330  0.3372
  787MOL0    Cl 3796   4.325   1.941   8.214  0.2233 -0.0425  0.3480
  787MOL0     C 3797   4.861   2.460   7.318  0.8180  0.6986  0.6064
  787MOL0     C 3798   4.964   2.512   7.243 -0.8777  0.4689 -0.4976
  787MOL0     O 3799   5.103   2.850   7.161 -0.1692 -0.9897  0.3018
  787MOL0     C 3800   5.298   2.857   6.956 -0.2679  0.5050  0.6015
  787MOL0     C 3801   5.383   2.851   6.846 -0.3457 -0.6163  0.0808
  787MOL0     N 3802   6.057   2.480   6.680  0.2627 -0.2325 -0.3027
  787MOL0     N 3803   6.139   2.382   6.698  0.6560 -0.5099 -0.0522
  787MOL0     C 3804   6.450   1.609   7.559 -0.0461 -0.7509  0.8700
  787MOL0     C 3805   6.579   1.565   7.572 -0.1526  0.2612 -0.2585
  787MOL0     C 3806   7.005   1.437   7.507 -0.7566 -0.8452 -0.5488
  787MOL0     C 3807   7.131   1.481   7.453 -0.6714 -0.0937 -0.2083
  787MOL0     C 3808   7.252   1.428   7.487  1.1184  0.6177 -0.1509
  787MOL0     C 3809   7.248   1.327   7.583 -0.2699  0.2315 -1.0678
  787MOL0     O 3810   7.360   1.257   7.622  0.4060  0.8690 -0.0239
  787MOL0     C 3811   7.485   1.328   7.610 -0.2649  0.4399 -0.9501
  787MOL0     C 3812   7.597   1.277   7.702 -0.0277 -0.7015 -0.7674
  787MOL0     C 3813   7.566   1.326   7.852  0.7534  0.6966  0.7369
  787MOL0     C 3814   7.681   1.261   7.936  0.5556 -1.0423 -0.2016
  787MOL0     C 3815   7.642   1.122   7.974  0.4426  0.5763 -0.5295
  787MOL0     C 3816   7.620   1.002   7.967 -0.8623 -0.7723 -0.9963
  787MOL0     C 3817   7.141   1.288   7.656 -0.4571 -1.5001 -0.9311
  787MOL0     C 3818   7.014   1.347   7.619 -0.1205 -0.8736  1.2694
  787MOL0     H 3819   6.591   1.347   7.318  0.3298  0.7194 -2.1290
  787MOL0     H 3820   6.352   1.440   7.296  0.2133 -2.4167 -0.0072
  787MOL0     H 3821   6.294   1.819   7.470 -0.7131  2.2945 -0.3947
  787MOL0     H 3822   6.116   1.789   7.458 -0.8923  0.6021 -4.1440
  787MOL0     H 3823   6.175   1.674   7.245 -0.8602 -0.1355  1.4923
  787MOL0     H 3824   6.326   1.765   7.244  0.2178  0.5475  0.4135
  787MOL0     H 3825   6.177   1.971   7.300  2.6842 -0.3801 -0.7381
  787MOL0     H 3826   6.044   1.870   7.254 -0.5367 -0.0516 -2.1872
  787MOL0     H 3827   6.248   1.987   7.072  0.7476  0.6928  0.7975
  787MOL0     H 3828   6.161   1.833   7.031  1.0062  0.5414  0.6204
  787MOL0     H 3829   6.030   2.108   7.110 -2.8209 -0.4623 -0.8256
  787MOL0     H 3830   5.940   1.961   7.091  1.7202 -1.1751  1.4024
  787MOL0     H 3831   5.945   2.131   6.910  0.0603 -0.5510 -2.1449
  787MOL0     H 3832   5.968   1.973   6.855 -2.6082  1.3558 -1.4889
  787MOL0     H 3833   6.210   2.165   6.890  0.5890  1.4984 -2.1796
  787MOL0     H 3834   6.212   2.005   6.838  1.2012  1.1314  0.5634
  787MOL0     H 3835   6.052   2.061   6.643  0.7974  1.4530 -3.0394
  787MOL0     H 3836   6.207   2.135   6.632 -1.2578  0.2616 -2.4247
  787MOL0     H 3837   5.839   2.235   6.683 -1.3030  1.6591 -0.8443
  787MOL0     H 3838   5.719   2.430   6.618 -1.7686  1.2638 -1.5711
  787MOL0     H 3839   5.813   2.553   6.527  0.3469  2.8148  0.8712
  787MOL0     H 3840   5.829   2.693   6.743 -0.8766 -0.1759  5.9730
  787MOL0     H 3841   5.780   2.553   6.824  0.3876 -1.5686 -1.5662
  787MOL0     H 3842   5.545   2.568   6.708  0.1003  0.7156  1.4703
  787MOL0     H 3843   5.593   2.668   6.838 -0.7038 -3.6412  0.7893
  787MOL0     H 3844   5.618   2.735   6.531  0.8560 -1.4080  1.0628
  787MOL0     H 3845   5.627   2.865   6.637 -0.0705  0.9043  0.1155
  787MOL0     H 3846   5.194   2.694   6.614 -2.4560  2.1154 -1.3928
  787MOL0     H 3847   5.054   2.658   6.843  0.8418 -3.3237  0.9119
  787MOL0     H 3848   4.794   2.773   7.120  4.4807  0.9159 -0.9148
  787MOL0     H 3849   4.603   2.676   7.241 -1.4001 -1.7556 -1.4099
  787MOL0     H 3850   4.445   2.513   7.335 -0.0160 -2.2170 -1.1068
  787MOL0     H 3851   4.539   2.552   7.482 -1.2048 -0.7717  1.4169
  787MOL0     H 3852   4.445   2.273   7.439  0.8911  0.6694 -1.6514
  787MOL0     H 3853   4.332   2.406   7.514 -0.0660 -0.7629  0.2426
  787MOL0     H 3854   4.519   2.430   7.680  1.9393 -1.7757  3.4245
  787MOL0     H 3855   4.594   2.295   7.618 -1.1334 -1.5266  0.1705
  787MOL0     H 3856   4.333   2.310   7.761 -2.8725 -3.8960  2.7485
  787MOL0     H 3857   4.380   2.151   7.686  1.4307 -0.0124 -2.0193
  787MOL0     H 3858   4.535   2.312   7.903 -3.1375  0.8947  0.9801
  787MOL0     H 3859   4.572   2.145   7.853  0.7014 -0.9237  2.1926
  787MOL0     H 3860   4.364   2.071   7.915  2.7881 -0.4833 -1.2931
  787MOL0     H 3861   4.310   2.220   7.994 -1.2017 -1.1284  0.1863
  787MOL0     H 3862   4.554   2.050   8.081  0.7092 -0.9040  1.1534
  787MOL0     H 3863   4.537   2.228   8.117 -0.7230  0.0686 -0.5343
  787MOL0     H 3864   4.314   2.184   8.221  0.1757 -0.3901  1.1770
  787MOL0     H 3865   4.462   2.117   8.302  1.3297 -1.0024 -0.0893
  787MOL0     H 3866   4.884   2.368   7.369 -0.6962 -0.1260 -0.1524
  787MOL0     H 3867   5.063   2.466   7.235 -0.8643  0.3227  0.3468
  787MOL0     H 3868   5.331   2.906   7.046 -0.5535  0.2819  0.8293
  787MOL0     H 3869   5.477   2.903   6.852 -0.1764 -0.9633  0.4882
  787MOL0     H 3870   6.422   1.684   7.632  1.3013  2.6767 -1.8357
  787MOL0     H 3871   6.628   1.603   7.661 -1.2940  1.0518  0.0517
  787MOL0     H 3872   7.130   1.562   7.380  3.3076  0.2202 -0.1520
  787MOL0     H 3873   7.342   1.469   7.442  0.3428  2.2924 -0.2492
  787MOL0     H 3874   7.469   1.431   7.643 -1.8188 -0.5774  1.8219
  787MOL0     H 3875   7.520   1.322   7.507  0.5904  0.1449 -0.6519
  787MOL0     H 3876   7.616   1.170   7.696  0.4679 -0.8501  2.0818
  787MOL0     H 3877   7.689   1.328   7.674  1.4617 -2.0970  1.2815
  787MOL0     H 3878   7.466   1.302   7.891 -0.3491  2.3524 -0.8996
  787MOL0     H 3879   7.583   1.434   7.848 -0.5253  0.9259 -3.1553
  787MOL0     H 3880   7.781   1.282   7.898 -0.0581  0.9663 -0.8404
  787MOL0     H 3881   7.683   1.325   8.024 -1.7203  0.3819 -1.0906
  787MOL0     H 3882   7.586   0.901   7.959 -0.6930 -0.8997 -0.1665
  787MOL0     H 3883   7.151   1.216   7.736  0.1851 -0.9153 -0.4757
  787MOL0     H 3884   6.920   1.323   7.669 -0.2869 -1.1101  0.8438
  788MOL0     O 3885   0.696   6.931   7.807 -0.2918 -0.0817  0.2546
  788MOL0     C 3886   0.772   6.888   7.893  0.1757 -0.4856  0.3315
  788MOL0     O 3887   0.734   6.797   7.990  0.6746  0.3028 -0.2016
  788MOL0     C 3888   0.618   6.720   7.977  0.3495  0.1653  0.7089
  788MOL0     C 3889   0.555   6.681   8.098 -0.0399 -0.2965 -0.1987
  788MOL0     C 3890   0.430   6.616   8.102  0.2308 -0.4513  0.3066
  788MOL0     C 3891   0.360   6.596   7.980  0.1734  0.3578  0.1736
  788MOL0     O 3892   0.227   6.541   7.992  0.0222  0.4887  0.8781
  788MOL0     C 3893   0.130   6.587   7.889 -0.0103 -0.3030 -0.0830
  788MOL0     C 3894  -0.010   6.517   7.908  0.0511 -0.4701 -0.3390
  788MOL0     C 3895   0.001   6.380   7.970 -0.6562  0.7678 -0.0992
  788MOL0     C 3896  -0.138   6.314   8.002  0.0823  0.1120  0.9033
  788MOL0     C 3897  -0.127   6.207   8.115 -0.2512 -0.3793  0.8339
  788MOL0     C 3898  -0.044   6.087   8.071 -0.6949  0.1005  0.3897
  788MOL0     C 3899  -0.001   5.991   8.188  0.4778  0.1328  1.1432
  788MOL0     C 3900   0.029   5.850   8.145 -0.8418  0.2315  0.2249
  788MOL0     N 3901   0.074   5.763   8.259  0.5783 -0.0066 -0.7159
  788MOL0     C 3902   0.202   5.718   8.275 -1.2166 -0.7060 -0.0278
  788MOL0     C 3903   0.203   5.658   8.396  0.0480 -0.1641  0.2981
  788MOL0     C 3904   0.305   5.585   8.467 -0.5473  0.2037 -0.0744
  788MOL0     C 3905   0.360   5.659   8.584 -0.2810  0.0931  1.0923
  788MOL0     C 3906   0.255   5.676   8.698  0.7432 -0.2402 -0.4611
  788MOL0     C 3907   0.332   5.684   8.817 -0.3396  0.3705  0.4932
  788MOL0     O 3908   0.397   5.558   8.843  0.3299 -0.0668  0.3163
  788MOL0     C 3909   0.519   5.573   8.897 -0.9576 -0.0005  0.6969
  788MOL0     C 3910   0.565   5.659   8.997 -0.2264  0.2641  0.4558
  788MOL0     C 3911   0.699   5.670   9.033  0.0289 -0.2730 -0.0387
  788MOL0     C 3912   0.801   5.598   8.968 -0.1261 -0.0386  0.2083
  788MOL0     C 3913   0.939   5.595   9.012 -0.4838  0.4881  0.1892
  788MOL0     O 3914   0.978   5.697   9.102  0.5585 -0.3203 -0.1542
  788MOL0     C 3915   1.102   5.704   9.150  0.1729 -0.3831  0.5998
  788MOL0     C 3916   1.129   5.651   9.271  0.0120  0.6578 -0.0135
  788MOL0     C 3917   1.249   5.665   9.336 -0.3798 -0.2380  1.1014
  788MOL0     C 3918   1.354   5.715   9.264 -0.5370 -0.6119  0.9993
  788MOL0     O 3919   1.487   5.718   9.315  0.3036  0.2622 -0.7970
  788MOL0     C 3920   1.522   5.614   9.410 -0.8290 -0.5595  0.0139
  788MOL0     C 3921   1.529   5.478   9.344 -0.2072  0.1384  0.0647
  788MOL0     C 3922   1.624   5.447   9.229  0.6837 -0.6108 -0.0021
  788MOL0     C 3923   1.650   5.295   9.215  0.3884  0.9738  0.1572
  788MOL0     C 3924   1.776   5.252   9.141  0.3990  0.5240  0.2531
  788MOL0     C 3925   1.902   5.248   9.231 -0.3729 -0.1616  0.4232
  788MOL0     C 3926   2.013   5.165   9.155  0.3421  0.2168 -0.5489
  788MOL0     C 3927   2.135   5.142   9.246  0.6294  0.5026 -0.3581
  788MOL0    Cl 3928   2.246   5.037   9.156  0.2370  0.0893 -0.6767
  788MOL0     C 3929   1.341   5.759   9.135  0.2533 -0.1246  0.1937
  788MOL0     C 3930   1.208   5.757   9.079 -0.4380 -0.2920  0.6744
  788MOL0     O 3931   1.018   5.513   8.962  0.5734 -0.1170 -0.7663
  788MOL0     C 3932   0.765   5.521   8.856  0.1844  0.6481 -0.1428
  788MOL0     C 3933   0.629   5.514   8.818  0.0970 -0.2923  0.4151
  788MOL0     N 3934   0.077   5.671   8.445 -0.1794  0.1109  0.7468
  788MOL0     N 3935  -0.000   5.732   8.368 -0.4287 -1.2780  0.2952
  788MOL0     C 3936   0.420   6.631   7.852  0.3713  0.3276  0.5571
  788MOL0     C 3937   0.549   6.695   7.851  0.3809 -0.5700 -0.8807
  788MOL0     C 3938   0.920   6.921   7.878 -0.1121 -0.8313 -0.4312
  788MOL0     C 3939   0.966   6.988   7.764 -0.1646 -0.1947  0.2341
  788MOL0     C 3940   1.103   7.010   7.748  0.5939 -0.1974  0.1564
  788MOL0     C 3941   1.200   6.987   7.845  0.1136  0.1273  0.3290
  788MOL0     O 3942   1.323   7.042   7.831 -0.1701  0.0234  0.0104
  788MOL0     C 3943   1.365   7.128   7.934 -0.5819 -0.7000 -1.0205
  788MOL0     C 3944   1.477   7.223   7.883  0.0603  0.5051  0.4148
  788MOL0     C 3945   1.600   7.147   7.841 -0.3860 -0.4886 -0.2347
  788MOL0     C 3946   1.705   7.249   7.797 -0.5884  0.0021  0.5341
  788MOL0     C 3947   1.830   7.188   7.737 -0.8420 -0.4283  0.4353
  788MOL0     C 3948   1.918   7.137   7.682  0.2736  0.9189  0.1744
  788MOL0     C 3949   1.150   6.911   7.960 -0.0899 -0.1313 -0.0837
  788MOL0     C 3950   1.007   6.886   7.981 -0.0422  0.5992  0.4639
  788MOL0     H 3951   0.604   6.691   8.194  1.5606 -0.4531 -0.9637
  788MOL0     H 3952   0.379   6.579   8.191  0.0903 -0.1828  0.3372
  788MOL0     H 3953   0.161   6.563   7.787  0.5490  1.0706 -0.2630
  788MOL0     H 3954   0.110   6.695   7.892  1.3001  0.0194 -1.6750
  788MOL0     H 3955  -0.062   6.513   7.812 -0.6002 -0.0023 -0.0072
  788MOL0     H 3956  -0.074   6.572   7.977  2.0396  0.2817  1.0015
  788MOL0     H 3957   0.069   6.379   8.056  0.3944 -1.3444 -0.8850
  788MOL0     H 3958   0.056   6.310   7.908 -2.6437 -2.4642  1.5470
  788MOL0     H 3959  -0.213   6.389   8.029 -1.8112 -1.3512 -0.0186
  788MOL0     H 3960  -0.162   6.274   7.903  0.0936  0.7211  0.6513
  788MOL0     H 3961  -0.229   6.173   8.137 -2.2168  3.9092 -0.5491
  788MOL0     H 3962  -0.085   6.264   8.198 -4.1854  0.0476  2.7611
  788MOL0     H 3963   0.057   6.111   8.034 -0.1947 -0.6675  1.2173
  788MOL0     H 3964  -0.098   6.040   7.989  0.8820 -2.7716  0.8829
  788MOL0     H 3965   0.088   6.035   8.235  2.3431 -0.7542 -1.3442
  788MOL0     H 3966  -0.084   5.971   8.257  1.7826  0.8234  2.9914
  788MOL0     H 3967   0.107   5.842   8.069 -1.5871 -0.2452 -0.5080
  788MOL0     H 3968  -0.066   5.808   8.111 -2.1606  2.1042  1.3992
  788MOL0     H 3969   0.285   5.745   8.211 -0.3403 -1.5115  0.7397
  788MOL0     H 3970   0.397   5.563   8.413  2.8395  2.6682  4.0697
  788MOL0     H 3971   0.263   5.491   8.504 -2.1927  0.5186 -1.0254
  788MOL0     H 3972   0.396   5.756   8.549  0.2492 -0.6832 -0.6101
  788MOL0     H 3973   0.447   5.602   8.616  1.7487  0.9768 -2.3649
  788MOL0     H 3974   0.195   5.765   8.678 -1.1342 -1.3140  0.1395
  788MOL0     H 3975   0.177   5.600   8.704 -0.8442  1.2782 -1.1006
  788MOL0     H 3976   0.270   5.705   8.904 -0.8963 -1.7975  0.6861
  788MOL0     H 3977   0.391   5.776   8.813  1.1512 -0.5223  1.1978
  788MOL0     H 3978   0.483   5.712   9.044  1.2114  2.7561  0.3503
  788MOL0     H 3979   0.720   5.716   9.130 -0.1268  0.4364 -0.3325
  788MOL0     H 3980   1.045   5.606   9.323  0.0263 -0.2876 -0.7890
  788MOL0     H 3981   1.262   5.628   9.437  0.7077 -3.4685 -0.0689
  788MOL0     H 3982   1.454   5.611   9.496 -0.6770 -0.7368  0.1295
  788MOL0     H 3983   1.619   5.636   9.458 -1.3890  1.6551  0.2365
  788MOL0     H 3984   1.431   5.452   9.302  0.6716 -2.5641 -0.4765
  788MOL0     H 3985   1.546   5.401   9.419 -1.6351 -2.7370 -2.3652
  788MOL0     H 3986   1.721   5.494   9.251  0.9590  0.1935 -2.6248
  788MOL0     H 3987   1.587   5.499   9.141  1.4353  0.6804  0.4268
  788MOL0     H 3988   1.669   5.244   9.310  1.0376 -1.4030 -1.1481
  788MOL0     H 3989   1.565   5.243   9.170  0.4577 -0.5672  1.7133
  788MOL0     H 3990   1.795   5.317   9.055 -2.1225  1.2441  0.1691
  788MOL0     H 3991   1.757   5.147   9.113 -0.5323  0.1987  1.9780
  788MOL0     H 3992   1.874   5.186   9.317  2.7540 -0.3859  1.4046
  788MOL0     H 3993   1.941   5.346   9.257  1.4873 -0.9886  0.8970
  788MOL0     H 3994   1.971   5.068   9.130  4.8019 -1.8272 -1.0059
  788MOL0     H 3995   2.049   5.220   9.068  1.4526  1.4823  0.6457
  788MOL0     H 3996   2.115   5.090   9.340  0.3006  1.9493  0.4010
  788MOL0     H 3997   2.188   5.232   9.280 -0.7145  1.1079  0.2151
  788MOL0     H 3998   1.427   5.785   9.075 -0.5500  0.8236 -0.5866
  788MOL0     H 3999   1.207   5.784   8.974  1.2615 -0.4247  0.5985
  788MOL0     H 4000   0.828   5.459   8.794  2.5585  0.6841  2.0359
  788MOL0     H 4001   0.587   5.451   8.740 -1.9480 -0.0247  1.2244
  788MOL0     H 4002   0.388   6.609   7.751  3.2203  0.0301 -0.3890
  788MOL0     H 4003   0.603   6.725   7.762  0.6961  2.1529  0.1406
  788MOL0     H 4004   0.904   7.024   7.683 -0.9514  1.0638  1.3437
  788MOL0     H 4005   1.120   7.066   7.657  0.6164 -1.5384 -0.6926
  788MOL0     H 4006   1.405   7.077   8.021  0.3903  0.4473 -0.7706
  788MOL0     H 4007   1.282   7.186   7.976 -0.2120 -2.0363  1.7883
  788MOL0     H 4008   1.440   7.272   7.793 -3.1272 -0.6635  0.9399
  788MOL0     H 4009   1.501   7.296   7.962  1.5203 -2.1813  2.6333
  788MOL0     H 4010   1.578   7.086   7.753  1.4802 -2.0058  0.2752
  788MOL0     H 4011   1.641   7.086   7.922  1.0062 -0.0371 -0.5634
  788MOL0     H 4012   1.661   7.316   7.722 -0.4304  0.6665  1.0190
  788MOL0     H 4013   1.720   7.312   7.886 -2.8363  1.9028 -0.3338
  788MOL0     H 4014   2.003   7.084   7.644  0.6618  1.8596 -0.2795
  788MOL0     H 4015   1.201   6.866   8.045 -3.2504  0.7280  2.4923
  788MOL0     H 4016   0.968   6.846   8.074  0.8260  0.7669  0.9110
  789MOL0     O 4017   2.950   0.046   5.966  0.0873  0.3102  0.0771
  789MOL0     C 4018   2.892  -0.035   5.892  0.2205  0.2392 -0.2364
  789MOL0     O 4019   2.784  -0.106   5.920 -0.3257 -0.3562 -0.1602
  789MOL0     C 4020   2.711  -0.119   6.041  0.4105 -0.1727 -0.0205
  789MOL0     C 4021   2.748  -0.071   6.176  0.0805  0.5344  0.4393
  789MOL0     C 4022   2.671  -0.124   6.281 -0.4692 -1.5884  0.2753
  789MOL0     C 4023   2.551  -0.193   6.272 -0.1401  0.0302  1.1901
  789MOL0     O 4024   2.470  -0.226   6.376 -0.5912  0.1195 -0.2150
  789MOL0     C 4025   2.493  -0.164   6.507 -0.1776 -0.0138 -1.2320
  789MOL0     C 4026   2.370  -0.198   6.582  0.2284  0.0529 -0.7157
  789MOL0     C 4027   2.381  -0.162   6.728 -0.6222 -0.3581  0.9007
  789MOL0     C 4028   2.441  -0.272   6.808 -0.2288 -0.4654  0.0925
  789MOL0     C 4029   2.417  -0.241   6.956  0.1161 -0.0842  0.0934
  789MOL0     C 4030   2.450  -0.370   7.043  0.5061 -0.9913 -0.3995
  789MOL0     C 4031   2.388  -0.362   7.181 -0.0461 -0.5683  0.6215
  789MOL0     C 4032   2.420  -0.482   7.273 -0.4681  0.4780 -0.2269
  789MOL0     N 4033   2.373  -0.461   7.408 -0.3152 -0.2936 -0.8492
  789MOL0     C 4034   2.438  -0.385   7.499 -0.1994  0.1816  0.1812
  789MOL0     C 4035   2.342  -0.379   7.596 -0.6654 -0.4741 -0.1900
  789MOL0     C 4036   2.357  -0.289   7.718 -0.2050 -0.2299  0.2644
  789MOL0     C 4037   2.249  -0.319   7.822  0.7538 -0.1725  0.2565
  789MOL0     C 4038   2.288  -0.252   7.951  0.8757  1.1006  0.1199
  789MOL0     C 4039   2.280  -0.106   7.958 -0.2635  0.5698 -0.5072
  789MOL0     O 4040   2.288  -0.068   8.098 -0.1894  0.1041 -0.3304
  789MOL0     C 4041   2.171  -0.065   8.169 -0.0137  1.1592 -0.1112
  789MOL0     C 4042   2.047  -0.111   8.128 -0.6688 -0.6180  0.1980
  789MOL0     C 4043   1.934  -0.091   8.200 -0.3386 -0.4233 -0.1295
  789MOL0     C 4044   1.929  -0.033   8.325 -0.2479  0.5819  0.2907
  789MOL0     C 4045   1.809  -0.010   8.401  0.0174 -0.0126  0.5248
  789MOL0     O 4046   1.695  -0.055   8.345  0.1149 -0.3760  0.2262
  789MOL0     C 4047   1.597  -0.076   8.427  0.3210  0.3532 -1.0750
  789MOL0     C 4048   1.526   0.024   8.497 -0.7375  0.2048 -0.1767
  789MOL0     C 4049   1.430  -0.015   8.594  0.0850 -0.5679  0.5915
  789MOL0     C 4050   1.384  -0.149   8.612 -0.1311 -0.3858  0.4956
  789MOL0     O 4051   1.291  -0.177   8.711 -0.8164 -0.4026 -0.4280
  789MOL0     C 4052   1.260  -0.311   8.739 -0.6462 -0.4447  0.1053
  789MOL0     C 4053   1.139  -0.345   8.665 -0.1012  0.3670 -0.2869
  789MOL0     C 4054   1.078  -0.489   8.700  0.2395 -0.4031 -1.1899
  789MOL0     C 4055   1.005  -0.487   8.841  0.1181  0.0897  0.5205
  789MOL0     C 4056   0.943  -0.622   8.856 -0.1611 -0.5700  0.4933
  789MOL0     C 4057   0.857  -0.633   8.983  0.3425 -0.5265 -0.3691
  789MOL0     C 4058   0.779  -0.772   9.000  0.3343  0.2791 -0.8559
  789MOL0     C 4059   0.660  -0.757   9.094  0.6790 -0.0327 -1.1521
  789MOL0    Cl 4060   0.583  -0.926   9.114 -0.7458  0.2070 -0.0326
  789MOL0     C 4061   1.448  -0.242   8.526  0.1484  0.0979  0.5091
  789MOL0     C 4062   1.556  -0.205   8.442  1.0274  0.2439  0.5053
  789MOL0     O 4063   1.813   0.051   8.509 -0.2142  0.4108  0.6281
  789MOL0     C 4064   2.064  -0.009   8.377 -0.8041  0.2304 -0.4002
  789MOL0     C 4065   2.181  -0.028   8.300  0.1893 -0.4678  1.2807
  789MOL0     N 4066   2.232  -0.450   7.564 -0.0942  0.0635  0.2717
  789MOL0     N 4067   2.252  -0.510   7.450  1.4491 -0.0105 -0.1052
  789MOL0     C 4068   2.510  -0.231   6.142  0.2336  0.7550  1.1149
  789MOL0     C 4069   2.585  -0.196   6.028 -0.7889 -0.5080 -0.3761
  789MOL0     C 4070   2.931  -0.031   5.748  0.1363  0.4206 -0.1458
  789MOL0     C 4071   2.871  -0.122   5.659 -0.0734  0.2753 -0.5074
  789MOL0     C 4072   2.919  -0.134   5.530 -0.2125  0.3519  0.2726
  789MOL0     C 4073   3.025  -0.050   5.493 -0.8222 -0.2171  0.1824
  789MOL0     O 4074   3.084  -0.044   5.374 -0.0514  0.6433  0.7106
  789MOL0     C 4075   3.039  -0.131   5.267  0.3835 -0.2561  0.2916
  789MOL0     C 4076   3.095  -0.276   5.259  0.6671 -1.1195 -0.5874
  789MOL0     C 4077   3.043  -0.358   5.147 -0.8796  0.2932  0.1245
  789MOL0     C 4078   3.110  -0.494   5.141 -0.3735 -0.1157  0.5116
  789MOL0     C 4079   3.048  -0.568   5.026 -0.5060  0.1868  0.0203
  789MOL0     C 4080   2.998  -0.625   4.931 -0.4402  0.2870  0.7545
  789MOL0     C 4081   3.080   0.046   5.581  0.4918  0.2512 -0.9917
  789MOL0     C 4082   3.027   0.058   5.707  0.4537  0.9731  0.0459
  789MOL0     H 4083   2.840  -0.018   6.197 -0.4029  0.5404  2.8400
  789MOL0     H 4084   2.720  -0.093   6.373 -0.6734 -1.2948  0.2867
  789MOL0     H 4085   2.509  -0.056   6.502 -0.1146  0.0742  0.4310
  789MOL0     H 4086   2.573  -0.214   6.562 -0.0653  1.9720  0.5493
  789MOL0     H 4087   2.352  -0.306   6.574  0.8082 -0.2027  0.9814
  789MOL0     H 4088   2.285  -0.144   6.540 -3.3108 -1.1761  3.8990
  789MOL0     H 4089   2.282  -0.148   6.771 -0.2641  4.1336  0.7633
  789MOL0     H 4090   2.442  -0.074   6.746 -0.9513 -0.2415  1.4711
  789MOL0     H 4091   2.409  -0.373   6.778 -0.6641  0.2686 -2.1281
  789MOL0     H 4092   2.546  -0.280   6.775 -0.6574 -2.0669 -1.0227
  789MOL0     H 4093   2.312  -0.219   6.973 -0.9452 -1.2796 -3.7507
  789MOL0     H 4094   2.475  -0.153   6.985 -2.5681  1.5818  0.7489
  789MOL0     H 4095   2.558  -0.385   7.050  0.9440 -0.3073 -3.9181
  789MOL0     H 4096   2.398  -0.452   6.993  0.3930  0.3920 -2.6836
  789MOL0     H 4097   2.418  -0.264   7.222 -0.1827  0.2142 -1.0783
  789MOL0     H 4098   2.281  -0.352   7.162  0.6012  1.4416 -2.6451
  789MOL0     H 4099   2.529  -0.483   7.286 -0.6789  1.0498  1.7771
  789MOL0     H 4100   2.386  -0.580   7.237  1.4150  0.4435 -2.1810
  789MOL0     H 4101   2.535  -0.336   7.504 -1.8290  3.6610  0.4575
  789MOL0     H 4102   2.354  -0.183   7.689 -0.4140  0.2744  1.9907
  789MOL0     H 4103   2.454  -0.321   7.755 -0.4007 -3.9703 -1.9818
  789MOL0     H 4104   2.252  -0.427   7.835  1.2498 -0.0543  1.1615
  789MOL0     H 4105   2.149  -0.291   7.787  0.1660 -0.3160  1.7862
  789MOL0     H 4106   2.219  -0.291   8.027  2.5675  1.9594  2.1934
  789MOL0     H 4107   2.389  -0.283   7.982  0.3568 -3.1467 -1.6787
  789MOL0     H 4108   2.187  -0.068   7.916 -0.9889  1.2069  1.5299
  789MOL0     H 4109   2.358  -0.051   7.906  1.4529 -1.1073  0.1705
  789MOL0     H 4110   2.023  -0.151   8.030  0.7462  1.3667 -1.0167
  789MOL0     H 4111   1.844  -0.103   8.141  0.1598 -1.1194 -0.7622
  789MOL0     H 4112   1.562   0.126   8.491  2.5275 -0.7884  0.5418
  789MOL0     H 4113   1.394   0.072   8.649  4.5726  2.0045  0.0460
  789MOL0     H 4114   1.243  -0.322   8.846  0.1430 -1.5229  0.1408
  789MOL0     H 4115   1.340  -0.380   8.710 -0.5303  0.2998 -1.4697
  789MOL0     H 4116   1.158  -0.351   8.557 -1.0818 -1.9141 -0.3892
  789MOL0     H 4117   1.056  -0.277   8.687  0.0855 -0.0969  2.0501
  789MOL0     H 4118   1.155  -0.566   8.710  1.0954  0.5128 -0.5017
  789MOL0     H 4119   1.003  -0.511   8.623 -0.0349 -1.1652 -0.7092
  789MOL0     H 4120   1.071  -0.471   8.926 -0.0270  4.9087 -0.0064
  789MOL0     H 4121   0.926  -0.412   8.834  1.2613  1.1842 -1.5466
  789MOL0     H 4122   1.023  -0.697   8.852  1.5811  1.2488 -0.4916
  789MOL0     H 4123   0.882  -0.647   8.768 -0.4073  0.7516  0.2695
  789MOL0     H 4124   0.791  -0.547   8.983 -0.8345 -1.2617 -3.8448
  789MOL0     H 4125   0.932  -0.620   9.062 -3.1267 -0.8860  3.3183
  789MOL0     H 4126   0.725  -0.800   8.909 -2.2262 -1.5424  1.0729
  789MOL0     H 4127   0.852  -0.845   9.034  0.8743  0.4249 -1.6674
  789MOL0     H 4128   0.586  -0.694   9.044 -0.2549  0.9109  1.2895
  789MOL0     H 4129   0.687  -0.711   9.190  0.9256 -1.4885 -0.4988
  789MOL0     H 4130   1.418  -0.346   8.515  1.1772 -0.1888  0.2480
  789MOL0     H 4131   1.613  -0.282   8.390  1.1432  0.2454  0.6273
  789MOL0     H 4132   2.078   0.019   8.481 -2.1570 -1.1655  0.2007
  789MOL0     H 4133   2.281  -0.006   8.335  0.8556  0.3326 -0.9134
  789MOL0     H 4134   2.422  -0.291   6.123  1.3993 -1.9360  3.3776
  789MOL0     H 4135   2.544  -0.220   5.930 -1.9994  1.8622 -0.5282
  789MOL0     H 4136   2.792  -0.190   5.687 -1.1119  1.6395 -0.0221
  789MOL0     H 4137   2.872  -0.202   5.460 -0.1204  0.4313  0.1365
  789MOL0     H 4138   3.084  -0.085   5.178 -1.3878 -1.7116 -1.4586
  789MOL0     H 4139   2.931  -0.136   5.250  0.7008 -3.3043 -1.7911
  789MOL0     H 4140   3.204  -0.271   5.260  0.6199  1.7891 -1.0466
  789MOL0     H 4141   3.056  -0.332   5.344  0.3091 -0.1245 -0.0734
  789MOL0     H 4142   3.067  -0.307   5.053 -2.4840 -2.3535 -1.8798
  789MOL0     H 4143   2.936  -0.376   5.144 -0.7964 -0.1171 -2.1272
  789MOL0     H 4144   3.219  -0.489   5.129 -0.3157  0.3613  1.1784
  789MOL0     H 4145   3.087  -0.540   5.237  2.7036 -0.1061  1.3725
  789MOL0     H 4146   2.957  -0.671   4.843 -2.0561  2.7962  0.0619
  789MOL0     H 4147   3.161   0.110   5.546  0.1429  1.5475  0.4792
  789MOL0     H 4148   3.061   0.139   5.770  0.9731  0.9897 -0.2520
  790MOL0     O 4149   8.778   0.730  10.613 -0.3328  0.5739 -0.4200
  790MOL0     C 4150   8.793   0.672  10.716 -0.0941  1.2212 -0.4416
  790MOL0     O 4151   8.744   0.700  10.843  0.3255  0.0759 -0.6124
  790MOL0     C 4152   8.643   0.783  10.870  0.4392  0.1825  0.5783
  790MOL0     C 4153   8.636   0.894  10.952  0.2775 -0.1233 -0.1550
  790MOL0     C 4154   8.538   0.982  10.968  0.9385 -0.2306 -0.0769
  790MOL0     C 4155   8.422   0.970  10.887  0.0439 -0.7511  0.5031
  790MOL0     O 4156   8.308   1.055  10.874 -0.6828 -0.0464 -0.2820
  790MOL0     C 4157   8.308   1.183  10.939 -0.1371  0.4306  0.2267
  790MOL0     C 4158   8.202   1.275  10.884  0.9517 -0.5022 -0.6907
  790MOL0     C 4159   8.062   1.276  10.947 -0.1674 -0.1866 -0.0280
  790MOL0     C 4160   8.051   1.349  11.094 -0.3134  0.3285  1.3483
  790MOL0     C 4161   7.909   1.351  11.156 -0.5248 -0.1986  0.2824
  790MOL0     C 4162   7.917   1.384  11.307  0.0993 -0.8316  0.2302
  790MOL0     C 4163   7.780   1.425  11.361  0.6276  0.5818  0.3854
  790MOL0     C 4164   7.786   1.458  11.509 -0.9615 -0.3382 -0.1402
  790MOL0     N 4165   7.648   1.478  11.548 -0.6433  0.0055  0.6155
  790MOL0     C 4166   7.556   1.376  11.563 -0.1578 -0.0916  0.3125
  790MOL0     C 4167   7.458   1.433  11.631  0.6644  0.1999 -0.4432
  790MOL0     C 4168   7.337   1.363  11.687 -0.7375 -0.1898 -0.5752
  790MOL0     C 4169   7.212   1.453  11.656  0.5720 -0.1487 -0.6394
  790MOL0     C 4170   7.174   1.441  11.507 -0.3084  0.1111 -0.1865
  790MOL0     C 4171   7.117   1.294  11.480 -0.4956  0.0455 -0.9565
  790MOL0     O 4172   7.039   1.285  11.360 -0.2556 -0.1537 -0.6355
  790MOL0     C 4173   6.917   1.227  11.368 -0.7481  0.3462  0.9888
  790MOL0     C 4174   6.811   1.304  11.380  0.7052 -0.0075  0.6623
  790MOL0     C 4175   6.690   1.243  11.375  0.1510 -0.2217  0.3853
  790MOL0     C 4176   6.667   1.101  11.366 -0.8554 -0.1234 -0.0103
  790MOL0     C 4177   6.537   1.037  11.363 -0.5962 -0.3934  0.0821
  790MOL0     O 4178   6.425   1.120  11.359 -0.5461 -0.1578  0.2107
  790MOL0     C 4179   6.310   1.060  11.346  0.9881  0.1142  0.9173
  790MOL0     C 4180   6.238   1.068  11.222 -0.1042 -0.1320 -1.3563
  790MOL0     C 4181   6.107   1.029  11.206 -0.4770 -0.1241  0.6865
  790MOL0     C 4182   6.036   0.980  11.318  0.6636  0.5141  0.0887
  790MOL0     O 4183   5.897   0.953  11.307  0.0156 -0.4108  0.6017
  790MOL0     C 4184   5.852   0.845  11.389  0.0662  0.2305 -0.2704
  790MOL0     C 4185   5.737   0.777  11.313  0.8575  0.0195 -0.2064
  790MOL0     C 4186   5.627   0.889  11.284 -0.5079 -0.3527  0.3890
  790MOL0     C 4187   5.529   0.828  11.191  0.2842 -0.3318  0.7378
  790MOL0     C 4188   5.409   0.920  11.163 -0.2381 -0.2129 -0.2446
  790MOL0     C 4189   5.313   0.846  11.072  0.0681  0.2916  0.0685
  790MOL0     C 4190   5.188   0.919  11.055 -0.1697  0.0044  0.0304
  790MOL0     C 4191   5.073   0.828  11.003 -0.5875 -0.2505  0.2288
  790MOL0    Cl 4192   4.923   0.923  10.984 -0.0120  0.2295  0.6193
  790MOL0     C 4193   6.113   0.949  11.433 -0.0365 -0.7728  0.4676
  790MOL0     C 4194   6.249   0.990  11.451  0.5992 -0.7974 -0.3834
  790MOL0     O 4195   6.544   0.913  11.354  0.0836  0.5572  0.1774
  790MOL0     C 4196   6.787   1.030  11.346 -0.2546  0.3527 -0.2348
  790MOL0     C 4197   6.911   1.088  11.357 -0.2079  0.6073  0.5160
  790MOL0     N 4198   7.481   1.568  11.652 -0.0236  0.2811  0.4198
  790MOL0     N 4199   7.605   1.593  11.610  0.1973  0.4439 -0.6398
  790MOL0     C 4200   8.409   0.843  10.821  0.1343 -0.6475  0.0197
  790MOL0     C 4201   8.516   0.750  10.805  0.9733 -0.1619  0.1018
  790MOL0     C 4202   8.881   0.560  10.719 -0.5412 -0.1270 -0.3248
  790MOL0     C 4203   8.943   0.535  10.600  0.2166  0.5855 -0.4200
  790MOL0     C 4204   9.023   0.422  10.583 -0.3575  0.1009 -0.5130
  790MOL0     C 4205   9.042   0.323  10.686  1.0241 -0.3456  0.0567
  790MOL0     O 4206   9.123   0.218  10.661 -0.2722 -0.3352 -0.0775
  790MOL0     C 4207   9.105   0.098  10.744 -0.6976  0.6027  0.3584
  790MOL0     C 4208   8.965   0.026  10.736  0.5190 -0.5559 -0.4765
  790MOL0     C 4209   8.900   0.004  10.878  0.3275  0.6115  0.5799
  790MOL0     C 4210   8.822  -0.128  10.906  0.0808 -1.3830  0.2863
  790MOL0     C 4211   8.900  -0.252  10.918 -0.3115 -0.0854  0.7157
  790MOL0     C 4212   8.970  -0.357  10.924  0.2501  0.3673 -0.9413
  790MOL0     C 4213   8.974   0.353  10.809  0.2869 -0.3357  0.8136
  790MOL0     C 4214   8.905   0.477  10.825  0.2604  0.2169  0.6523
  790MOL0     H 4215   8.721   0.905  11.019  1.6060 -3.4219 -1.0726
  790MOL0     H 4216   8.539   1.064  11.039  0.1583  0.6770 -1.0749
  790MOL0     H 4217   8.405   1.229  10.918 -0.3937 -0.4229 -3.7437
  790MOL0     H 4218   8.306   1.179  11.048  2.8763  4.4025  0.6348
  790MOL0     H 4219   8.191   1.252  10.778 -2.6573  0.6993 -0.7148
  790MOL0     H 4220   8.234   1.380  10.878  2.3446 -0.9315 -1.1101
  790MOL0     H 4221   8.029   1.171  10.954  1.4515 -0.9480 -2.4936
  790MOL0     H 4222   7.999   1.332  10.877  0.8828  0.1969 -0.6808
  790MOL0     H 4223   8.110   1.287  11.161 -1.9403 -1.2692  1.3787
  790MOL0     H 4224   8.079   1.455  11.097 -0.1722  0.5848 -2.7537
  790MOL0     H 4225   7.877   1.246  11.154 -2.3027  0.2753  1.4039
  790MOL0     H 4226   7.846   1.414  11.093 -1.2988  1.4051  2.5057
  790MOL0     H 4227   7.987   1.468  11.310 -1.8871  0.8827  2.1572
  790MOL0     H 4228   7.962   1.304  11.368  3.4130 -0.7778 -1.9143
  790MOL0     H 4229   7.740   1.507  11.300 -2.3297 -2.5504 -2.2782
  790MOL0     H 4230   7.703   1.349  11.346  1.6344 -0.2312 -0.7693
  790MOL0     H 4231   7.855   1.541  11.528  1.2193 -2.3426  1.2456
  790MOL0     H 4232   7.823   1.372  11.566  3.7567  1.6607  0.2939
  790MOL0     H 4233   7.568   1.275  11.526 -0.5110  0.8197 -2.4904
  790MOL0     H 4234   7.350   1.348  11.794  0.6349 -0.1523 -0.7135
  790MOL0     H 4235   7.320   1.264  11.643 -0.8376 -0.1614 -0.6004
  790MOL0     H 4236   7.216   1.562  11.670 -3.9321  0.6372 -3.5193
  790MOL0     H 4237   7.126   1.409  11.708  0.8094 -1.4367 -1.2929
  790MOL0     H 4238   7.090   1.508  11.486 -1.9354 -1.0666  2.0763
  790MOL0     H 4239   7.265   1.456  11.448  0.8960 -3.5831  0.4489
  790MOL0     H 4240   7.052   1.265  11.563  0.5447 -0.8423 -0.4174
  790MOL0     H 4241   7.198   1.220  11.472 -0.8661 -0.7862  1.7744
  790MOL0     H 4242   6.822   1.411  11.371 -3.5597  0.4496 -1.7319
  790MOL0     H 4243   6.611   1.315  11.394  1.2397  0.5923  2.0236
  790MOL0     H 4244   6.282   1.131  11.145 -0.1205  3.2641  1.1705
  790MOL0     H 4245   6.055   1.049  11.113 -1.0933  4.2653  1.7082
  790MOL0     H 4246   5.812   0.869  11.488 -0.3579 -3.0919  0.4861
  790MOL0     H 4247   5.935   0.777  11.410  1.6680  2.2584  0.2710
  790MOL0     H 4248   5.703   0.708  11.390  4.2730  0.3760  1.8595
  790MOL0     H 4249   5.763   0.723  11.222 -2.2239 -3.1039  0.5677
  790MOL0     H 4250   5.664   0.974  11.225 -3.6930 -0.2202 -1.6815
  790MOL0     H 4251   5.589   0.922  11.381 -1.4999 -0.9356  0.2105
  790MOL0     H 4252   5.567   0.800  11.092 -1.6678  0.8787 -0.4128
  790MOL0     H 4253   5.496   0.730  11.228 -1.2853 -0.9791 -2.0720
  790MOL0     H 4254   5.439   1.011  11.109 -0.2166  0.2160  0.4724
  790MOL0     H 4255   5.346   0.959  11.243  0.0767  0.1268 -0.1615
  790MOL0     H 4256   5.280   0.750  11.114  0.0615  0.5466  0.6600
  790MOL0     H 4257   5.359   0.831  10.974 -0.7489  1.1067 -0.4605
  790MOL0     H 4258   5.160   0.967  11.149 -0.6653 -2.0067  0.9775
  790MOL0     H 4259   5.207   0.996  10.980  0.4174 -1.4139 -1.3411
  790MOL0     H 4260   5.056   0.753  11.081  3.6475  1.6705  3.3954
  790MOL0     H 4261   5.104   0.773  10.913 -3.0798  2.4527 -2.5398
  790MOL0     H 4262   6.078   0.902  11.524 -0.1736 -4.4657 -1.2728
  790MOL0     H 4263   6.288   0.990  11.552  3.0733 -2.5332 -1.2059
  790MOL0     H 4264   6.788   0.921  11.349 -2.7174  0.2786  0.7553
  790MOL0     H 4265   6.996   1.020  11.349 -1.6507 -1.1770 -0.6527
  790MOL0     H 4266   8.312   0.815  10.782 -2.0268  0.3407  4.0941
  790MOL0     H 4267   8.496   0.660  10.748  2.1818 -0.6235  0.3728
  790MOL0     H 4268   8.929   0.600  10.515 -2.6314  0.2677 -0.3180
  790MOL0     H 4269   9.060   0.411  10.481 -2.6684 -1.8786 -1.2233
  790MOL0     H 4270   9.117   0.133  10.848 -1.3382  0.5380  0.4541
  790MOL0     H 4271   9.184   0.026  10.719 -0.7701  0.4241  0.6384
  790MOL0     H 4272   8.902   0.084  10.667  0.7183 -0.8057 -0.8733
  790MOL0     H 4273   8.993  -0.069  10.690  0.7557  0.1122 -1.7731
  790MOL0     H 4274   8.837   0.092  10.898 -0.8748 -0.6424  2.6945
  790MOL0     H 4275   8.975   0.005  10.958 -1.4868  0.8361  2.3738
  790MOL0     H 4276   8.783  -0.111  11.007  0.2113 -0.7767  0.2345
  790MOL0     H 4277   8.752  -0.139  10.823  1.9863 -1.6359 -1.3423
  790MOL0     H 4278   9.011  -0.454  10.939  0.3350  0.3324 -1.3894
  790MOL0     H 4279   8.975   0.286  10.894  1.2127 -0.3963  0.7671
  790MOL0     H 4280   8.868   0.500  10.925 -0.7055  1.4693  0.0310
  791MOL0     O 4281   8.854   9.715   5.592  0.7940  0.0659  0.5484
  791MOL0     C 4282   8.766   9.678   5.511 -0.9900 -0.5358  0.0598
  791MOL0     O 4283   8.771   9.561   5.437 -0.3862  0.3389 -0.0177
  791MOL0     C 4284   8.854   9.455   5.472 -1.1157  0.4293  0.2087
  791MOL0     C 4285   8.893   9.421   5.604 -0.6875 -0.1430 -0.6560
  791MOL0     C 4286   8.982   9.316   5.635  0.3666  0.9628 -0.2815
  791MOL0     C 4287   9.046   9.241   5.530 -0.8416 -0.1701 -0.1963
  791MOL0     O 4288   9.134   9.142   5.549 -0.2250 -0.4987 -0.5342
  791MOL0     C 4289   9.265   9.189   5.608 -0.9824 -0.1863 -0.1987
  791MOL0     C 4290   9.367   9.207   5.505  1.0181 -0.3408  0.2222
  791MOL0     C 4291   9.490   9.293   5.560  0.2430  0.2667  0.0764
  791MOL0     C 4292   9.599   9.308   5.456  0.7399  0.2845 -0.0188
  791MOL0     C 4293   9.723   9.370   5.527 -1.2734 -0.3040  0.1395
  791MOL0     C 4294   9.804   9.267   5.598  0.5656  0.4456  0.4031
  791MOL0     C 4295   9.924   9.341   5.662  0.2396 -0.3588 -0.2212
  791MOL0     C 4296  10.017   9.228   5.728  0.3385 -0.0184 -0.2930
  791MOL0     N 4297  10.127   9.295   5.794 -0.2679  0.3889  0.6406
  791MOL0     C 4298  10.120   9.386   5.893  0.0741  0.1552 -0.4467
  791MOL0     C 4299  10.244   9.408   5.940 -0.4198 -0.3896 -0.4032
  791MOL0     C 4300  10.279   9.531   6.016  0.1015  0.4111 -1.2501
  791MOL0     C 4301  10.365   9.631   5.939  0.5927 -0.5367  0.8614
  791MOL0     C 4302  10.404   9.759   6.018 -0.5591 -0.9404 -0.7914
  791MOL0     C 4303  10.457   9.874   5.929  0.1835 -0.4577  0.2938
  791MOL0     O 4304  10.482  10.002   5.990  0.0385 -0.4313 -0.1057
  791MOL0     C 4305  10.379  10.079   6.029  0.0852 -0.7308  0.1263
  791MOL0     C 4306  10.400  10.179   6.122 -0.9681  0.4122 -0.7934
  791MOL0     C 4307  10.301  10.258   6.161  0.0076 -0.7139  0.3711
  791MOL0     C 4308  10.167  10.244   6.116  0.4900 -0.1871  0.0121
  791MOL0     C 4309  10.058  10.299   6.192  0.4462 -0.6566 -0.9286
  791MOL0     O 4310   9.936  10.255   6.180  0.1055  0.5404 -0.0071
  791MOL0     C 4311   9.837  10.308   6.257 -0.5761 -0.0567  1.3649
  791MOL0     C 4312   9.748  10.392   6.197  0.2352 -0.4760 -1.0403
  791MOL0     C 4313   9.640  10.448   6.271 -0.0716  1.3334  0.0242
  791MOL0     C 4314   9.613  10.419   6.408  0.0207  0.3509  0.2373
  791MOL0     O 4315   9.497  10.457   6.468 -0.7196  0.8124 -0.0773
  791MOL0     C 4316   9.480  10.436   6.611 -0.0613 -0.1140  0.4884
  791MOL0     C 4317   9.338  10.470   6.651  0.3101  0.4961  0.3114
  791MOL0     C 4318   9.325  10.624   6.640  1.3100 -0.6500 -0.0793
  791MOL0     C 4319   9.173  10.675   6.663 -0.4182  0.2646  0.8322
  791MOL0     C 4320   9.153  10.830   6.666  0.0024  0.3067  0.1602
  791MOL0     C 4321   9.003  10.870   6.668  0.5730  0.3766 -0.3791
  791MOL0     C 4322   8.927  10.843   6.539 -0.0098 -0.4567  0.7878
  791MOL0     C 4323   8.789  10.867   6.546  0.1506 -0.5740  0.7357
  791MOL0    Cl 4324   8.728  10.812   6.380  0.0439 -0.1483 -0.0009
  791MOL0     C 4325   9.723  10.351   6.467 -0.4821  0.1231 -0.4568
  791MOL0     C 4326   9.833  10.309   6.393 -1.2130  0.9395  0.2509
  791MOL0     O 4327  10.088  10.396   6.265  0.2345  0.6388 -0.2407
  791MOL0     C 4328  10.143  10.142   6.027 -1.1318 -0.5171 -0.8605
  791MOL0     C 4329  10.247  10.069   5.977 -0.2610  0.6044 -1.3148
  791MOL0     N 4330  10.337   9.320   5.878 -0.1802 -0.9819  0.3061
  791MOL0     N 4331  10.265   9.253   5.794  0.2237  0.1120  0.0817
  791MOL0     C 4332   9.002   9.264   5.401  0.0284 -0.0194 -0.1033
  791MOL0     C 4333   8.912   9.367   5.372  1.2529 -0.7589 -0.3875
  791MOL0     C 4334   8.654   9.773   5.494 -0.8938 -0.8605 -0.1413
  791MOL0     C 4335   8.633   9.878   5.586 -0.7829 -0.3177 -0.5525
  791MOL0     C 4336   8.545   9.980   5.547 -0.7014 -0.9327 -0.3509
  791MOL0     C 4337   8.459   9.979   5.438 -0.1411  0.0394 -0.3007
  791MOL0     O 4338   8.372  10.085   5.420  0.5127  0.3527 -0.5889
  791MOL0     C 4339   8.270  10.063   5.316 -0.0909 -0.6685 -0.3245
  791MOL0     C 4340   8.310  10.106   5.177  0.8936 -0.1437  0.5525
  791MOL0     C 4341   8.329  10.257   5.167  0.2461 -0.1249 -0.3573
  791MOL0     C 4342   8.352  10.315   5.022  0.0110 -0.8873  0.3736
  791MOL0     C 4343   8.253  10.285   4.925 -0.1777  0.0587  0.4615
  791MOL0     C 4344   8.183  10.233   4.845  0.4243 -0.1889  0.8668
  791MOL0     C 4345   8.483   9.874   5.344 -0.4724  0.4211 -0.0486
  791MOL0     C 4346   8.567   9.767   5.383 -0.0871 -0.7124  1.4972
  791MOL0     H 4347   8.857   9.491   5.679  1.6299 -0.2376  0.6136
  791MOL0     H 4348   9.008   9.289   5.737  0.0440 -0.1589 -0.4938
  791MOL0     H 4349   9.304   9.114   5.678  1.5997  0.3737 -0.9163
  791MOL0     H 4350   9.253   9.274   5.676 -0.0874 -0.9251  0.9186
  791MOL0     H 4351   9.323   9.269   5.427 -0.4685 -0.9880  0.5128
  791MOL0     H 4352   9.391   9.108   5.465 -1.6358 -1.2207  0.6013
  791MOL0     H 4353   9.528   9.251   5.653  1.9119 -2.3621 -1.6567
  791MOL0     H 4354   9.448   9.394   5.568  0.7293  0.8928 -3.3871
  791MOL0     H 4355   9.619   9.211   5.410  1.1089  0.7828 -0.9383
  791MOL0     H 4356   9.571   9.388   5.387 -1.7030  0.1987  0.7661
  791MOL0     H 4357   9.679   9.452   5.585 -2.6057 -0.6376 -0.3831
  791MOL0     H 4358   9.784   9.409   5.445 -1.8740  1.5271  0.5098
  791MOL0     H 4359   9.843   9.194   5.527  4.3901  1.5972  1.1034
  791MOL0     H 4360   9.745   9.221   5.678  0.8192 -1.0173 -0.2324
  791MOL0     H 4361   9.973   9.386   5.575 -0.6919  0.3680 -0.3838
  791MOL0     H 4362   9.907   9.425   5.730  3.6694  0.1082  0.2090
  791MOL0     H 4363  10.051   9.148   5.661 -1.0039 -1.2330  0.4008
  791MOL0     H 4364   9.948   9.191   5.805  0.8364  0.2634  0.2967
  791MOL0     H 4365  10.029   9.436   5.925  1.8034  1.2022  3.3479
  791MOL0     H 4366  10.333   9.482   6.097  0.4513  1.8966 -0.5398
  791MOL0     H 4367  10.191   9.579   6.061 -0.1344 -0.5670 -0.6568
  791MOL0     H 4368  10.331   9.661   5.840  4.0468  2.0988  0.2610
  791MOL0     H 4369  10.451   9.572   5.904 -0.7634 -1.3074 -1.3408
  791MOL0     H 4370  10.310   9.789   6.065 -0.6871 -0.7760 -1.1440
  791MOL0     H 4371  10.473   9.743   6.101 -1.3872  0.9893  0.3339
  791MOL0     H 4372  10.376   9.872   5.856 -1.5929 -0.2026  2.1631
  791MOL0     H 4373  10.543   9.833   5.874  0.8352  2.1663 -0.8000
  791MOL0     H 4374  10.500  10.209   6.154 -0.9116 -1.5465  1.0353
  791MOL0     H 4375  10.329  10.340   6.227  0.4352 -0.8423  0.3534
  791MOL0     H 4376   9.747  10.403   6.089 -2.5302  1.4804 -0.9047
  791MOL0     H 4377   9.569  10.498   6.205 -0.7799 -0.5747 -0.7362
  791MOL0     H 4378   9.545  10.510   6.657 -1.6294  3.1015 -2.0505
  791MOL0     H 4379   9.505  10.335   6.646 -1.1447 -0.2249  0.9822
  791MOL0     H 4380   9.320  10.435   6.753  2.7729  1.8365  1.2856
  791MOL0     H 4381   9.274  10.411   6.585  0.1029  1.4541 -0.3587
  791MOL0     H 4382   9.361  10.653   6.541  0.8959 -2.9056 -0.9482
  791MOL0     H 4383   9.387  10.680   6.711  0.2596 -0.5603  0.7889
  791MOL0     H 4384   9.103  10.653   6.582  2.4738  2.3374 -2.5569
  791MOL0     H 4385   9.139  10.624   6.753  0.5645  0.4326  1.3187
  791MOL0     H 4386   9.197  10.874   6.576  2.4003 -2.6342 -0.2680
  791MOL0     H 4387   9.193  10.882   6.753 -0.6634  1.0058  0.0614
  791MOL0     H 4388   8.990  10.975   6.696 -0.9325  0.7053 -2.1797
  791MOL0     H 4389   8.954  10.812   6.747 -0.7269 -1.8343 -2.6831
  791MOL0     H 4390   8.970  10.906   6.461  1.3124 -3.4799 -1.1120
  791MOL0     H 4391   8.943  10.742   6.500 -0.1174 -0.0579 -0.3318
  791MOL0     H 4392   8.766  10.973   6.561  1.6524  0.4207 -2.8146
  791MOL0     H 4393   8.732  10.805   6.615 -2.1069  0.5495 -0.0162
  791MOL0     H 4394   9.718  10.339   6.575 -1.8224 -0.5166 -0.5751
  791MOL0     H 4395   9.899  10.248   6.454 -3.5188  2.0095  4.2392
  791MOL0     H 4396  10.040  10.118   6.004 -1.9641  1.1707  0.8872
  791MOL0     H 4397  10.229   9.986   5.910  4.9992 -0.4451 -1.8874
  791MOL0     H 4398   9.038   9.200   5.321  2.0626  1.2549 -0.2738
  791MOL0     H 4399   8.885   9.362   5.267  1.7977  2.4981 -0.8109
  791MOL0     H 4400   8.690   9.886   5.678 -1.7585 -2.6230  0.3394
  791MOL0     H 4401   8.520  10.059   5.617  1.8707  0.2638 -0.7056
  791MOL0     H 4402   8.187  10.131   5.337 -0.3091 -0.8193 -0.6937
  791MOL0     H 4403   8.232   9.961   5.320  3.7941 -2.3333 -0.9131
  791MOL0     H 4404   8.402  10.059   5.142  1.2262  0.3533  0.7483
  791MOL0     H 4405   8.225  10.076   5.115  0.0730  0.1605  1.4932
  791MOL0     H 4406   8.404  10.281   5.243  0.5236 -0.7799 -0.4193
  791MOL0     H 4407   8.244  10.315   5.204  1.8441  2.4719 -0.4742
  791MOL0     H 4408   8.356  10.424   5.025  0.7685 -0.8729 -0.6355
  791MOL0     H 4409   8.454  10.285   4.993 -0.2751 -1.2167 -0.3253
  791MOL0     H 4410   8.111  10.189   4.779 -1.4849  0.3087  2.5106
  791MOL0     H 4411   8.435   9.871   5.247 -0.6449  0.0249  0.0467
  791MOL0     H 4412   8.577   9.682   5.315 -1.9213 -1.0226  1.5753
  792MOL0     O 4413  10.183   1.414   3.842  0.1366 -0.3004  0.3374
  792MOL0     C 4414  10.239   1.380   3.948  0.4756  0.1178 -0.1339
  792MOL0     O 4415  10.177   1.344   4.065  0.3768  0.0012 -0.6623
  792MOL0     C 4416  10.034   1.321   4.073  0.2154 -1.0819 -0.9984
  792MOL0     C 4417   9.988   1.332   4.203 -0.3242 -0.4678 -0.5690
  792MOL0     C 4418   9.853   1.303   4.231  0.1283  0.3484 -0.3824
  792MOL0     C 4419   9.760   1.281   4.126  0.8207 -0.5630  0.3701
  792MOL0     O 4420   9.622   1.260   4.146 -0.6837 -0.7020 -0.6436
  792MOL0     C 4421   9.580   1.281   4.275 -0.5789  0.4529  0.4601
  792MOL0     C 4422   9.430   1.302   4.279  0.0104  1.1368  0.7672
  792MOL0     C 4423   9.355   1.182   4.227  1.4657  0.5259  0.3363
  792MOL0     C 4424   9.207   1.222   4.215 -0.1587 -0.4568 -0.6544
  792MOL0     C 4425   9.117   1.103   4.182 -0.5077  0.0173 -0.0219
  792MOL0     C 4426   8.972   1.148   4.154  0.2274 -0.6017 -0.3597
  792MOL0     C 4427   8.883   1.039   4.107  0.2830 -1.6703  0.0461
  792MOL0     C 4428   8.738   1.081   4.092 -0.2685 -0.4277  0.0426
  792MOL0     N 4429   8.659   0.971   4.029 -0.0819 -0.5580  0.6327
  792MOL0     C 4430   8.602   0.869   4.081 -0.0298  0.8506 -0.3639
  792MOL0     C 4431   8.518   0.812   3.994 -0.0596 -0.7102  0.4302
  792MOL0     C 4432   8.419   0.694   3.999  0.6350 -0.3363 -1.0379
  792MOL0     C 4433   8.501   0.570   4.027  1.1387  0.3897  0.0084
  792MOL0     C 4434   8.412   0.452   4.085  0.2866 -0.1772 -0.1889
  792MOL0     C 4435   8.335   0.371   3.973 -0.1441  0.3205  0.0099
  792MOL0     O 4436   8.241   0.457   3.914 -0.3473  0.2931 -0.3408
  792MOL0     C 4437   8.133   0.378   3.874 -0.0079 -0.6722 -0.2926
  792MOL0     C 4438   8.141   0.285   3.765  0.5715 -0.6375 -0.7449
  792MOL0     C 4439   8.023   0.224   3.719 -0.7149 -0.3717  0.3786
  792MOL0     C 4440   7.908   0.234   3.785  0.9761 -1.1119  0.3306
  792MOL0     C 4441   7.794   0.158   3.738  0.1984 -0.1499  0.4319
  792MOL0     O 4442   7.678   0.163   3.816 -0.2501  0.0302 -0.1755
  792MOL0     C 4443   7.558   0.129   3.754 -0.4495 -0.8886 -0.4359
  792MOL0     C 4444   7.506   0.007   3.773 -0.2963 -0.0791 -0.9159
  792MOL0     C 4445   7.389  -0.039   3.711 -0.2598  1.1498 -0.5676
  792MOL0     C 4446   7.314   0.043   3.625 -1.1487 -0.4272  0.0159
  792MOL0     O 4447   7.206   0.011   3.555  0.1560 -0.1777  0.5128
  792MOL0     C 4448   7.148  -0.118   3.569  0.5402  0.0453  0.0499
  792MOL0     C 4449   7.218  -0.234   3.481  0.1936  0.0777 -0.4242
  792MOL0     C 4450   7.214  -0.207   3.336  0.2868  0.3281 -0.6781
  792MOL0     C 4451   7.072  -0.239   3.293 -0.1767  0.6354  0.3972
  792MOL0     C 4452   7.066  -0.240   3.134 -0.0037  0.0450  0.0497
  792MOL0     C 4453   6.925  -0.275   3.093  0.6874 -0.2560  0.1741
  792MOL0     C 4454   6.897  -0.302   2.944 -0.4955 -0.6968 -0.0667
  792MOL0     C 4455   6.786  -0.207   2.901  0.0127 -1.0295 -0.1738
  792MOL0    Cl 4456   6.763  -0.196   2.723 -0.2671  0.1587  0.2474
  792MOL0     C 4457   7.364   0.176   3.610 -1.2904 -0.3967  0.0002
  792MOL0     C 4458   7.488   0.218   3.667  0.2052  0.3280  0.0478
  792MOL0     O 4459   7.801   0.097   3.630 -0.5391 -0.3611 -0.0108
  792MOL0     C 4460   7.890   0.314   3.901  0.4698 -0.2977  0.1054
  792MOL0     C 4461   8.011   0.392   3.940 -0.6521  0.4656  0.2261
  792MOL0     N 4462   8.532   0.888   3.880 -0.4398  0.2426  0.3356
  792MOL0     N 4463   8.615   0.979   3.905  0.4569  1.1561 -0.3415
  792MOL0     C 4464   9.808   1.272   3.991  1.4923 -0.1585  0.3256
  792MOL0     C 4465   9.943   1.302   3.976  0.9479  0.9255 -1.3803
  792MOL0     C 4466  10.380   1.388   3.956 -0.8273  0.2633 -1.2226
  792MOL0     C 4467  10.451   1.371   4.085 -0.6550  0.4959 -0.0382
  792MOL0     C 4468  10.591   1.382   4.089 -0.4342  0.1810  0.2719
  792MOL0     C 4469  10.667   1.412   3.975 -0.2302 -0.3883  0.1693
  792MOL0     O 4470  10.804   1.436   3.989  0.3345 -0.2588  0.1846
  792MOL0     C 4471  10.887   1.460   3.870  0.2400  0.7110 -0.3645
  792MOL0     C 4472  11.027   1.519   3.910  0.2187  0.1899  0.4266
  792MOL0     C 4473  11.135   1.517   3.794 -0.5002  0.3228 -0.1284
  792MOL0     C 4474  11.271   1.542   3.856 -1.6042  0.4710 -0.1823
  792MOL0     C 4475  11.378   1.566   3.748  0.3294 -0.5980  0.0961
  792MOL0     C 4476  11.467   1.577   3.669  0.3964 -0.5077  1.2905
  792MOL0     C 4477  10.596   1.440   3.853  0.5174  0.0697 -0.6926
  792MOL0     C 4478  10.455   1.429   3.845 -0.6423  0.0430  0.0310
  792MOL0     H 4479  10.056   1.336   4.288 -1.1895 -0.9430  0.1619
  792MOL0     H 4480   9.832   1.309   4.337 -3.0402 -1.3493 -0.7703
  792MOL0     H 4481   9.623   1.370   4.322  0.0761  0.3306  0.0961
  792MOL0     H 4482   9.600   1.195   4.340 -1.2570 -0.6293 -0.7273
  792MOL0     H 4483   9.407   1.386   4.213  0.9462  0.7854 -0.0355
  792MOL0     H 4484   9.406   1.320   4.384 -0.5068 -1.9882  1.2640
  792MOL0     H 4485   9.371   1.099   4.296  3.2240  1.1309  0.7401
  792MOL0     H 4486   9.380   1.161   4.123 -2.1334  3.1155 -1.2618
  792MOL0     H 4487   9.181   1.239   4.320  4.4064 -4.1470  1.4717
  792MOL0     H 4488   9.185   1.306   4.148  3.8024  1.1242 -0.2570
  792MOL0     H 4489   9.115   1.022   4.256 -0.5742  0.1245  0.0936
  792MOL0     H 4490   9.156   1.056   4.091 -0.0839 -1.0641  0.7036
  792MOL0     H 4491   8.964   1.219   4.071 -2.7367 -1.9884 -1.3634
  792MOL0     H 4492   8.922   1.174   4.248  2.9810 -0.7371  1.2671
  792MOL0     H 4493   8.921   1.004   4.011 -1.4225 -1.0235 -0.9210
  792MOL0     H 4494   8.883   0.956   4.178  0.4047 -0.0811  1.9852
  792MOL0     H 4495   8.725   1.177   4.041 -4.8750  0.0847  1.7289
  792MOL0     H 4496   8.690   1.083   4.190 -0.5456 -4.5221  0.1642
  792MOL0     H 4497   8.621   0.833   4.182 -0.6884  0.8653 -0.2325
  792MOL0     H 4498   8.362   0.689   3.906 -0.4811  3.5288 -0.7510
  792MOL0     H 4499   8.349   0.713   4.081  2.5349 -0.6401  0.7517
  792MOL0     H 4500   8.561   0.590   4.116 -0.9724 -2.0871  2.1642
  792MOL0     H 4501   8.560   0.545   3.939 -1.4809 -1.6040 -1.3214
  792MOL0     H 4502   8.472   0.372   4.130  0.9643  0.8502  0.7902
  792MOL0     H 4503   8.350   0.487   4.168 -1.3498 -1.2803 -0.8923
  792MOL0     H 4504   8.290   0.293   4.036 -2.4259  1.0101 -0.6508
  792MOL0     H 4505   8.402   0.323   3.901  0.8596  0.4083  0.8650
  792MOL0     H 4506   8.234   0.277   3.711  2.5711 -1.8450  2.5892
  792MOL0     H 4507   8.048   0.178   3.623  1.4714  1.5146 -0.0601
  792MOL0     H 4508   7.559  -0.061   3.840 -3.9979 -2.7870 -0.3942
  792MOL0     H 4509   7.351  -0.137   3.738  0.2340  1.4810  1.5328
  792MOL0     H 4510   7.042  -0.119   3.545  0.9909  1.7753 -2.2978
  792MOL0     H 4511   7.154  -0.151   3.673 -3.0076  0.5380  0.5380
  792MOL0     H 4512   7.164  -0.322   3.518  0.9053 -0.3850 -0.4563
  792MOL0     H 4513   7.323  -0.228   3.514  0.6353  4.4659 -2.0002
  792MOL0     H 4514   7.278  -0.284   3.291 -0.5117 -0.0897 -1.1227
  792MOL0     H 4515   7.239  -0.103   3.316 -2.0355  0.6516 -2.2815
  792MOL0     H 4516   7.029  -0.328   3.340 -0.5988  0.0383 -1.0678
  792MOL0     H 4517   7.015  -0.150   3.321 -1.5347 -0.6581  1.8955
  792MOL0     H 4518   7.133  -0.319   3.098 -0.5484  0.9041 -3.2328
  792MOL0     H 4519   7.104  -0.145   3.095 -0.1489  0.6692  1.3735
  792MOL0     H 4520   6.866  -0.201   3.147  1.0047 -0.5240  0.9067
  792MOL0     H 4521   6.889  -0.370   3.135  0.6100 -0.2293  0.1686
  792MOL0     H 4522   6.984  -0.276   2.883  0.4870 -1.8922  0.7813
  792MOL0     H 4523   6.872  -0.404   2.916 -0.5603 -0.1859 -2.0593
  792MOL0     H 4524   6.808  -0.106   2.937  0.0189 -0.3949 -1.8542
  792MOL0     H 4525   6.693  -0.252   2.938  1.0915 -4.9981 -1.7955
  792MOL0     H 4526   7.326   0.251   3.542  2.4060 -0.2063 -2.1074
  792MOL0     H 4527   7.521   0.322   3.665 -2.2430  1.1564 -1.4538
  792MOL0     H 4528   7.804   0.295   3.965  0.5111 -3.0038 -0.5380
  792MOL0     H 4529   8.016   0.456   4.028 -0.7946 -0.2011  0.7222
  792MOL0     H 4530   9.741   1.270   3.906 -2.4243  1.0641  3.1308
  792MOL0     H 4531   9.973   1.312   3.872  1.2880  2.0505 -1.1909
  792MOL0     H 4532  10.412   1.353   4.184 -1.9587  1.3194 -0.3795
  792MOL0     H 4533  10.644   1.360   4.181  1.9255  2.0054 -0.5348
  792MOL0     H 4534  10.853   1.537   3.799 -1.2864  0.0994 -0.3220
  792MOL0     H 4535  10.893   1.370   3.808 -0.0505  0.5821 -0.2073
  792MOL0     H 4536  11.010   1.621   3.946 -1.8059 -0.0369  0.2201
  792MOL0     H 4537  11.058   1.462   3.998  4.1347 -0.1349 -0.9530
  792MOL0     H 4538  11.115   1.599   3.723 -0.1870 -0.8074 -1.5772
  792MOL0     H 4539  11.135   1.419   3.745  4.7607 -1.0799  2.0831
  792MOL0     H 4540  11.259   1.629   3.920 -1.0458  0.5947 -0.2392
  792MOL0     H 4541  11.298   1.451   3.910 -3.7567 -0.8207 -1.1503
  792MOL0     H 4542  11.557   1.587   3.612 -0.4409  1.4729  0.2054
  792MOL0     H 4543  10.639   1.496   3.771  1.5388  0.2003 -0.0806
  792MOL0     H 4544  10.410   1.449   3.748  1.0211 -4.5440 -2.0031
  793MOL0     O 4545   1.863   1.468  10.420  0.3945 -0.4506  0.8281
  793MOL0     C 4546   1.798   1.485  10.314  0.1117 -0.4439  0.2086
  793MOL0     O 4547   1.848   1.472  10.191 -0.5017  0.2527 -0.3154
  793MOL0     C 4548   1.969   1.397  10.180  0.7422 -1.3227 -0.2152
  793MOL0     C 4549   2.094   1.465  10.130 -0.3233  0.1363 -0.7797
  793MOL0     C 4550   2.220   1.397  10.137 -0.8839  1.0090  0.2873
  793MOL0     C 4551   2.217   1.264  10.176 -0.1671 -0.8450  0.4595
  793MOL0     O 4552   2.334   1.184  10.198 -0.3586  0.8056  0.4679
  793MOL0     C 4553   2.443   1.258  10.256 -0.2104 -0.2300 -0.4878
  793MOL0     C 4554   2.543   1.165  10.321  0.7001 -0.9319 -0.8615
  793MOL0     C 4555   2.672   1.135  10.243 -0.0106  0.2549  0.5825
  793MOL0     C 4556   2.745   1.000  10.281 -0.3248  0.3141  0.6961
  793MOL0     C 4557   2.885   1.003  10.215  0.7566  0.7767 -0.0523
  793MOL0     C 4558   2.963   0.860  10.235  0.5498  0.0116 -0.1090
  793MOL0     C 4559   3.108   0.878  10.191  0.0827 -0.6029 -0.7570
  793MOL0     C 4560   3.184   0.752  10.224 -0.9756  0.0352  0.9025
  793MOL0     N 4561   3.328   0.759  10.199 -0.4455 -0.6536  0.1306
  793MOL0     C 4562   3.378   0.817  10.082  0.3647  1.0418  0.3465
  793MOL0     C 4563   3.512   0.817  10.093 -0.2008 -0.1941  1.0089
  793MOL0     C 4564   3.624   0.860   9.994  0.8713  0.0366  0.1234
  793MOL0     C 4565   3.729   0.754   9.999 -0.0840  0.7087  0.0394
  793MOL0     C 4566   3.848   0.796   9.914  0.3030 -0.4510  0.4180
  793MOL0     C 4567   3.965   0.708   9.929  0.2159 -0.7969  1.6238
  793MOL0     O 4568   4.013   0.717  10.058  0.6916  0.1329 -0.8460
  793MOL0     C 4569   4.150   0.704  10.082  0.1301  0.4300 -0.1887
  793MOL0     C 4570   4.253   0.654   9.998  0.4969  0.6204 -0.0093
  793MOL0     C 4571   4.384   0.660  10.033 -0.5740 -0.2944  0.5618
  793MOL0     C 4572   4.424   0.704  10.159 -0.0419 -0.0242 -0.3566
  793MOL0     C 4573   4.572   0.724  10.186  0.8638 -0.2323 -0.0236
  793MOL0     O 4574   4.596   0.823  10.284  0.1174  0.6493 -0.2045
  793MOL0     C 4575   4.719   0.868  10.328 -0.4036  0.5535  0.6038
  793MOL0     C 4576   4.725   0.927  10.452 -0.2441  0.0207 -0.3461
  793MOL0     C 4577   4.851   0.979  10.510 -0.7173 -0.8179 -0.1143
  793MOL0     C 4578   4.971   0.967  10.435  0.4376  0.7099 -0.1441
  793MOL0     O 4579   5.098   1.009  10.483  0.8804 -0.5463  0.5707
  793MOL0     C 4580   5.110   1.076  10.606  0.4122  0.6486  0.4742
  793MOL0     C 4581   5.242   1.155  10.619  1.7328  0.4101  0.3647
  793MOL0     C 4582   5.361   1.059  10.601 -0.5328 -0.4896  0.4497
  793MOL0     C 4583   5.495   1.138  10.599 -0.0862 -0.0608  0.1434
  793MOL0     C 4584   5.602   1.041  10.573 -1.0459 -0.1742 -0.2816
  793MOL0     C 4585   5.646   0.960  10.700 -0.2433 -0.3786  0.1826
  793MOL0     C 4586   5.796   0.903  10.682  0.8195  0.4948  0.5094
  793MOL0     C 4587   5.879   0.947  10.799 -0.4610 -0.2310 -0.0466
  793MOL0    Cl 4588   5.813   0.855  10.940  0.0612  0.3534  0.4030
  793MOL0     C 4589   4.970   0.891  10.314 -0.1405 -0.7308  0.3254
  793MOL0     C 4590   4.847   0.838  10.260  0.6538  0.3786  0.2479
  793MOL0     O 4591   4.647   0.673  10.106 -0.5291  0.5405 -0.1237
  793MOL0     C 4592   4.330   0.757  10.242  0.5434  0.4973  0.6441
  793MOL0     C 4593   4.195   0.764  10.195  0.2024  0.6032 -0.2351
  793MOL0     N 4594   3.537   0.771  10.219 -0.6223 -0.8282 -0.6481
  793MOL0     N 4595   3.435   0.734  10.279  0.3265  0.0637 -1.0818
  793MOL0     C 4596   2.102   1.204  10.217  0.5139  0.7654  0.1890
  793MOL0     C 4597   1.982   1.270  10.210  0.4602  1.1678 -0.8114
  793MOL0     C 4598   1.652   1.522  10.330  0.0470  0.4212 -0.3905
  793MOL0     C 4599   1.602   1.514  10.459  0.6398 -0.5009 -0.0360
  793MOL0     C 4600   1.471   1.553  10.470 -0.4771 -0.1221 -0.2823
  793MOL0     C 4601   1.396   1.607  10.362  0.9099 -0.0645 -0.3871
  793MOL0     O 4602   1.264   1.635  10.374 -0.0014 -0.0252 -0.8779
  793MOL0     C 4603   1.243   1.749  10.458  1.1066  0.0882  0.1135
  793MOL0     C 4604   1.134   1.833  10.388  0.9120 -0.3239  0.2643
  793MOL0     C 4605   1.093   1.946  10.476  0.0785 -0.0998  0.1264
  793MOL0     C 4606   0.984   2.040  10.426  0.7137 -0.0977  0.6813
  793MOL0     C 4607   1.030   2.091  10.299  0.2449 -0.2148 -0.7820
  793MOL0     C 4608   1.070   2.142  10.202 -0.1775 -1.1146 -0.6773
  793MOL0     C 4609   1.452   1.609  10.237  0.9340 -0.3225  0.2987
  793MOL0     C 4610   1.586   1.569  10.221 -0.4924  0.5946 -0.5409
  793MOL0     H 4611   2.082   1.570  10.103  0.2651  0.5888  0.6518
  793MOL0     H 4612   2.315   1.445  10.117 -0.9869  1.0951  0.0036
  793MOL0     H 4613   2.411   1.327  10.334  0.5928  1.5237 -1.6374
  793MOL0     H 4614   2.483   1.307  10.167 -1.6199 -2.3325 -2.4147
  793MOL0     H 4615   2.491   1.069  10.317 -1.0786 -0.1634  1.7817
  793MOL0     H 4616   2.556   1.194  10.425 -2.9961 -1.2873 -0.1852
  793MOL0     H 4617   2.746   1.216  10.249  2.7083 -2.0724  0.5410
  793MOL0     H 4618   2.634   1.114  10.143  0.1513 -2.4705  1.0323
  793MOL0     H 4619   2.769   0.988  10.387  2.5530 -3.2252 -0.1449
  793MOL0     H 4620   2.680   0.915  10.255  1.0443  0.1582 -2.7831
  793MOL0     H 4621   2.957   1.073  10.257  0.7726  2.1990 -2.3185
  793MOL0     H 4622   2.859   1.025  10.111 -1.7541  1.6187  0.6775
  793MOL0     H 4623   2.908   0.797  10.164 -1.3262 -0.7555  1.9368
  793MOL0     H 4624   2.956   0.819  10.336 -1.1761  0.9725  0.1909
  793MOL0     H 4625   3.114   0.892  10.082 -0.6289  0.1422 -0.7160
  793MOL0     H 4626   3.133   0.968  10.247 -0.9961 -0.6756 -0.1286
  793MOL0     H 4627   3.137   0.674  10.163 -0.7223 -0.8164  1.7762
  793MOL0     H 4628   3.183   0.717  10.327  2.4324 -2.3101  0.3200
  793MOL0     H 4629   3.323   0.855   9.997 -0.1284  1.5004  0.8576
  793MOL0     H 4630   3.659   0.962  10.014 -0.7664  1.0971 -1.9911
  793MOL0     H 4631   3.576   0.851   9.896  0.8927  0.8276  0.0330
  793MOL0     H 4632   3.689   0.656   9.972  1.7081 -0.7003  2.1094
  793MOL0     H 4633   3.761   0.743  10.103 -0.9697 -1.3861  0.1307
  793MOL0     H 4634   3.813   0.805   9.810 -1.5754  1.9299  1.1527
  793MOL0     H 4635   3.873   0.897   9.948  1.9571 -0.9087  0.6270
  793MOL0     H 4636   4.040   0.741   9.856 -0.1488 -4.6190 -0.7881
  793MOL0     H 4637   3.939   0.609   9.891  0.6701 -0.3560  0.0616
  793MOL0     H 4638   4.231   0.623   9.896  0.3588  1.6287 -0.3012
  793MOL0     H 4639   4.450   0.632   9.952  0.7451 -0.2655  1.5872
  793MOL0     H 4640   4.628   0.939  10.498 -1.8020 -0.2985 -3.3121
  793MOL0     H 4641   4.849   1.022  10.609 -2.1858  0.2640 -0.5791
  793MOL0     H 4642   5.103   0.995  10.680 -1.9385 -1.9883 -2.3256
  793MOL0     H 4643   5.033   1.151  10.627 -0.4208  0.9398 -2.9606
  793MOL0     H 4644   5.246   1.206  10.716  2.0599  3.2879 -1.0732
  793MOL0     H 4645   5.246   1.237  10.548 -2.4252  0.9547  0.4979
  793MOL0     H 4646   5.337   0.996  10.515  2.4204 -2.9249  1.1951
  793MOL0     H 4647   5.362   0.991  10.687 -0.0639  0.6160  1.3462
  793MOL0     H 4648   5.489   1.209  10.516 -1.0998  0.9663  1.0448
  793MOL0     H 4649   5.512   1.209  10.680 -0.9931 -0.6984  0.9162
  793MOL0     H 4650   5.682   1.106  10.536 -1.6546  1.7158  1.4760
  793MOL0     H 4651   5.572   0.969  10.497  2.4577  1.3116 -3.3528
  793MOL0     H 4652   5.588   0.870  10.722 -0.5471  0.0609  1.2553
  793MOL0     H 4653   5.633   1.029  10.784 -3.1634  0.4062 -0.7962
  793MOL0     H 4654   5.799   0.794  10.671 -2.1597  0.2448  1.2190
  793MOL0     H 4655   5.835   0.946  10.590  0.9707  3.7519  1.9616
  793MOL0     H 4656   5.858   1.055  10.803  1.3214  0.1409  0.0551
  793MOL0     H 4657   5.986   0.929  10.785 -0.2010  2.2710 -1.9714
  793MOL0     H 4658   5.067   0.891  10.265 -1.0317  0.8900 -1.6094
  793MOL0     H 4659   4.847   0.766  10.179 -1.6000 -2.1574  2.3434
  793MOL0     H 4660   4.363   0.800  10.336  2.9171 -0.8563  0.5030
  793MOL0     H 4661   4.133   0.816  10.266  0.1331  1.5513 -0.9645
  793MOL0     H 4662   2.104   1.100  10.244 -4.5477 -1.0448 -4.5171
  793MOL0     H 4663   1.893   1.211  10.229  0.8227 -0.6466 -3.9818
  793MOL0     H 4664   1.661   1.474  10.540  0.3191 -2.7122 -0.8272
  793MOL0     H 4665   1.431   1.547  10.570  0.7558  0.4452  0.2624
  793MOL0     H 4666   1.332   1.810  10.481  0.6626  0.2461  1.5190
  793MOL0     H 4667   1.189   1.717  10.547 -2.2060  3.4941 -0.4189
  793MOL0     H 4668   1.173   1.879  10.296 -2.1466  0.7974 -0.5783
  793MOL0     H 4669   1.047   1.775  10.358 -1.1034  4.1621 -3.8938
  793MOL0     H 4670   1.182   2.008  10.493 -2.8748  3.9833  2.4674
  793MOL0     H 4671   1.055   1.905  10.570 -2.2124 -1.2807 -1.2218
  793MOL0     H 4672   0.884   1.996  10.415 -1.6428  3.3967  4.7637
  793MOL0     H 4673   0.981   2.129  10.489 -0.4193  1.0516 -0.9109
  793MOL0     H 4674   1.101   2.205  10.121 -1.6852  1.6645  0.7414
  793MOL0     H 4675   1.398   1.655  10.154 -0.1096  1.0173  1.6687
  793MOL0     H 4676   1.620   1.587  10.119  0.4962  0.2736 -0.2715
  794MOL0     O 4677   0.850   6.241   6.651  0.2872 -0.4208 -0.0752
  794MOL0     C 4678   0.866   6.355   6.689 -0.5941 -0.1505  0.7374
  794MOL0     O 4679   0.766   6.439   6.735 -0.2962  0.7419  0.3141
  794MOL0     C 4680   0.646   6.368   6.744  0.5042 -1.2111 -0.1140
  794MOL0     C 4681   0.587   6.326   6.867  0.3142  1.2134  0.4644
  794MOL0     C 4682   0.453   6.273   6.873  0.6949 -0.3126  0.7427
  794MOL0     C 4683   0.371   6.280   6.751 -0.6090  0.3826  0.0954
  794MOL0     O 4684   0.235   6.256   6.751 -0.0321  0.6451  0.0350
  794MOL0     C 4685   0.175   6.172   6.852  0.3358  0.4183  0.6953
  794MOL0     C 4686   0.019   6.176   6.854 -0.9207 -1.0532 -0.6985
  794MOL0     C 4687  -0.045   6.202   6.728 -0.2066  0.6028  0.6200
  794MOL0     C 4688  -0.076   6.354   6.703  0.5322  0.5658  0.0097
  794MOL0     C 4689  -0.091   6.386   6.549 -0.2500  0.3318 -0.7045
  794MOL0     C 4690  -0.190   6.302   6.465  2.5398  0.1733 -0.2130
  794MOL0     C 4691  -0.332   6.308   6.524  0.1720  0.2999 -0.6456
  794MOL0     C 4692  -0.453   6.248   6.444 -0.2032  0.1402  0.4530
  794MOL0     N 4693  -0.553   6.360   6.435 -0.1845 -0.2630  1.2906
  794MOL0     C 4694  -0.558   6.458   6.338  0.0687  1.1351 -0.1433
  794MOL0     C 4695  -0.657   6.545   6.376 -0.1091  0.0534  0.4481
  794MOL0     C 4696  -0.692   6.667   6.308 -0.4076 -0.1331  1.2784
  794MOL0     C 4697  -0.823   6.659   6.232  0.1579 -0.1433  0.1732
  794MOL0     C 4698  -0.863   6.788   6.168 -0.4503 -0.5990 -1.0008
  794MOL0     C 4699  -0.757   6.807   6.053  0.8969 -0.6586  0.5066
  794MOL0     O 4700  -0.781   6.932   5.988 -0.0628  0.1548 -0.5326
  794MOL0     C 4701  -0.867   6.938   5.884  0.1337  0.0037 -0.1418
  794MOL0     C 4702  -0.969   7.028   5.897  0.3314  0.8489 -0.5901
  794MOL0     C 4703  -1.054   7.063   5.795  0.0584  0.1585  0.5275
  794MOL0     C 4704  -1.041   6.997   5.670  0.4806  1.1437  0.6503
  794MOL0     C 4705  -1.135   7.039   5.560  0.3178 -0.7465  0.6764
  794MOL0     O 4706  -1.226   7.133   5.596 -0.6591 -0.3366  0.6959
  794MOL0     C 4707  -1.303   7.174   5.497  0.1508 -1.0790  0.8976
  794MOL0     C 4708  -1.400   7.089   5.444  0.0713  0.3909 -0.4499
  794MOL0     C 4709  -1.472   7.134   5.345  0.1451  0.2640  0.5484
  794MOL0     C 4710  -1.461   7.261   5.288 -0.4442 -0.2224 -0.6975
  794MOL0     O 4711  -1.539   7.288   5.176 -0.8777  0.0345 -0.6280
  794MOL0     C 4712  -1.556   7.427   5.135  0.5451  0.0376 -0.7749
  794MOL0     C 4713  -1.650   7.426   5.021  0.5222  0.3757 -0.6681
  794MOL0     C 4714  -1.669   7.574   4.984  0.3930 -1.5534  0.0797
  794MOL0     C 4715  -1.794   7.574   4.890  0.9024 -0.4720 -0.7241
  794MOL0     C 4716  -1.836   7.715   4.849 -0.2068 -0.4388 -0.0141
  794MOL0     C 4717  -1.722   7.793   4.772  0.7345 -0.2268  0.0685
  794MOL0     C 4718  -1.662   7.705   4.659  0.4601  0.0182 -0.0517
  794MOL0     C 4719  -1.551   7.779   4.584 -1.2183  0.2277  0.3837
  794MOL0    Cl 4720  -1.389   7.761   4.649 -0.3898  0.4109 -0.5277
  794MOL0     C 4721  -1.368   7.350   5.344 -0.4586  0.5919 -0.5897
  794MOL0     C 4722  -1.287   7.311   5.449  0.7845 -0.2166 -0.4772
  794MOL0     O 4723  -1.118   6.986   5.452  0.0669  0.7678  0.5716
  794MOL0     C 4724  -0.948   6.898   5.660  0.5532  0.4996  1.3811
  794MOL0     C 4725  -0.866   6.863   5.769  1.0920 -0.5369  0.8524
  794MOL0     N 4726  -0.713   6.501   6.489 -0.7631 -0.5681  0.2022
  794MOL0     N 4727  -0.652   6.388   6.520  0.4177 -0.0625  0.6281
  794MOL0     C 4728   0.431   6.334   6.641 -0.7295  0.6538  0.2626
  794MOL0     C 4729   0.565   6.367   6.635 -0.1776  0.6151  1.5754
  794MOL0     C 4730   1.007   6.386   6.711 -0.0031 -0.6082 -0.4127
  794MOL0     C 4731   1.098   6.288   6.709 -0.4242  0.2954 -0.5521
  794MOL0     C 4732   1.232   6.319   6.721 -0.3172 -0.0531 -0.4723
  794MOL0     C 4733   1.276   6.457   6.722  0.0442 -0.7947  0.5271
  794MOL0     O 4734   1.408   6.493   6.728  0.2704  0.1070 -0.1416
  794MOL0     C 4735   1.512   6.405   6.697  0.0318  0.1581 -1.2721
  794MOL0     C 4736   1.638   6.490   6.690 -0.5769 -0.4269  0.6589
  794MOL0     C 4737   1.743   6.398   6.643  0.4191 -0.4219 -0.7225
  794MOL0     C 4738   1.881   6.468   6.664  0.9422 -0.5592 -1.7414
  794MOL0     C 4739   1.999   6.387   6.627 -0.2758 -0.1808  0.3554
  794MOL0     C 4740   2.095   6.322   6.596  0.0012 -0.2236 -1.5147
  794MOL0     C 4741   1.176   6.560   6.710 -0.0304  1.0542 -0.0761
  794MOL0     C 4742   1.042   6.530   6.724  0.1621  0.1711  0.9193
  794MOL0     H 4743   0.644   6.302   6.956 -1.7494 -1.4181  1.2037
  794MOL0     H 4744   0.422   6.262   6.977  1.2207  0.6653  1.0151
  794MOL0     H 4745   0.198   6.193   6.957  0.5137  0.8457  0.5754
  794MOL0     H 4746   0.203   6.073   6.816  2.9147  1.9347 -1.8756
  794MOL0     H 4747  -0.010   6.240   6.937 -1.2613  0.2757 -1.7991
  794MOL0     H 4748  -0.010   6.072   6.874  0.6677 -1.2308  1.0367
  794MOL0     H 4749  -0.142   6.152   6.734 -1.4167  2.7696  0.2269
  794MOL0     H 4750   0.026   6.178   6.648  0.9453 -1.3680  2.1345
  794MOL0     H 4751  -0.166   6.380   6.759  0.4286  2.8004 -1.0830
  794MOL0     H 4752  -0.003   6.418   6.752  2.5982 -1.4173 -0.3008
  794MOL0     H 4753   0.008   6.386   6.504 -1.3720 -2.5927 -3.5139
  794MOL0     H 4754  -0.132   6.488   6.548  0.7868  0.8539  1.9652
  794MOL0     H 4755  -0.154   6.199   6.464  1.8831 -0.0585 -1.1377
  794MOL0     H 4756  -0.198   6.347   6.366  3.5912 -2.2827 -1.4922
  794MOL0     H 4757  -0.333   6.256   6.620  3.9574  0.1495 -0.5596
  794MOL0     H 4758  -0.367   6.409   6.546 -2.8922 -1.0512  1.4414
  794MOL0     H 4759  -0.510   6.168   6.493  0.4351 -0.9971 -0.5944
  794MOL0     H 4760  -0.421   6.215   6.345  1.8935  0.4858  0.9736
  794MOL0     H 4761  -0.509   6.457   6.241 -2.1395  2.2326 -1.3365
  794MOL0     H 4762  -0.605   6.688   6.246 -0.8223 -0.9501  0.3943
  794MOL0     H 4763  -0.692   6.742   6.387 -0.0228  0.6800  0.5147
  794MOL0     H 4764  -0.892   6.636   6.315  0.7783  0.7992  0.9663
  794MOL0     H 4765  -0.834   6.577   6.160 -1.4509 -0.2159  0.4436
  794MOL0     H 4766  -0.967   6.794   6.134 -1.2269  4.0080  1.3895
  794MOL0     H 4767  -0.845   6.864   6.244  1.7967  0.2618 -2.2832
  794MOL0     H 4768  -0.759   6.722   5.983  1.2788 -0.8624  0.7399
  794MOL0     H 4769  -0.655   6.804   6.093 -0.2069 -0.2917  3.5659
  794MOL0     H 4770  -0.984   7.085   5.987 -1.4755  0.8278 -0.8359
  794MOL0     H 4771  -1.117   7.150   5.808  1.9356  2.1133 -2.2529
  794MOL0     H 4772  -1.411   6.993   5.494 -0.0612  0.5452 -0.1813
  794MOL0     H 4773  -1.557   7.075   5.312 -0.1574  2.0968 -2.3883
  794MOL0     H 4774  -1.460   7.469   5.102  0.8042  1.5908  1.7388
  794MOL0     H 4775  -1.596   7.486   5.218 -1.1613 -0.7024 -1.0264
  794MOL0     H 4776  -1.736   7.368   5.056  1.3895 -0.5510 -0.0272
  794MOL0     H 4777  -1.626   7.360   4.938 -2.4569 -0.5803 -0.9028
  794MOL0     H 4778  -1.591   7.626   4.928  0.9192  2.4621  4.0532
  794MOL0     H 4779  -1.707   7.636   5.065 -3.4119 -0.2544 -2.4247
  794MOL0     H 4780  -1.786   7.511   4.801 -0.9799 -2.4257  0.3999
  794MOL0     H 4781  -1.877   7.534   4.949 -0.8387 -1.2614 -3.5086
  794MOL0     H 4782  -1.863   7.765   4.942 -3.1941 -0.0297 -0.9995
  794MOL0     H 4783  -1.926   7.706   4.788 -0.0755 -0.3728 -0.2181
  794MOL0     H 4784  -1.649   7.830   4.845  1.3070  0.8706 -1.0347
  794MOL0     H 4785  -1.777   7.873   4.721  2.2174 -0.0995 -1.4097
  794MOL0     H 4786  -1.611   7.618   4.700  1.6370  1.6308  2.1274
  794MOL0     H 4787  -1.728   7.665   4.582  0.4369 -1.6787  0.7983
  794MOL0     H 4788  -1.579   7.883   4.569 -0.8870  0.2679  0.0368
  794MOL0     H 4789  -1.546   7.745   4.480  1.6736  3.3692 -0.6816
  794MOL0     H 4790  -1.347   7.445   5.296  1.3457  0.5454  0.0530
  794MOL0     H 4791  -1.219   7.372   5.506 -0.9830  0.8715  0.5489
  794MOL0     H 4792  -0.924   6.853   5.565 -5.2567  4.0687 -2.3678
  794MOL0     H 4793  -0.791   6.785   5.761  2.5436  0.9375 -0.9069
  794MOL0     H 4794   0.365   6.326   6.555 -1.1319  0.7127  0.5635
  794MOL0     H 4795   0.605   6.414   6.546 -3.1305  1.6915  0.7226
  794MOL0     H 4796   1.077   6.182   6.712 -1.4377  0.5154  1.0011
  794MOL0     H 4797   1.303   6.241   6.746  1.4043  1.0737 -1.7012
  794MOL0     H 4798   1.500   6.364   6.596  0.1176 -1.3864 -0.6690
  794MOL0     H 4799   1.512   6.324   6.770 -1.4173  0.9500 -0.3449
  794MOL0     H 4800   1.632   6.574   6.620 -2.7399 -1.0086  0.0821
  794MOL0     H 4801   1.659   6.535   6.788  2.7376  2.3515 -1.1092
  794MOL0     H 4802   1.723   6.377   6.538  1.9024  2.2164 -1.6363
  794MOL0     H 4803   1.743   6.313   6.711  2.7989  0.7393  0.8872
  794MOL0     H 4804   1.879   6.562   6.608  0.9303  0.1011 -0.6544
  794MOL0     H 4805   1.896   6.484   6.771  3.3103  0.4626 -2.1670
  794MOL0     H 4806   2.188   6.275   6.569  1.7144  2.1332 -0.2221
  794MOL0     H 4807   1.215   6.661   6.704  1.8610  0.3967  0.5594
  794MOL0     H 4808   0.978   6.617   6.732  0.1732  0.4877 -1.6856
  795MOL0     O 4809   1.042   9.009   4.912 -0.6526 -0.6166 -0.1443
  795MOL0     C 4810   1.132   9.076   4.965  0.3022  0.5777  0.0547
  795MOL0     O 4811   1.258   9.109   4.922 -0.0844 -0.3730 -0.1283
  795MOL0     C 4812   1.304   9.085   4.794 -0.4172  0.5976  0.2357
  795MOL0     C 4813   1.417   9.166   4.758  0.4422  0.7262  0.9349
  795MOL0     C 4814   1.490   9.151   4.637  0.0924  0.0161  0.4641
  795MOL0     C 4815   1.440   9.064   4.546 -0.5725  0.3878  0.0378
  795MOL0     O 4816   1.517   9.056   4.429  0.4242  0.0276 -0.1805
  795MOL0     C 4817   1.548   8.933   4.359  0.1362  0.1769 -0.3745
  795MOL0     C 4818   1.649   8.851   4.449  1.3670 -0.0948 -0.4436
  795MOL0     C 4819   1.767   8.942   4.485 -0.8023  0.0522  0.1369
  795MOL0     C 4820   1.874   8.879   4.581  0.3768 -0.1288 -0.6916
  795MOL0     C 4821   1.843   8.928   4.732  0.5694  0.2713  0.9245
  795MOL0     C 4822   1.912   8.845   4.836  0.4347 -0.0366 -0.3645
  795MOL0     C 4823   2.067   8.853   4.820 -1.3275 -0.5908 -1.0664
  795MOL0     C 4824   2.143   8.800   4.941 -0.5715 -0.6441 -0.0016
  795MOL0     N 4825   2.293   8.810   4.918  1.0378  1.0227 -0.6999
  795MOL0     C 4826   2.364   8.765   4.812 -0.3281  0.7015 -0.0222
  795MOL0     C 4827   2.485   8.828   4.805  0.3649  0.2662 -1.1078
  795MOL0     C 4828   2.614   8.821   4.715  1.2737 -0.1659 -0.3452
  795MOL0     C 4829   2.695   8.691   4.734  0.0320  0.5731  0.0310
  795MOL0     C 4830   2.735   8.667   4.878 -0.0282  0.3134 -0.7226
  795MOL0     C 4831   2.832   8.780   4.925 -0.8264 -0.4930  0.3867
  795MOL0     O 4832   2.959   8.787   4.853  0.2757 -0.0274 -0.4052
  795MOL0     C 4833   3.066   8.835   4.932  0.1282 -0.1974 -0.4639
  795MOL0     C 4834   3.159   8.914   4.859  0.4613  0.1843 -0.1208
  795MOL0     C 4835   3.273   8.963   4.928 -0.2049 -0.2456 -0.5463
  795MOL0     C 4836   3.305   8.939   5.065  0.6168 -0.7287 -0.2039
  795MOL0     C 4837   3.420   9.001   5.138  0.1131  0.7435 -0.9378
  795MOL0     O 4838   3.448   8.960   5.261  0.3025 -0.0463  0.2863
  795MOL0     C 4839   3.517   9.045   5.336  0.7605  0.3135 -0.1067
  795MOL0     C 4840   3.658   9.084   5.321  0.6171  0.4385  0.4510
  795MOL0     C 4841   3.725   9.172   5.399  0.2759 -0.0165  0.5200
  795MOL0     C 4842   3.661   9.231   5.504 -0.2407  1.2788 -0.1322
  795MOL0     O 4843   3.731   9.319   5.583  1.0648 -0.1015  0.5900
  795MOL0     C 4844   3.669   9.423   5.678  0.7187 -0.5039  0.5967
  795MOL0     C 4845   3.767   9.511   5.747 -0.4836 -0.6625  0.7362
  795MOL0     C 4846   3.860   9.415   5.822 -0.2636 -0.2076  0.4673
  795MOL0     C 4847   3.938   9.485   5.934  0.2503 -0.2524  0.3594
  795MOL0     C 4848   4.045   9.591   5.896  0.9211  0.1959 -0.2510
  795MOL0     C 4849   4.108   9.645   6.024 -0.0369 -0.4268 -0.2592
  795MOL0     C 4850   4.202   9.758   5.970 -0.9666  0.0825 -0.7063
  795MOL0     C 4851   4.322   9.786   6.056  0.5874 -0.9425 -0.0315
  795MOL0    Cl 4852   4.258   9.818   6.230 -0.2728  0.0789  0.1565
  795MOL0     C 4853   3.526   9.196   5.538  0.2029  0.8036 -1.0938
  795MOL0     C 4854   3.464   9.099   5.453  1.0653  0.2746  0.1484
  795MOL0     O 4855   3.469   9.094   5.080  0.5081 -0.3125  0.1168
  795MOL0     C 4856   3.219   8.850   5.128  0.3105  0.6445  0.1122
  795MOL0     C 4857   3.096   8.796   5.062 -0.1759 -0.9645 -0.1608
  795MOL0     N 4858   2.486   8.910   4.916  0.3009 -0.5669 -0.6096
  795MOL0     N 4859   2.375   8.891   4.985  0.9462 -0.6287 -0.3659
  795MOL0     C 4860   1.333   8.981   4.582 -0.9188 -0.1422  0.1133
  795MOL0     C 4861   1.266   8.993   4.701 -0.3366 -0.2819  0.8419
  795MOL0     C 4862   1.103   9.108   5.107 -0.8596 -0.5333  0.0183
  795MOL0     C 4863   1.195   9.198   5.180  0.0002  0.3874  0.2102
  795MOL0     C 4864   1.180   9.233   5.308 -0.5401 -0.3421 -0.3636
  795MOL0     C 4865   1.068   9.189   5.384 -0.3782 -0.2184  1.0298
  795MOL0     O 4866   1.059   9.241   5.512 -0.0499  0.5841  0.2697
  795MOL0     C 4867   0.924   9.248   5.555  0.2407  0.2036 -0.5229
  795MOL0     C 4868   0.935   9.324   5.688  1.0940 -1.1817 -0.1437
  795MOL0     C 4869   0.805   9.362   5.743 -0.2577 -0.0269 -0.4460
  795MOL0     C 4870   0.804   9.469   5.851  0.0789 -0.1680 -0.4955
  795MOL0     C 4871   0.852   9.597   5.787  0.3802  0.5566  0.9985
  795MOL0     C 4872   0.876   9.706   5.730  0.4294 -0.5152 -0.3132
  795MOL0     C 4873   0.986   9.093   5.320  0.1277  0.6041 -0.1469
  795MOL0     C 4874   0.997   9.051   5.184 -0.3070  0.0028 -0.7051
  795MOL0     H 4875   1.453   9.240   4.829  3.9554  0.1940 -0.1120
  795MOL0     H 4876   1.581   9.210   4.625 -0.8678  1.2444 -1.4370
  795MOL0     H 4877   1.585   8.939   4.256 -1.3395 -0.8703 -1.0027
  795MOL0     H 4878   1.455   8.877   4.347 -0.5000  0.5819  2.2133
  795MOL0     H 4879   1.688   8.760   4.402 -1.0744 -0.1882 -2.4983
  795MOL0     H 4880   1.605   8.825   4.545  1.0722  0.6567 -0.3702
  795MOL0     H 4881   1.741   9.039   4.530 -0.0592  0.6018 -0.5926
  795MOL0     H 4882   1.819   8.963   4.391 -0.0523 -0.2026  0.4882
  795MOL0     H 4883   1.873   8.771   4.565  0.1441 -0.0604 -1.1424
  795MOL0     H 4884   1.970   8.927   4.559  1.4628  0.1712  3.7172
  795MOL0     H 4885   1.736   8.920   4.753  1.1932 -3.2075  3.8166
  795MOL0     H 4886   1.860   9.035   4.748 -1.8199  1.1542 -1.7629
  795MOL0     H 4887   1.881   8.740   4.840 -0.9105  0.3408 -0.1287
  795MOL0     H 4888   1.886   8.881   4.936 -0.4772  2.4066 -1.4086
  795MOL0     H 4889   2.097   8.797   4.731 -1.5379 -3.9477  0.8257
  795MOL0     H 4890   2.093   8.959   4.818 -0.3041 -0.6426  2.6562
  795MOL0     H 4891   2.118   8.695   4.959 -1.5402 -1.0110 -2.9445
  795MOL0     H 4892   2.122   8.853   5.034 -0.0076 -0.3900 -0.0167
  795MOL0     H 4893   2.336   8.690   4.738  1.9273  0.7439 -1.0251
  795MOL0     H 4894   2.673   8.912   4.729 -0.4614  0.8048  0.8955
  795MOL0     H 4895   2.574   8.816   4.614  0.5639 -1.4872 -0.0250
  795MOL0     H 4896   2.785   8.700   4.671  1.7141  0.3528  2.2618
  795MOL0     H 4897   2.643   8.600   4.704 -1.8867  1.3519  0.8462
  795MOL0     H 4898   2.649   8.660   4.945  0.3300 -4.0403 -0.4072
  795MOL0     H 4899   2.782   8.568   4.879  1.5332  0.8072 -4.8624
  795MOL0     H 4900   2.853   8.763   5.031 -2.4807  2.6439  1.3423
  795MOL0     H 4901   2.789   8.881   4.927 -3.0921 -1.3937  1.0032
  795MOL0     H 4902   3.149   8.938   4.754 -2.2207  1.2492  0.3015
  795MOL0     H 4903   3.337   9.029   4.871  3.1327 -2.1707  0.7043
  795MOL0     H 4904   3.696   9.048   5.226 -0.0027  2.5412 -0.6501
  795MOL0     H 4905   3.822   9.210   5.368  0.4135 -0.8464 -0.0919
  795MOL0     H 4906   3.612   9.380   5.761  0.3530  3.6142  2.7304
  795MOL0     H 4907   3.607   9.493   5.620  0.9522 -1.8719 -1.4052
  795MOL0     H 4908   3.714   9.582   5.812  1.7875  1.1264  0.7732
  795MOL0     H 4909   3.830   9.570   5.680 -1.5402 -1.7395 -1.2868
  795MOL0     H 4910   3.935   9.381   5.750 -0.6269  0.1441 -0.0909
  795MOL0     H 4911   3.819   9.319   5.855  0.0287 -0.6953 -0.5371
  795MOL0     H 4912   3.872   9.529   6.009 -0.2242  3.5742 -2.0002
  795MOL0     H 4913   3.999   9.405   5.977  0.0472  0.4768  2.0623
  795MOL0     H 4914   3.994   9.671   5.841 -2.4775 -1.7791 -0.2047
  795MOL0     H 4915   4.125   9.548   5.835  0.7771 -0.0054 -0.3004
  795MOL0     H 4916   4.164   9.564   6.070  1.7620  0.6095 -0.5604
  795MOL0     H 4917   4.035   9.690   6.092  1.7475  2.7431 -0.2409
  795MOL0     H 4918   4.245   9.730   5.874  2.3220  0.1120  0.6390
  795MOL0     H 4919   4.138   9.845   5.958 -1.1483 -0.0603 -0.7889
  795MOL0     H 4920   4.383   9.871   6.025  0.3592 -0.1856  1.4663
  795MOL0     H 4921   4.392   9.703   6.045  0.1289 -1.1061 -2.1117
  795MOL0     H 4922   3.472   9.233   5.623  1.9944  0.1126  0.4222
  795MOL0     H 4923   3.363   9.071   5.481  1.0840 -0.4020 -0.4327
  795MOL0     H 4924   3.246   8.807   5.224  2.3384 -2.4083 -1.6417
  795MOL0     H 4925   3.041   8.722   5.118  1.0838 -1.0308  1.0204
  795MOL0     H 4926   1.296   8.919   4.501  1.6727 -2.1750  0.3533
  795MOL0     H 4927   1.181   8.928   4.720 -0.6773  0.3529  1.5306
  795MOL0     H 4928   1.275   9.246   5.124  1.4823  0.0162  1.9252
  795MOL0     H 4929   1.240   9.315   5.346 -4.9812  2.6048  1.1388
  795MOL0     H 4930   0.880   9.151   5.578 -1.4240  1.1435  0.4803
  795MOL0     H 4931   0.868   9.303   5.478  0.6075 -0.4103 -1.2340
  795MOL0     H 4932   0.987   9.256   5.756  0.6263  0.7940  2.3415
  795MOL0     H 4933   1.001   9.410   5.673 -1.9059  0.9841 -2.5808
  795MOL0     H 4934   0.755   9.268   5.770  1.4073 -1.1694 -1.1775
  795MOL0     H 4935   0.750   9.404   5.659  4.0728  1.3270 -2.9019
  795MOL0     H 4936   0.699   9.493   5.875  0.9019  1.6634  1.6337
  795MOL0     H 4937   0.854   9.429   5.940  0.7808 -1.6899 -1.5406
  795MOL0     H 4938   0.900   9.796   5.678 -0.5302  0.3015  0.6142
  795MOL0     H 4939   0.911   9.051   5.386  1.1503 -1.3582 -0.1319
  795MOL0     H 4940   0.921   8.987   5.141 -2.6797  0.7657  2.0449
  796MOL0     O 4941  10.147   2.248   2.176  0.3915 -0.7853 -0.1208
  796MOL0     C 4942  10.237   2.261   2.095 -1.2690 -0.0540  0.1527
  796MOL0     O 4943  10.214   2.258   1.956  0.0047  0.3677  0.9911
  796MOL0     C 4944  10.085   2.249   1.921 -0.6054 -0.4310 -0.0594
  796MOL0     C 4945  10.032   2.117   1.918 -0.3448 -0.2746  0.1890
  796MOL0     C 4946   9.904   2.089   1.878  0.9442  1.8387  0.2298
  796MOL0     C 4947   9.814   2.189   1.847  0.1561  0.2592 -0.4028
  796MOL0     O 4948   9.681   2.149   1.815 -0.0481 -0.5399 -0.3800
  796MOL0     C 4949   9.575   2.244   1.833 -0.4822 -0.7463 -0.1960
  796MOL0     C 4950   9.436   2.167   1.830 -0.8397  0.3343  0.3963
  796MOL0     C 4951   9.427   2.036   1.915 -0.7811 -0.2727 -0.0349
  796MOL0     C 4952   9.281   1.990   1.905  0.0543  0.8623 -0.1176
  796MOL0     C 4953   9.252   1.883   2.015  0.0310  0.0795  0.9102
  796MOL0     C 4954   9.346   1.765   2.016 -0.4244  1.3308 -0.6196
  796MOL0     C 4955   9.306   1.656   2.117  0.1590  0.0860 -0.6367
  796MOL0     C 4956   9.364   1.673   2.257  1.0404  0.1089 -0.0906
  796MOL0     N 4957   9.281   1.599   2.354  0.0870 -0.4983 -0.8933
  796MOL0     C 4958   9.249   1.467   2.354  0.4301  0.2566  0.5065
  796MOL0     C 4959   9.188   1.445   2.466 -0.3279  0.0720 -1.0294
  796MOL0     C 4960   9.124   1.311   2.502 -0.1863  0.1773  0.0135
  796MOL0     C 4961   9.049   1.234   2.388  0.1298 -0.0170 -0.7797
  796MOL0     C 4962   8.978   1.105   2.448  0.3209  0.5294  0.9339
  796MOL0     C 4963   8.898   1.028   2.344 -0.3577 -0.4205 -0.5529
  796MOL0     O 4964   8.806   1.116   2.290 -0.2936  0.4634  0.0329
  796MOL0     C 4965   8.681   1.065   2.281 -0.8149  0.3584 -0.6869
  796MOL0     C 4966   8.649   0.956   2.193  1.4216 -0.3910  0.0763
  796MOL0     C 4967   8.517   0.909   2.193  0.2801  0.1737 -0.6404
  796MOL0     C 4968   8.419   0.967   2.265 -0.6318 -1.2596 -0.0738
  796MOL0     C 4969   8.275   0.927   2.242 -0.0562  0.8320  0.0710
  796MOL0     O 4970   8.191   1.013   2.311 -0.0542 -0.0852  0.1965
  796MOL0     C 4971   8.054   0.983   2.319  0.2889  0.1105 -0.0058
  796MOL0     C 4972   7.964   1.089   2.291 -0.6952 -0.3941  0.4903
  796MOL0     C 4973   7.827   1.071   2.281  0.7049 -0.3057  0.1260
  796MOL0     C 4974   7.767   0.950   2.314  0.1197  0.1880  0.4801
  796MOL0     O 4975   7.626   0.922   2.315 -0.5809 -0.2230  0.0988
  796MOL0     C 4976   7.534   0.968   2.215  0.3100 -0.1188 -0.0552
  796MOL0     C 4977   7.394   0.906   2.237 -0.1381 -0.1495  0.6866
  796MOL0     C 4978   7.386   0.760   2.175  0.6913 -0.0710 -0.5733
  796MOL0     C 4979   7.434   0.655   2.288  0.4419  0.0374 -0.5564
  796MOL0     C 4980   7.414   0.509   2.243  0.1309  0.1018 -0.9166
  796MOL0     C 4981   7.500   0.419   2.332  0.8533 -0.5979  0.0598
  796MOL0     C 4982   7.648   0.467   2.342 -1.1704 -1.0844  0.3627
  796MOL0     C 4983   7.740   0.361   2.401  0.2895  0.3658 -0.2732
  796MOL0    Cl 4984   7.653   0.272   2.535  0.1306  0.5376 -0.1061
  796MOL0     C 4985   7.850   0.843   2.343 -0.3533  0.1964 -0.3839
  796MOL0     C 4986   7.998   0.859   2.352  0.1096 -0.1725  0.8169
  796MOL0     O 4987   8.241   0.836   2.169 -0.3796 -0.3934 -0.3391
  796MOL0     C 4988   8.450   1.088   2.336 -0.0311  0.8138 -0.2723
  796MOL0     C 4989   8.578   1.126   2.348 -0.8676 -0.3760  0.3109
  796MOL0     N 4990   9.177   1.557   2.538 -0.3058 -0.1387  0.0129
  796MOL0     N 4991   9.241   1.656   2.477  0.3915  0.5290 -0.3507
  796MOL0     C 4992   9.861   2.325   1.852 -0.1822 -0.3316 -0.4888
  796MOL0     C 4993   9.998   2.356   1.892  0.1368 -0.7587  0.0303
  796MOL0     C 4994  10.374   2.297   2.149  0.0077  1.0891 -0.4532
  796MOL0     C 4995  10.391   2.314   2.286 -0.3281 -0.0003  0.1537
  796MOL0     C 4996  10.520   2.327   2.345 -0.3546 -0.6215 -0.2705
  796MOL0     C 4997  10.633   2.332   2.267  0.3249 -1.2928 -0.2795
  796MOL0     O 4998  10.760   2.342   2.317  0.4548  0.7611  0.6042
  796MOL0     C 4999  10.792   2.307   2.452  0.6075 -0.5674 -0.3169
  796MOL0     C 5000  10.779   2.428   2.545 -0.8110 -0.3871 -0.4696
  796MOL0     C 5001  10.865   2.422   2.679  0.7332 -0.4232 -0.5828
  796MOL0     C 5002  10.880   2.554   2.754  0.2599  0.0593  0.3414
  796MOL0     C 5003  10.932   2.658   2.667 -0.4237  0.0869 -0.4764
  796MOL0     C 5004  10.975   2.740   2.587 -0.5803 -0.2073 -0.2381
  796MOL0     C 5005  10.611   2.343   2.128 -0.8920  0.3234  0.1793
  796MOL0     C 5006  10.482   2.326   2.066 -0.4697 -0.1763 -0.8975
  796MOL0     H 5007  10.094   2.031   1.942 -0.5831 -2.2643 -5.0245
  796MOL0     H 5008   9.886   1.983   1.860 -1.5277  2.4714 -1.4382
  796MOL0     H 5009   9.565   2.317   1.752  0.5791 -0.6545 -0.2650
  796MOL0     H 5010   9.584   2.290   1.932 -1.1369 -0.1805 -0.3954
  796MOL0     H 5011   9.423   2.141   1.725 -0.7059 -0.6582  0.6172
  796MOL0     H 5012   9.353   2.229   1.866 -2.6168 -1.2621 -0.7244
  796MOL0     H 5013   9.464   2.054   2.017 -2.9642 -0.6747  0.8786
  796MOL0     H 5014   9.492   1.959   1.873 -0.7080 -1.1610  1.5964
  796MOL0     H 5015   9.207   2.068   1.923 -0.2796  0.4208  0.4901
  796MOL0     H 5016   9.255   1.955   1.805  3.6163  1.2302 -1.3390
  796MOL0     H 5017   9.149   1.846   2.012  0.9856 -2.6894 -0.9614
  796MOL0     H 5018   9.272   1.931   2.112  0.9868  0.3222  0.6014
  796MOL0     H 5019   9.452   1.789   2.031 -1.1825  3.5143  1.9114
  796MOL0     H 5020   9.349   1.717   1.917 -0.3346 -0.0755  0.0335
  796MOL0     H 5021   9.197   1.665   2.109  0.3278  2.6865 -0.8181
  796MOL0     H 5022   9.337   1.558   2.079  1.9997  0.0538  0.7873
  796MOL0     H 5023   9.364   1.778   2.288  1.7543 -0.1649  0.9105
  796MOL0     H 5024   9.465   1.631   2.266  1.9508  1.6526 -2.2135
  796MOL0     H 5025   9.256   1.398   2.271 -0.3911  1.7629 -0.8569
  796MOL0     H 5026   9.055   1.330   2.585  1.8928 -2.3807  2.5299
  796MOL0     H 5027   9.208   1.256   2.545  0.5550  0.4216 -1.0789
  796MOL0     H 5028   9.128   1.214   2.316  2.6105 -0.8227  1.9676
  796MOL0     H 5029   8.970   1.301   2.350  1.5503  2.6656  0.6750
  796MOL0     H 5030   9.049   1.033   2.491 -0.2949  0.7056  2.2873
  796MOL0     H 5031   8.901   1.135   2.519  0.7034  0.8736  1.2067
  796MOL0     H 5032   8.860   0.930   2.376  0.3434 -0.4031  0.3692
  796MOL0     H 5033   8.961   1.014   2.256 -1.0037 -1.2678 -0.8921
  796MOL0     H 5034   8.717   0.904   2.127 -0.6429 -2.3947 -0.6277
  796MOL0     H 5035   8.512   0.826   2.123  5.0029 -2.2296  1.4254
  796MOL0     H 5036   8.020   1.176   2.260  0.5236 -2.0259 -2.2348
  796MOL0     H 5037   7.766   1.153   2.243  0.6784  0.2126  1.2609
  796MOL0     H 5038   7.574   0.941   2.117 -0.7015  1.4863 -0.9551
  796MOL0     H 5039   7.531   1.077   2.221  1.6936 -0.1319  3.5627
  796MOL0     H 5040   7.314   0.961   2.187 -0.1155 -0.6994  0.0326
  796MOL0     H 5041   7.375   0.903   2.345 -1.4436  1.5289  0.5545
  796MOL0     H 5042   7.449   0.751   2.085  1.5466 -1.2806  0.1091
  796MOL0     H 5043   7.284   0.740   2.141  1.3627 -2.7812 -1.2535
  796MOL0     H 5044   7.535   0.690   2.313  0.4583  0.7616 -1.5360
  796MOL0     H 5045   7.374   0.664   2.378  1.2553 -1.0736  0.1240
  796MOL0     H 5046   7.439   0.502   2.137 -0.5755 -0.6579 -1.0515
  796MOL0     H 5047   7.309   0.477   2.251 -0.0085  0.6760 -0.3515
  796MOL0     H 5048   7.492   0.317   2.293 -0.8305  0.1044 -1.6116
  796MOL0     H 5049   7.455   0.412   2.431  0.4371  0.7642 -0.0081
  796MOL0     H 5050   7.688   0.487   2.242  0.2061 -3.0713  0.4526
  796MOL0     H 5051   7.641   0.548   2.415  0.3148 -0.1713 -0.4609
  796MOL0     H 5052   7.844   0.382   2.429  0.9143 -3.5944  0.9594
  796MOL0     H 5053   7.756   0.287   2.322  2.4289 -2.6323  2.6944
  796MOL0     H 5054   7.798   0.751   2.368 -2.2684  0.9579 -1.3270
  796MOL0     H 5055   8.062   0.773   2.368  2.2667  0.6922 -2.2569
  796MOL0     H 5056   8.379   1.163   2.366  1.9945  2.4793  0.6057
  796MOL0     H 5057   8.603   1.200   2.422  0.3586  0.0979 -0.5532
  796MOL0     H 5058   9.795   2.408   1.831  0.2187 -0.4116 -2.2976
  796MOL0     H 5059  10.037   2.457   1.889  0.0347 -0.7450 -1.2763
  796MOL0     H 5060  10.308   2.303   2.355 -0.2602 -1.6934  0.0025
  796MOL0     H 5061  10.526   2.326   2.453 -0.5988  3.4087 -0.0952
  796MOL0     H 5062  10.897   2.279   2.449  1.1969  1.4908 -2.4476
  796MOL0     H 5063  10.736   2.219   2.484 -0.3812  0.4971  1.0051
  796MOL0     H 5064  10.825   2.507   2.485 -2.2823  0.6613 -0.2520
  796MOL0     H 5065  10.676   2.458   2.568 -0.4277  1.4534 -1.0093
  796MOL0     H 5066  10.962   2.381   2.651  0.1917 -1.0166 -1.6348
  796MOL0     H 5067  10.819   2.349   2.747 -1.6872  0.8535 -0.7292
  796MOL0     H 5068  10.783   2.589   2.792  0.3084  0.1975  0.3368
  796MOL0     H 5069  10.947   2.523   2.835  0.3328 -3.9709 -1.0129
  796MOL0     H 5070  11.017   2.807   2.515 -1.6498  3.0713  1.9270
  796MOL0     H 5071  10.692   2.357   2.058 -1.1756 -0.6779 -0.3752
  796MOL0     H 5072  10.463   2.318   1.960 -2.6292 -0.9405 -0.5095
  797MOL0     O 5073   4.047   0.637   5.460  0.3490 -0.3172  0.1378
  797MOL0     C 5074   4.136   0.710   5.509 -0.3152 -0.2036  0.9981
  797MOL0     O 5075   4.118   0.785   5.619 -0.2242 -0.0776 -0.2929
  797MOL0     C 5076   3.984   0.815   5.650 -0.3769 -0.4227 -0.0052
  797MOL0     C 5077   3.917   0.934   5.618 -0.0596 -0.0329  0.4142
  797MOL0     C 5078   3.783   0.957   5.673  0.0741 -0.7431 -1.3421
  797MOL0     C 5079   3.724   0.866   5.758 -0.0169  0.0480 -0.1093
  797MOL0     O 5080   3.587   0.897   5.770 -0.1310 -0.0965  0.5983
  797MOL0     C 5081   3.499   0.835   5.858 -0.3566  0.0869 -0.8500
  797MOL0     C 5082   3.523   0.890   6.000  0.6138  0.2781 -0.0862
  797MOL0     C 5083   3.404   0.867   6.102  0.3326 -0.7099 -0.3839
  797MOL0     C 5084   3.290   0.969   6.093 -0.3753  0.5640  0.3416
  797MOL0     C 5085   3.180   0.948   6.194 -0.6548 -0.4080 -0.1170
  797MOL0     C 5086   3.119   1.093   6.199 -0.3807 -0.2509  0.6145
  797MOL0     C 5087   2.981   1.076   6.271  0.4512  0.7088  0.2225
  797MOL0     C 5088   2.869   1.184   6.260  0.1051 -0.6821 -0.1597
  797MOL0     N 5089   2.899   1.283   6.366  0.6830 -0.9741 -0.5290
  797MOL0     C 5090   2.905   1.254   6.498 -0.6052  0.0295 -0.9688
  797MOL0     C 5091   2.953   1.366   6.562  1.1829  1.1422 -0.3883
  797MOL0     C 5092   2.977   1.376   6.713 -0.4261 -0.7866 -0.0792
  797MOL0     C 5093   3.065   1.269   6.755 -0.0471 -0.4063 -0.2001
  797MOL0     C 5094   3.113   1.275   6.901 -0.1066 -0.2859 -0.0615
  797MOL0     C 5095   3.020   1.347   6.995  0.0470  0.3293  0.1513
  797MOL0     O 5096   3.027   1.298   7.131  0.4708 -0.6074 -0.2866
  797MOL0     C 5097   2.955   1.187   7.173 -0.2281 -0.7850  0.0219
  797MOL0     C 5098   2.925   1.154   7.308  0.0184 -0.4515 -0.7854
  797MOL0     C 5099   2.854   1.040   7.350  0.1098 -0.0014  0.5152
  797MOL0     C 5100   2.796   0.955   7.253 -0.4553  0.7171  0.2869
  797MOL0     C 5101   2.717   0.831   7.280  0.7668  0.2948  0.2940
  797MOL0     O 5102   2.728   0.783   7.411 -0.1759  0.2117  0.1345
  797MOL0     C 5103   2.640   0.702   7.468  0.6162  0.8416  0.1249
  797MOL0     C 5104   2.500   0.686   7.431  0.5536 -0.5816 -0.3617
  797MOL0     C 5105   2.413   0.606   7.500  0.8483  0.2147  0.6594
  797MOL0     C 5106   2.460   0.550   7.625  0.2133 -0.3512  0.3314
  797MOL0     O 5107   2.393   0.465   7.712  0.0992  0.2174 -0.1532
  797MOL0     C 5108   2.258   0.441   7.697  0.2113 -0.0976  0.0377
  797MOL0     C 5109   2.234   0.307   7.757 -0.1083 -0.1312  0.0230
  797MOL0     C 5110   2.227   0.306   7.908 -0.2129 -0.5491  0.5971
  797MOL0     C 5111   2.104   0.372   7.963  0.0206  0.6400 -0.1712
  797MOL0     C 5112   2.070   0.331   8.104 -0.4152  0.3485  0.4358
  797MOL0     C 5113   1.931   0.372   8.163 -0.1722 -0.0939 -0.6559
  797MOL0     C 5114   1.921   0.341   8.318 -0.4752 -0.0757 -0.2310
  797MOL0     C 5115   1.793   0.387   8.374  0.6939 -0.1169  0.2361
  797MOL0    Cl 5116   1.655   0.317   8.287 -0.1614 -0.1427  0.2894
  797MOL0     C 5117   2.587   0.573   7.664  0.0905 -0.5148 -0.6950
  797MOL0     C 5118   2.676   0.648   7.581  0.3611 -0.7720 -0.1623
  797MOL0     O 5119   2.649   0.781   7.192  0.0266  0.8871  0.5126
  797MOL0     C 5120   2.821   0.979   7.115 -0.1997 -0.3607  0.3334
  797MOL0     C 5121   2.908   1.093   7.070  1.1935 -0.2769 -0.0967
  797MOL0     N 5122   2.977   1.458   6.463 -0.5860 -0.4112 -0.6761
  797MOL0     N 5123   2.945   1.408   6.351  0.2939  0.0143  0.0772
  797MOL0     C 5124   3.792   0.751   5.790  1.6941 -0.0326 -0.0844
  797MOL0     C 5125   3.917   0.723   5.731  0.5893 -0.4870 -0.1279
  797MOL0     C 5126   4.277   0.697   5.451 -0.0334  0.3911 -0.8799
  797MOL0     C 5127   4.302   0.639   5.324  1.0133 -0.2744  0.2697
  797MOL0     C 5128   4.429   0.604   5.277 -0.5834 -0.1374  0.3684
  797MOL0     C 5129   4.540   0.643   5.356  1.1614 -0.2852 -0.4471
  797MOL0     O 5130   4.669   0.626   5.321 -0.4252  0.5914 -0.5263
  797MOL0     C 5131   4.704   0.634   5.178 -0.4271  1.0826 -0.0893
  797MOL0     C 5132   4.843   0.658   5.166 -0.0595  0.4026  0.1634
  797MOL0     C 5133   4.940   0.584   5.255 -0.6706  0.7991 -0.5023
  797MOL0     C 5134   5.089   0.631   5.234  0.1252 -0.5112 -0.6069
  797MOL0     C 5135   5.156   0.629   5.111 -0.5589  0.5629 -0.2090
  797MOL0     C 5136   5.212   0.618   5.012 -0.4711  0.1840  0.8564
  797MOL0     C 5137   4.517   0.709   5.481  1.0983  1.0417 -0.9877
  797MOL0     C 5138   4.384   0.731   5.532 -1.0472  0.8204  0.2420
  797MOL0     H 5139   3.966   1.015   5.565  0.4618  1.6238  3.2103
  797MOL0     H 5140   3.729   1.048   5.647 -3.4920 -2.5428 -0.9779
  797MOL0     H 5141   3.503   0.726   5.851 -3.6097 -0.3727  1.7641
  797MOL0     H 5142   3.401   0.866   5.820 -0.0056  1.7732 -0.4597
  797MOL0     H 5143   3.545   0.997   6.002 -1.2333  0.6854 -0.1761
  797MOL0     H 5144   3.608   0.837   6.044  0.8133  0.4228 -0.2978
  797MOL0     H 5145   3.440   0.865   6.205  0.7779 -0.9952 -0.5399
  797MOL0     H 5146   3.366   0.768   6.073 -0.2275 -1.1457  1.6572
  797MOL0     H 5147   3.337   1.067   6.099  0.5200  0.1811 -0.1896
  797MOL0     H 5148   3.259   0.958   5.988 -0.2075  1.4373  0.1993
  797MOL0     H 5149   3.216   0.916   6.292 -0.4097 -0.6168 -0.2757
  797MOL0     H 5150   3.113   0.879   6.142 -0.0593  1.6187 -4.0330
  797MOL0     H 5151   3.099   1.134   6.099  1.6397  1.0308  0.7002
  797MOL0     H 5152   3.194   1.160   6.242  1.5325 -1.0729 -1.2614
  797MOL0     H 5153   2.936   0.991   6.220 -1.6729  0.3638  2.4586
  797MOL0     H 5154   2.991   1.032   6.371  2.3340  0.4420 -0.0506
  797MOL0     H 5155   2.772   1.133   6.260  0.4388 -1.3737 -1.6211
  797MOL0     H 5156   2.873   1.238   6.165  2.0061 -1.7145 -0.7085
  797MOL0     H 5157   2.890   1.162   6.554  0.4997 -1.3201 -2.7839
  797MOL0     H 5158   2.877   1.385   6.756 -1.3934  0.6812 -2.4117
  797MOL0     H 5159   3.021   1.472   6.741 -0.3839 -1.1848  1.2938
  797MOL0     H 5160   3.160   1.257   6.701  0.4003 -1.5314  0.8003
  797MOL0     H 5161   3.002   1.180   6.743 -4.3936  1.8754  2.8201
  797MOL0     H 5162   3.136   1.173   6.934  0.0878 -1.3010 -3.0537
  797MOL0     H 5163   3.211   1.321   6.911  2.1209 -3.9941 -2.3572
  797MOL0     H 5164   2.920   1.331   6.955 -1.1344  1.8899  2.2210
  797MOL0     H 5165   3.037   1.455   6.994  0.1822  0.3130 -1.2241
  797MOL0     H 5166   2.976   1.212   7.384  2.1134 -1.6097 -1.2306
  797MOL0     H 5167   2.842   1.023   7.456 -2.2449 -1.8745  0.0179
  797MOL0     H 5168   2.467   0.722   7.334  2.2004 -1.1768 -1.1796
  797MOL0     H 5169   2.310   0.596   7.467  0.6915 -0.7245  1.3907
  797MOL0     H 5170   2.235   0.442   7.590  1.5964 -4.3855 -0.4881
  797MOL0     H 5171   2.201   0.522   7.742  0.7250 -0.2334  0.9690
  797MOL0     H 5172   2.315   0.240   7.727 -0.6611 -0.7691 -0.0585
  797MOL0     H 5173   2.145   0.271   7.706 -1.7749  3.3360  0.2060
  797MOL0     H 5174   2.320   0.346   7.950 -0.6090  0.8290  0.2076
  797MOL0     H 5175   2.220   0.202   7.943  0.2294  0.0082  2.4413
  797MOL0     H 5176   2.113   0.481   7.965 -0.5012  0.6802  0.2969
  797MOL0     H 5177   2.022   0.339   7.898  1.7852 -0.3549 -2.0102
  797MOL0     H 5178   2.144   0.354   8.181 -3.4616  1.8259  3.1951
  797MOL0     H 5179   2.068   0.222   8.094  0.5962  0.2512  1.1674
  797MOL0     H 5180   1.856   0.308   8.116 -1.1836 -0.4629  1.3232
  797MOL0     H 5181   1.919   0.480   8.149  0.7589 -0.0074 -0.8102
  797MOL0     H 5182   1.924   0.232   8.328 -0.3525 -0.0695 -0.2134
  797MOL0     H 5183   2.000   0.396   8.368  0.1799  1.7674 -3.1045
  797MOL0     H 5184   1.801   0.497   8.372 -3.3888  0.3045 -1.4220
  797MOL0     H 5185   1.795   0.359   8.480  0.7907 -0.0600  0.2499
  797MOL0     H 5186   2.619   0.522   7.754  2.0734 -0.6776 -1.4481
  797MOL0     H 5187   2.774   0.660   7.624  0.4781 -2.4946  0.1023
  797MOL0     H 5188   2.779   0.917   7.037 -0.3711  1.6834 -1.2896
  797MOL0     H 5189   2.916   1.108   6.963 -1.7699  1.2185 -0.2138
  797MOL0     H 5190   3.744   0.674   5.849  1.0070 -1.7084 -2.6533
  797MOL0     H 5191   3.952   0.621   5.742 -2.2434 -1.3603  2.2230
  797MOL0     H 5192   4.217   0.608   5.264 -0.4775 -0.5213  2.4201
  797MOL0     H 5193   4.448   0.550   5.185 -0.6728 -0.0158  0.2769
  797MOL0     H 5194   4.641   0.708   5.128  2.9679  4.2429 -0.0571
  797MOL0     H 5195   4.697   0.534   5.132 -0.3924  0.4536  1.2332
  797MOL0     H 5196   4.869   0.631   5.064 -0.8686  0.0282  0.0533
  797MOL0     H 5197   4.866   0.764   5.185  0.4953  0.3745 -0.3237
  797MOL0     H 5198   4.929   0.483   5.215  3.1246  0.1541 -0.3629
  797MOL0     H 5199   4.910   0.592   5.360 -1.1465  0.1417 -0.5814
  797MOL0     H 5200   5.094   0.729   5.280  1.0203 -0.2453 -1.2331
  797MOL0     H 5201   5.142   0.556   5.293  0.8421  1.9219  2.0151
  797MOL0     H 5202   5.265   0.603   4.920 -0.6583  0.5250  0.6917
  797MOL0     H 5203   4.606   0.743   5.533  0.5734  1.2941 -0.2359
  797MOL0     H 5204   4.357   0.790   5.619  0.4592  1.1303  0.5376
  798MOL0     O 5205   7.956   1.692  10.946  0.0440 -1.0859 -0.5041
  798MOL0     C 5206   7.873   1.723  11.031  0.6474 -0.1183 -0.8172
  798MOL0     O 5207   7.736   1.738  11.008 -1.6471 -0.1323 -0.2831
  798MOL0     C 5208   7.672   1.695  10.899  0.7232 -0.0271  1.2643
  798MOL0     C 5209   7.569   1.782  10.848 -0.5050  0.1331 -0.9881
  798MOL0     C 5210   7.506   1.749  10.730  0.0696  0.6904 -0.5726
  798MOL0     C 5211   7.541   1.629  10.666  0.5494  0.2914  1.3391
  798MOL0     O 5212   7.503   1.583  10.536  0.3919 -0.0576 -0.3759
  798MOL0     C 5213   7.386   1.625  10.460  0.0355  0.3874  0.7326
  798MOL0     C 5214   7.321   1.519  10.379  1.4042  0.0557 -0.5997
  798MOL0     C 5215   7.207   1.573  10.289 -0.9127 -0.7771 -0.3972
  798MOL0     C 5216   7.136   1.458  10.218  0.0040  0.0701  0.2261
  798MOL0     C 5217   7.013   1.496  10.125 -0.0124  0.1740  0.6532
  798MOL0     C 5218   6.904   1.575  10.210  0.4890  0.1323 -0.7138
  798MOL0     C 5219   6.771   1.561  10.130 -0.2758 -0.2247  0.3872
  798MOL0     C 5220   6.685   1.434  10.151  0.9225  0.6294 -0.1680
  798MOL0     N 5221   6.573   1.431  10.049  0.5489 -0.0385  0.2663
  798MOL0     C 5222   6.466   1.511  10.048  0.5131  0.7265 -0.3141
  798MOL0     C 5223   6.398   1.472   9.936  0.0303  0.9966  0.8040
  798MOL0     C 5224   6.261   1.508   9.881 -0.8636  0.4762 -0.2243
  798MOL0     C 5225   6.176   1.382   9.901  0.0619  0.9628 -0.3702
  798MOL0     C 5226   6.028   1.402   9.857 -0.2670 -0.4384 -0.2635
  798MOL0     C 5227   5.933   1.466   9.965 -0.2663 -0.1776 -0.7538
  798MOL0     O 5228   5.808   1.413   9.941  0.7029  0.1352  0.3275
  798MOL0     C 5229   5.694   1.485   9.974 -0.7072 -0.6806  0.2094
  798MOL0     C 5230   5.694   1.605  10.046 -0.8459 -0.0514 -0.3292
  798MOL0     C 5231   5.587   1.663  10.081  0.7900  0.7246  0.7389
  798MOL0     C 5232   5.459   1.607  10.049 -0.1010  0.3797  0.0835
  798MOL0     C 5233   5.336   1.690  10.060 -0.7352  0.4048  0.1269
  798MOL0     O 5234   5.358   1.821  10.078 -0.1377 -0.6069  0.0227
  798MOL0     C 5235   5.246   1.907  10.067  0.2438 -0.4397  0.4187
  798MOL0     C 5236   5.166   1.953  10.173  0.5956 -1.0361 -0.5611
  798MOL0     C 5237   5.052   2.034  10.149  0.4657  0.6767  0.3144
  798MOL0     C 5238   5.024   2.066  10.018  0.2209 -0.6440 -0.1182
  798MOL0     O 5239   4.913   2.145  10.001 -0.2005  0.0271 -0.0792
  798MOL0     C 5240   4.876   2.200   9.877  0.3059 -0.0771  0.5931
  798MOL0     C 5241   4.743   2.259   9.892  0.2300 -0.1522  0.0947
  798MOL0     C 5242   4.641   2.138   9.897 -0.4701 -0.5402 -0.6262
  798MOL0     C 5243   4.494   2.177   9.898  0.0848  0.0193 -0.5260
  798MOL0     C 5244   4.457   2.265  10.018  0.1491 -0.0398 -1.0427
  798MOL0     C 5245   4.303   2.277  10.035  0.1562 -0.1894  0.5114
  798MOL0     C 5246   4.272   2.361  10.161 -0.5505 -1.0881 -0.6739
  798MOL0     C 5247   4.132   2.340  10.206 -0.8577 -0.9036  0.0673
  798MOL0    Cl 5248   4.029   2.409  10.071  0.2428  0.0829 -0.1650
  798MOL0     C 5249   5.107   2.027   9.910  0.6813 -1.4375  0.2672
  798MOL0     C 5250   5.212   1.945   9.934  0.0769 -0.4394 -1.0402
  798MOL0     O 5251   5.228   1.641  10.046  0.1137 -1.0161 -0.6440
  798MOL0     C 5252   5.452   1.487   9.973  0.8539 -0.1014 -0.8159
  798MOL0     C 5253   5.573   1.433   9.944  0.8994  0.8340 -0.2615
  798MOL0     N 5254   6.459   1.367   9.878  0.0463 -1.1436  0.5291
  798MOL0     N 5255   6.568   1.352   9.948  0.2302  0.0705  0.3478
  798MOL0     C 5256   7.638   1.545  10.720 -0.5313 -0.2346  1.0212
  798MOL0     C 5257   7.712   1.581  10.830 -0.6757 -1.5978  0.2373
  798MOL0     C 5258   7.917   1.763  11.170  0.8166 -0.4277  0.5546
  798MOL0     C 5259   8.049   1.743  11.218  0.2470  0.8161 -0.4922
  798MOL0     C 5260   8.075   1.765  11.359  1.1099 -0.5866 -0.9331
  798MOL0     C 5261   7.980   1.799  11.445  0.4108  0.3404 -0.1330
  798MOL0     O 5262   8.004   1.787  11.579  0.3668  0.5050  0.2168
  798MOL0     C 5263   7.932   1.869  11.669  1.4775  0.2102 -1.6614
  798MOL0     C 5264   8.023   1.879  11.793  0.3024 -0.7189  0.0147
  798MOL0     C 5265   7.969   1.982  11.892 -0.3547 -0.1769 -1.0288
  798MOL0     C 5266   7.841   1.957  11.959 -0.0442 -0.1764 -0.4372
  798MOL0     C 5267   7.843   2.064  12.078 -0.3803  0.8264  1.3966
  798MOL0     C 5268   7.822   2.142  12.168 -0.5242  0.0786  0.5033
  798MOL0     C 5269   7.850   1.827  11.398 -0.5078 -0.1802  0.3091
  798MOL0     C 5270   7.820   1.808  11.263  0.9085 -0.0794  0.8100
  798MOL0     H 5271   7.554   1.876  10.900 -0.6085 -0.1394 -0.5206
  798MOL0     H 5272   7.439   1.817  10.679  2.1986  0.5174 -3.8916
  798MOL0     H 5273   7.421   1.693  10.382  2.3380 -3.7450 -2.2313
  798MOL0     H 5274   7.313   1.664  10.532 -1.2508 -0.7713  0.1074
  798MOL0     H 5275   7.272   1.455  10.453  0.8693  1.2578  0.1070
  798MOL0     H 5276   7.391   1.465  10.315  0.2182 -0.1297 -1.7825
  798MOL0     H 5277   7.253   1.649  10.225  0.9232 -1.0309  0.5303
  798MOL0     H 5278   7.138   1.629  10.352 -1.1310 -1.2550 -0.2033
  798MOL0     H 5279   7.196   1.407  10.142 -0.6046 -0.5722  0.1660
  798MOL0     H 5280   7.107   1.378  10.287  0.2749  0.3224  0.6375
  798MOL0     H 5281   6.971   1.415  10.064 -1.0039  0.1059  1.3956
  798MOL0     H 5282   7.054   1.568  10.053 -2.0846 -2.0521 -3.1244
  798MOL0     H 5283   6.931   1.680  10.223 -0.8487  0.4308 -0.1821
  798MOL0     H 5284   6.892   1.532  10.310  0.6301 -5.1566 -2.6583
  798MOL0     H 5285   6.717   1.654  10.151  2.1689  1.6914 -1.2330
  798MOL0     H 5286   6.787   1.570  10.022  2.9923  2.1755  0.9095
  798MOL0     H 5287   6.652   1.427  10.254  1.5649 -4.1189 -0.0206
  798MOL0     H 5288   6.738   1.338  10.154 -0.3887 -0.0986  0.3931
  798MOL0     H 5289   6.451   1.578  10.133  3.1214  0.6011  0.3281
  798MOL0     H 5290   6.266   1.530   9.774 -0.0914  0.2156 -0.2452
  798MOL0     H 5291   6.212   1.590   9.935 -3.9212 -1.1466 -0.3164
  798MOL0     H 5292   6.187   1.343  10.003 -4.1345 -0.7151 -0.3811
  798MOL0     H 5293   6.221   1.296   9.851 -0.8853 -1.1700  2.1976
  798MOL0     H 5294   6.029   1.461   9.765 -0.2617  1.3253  0.8160
  798MOL0     H 5295   5.980   1.308   9.826  1.9840 -1.4293 -0.9138
  798MOL0     H 5296   5.944   1.574   9.961 -1.0768  0.0638  1.7726
  798MOL0     H 5297   5.965   1.435  10.066  2.4189 -0.0541 -1.4814
  798MOL0     H 5298   5.787   1.652  10.076 -1.0954  0.2858 -0.0873
  798MOL0     H 5299   5.612   1.755  10.133  2.5814  0.3943  0.5480
  798MOL0     H 5300   5.182   1.913  10.273 -0.8520  2.4116  1.2164
  798MOL0     H 5301   4.974   2.063  10.218 -1.0626  2.3748 -1.9469
  798MOL0     H 5302   4.872   2.129   9.794 -1.5191  1.2465 -0.5301
  798MOL0     H 5303   4.953   2.274   9.852  0.1833 -0.9196 -2.7407
  798MOL0     H 5304   4.708   2.331   9.818 -2.4778 -1.1554  0.2963
  798MOL0     H 5305   4.739   2.303   9.991  0.9363  0.9950 -0.3704
  798MOL0     H 5306   4.667   2.091   9.993  2.6772 -0.4291 -1.3264
  798MOL0     H 5307   4.664   2.080   9.807 -0.0355  1.8349 -2.1417
  798MOL0     H 5308   4.482   2.247   9.815  2.0107  1.8251  0.5970
  798MOL0     H 5309   4.429   2.090   9.896  0.4517 -0.2807  0.1774
  798MOL0     H 5310   4.502   2.364  10.006 -0.3953  0.3119 -0.2973
  798MOL0     H 5311   4.499   2.223  10.109 -1.4316 -0.9206 -0.6848
  798MOL0     H 5312   4.280   2.171  10.053 -0.0564 -0.7379 -2.5342
  798MOL0     H 5313   4.257   2.310   9.942  2.3704  0.0785 -0.5523
  798MOL0     H 5314   4.342   2.333  10.240  1.0828 -1.3172 -2.1240
  798MOL0     H 5315   4.287   2.463  10.124  1.8835 -1.5448 -1.1339
  798MOL0     H 5316   4.103   2.399  10.294  2.1453  1.7725 -0.5665
  798MOL0     H 5317   4.104   2.242  10.245  0.1049  0.2419  4.1492
  798MOL0     H 5318   5.070   2.036   9.809 -1.8120  1.4519  1.2865
  798MOL0     H 5319   5.262   1.908   9.845 -2.2864  1.6828 -3.4357
  798MOL0     H 5320   5.356   1.450   9.937 -1.1929  2.4769  1.5033
  798MOL0     H 5321   5.561   1.339   9.890 -0.3557  0.6310  0.3322
  798MOL0     H 5322   7.659   1.450  10.670 -4.2233 -2.0615  2.6176
  798MOL0     H 5323   7.802   1.523  10.848  1.2630 -0.1632 -3.7235
  798MOL0     H 5324   8.119   1.700  11.147 -1.7803 -2.5209 -0.6817
  798MOL0     H 5325   8.174   1.762  11.402  0.2641  4.9250  2.4520
  798MOL0     H 5326   7.829   1.838  11.690  1.9673 -0.3278  0.1485
  798MOL0     H 5327   7.925   1.970  11.627 -0.5542  1.1150  0.5757
  798MOL0     H 5328   8.026   1.781  11.842  2.7150 -1.9950 -2.4249
  798MOL0     H 5329   8.124   1.895  11.754  0.2006  3.1481  0.9675
  798MOL0     H 5330   7.974   2.078  11.839  2.3743 -1.3155 -3.1311
  798MOL0     H 5331   8.050   1.996  11.964 -1.3781  0.5317  0.0277
  798MOL0     H 5332   7.754   1.969  11.893 -1.4838 -1.7843  1.0531
  798MOL0     H 5333   7.833   1.853  11.992 -0.4746  0.2502  0.8637
  798MOL0     H 5334   7.778   2.208  12.240 -3.5852 -2.3748  1.0618
  798MOL0     H 5335   7.763   1.842  11.461 -0.1023 -1.9524  1.3379
  798MOL0     H 5336   7.718   1.814  11.226  0.7112 -1.6338  1.0600
  799MOL0     O 5337   9.066   2.563   8.281  0.0658  0.2771 -0.7753
  799MOL0     C 5338   8.979   2.498   8.219 -0.7481 -0.2242 -0.2559
  799MOL0     O 5339   8.953   2.514   8.091 -0.2265  0.5245 -0.5482
  799MOL0     C 5340   8.983   2.621   8.007  1.0989 -0.1878 -0.5574
  799MOL0     C 5341   8.992   2.599   7.871  0.2660 -0.2321 -0.7591
  799MOL0     C 5342   9.027   2.700   7.783 -0.6307  0.5590  0.3819
  799MOL0     C 5343   9.053   2.826   7.828 -0.1852 -0.9017 -0.2568
  799MOL0     O 5344   9.081   2.928   7.740  0.2939 -0.5787 -0.4338
  799MOL0     C 5345   9.147   3.046   7.793  0.3221  0.9525  0.7469
  799MOL0     C 5346   9.200   3.135   7.681 -0.5522  0.2387 -0.9176
  799MOL0     C 5347   9.287   3.250   7.742  0.2269  0.4873  0.2169
  799MOL0     C 5348   9.292   3.377   7.662  0.1814 -0.0175  0.0528
  799MOL0     C 5349   9.203   3.480   7.730 -0.2603 -0.5586  0.7056
  799MOL0     C 5350   9.235   3.627   7.684  0.5620  1.4165  0.3937
  799MOL0     C 5351   9.233   3.642   7.534 -0.4642 -0.0568  0.0262
  799MOL0     C 5352   9.226   3.782   7.487  0.6204 -0.2759  0.6061
  799MOL0     N 5353   9.212   3.822   7.353  0.4781  0.4844  1.0963
  799MOL0     C 5354   9.313   3.878   7.277  0.4399  0.4074  0.8710
  799MOL0     C 5355   9.263   3.885   7.155  1.7697 -0.5004 -0.3210
  799MOL0     C 5356   9.329   3.949   7.034  0.2651  1.2044 -0.4982
  799MOL0     C 5357   9.329   4.098   7.008 -0.2823 -0.0079  1.3270
  799MOL0     C 5358   9.185   4.158   7.022 -0.0185 -0.0122 -0.6960
  799MOL0     C 5359   9.175   4.308   6.988 -1.7894  0.2382 -1.0117
  799MOL0     O 5360   9.038   4.360   7.000  0.3779  0.2724 -0.2433
  799MOL0     C 5361   8.997   4.469   6.930 -0.8495 -0.5783 -0.1603
  799MOL0     C 5362   9.033   4.485   6.798 -0.1935 -0.7106  0.3737
  799MOL0     C 5363   8.984   4.588   6.724  0.3805 -0.1793 -1.2212
  799MOL0     C 5364   8.916   4.694   6.788 -0.0538  0.0807 -0.0593
  799MOL0     C 5365   8.868   4.814   6.702 -0.1293 -0.0088  0.2727
  799MOL0     O 5366   8.814   4.916   6.776  0.0524  1.1573 -0.2573
  799MOL0     C 5367   8.735   5.024   6.727 -0.1345  0.1842 -0.3706
  799MOL0     C 5368   8.683   5.103   6.832  0.1635 -0.2584 -0.2062
  799MOL0     C 5369   8.596   5.209   6.796 -0.7913  0.7356  0.5487
  799MOL0     C 5370   8.561   5.240   6.663 -0.7444  0.8415 -0.8292
  799MOL0     O 5371   8.480   5.340   6.631  0.3866  0.3983 -0.3233
  799MOL0     C 5372   8.371   5.376   6.718  0.4044  1.0906 -0.7717
  799MOL0     C 5373   8.246   5.446   6.648  0.7883  0.5875 -0.1935
  799MOL0     C 5374   8.160   5.531   6.757  0.3858  0.0961  0.8402
  799MOL0     C 5375   8.050   5.622   6.702  0.2100 -0.5727  0.6613
  799MOL0     C 5376   7.921   5.539   6.682 -0.3583 -0.2759  0.7941
  799MOL0     C 5377   7.835   5.604   6.573  0.1988  0.3038 -0.7048
  799MOL0     C 5378   7.810   5.758   6.577  0.8084 -0.2501  0.1043
  799MOL0     C 5379   7.748   5.811   6.699  0.1822 -0.3315 -0.2637
  799MOL0    Cl 5380   7.776   6.001   6.693  0.1603 -0.1057 -0.1009
  799MOL0     C 5381   8.613   5.166   6.560 -0.5388  0.5820 -0.2363
  799MOL0     C 5382   8.696   5.051   6.593 -0.3357 -0.6442  0.1458
  799MOL0     O 5383   8.873   4.799   6.578  0.6068 -0.2956 -0.8961
  799MOL0     C 5384   8.877   4.675   6.923  0.7055 -1.8136  0.1711
  799MOL0     C 5385   8.910   4.564   6.992 -0.7554 -0.0445 -0.7429
  799MOL0     N 5386   9.129   3.849   7.159  0.2269  0.1037 -0.1418
  799MOL0     N 5387   9.104   3.788   7.272  0.3985  0.3370 -0.5966
  799MOL0     C 5388   9.036   2.848   7.962  0.2536 -0.1604 -0.9265
  799MOL0     C 5389   8.992   2.750   8.052 -0.5763 -0.0827 -0.2277
  799MOL0     C 5390   8.900   2.396   8.290 -0.5690  0.2958 -0.5729
  799MOL0     C 5391   8.956   2.332   8.403 -0.1206 -0.0949 -0.6858
  799MOL0     C 5392   8.895   2.215   8.461 -0.0420 -0.1746  0.3211
  799MOL0     C 5393   8.771   2.180   8.423  1.6658 -0.6767 -0.0464
  799MOL0     O 5394   8.716   2.071   8.481 -0.3477  0.2215 -0.7235
  799MOL0     C 5395   8.618   2.108   8.581 -0.4054 -0.3694 -0.3925
  799MOL0     C 5396   8.528   2.000   8.638 -0.3757 -0.7360  0.0620
  799MOL0     C 5397   8.454   1.919   8.524 -0.5392 -0.0655 -0.0904
  799MOL0     C 5398   8.530   1.807   8.454  0.3220  0.1060 -0.0547
  799MOL0     C 5399   8.577   1.716   8.548  0.4784  0.0086 -1.5864
  799MOL0     C 5400   8.627   1.665   8.648  0.4458 -1.0831  0.6981
  799MOL0     C 5401   8.706   2.257   8.323 -0.8518  0.2643 -0.0225
  799MOL0     C 5402   8.772   2.370   8.261  0.2151  0.3032  0.2648
  799MOL0     H 5403   8.965   2.500   7.836 -1.2485 -0.0451 -0.2063
  799MOL0     H 5404   9.032   2.678   7.676  3.0438 -1.5241  0.8001
  799MOL0     H 5405   9.232   3.013   7.855  1.5089 -1.2724 -1.8618
  799MOL0     H 5406   9.076   3.105   7.852  0.0662  2.0485 -0.6267
  799MOL0     H 5407   9.112   3.185   7.640 -2.8003 -2.2002  0.5832
  799MOL0     H 5408   9.258   3.076   7.609  0.3687 -0.2396  0.1829
  799MOL0     H 5409   9.386   3.204   7.751 -1.1106 -2.5999  0.5381
  799MOL0     H 5410   9.255   3.269   7.845 -0.8251 -0.0563  0.0059
  799MOL0     H 5411   9.394   3.416   7.668 -0.7366  2.3687  1.7187
  799MOL0     H 5412   9.254   3.368   7.560  1.0583  3.4423 -0.7150
  799MOL0     H 5413   9.209   3.468   7.839 -0.1439  0.3031  0.7989
  799MOL0     H 5414   9.101   3.451   7.705  0.3779 -1.0716 -1.4633
  799MOL0     H 5415   9.332   3.662   7.720  2.3108  1.9128 -4.0858
  799MOL0     H 5416   9.157   3.690   7.726 -0.2572  0.3806  0.4632
  799MOL0     H 5417   9.321   3.591   7.493 -1.4155 -1.6995 -0.0624
  799MOL0     H 5418   9.146   3.598   7.484 -1.2481  1.5309 -0.0981
  799MOL0     H 5419   9.315   3.834   7.522  0.4892  0.7297 -0.5112
  799MOL0     H 5420   9.145   3.821   7.549 -0.5885 -0.2633 -0.9154
  799MOL0     H 5421   9.415   3.906   7.302  2.1099 -2.7130 -1.7373
  799MOL0     H 5422   9.284   3.900   6.947 -0.7114  1.5897 -0.2127
  799MOL0     H 5423   9.436   3.922   7.036  0.1095  0.5890  0.8965
  799MOL0     H 5424   9.368   4.123   6.909 -2.1747  4.0839  1.3976
  799MOL0     H 5425   9.397   4.150   7.077 -0.5366  0.1275  1.4792
  799MOL0     H 5426   9.119   4.098   6.958  0.9694  0.0245 -1.7843
  799MOL0     H 5427   9.159   4.149   7.128 -0.5865  1.3115 -0.7014
  799MOL0     H 5428   9.228   4.322   6.894  0.7590  2.2375  0.5543
  799MOL0     H 5429   9.246   4.353   7.059 -1.6183  1.1384 -1.7327
  799MOL0     H 5430   9.075   4.392   6.763 -0.6194 -0.8800  0.3043
  799MOL0     H 5431   9.000   4.585   6.617 -3.0463 -2.1299 -1.8208
  799MOL0     H 5432   8.712   5.091   6.936  2.3357 -0.0180 -0.7341
  799MOL0     H 5433   8.557   5.273   6.875 -1.7814  0.5775  0.1995
  799MOL0     H 5434   8.405   5.439   6.800  0.8457  1.6809 -1.3949
  799MOL0     H 5435   8.333   5.282   6.760  1.1395 -0.3664 -3.1271
  799MOL0     H 5436   8.193   5.360   6.606 -0.1870  1.3635 -0.5782
  799MOL0     H 5437   8.273   5.511   6.565 -1.9943  0.4192 -1.3494
  799MOL0     H 5438   8.231   5.586   6.819  4.2484 -4.0602  0.6402
  799MOL0     H 5439   8.126   5.454   6.827  1.6848  0.3075  1.7466
  799MOL0     H 5440   8.022   5.693   6.780  0.3892 -0.3883  0.5591
  799MOL0     H 5441   8.092   5.674   6.615 -2.1996  1.5526  0.6501
  799MOL0     H 5442   7.857   5.531   6.770 -2.0028 -2.3575 -0.4882
  799MOL0     H 5443   7.942   5.440   6.640 -0.4097 -0.9652  2.3379
  799MOL0     H 5444   7.736   5.558   6.580  0.0429  0.7140 -0.1083
  799MOL0     H 5445   7.869   5.593   6.470  1.0423  4.3347 -1.0498
  799MOL0     H 5446   7.897   5.816   6.546  0.7699  0.5834  1.4642
  799MOL0     H 5447   7.740   5.772   6.495  2.7081 -3.2262 -2.2318
  799MOL0     H 5448   7.797   5.779   6.792  1.5776  1.1245 -0.4547
  799MOL0     H 5449   7.644   5.781   6.714  0.6248 -0.9674  1.9578
  799MOL0     H 5450   8.585   5.186   6.457  0.8056 -2.7290 -1.4000
  799MOL0     H 5451   8.739   4.995   6.510 -1.6552 -0.6660 -0.5528
  799MOL0     H 5452   8.810   4.745   6.971 -1.4899 -3.8431  0.2456
  799MOL0     H 5453   8.888   4.559   7.098 -1.1658  1.8255 -0.7110
  799MOL0     H 5454   9.054   2.946   8.005  0.0008 -0.5428  0.0846
  799MOL0     H 5455   8.992   2.774   8.157  2.2221  0.4574 -0.2929
  799MOL0     H 5456   9.058   2.351   8.435 -0.0441 -1.5090  0.0200
  799MOL0     H 5457   8.925   2.161   8.550 -0.7706  0.9092  1.2596
  799MOL0     H 5458   8.554   2.183   8.534 -1.2229  1.2943  3.0397
  799MOL0     H 5459   8.670   2.168   8.656  1.4985  1.4006 -2.9815
  799MOL0     H 5460   8.587   1.934   8.702 -0.0927 -0.2899  0.2573
  799MOL0     H 5461   8.448   2.053   8.692  0.3697 -0.7052  1.1563
  799MOL0     H 5462   8.416   1.984   8.446 -1.5900 -3.1330 -2.3346
  799MOL0     H 5463   8.363   1.879   8.569 -0.6757 -0.1432 -0.4351
  799MOL0     H 5464   8.483   1.757   8.368  0.7554 -0.1943 -0.1197
  799MOL0     H 5465   8.615   1.854   8.404  2.0977 -1.7912  1.0402
  799MOL0     H 5466   8.656   1.593   8.722 -2.8668 -2.1050  1.1829
  799MOL0     H 5467   8.606   2.221   8.300 -0.4830 -1.9864  1.6184
  799MOL0     H 5468   8.722   2.424   8.181 -0.1897  0.7090  0.7888
  800MOL0     O 5469  10.780   9.546   4.816 -0.3452  0.1289  0.0799
  800MOL0     C 5470  10.838   9.556   4.712  0.1652  1.2171  0.2257
  800MOL0     O 5471  10.928   9.655   4.677 -0.6083  0.5049  0.7287
  800MOL0     C 5472  10.941   9.763   4.763  0.3760 -0.0964  0.9205
  800MOL0     C 5473  10.863   9.875   4.750 -0.1699  0.0558  0.3461
  800MOL0     C 5474  10.873   9.983   4.838  0.3080 -0.0909  0.4086
  800MOL0     C 5475  10.971   9.983   4.942 -0.6426  0.2244  1.2965
  800MOL0     O 5476  10.968  10.085   5.033 -0.2302 -0.1659 -0.1584
  800MOL0     C 5477  10.851  10.089   5.123 -0.1233 -0.1053 -0.1523
  800MOL0     C 5478  10.791  10.224   5.155 -0.6908  0.1274  0.1372
  800MOL0     C 5479  10.889  10.320   5.225  0.5970 -0.8236 -1.2366
  800MOL0     C 5480  10.837  10.460   5.249  0.4237  0.3030  0.1175
  800MOL0     C 5481  10.844  10.480   5.406 -0.4964 -0.2684 -0.3363
  800MOL0     C 5482  10.831  10.627   5.446 -0.1028 -0.0818  0.1283
  800MOL0     C 5483  10.959  10.713   5.408  0.2325 -0.6061  0.5921
  800MOL0     C 5484  10.944  10.868   5.420 -0.5829 -0.3496 -0.8263
  800MOL0     N 5485  11.064  10.935   5.485  0.5879  0.4112  0.3939
  800MOL0     C 5486  11.173  10.960   5.414  0.1701 -0.2709  0.6334
  800MOL0     C 5487  11.258  11.033   5.489  0.1610 -0.7759  0.2601
  800MOL0     C 5488  11.395  11.081   5.455 -0.0149  0.5255 -0.0276
  800MOL0     C 5489  11.480  10.971   5.513  0.4021 -0.7787 -0.4320
  800MOL0     C 5490  11.629  10.985   5.490  0.2917 -0.0773 -0.2334
  800MOL0     C 5491  11.713  10.881   5.569 -0.9563  0.8327  0.6374
  800MOL0     O 5492  11.755  10.938   5.695 -0.8883  0.4437 -0.7345
  800MOL0     C 5493  11.880  10.996   5.723  1.0355  0.8426 -0.3772
  800MOL0     C 5494  11.915  11.031   5.853  0.1336 -0.5966  0.4514
  800MOL0     C 5495  12.037  11.093   5.873 -0.9239  1.2493  0.0346
  800MOL0     C 5496  12.132  11.119   5.769  0.1686 -0.6510  0.6850
  800MOL0     C 5497  12.259  11.185   5.797  0.1644  0.2893  0.2126
  800MOL0     O 5498  12.256  11.262   5.906 -0.5279 -0.2139 -0.5012
  800MOL0     C 5499  12.343  11.366   5.948  0.4143  0.1171 -1.1460
  800MOL0     C 5500  12.382  11.466   5.861  0.8673  0.0232 -0.6735
  800MOL0     C 5501  12.448  11.576   5.902 -0.4535 -0.0016 -0.6755
  800MOL0     C 5502  12.487  11.596   6.036  0.3383 -0.4368 -0.5603
  800MOL0     O 5503  12.534  11.717   6.078 -0.4045 -0.5308  0.1662
  800MOL0     C 5504  12.587  11.820   5.990 -0.5791 -0.1004 -0.2049
  800MOL0     C 5505  12.738  11.827   5.976  0.3805  0.2083 -0.7038
  800MOL0     C 5506  12.803  11.723   5.871  0.2281 -0.1069 -0.8518
  800MOL0     C 5507  12.951  11.715   5.906 -0.4764  0.8289 -0.3184
  800MOL0     C 5508  13.015  11.616   5.813 -0.6224 -0.3244  0.7217
  800MOL0     C 5509  13.168  11.593   5.821 -0.1060 -0.3695 -0.4824
  800MOL0     C 5510  13.209  11.464   5.738  0.9717 -0.6159 -0.4015
  800MOL0     C 5511  13.353  11.447   5.732 -0.2326 -0.5788 -0.2000
  800MOL0    Cl 5512  13.387  11.572   5.608  0.1003  0.0021 -0.1783
  800MOL0     C 5513  12.446  11.502   6.125  0.0965  0.5509 -0.2131
  800MOL0     C 5514  12.372  11.392   6.081  0.5043 -0.0617 -0.4437
  800MOL0     O 5515  12.344  11.178   5.706 -0.0494  0.1145 -0.1671
  800MOL0     C 5516  12.095  11.082   5.636  0.1363 -0.2870 -0.3695
  800MOL0     C 5517  11.969  11.023   5.613 -0.7632 -0.1598  0.8145
  800MOL0     N 5518  11.192  11.061   5.606  0.5495  0.0618 -0.6690
  800MOL0     N 5519  11.079  10.999   5.612 -0.3202 -0.4047 -0.7563
  800MOL0     C 5520  11.072   9.882   4.939  0.5853  1.1822 -0.1671
  800MOL0     C 5521  11.053   9.763   4.847 -0.1286 -0.3594 -0.7288
  800MOL0     C 5522  10.804   9.467   4.601 -0.4965 -0.4003 -0.1306
  800MOL0     C 5523  10.889   9.458   4.485 -1.6768  0.0726 -0.8648
  800MOL0     C 5524  10.855   9.371   4.382 -0.2031 -0.6720 -0.3483
  800MOL0     C 5525  10.726   9.304   4.383  0.1469  0.4355 -1.0545
  800MOL0     O 5526  10.688   9.227   4.278  0.1992  0.6229  0.6152
  800MOL0     C 5527  10.752   9.228   4.153 -1.2962  0.3238 -0.8765
  800MOL0     C 5528  10.695   9.125   4.051  0.5988 -0.3465 -0.6045
  800MOL0     C 5529  10.792   9.098   3.939 -0.2988  0.8949  0.0749
  800MOL0     C 5530  10.736   8.997   3.834 -0.0149 -0.6712  0.2222
  800MOL0     C 5531  10.612   9.042   3.768 -0.3497 -0.1568  0.1504
  800MOL0     C 5532  10.513   9.053   3.697  0.1777 -0.4605  0.2792
  800MOL0     C 5533  10.641   9.316   4.497 -0.0837 -0.0459  0.2854
  800MOL0     C 5534  10.677   9.399   4.606  0.1344  1.1100  0.4864
  800MOL0     H 5535  10.776   9.859   4.687 -0.6387 -1.8558  1.3870
  800MOL0     H 5536  10.788  10.050   4.834  0.9135  0.6732  0.0233
  800MOL0     H 5537  10.877  10.050   5.222 -0.2986  3.5050  1.4940
  800MOL0     H 5538  10.770  10.031   5.078 -0.9271 -0.1619  1.2902
  800MOL0     H 5539  10.710  10.211   5.228 -0.6010  2.3526  0.6948
  800MOL0     H 5540  10.754  10.260   5.059  2.4115  0.7017 -0.9396
  800MOL0     H 5541  10.985  10.326   5.174  1.9882 -1.4603  1.1483
  800MOL0     H 5542  10.910  10.281   5.326 -1.6934  0.4520 -0.1905
  800MOL0     H 5543  10.896  10.539   5.202  2.0954 -0.9656 -0.0198
  800MOL0     H 5544  10.736  10.464   5.208  0.7855 -0.9509 -0.9564
  800MOL0     H 5545  10.945  10.452   5.436 -0.8934 -1.3174  0.0779
  800MOL0     H 5546  10.778  10.400   5.442 -0.7498 -2.1419 -4.3540
  800MOL0     H 5547  10.804  10.623   5.552  2.4493  3.3275  1.1077
  800MOL0     H 5548  10.749  10.678   5.395 -2.3756 -2.2543  1.3872
  800MOL0     H 5549  11.044  10.682   5.471  1.7138  1.1980 -0.4044
  800MOL0     H 5550  10.986  10.684   5.306 -2.0599 -0.6267 -0.0631
  800MOL0     H 5551  10.853  10.893   5.475  0.0008  2.1056 -0.8688
  800MOL0     H 5552  10.944  10.922   5.324  2.4013  3.3973  1.0007
  800MOL0     H 5553  11.192  10.925   5.313 -2.5832 -3.0976  0.9227
  800MOL0     H 5554  11.416  11.181   5.494 -2.3115  0.0334  2.7937
  800MOL0     H 5555  11.403  11.085   5.346 -2.2718  0.5098 -0.2278
  800MOL0     H 5556  11.443  10.877   5.471 -1.7429 -0.1655 -0.0218
  800MOL0     H 5557  11.465  10.962   5.621  0.7269  2.3796 -0.0152
  800MOL0     H 5558  11.662  10.983   5.386 -1.2940 -2.6218 -0.7866
  800MOL0     H 5559  11.656  11.085   5.525  3.0638 -0.5178 -0.9425
  800MOL0     H 5560  11.790  10.839   5.503 -3.8089  0.1266 -2.5198
  800MOL0     H 5561  11.646  10.798   5.589 -1.2131  1.0431  0.6490
  800MOL0     H 5562  11.869  11.018   5.950  0.2578  1.7852  0.8798
  800MOL0     H 5563  12.060  11.144   5.966 -1.1106  3.9325 -1.2867
  800MOL0     H 5564  12.347  11.457   5.759  1.9892 -0.2954 -1.0371
  800MOL0     H 5565  12.469  11.641   5.818  2.1767 -2.3710 -2.0582
  800MOL0     H 5566  12.556  11.914   6.037 -0.8304 -0.1211 -0.3338
  800MOL0     H 5567  12.541  11.828   5.892 -0.5017  0.1237 -0.2236
  800MOL0     H 5568  12.774  11.795   6.075  0.2684 -1.6079 -1.2019
  800MOL0     H 5569  12.763  11.929   5.945 -2.5275  1.0156 -0.6897
  800MOL0     H 5570  12.793  11.753   5.767  3.3227  2.9673 -0.4651
  800MOL0     H 5571  12.744  11.631   5.877 -1.5721  1.0720  2.2155
  800MOL0     H 5572  12.991  11.816   5.898 -0.7035  1.3928  3.6969
  800MOL0     H 5573  12.967  11.686   6.011  1.4494 -0.4198 -0.9101
  800MOL0     H 5574  13.010  11.656   5.712  0.8266 -1.2049  0.2577
  800MOL0     H 5575  12.965  11.519   5.825  2.0388 -1.7783  0.9783
  800MOL0     H 5576  13.212  11.593   5.921  1.4584  1.3382 -1.1117
  800MOL0     H 5577  13.216  11.683   5.782 -1.0112  0.3039 -0.0891
  800MOL0     H 5578  13.171  11.380   5.796  0.0138  0.6901  0.9215
  800MOL0     H 5579  13.156  11.461   5.642 -2.9189 -5.0736  1.5017
  800MOL0     H 5580  13.382  11.345   5.704  1.1500 -0.8356  1.9659
  800MOL0     H 5581  13.390  11.471   5.832 -0.0625  0.9528 -0.6065
  800MOL0     H 5582  12.459  11.519   6.231 -1.2382 -5.0706  1.2288
  800MOL0     H 5583  12.330  11.325   6.156  1.7537  0.2967  0.6041
  800MOL0     H 5584  12.180  11.099   5.570  2.4391  1.2132  2.6987
  800MOL0     H 5585  11.930  11.004   5.514 -1.5469  2.2475  0.6002
  800MOL0     H 5586  11.158   9.877   5.005 -0.9643  1.5345  1.9980
  800MOL0     H 5587  11.132   9.690   4.837 -1.1712 -2.1726  2.5776
  800MOL0     H 5588  10.979   9.519   4.498 -2.3620  0.7629  0.9284
  800MOL0     H 5589  10.924   9.348   4.302  0.0223  1.6357 -0.8731
  800MOL0     H 5590  10.852   9.185   4.165 -0.6674  2.0189  0.2887
  800MOL0     H 5591  10.754   9.326   4.106 -0.9818  0.5873 -0.3211
  800MOL0     H 5592  10.664   9.032   4.100  1.8439 -0.0458  0.8127
  800MOL0     H 5593  10.597   9.159   4.016 -0.9017 -3.2009  0.4887
  800MOL0     H 5594  10.878   9.046   3.984 -1.5285 -1.5640 -0.2439
  800MOL0     H 5595  10.825   9.188   3.888  0.3863  0.9085  0.5327
  800MOL0     H 5596  10.812   8.988   3.755  0.1239 -3.4076  0.5705
  800MOL0     H 5597  10.728   8.894   3.871 -1.1801 -1.7165 -2.6324
  800MOL0     H 5598  10.438   9.072   3.623  0.7796 -0.0045 -0.2282
  800MOL0     H 5599  10.552   9.254   4.501  0.1896 -0.9262 -3.5014
  800MOL0     H 5600  10.610   9.401   4.692  1.2268  2.0078  1.3409
  801MOL0     O 5601   7.399   9.069   5.247  0.1288 -0.3987 -1.1937
  801MOL0     C 5602   7.417   8.962   5.313 -0.3026 -0.4671  0.0883
  801MOL0     O 5603   7.323   8.890   5.381 -0.3450 -0.3436 -1.1702
  801MOL0     C 5604   7.191   8.900   5.354  0.1268 -0.0875  0.1862
  801MOL0     C 5605   7.139   8.919   5.230 -0.1560  0.1415  0.6725
  801MOL0     C 5606   7.004   8.940   5.219 -0.5618 -0.1113  0.1091
  801MOL0     C 5607   6.914   8.910   5.316 -0.0985  0.4001 -0.2146
  801MOL0     O 5608   6.784   8.927   5.291  0.6628  0.2954 -0.7033
  801MOL0     C 5609   6.704   9.000   5.395 -0.3118  0.5293 -0.4825
  801MOL0     C 5610   6.556   8.942   5.392 -0.1228 -0.4969 -0.9211
  801MOL0     C 5611   6.475   9.047   5.466 -0.9556  0.9578 -0.5493
  801MOL0     C 5612   6.364   8.974   5.546  0.4912 -0.2135  0.1498
  801MOL0     C 5613   6.288   9.082   5.616  0.0757  0.6023 -0.1815
  801MOL0     C 5614   6.253   9.203   5.527 -0.1577 -0.2141 -0.4496
  801MOL0     C 5615   6.124   9.276   5.577  0.2349  0.1356  0.0878
  801MOL0     C 5616   6.006   9.182   5.567  0.7991  0.5573 -0.8056
  801MOL0     N 5617   5.889   9.247   5.629 -0.0243  0.5553 -0.0941
  801MOL0     C 5618   5.816   9.196   5.732  0.0212 -0.6788 -0.7676
  801MOL0     C 5619   5.714   9.282   5.751  0.2595 -0.1771 -0.0266
  801MOL0     C 5620   5.597   9.270   5.834  0.5316  0.1177  1.3241
  801MOL0     C 5621   5.480   9.339   5.776 -0.2206 -0.3467 -0.0786
  801MOL0     C 5622   5.354   9.356   5.869 -0.0906  0.0686  0.1468
  801MOL0     C 5623   5.258   9.234   5.839  0.0505  0.4836 -0.7947
  801MOL0     O 5624   5.133   9.274   5.895  0.7381 -0.1602 -1.2953
  801MOL0     C 5625   5.035   9.179   5.897 -0.0021  0.9175  0.9330
  801MOL0     C 5626   5.042   9.056   5.826  0.2277  0.2559 -0.2734
  801MOL0     C 5627   4.931   8.970   5.824 -0.1036 -0.0306  0.6324
  801MOL0     C 5628   4.817   8.994   5.905 -0.1561 -0.0341 -0.1460
  801MOL0     C 5629   4.703   8.895   5.911  0.3046  1.2788 -0.2552
  801MOL0     O 5630   4.708   8.774   5.841 -0.5300 -0.5561 -0.0100
  801MOL0     C 5631   4.606   8.689   5.843 -0.1566 -0.3154  0.4381
  801MOL0     C 5632   4.621   8.549   5.843 -0.1864 -0.4542 -0.0033
  801MOL0     C 5633   4.508   8.471   5.844 -0.0399  0.1725 -0.7702
  801MOL0     C 5634   4.377   8.527   5.829 -1.2748 -0.3200  0.0462
  801MOL0     O 5635   4.273   8.438   5.830 -0.5700 -0.1040  0.4892
  801MOL0     C 5636   4.145   8.486   5.877 -1.1076  0.2906 -0.2178
  801MOL0     C 5637   4.068   8.361   5.891  0.8483 -0.3556 -0.0307
  801MOL0     C 5638   3.970   8.384   6.008  0.1698 -0.6118 -0.0264
  801MOL0     C 5639   3.852   8.471   5.968  0.0451  0.0761  0.4444
  801MOL0     C 5640   3.781   8.522   6.092 -0.7618 -0.5196  0.1041
  801MOL0     C 5641   3.700   8.420   6.181  0.1534 -1.7098  0.0266
  801MOL0     C 5642   3.616   8.507   6.290 -0.9893  0.0983 -0.0648
  801MOL0     C 5643   3.613   8.464   6.432  0.9361  0.0943 -0.1567
  801MOL0    Cl 5644   3.781   8.423   6.504 -0.0744 -0.1392 -0.3653
  801MOL0     C 5645   4.368   8.667   5.827 -0.1231 -0.2022  0.5143
  801MOL0     C 5646   4.484   8.739   5.825  0.2481  0.3112  0.7688
  801MOL0     O 5647   4.616   8.920   5.999  0.1333  0.1775  0.1906
  801MOL0     C 5648   4.812   9.109   5.985 -1.0622 -0.2938 -0.0983
  801MOL0     C 5649   4.927   9.197   5.983 -1.0145 -0.0915  0.1761
  801MOL0     N 5650   5.730   9.388   5.661 -0.5400 -0.2670  0.0980
  801MOL0     N 5651   5.828   9.364   5.591 -1.1635 -0.0411  0.5093
  801MOL0     C 5652   6.968   8.888   5.449  0.1519 -0.3488  0.3550
  801MOL0     C 5653   7.103   8.882   5.462 -0.6331  0.5063 -0.4628
  801MOL0     C 5654   7.555   8.942   5.361  1.0164 -0.9219  0.3176
  801MOL0     C 5655   7.654   9.024   5.298  0.1383  0.3880 -1.1578
  801MOL0     C 5656   7.784   9.021   5.348  0.1655 -0.1936 -0.1498
  801MOL0     C 5657   7.819   8.928   5.449 -0.2009  0.1113  0.8854
  801MOL0     O 5658   7.946   8.892   5.477  0.2456  0.8903 -0.0387
  801MOL0     C 5659   8.002   8.802   5.380 -0.5372  0.1995  0.3522
  801MOL0     C 5660   8.153   8.815   5.386  0.1644  1.0399  0.3666
  801MOL0     C 5661   8.235   8.742   5.281  0.1870 -0.0954  1.1746
  801MOL0     C 5662   8.194   8.764   5.134 -1.2010  0.2511  0.1130
  801MOL0     C 5663   8.196   8.902   5.090 -0.3334  0.2739 -0.7760
  801MOL0     C 5664   8.188   9.015   5.056 -0.4622 -0.3572  0.5196
  801MOL0     C 5665   7.725   8.854   5.507  0.2418 -0.3832 -0.5359
  801MOL0     C 5666   7.595   8.860   5.469  0.6098  0.7014 -0.6076
  801MOL0     H 5667   7.211   8.916   5.149 -1.2860 -1.6597 -0.3234
  801MOL0     H 5668   6.964   8.962   5.120  0.3640  2.4115  0.2326
  801MOL0     H 5669   6.692   9.107   5.374 -0.7357  0.3027 -1.4667
  801MOL0     H 5670   6.735   8.988   5.499  2.8060  0.0665 -1.3600
  801MOL0     H 5671   6.553   8.848   5.448  2.2361  0.4826  1.0845
  801MOL0     H 5672   6.527   8.930   5.288 -1.3504  3.5870 -1.2325
  801MOL0     H 5673   6.437   9.114   5.389  1.2041  2.8190 -0.0981
  801MOL0     H 5674   6.542   9.094   5.539  1.8219  0.3564 -2.5071
  801MOL0     H 5675   6.296   8.910   5.489 -0.5609 -0.1738  1.3404
  801MOL0     H 5676   6.408   8.914   5.626  0.0858 -2.1294 -0.9896
  801MOL0     H 5677   6.355   9.121   5.693  1.7522  0.2325 -1.4116
  801MOL0     H 5678   6.211   9.044   5.685 -0.4463  1.8020 -0.0801
  801MOL0     H 5679   6.233   9.159   5.429 -2.5015 -1.1842  0.3812
  801MOL0     H 5680   6.339   9.270   5.518 -0.2388 -0.0623 -0.1294
  801MOL0     H 5681   6.134   9.320   5.676  0.3813 -1.5439  0.8616
  801MOL0     H 5682   6.106   9.365   5.515 -0.6200 -0.0921 -0.0062
  801MOL0     H 5683   6.017   9.088   5.621 -3.0009 -0.8974 -2.2286
  801MOL0     H 5684   5.992   9.160   5.461 -0.7974 -1.0322 -0.3148
  801MOL0     H 5685   5.847   9.113   5.795  0.6863  1.8197  2.4921
  801MOL0     H 5686   5.610   9.308   5.935  1.2207  2.4020  0.4219
  801MOL0     H 5687   5.563   9.166   5.833  1.7410 -0.2990 -0.6185
  801MOL0     H 5688   5.451   9.297   5.679 -0.6563  4.6157 -2.4750
  801MOL0     H 5689   5.518   9.439   5.752 -0.5708 -0.2006 -0.0277
  801MOL0     H 5690   5.390   9.357   5.972 -0.2985 -0.6518  0.2335
  801MOL0     H 5691   5.298   9.445   5.838  0.5647 -0.7441 -3.9214
  801MOL0     H 5692   5.297   9.144   5.887 -3.0899  0.6480  2.4573
  801MOL0     H 5693   5.251   9.223   5.731 -0.7800 -1.5164 -0.5784
  801MOL0     H 5694   5.134   9.041   5.769  2.6003  2.6285  2.5754
  801MOL0     H 5695   4.924   8.884   5.759  2.1340 -0.7071  1.2036
  801MOL0     H 5696   4.719   8.501   5.840 -0.7249 -1.6902  0.9631
  801MOL0     H 5697   4.519   8.364   5.861 -0.5679  0.2129 -0.1310
  801MOL0     H 5698   4.106   8.556   5.803 -0.0819  3.8893  2.3517
  801MOL0     H 5699   4.142   8.546   5.969 -2.8760  0.8254 -0.5862
  801MOL0     H 5700   4.123   8.271   5.921  1.3360  0.2453  0.9069
  801MOL0     H 5701   4.015   8.334   5.799 -1.2479  4.5736 -0.5959
  801MOL0     H 5702   4.030   8.424   6.091  2.0132  2.2079 -2.5195
  801MOL0     H 5703   3.934   8.286   6.040  0.1630  0.4762  3.8804
  801MOL0     H 5704   3.892   8.555   5.910  0.5281 -0.1571  0.4316
  801MOL0     H 5705   3.790   8.408   5.903  0.5664 -1.8506  1.7408
  801MOL0     H 5706   3.699   8.581   6.049  0.6177 -1.8119 -4.9211
  801MOL0     H 5707   3.845   8.574   6.164  0.8004 -1.7827 -0.3236
  801MOL0     H 5708   3.769   8.350   6.230 -0.2918 -3.0341 -1.1485
  801MOL0     H 5709   3.635   8.362   6.115  0.6049  0.3494 -2.3703
  801MOL0     H 5710   3.654   8.609   6.296 -1.9529  0.4048  1.5789
  801MOL0     H 5711   3.516   8.505   6.245 -0.5903  0.3688 -0.9803
  801MOL0     H 5712   3.557   8.370   6.426  0.4091  0.4810 -4.1242
  801MOL0     H 5713   3.561   8.538   6.494 -0.1879 -1.7453  1.1889
  801MOL0     H 5714   4.276   8.724   5.834 -1.7017 -2.4899 -0.6949
  801MOL0     H 5715   4.474   8.847   5.824 -0.9011  0.2430 -1.9201
  801MOL0     H 5716   4.730   9.107   6.055 -2.4479 -2.3055 -1.6539
  801MOL0     H 5717   4.934   9.286   6.045 -0.3169  1.9107 -2.5697
  801MOL0     H 5718   6.902   8.892   5.535 -0.1377  0.9991  0.0883
  801MOL0     H 5719   7.141   8.854   5.560  1.9314 -2.4771 -2.1233
  801MOL0     H 5720   7.629   9.099   5.223  0.2699  2.0142  0.3597
  801MOL0     H 5721   7.869   9.077   5.310 -1.1845  3.4483  1.7904
  801MOL0     H 5722   7.975   8.823   5.276  0.4885  1.3028  0.2837
  801MOL0     H 5723   7.983   8.698   5.405  1.3238 -0.9709 -2.6027
  801MOL0     H 5724   8.169   8.923   5.373 -1.5240  1.3390  0.6088
  801MOL0     H 5725   8.196   8.785   5.481 -0.7044 -0.6670  0.2524
  801MOL0     H 5726   8.248   8.638   5.311  2.5124  0.5318  2.5942
  801MOL0     H 5727   8.336   8.783   5.289 -0.6089  2.1625  0.5212
  801MOL0     H 5728   8.263   8.708   5.070  1.3972  0.9082  2.1401
  801MOL0     H 5729   8.100   8.711   5.118 -0.6246 -0.2156 -2.1421
  801MOL0     H 5730   8.176   9.118   5.030 -4.0850  0.3946  4.1733
  801MOL0     H 5731   7.762   8.794   5.589 -1.4199 -0.3540  0.2694
  801MOL0     H 5732   7.522   8.798   5.521  3.1709 -1.2910  0.8495
  802MOL0     O 5733   7.476   8.143   4.348 -0.3105  0.0306  0.1280
  802MOL0     C 5734   7.427   8.127   4.233 -0.6493  0.3275  0.0276
  802MOL0     O 5735   7.294   8.105   4.208 -0.0941  0.3057  0.3391
  802MOL0     C 5736   7.203   8.137   4.305  0.0185 -0.3729  0.0901
  802MOL0     C 5737   7.092   8.052   4.304 -0.1291  0.7821  0.5953
  802MOL0     C 5738   6.996   8.066   4.390  0.6751  0.0609  0.1036
  802MOL0     C 5739   6.985   8.174   4.476 -0.0342 -0.6576  0.2189
  802MOL0     O 5740   6.893   8.178   4.574  1.3485  0.0833  0.2605
  802MOL0     C 5741   6.758   8.200   4.535 -0.0385  0.3292  0.5432
  802MOL0     C 5742   6.667   8.188   4.653 -0.8579  0.4925  0.4257
  802MOL0     C 5743   6.675   8.315   4.745  0.4986 -0.3753 -0.0766
  802MOL0     C 5744   6.564   8.295   4.850  0.7411  0.2727  0.3148
  802MOL0     C 5745   6.563   8.428   4.925 -0.2846  0.4968 -0.0805
  802MOL0     C 5746   6.459   8.408   5.027 -0.9947 -0.1919 -0.0335
  802MOL0     C 5747   6.454   8.515   5.143 -0.2884 -0.7994  0.3991
  802MOL0     C 5748   6.385   8.455   5.267 -0.1234 -0.0714  0.0844
  802MOL0     N 5749   6.244   8.416   5.239  0.2478  0.1613  0.1302
  802MOL0     C 5750   6.190   8.313   5.309  0.7633 -0.2877 -0.9326
  802MOL0     C 5751   6.058   8.317   5.266 -0.4774  0.3325 -0.0117
  802MOL0     C 5752   5.945   8.225   5.316 -0.0525  0.4835  0.7005
  802MOL0     C 5753   5.820   8.205   5.226 -0.2860 -0.5408  0.1518
  802MOL0     C 5754   5.835   8.106   5.119 -0.2539 -0.5771  0.5701
  802MOL0     C 5755   5.958   8.119   5.027 -0.3486 -0.6196  0.6971
  802MOL0     O 5756   5.946   8.003   4.937  0.0291  0.2213 -0.2564
  802MOL0     C 5757   6.045   7.960   4.847 -0.6622 -0.5246  0.0602
  802MOL0     C 5758   6.034   7.831   4.794  0.6516 -0.4588 -0.4570
  802MOL0     C 5759   6.139   7.782   4.714  0.3550 -0.1348 -0.5330
  802MOL0     C 5760   6.245   7.870   4.686  0.3157 -0.1476  0.7868
  802MOL0     C 5761   6.348   7.823   4.593  0.7172  0.0775 -0.3589
  802MOL0     O 5762   6.466   7.883   4.601 -1.2089  0.6710  0.5738
  802MOL0     C 5763   6.578   7.838   4.532 -0.0269 -0.4972  0.3958
  802MOL0     C 5764   6.673   7.763   4.592  0.3693 -0.3681  0.8688
  802MOL0     C 5765   6.783   7.716   4.512  0.2213  0.3662  0.0403
  802MOL0     C 5766   6.789   7.728   4.369  0.2019 -1.0197  0.3196
  802MOL0     O 5767   6.868   7.668   4.278  0.0814 -1.2952 -0.6140
  802MOL0     C 5768   6.994   7.611   4.308 -1.6414  0.1235  0.1559
  802MOL0     C 5769   7.055   7.574   4.179  0.7064 -0.0947 -0.3220
  802MOL0     C 5770   7.176   7.652   4.124  0.2569  0.3710 -0.4267
  802MOL0     C 5771   7.247   7.587   4.001  0.2346 -0.7161  0.6897
  802MOL0     C 5772   7.367   7.663   3.956  1.3607  0.4013  0.6299
  802MOL0     C 5773   7.458   7.584   3.864 -0.6965 -0.1526  1.1140
  802MOL0     C 5774   7.584   7.670   3.832 -0.3192 -0.8423  0.3768
  802MOL0     C 5775   7.661   7.745   3.937  0.6068  0.3679  0.0303
  802MOL0    Cl 5776   7.708   7.626   4.075 -0.3159 -0.7158 -0.0340
  802MOL0     C 5777   6.687   7.816   4.311  0.0547 -0.1273 -0.1055
  802MOL0     C 5778   6.589   7.871   4.390 -0.0647 -0.0513 -0.1211
  802MOL0     O 5779   6.339   7.712   4.533 -0.1272 -0.1433  0.0763
  802MOL0     C 5780   6.251   7.999   4.734 -0.7234  0.4231  0.2766
  802MOL0     C 5781   6.151   8.051   4.811 -0.3887  0.3359  0.0980
  802MOL0     N 5782   6.037   8.421   5.187  0.5915  0.6927  1.1656
  802MOL0     N 5783   6.155   8.482   5.161 -0.2166  0.5876 -0.8943
  802MOL0     C 5784   7.093   8.260   4.477 -0.5778 -0.6223  0.3703
  802MOL0     C 5785   7.204   8.251   4.401  0.0290  1.5718  0.5514
  802MOL0     C 5786   7.522   8.116   4.121 -0.4847  0.2868  0.2322
  802MOL0     C 5787   7.485   8.088   3.984  0.6231  0.2803  0.9325
  802MOL0     C 5788   7.575   8.097   3.880 -0.9783 -0.7369 -0.3967
  802MOL0     C 5789   7.711   8.135   3.905  0.2607  0.2578  0.0976
  802MOL0     O 5790   7.793   8.125   3.793  0.5882  0.0071  0.1392
  802MOL0     C 5791   7.924   8.187   3.812 -0.3161 -0.0955 -0.0341
  802MOL0     C 5792   8.007   8.157   3.690 -0.7821  0.2287  0.3533
  802MOL0     C 5793   8.108   8.254   3.649  0.6031  0.2450 -0.1162
  802MOL0     C 5794   8.196   8.204   3.540  0.3624 -0.8415 -0.2350
  802MOL0     C 5795   8.126   8.227   3.409 -1.0637  0.5338 -0.8915
  802MOL0     C 5796   8.063   8.257   3.310 -0.0687  1.6843 -0.3485
  802MOL0     C 5797   7.746   8.178   4.037  0.3213 -0.2837 -0.2783
  802MOL0     C 5798   7.652   8.171   4.142 -1.0464  0.6697  0.8073
  802MOL0     H 5799   7.079   7.970   4.234 -3.5615  3.7359 -2.6558
  802MOL0     H 5800   6.903   8.010   4.384  0.4715  0.1174  2.0648
  802MOL0     H 5801   6.720   8.128   4.462 -1.1070 -0.8784  2.2135
  802MOL0     H 5802   6.761   8.303   4.496  1.4351  1.1802  2.7134
  802MOL0     H 5803   6.696   8.102   4.714  0.5963  0.6060 -0.0678
  802MOL0     H 5804   6.567   8.174   4.612 -1.1285 -0.4312  1.3752
  802MOL0     H 5805   6.666   8.407   4.687 -0.3760  0.1077  0.7811
  802MOL0     H 5806   6.772   8.321   4.796  2.6881  2.3326 -4.0606
  802MOL0     H 5807   6.466   8.267   4.809  1.1129 -1.5201  0.5711
  802MOL0     H 5808   6.592   8.212   4.916 -1.1199 -0.9871 -0.3927
  802MOL0     H 5809   6.544   8.513   4.858  2.2397  1.8261  0.7233
  802MOL0     H 5810   6.658   8.437   4.979 -0.6268 -1.4233  0.9262
  802MOL0     H 5811   6.469   8.309   5.073  0.5521 -0.1008 -0.1225
  802MOL0     H 5812   6.362   8.393   4.980  0.8780 -2.7016 -3.5476
  802MOL0     H 5813   6.553   8.550   5.174 -0.8226  0.3562  0.8928
  802MOL0     H 5814   6.397   8.599   5.101 -0.3798 -2.4614 -3.1813
  802MOL0     H 5815   6.369   8.531   5.345 -0.2572 -2.7031  2.7979
  802MOL0     H 5816   6.449   8.380   5.314 -2.7726 -0.9960  2.5048
  802MOL0     H 5817   6.240   8.239   5.370 -0.5014  0.0877  0.6285
  802MOL0     H 5818   5.910   8.283   5.402 -0.4513  2.2449 -0.6078
  802MOL0     H 5819   5.974   8.124   5.346 -0.2948  0.0098 -0.6223
  802MOL0     H 5820   5.801   8.298   5.172  1.3128 -0.6449 -0.6150
  802MOL0     H 5821   5.743   8.184   5.302 -0.7996  0.8339  0.0324
  802MOL0     H 5822   5.838   8.015   5.180 -0.0957  1.0015  3.0544
  802MOL0     H 5823   5.746   8.112   5.055 -0.0469  1.0735  0.3926
  802MOL0     H 5824   6.054   8.118   5.080 -0.3096 -0.6206  0.6276
  802MOL0     H 5825   5.945   8.215   4.975 -1.3080 -2.6695 -3.3018
  802MOL0     H 5826   5.939   7.782   4.816  1.3704 -1.7829 -0.2234
  802MOL0     H 5827   6.121   7.682   4.676 -2.2470  0.1158 -0.1661
  802MOL0     H 5828   6.683   7.776   4.700  2.0476  0.0045  0.6865
  802MOL0     H 5829   6.866   7.667   4.561  1.1899  1.4730 -0.4482
  802MOL0     H 5830   6.988   7.526   4.377 -1.9661  1.5919  1.9997
  802MOL0     H 5831   7.057   7.691   4.348 -0.7331 -1.5126  2.2402
  802MOL0     H 5832   6.979   7.547   4.105  0.9328 -1.6595 -0.0124
  802MOL0     H 5833   7.100   7.478   4.203 -1.6114 -1.6138 -1.6974
  802MOL0     H 5834   7.249   7.655   4.206  0.8249  0.5898 -0.9328
  802MOL0     H 5835   7.151   7.754   4.096  2.2482  1.2209  0.6774
  802MOL0     H 5836   7.259   7.478   4.003  0.2309 -0.8054 -1.7151
  802MOL0     H 5837   7.184   7.602   3.913  0.4131  3.0290  1.0574
  802MOL0     H 5838   7.421   7.694   4.046  2.1504  2.2383 -0.4262
  802MOL0     H 5839   7.339   7.748   3.894  1.0957 -0.4469 -0.4513
  802MOL0     H 5840   7.414   7.546   3.771  2.4652  2.0782 -1.4761
  802MOL0     H 5841   7.489   7.494   3.919  1.5063  0.9220  1.7398
  802MOL0     H 5842   7.657   7.616   3.771 -2.0119 -0.7038 -1.9122
  802MOL0     H 5843   7.558   7.755   3.769  0.1095  0.2492  1.6064
  802MOL0     H 5844   7.591   7.814   3.985  0.5969  1.1597 -1.0954
  802MOL0     H 5845   7.740   7.810   3.899  2.0182 -0.1307  1.9392
  802MOL0     H 5846   6.692   7.833   4.204 -1.7418  1.4202  0.0072
  802MOL0     H 5847   6.530   7.946   4.338  1.4993  2.2016  1.1760
  802MOL0     H 5848   6.335   8.060   4.702 -1.4691  1.1851 -0.2686
  802MOL0     H 5849   6.140   8.155   4.843 -0.7862  0.4638 -0.4331
  802MOL0     H 5850   7.078   8.341   4.548  0.2245  1.3929 -1.6286
  802MOL0     H 5851   7.289   8.318   4.411  0.9106  0.2618  2.2030
  802MOL0     H 5852   7.380   8.066   3.964  1.4008 -1.6071 -1.5676
  802MOL0     H 5853   7.544   8.065   3.782  0.3434 -2.6407 -0.2247
  802MOL0     H 5854   7.984   8.162   3.900  0.3683 -0.5988 -0.6269
  802MOL0     H 5855   7.916   8.296   3.825  0.5404 -0.2926  2.7778
  802MOL0     H 5856   8.054   8.061   3.712 -1.9709  0.1287  2.8672
  802MOL0     H 5857   7.930   8.150   3.613 -0.9036  0.1030  0.4856
  802MOL0     H 5858   8.172   8.266   3.737 -0.8654 -0.1405  1.0365
  802MOL0     H 5859   8.070   8.353   3.622 -0.1244 -0.0221 -0.0855
  802MOL0     H 5860   8.284   8.269   3.539 -0.1480  0.1128 -4.6709
  802MOL0     H 5861   8.220   8.099   3.558 -4.1292 -2.2110 -1.1764
  802MOL0     H 5862   7.991   8.283   3.236 -1.8859  0.3590  0.8569
  802MOL0     H 5863   7.847   8.211   4.060 -0.0185 -0.3935  1.4583
  802MOL0     H 5864   7.680   8.219   4.236  0.7508  0.0690  0.5992
  803MOL0     O 5865   3.755   9.589   7.623  0.3929 -0.4610  0.3082
  803MOL0     C 5866   3.836   9.671   7.650  0.5052 -0.3495 -0.5228
  803MOL0     O 5867   3.818   9.800   7.624 -0.3304  0.1942  0.3110
  803MOL0     C 5868   3.710   9.868   7.568 -0.3967 -0.1882  1.0725
  803MOL0     C 5869   3.573   9.833   7.573  0.1492 -0.2435  0.0292
  803MOL0     C 5870   3.482   9.905   7.492 -0.3305 -0.4227 -0.2293
  803MOL0     C 5871   3.520  10.021   7.425 -0.7626  0.3286  0.5145
  803MOL0     O 5872   3.430  10.101   7.354 -0.2513  0.2822  0.7790
  803MOL0     C 5873   3.335  10.175   7.438  0.0663  0.8099 -0.0721
  803MOL0     C 5874   3.216  10.210   7.344  0.3174  0.5216 -0.4920
  803MOL0     C 5875   3.233  10.338   7.262 -0.0310 -0.1072 -0.0508
  803MOL0     C 5876   3.172  10.325   7.114 -0.6253 -0.2881  0.1968
  803MOL0     C 5877   3.200  10.455   7.042 -0.8153 -0.9389 -0.2375
  803MOL0     C 5878   3.080  10.564   7.060 -0.0154 -0.2928 -0.8011
  803MOL0     C 5879   3.105  10.690   6.967 -0.3832 -0.1927  0.6215
  803MOL0     C 5880   3.037  10.810   7.022  0.2717  0.0156 -0.1330
  803MOL0     N 5881   2.897  10.776   7.038  0.1924  0.1318  0.3549
  803MOL0     C 5882   2.822  10.699   6.956  0.4892  0.8474 -0.4843
  803MOL0     C 5883   2.698  10.718   7.015 -0.5998  0.3968  0.7713
  803MOL0     C 5884   2.576  10.645   6.970  0.0608  0.3214  0.4902
  803MOL0     C 5885   2.495  10.727   6.857 -0.6326  0.3166  0.0741
  803MOL0     C 5886   2.459  10.631   6.735  0.0340  0.6063  0.1431
  803MOL0     C 5887   2.379  10.700   6.626  0.0607  0.2956 -1.1345
  803MOL0     O 5888   2.265  10.768   6.676 -0.4118  0.7231 -0.5177
  803MOL0     C 5889   2.153  10.699   6.704  0.1252  0.4346 -0.1037
  803MOL0     C 5890   2.148  10.553   6.700 -0.6515  0.1829  0.2131
  803MOL0     C 5891   2.035  10.481   6.739  0.1489  0.4697 -0.2373
  803MOL0     C 5892   1.924  10.559   6.795 -0.2892  0.6156  1.0595
  803MOL0     C 5893   1.817  10.484   6.861 -0.5271  0.1908 -1.2594
  803MOL0     O 5894   1.736  10.549   6.948  0.5974  0.0439  0.1430
  803MOL0     C 5895   1.631  10.480   6.998 -0.3395  0.3837  0.0360
  803MOL0     C 5896   1.617  10.459   7.131  0.3347  0.3959 -0.6175
  803MOL0     C 5897   1.506  10.383   7.180 -0.2705  0.3043 -0.2501
  803MOL0     C 5898   1.410  10.335   7.096 -0.2880 -0.1544 -0.9418
  803MOL0     O 5899   1.292  10.269   7.133 -0.2278 -0.0020 -0.4918
  803MOL0     C 5900   1.169  10.346   7.129  0.9641 -0.6167  1.4777
  803MOL0     C 5901   1.076  10.289   7.018  0.6483 -0.0752  0.6957
  803MOL0     C 5902   0.929  10.324   7.026 -0.1525 -0.1361 -0.9109
  803MOL0     C 5903   0.838  10.235   6.947  0.6601 -0.0908  0.8676
  803MOL0     C 5904   0.700  10.284   6.937 -0.4777 -0.1870 -0.8711
  803MOL0     C 5905   0.597  10.166   6.903  0.3689 -0.9188 -0.2778
  803MOL0     C 5906   0.615  10.108   6.756 -0.7370 -0.1981 -0.4578
  803MOL0     C 5907   0.544   9.978   6.740  0.3451  0.5860 -1.1839
  803MOL0    Cl 5908   0.365  10.003   6.752  0.7155  0.2896  0.3343
  803MOL0     C 5909   1.419  10.361   6.955 -0.5814 -0.3317  0.5475
  803MOL0     C 5910   1.529  10.433   6.909 -0.4136 -1.0036  0.5588
  803MOL0     O 5911   1.809  10.368   6.828  0.9659 -0.0428 -0.8681
  803MOL0     C 5912   1.929  10.701   6.792  0.5977  1.0656  0.5182
  803MOL0     C 5913   2.039  10.765   6.747  0.0232 -0.0220 -0.4347
  803MOL0     N 5914   2.698  10.800   7.121 -0.2341  0.1875  0.0193
  803MOL0     N 5915   2.819  10.839   7.130  0.4489 -0.8259  1.0270
  803MOL0     C 5916   3.653  10.054   7.421 -0.1866  0.2964  0.0934
  803MOL0     C 5917   3.749   9.981   7.493  0.8505 -0.5659 -0.3904
  803MOL0     C 5918   3.945   9.601   7.727 -0.6372 -0.1487  0.0202
  803MOL0     C 5919   3.954   9.461   7.752  0.6394 -0.7302  0.1406
  803MOL0     C 5920   4.051   9.394   7.827  0.1825 -0.1852  0.7033
  803MOL0     C 5921   4.144   9.472   7.891 -0.0712  0.4209 -0.0334
  803MOL0     O 5922   4.232   9.414   7.983 -0.2946 -0.5927 -0.3217
  803MOL0     C 5923   4.269   9.275   7.963  0.9757  0.3207  0.1118
  803MOL0     C 5924   4.407   9.232   8.009 -0.7948  0.9296  0.2051
  803MOL0     C 5925   4.518   9.335   7.973 -0.7179  0.0432 -0.1671
  803MOL0     C 5926   4.541   9.364   7.826  0.6087 -0.2940 -0.3375
  803MOL0     C 5927   4.575   9.241   7.749 -1.2671  0.3572 -0.6649
  803MOL0     C 5928   4.598   9.141   7.676  0.0036 -0.1908  0.3904
  803MOL0     C 5929   4.150   9.610   7.865 -0.5348  0.2705  0.6117
  803MOL0     C 5930   4.054   9.673   7.781 -0.9123  0.0403  1.3805
  803MOL0     H 5931   3.542   9.748   7.632  2.8659  0.0456  2.0634
  803MOL0     H 5932   3.379   9.874   7.477 -0.1523 -0.2227 -2.1438
  803MOL0     H 5933   3.379  10.267   7.475  2.1203 -1.0642  2.5416
  803MOL0     H 5934   3.289  10.123   7.523 -0.4590  1.1391 -0.1486
  803MOL0     H 5935   3.121  10.220   7.398 -1.0394  1.6844 -2.9525
  803MOL0     H 5936   3.202  10.129   7.273 -0.0745 -1.1798  1.4477
  803MOL0     H 5937   3.339  10.368   7.263  1.3204 -4.2039  0.4892
  803MOL0     H 5938   3.181  10.403   7.332 -2.7570 -1.2788 -0.8525
  803MOL0     H 5939   3.232  10.249   7.063 -2.3084 -1.4129 -0.1800
  803MOL0     H 5940   3.066  10.297   7.114 -0.7271  0.0728 -0.0873
  803MOL0     H 5941   3.217  10.445   6.935  1.6150  2.0758 -0.2981
  803MOL0     H 5942   3.298  10.494   7.070 -1.5836  2.8539 -2.1735
  803MOL0     H 5943   3.081  10.595   7.165 -0.6564 -2.9912  0.0788
  803MOL0     H 5944   2.983  10.518   7.039  0.7677 -1.1040 -2.8781
  803MOL0     H 5945   3.212  10.703   6.949 -0.6075  1.6417  0.3766
  803MOL0     H 5946   3.062  10.669   6.869  1.4978  1.5744 -0.6750
  803MOL0     H 5947   3.060  10.886   6.947  2.8143  0.0130  0.5286
  803MOL0     H 5948   3.086  10.845   7.114  0.8019 -2.0424  0.4293
  803MOL0     H 5949   2.846  10.626   6.879 -0.7443 -0.3253  0.1856
  803MOL0     H 5950   2.504  10.621   7.048 -1.5392 -0.3767 -1.1282
  803MOL0     H 5951   2.616  10.551   6.931  2.0788  1.2782  0.0894
  803MOL0     H 5952   2.550  10.819   6.834  0.5129 -0.4995 -0.5915
  803MOL0     H 5953   2.403  10.766   6.901 -2.6783 -2.3956 -1.5276
  803MOL0     H 5954   2.554  10.586   6.704 -0.8549 -3.5269  2.5118
  803MOL0     H 5955   2.408  10.537   6.760 -3.3917  2.2124 -0.2315
  803MOL0     H 5956   2.361  10.640   6.536  0.2309  0.5121 -1.3128
  803MOL0     H 5957   2.446  10.778   6.589  1.0833  0.2409  0.4775
  803MOL0     H 5958   2.240  10.495   6.694 -1.7409 -1.6672  0.6793
  803MOL0     H 5959   2.036  10.373   6.728 -1.3660  0.4914 -0.9397
  803MOL0     H 5960   1.692  10.496   7.201 -0.8549 -1.6145  1.8617
  803MOL0     H 5961   1.493  10.364   7.286  1.4846  0.7241  0.0748
  803MOL0     H 5962   1.195  10.448   7.097 -0.1400 -1.1348 -1.3622
  803MOL0     H 5963   1.119  10.341   7.226 -0.3393 -1.0466  0.8126
  803MOL0     H 5964   1.106  10.184   7.033 -2.1268 -0.6137  3.4531
  803MOL0     H 5965   1.119  10.311   6.919  1.9528  1.3707  1.5386
  803MOL0     H 5966   0.920  10.432   7.013  1.1347 -0.0521 -1.1918
  803MOL0     H 5967   0.898  10.306   7.129  3.5909  0.9745  0.5566
  803MOL0     H 5968   0.875  10.220   6.846 -0.4617 -1.2324  0.5949
  803MOL0     H 5969   0.833  10.131   6.981 -2.2028 -1.1886 -2.3126
  803MOL0     H 5970   0.690  10.361   6.860 -0.6776 -1.4326 -2.1421
  803MOL0     H 5971   0.665  10.334   7.028 -1.4332 -0.1650 -1.2337
  803MOL0     H 5972   0.490  10.188   6.914  0.5667 -0.3539  0.6586
  803MOL0     H 5973   0.614  10.074   6.958  0.2942 -1.0008 -0.3907
  803MOL0     H 5974   0.570  10.172   6.680 -3.0206  0.8502  1.6485
  803MOL0     H 5975   0.723  10.094   6.739 -0.5940  1.2790 -0.8528
  803MOL0     H 5976   0.579   9.923   6.828  1.8348  0.5866 -1.7451
  803MOL0     H 5977   0.564   9.927   6.646  1.9087  0.9979 -1.1064
  803MOL0     H 5978   1.345  10.316   6.890  2.8069  0.6874 -4.5856
  803MOL0     H 5979   1.541  10.469   6.808 -1.4430  1.7725  1.3440
  803MOL0     H 5980   1.838  10.753   6.819 -0.5477 -0.2089 -0.7269
  803MOL0     H 5981   2.033  10.872   6.727 -3.3850  0.3545  1.8204
  803MOL0     H 5982   3.681  10.144   7.367 -2.2968 -0.7274 -2.9760
  803MOL0     H 5983   3.855  10.005   7.499  0.5158  0.6989  2.8351
  803MOL0     H 5984   3.867   9.403   7.721 -0.3639  0.1508  1.2184
  803MOL0     H 5985   4.046   9.288   7.848  2.3353  0.0641  2.8613
  803MOL0     H 5986   4.251   9.257   7.856 -0.7774 -1.1909  0.6039
  803MOL0     H 5987   4.190   9.220   8.015 -0.1072  0.8365 -0.9451
  803MOL0     H 5988   4.407   9.212   8.116 -1.0818 -2.3104 -0.3172
  803MOL0     H 5989   4.428   9.134   7.966 -1.0467  1.5421 -1.3863
  803MOL0     H 5990   4.612   9.305   8.019 -1.0299 -1.8570 -0.6834
  803MOL0     H 5991   4.496   9.429   8.026  0.8980  0.0049  0.6335
  803MOL0     H 5992   4.452   9.416   7.788 -0.5098 -0.7198  1.5777
  803MOL0     H 5993   4.628   9.430   7.816  0.3162 -0.1627 -2.5035
  803MOL0     H 5994   4.616   9.060   7.608  3.1608  0.3822  0.3564
  803MOL0     H 5995   4.221   9.675   7.914  0.6001 -0.6912  0.2704
  803MOL0     H 5996   4.047   9.780   7.764 -3.6240 -0.3200 -0.4209
  804MOL0     O 5997  10.613   1.924   1.520 -0.1137 -0.4785 -0.0606
  804MOL0     C 5998  10.660   1.918   1.633  0.1886  0.3253 -1.2000
  804MOL0     O 5999  10.592   1.906   1.752  0.0635 -0.5807 -0.5453
  804MOL0     C 6000  10.459   1.861   1.762 -0.4607 -0.0499 -0.5321
  804MOL0     C 6001  10.357   1.927   1.701  0.5942  0.0926  0.6844
  804MOL0     C 6002  10.231   1.850   1.676 -0.2899 -0.6357 -0.3420
  804MOL0     C 6003  10.214   1.724   1.733 -0.2846  0.3012  0.2570
  804MOL0     O 6004  10.090   1.651   1.723 -0.2163  1.0303 -0.0095
  804MOL0     C 6005   9.987   1.695   1.630  0.0468 -0.1463  0.2572
  804MOL0     C 6006   9.876   1.593   1.615 -0.0241  0.5617 -0.2145
  804MOL0     C 6007   9.753   1.619   1.705  0.5745 -0.0173 -0.4362
  804MOL0     C 6008   9.642   1.516   1.690  1.5147 -0.2431 -0.5283
  804MOL0     C 6009   9.527   1.558   1.779 -0.3706  0.9680 -0.0830
  804MOL0     C 6010   9.392   1.469   1.781  0.7328  0.3573 -0.2167
  804MOL0     C 6011   9.319   1.476   1.640  0.0599 -0.2479 -0.0666
  804MOL0     C 6012   9.260   1.610   1.600 -0.0879  0.5103  0.0554
  804MOL0     N 6013   9.120   1.607   1.554 -0.5006  0.5632 -0.0976
  804MOL0     C 6014   9.006   1.593   1.630 -0.5194 -0.2244 -0.3313
  804MOL0     C 6015   8.904   1.590   1.543  0.0738 -0.5882  0.1785
  804MOL0     C 6016   8.757   1.562   1.574  0.6205  0.1466  1.2288
  804MOL0     C 6017   8.681   1.491   1.468 -0.0734  0.1000 -0.8267
  804MOL0     C 6018   8.639   1.589   1.364 -0.1221  1.3835 -0.0041
  804MOL0     C 6019   8.518   1.549   1.271  0.0140 -0.7525 -0.0712
  804MOL0     O 6020   8.398   1.569   1.344 -0.5467  0.0082  0.9606
  804MOL0     C 6021   8.326   1.683   1.316 -0.3849  0.3724  0.2335
  804MOL0     C 6022   8.373   1.794   1.247  0.4147  0.5158  0.6731
  804MOL0     C 6023   8.282   1.894   1.223 -0.1334 -1.3646 -0.1244
  804MOL0     C 6024   8.154   1.908   1.275  0.2801  0.6996  0.3066
  804MOL0     C 6025   8.079   2.034   1.268  0.4398  0.0611 -1.2380
  804MOL0     O 6026   8.123   2.129   1.177 -0.8183 -0.9323  0.5999
  804MOL0     C 6027   8.040   2.239   1.149 -0.3508  0.3449 -0.1978
  804MOL0     C 6028   7.905   2.222   1.108  0.2313 -0.4994 -0.5655
  804MOL0     C 6029   7.814   2.329   1.099 -0.1385  0.2493  1.1402
  804MOL0     C 6030   7.857   2.459   1.112 -0.6438 -0.2397 -0.4461
  804MOL0     O 6031   7.775   2.572   1.097 -0.1071 -0.2196 -0.4566
  804MOL0     C 6032   7.632   2.547   1.105  0.1297  0.5643 -0.2983
  804MOL0     C 6033   7.577   2.514   0.967  0.6291  0.9630  0.3210
  804MOL0     C 6034   7.429   2.478   0.968  0.4453  0.1340  0.3235
  804MOL0     C 6035   7.339   2.602   0.968 -0.3537 -0.1484 -0.5974
  804MOL0     C 6036   7.185   2.573   0.983 -0.4417  0.0511  0.0289
  804MOL0     C 6037   7.139   2.483   0.868 -1.5065  0.5064  0.1481
  804MOL0     C 6038   6.987   2.460   0.884 -0.4152  0.7338  0.6810
  804MOL0     C 6039   6.948   2.333   0.819  0.3015  0.0204 -0.1200
  804MOL0    Cl 6040   7.002   2.303   0.655  0.2819 -0.4788 -0.1994
  804MOL0     C 6041   7.999   2.478   1.123 -0.0577 -0.0036 -0.4448
  804MOL0     C 6042   8.088   2.372   1.153 -0.5113 -0.4105 -0.2341
  804MOL0     O 6043   7.995   2.053   1.354  0.4772  0.0580  1.0329
  804MOL0     C 6044   8.110   1.794   1.347  0.4206 -0.9674  0.0101
  804MOL0     C 6045   8.199   1.686   1.371 -0.3500 -0.1515  0.8333
  804MOL0     N 6046   8.955   1.607   1.414 -0.5850 -0.5534  0.9186
  804MOL0     N 6047   9.087   1.616   1.422 -0.7532  0.2699 -0.2294
  804MOL0     C 6048  10.321   1.665   1.802 -0.0897  0.2015  1.4325
  804MOL0     C 6049  10.442   1.736   1.809 -0.9619 -0.1503 -0.7615
  804MOL0     C 6050  10.800   1.958   1.645 -0.4996 -0.9617  0.5440
  804MOL0     C 6051  10.879   1.994   1.534  0.4000  0.2192  0.1547
  804MOL0     C 6052  11.011   2.020   1.546  0.4951 -0.1273 -1.2521
  804MOL0     C 6053  11.075   2.002   1.669  0.3919 -0.2083  0.0842
  804MOL0     O 6054  11.202   2.013   1.690 -0.3469 -0.1687  0.4562
  804MOL0     C 6055  11.257   2.149   1.707  0.1586 -0.5262  0.0857
  804MOL0     C 6056  11.387   2.140   1.791  0.9826  0.2264  0.3459
  804MOL0     C 6057  11.496   2.041   1.742  0.4491 -0.4316  0.0687
  804MOL0     C 6058  11.568   2.068   1.607  0.6329 -0.5895 -0.0817
  804MOL0     C 6059  11.612   2.209   1.599  0.7014  1.1578  0.0852
  804MOL0     C 6060  11.614   2.329   1.590 -0.4883 -0.3696 -1.2282
  804MOL0     C 6061  10.997   1.961   1.782  0.7550  0.2092 -0.0021
  804MOL0     C 6062  10.859   1.944   1.772  0.6185 -0.2980 -0.1529
  804MOL0     H 6063  10.382   2.023   1.657  1.0987  0.2456  1.2845
  804MOL0     H 6064  10.148   1.899   1.625  0.3451 -1.3387 -2.1254
  804MOL0     H 6065  10.038   1.704   1.533  4.3771 -2.0815  2.0867
  804MOL0     H 6066   9.938   1.791   1.651 -4.2969 -2.4735  1.9189
  804MOL0     H 6067   9.922   1.496   1.637  0.5240  0.9283  0.2917
  804MOL0     H 6068   9.841   1.596   1.511  1.5593  0.6664 -0.7716
  804MOL0     H 6069   9.709   1.718   1.692 -4.5113 -1.7163  1.5009
  804MOL0     H 6070   9.795   1.628   1.805 -0.6641  1.9015 -0.0566
  804MOL0     H 6071   9.608   1.506   1.587  3.4333 -2.0166 -1.0605
  804MOL0     H 6072   9.669   1.414   1.719 -0.6502  0.2447  4.2129
  804MOL0     H 6073   9.511   1.664   1.761  0.9468  1.2852  0.5113
  804MOL0     H 6074   9.544   1.556   1.887  1.4642  3.4841 -0.2397
  804MOL0     H 6075   9.320   1.503   1.856  0.7296 -1.3574  0.6053
  804MOL0     H 6076   9.408   1.366   1.812 -1.0372  0.5489  1.5468
  804MOL0     H 6077   9.376   1.433   1.556 -1.7685 -0.0414 -1.4803
  804MOL0     H 6078   9.240   1.401   1.632  1.5466 -1.8335 -0.6488
  804MOL0     H 6079   9.317   1.657   1.519 -0.0509  2.9020  1.4015
  804MOL0     H 6080   9.269   1.676   1.686 -1.3291  1.7415 -0.7357
  804MOL0     H 6081   8.993   1.597   1.738 -1.4545 -1.7417 -0.3612
  804MOL0     H 6082   8.703   1.649   1.612 -1.7265 -1.6867  2.3292
  804MOL0     H 6083   8.755   1.488   1.656 -0.4961  0.5514  1.5806
  804MOL0     H 6084   8.595   1.443   1.517 -1.2025 -0.8332 -3.4918
  804MOL0     H 6085   8.751   1.416   1.430  1.6660  0.9039  0.6206
  804MOL0     H 6086   8.621   1.687   1.408  0.9766  1.1077  1.0937
  804MOL0     H 6087   8.725   1.597   1.297  1.6372  2.0758  2.2265
  804MOL0     H 6088   8.517   1.440   1.255 -1.7458 -0.8990  0.7725
  804MOL0     H 6089   8.526   1.600   1.175 -1.3421  1.1677  0.7673
  804MOL0     H 6090   8.475   1.799   1.210 -0.5947  1.5666 -2.1865
  804MOL0     H 6091   8.326   1.980   1.172  1.3217  0.4310  3.7328
  804MOL0     H 6092   7.869   2.121   1.089 -1.2113  0.1767 -1.6316
  804MOL0     H 6093   7.711   2.307   1.074 -0.0667  0.6210  0.4918
  804MOL0     H 6094   7.576   2.632   1.143 -0.3083  1.0429 -1.9241
  804MOL0     H 6095   7.618   2.468   1.180  1.5974  1.8597  1.4333
  804MOL0     H 6096   7.636   2.432   0.928 -1.2105 -0.3485  0.1539
  804MOL0     H 6097   7.600   2.602   0.905 -0.4002  2.9132  2.5172
  804MOL0     H 6098   7.399   2.419   1.055  4.0616  0.9140  2.3039
  804MOL0     H 6099   7.402   2.416   0.881  1.1374  2.0649 -1.3541
  804MOL0     H 6100   7.375   2.658   1.055 -0.0791 -0.9795 -0.1551
  804MOL0     H 6101   7.371   2.665   0.885  1.5079  0.5541  0.5698
  804MOL0     H 6102   7.135   2.671   0.984 -0.3414  0.1236 -0.8241
  804MOL0     H 6103   7.158   2.525   1.078  0.4563  5.7114  3.6587
  804MOL0     H 6104   7.183   2.384   0.882  2.9865  2.2645 -0.0392
  804MOL0     H 6105   7.168   2.529   0.773  0.7677 -1.7788 -0.3520
  804MOL0     H 6106   6.966   2.447   0.991 -1.5156  2.4939  0.7220
  804MOL0     H 6107   6.926   2.545   0.852  0.1354  0.7918 -0.2350
  804MOL0     H 6108   6.838   2.331   0.819  0.3022 -1.6609  0.8673
  804MOL0     H 6109   6.983   2.260   0.893  0.7537  1.8638  1.5806
  804MOL0     H 6110   8.035   2.579   1.105  1.8328 -1.2167 -4.8893
  804MOL0     H 6111   8.191   2.403   1.163  0.0696 -2.4307  0.4654
  804MOL0     H 6112   8.015   1.803   1.400  1.1651  1.7196  1.0883
  804MOL0     H 6113   8.158   1.608   1.434  2.8304  0.1670  3.5358
  804MOL0     H 6114  10.312   1.566   1.845  3.4559 -1.7824 -1.7864
  804MOL0     H 6115  10.523   1.683   1.858 -2.0364 -2.0553 -0.9641
  804MOL0     H 6116  10.833   1.994   1.436 -0.7899  0.6339  0.6967
  804MOL0     H 6117  11.065   2.044   1.455 -0.2906 -4.2034 -3.0080
  804MOL0     H 6118  11.190   2.205   1.774 -0.3757 -5.4940  4.2886
  804MOL0     H 6119  11.276   2.203   1.613  0.7592 -1.1709 -0.1652
  804MOL0     H 6120  11.419   2.244   1.801 -0.7326  0.6704  1.6993
  804MOL0     H 6121  11.359   2.107   1.892  0.5259  0.6730  0.3730
  804MOL0     H 6122  11.448   1.942   1.746 -2.9882  1.1047  3.7601
  804MOL0     H 6123  11.567   2.035   1.824 -0.7225 -0.0594  1.1291
  804MOL0     H 6124  11.651   1.998   1.592  0.2483 -0.5646 -2.9127
  804MOL0     H 6125  11.494   2.042   1.530 -0.5432 -0.0808  0.8495
  804MOL0     H 6126  11.609   2.434   1.567 -0.7049 -0.6506 -2.5222
  804MOL0     H 6127  11.045   1.945   1.877  3.0368  1.3284 -0.8951
  804MOL0     H 6128  10.813   1.919   1.867 -2.3230  1.3038 -1.0211
  805MOL0     O 6129   3.529   2.936   5.731  0.0847  0.6152 -0.4445
  805MOL0     C 6130   3.522   2.947   5.608 -0.5486  0.1822 -1.2608
  805MOL0     O 6131   3.405   2.958   5.543  0.2238  0.0414  0.6249
  805MOL0     C 6132   3.286   2.972   5.605  0.1073 -0.2031 -0.6029
  805MOL0     C 6133   3.192   2.883   5.534 -0.1504 -0.2103 -0.0002
  805MOL0     C 6134   3.052   2.899   5.571 -0.3400  0.2928 -0.7255
  805MOL0     C 6135   3.013   2.984   5.682  0.1682  0.2598 -0.2501
  805MOL0     O 6136   2.880   2.979   5.728 -0.1964  0.3743  0.4801
  805MOL0     C 6137   2.862   3.004   5.872 -0.5211  0.3360  0.5983
  805MOL0     C 6138   2.719   2.984   5.908  0.7405  0.5183 -0.5683
  805MOL0     C 6139   2.694   3.039   6.046 -0.0729 -0.3538 -0.2612
  805MOL0     C 6140   2.559   2.999   6.111 -0.1127 -1.3461 -0.9371
  805MOL0     C 6141   2.519   2.852   6.132 -0.1826  0.5454  0.3885
  805MOL0     C 6142   2.637   2.774   6.184  0.2442 -0.4368  0.6044
  805MOL0     C 6143   2.592   2.638   6.228  0.0933  0.7476 -0.1600
  805MOL0     C 6144   2.508   2.644   6.361  0.1460  0.2462  0.5153
  805MOL0     N 6145   2.498   2.523   6.444  0.7508 -0.6246 -0.2880
  805MOL0     C 6146   2.567   2.406   6.457  0.2773  0.1735 -0.0965
  805MOL0     C 6147   2.477   2.316   6.513 -0.5156 -0.1898 -0.4208
  805MOL0     C 6148   2.485   2.165   6.544 -0.5388  0.6984  0.0413
  805MOL0     C 6149   2.517   2.081   6.424  0.7690 -0.4829 -0.4210
  805MOL0     C 6150   2.407   2.082   6.320 -0.4192  0.2517 -0.0432
  805MOL0     C 6151   2.451   2.000   6.197  0.2928  0.1599 -0.3487
  805MOL0     O 6152   2.443   1.852   6.207 -1.1932  0.3410  0.4685
  805MOL0     C 6153   2.474   1.782   6.094  0.6713 -0.0497 -0.0873
  805MOL0     C 6154   2.575   1.694   6.102 -0.0838 -0.0692  0.1325
  805MOL0     C 6155   2.599   1.604   5.996  0.3866 -0.1873 -0.1192
  805MOL0     C 6156   2.533   1.624   5.868  0.0255  0.0428 -0.2613
  805MOL0     C 6157   2.566   1.541   5.750  0.4375 -0.6360 -0.6661
  805MOL0     O 6158   2.518   1.587   5.628 -0.6609 -0.5170  0.1717
  805MOL0     C 6159   2.526   1.519   5.507  0.2962  0.2698  0.5302
  805MOL0     C 6160   2.633   1.430   5.475  0.0562 -0.8199  0.6349
  805MOL0     C 6161   2.632   1.350   5.363 -0.3912 -0.4032 -0.9628
  805MOL0     C 6162   2.538   1.363   5.265 -0.3513  0.5727  0.8049
  805MOL0     O 6163   2.531   1.286   5.149 -0.3509  0.5188  0.0454
  805MOL0     C 6164   2.668   1.271   5.084 -0.2537 -0.7622 -0.7045
  805MOL0     C 6165   2.650   1.235   4.939  0.7443 -0.2698  0.4382
  805MOL0     C 6166   2.784   1.189   4.872 -0.5887  1.5712 -0.3563
  805MOL0     C 6167   2.888   1.300   4.853 -0.0729  0.1842 -0.0811
  805MOL0     C 6168   3.005   1.247   4.778  0.4858 -0.1103 -0.2257
  805MOL0     C 6169   3.105   1.358   4.735  0.3710 -0.0615  0.5610
  805MOL0     C 6170   3.039   1.471   4.645 -0.5184  0.4207 -0.8028
  805MOL0     C 6171   3.002   1.403   4.515  0.1442 -0.2865  0.0213
  805MOL0    Cl 6172   2.873   1.508   4.423  0.5914 -0.1237  0.2314
  805MOL0     C 6173   2.434   1.459   5.287 -0.0273  0.6207  0.3485
  805MOL0     C 6174   2.422   1.527   5.410 -0.2176  0.8610  0.3330
  805MOL0     O 6175   2.628   1.440   5.762 -0.2416  0.1414  0.9982
  805MOL0     C 6176   2.432   1.726   5.861 -0.0407  0.0325 -0.2500
  805MOL0     C 6177   2.402   1.802   5.971  0.4415  0.3038 -1.3647
  805MOL0     N 6178   2.366   2.388   6.558 -0.2843 -0.2233  0.1352
  805MOL0     N 6179   2.378   2.508   6.504 -0.6558 -0.3297 -0.6558
  805MOL0     C 6180   3.113   3.062   5.745  0.5252 -0.1875  0.5109
  805MOL0     C 6181   3.242   3.065   5.703  0.0934 -0.0769 -0.1564
  805MOL0     C 6182   3.646   2.908   5.536 -0.1343  0.4685 -0.1408
  805MOL0     C 6183   3.647   2.912   5.401  0.6087  0.7659  0.1975
  805MOL0     C 6184   3.749   2.852   5.327  0.7157  0.0174  0.1973
  805MOL0     C 6185   3.864   2.800   5.395  0.8953  0.3826  0.1923
  805MOL0     O 6186   3.951   2.733   5.310  0.4290 -0.1830 -0.1061
  805MOL0     C 6187   4.084   2.697   5.348  0.2209 -0.6213 -0.1885
  805MOL0     C 6188   4.130   2.581   5.266 -0.1533  0.1542 -0.3944
  805MOL0     C 6189   4.057   2.448   5.289 -0.8388  0.5041 -0.0876
  805MOL0     C 6190   4.131   2.322   5.219 -0.2994 -0.6822 -0.4748
  805MOL0     C 6191   4.241   2.279   5.293 -0.2641  0.2421  0.4180
  805MOL0     C 6192   4.350   2.248   5.335 -0.4799 -0.4850 -0.2979
  805MOL0     C 6193   3.874   2.800   5.531 -0.1350  0.2601 -0.2465
  805MOL0     C 6194   3.767   2.855   5.607 -0.4307  0.0128 -0.4135
  805MOL0     H 6195   3.219   2.810   5.458  1.4098  2.2670 -1.9985
  805MOL0     H 6196   2.979   2.830   5.530  0.4854 -3.1002  2.9346
  805MOL0     H 6197   2.882   3.109   5.892 -3.0607  1.0222 -0.0658
  805MOL0     H 6198   2.920   2.936   5.935  0.4350  0.7463  0.1654
  805MOL0     H 6199   2.688   2.879   5.913  2.3435  0.0445 -0.1637
  805MOL0     H 6200   2.646   3.024   5.837 -0.8010 -1.8999 -0.4626
  805MOL0     H 6201   2.701   3.148   6.034 -0.1256 -0.4936 -1.8174
  805MOL0     H 6202   2.768   2.999   6.116 -1.8173  0.5323  2.2287
  805MOL0     H 6203   2.554   3.033   6.214  0.1444 -3.2502 -0.2473
  805MOL0     H 6204   2.483   3.054   6.055  0.0151 -2.5052 -2.3353
  805MOL0     H 6205   2.499   2.812   6.032 -0.5056  0.0292  0.6521
  805MOL0     H 6206   2.432   2.837   6.196  0.0259 -0.1163  0.5223
  805MOL0     H 6207   2.681   2.822   6.272 -1.5835 -0.1078  1.3885
  805MOL0     H 6208   2.719   2.766   6.113 -0.2530 -1.0757  0.0951
  805MOL0     H 6209   2.543   2.590   6.142  0.7984 -1.5463  0.6304
  805MOL0     H 6210   2.682   2.581   6.255  1.5168  2.5325 -0.8789
  805MOL0     H 6211   2.403   2.671   6.343 -0.1898 -1.8548 -1.0617
  805MOL0     H 6212   2.545   2.726   6.424  1.2425  1.5997 -1.7869
  805MOL0     H 6213   2.666   2.379   6.423  1.3753 -1.4993  3.8048
  805MOL0     H 6214   2.389   2.137   6.589  0.4974 -5.1996 -0.6441
  805MOL0     H 6215   2.549   2.132   6.627 -1.3776  0.0640  0.4579
  805MOL0     H 6216   2.525   1.974   6.449 -0.5228 -1.0357 -2.1800
  805MOL0     H 6217   2.611   2.116   6.379  0.8463 -0.3697 -0.1715
  805MOL0     H 6218   2.306   2.058   6.353 -1.4309  0.9670 -2.3873
  805MOL0     H 6219   2.403   2.190   6.301 -2.0926 -0.1326 -2.2063
  805MOL0     H 6220   2.557   2.020   6.175  0.7713 -2.4133 -0.7256
  805MOL0     H 6221   2.401   2.032   6.106 -1.3228 -2.1813 -0.3642
  805MOL0     H 6222   2.634   1.680   6.192  0.3410 -3.4559 -0.5269
  805MOL0     H 6223   2.673   1.523   5.997 -3.0834 -3.6750 -0.4690
  805MOL0     H 6224   2.718   1.418   5.541 -0.0400  1.9225  1.3719
  805MOL0     H 6225   2.716   1.283   5.348 -1.0485 -1.3859 -0.4247
  805MOL0     H 6226   2.723   1.192   5.135  0.0823 -0.4569 -0.5857
  805MOL0     H 6227   2.721   1.367   5.091 -0.1004 -0.9741  1.8886
  805MOL0     H 6228   2.590   1.314   4.893 -0.9351 -1.7587 -0.0386
  805MOL0     H 6229   2.590   1.144   4.941 -1.4696  0.9497  5.2802
  805MOL0     H 6230   2.775   1.145   4.772  1.5561  1.1472 -0.4083
  805MOL0     H 6231   2.832   1.109   4.930 -3.2325  0.1156 -0.0346
  805MOL0     H 6232   2.829   1.375   4.799 -0.6228  0.1135  0.4125
  805MOL0     H 6233   2.912   1.328   4.956 -0.6511 -1.9482  0.6809
  805MOL0     H 6234   2.973   1.187   4.692  2.4792 -1.3132 -0.1807
  805MOL0     H 6235   3.049   1.173   4.845  1.5616 -0.2105 -1.0198
  805MOL0     H 6236   3.188   1.314   4.679 -0.7328 -1.2962 -0.1725
  805MOL0     H 6237   3.135   1.410   4.827  0.7901  2.1701 -0.7607
  805MOL0     H 6238   2.959   1.520   4.701 -0.8125  1.2990 -1.9623
  805MOL0     H 6239   3.113   1.546   4.616 -0.5918  0.2825 -1.3547
  805MOL0     H 6240   2.954   1.305   4.528 -1.0162  0.4868  1.9014
  805MOL0     H 6241   3.094   1.393   4.456  4.5010 -0.1576  5.9589
  805MOL0     H 6242   2.360   1.464   5.207  1.5192  1.2047 -1.0904
  805MOL0     H 6243   2.337   1.590   5.437 -0.6981  1.0848 -1.5735
  805MOL0     H 6244   2.371   1.743   5.773 -1.2566  2.5413  0.9927
  805MOL0     H 6245   2.332   1.883   5.955 -1.0775  0.0240  2.6835
  805MOL0     H 6246   3.080   3.132   5.821  0.7013 -1.2948  1.6344
  805MOL0     H 6247   3.312   3.142   5.733 -0.5857  0.7536 -0.6600
  805MOL0     H 6248   3.555   2.943   5.352 -0.9021 -2.9811  0.2703
  805MOL0     H 6249   3.742   2.822   5.223 -0.8303  1.1682 -0.0625
  805MOL0     H 6250   4.099   2.668   5.452  2.3929 -2.0669 -0.8323
  805MOL0     H 6251   4.151   2.782   5.331  1.8135 -1.0033  3.2836
  805MOL0     H 6252   4.131   2.611   5.161 -1.6347 -2.0095 -1.0950
  805MOL0     H 6253   4.234   2.565   5.296 -0.8930 -1.0563  1.6885
  805MOL0     H 6254   3.961   2.444   5.238 -0.5636 -1.8326 -0.5376
  805MOL0     H 6255   4.043   2.430   5.395 -0.0799 -2.6146 -0.4373
  805MOL0     H 6256   4.062   2.237   5.226  0.3919 -1.4398 -2.2499
  805MOL0     H 6257   4.158   2.361   5.120  3.0047  3.8104  1.8732
  805MOL0     H 6258   4.452   2.228   5.364  0.4872  2.2159 -1.5510
  805MOL0     H 6259   3.965   2.769   5.581 -2.0761 -3.5263  1.3716
  805MOL0     H 6260   3.781   2.872   5.713  0.7649  0.4373 -0.6187
  806MOL0     O 6261   8.085   6.786   3.560 -0.4093 -0.0465  0.1953
  806MOL0     C 6262   8.065   6.675   3.584  0.0559 -0.1971  0.0759
  806MOL0     O 6263   8.000   6.625   3.686 -0.5822 -0.2365 -0.0226
  806MOL0     C 6264   7.950   6.702   3.779 -0.3539 -0.3814 -0.3823
  806MOL0     C 6265   8.027   6.793   3.840  0.5364  0.1721  0.8471
  806MOL0     C 6266   7.973   6.865   3.945  0.2501  0.0491 -1.0253
  806MOL0     C 6267   7.848   6.834   3.997  0.0580  0.7013  0.0012
  806MOL0     O 6268   7.795   6.893   4.112 -0.3183 -0.3947  0.2894
  806MOL0     C 6269   7.792   7.035   4.120 -0.7350  0.5447  1.9113
  806MOL0     C 6270   7.688   7.098   4.029  0.1464  0.3476  0.3070
  806MOL0     C 6271   7.547   7.080   4.092 -0.5335  0.5154  0.6028
  806MOL0     C 6272   7.428   7.155   4.028  0.9535 -0.0928 -0.5047
  806MOL0     C 6273   7.317   7.153   4.136  0.6592  0.0215  0.2872
  806MOL0     C 6274   7.277   7.019   4.189  1.2483  0.3698  0.3821
  806MOL0     C 6275   7.178   7.049   4.304  0.8099  0.3757  0.0190
  806MOL0     C 6276   7.035   7.093   4.254  0.0783 -0.4223 -0.6168
  806MOL0     N 6277   6.940   7.095   4.379  0.2206 -0.1220  0.1488
  806MOL0     C 6278   6.895   7.204   4.453 -0.6386 -0.7981 -0.3097
  806MOL0     C 6279   6.801   7.159   4.539 -0.7392 -0.2004  0.5191
  806MOL0     C 6280   6.718   7.236   4.637  1.0691 -0.7412  0.2721
  806MOL0     C 6281   6.574   7.267   4.599 -0.3050  0.3463  0.1442
  806MOL0     C 6282   6.566   7.351   4.475  0.2269  0.6545 -0.0273
  806MOL0     C 6283   6.417   7.386   4.454  0.3044  0.6591 -0.2939
  806MOL0     O 6284   6.336   7.264   4.449  0.4719 -0.8223  0.8293
  806MOL0     C 6285   6.197   7.271   4.424  0.5876 -1.3535 -0.7056
  806MOL0     C 6286   6.125   7.390   4.410 -0.4980 -0.3376 -1.7019
  806MOL0     C 6287   5.985   7.382   4.390  0.3443 -0.6201  0.1778
  806MOL0     C 6288   5.915   7.263   4.409  0.4883 -0.3593 -0.3888
  806MOL0     C 6289   5.767   7.257   4.418  0.5044  0.9838  0.2743
  806MOL0     O 6290   5.713   7.132   4.413  0.3004  0.2040  0.2261
  806MOL0     C 6291   5.574   7.123   4.418 -0.3974  1.5400 -0.1429
  806MOL0     C 6292   5.505   7.159   4.538  0.0621 -1.3549  0.5617
  806MOL0     C 6293   5.367   7.130   4.552 -0.5958  0.3926 -0.3482
  806MOL0     C 6294   5.288   7.069   4.451 -0.1097  0.0072 -0.0024
  806MOL0     O 6295   5.154   7.035   4.472  0.2534  0.2941 -0.9159
  806MOL0     C 6296   5.058   7.061   4.365  0.6653  0.3221 -1.1327
  806MOL0     C 6297   4.942   6.964   4.385 -0.0934  0.5216 -0.5337
  806MOL0     C 6298   4.977   6.826   4.324  0.6301  1.1867  1.1546
  806MOL0     C 6299   4.882   6.715   4.388 -0.7178 -0.1271  0.5061
  806MOL0     C 6300   4.950   6.578   4.373 -0.6036 -0.4702 -0.4029
  806MOL0     C 6301   4.856   6.461   4.383  0.0660  0.7263 -1.0589
  806MOL0     C 6302   4.921   6.321   4.355 -0.4525 -0.5958 -0.5747
  806MOL0     C 6303   4.869   6.215   4.452 -0.0989  0.0831  0.0779
  806MOL0    Cl 6304   4.922   6.250   4.612  0.2286 -0.2410 -0.2719
  806MOL0     C 6305   5.368   7.030   4.334  2.2568  0.7491 -0.0240
  806MOL0     C 6306   5.506   7.056   4.328 -0.3958 -0.2451  0.6055
  806MOL0     O 6307   5.708   7.363   4.409  0.9904 -0.2588  0.4022
  806MOL0     C 6308   5.990   7.150   4.435 -0.1292 -0.3702  0.1808
  806MOL0     C 6309   6.127   7.155   4.449  0.1088 -0.2469 -0.1013
  806MOL0     N 6310   6.804   7.022   4.525  0.0084  0.8144  0.0161
  806MOL0     N 6311   6.881   6.980   4.432 -0.2850  0.1511 -0.4384
  806MOL0     C 6312   7.771   6.731   3.939 -0.2173 -0.6028 -0.3501
  806MOL0     C 6313   7.823   6.664   3.826 -0.3699 -0.9376  0.2384
  806MOL0     C 6314   8.093   6.576   3.473 -1.1987  0.0947  0.5806
  806MOL0     C 6315   8.099   6.446   3.497  0.2182 -0.8295  0.2970
  806MOL0     C 6316   8.140   6.348   3.402  0.3691  0.2119 -0.6211
  806MOL0     C 6317   8.173   6.386   3.273 -0.0096 -0.2288 -0.2530
  806MOL0     O 6318   8.212   6.289   3.186 -0.9465  0.2121 -0.9337
  806MOL0     C 6319   8.275   6.301   3.057  0.6333 -0.2628 -0.7594
  806MOL0     C 6320   8.238   6.168   2.979 -0.4487 -0.3200  1.3039
  806MOL0     C 6321   8.092   6.128   2.977  0.0067  0.2187 -0.3833
  806MOL0     C 6322   8.071   6.003   2.881 -0.0479  0.0016  0.4677
  806MOL0     C 6323   7.944   5.946   2.885  0.8285  0.4245 -0.0065
  806MOL0     C 6324   7.837   5.895   2.915  0.3945  0.0690  0.2187
  806MOL0     C 6325   8.167   6.524   3.239  0.2594  0.0494  0.0545
  806MOL0     C 6326   8.136   6.616   3.344  0.2758 -0.4282 -1.8649
  806MOL0     H 6327   8.121   6.829   3.799  0.5337  0.0400  0.7235
  806MOL0     H 6328   8.036   6.926   4.008 -1.4053 -2.0134  2.9263
  806MOL0     H 6329   7.885   7.082   4.086 -1.8903 -0.3480 -3.4466
  806MOL0     H 6330   7.771   7.058   4.225 -0.5762  0.0167  2.0624
  806MOL0     H 6331   7.678   7.056   3.929 -2.2522 -0.0279  0.6520
  806MOL0     H 6332   7.695   7.206   4.016 -0.5395  0.6572  2.1295
  806MOL0     H 6333   7.542   7.098   4.200 -1.7292  0.1264  0.6330
  806MOL0     H 6334   7.521   6.975   4.075  0.1665  0.3141  0.7510
  806MOL0     H 6335   7.448   7.261   4.006  0.4072 -0.2904 -2.0363
  806MOL0     H 6336   7.398   7.110   3.933  2.3053 -1.8078 -0.1511
  806MOL0     H 6337   7.236   7.209   4.089 -0.4074 -1.7402 -0.0805
  806MOL0     H 6338   7.358   7.219   4.213 -1.3564 -1.2271  2.5810
  806MOL0     H 6339   7.361   6.966   4.234  0.8279  0.0999  0.8665
  806MOL0     H 6340   7.229   6.955   4.115  0.4029  3.0700 -1.5840
  806MOL0     H 6341   7.164   6.950   4.349 -1.9813  0.4958 -0.3679
  806MOL0     H 6342   7.220   7.108   4.386  2.4513 -0.7984  0.0612
  806MOL0     H 6343   7.003   7.026   4.174 -0.5311  0.8990 -1.5164
  806MOL0     H 6344   7.039   7.188   4.199 -3.6648 -0.4450 -1.1999
  806MOL0     H 6345   6.929   7.306   4.441  1.5931 -1.0883  2.4984
  806MOL0     H 6346   6.781   7.324   4.653 -2.9412  2.4645  0.0793
  806MOL0     H 6347   6.697   7.176   4.726 -0.3099  3.1504  2.8055
  806MOL0     H 6348   6.521   7.307   4.687  0.2377 -0.0926  0.6817
  806MOL0     H 6349   6.524   7.175   4.569  1.6237 -0.2789 -1.3396
  806MOL0     H 6350   6.631   7.439   4.480  2.1987 -0.7834  3.8862
  806MOL0     H 6351   6.604   7.287   4.395  1.0435 -2.2973  2.5384
  806MOL0     H 6352   6.405   7.444   4.362 -3.5080  2.1098  0.9042
  806MOL0     H 6353   6.388   7.447   4.540  0.3127 -0.9820  0.9207
  806MOL0     H 6354   6.164   7.492   4.417 -3.3274  0.7410  2.2288
  806MOL0     H 6355   5.932   7.476   4.378 -2.1764 -1.8801  0.7858
  806MOL0     H 6356   5.560   7.204   4.620  0.3123 -1.6212  0.5426
  806MOL0     H 6357   5.313   7.145   4.645 -1.2505 -0.4349 -0.5804
  806MOL0     H 6358   5.102   7.045   4.266 -1.4304 -1.0022 -1.9170
  806MOL0     H 6359   5.012   7.159   4.379 -1.3298 -0.8094  0.9918
  806MOL0     H 6360   4.854   7.001   4.331 -2.2829 -2.2224  0.8445
  806MOL0     H 6361   4.917   6.956   4.491  0.4651  1.9041 -0.2757
  806MOL0     H 6362   5.083   6.815   4.349  0.6409  2.7692  1.9424
  806MOL0     H 6363   4.970   6.826   4.215  2.1082 -1.2918  0.9814
  806MOL0     H 6364   4.858   6.751   4.489 -4.9117 -1.3445  0.1166
  806MOL0     H 6365   4.782   6.713   4.344 -0.5683  0.6933  0.1203
  806MOL0     H 6366   5.041   6.566   4.432  0.6943 -1.8544 -2.5397
  806MOL0     H 6367   4.992   6.576   4.272 -3.4236  1.1566 -1.7376
  806MOL0     H 6368   4.780   6.478   4.307  1.1734  0.9794 -2.1489
  806MOL0     H 6369   4.810   6.477   4.481  2.0326  3.4153 -0.4422
  806MOL0     H 6370   4.912   6.294   4.249 -0.4551 -2.3891 -0.1446
  806MOL0     H 6371   5.029   6.326   4.375 -0.2809 -5.3731  1.1206
  806MOL0     H 6372   4.913   6.117   4.429 -3.3907 -1.4584 -0.2338
  806MOL0     H 6373   4.763   6.197   4.435  0.5416 -0.8286 -4.0020
  806MOL0     H 6374   5.319   6.959   4.267  0.1542 -0.6534  2.7452
  806MOL0     H 6375   5.563   7.029   4.240 -1.1184  1.0787 -0.3014
  806MOL0     H 6376   5.943   7.053   4.449 -0.7139 -0.0049  0.8342
  806MOL0     H 6377   6.176   7.066   4.487  5.2564  3.0103  2.0341
  806MOL0     H 6378   7.672   6.705   3.975 -0.1171  0.0786  0.4475
  806MOL0     H 6379   7.765   6.588   3.775 -0.9991 -0.8284  0.7799
  806MOL0     H 6380   8.068   6.406   3.593 -1.0916 -0.3571  0.0788
  806MOL0     H 6381   8.135   6.248   3.443 -1.6848  0.4791 -0.1259
  806MOL0     H 6382   8.384   6.308   3.056  0.6833 -0.9262 -0.5638
  806MOL0     H 6383   8.225   6.390   3.016 -0.2586  0.7985  2.3985
  806MOL0     H 6384   8.284   6.181   2.880  3.0977  0.0832  2.8543
  806MOL0     H 6385   8.289   6.094   3.041 -0.3092 -0.6627  0.7842
  806MOL0     H 6386   8.029   6.216   2.961 -0.0735  0.6332  1.8543
  806MOL0     H 6387   8.082   6.092   3.080  0.7682 -0.4177 -0.5168
  806MOL0     H 6388   8.092   6.036   2.780 -2.3462  1.0518  0.2755
  806MOL0     H 6389   8.133   5.917   2.909 -1.7371 -1.0635  1.1107
  806MOL0     H 6390   7.743   5.877   2.962  0.1150 -0.3418 -0.4832
  806MOL0     H 6391   8.208   6.566   3.147 -1.1495  2.1879  0.3122
  806MOL0     H 6392   8.148   6.721   3.319  0.6855  0.0092 -0.0231
  807MOL0     O 6393   4.861   5.217   1.934  0.7532  0.1135 -0.3648
  807MOL0     C 6394   4.789   5.119   1.907 -0.2304 -0.1063 -0.4688
  807MOL0     O 6395   4.657   5.107   1.917  0.2351 -0.6949  0.4531
  807MOL0     C 6396   4.570   5.217   1.930 -1.1418  0.7599  0.6273
  807MOL0     C 6397   4.598   5.335   1.992 -0.1533  0.1614  0.7092
  807MOL0     C 6398   4.504   5.444   1.991 -1.8884  0.8145  0.0924
  807MOL0     C 6399   4.384   5.427   1.913 -0.0485  0.1053  0.1402
  807MOL0     O 6400   4.288   5.525   1.907 -0.2272  0.5149 -0.2791
  807MOL0     C 6401   4.229   5.566   2.031 -0.0033 -0.3623 -0.1139
  807MOL0     C 6402   4.124   5.680   2.015  0.2316  0.3379 -0.6117
  807MOL0     C 6403   4.013   5.648   1.902  0.9725  0.6760  0.3642
  807MOL0     C 6404   3.926   5.768   1.868 -0.6299 -0.2791  0.5939
  807MOL0     C 6405   3.837   5.738   1.747 -0.5421  0.5296 -0.1152
  807MOL0     C 6406   3.779   5.861   1.683 -0.5420 -0.0969 -0.4149
  807MOL0     C 6407   3.677   5.826   1.580 -0.2374  0.3893 -0.3719
  807MOL0     C 6408   3.632   5.963   1.523  0.5850 -0.0300 -0.6154
  807MOL0     N 6409   3.501   5.933   1.450  0.9764  0.5545 -0.0372
  807MOL0     C 6410   3.479   5.842   1.342 -0.3729 -0.1607  0.5630
  807MOL0     C 6411   3.339   5.822   1.347 -0.2333  0.3277 -0.7269
  807MOL0     C 6412   3.262   5.723   1.259  0.0796  0.3103 -0.4128
  807MOL0     C 6413   3.109   5.754   1.239  0.8897 -0.1114  0.3552
  807MOL0     C 6414   3.029   5.627   1.194  0.9871 -0.4615 -0.5166
  807MOL0     C 6415   3.034   5.513   1.303 -0.2978  0.1679 -0.1806
  807MOL0     O 6416   3.098   5.397   1.253 -0.2457  0.1591 -0.5792
  807MOL0     C 6417   3.026   5.326   1.161 -0.0128 -0.0293  0.0896
  807MOL0     C 6418   3.106   5.234   1.091  0.1554 -0.2702 -0.5952
  807MOL0     C 6419   3.043   5.149   1.005 -0.1155 -0.4180 -0.2017
  807MOL0     C 6420   2.903   5.158   0.972 -0.5012 -0.7933  0.8910
  807MOL0     C 6421   2.860   5.067   0.860  0.1448  0.3222 -0.3985
  807MOL0     O 6422   2.755   5.113   0.784  0.0081  0.3916 -0.4345
  807MOL0     C 6423   2.711   5.031   0.680 -0.8385 -0.5631 -0.9479
  807MOL0     C 6424   2.630   4.917   0.700  0.0067 -0.0125  0.1733
  807MOL0     C 6425   2.581   4.848   0.591 -0.3071  0.5007  0.4063
  807MOL0     C 6426   2.624   4.885   0.462 -0.7228 -0.1416  0.0423
  807MOL0     O 6427   2.589   4.804   0.358  0.1933  0.0486  0.0123
  807MOL0     C 6428   2.554   4.862   0.235  1.3067  0.6217 -0.6623
  807MOL0     C 6429   2.452   4.772   0.156  0.3478  0.5289 -0.5670
  807MOL0     C 6430   2.421   4.814   0.019 -0.4367  0.2051 -0.4781
  807MOL0     C 6431   2.287   4.772  -0.054 -0.0029  1.1571 -0.2939
  807MOL0     C 6432   2.242   4.855  -0.180 -0.2869  0.5682 -0.3827
  807MOL0     C 6433   2.113   4.810  -0.235 -0.1731 -0.2985 -0.2300
  807MOL0     C 6434   2.141   4.674  -0.308  0.9215  0.3366  0.0794
  807MOL0     C 6435   2.204   4.696  -0.442  0.0064 -0.3204  0.1503
  807MOL0    Cl 6436   2.249   4.537  -0.504 -0.3409  0.2607  0.0239
  807MOL0     C 6437   2.702   5.004   0.440  0.5450  0.0235  0.2288
  807MOL0     C 6438   2.750   5.074   0.553  0.5002 -0.2645  0.5445
  807MOL0     O 6439   2.926   4.961   0.841 -0.2610  0.2942  0.2859
  807MOL0     C 6440   2.826   5.248   1.037  0.3561  0.4197  0.5289
  807MOL0     C 6441   2.888   5.327   1.133 -0.9479 -0.2489 -1.4280
  807MOL0     N 6442   3.287   5.899   1.446 -0.0586  1.0161 -0.0232
  807MOL0     N 6443   3.381   5.962   1.505 -0.2972  0.6927 -0.9931
  807MOL0     C 6444   4.358   5.309   1.851  0.0733 -0.5076 -0.0863
  807MOL0     C 6445   4.449   5.208   1.858 -0.3974 -0.2251  0.0979
  807MOL0     C 6446   4.857   4.990   1.868 -1.1172 -0.8552  0.4424
  807MOL0     C 6447   5.002   4.997   1.855  0.6520  0.3596 -0.0649
  807MOL0     C 6448   5.063   4.878   1.827  0.4226 -0.5739  0.1176
  807MOL0     C 6449   4.993   4.763   1.815  1.0109  0.7602  0.0270
  807MOL0     O 6450   5.071   4.656   1.805  0.3976  0.6239 -0.4455
  807MOL0     C 6451   5.014   4.533   1.861  0.6138  0.4691 -0.1333
  807MOL0     C 6452   5.131   4.443   1.895 -0.1755  1.2406 -0.2050
  807MOL0     C 6453   5.213   4.494   2.021 -0.0808  0.1904  1.4383
  807MOL0     C 6454   5.345   4.418   2.030 -0.2481 -1.1008 -0.7405
  807MOL0     C 6455   5.421   4.482   2.145 -0.5887 -0.1032  0.4272
  807MOL0     C 6456   5.480   4.511   2.242 -0.2992 -0.0593 -0.2737
  807MOL0     C 6457   4.857   4.764   1.836 -0.7999 -0.1720  0.6326
  807MOL0     C 6458   4.787   4.881   1.845  0.1914  0.2369  0.4633
  807MOL0     H 6459   4.689   5.359   2.046 -0.4268  1.5702  0.5833
  807MOL0     H 6460   4.521   5.536   2.045 -1.0508 -0.2120  1.6310
  807MOL0     H 6461   4.302   5.598   2.106  0.1888  1.6407 -1.0896
  807MOL0     H 6462   4.179   5.480   2.076 -0.4881 -0.0491 -0.0543
  807MOL0     H 6463   4.182   5.768   1.984 -0.8698  1.6059  0.7815
  807MOL0     H 6464   4.060   5.699   2.101 -0.7337 -0.2646 -1.1776
  807MOL0     H 6465   3.952   5.561   1.929  2.2499  0.7355  4.0791
  807MOL0     H 6466   4.067   5.620   1.811  0.5727 -0.5498  0.4813
  807MOL0     H 6467   3.879   5.804   1.960  0.5812 -0.0036  1.1312
  807MOL0     H 6468   3.996   5.845   1.834  1.7165 -1.9307  1.4200
  807MOL0     H 6469   3.758   5.668   1.775 -1.6880  1.2712 -1.4021
  807MOL0     H 6470   3.901   5.686   1.674 -0.8018 -1.3281  0.9098
  807MOL0     H 6471   3.852   5.926   1.634 -1.3225  4.8362  4.0583
  807MOL0     H 6472   3.732   5.914   1.767 -1.0844 -0.7668 -0.2829
  807MOL0     H 6473   3.724   5.763   1.504  0.1345  0.5119 -0.2485
  807MOL0     H 6474   3.588   5.779   1.622  0.2677 -1.8294 -1.6390
  807MOL0     H 6475   3.702   6.018   1.459 -0.0959  1.9707  0.2692
  807MOL0     H 6476   3.602   6.028   1.605 -2.1755 -0.1612 -1.4149
  807MOL0     H 6477   3.552   5.802   1.272  1.4417  0.5146  1.9741
  807MOL0     H 6478   3.275   5.625   1.306 -0.3434  0.9375  1.0856
  807MOL0     H 6479   3.310   5.711   1.161  3.5262 -1.4162  1.3167
  807MOL0     H 6480   3.111   5.826   1.157 -0.4309  0.8195  1.0859
  807MOL0     H 6481   3.057   5.790   1.328 -0.5182  0.2236 -0.5633
  807MOL0     H 6482   2.922   5.650   1.198  0.8313 -0.8984 -1.6437
  807MOL0     H 6483   3.057   5.601   1.091 -2.3751  0.2971 -1.7764
  807MOL0     H 6484   2.938   5.481   1.345  0.3829 -3.1084 -0.8432
  807MOL0     H 6485   3.081   5.553   1.394 -1.5717 -0.2763  0.6979
  807MOL0     H 6486   3.214   5.227   1.103  0.1726  1.0515  0.1441
  807MOL0     H 6487   3.107   5.080   0.953  2.4194  0.3517  1.6727
  807MOL0     H 6488   2.598   4.881   0.797  1.8616  2.3384  1.7588
  807MOL0     H 6489   2.529   4.755   0.612 -2.4454  1.5023 -0.1303
  807MOL0     H 6490   2.645   4.865   0.174  1.0010 -0.8829 -1.2543
  807MOL0     H 6491   2.517   4.964   0.247  1.1664  0.3305  1.8070
  807MOL0     H 6492   2.360   4.767   0.216 -0.6476  1.4330 -1.9490
  807MOL0     H 6493   2.482   4.668   0.143 -3.6255 -0.7703 -0.8230
  807MOL0     H 6494   2.513   4.785  -0.032  2.4625  5.2488  1.0990
  807MOL0     H 6495   2.423   4.924   0.014  0.0175  0.1419 -2.2761
  807MOL0     H 6496   2.294   4.663  -0.065 -2.0902  1.0101 -0.5493
  807MOL0     H 6497   2.206   4.783   0.018  0.0839  4.2138 -0.5476
  807MOL0     H 6498   2.326   4.840  -0.250  1.0135 -1.5566  1.4972
  807MOL0     H 6499   2.249   4.958  -0.145  3.0359 -0.3335  2.1459
  807MOL0     H 6500   2.087   4.881  -0.314 -0.5338 -2.6318 -2.3035
  807MOL0     H 6501   2.042   4.810  -0.151 -0.0679 -0.9552 -0.1371
  807MOL0     H 6502   2.197   4.620  -0.231 -0.6335  0.1967  1.1468
  807MOL0     H 6503   2.047   4.620  -0.321 -0.1972  1.3580  3.2019
  807MOL0     H 6504   2.288   4.766  -0.446  2.2705 -2.8872 -0.1322
  807MOL0     H 6505   2.129   4.733  -0.513 -2.6810 -0.3084  2.8114
  807MOL0     H 6506   2.739   5.044   0.346 -0.7596 -0.1937 -0.3984
  807MOL0     H 6507   2.813   5.160   0.533 -0.0117 -0.2897 -1.4197
  807MOL0     H 6508   2.719   5.238   1.030  0.4670  0.0745 -1.1967
  807MOL0     H 6509   2.828   5.393   1.196  2.2611  0.8836  0.6988
  807MOL0     H 6510   4.265   5.311   1.795  0.2963 -1.0890 -0.4823
  807MOL0     H 6511   4.422   5.116   1.807 -2.3271 -0.6688  1.8279
  807MOL0     H 6512   5.059   5.082   1.892  0.1527  2.5067 -3.7195
  807MOL0     H 6513   5.171   4.868   1.816  0.8602  2.0424  1.2937
  807MOL0     H 6514   4.956   4.483   1.783  1.7763 -2.1363  0.5714
  807MOL0     H 6515   4.951   4.540   1.950  0.5359 -2.0863  0.0663
  807MOL0     H 6516   5.099   4.341   1.919 -2.5496  0.9846 -3.6280
  807MOL0     H 6517   5.193   4.428   1.806  1.0521  2.0581  0.4901
  807MOL0     H 6518   5.159   4.489   2.116 -2.9128 -1.0233 -0.0835
  807MOL0     H 6519   5.227   4.600   1.998 -0.4743 -0.2051 -0.8287
  807MOL0     H 6520   5.335   4.309   2.039  0.6489 -1.0263  1.7886
  807MOL0     H 6521   5.395   4.427   1.933  0.2939 -0.1148 -0.3800
  807MOL0     H 6522   5.549   4.527   2.323  3.5850 -5.4611 -1.9731
  807MOL0     H 6523   4.802   4.672   1.815  3.9732 -2.6406 -2.9396
  807MOL0     H 6524   4.678   4.884   1.844  0.1482 -0.5637  1.2068
  808MOL0     O 6525   4.008   5.413  10.464 -0.0624  0.4987  0.2176
  808MOL0     C 6526   3.969   5.472  10.564 -1.1262 -0.2491  0.6943
  808MOL0     O 6527   3.843   5.519  10.579 -0.5404  0.4711  0.0596
  808MOL0     C 6528   3.760   5.486  10.475 -0.0286 -0.0949  0.2563
  808MOL0     C 6529   3.657   5.400  10.514  0.3135  0.5405 -1.1487
  808MOL0     C 6530   3.553   5.363  10.426 -0.3294  1.1227  0.6598
  808MOL0     C 6531   3.550   5.414  10.296  0.0022 -0.0349  0.4458
  808MOL0     O 6532   3.445   5.377  10.216 -0.4965  0.2441  0.5883
  808MOL0     C 6533   3.320   5.368  10.284  0.1906 -0.4742  0.7036
  808MOL0     C 6534   3.218   5.334  10.176 -0.3498  0.0030  0.4154
  808MOL0     C 6535   3.235   5.210  10.087 -0.1061  0.4874  0.4802
  808MOL0     C 6536   3.136   5.207   9.971 -0.4073 -0.3922  0.2726
  808MOL0     C 6537   3.000   5.164  10.026  0.8446  0.0621 -0.5812
  808MOL0     C 6538   2.890   5.139   9.920 -0.3933 -0.0633  0.8552
  808MOL0     C 6539   2.861   5.274   9.867  0.2404  1.0047  0.5847
  808MOL0     C 6540   2.733   5.272   9.793  0.7782  0.3688 -0.0343
  808MOL0     N 6541   2.721   5.378   9.688 -0.3903 -0.2181 -0.0950
  808MOL0     C 6542   2.734   5.506   9.727 -0.1910 -0.2393  0.8882
  808MOL0     C 6543   2.695   5.576   9.618 -0.2906 -0.1120  0.2249
  808MOL0     C 6544   2.674   5.723   9.606 -0.0221 -0.1086 -0.5050
  808MOL0     C 6545   2.674   5.771   9.456  0.3207  0.4613  0.6964
  808MOL0     C 6546   2.618   5.906   9.438  0.2433 -0.4922 -0.0079
  808MOL0     C 6547   2.571   5.923   9.291 -0.0010 -0.1248 -0.5513
  808MOL0     O 6548   2.453   5.851   9.267 -0.1892 -0.1037 -0.0820
  808MOL0     C 6549   2.329   5.914   9.241  0.4460  0.0754  1.1204
  808MOL0     C 6550   2.322   6.044   9.188  0.1124 -0.1903 -0.5528
  808MOL0     C 6551   2.193   6.097   9.165 -0.5928 -0.5095 -0.0650
  808MOL0     C 6552   2.084   6.016   9.180  0.2481  0.1341  0.3420
  808MOL0     C 6553   1.943   6.067   9.160 -0.0634  0.0215  0.5453
  808MOL0     O 6554   1.839   5.973   9.171  0.3312 -1.2562 -0.0634
  808MOL0     C 6555   1.712   6.021   9.151  0.1251  0.3400  0.7992
  808MOL0     C 6556   1.624   6.036   9.251  0.3569 -0.5590  0.8057
  808MOL0     C 6557   1.490   6.084   9.238  0.3510  0.4215 -1.2250
  808MOL0     C 6558   1.452   6.127   9.108  0.2043 -0.5971  0.3251
  808MOL0     O 6559   1.324   6.193   9.090 -0.1772 -0.9860  0.2689
  808MOL0     C 6560   1.301   6.289   8.979 -0.4206 -0.0556 -0.1428
  808MOL0     C 6561   1.234   6.210   8.868  0.1279 -0.2157 -0.4832
  808MOL0     C 6562   1.095   6.174   8.899 -0.1764 -0.6944  0.3403
  808MOL0     C 6563   0.985   6.292   8.891 -0.6481  0.8043 -0.0591
  808MOL0     C 6564   0.844   6.270   8.965  0.3501  0.3677 -0.7319
  808MOL0     C 6565   0.770   6.141   8.927  0.8016  0.7903  1.2252
  808MOL0     C 6566   0.629   6.145   8.987  1.0457  0.0311 -0.4754
  808MOL0     C 6567   0.532   6.035   8.936 -1.1693  0.5951 -1.8308
  808MOL0    Cl 6568   0.366   6.076   8.984  0.1662  0.5336  0.1998
  808MOL0     C 6569   1.540   6.114   8.997 -0.0066  0.2992  0.0669
  808MOL0     C 6570   1.665   6.060   9.027  0.2403 -0.0943  1.1401
  808MOL0     O 6571   1.931   6.190   9.148  0.1119  0.1679 -0.8976
  808MOL0     C 6572   2.094   5.885   9.226  0.0291 -0.1455 -0.0924
  808MOL0     C 6573   2.219   5.837   9.264  0.0590 -0.3415 -0.8119
  808MOL0     N 6574   2.659   5.489   9.514 -0.3989  0.2468  0.0328
  808MOL0     N 6575   2.680   5.371   9.564 -1.3395  0.2533  0.2322
  808MOL0     C 6576   3.654   5.498  10.252 -0.6066  0.3204  1.0007
  808MOL0     C 6577   3.759   5.534  10.340  0.2841  0.3917 -0.8753
  808MOL0     C 6578   4.057   5.486  10.685  0.4275  0.0755  0.9301
  808MOL0     C 6579   4.186   5.424  10.688  0.0582  0.4967 -0.3465
  808MOL0     C 6580   4.284   5.457  10.778  0.1581  0.4667  0.3921
  808MOL0     C 6581   4.259   5.554  10.872  0.1014 -0.2720 -0.5983
  808MOL0     O 6582   4.359   5.603  10.948 -0.6772  0.1632  0.2278
  808MOL0     C 6583   4.341   5.611  11.092  0.7610  0.3619  0.5503
  808MOL0     C 6584   4.338   5.471  11.150  0.1296 -0.5030  0.6115
  808MOL0     C 6585   4.467   5.382  11.136 -0.6237  0.2391  0.1885
  808MOL0     C 6586   4.596   5.458  11.152  0.0767 -0.8656  0.1291
  808MOL0     C 6587   4.702   5.355  11.179 -0.1497 -0.2595  0.9366
  808MOL0     C 6588   4.788   5.270  11.208  0.8845  0.2480  0.6245
  808MOL0     C 6589   4.137   5.620  10.869  0.5745 -0.6001  0.1314
  808MOL0     C 6590   4.025   5.575  10.785 -0.3484  0.2932  0.7294
  808MOL0     H 6591   3.639   5.363  10.614 -0.1200  0.5262 -1.2288
  808MOL0     H 6592   3.468   5.307  10.465 -0.7961  0.5388 -1.0807
  808MOL0     H 6593   3.298   5.461  10.337  0.3002  0.0783 -0.2000
  808MOL0     H 6594   3.305   5.277  10.342 -0.1783 -0.1887  1.0573
  808MOL0     H 6595   3.217   5.421  10.110  1.5395  0.0329  0.3762
  808MOL0     H 6596   3.127   5.322  10.235  0.4610  0.5118  1.8373
  808MOL0     H 6597   3.228   5.127  10.158  2.3039  0.3053  0.5665
  808MOL0     H 6598   3.332   5.207  10.038 -0.2108  1.5329  0.1844
  808MOL0     H 6599   3.128   5.300   9.913 -4.9101 -1.5982 -1.4724
  808MOL0     H 6600   3.172   5.133   9.900  0.4340  0.4478 -0.1988
  808MOL0     H 6601   2.969   5.246  10.092  1.0336  0.7057 -1.2841
  808MOL0     H 6602   3.007   5.081  10.096  1.1017 -0.9585 -1.7923
  808MOL0     H 6603   2.800   5.095   9.964 -0.0000 -0.8345  0.9021
  808MOL0     H 6604   2.922   5.077   9.835  0.0726 -0.2136  1.1325
  808MOL0     H 6605   2.835   5.342   9.948 -0.1106  0.4306  0.9626
  808MOL0     H 6606   2.940   5.303   9.797 -0.5537  1.3796 -0.1804
  808MOL0     H 6607   2.656   5.293   9.868  0.3464 -0.6857 -0.1696
  808MOL0     H 6608   2.717   5.171   9.756 -1.7551  2.2780 -5.1703
  808MOL0     H 6609   2.755   5.563   9.817 -0.4339 -1.8152  1.9946
  808MOL0     H 6610   2.753   5.775   9.661 -0.3914 -1.1626  1.0863
  808MOL0     H 6611   2.581   5.751   9.655 -0.7740 -3.0226 -0.0858
  808MOL0     H 6612   2.612   5.706   9.394 -0.0926  1.7562 -0.2873
  808MOL0     H 6613   2.780   5.760   9.430 -0.1452 -0.7626 -0.8304
  808MOL0     H 6614   2.527   5.917   9.498  0.7776 -0.2816  0.7884
  808MOL0     H 6615   2.700   5.977   9.455 -1.3223  0.7736  3.1037
  808MOL0     H 6616   2.643   5.865   9.233 -2.4384 -3.1635 -0.7864
  808MOL0     H 6617   2.569   6.025   9.251 -1.7825 -1.0707 -3.1506
  808MOL0     H 6618   2.397   6.118   9.160 -2.1376  2.1434 -0.8064
  808MOL0     H 6619   2.195   6.189   9.107  0.0581 -1.6282 -1.9179
  808MOL0     H 6620   1.657   5.995   9.347 -1.5968  0.6261  2.0529
  808MOL0     H 6621   1.421   6.091   9.322  1.5490  0.1162 -0.1812
  808MOL0     H 6622   1.397   6.319   8.936 -1.3384  0.7933 -1.6608
  808MOL0     H 6623   1.249   6.376   9.021 -1.4077  0.1207 -1.6835
  808MOL0     H 6624   1.292   6.120   8.845  2.2964  0.4923  1.7324
  808MOL0     H 6625   1.244   6.273   8.779 -0.5131  2.3177  1.1456
  808MOL0     H 6626   1.088   6.118   8.993 -1.8317  1.4756  1.6039
  808MOL0     H 6627   1.073   6.107   8.815  0.2154 -1.2996  0.7140
  808MOL0     H 6628   1.033   6.384   8.927  2.6736 -1.1518  0.8946
  808MOL0     H 6629   0.961   6.322   8.789  2.0872  2.6314 -0.2964
  808MOL0     H 6630   0.789   6.358   8.931 -1.3242 -0.2578  0.1986
  808MOL0     H 6631   0.850   6.285   9.073  1.9250 -0.9629 -0.6017
  808MOL0     H 6632   0.830   6.058   8.965 -0.5762  0.6102  3.1018
  808MOL0     H 6633   0.767   6.141   8.817 -0.5022 -2.3766  1.1832
  808MOL0     H 6634   0.621   6.138   9.096 -0.2163  0.5298 -0.5174
  808MOL0     H 6635   0.576   6.237   8.959  1.8866  0.8472  0.5344
  808MOL0     H 6636   0.552   5.932   8.966 -4.1267  0.1411 -1.0391
  808MOL0     H 6637   0.541   6.033   8.827  4.3399 -0.5418 -1.6538
  808MOL0     H 6638   1.517   6.154   8.898 -0.9560 -0.2012  0.0708
  808MOL0     H 6639   1.739   6.053   8.948  1.9101  1.4570  2.4715
  808MOL0     H 6640   2.010   5.818   9.239  0.8600 -0.8463  1.9133
  808MOL0     H 6641   2.231   5.741   9.312  0.4116 -0.0371 -0.2815
  808MOL0     H 6642   3.648   5.536  10.151 -1.4340  0.7720  1.2090
  808MOL0     H 6643   3.851   5.586  10.314  2.0409 -1.3502  1.3394
  808MOL0     H 6644   4.191   5.335  10.626  3.4588 -1.5432  2.5032
  808MOL0     H 6645   4.373   5.397  10.764  0.6664  1.4319 -0.6895
  808MOL0     H 6646   4.246   5.656  11.121 -1.0995 -2.1025 -1.2371
  808MOL0     H 6647   4.414   5.670  11.147 -0.0940  1.5711  0.4091
  808MOL0     H 6648   4.327   5.477  11.259 -0.0959  1.7445  0.5061
  808MOL0     H 6649   4.256   5.412  11.109 -0.8287 -0.3762  2.2614
  808MOL0     H 6650   4.471   5.315  11.050  0.2619 -0.4029  0.7139
  808MOL0     H 6651   4.457   5.319  11.225 -2.8458  1.3096  0.7600
  808MOL0     H 6652   4.629   5.533  11.080  0.9093  0.6531  1.9872
  808MOL0     H 6653   4.586   5.525  11.238  2.1621  0.1013 -0.3142
  808MOL0     H 6654   4.850   5.184  11.223 -0.3883 -0.4517  2.1753
  808MOL0     H 6655   4.140   5.697  10.945  0.2076 -2.5163  2.2078
  808MOL0     H 6656   3.927   5.620  10.774 -0.6565 -1.0118 -3.1757
  809MOL0     O 6657   7.950   1.218   5.637 -0.5162  0.6333  0.4704
  809MOL0     C 6658   7.854   1.146   5.668 -0.4061  0.2910 -0.2897
  809MOL0     O 6659   7.857   1.056   5.776 -0.0061  0.1085  0.0668
  809MOL0     C 6660   7.967   1.025   5.846 -0.3396 -0.0206 -1.3828
  809MOL0     C 6661   8.103   1.030   5.793  0.7779 -1.2513 -0.2096
  809MOL0     C 6662   8.212   0.994   5.872 -0.0386 -0.6505 -0.5801
  809MOL0     C 6663   8.189   0.963   6.010 -0.0611 -0.0316 -0.0556
  809MOL0     O 6664   8.287   0.955   6.111 -1.0405  0.1950  0.1150
  809MOL0     C 6665   8.370   1.070   6.079 -0.4260 -0.0566 -0.7982
  809MOL0     C 6666   8.427   1.133   6.207  0.0229 -0.6267  0.1030
  809MOL0     C 6667   8.316   1.215   6.280 -0.4193  0.7501  0.0046
  809MOL0     C 6668   8.371   1.298   6.396  0.4807 -0.4076  0.1914
  809MOL0     C 6669   8.442   1.418   6.345 -1.7891  1.4357  0.7843
  809MOL0     C 6670   8.450   1.517   6.460  1.0348  1.5251 -0.1453
  809MOL0     C 6671   8.526   1.639   6.426  1.3372 -1.0367 -0.0351
  809MOL0     C 6672   8.557   1.738   6.544  0.5339 -0.8881 -0.8343
  809MOL0     N 6673   8.638   1.853   6.496  0.6729  0.0742  0.2580
  809MOL0     C 6674   8.763   1.871   6.537 -0.0061 -0.9724 -1.1963
  809MOL0     C 6675   8.816   1.971   6.468 -1.5476 -0.7523 -0.1264
  809MOL0     C 6676   8.957   2.025   6.473  0.7150 -0.6044  1.4956
  809MOL0     C 6677   9.041   1.951   6.355  0.2008 -0.4115 -0.4480
  809MOL0     C 6678   9.170   2.025   6.296 -0.1908 -0.9098  0.5807
  809MOL0     C 6679   9.145   2.165   6.248  0.1192  0.3208  0.5920
  809MOL0     O 6680   9.036   2.161   6.146  0.0863 -0.7447  0.4266
  809MOL0     C 6681   9.021   2.262   6.054 -0.3669 -0.5017  0.2844
  809MOL0     C 6682   9.097   2.373   6.047  0.0622 -0.4432 -0.1846
  809MOL0     C 6683   9.049   2.484   5.971  0.9253  0.7386  0.6496
  809MOL0     C 6684   8.927   2.474   5.897  1.1267 -0.4967 -0.3158
  809MOL0     C 6685   8.878   2.582   5.802 -0.6635  0.5831  1.3094
  809MOL0     O 6686   8.971   2.670   5.760  0.7988 -0.0945  0.5145
  809MOL0     C 6687   8.961   2.731   5.635 -0.7306  0.4846  0.5758
  809MOL0     C 6688   9.045   2.835   5.618 -0.4835  0.1882  0.1571
  809MOL0     C 6689   9.052   2.910   5.494 -0.5607  1.0100  0.3106
  809MOL0     C 6690   8.972   2.874   5.395  0.5325  0.2692 -0.3153
  809MOL0     O 6691   8.963   2.947   5.277  0.2296 -0.5679 -0.1113
  809MOL0     C 6692   9.042   3.076   5.262 -0.1207  0.7314 -0.0268
  809MOL0     C 6693   9.186   3.030   5.221 -0.8411  0.9328  0.5332
  809MOL0     C 6694   9.209   3.033   5.070 -0.3304 -0.5960 -0.1810
  809MOL0     C 6695   9.238   3.175   5.018  0.5913  0.5934 -0.6327
  809MOL0     C 6696   9.271   3.170   4.867  0.0819 -0.2743 -1.3647
  809MOL0     C 6697   9.276   3.299   4.791  0.2666  0.1456  0.0366
  809MOL0     C 6698   9.370   3.405   4.866  0.0850  0.0328  0.0937
  809MOL0     C 6699   9.450   3.492   4.762  0.4132 -0.4337  0.2103
  809MOL0    Cl 6700   9.628   3.482   4.779 -0.1795 -0.0313  0.5747
  809MOL0     C 6701   8.884   2.762   5.412  0.2174  0.2287  0.1648
  809MOL0     C 6702   8.883   2.691   5.532 -0.2149  0.4272  0.5362
  809MOL0     O 6703   8.765   2.586   5.770  0.1087 -0.2988  0.2041
  809MOL0     C 6704   8.850   2.359   5.917  0.4700  0.8651  0.3919
  809MOL0     C 6705   8.899   2.254   5.992 -0.1270 -0.6854  0.8407
  809MOL0     N 6706   8.714   2.029   6.388 -0.5930 -0.0847  0.2967
  809MOL0     N 6707   8.605   1.954   6.413  0.5461  0.6416 -0.2954
  809MOL0     C 6708   8.056   0.946   6.055 -0.8112 -1.1025  0.3135
  809MOL0     C 6709   7.949   0.976   5.974  0.2489  0.4468 -0.0746
  809MOL0     C 6710   7.722   1.146   5.593 -0.5441 -0.2519 -0.0605
  809MOL0     C 6711   7.605   1.093   5.652 -0.1433 -0.1925  0.3469
  809MOL0     C 6712   7.487   1.099   5.573 -0.5699  0.6773 -0.0340
  809MOL0     C 6713   7.475   1.170   5.451  1.5733 -0.4867 -0.8898
  809MOL0     O 6714   7.358   1.195   5.382 -0.5592  0.3508  0.1778
  809MOL0     C 6715   7.241   1.161   5.443  0.7477 -0.6347  0.4990
  809MOL0     C 6716   7.125   1.201   5.351 -0.7435  0.2273  0.3501
  809MOL0     C 6717   6.993   1.186   5.425 -0.3658 -0.1868 -0.0165
  809MOL0     C 6718   6.881   1.258   5.349 -0.3550 -0.6107 -0.2370
  809MOL0     C 6719   6.897   1.404   5.344  0.8193  0.5777 -0.1491
  809MOL0     C 6720   6.899   1.529   5.333  0.1486 -0.6333 -0.2489
  809MOL0     C 6721   7.595   1.215   5.397 -0.1490  0.7963  0.3557
  809MOL0     C 6722   7.717   1.216   5.468 -0.4084 -0.0921 -0.0364
  809MOL0     H 6723   8.122   1.068   5.693 -0.9352 -1.7793 -0.7817
  809MOL0     H 6724   8.311   0.994   5.827  0.2167  1.8512 -0.1883
  809MOL0     H 6725   8.309   1.147   6.032 -3.3866 -2.7951 -1.7730
  809MOL0     H 6726   8.460   1.043   6.023  0.1584 -2.5671  1.1374
  809MOL0     H 6727   8.513   1.200   6.193  0.0232 -0.3349  1.3497
  809MOL0     H 6728   8.468   1.059   6.277  0.2351  0.6830  1.4151
  809MOL0     H 6729   8.240   1.142   6.306  1.4485 -1.5544 -0.6940
  809MOL0     H 6730   8.269   1.279   6.205 -0.2299 -0.3637 -1.0872
  809MOL0     H 6731   8.288   1.334   6.457  0.4791  2.7834 -1.4827
  809MOL0     H 6732   8.435   1.242   6.466 -1.1928 -2.2861  0.2889
  809MOL0     H 6733   8.390   1.459   6.258  3.2723  1.9310 -2.4121
  809MOL0     H 6734   8.539   1.390   6.305 -2.1959  1.8159 -0.5122
  809MOL0     H 6735   8.493   1.474   6.551  0.6123  0.3817 -0.4545
  809MOL0     H 6736   8.346   1.538   6.486  0.9466 -0.6971  1.6633
  809MOL0     H 6737   8.624   1.607   6.390  2.6748  0.1092  2.3572
  809MOL0     H 6738   8.475   1.694   6.347 -0.7746 -1.5147  0.9158
  809MOL0     H 6739   8.608   1.689   6.628 -1.1113  2.7164  2.5932
  809MOL0     H 6740   8.465   1.781   6.585  0.7394  0.0532 -1.3397
  809MOL0     H 6741   8.826   1.817   6.608  1.8949  2.1066 -0.3637
  809MOL0     H 6742   8.994   2.021   6.576 -0.1284 -4.1871  1.8015
  809MOL0     H 6743   8.948   2.129   6.439 -1.4122 -0.3824  2.6229
  809MOL0     H 6744   8.965   1.936   6.278 -1.4822  2.8065  0.4280
  809MOL0     H 6745   9.086   1.856   6.385  4.0522  0.7797 -1.7541
  809MOL0     H 6746   9.242   2.039   6.378 -2.6228  0.7227  2.5574
  809MOL0     H 6747   9.220   1.972   6.214 -1.6007 -2.3460  0.6199
  809MOL0     H 6748   9.235   2.205   6.200 -1.3047  2.9528 -0.0835
  809MOL0     H 6749   9.113   2.223   6.335 -2.0371 -1.3458  0.9896
  809MOL0     H 6750   9.190   2.375   6.102  0.2231 -0.4270 -0.4555
  809MOL0     H 6751   9.098   2.581   5.965  0.9843  0.6140 -2.2111
  809MOL0     H 6752   9.103   2.877   5.700 -1.7707  1.3200  0.5123
  809MOL0     H 6753   9.126   2.988   5.485 -0.6167  1.1159  0.7488
  809MOL0     H 6754   9.047   3.146   5.346 -1.8655  0.2821  0.4896
  809MOL0     H 6755   8.988   3.126   5.181 -0.5406 -0.8069 -0.7216
  809MOL0     H 6756   9.198   2.928   5.258  4.2800  0.4593 -1.5729
  809MOL0     H 6757   9.256   3.089   5.281 -1.5001  0.0386  2.2260
  809MOL0     H 6758   9.123   2.991   5.018 -1.0879 -0.2286  0.7353
  809MOL0     H 6759   9.297   2.970   5.051  1.9871  2.2368  0.3215
  809MOL0     H 6760   9.150   3.238   5.033  0.8424  0.5803  1.0393
  809MOL0     H 6761   9.317   3.219   5.078 -0.0936  1.6131 -0.4604
  809MOL0     H 6762   9.197   3.105   4.817  1.0177 -2.4022 -0.1130
  809MOL0     H 6763   9.358   3.104   4.861 -0.9405 -2.0273  1.3552
  809MOL0     H 6764   9.180   3.349   4.778  0.8455  1.6785  1.3619
  809MOL0     H 6765   9.306   3.267   4.690 -0.2717 -1.8632  0.4637
  809MOL0     H 6766   9.314   3.464   4.939 -1.8906 -0.8475 -0.6201
  809MOL0     H 6767   9.443   3.339   4.914  0.1884 -2.0745 -2.6525
  809MOL0     H 6768   9.407   3.593   4.768 -0.6057 -0.7299 -1.6016
  809MOL0     H 6769   9.430   3.465   4.658 -2.0277 -1.6326  0.9148
  809MOL0     H 6770   8.828   2.738   5.323  0.4494 -0.5211  0.2172
  809MOL0     H 6771   8.813   2.608   5.543 -0.8594  0.9130  0.1348
  809MOL0     H 6772   8.756   2.342   5.864  0.0679  0.8961  1.0837
  809MOL0     H 6773   8.836   2.166   5.995 -0.5373 -0.4471 -0.3443
  809MOL0     H 6774   8.043   0.926   6.161 -2.0718  2.3331  0.9410
  809MOL0     H 6775   7.852   0.988   6.021  1.8277 -0.8509  3.9227
  809MOL0     H 6776   7.618   1.047   5.749  1.1965  2.2025  1.3747
  809MOL0     H 6777   7.404   1.044   5.617  0.2564 -1.2306 -0.7157
  809MOL0     H 6778   7.237   1.209   5.542  2.3682 -1.1737  0.8630
  809MOL0     H 6779   7.237   1.053   5.460  2.2728 -0.7590  0.1941
  809MOL0     H 6780   7.137   1.307   5.325 -1.5474 -0.5066 -3.7075
  809MOL0     H 6781   7.134   1.140   5.260  0.4084 -1.5709  1.5843
  809MOL0     H 6782   6.994   1.229   5.526 -0.1566 -4.1367  1.8458
  809MOL0     H 6783   6.965   1.082   5.443  0.2256 -0.4599 -0.6422
  809MOL0     H 6784   6.883   1.210   5.251  2.8441 -1.4611  0.1434
  809MOL0     H 6785   6.786   1.238   5.399  0.1810 -0.2593  0.9565
  809MOL0     H 6786   6.896   1.636   5.328 -0.2580 -0.5712  1.0682
  809MOL0     H 6787   7.593   1.264   5.300  2.1553 -2.4691 -1.5103
  809MOL0     H 6788   7.805   1.269   5.434 -0.6064  1.1867  1.3437
  810MOL0     O 6789   7.556   7.032  10.144  0.2609  0.3065  0.1842
  810MOL0     C 6790   7.510   7.052  10.036 -0.2343  0.3549 -0.8868
  810MOL0     O 6791   7.381   7.011   9.991  0.1535  0.3342  0.7116
  810MOL0     C 6792   7.279   7.004  10.087  0.3992  0.2947  0.8295
  810MOL0     C 6793   7.155   6.968  10.030  0.5705  0.6162 -0.8910
  810MOL0     C 6794   7.041   6.942  10.120 -0.1088 -0.4739 -1.0233
  810MOL0     C 6795   7.053   6.978  10.248  0.6431  0.1512  0.4008
  810MOL0     O 6796   6.935   6.988  10.327  1.4655 -0.5274  0.3119
  810MOL0     C 6797   6.938   6.925  10.458  0.0685 -0.3605 -1.0788
  810MOL0     C 6798   6.804   6.893  10.504  0.2233 -0.3506  1.1913
  810MOL0     C 6799   6.708   7.013  10.534 -0.1775 -0.7996 -1.3748
  810MOL0     C 6800   6.757   7.099  10.654 -0.5927 -0.4959  0.0876
  810MOL0     C 6801   6.657   7.204  10.710  0.7232 -0.7184 -0.1023
  810MOL0     C 6802   6.608   7.308  10.604 -0.0075  0.0783  0.1284
  810MOL0     C 6803   6.706   7.400  10.532 -0.4209 -0.0759  0.6336
  810MOL0     C 6804   6.728   7.362  10.383 -0.1352  0.3882  0.2999
  810MOL0     N 6805   6.838   7.426  10.317  0.7042 -0.8369  1.3050
  810MOL0     C 6806   6.928   7.371  10.237  0.8951  0.2145 -0.1185
  810MOL0     C 6807   7.007   7.472  10.201 -1.4281 -0.7608 -0.3290
  810MOL0     C 6808   7.138   7.461  10.125 -0.3300  0.6484  0.0517
  810MOL0     C 6809   7.193   7.589  10.046 -0.8872  0.3297  0.2407
  810MOL0     C 6810   7.103   7.621   9.929  0.2062 -0.1583 -0.7806
  810MOL0     C 6811   7.172   7.578   9.792  0.4969  0.1494  1.2235
  810MOL0     O 6812   7.176   7.438   9.801 -0.3049  0.0002  0.6877
  810MOL0     C 6813   7.195   7.362   9.695  0.1555  0.1765  0.2313
  810MOL0     C 6814   7.226   7.234   9.734  0.2490  0.0137 -0.3940
  810MOL0     C 6815   7.275   7.139   9.639  0.3115 -1.5183  0.5176
  810MOL0     C 6816   7.286   7.179   9.503 -0.0511 -0.2692  0.6575
  810MOL0     C 6817   7.326   7.077   9.399  0.0177 -0.3610  0.1651
  810MOL0     O 6818   7.343   7.122   9.269 -0.6440  0.0961 -0.1588
  810MOL0     C 6819   7.372   7.033   9.168  0.1850 -0.3950 -0.1609
  810MOL0     C 6820   7.281   6.984   9.073 -1.2018  0.0796 -0.3619
  810MOL0     C 6821   7.326   6.914   8.960 -0.1330  0.6096  0.4899
  810MOL0     C 6822   7.464   6.889   8.935 -0.3588 -0.1606 -0.9779
  810MOL0     O 6823   7.506   6.800   8.841  0.3019 -0.1354 -0.4729
  810MOL0     C 6824   7.435   6.798   8.720 -0.2067  0.7684  0.2434
  810MOL0     C 6825   7.360   6.671   8.706 -0.1010 -1.0749  0.0539
  810MOL0     C 6826   7.329   6.632   8.563  0.2158  0.0198 -1.0977
  810MOL0     C 6827   7.454   6.575   8.485 -0.7810 -0.3834  0.8069
  810MOL0     C 6828   7.414   6.541   8.340 -0.1061 -0.2569 -1.1243
  810MOL0     C 6829   7.506   6.477   8.237  0.1819  0.4674 -0.4251
  810MOL0     C 6830   7.578   6.346   8.278  0.1859 -0.1277  0.9089
  810MOL0     C 6831   7.481   6.237   8.317 -0.9344  0.4396  0.5348
  810MOL0    Cl 6832   7.410   6.168   8.172  0.1633  0.1239  0.2082
  810MOL0     C 6833   7.552   6.939   9.036  0.5850 -0.3315  0.6823
  810MOL0     C 6834   7.510   7.013   9.152 -0.3514  0.2378  0.4828
  810MOL0     O 6835   7.329   6.959   9.437  0.7451 -0.7230 -1.0262
  810MOL0     C 6836   7.260   7.313   9.472 -0.1240  0.1663  0.1567
  810MOL0     C 6837   7.208   7.403   9.560 -0.0538 -0.3092 -0.3412
  810MOL0     N 6838   6.960   7.593  10.257 -0.9808 -0.0877 -0.2774
  810MOL0     N 6839   6.854   7.564  10.324  0.0190  0.1041 -0.3522
  810MOL0     C 6840   7.173   7.026  10.303  0.5403  0.2362 -0.4336
  810MOL0     C 6841   7.284   7.040  10.221  0.1408 -0.4556 -0.1840
  810MOL0     C 6842   7.621   7.092   9.946  0.1707 -0.1718  0.4925
  810MOL0     C 6843   7.744   7.136   9.987  0.2048  0.7983 -0.2865
  810MOL0     C 6844   7.844   7.180   9.898  0.1876 -1.4499 -0.3024
  810MOL0     C 6845   7.817   7.176   9.765 -0.7521  0.2586 -0.8276
  810MOL0     O 6846   7.909   7.207   9.664  0.4829  0.0552 -0.1226
  810MOL0     C 6847   8.043   7.228   9.701  0.4962  0.0654 -0.6149
  810MOL0     C 6848   8.056   7.372   9.748  0.4075  0.3195 -0.3300
  810MOL0     C 6849   8.192   7.399   9.801 -1.3774  0.1548 -0.4264
  810MOL0     C 6850   8.209   7.340   9.944  0.7254 -1.4662 -0.5286
  810MOL0     C 6851   8.349   7.359   9.998 -0.7906 -0.5595  0.7791
  810MOL0     C 6852   8.462   7.385  10.036  0.3291 -0.3617  0.6117
  810MOL0     C 6853   7.697   7.127   9.720  0.0246  0.3053  0.1722
  810MOL0     C 6854   7.595   7.081   9.803 -0.8280  0.9450 -1.1294
  810MOL0     H 6855   7.142   6.939   9.926  3.3355  0.2173 -1.1848
  810MOL0     H 6856   6.949   6.908  10.073 -0.7152  1.1776 -1.1003
  810MOL0     H 6857   6.997   6.993  10.521  1.2809  1.2929 -3.8183
  810MOL0     H 6858   6.985   6.827  10.456  0.0383 -0.3686 -1.4040
  810MOL0     H 6859   6.817   6.827  10.590  1.5525  0.5024  1.6826
  810MOL0     H 6860   6.758   6.822  10.434 -1.4913 -1.7960  3.6533
  810MOL0     H 6861   6.614   6.968  10.568  0.1864 -1.4084 -1.1551
  810MOL0     H 6862   6.675   7.082  10.456 -0.9403  0.6700  0.1909
  810MOL0     H 6863   6.792   7.040  10.739 -0.0220 -0.2926 -0.0037
  810MOL0     H 6864   6.838   7.165  10.622 -0.3783 -0.4874  0.6511
  810MOL0     H 6865   6.703   7.260  10.792  1.1774 -1.7190  0.3398
  810MOL0     H 6866   6.575   7.142  10.747  1.2613 -3.3091 -2.9215
  810MOL0     H 6867   6.531   7.365  10.656  0.7566  0.4698  0.8651
  810MOL0     H 6868   6.548   7.254  10.530 -1.0113  0.6428  0.5084
  810MOL0     H 6869   6.671   7.504  10.529  0.7936  0.3514  0.6905
  810MOL0     H 6870   6.795   7.400  10.596  0.9847  2.6588 -1.1697
  810MOL0     H 6871   6.628   7.372  10.341  0.6252 -3.0366 -2.7969
  810MOL0     H 6872   6.744   7.254  10.390  0.4340  0.5342  1.5496
  810MOL0     H 6873   6.931   7.264  10.220  0.0073 -0.4779  3.3905
  810MOL0     H 6874   7.148   7.382  10.050  0.8694  3.7849 -3.4494
  810MOL0     H 6875   7.209   7.453  10.208 -1.1704  0.3912  0.7493
  810MOL0     H 6876   7.297   7.588  10.014  0.1780 -3.3750  3.0737
  810MOL0     H 6877   7.175   7.666  10.122 -2.9779 -1.5628  1.8132
  810MOL0     H 6878   7.002   7.588   9.956  0.4785  0.5638  1.3226
  810MOL0     H 6879   7.092   7.729   9.933 -0.4771 -0.2598  0.7751
  810MOL0     H 6880   7.263   7.631   9.761 -0.9242  1.3533 -1.1164
  810MOL0     H 6881   7.101   7.604   9.713  3.5608  1.4172 -1.3451
  810MOL0     H 6882   7.221   7.207   9.839  0.9396 -3.0257 -1.0422
  810MOL0     H 6883   7.297   7.037   9.666  1.3975 -1.8075 -1.2850
  810MOL0     H 6884   7.176   7.007   9.089 -1.6469 -2.1758  0.2987
  810MOL0     H 6885   7.248   6.878   8.894 -0.7291  0.3764  1.3084
  810MOL0     H 6886   7.503   6.805   8.634 -0.7791 -0.0454 -0.2847
  810MOL0     H 6887   7.368   6.882   8.705 -0.0932  0.6936 -0.7688
  810MOL0     H 6888   7.271   6.692   8.767 -0.8216  2.4975 -1.9479
  810MOL0     H 6889   7.421   6.591   8.751 -0.4324 -2.2219 -1.4476
  810MOL0     H 6890   7.279   6.715   8.514 -0.0453  0.6648  0.2122
  810MOL0     H 6891   7.251   6.555   8.567 -0.5585  0.8263  1.1103
  810MOL0     H 6892   7.532   6.651   8.480 -2.6224  1.5140 -2.2615
  810MOL0     H 6893   7.493   6.489   8.541 -0.4145 -1.1708 -0.6188
  810MOL0     H 6894   7.374   6.634   8.297  1.3222  1.1546  0.4298
  810MOL0     H 6895   7.333   6.469   8.354 -0.1596 -0.4602 -2.4022
  810MOL0     H 6896   7.587   6.549   8.222  0.9719 -0.2989  0.1006
  810MOL0     H 6897   7.449   6.467   8.144 -0.6036  5.7785 -0.8569
  810MOL0     H 6898   7.631   6.308   8.190 -1.9334  0.6332 -0.7977
  810MOL0     H 6899   7.658   6.365   8.349  1.3347  0.1546 -0.4055
  810MOL0     H 6900   7.411   6.263   8.397  0.3512  0.1552  1.8036
  810MOL0     H 6901   7.540   6.153   8.356  0.7388 -1.1256 -4.5056
  810MOL0     H 6902   7.656   6.909   9.036  0.2228 -1.7231  1.9843
  810MOL0     H 6903   7.567   7.049   9.237  0.3364 -0.0002  0.1281
  810MOL0     H 6904   7.281   7.336   9.368  0.4439 -0.3809  0.1490
  810MOL0     H 6905   7.194   7.500   9.514  1.0652  0.2328  0.4184
  810MOL0     H 6906   7.174   7.042  10.411 -0.2438 -1.2214 -0.1926
  810MOL0     H 6907   7.372   7.087  10.263  0.4296  0.0788 -1.3389
  810MOL0     H 6908   7.757   7.139  10.094 -1.5208 -0.2550 -0.0156
  810MOL0     H 6909   7.939   7.210   9.940 -1.1799 -0.2536  2.1660
  810MOL0     H 6910   8.101   7.215   9.609 -0.4381 -0.0727 -1.1893
  810MOL0     H 6911   8.078   7.152   9.772  1.9859  2.3590  1.2606
  810MOL0     H 6912   8.028   7.423   9.655 -0.0464  2.1326  0.7647
  810MOL0     H 6913   7.983   7.403   9.822 -0.5709  0.8851 -1.4943
  810MOL0     H 6914   8.207   7.508   9.794 -0.7742  0.0234 -1.3547
  810MOL0     H 6915   8.268   7.367   9.729 -2.2401  1.8860 -2.2248
  810MOL0     H 6916   8.142   7.383  10.019  1.7669 -0.8984  0.1030
  810MOL0     H 6917   8.180   7.234   9.946  0.1552 -1.2993  0.5075
  810MOL0     H 6918   8.567   7.395  10.056  0.5800 -1.3075 -0.1378
  810MOL0     H 6919   7.687   7.116   9.612  0.2580 -0.0878  0.1879
  810MOL0     H 6920   7.501   7.037   9.769 -0.2558 -1.7021  0.4258
  811MOL0     O 6921   3.545   2.365   3.314  0.1090 -0.3459  0.1688
  811MOL0     C 6922   3.483   2.468   3.281  0.3976  0.0715  0.1058
  811MOL0     O 6923   3.538   2.582   3.224 -0.0678  0.6932 -0.8228
  811MOL0     C 6924   3.669   2.612   3.246 -0.7431 -0.3413  0.2056
  811MOL0     C 6925   3.738   2.668   3.137  0.1052  0.9402 -0.4041
  811MOL0     C 6926   3.874   2.703   3.144  1.3129  0.6380  0.9962
  811MOL0     C 6927   3.948   2.672   3.258  0.4611 -0.0301  0.9263
  811MOL0     O 6928   4.084   2.683   3.250  0.6080  0.1970 -0.2725
  811MOL0     C 6929   4.180   2.630   3.339 -0.2997 -0.0415  0.2446
  811MOL0     C 6930   4.322   2.677   3.287 -0.6774  0.4947  0.1826
  811MOL0     C 6931   4.435   2.610   3.369 -0.4251  0.2356  0.1340
  811MOL0     C 6932   4.573   2.666   3.346  0.5911  0.2289 -0.6892
  811MOL0     C 6933   4.676   2.580   3.426 -0.2808  0.5326  0.6883
  811MOL0     C 6934   4.808   2.644   3.397 -0.8706  0.3007 -0.7434
  811MOL0     C 6935   4.922   2.586   3.489  1.5830 -0.9698 -0.5468
  811MOL0     C 6936   4.957   2.450   3.435  0.1603 -0.7574 -1.1848
  811MOL0     N 6937   4.983   2.438   3.297 -0.2193  0.0684 -0.0069
  811MOL0     C 6938   5.103   2.468   3.245 -0.5941 -0.4065  0.4906
  811MOL0     C 6939   5.112   2.383   3.136  0.6092 -0.2144 -0.5629
  811MOL0     C 6940   5.229   2.388   3.031  0.5797  0.2533  0.2560
  811MOL0     C 6941   5.374   2.382   3.095 -0.6956  0.0471  0.3264
  811MOL0     C 6942   5.399   2.257   3.177 -0.2469 -0.1956 -0.0608
  811MOL0     C 6943   5.544   2.264   3.239  1.0158 -0.0320 -1.0880
  811MOL0     O 6944   5.569   2.356   3.349  0.3561 -0.8642  0.4110
  811MOL0     C 6945   5.704   2.384   3.370 -0.6581  0.7657 -0.2087
  811MOL0     C 6946   5.814   2.319   3.307  0.0928  0.2628  0.4003
  811MOL0     C 6947   5.947   2.350   3.334 -0.1994 -0.1554  0.5378
  811MOL0     C 6948   5.982   2.452   3.427  0.2342  0.3973  0.6533
  811MOL0     C 6949   6.126   2.488   3.450 -0.5555 -0.5977 -0.5403
  811MOL0     O 6950   6.221   2.404   3.398  0.3073 -0.1875 -0.2493
  811MOL0     C 6951   6.349   2.421   3.446  0.5250  0.8492  0.1019
  811MOL0     C 6952   6.430   2.536   3.435 -0.2849  0.7501  1.4865
  811MOL0     C 6953   6.557   2.541   3.493  0.4324 -0.5907 -0.2633
  811MOL0     C 6954   6.608   2.424   3.560  0.4240  0.0586 -0.4815
  811MOL0     O 6955   6.734   2.445   3.615 -0.5426  0.4786  0.5814
  811MOL0     C 6956   6.812   2.324   3.641 -0.3552 -0.1873  0.1564
  811MOL0     C 6957   6.949   2.365   3.694 -0.4829 -0.0809  0.0350
  811MOL0     C 6958   6.965   2.314   3.832  0.0466  0.5259  0.7017
  811MOL0     C 6959   7.104   2.342   3.893  0.6328 -0.2263 -0.0328
  811MOL0     C 6960   7.126   2.292   4.036  0.2473  1.1061 -0.0815
  811MOL0     C 6961   7.020   2.339   4.140  0.0317 -0.4658 -0.0715
  811MOL0     C 6962   7.068   2.296   4.283 -0.4299  0.0539  0.2686
  811MOL0     C 6963   6.976   2.346   4.394  0.2438  0.4376  1.3590
  811MOL0    Cl 6964   6.830   2.241   4.402 -0.3476  0.0331  0.2347
  811MOL0     C 6965   6.533   2.307   3.560 -0.9333  0.3268 -0.0291
  811MOL0     C 6966   6.403   2.302   3.502  0.5069  0.2785 -0.5608
  811MOL0     O 6967   6.152   2.581   3.528  0.6439 -0.1179  0.3290
  811MOL0     C 6968   5.876   2.504   3.496  0.1935  0.3861  0.9163
  811MOL0     C 6969   5.741   2.484   3.463  0.2487  0.3532 -1.1959
  811MOL0     N 6970   5.004   2.301   3.131 -0.1311  0.9928  0.5084
  811MOL0     N 6971   4.935   2.327   3.232  0.5518 -0.5663 -0.0846
  811MOL0     C 6972   3.885   2.635   3.372  0.2053 -0.1176  0.1419
  811MOL0     C 6973   3.748   2.598   3.371  0.4725  0.0394  0.3384
  811MOL0     C 6974   3.338   2.456   3.277 -0.2918  0.7345 -0.2455
  811MOL0     C 6975   3.274   2.365   3.372 -0.6320 -0.6125  0.5912
  811MOL0     C 6976   3.140   2.351   3.383 -0.7272 -0.4499 -0.6163
  811MOL0     C 6977   3.048   2.427   3.299 -0.4345  0.6201  0.0191
  811MOL0     O 6978   2.920   2.389   3.303 -0.0294 -0.2791 -1.0339
  811MOL0     C 6979   2.820   2.457   3.233  1.0636 -0.9761 -0.6198
  811MOL0     C 6980   2.805   2.408   3.083 -0.0207 -0.2734 -0.7554
  811MOL0     C 6981   2.700   2.484   3.003  0.7719 -0.6330  0.2079
  811MOL0     C 6982   2.664   2.388   2.875  0.1606  0.6596  0.9619
  811MOL0     C 6983   2.573   2.455   2.786 -0.3557 -0.2804  0.5333
  811MOL0     C 6984   2.498   2.503   2.699 -0.6779  0.7810 -0.3424
  811MOL0     C 6985   3.114   2.524   3.213 -0.4036  0.3929  0.8534
  811MOL0     C 6986   3.254   2.527   3.187  0.4406  0.1230 -0.6279
  811MOL0     H 6987   3.677   2.693   3.050 -0.1900 -0.7860 -0.7381
  811MOL0     H 6988   3.919   2.736   3.051  0.4698 -1.6887 -0.3087
  811MOL0     H 6989   4.166   2.522   3.327 -1.9646  0.2527 -0.8741
  811MOL0     H 6990   4.143   2.645   3.441 -2.5457 -2.6433 -0.0727
  811MOL0     H 6991   4.339   2.785   3.289  3.4941  0.2140 -3.3547
  811MOL0     H 6992   4.333   2.639   3.185 -1.3642  1.7510 -0.3824
  811MOL0     H 6993   4.438   2.507   3.334  0.5521  1.2159 -3.0671
  811MOL0     H 6994   4.421   2.622   3.477 -1.2942 -2.3500  0.3627
  811MOL0     H 6995   4.596   2.669   3.239  2.4962 -0.4190 -0.3390
  811MOL0     H 6996   4.569   2.764   3.393 -1.9361 -1.2524  2.6133
  811MOL0     H 6997   4.679   2.477   3.391  2.4385  0.1150  1.9530
  811MOL0     H 6998   4.651   2.578   3.532 -1.5670 -3.3841  0.4544
  811MOL0     H 6999   4.830   2.751   3.402  4.2651 -0.3653 -2.5693
  811MOL0     H 7000   4.835   2.628   3.293  0.2272  1.6755 -0.7073
  811MOL0     H 7001   5.009   2.650   3.505  1.7475 -1.0236 -1.1898
  811MOL0     H 7002   4.873   2.569   3.585 -3.1465  4.1189 -1.6027
  811MOL0     H 7003   4.876   2.382   3.464  0.9912 -0.8598  1.1247
  811MOL0     H 7004   5.047   2.410   3.483 -0.0189  1.0461  0.8190
  811MOL0     H 7005   5.180   2.533   3.285 -1.9225  1.3168  0.3696
  811MOL0     H 7006   5.213   2.472   2.961 -1.1365  0.3231  0.6945
  811MOL0     H 7007   5.208   2.292   2.984  0.5296 -1.1398  2.9619
  811MOL0     H 7008   5.391   2.462   3.167 -0.5290 -0.0169  0.3572
  811MOL0     H 7009   5.453   2.392   3.021  1.5122 -2.1946  2.2203
  811MOL0     H 7010   5.321   2.246   3.254  2.5422 -0.6554  2.9275
  811MOL0     H 7011   5.387   2.167   3.116  0.2312 -1.9211  2.2511
  811MOL0     H 7012   5.615   2.292   3.161 -1.1414  1.0178 -2.8064
  811MOL0     H 7013   5.565   2.162   3.271  0.7368  0.6669  1.5443
  811MOL0     H 7014   5.798   2.255   3.220 -0.7116  1.2884 -0.2321
  811MOL0     H 7015   6.020   2.277   3.299 -1.3818 -1.2058  0.2025
  811MOL0     H 7016   6.386   2.631   3.407  4.7377  3.0764  0.3097
  811MOL0     H 7017   6.598   2.641   3.509 -1.8709 -0.1408  5.0474
  811MOL0     H 7018   6.818   2.261   3.552 -1.5019 -1.6099  1.0513
  811MOL0     H 7019   6.763   2.258   3.712  1.9304  0.4154  2.4753
  811MOL0     H 7020   6.956   2.474   3.700  0.7074 -0.1910  1.0981
  811MOL0     H 7021   7.027   2.333   3.625 -1.1497 -0.2406 -0.6547
  811MOL0     H 7022   6.939   2.209   3.841  0.8755 -0.0962 -2.5887
  811MOL0     H 7023   6.901   2.377   3.894  0.9513  2.4210 -0.1846
  811MOL0     H 7024   7.188   2.298   3.838  0.6704 -2.1339  1.4533
  811MOL0     H 7025   7.118   2.450   3.906 -1.4054 -0.2700  4.3039
  811MOL0     H 7026   7.227   2.322   4.065  1.2481 -0.9675 -1.2185
  811MOL0     H 7027   7.124   2.184   4.048 -0.8256  1.1633  0.3484
  811MOL0     H 7028   6.917   2.306   4.121 -0.5743  2.1188 -1.7826
  811MOL0     H 7029   7.024   2.448   4.144 -0.3527 -0.4826  2.7948
  811MOL0     H 7030   7.075   2.187   4.280  0.6744  0.0877 -2.9663
  811MOL0     H 7031   7.162   2.350   4.299 -0.1501  0.8577 -3.1695
  811MOL0     H 7032   6.938   2.445   4.369 -0.3232 -0.5819 -2.4950
  811MOL0     H 7033   7.044   2.346   4.480  0.0657 -1.7567  1.5684
  811MOL0     H 7034   6.570   2.225   3.621 -0.8423 -1.0158 -1.8104
  811MOL0     H 7035   6.324   2.230   3.524  3.2192 -1.6860  4.3295
  811MOL0     H 7036   5.898   2.572   3.578  0.4124  1.6897 -0.1805
  811MOL0     H 7037   5.671   2.546   3.517  0.5944 -0.2564 -0.0345
  811MOL0     H 7038   3.948   2.633   3.461 -0.3026  3.4299  0.7610
  811MOL0     H 7039   3.702   2.566   3.464  2.4229 -1.5910  0.7999
  811MOL0     H 7040   3.326   2.306   3.446 -0.8740 -0.0037  1.2655
  811MOL0     H 7041   3.106   2.280   3.458 -0.2497  1.5292  1.5894
  811MOL0     H 7042   2.841   2.565   3.236  3.3468 -1.3840  0.2442
  811MOL0     H 7043   2.720   2.449   3.277  0.9901 -0.7687 -0.7422
  811MOL0     H 7044   2.898   2.422   3.028 -0.3976 -2.0240 -1.9408
  811MOL0     H 7045   2.785   2.300   3.088 -2.4714  0.1299  3.0616
  811MOL0     H 7046   2.731   2.582   2.965 -0.7446 -0.1517  0.1479
  811MOL0     H 7047   2.608   2.502   3.060  0.4865 -1.5717  0.0580
  811MOL0     H 7048   2.757   2.358   2.825 -0.8649  0.9279 -1.2084
  811MOL0     H 7049   2.627   2.292   2.913  0.0469  0.6887  0.9238
  811MOL0     H 7050   2.438   2.535   2.616 -1.8056 -2.2367 -0.8336
  811MOL0     H 7051   3.050   2.592   3.158 -3.3207  0.1322  3.6466
  811MOL0     H 7052   3.300   2.610   3.134 -1.5769  1.8037  0.1130
  812MOL0     O 7053   8.482  10.917   1.770  0.0598  0.2409  0.3717
  812MOL0     C 7054   8.439  10.807   1.769  0.6255  0.6022 -0.0195
  812MOL0     O 7055   8.374  10.746   1.879  0.1035 -0.0444 -0.6397
  812MOL0     C 7056   8.353  10.815   2.000  0.4995  0.3916  0.1837
  812MOL0     C 7057   8.229  10.795   2.050  0.7083 -0.5752 -0.1980
  812MOL0     C 7058   8.179  10.866   2.161  0.5863 -0.1609  0.1999
  812MOL0     C 7059   8.262  10.958   2.233 -0.1000 -0.1676 -0.3273
  812MOL0     O 7060   8.226  11.021   2.350  0.8939 -0.2703  0.1863
  812MOL0     C 7061   8.113  10.988   2.439 -0.2545  0.9580  0.3629
  812MOL0     C 7062   8.143  11.014   2.583  0.2463 -0.7020  0.1420
  812MOL0     C 7063   8.269  10.953   2.630 -1.0402  0.5765 -1.1521
  812MOL0     C 7064   8.265  10.951   2.779 -0.2208 -0.8532  0.3205
  812MOL0     C 7065   8.317  11.080   2.828  0.1228 -0.7373 -0.4249
  812MOL0     C 7066   8.458  11.128   2.786 -0.7966  0.1223 -0.5537
  812MOL0     C 7067   8.459  11.240   2.684  0.0381 -0.4559  0.0803
  812MOL0     C 7068   8.594  11.247   2.615  0.0218  0.5747 -0.3006
  812MOL0     N 7069   8.588  11.342   2.506  1.0274 -0.1535  0.5298
  812MOL0     C 7070   8.634  11.466   2.496  0.3357 -0.4359 -0.4995
  812MOL0     C 7071   8.632  11.503   2.362  0.5880  0.0555 -0.3255
  812MOL0     C 7072   8.689  11.632   2.312 -0.3652  0.7833  0.1582
  812MOL0     C 7073   8.606  11.691   2.198  0.3622 -0.7713  0.1468
  812MOL0     C 7074   8.614  11.844   2.211  0.1341 -0.5254  0.1060
  812MOL0     C 7075   8.537  11.919   2.117  0.4249  0.5114 -0.4720
  812MOL0     O 7076   8.531  11.861   1.985 -0.1707  0.2464  0.1478
  812MOL0     C 7077   8.457  11.914   1.887 -0.0704  0.1621  0.6885
  812MOL0     C 7078   8.391  12.039   1.894 -0.4946 -0.5988 -0.4636
  812MOL0     C 7079   8.309  12.086   1.784 -0.1506 -0.0869  0.2898
  812MOL0     C 7080   8.315  12.012   1.661 -0.2040  0.1052  0.4005
  812MOL0     C 7081   8.234  12.051   1.551 -0.1494  0.0610 -0.8004
  812MOL0     O 7082   8.145  12.152   1.564  0.0281 -0.0258 -0.4209
  812MOL0     C 7083   8.027  12.162   1.495 -0.8175  0.6417  1.2072
  812MOL0     C 7084   7.917  12.186   1.572 -0.4871  0.0028  0.8026
  812MOL0     C 7085   7.783  12.184   1.523  0.3794  0.3856 -0.4962
  812MOL0     C 7086   7.762  12.149   1.388 -0.1246  0.1579  0.0387
  812MOL0     O 7087   7.641  12.154   1.325  0.1185 -0.2484  0.2024
  812MOL0     C 7088   7.545  12.257   1.374 -0.2288  0.6531  0.1809
  812MOL0     C 7089   7.448  12.302   1.263  0.8795 -0.0239 -0.0397
  812MOL0     C 7090   7.360  12.191   1.201 -0.4226 -0.2306 -0.1073
  812MOL0     C 7091   7.252  12.144   1.300 -0.8526 -0.3170 -0.0827
  812MOL0     C 7092   7.188  12.016   1.248 -0.4085  0.0651 -0.8734
  812MOL0     C 7093   7.060  11.965   1.323  0.4957 -0.1106 -0.1555
  812MOL0     C 7094   6.979  11.870   1.233  0.6717 -1.0928  0.0270
  812MOL0     C 7095   6.851  11.827   1.307  0.7745 -0.4896  0.2896
  812MOL0    Cl 7096   6.878  11.727   1.454 -0.0776 -0.5202 -0.0948
  812MOL0     C 7097   7.879  12.135   1.317 -0.6825  0.6634  0.5149
  812MOL0     C 7098   8.011  12.130   1.360  0.8216  0.3863 -0.5715
  812MOL0     O 7099   8.239  11.975   1.454  0.1998 -0.2510 -0.3890
  812MOL0     C 7100   8.395  11.896   1.654  0.0612 -0.4533  0.1363
  812MOL0     C 7101   8.457  11.843   1.766 -0.4973  0.7953 -0.1280
  812MOL0     N 7102   8.585  11.395   2.291  0.8499  0.0261  0.2348
  812MOL0     N 7103   8.559  11.298   2.376  0.6206  0.5732  0.0828
  812MOL0     C 7104   8.394  10.964   2.192  0.5202 -0.0447  0.2563
  812MOL0     C 7105   8.441  10.893   2.078 -0.0882  0.5510 -0.5565
  812MOL0     C 7106   8.468  10.725   1.644  0.3197  0.2098 -0.1113
  812MOL0     C 7107   8.412  10.597   1.641  0.6325 -0.2145  0.1706
  812MOL0     C 7108   8.418  10.516   1.522  0.3235  0.0812 -0.1031
  812MOL0     C 7109   8.482  10.573   1.405 -0.2627 -0.0776 -0.0043
  812MOL0     O 7110   8.481  10.511   1.280  0.4131 -0.8730 -0.4056
  812MOL0     C 7111   8.431  10.373   1.265  0.3543 -1.3092 -0.0592
  812MOL0     C 7112   8.440  10.334   1.114  0.4481  0.3968  0.3861
  812MOL0     C 7113   8.576  10.288   1.069  0.1247  0.2487 -0.7458
  812MOL0     C 7114   8.598  10.126   1.092  0.9475 -0.7920 -0.1583
  812MOL0     C 7115   8.687  10.080   0.979  1.0156 -0.9212  0.0827
  812MOL0     C 7116   8.778  10.066   0.903  0.5117  0.7121  0.0040
  812MOL0     C 7117   8.538  10.704   1.414 -0.3341  0.3363  0.2871
  812MOL0     C 7118   8.537  10.778   1.534 -0.8888  0.4059 -0.1733
  812MOL0     H 7119   8.162  10.729   1.995  0.6020 -0.5313 -0.1232
  812MOL0     H 7120   8.072  10.862   2.178  0.3210  0.2819 -1.1736
  812MOL0     H 7121   8.084  10.884   2.423 -1.9079  1.5488 -0.7142
  812MOL0     H 7122   8.021  11.043   2.417 -0.0804  1.0447 -0.1603
  812MOL0     H 7123   8.057  10.967   2.632 -2.4107  2.3429 -1.1883
  812MOL0     H 7124   8.157  11.120   2.605 -1.3436 -0.9976  3.1242
  812MOL0     H 7125   8.365  10.994   2.598  0.9405 -2.3870  0.4290
  812MOL0     H 7126   8.271  10.845   2.610 -0.0896  0.3449  0.0026
  812MOL0     H 7127   8.163  10.937   2.815 -1.4547 -2.9141 -3.3760
  812MOL0     H 7128   8.326  10.867   2.814  0.0938 -0.9683 -0.4621
  812MOL0     H 7129   8.322  11.057   2.935 -2.5414  0.4337  0.0248
  812MOL0     H 7130   8.246  11.159   2.802 -0.1008 -1.1931 -1.2298
  812MOL0     H 7131   8.521  11.050   2.744  2.5373  1.8861  0.8146
  812MOL0     H 7132   8.499  11.161   2.881 -1.0061 -3.4373  0.9295
  812MOL0     H 7133   8.390  11.221   2.602 -1.4478  0.8351  0.9809
  812MOL0     H 7134   8.429  11.329   2.740  1.9398 -2.7531  5.5525
  812MOL0     H 7135   8.618  11.150   2.570 -0.9662  0.5355 -0.7608
  812MOL0     H 7136   8.668  11.272   2.692 -1.9182  1.0940  1.4665
  812MOL0     H 7137   8.673  11.527   2.577  0.1696 -2.2711  1.0059
  812MOL0     H 7138   8.791  11.618   2.275 -0.8225 -0.1386 -0.8322
  812MOL0     H 7139   8.692  11.700   2.397 -0.2426  1.9031 -0.7213
  812MOL0     H 7140   8.501  11.667   2.217  0.4136  0.0196  1.5481
  812MOL0     H 7141   8.640  11.647   2.103  3.9544  1.1101  0.3612
  812MOL0     H 7142   8.573  11.858   2.311 -0.7854 -5.8641  0.7562
  812MOL0     H 7143   8.718  11.877   2.219 -0.5047  2.0979 -1.1496
  812MOL0     H 7144   8.559  12.026   2.122 -2.8595  1.3166 -0.7105
  812MOL0     H 7145   8.433  11.913   2.151  0.5798 -1.3941 -0.2420
  812MOL0     H 7146   8.399  12.102   1.982 -2.0450 -0.2345 -0.5555
  812MOL0     H 7147   8.248  12.176   1.792 -0.5922 -0.3544 -0.0167
  812MOL0     H 7148   7.939  12.211   1.675  0.9703 -1.2721  0.8511
  812MOL0     H 7149   7.707  12.208   1.597  0.7242  3.0039 -0.9099
  812MOL0     H 7150   7.596  12.345   1.415 -3.2954  2.6318  0.0205
  812MOL0     H 7151   7.486  12.225   1.460 -1.7256  3.7423  0.4405
  812MOL0     H 7152   7.505  12.350   1.182 -0.4748 -0.4469 -1.2953
  812MOL0     H 7153   7.386  12.378   1.311  2.8041  0.8656  1.1125
  812MOL0     H 7154   7.424  12.104   1.184 -0.7875 -0.4358 -0.4479
  812MOL0     H 7155   7.314  12.209   1.103  1.8722  0.7846 -1.0632
  812MOL0     H 7156   7.293  12.120   1.398  2.6234  1.1127 -1.0484
  812MOL0     H 7157   7.179  12.222   1.323  0.5656  1.3285 -0.9894
  812MOL0     H 7158   7.258  11.934   1.267 -0.4505  0.4397  1.1157
  812MOL0     H 7159   7.158  12.034   1.144 -1.7249 -0.2058 -0.5530
  812MOL0     H 7160   6.988  12.042   1.351 -1.1786 -1.5063 -0.4987
  812MOL0     H 7161   7.085  11.905   1.411  0.1663  0.5963  0.4273
  812MOL0     H 7162   6.945  11.924   1.145  1.1382 -1.5015 -0.4103
  812MOL0     H 7163   7.034  11.782   1.200  0.1904 -0.6065 -2.1910
  812MOL0     H 7164   6.785  11.773   1.238 -0.5184  3.1349 -1.5460
  812MOL0     H 7165   6.797  11.913   1.347 -2.0446 -2.8207  1.9041
  812MOL0     H 7166   7.869  12.126   1.209 -0.5485 -0.5852  0.5854
  812MOL0     H 7167   8.093  12.104   1.294  0.9115  0.0048 -0.3135
  812MOL0     H 7168   8.384  11.832   1.567 -1.8050 -0.1472  0.1101
  812MOL0     H 7169   8.517  11.753   1.763  1.6789  2.1795 -0.6025
  812MOL0     H 7170   8.462  11.038   2.233  0.5513  0.1931 -0.2282
  812MOL0     H 7171   8.546  10.897   2.049 -0.3823  0.0718 -1.7615
  812MOL0     H 7172   8.377  10.553   1.734 -0.1812 -2.0651 -0.9557
  812MOL0     H 7173   8.387  10.413   1.531 -0.1048  0.3553  2.1932
  812MOL0     H 7174   8.328  10.388   1.297  1.0292  1.5560  1.0579
  812MOL0     H 7175   8.468  10.290   1.327 -4.3844 -2.1814  1.9774
  812MOL0     H 7176   8.369  10.257   1.083  1.2358  0.8934 -3.1377
  812MOL0     H 7177   8.418  10.412   1.040  2.8207  0.6142 -0.1840
  812MOL0     H 7178   8.654  10.341   1.124 -1.4995 -1.4719  3.6835
  812MOL0     H 7179   8.589  10.310   0.962 -2.1077  0.0041 -1.1204
  812MOL0     H 7180   8.641  10.105   1.190  0.2364 -3.1678 -0.2984
  812MOL0     H 7181   8.501  10.076   1.083  0.8478 -0.5138 -0.6683
  812MOL0     H 7182   8.870  10.056   0.847  0.1490 -1.5529 -0.2946
  812MOL0     H 7183   8.597  10.744   1.332 -1.0842  3.0099  0.9634
  812MOL0     H 7184   8.588  10.874   1.537  0.3272 -0.2009 -0.5911
  813MOL0     O 7185   2.901   5.271   8.209  0.3180  0.6438  1.1970
  813MOL0     C 7186   3.001   5.338   8.190  0.2219 -0.4732 -0.5269
  813MOL0     O 7187   3.063   5.419   8.273 -0.5989 -0.8485  0.4844
  813MOL0     C 7188   3.026   5.448   8.401  0.2093  0.1639  0.2193
  813MOL0     C 7189   2.977   5.583   8.424 -0.1624  0.5878  0.3861
  813MOL0     C 7190   2.952   5.620   8.562 -0.9798  0.2395  0.5135
  813MOL0     C 7191   2.959   5.532   8.665  0.9856  0.1431  0.1771
  813MOL0     O 7192   2.921   5.590   8.782  0.6933 -0.6482 -0.4710
  813MOL0     C 7193   2.871   5.514   8.890 -0.1002 -0.6797 -0.5931
  813MOL0     C 7194   2.803   5.610   8.985  0.1094  0.1052  0.6942
  813MOL0     C 7195   2.814   5.570   9.134 -0.2806  0.4210 -0.5072
  813MOL0     C 7196   2.961   5.539   9.177 -0.1796  0.8568 -0.2842
  813MOL0     C 7197   2.957   5.557   9.331 -0.3546 -0.1255  0.5105
  813MOL0     C 7198   3.081   5.483   9.393 -0.6283 -0.7234 -0.4946
  813MOL0     C 7199   3.078   5.493   9.546 -0.2117 -0.6425 -0.3951
  813MOL0     C 7200   3.063   5.636   9.608 -0.0542 -0.0524 -0.5276
  813MOL0     N 7201   3.087   5.652   9.751  0.4442 -0.7702  0.6199
  813MOL0     C 7202   3.209   5.653   9.808 -0.5685  0.5189  0.3860
  813MOL0     C 7203   3.194   5.693   9.941  0.4279  0.1222  0.3175
  813MOL0     C 7204   3.297   5.710  10.047 -0.0529 -0.8164  0.3329
  813MOL0     C 7205   3.230   5.770  10.171  0.8105  0.1696  0.1671
  813MOL0     C 7206   3.328   5.751  10.303 -0.3254 -0.7580  0.8527
  813MOL0     C 7207   3.267   5.848  10.403  0.2934  1.2372 -0.0283
  813MOL0     O 7208   3.348   5.833  10.520 -0.2825  0.3431  0.7309
  813MOL0     C 7209   3.480   5.868  10.523 -0.2513 -0.1070 -0.3268
  813MOL0     C 7210   3.531   5.973  10.447  0.4381  0.6417 -0.0396
  813MOL0     C 7211   3.671   5.993  10.440 -1.1244  0.4802 -0.0478
  813MOL0     C 7212   3.761   5.912  10.518 -0.2372 -0.7049 -0.1516
  813MOL0     C 7213   3.903   5.933  10.529 -0.7254  0.3420 -0.4853
  813MOL0     O 7214   3.972   5.944  10.646  0.3890  0.0686 -0.3440
  813MOL0     C 7215   4.110   5.936  10.634 -0.2303  0.1135  0.2515
  813MOL0     C 7216   4.164   5.814  10.601 -0.0982 -0.3631  0.1372
  813MOL0     C 7217   4.304   5.789  10.601  0.0202  0.7516 -0.1446
  813MOL0     C 7218   4.389   5.889  10.653  0.5959  0.0020 -0.4010
  813MOL0     O 7219   4.523   5.856  10.664 -0.3429  0.9201 -0.1865
  813MOL0     C 7220   4.619   5.930  10.733  0.0348 -0.5420  0.0873
  813MOL0     C 7221   4.748   5.844  10.738  0.3252 -0.7382  0.8022
  813MOL0     C 7222   4.729   5.722  10.815  0.5043 -0.4363 -0.2298
  813MOL0     C 7223   4.875   5.667  10.837 -0.6409  1.2865 -0.9638
  813MOL0     C 7224   4.894   5.549  10.941  1.1003 -0.4558 -0.4619
  813MOL0     C 7225   5.028   5.481  10.922 -0.3603  0.8973  0.1019
  813MOL0     C 7226   5.139   5.567  10.974  1.0768 -0.6738 -0.0430
  813MOL0     C 7227   5.286   5.510  10.962 -0.4721 -0.3500  0.2856
  813MOL0    Cl 7228   5.348   5.539  10.792  0.4825  0.1643 -0.1787
  813MOL0     C 7229   4.342   6.012  10.677  1.0311 -0.6878  0.1774
  813MOL0     C 7230   4.199   6.034  10.670 -1.1780 -0.0309  0.2987
  813MOL0     O 7231   3.956   5.939  10.426  0.0929 -0.0457  0.1479
  813MOL0     C 7232   3.704   5.822  10.610  0.7489  0.3534  0.1199
  813MOL0     C 7233   3.562   5.795  10.608 -0.3928  0.4355  0.1449
  813MOL0     N 7234   3.061   5.722   9.952  0.3550  0.3244  0.4094
  813MOL0     N 7235   2.993   5.699   9.843 -0.3245 -0.0715  0.7607
  813MOL0     C 7236   3.003   5.407   8.637  0.5072  0.3230 -0.6802
  813MOL0     C 7237   3.038   5.363   8.510  0.1771  0.2826 -0.1464
  813MOL0     C 7238   3.064   5.340   8.057  0.2458 -0.0075  0.1317
  813MOL0     C 7239   3.159   5.443   8.021  0.5351 -0.6009 -0.4386
  813MOL0     C 7240   3.240   5.434   7.907  0.4701 -0.7336  0.0929
  813MOL0     C 7241   3.227   5.315   7.819 -0.6316  0.5440 -0.5505
  813MOL0     O 7242   3.309   5.317   7.711 -0.5869  0.0134  0.6937
  813MOL0     C 7243   3.296   5.224   7.612  0.7020 -0.0118 -0.1324
  813MOL0     C 7244   3.363   5.288   7.482  1.3070 -0.1905 -0.2990
  813MOL0     C 7245   3.508   5.334   7.498 -0.1348 -0.7487  0.1494
  813MOL0     C 7246   3.598   5.369   7.378 -0.3524  0.1768 -0.7131
  813MOL0     C 7247   3.521   5.382   7.251  0.4203  0.8747 -0.1014
  813MOL0     C 7248   3.456   5.381   7.150 -0.4293 -0.3148  0.0831
  813MOL0     C 7249   3.135   5.218   7.865 -0.4137 -0.0041  0.2837
  813MOL0     C 7250   3.056   5.223   7.978 -0.0651 -0.3784 -0.3117
  813MOL0     H 7251   2.974   5.665   8.354  1.2328 -1.9630 -2.9320
  813MOL0     H 7252   2.946   5.724   8.594  3.6130  0.7177  0.4975
  813MOL0     H 7253   2.950   5.451   8.931 -0.0771  0.1306  0.6427
  813MOL0     H 7254   2.784   5.468   8.841 -1.5098 -2.2197  3.0182
  813MOL0     H 7255   2.699   5.615   8.950 -0.4984 -1.0486  2.1761
  813MOL0     H 7256   2.868   5.697   8.977 -2.0372  1.6148 -1.8133
  813MOL0     H 7257   2.738   5.496   9.159 -0.2446  0.5984  0.1554
  813MOL0     H 7258   2.787   5.662   9.187  1.7552 -0.1055  1.6113
  813MOL0     H 7259   2.976   5.433   9.153 -0.8202  0.5634  0.5545
  813MOL0     H 7260   3.028   5.614   9.135 -1.5775  3.6790  2.0908
  813MOL0     H 7261   2.872   5.503   9.374 -1.1741  0.4761 -0.3227
  813MOL0     H 7262   2.947   5.663   9.355  1.0048 -0.4185  2.6582
  813MOL0     H 7263   3.173   5.532   9.360 -1.9797 -0.0891 -3.7388
  813MOL0     H 7264   3.085   5.375   9.375  2.9429 -0.4951 -1.6604
  813MOL0     H 7265   2.990   5.435   9.575 -1.4078  0.4280 -1.7188
  813MOL0     H 7266   3.158   5.431   9.587 -2.3802 -1.3419  3.2472
  813MOL0     H 7267   2.965   5.676   9.580  0.1212  1.6613  1.1043
  813MOL0     H 7268   3.142   5.689   9.556 -0.3938  1.4127  0.3928
  813MOL0     H 7269   3.306   5.623   9.770 -1.7943 -0.5751 -2.1126
  813MOL0     H 7270   3.371   5.780  10.005  0.4457 -1.6113 -0.1375
  813MOL0     H 7271   3.343   5.612  10.064  0.4687 -1.0714 -2.1353
  813MOL0     H 7272   3.137   5.721  10.201  2.1902 -1.7123  1.6427
  813MOL0     H 7273   3.209   5.875  10.147 -0.9103 -0.9840 -4.3643
  813MOL0     H 7274   3.350   5.650  10.339 -0.9089 -0.0339  3.4182
  813MOL0     H 7275   3.427   5.788  10.272 -2.0419  2.8845 -0.8547
  813MOL0     H 7276   3.164   5.820  10.427  0.5140  1.1660  0.8466
  813MOL0     H 7277   3.262   5.949  10.359  0.8593  0.5680 -1.7134
  813MOL0     H 7278   3.465   6.043  10.397 -2.3611 -1.3854  0.5319
  813MOL0     H 7279   3.728   6.072  10.391  1.4319 -1.0117  0.3162
  813MOL0     H 7280   4.091   5.742  10.564 -2.5480  2.8271 -1.8283
  813MOL0     H 7281   4.350   5.697  10.566 -0.5518  0.4579 -0.1306
  813MOL0     H 7282   4.581   5.954  10.833 -1.6229 -0.7786 -0.4608
  813MOL0     H 7283   4.641   6.026  10.685  3.1658 -1.0669  0.2300
  813MOL0     H 7284   4.823   5.917  10.769  0.6668 -0.0580 -1.4215
  813MOL0     H 7285   4.769   5.809  10.636  2.6049 -0.5756  1.1448
  813MOL0     H 7286   4.684   5.636  10.765  2.0041 -2.0595  1.0688
  813MOL0     H 7287   4.667   5.749  10.901  0.6102  0.6566 -0.4838
  813MOL0     H 7288   4.909   5.625  10.741 -0.2634  1.7654 -1.0454
  813MOL0     H 7289   4.940   5.747  10.874 -0.3443  0.7397 -0.2944
  813MOL0     H 7290   4.816   5.476  10.920  0.5399 -0.5022  1.5565
  813MOL0     H 7291   4.874   5.587  11.042  1.7703 -1.4155  0.0420
  813MOL0     H 7292   5.052   5.468  10.816  1.9763  3.0617  0.2473
  813MOL0     H 7293   5.016   5.386  10.974  0.0104  1.2171  0.7795
  813MOL0     H 7294   5.138   5.661  10.918  1.2175 -0.1271  0.8458
  813MOL0     H 7295   5.113   5.602  11.075  1.8796 -0.8158  0.2178
  813MOL0     H 7296   5.286   5.404  10.986 -0.4579 -0.5581 -0.6262
  813MOL0     H 7297   5.352   5.557  11.036  0.6973 -0.6421 -0.5497
  813MOL0     H 7298   4.416   6.091  10.691 -0.3526  0.7599 -0.3845
  813MOL0     H 7299   4.165   6.137  10.678 -0.9393 -0.0393  1.7679
  813MOL0     H 7300   3.768   5.753  10.664  0.7233  0.6494  0.5323
  813MOL0     H 7301   3.511   5.729  10.678 -0.2604 -1.7746 -1.7269
  813MOL0     H 7302   3.018   5.346   8.725  1.4114 -0.3351 -1.2658
  813MOL0     H 7303   3.066   5.260   8.490 -0.6235  0.2687 -1.2920
  813MOL0     H 7304   3.166   5.533   8.081 -0.1197 -1.0392  0.3081
  813MOL0     H 7305   3.311   5.514   7.885  0.8677 -0.8406  0.9484
  813MOL0     H 7306   3.193   5.189   7.603  1.9049 -3.7040 -0.9906
  813MOL0     H 7307   3.358   5.136   7.631  0.1356 -0.1882  0.9857
  813MOL0     H 7308   3.359   5.214   7.401  1.2133  0.1991 -0.6578
  813MOL0     H 7309   3.293   5.369   7.460 -5.0262 -3.8122  3.7256
  813MOL0     H 7310   3.562   5.266   7.565  1.2124  1.3645  1.3064
  813MOL0     H 7311   3.498   5.427   7.555 -6.0529  0.7063 -2.4478
  813MOL0     H 7312   3.663   5.453   7.402 -1.0022  0.4607  0.1190
  813MOL0     H 7313   3.657   5.278   7.361  1.2410  1.3430 -1.6653
  813MOL0     H 7314   3.398   5.394   7.060  2.8416 -2.2086 -2.5260
  813MOL0     H 7315   3.120   5.128   7.805 -1.8149  2.4117 -3.3865
  813MOL0     H 7316   2.989   5.140   7.995 -0.6466  0.4915  2.0992
  814MOL0     O 7317   7.973   8.826   0.590 -0.1962  0.4481  0.6301
  814MOL0     C 7318   8.092   8.854   0.563  1.2514 -0.0887  0.2281
  814MOL0     O 7319   8.142   8.895   0.447  0.1402  0.1219  0.3288
  814MOL0     C 7320   8.068   8.890   0.324  0.4162 -0.2221  0.1100
  814MOL0     C 7321   8.086   8.996   0.233 -0.1735  0.2618  0.3641
  814MOL0     C 7322   8.003   9.005   0.109 -0.6781  0.1743 -0.3445
  814MOL0     C 7323   7.910   8.900   0.085  0.0323 -0.3396  0.3298
  814MOL0     O 7324   7.818   8.921  -0.015  0.1389  0.2132 -0.2589
  814MOL0     C 7325   7.701   8.833  -0.011 -0.8524 -0.0146 -1.0901
  814MOL0     C 7326   7.595   8.900  -0.097  0.7395 -0.0261  0.2182
  814MOL0     C 7327   7.560   9.026  -0.026 -0.0337  1.3805 -0.9628
  814MOL0     C 7328   7.429   9.094  -0.069 -0.3863 -0.4819  0.4431
  814MOL0     C 7329   7.408   9.226   0.004 -0.2053 -0.9735 -0.7492
  814MOL0     C 7330   7.267   9.253  -0.025  0.2144  0.0286 -0.7751
  814MOL0     C 7331   7.215   9.390   0.034 -0.3975 -0.7526 -0.1841
  814MOL0     C 7332   7.121   9.470  -0.070  0.0468  0.0005  0.2252
  814MOL0     N 7333   7.197   9.522  -0.185  0.3550 -0.0465  0.8592
  814MOL0     C 7334   7.307   9.599  -0.186  0.0935  0.8933 -0.4683
  814MOL0     C 7335   7.342   9.609  -0.311 -0.3130  0.0477  0.7237
  814MOL0     C 7336   7.467   9.688  -0.348 -1.2441  0.5625 -0.2769
  814MOL0     C 7337   7.583   9.602  -0.415  0.2660  0.2052 -0.1121
  814MOL0     C 7338   7.690   9.675  -0.498 -0.1353 -1.0716  0.4515
  814MOL0     C 7339   7.746   9.778  -0.399 -0.2790  0.5445  0.3178
  814MOL0     O 7340   7.820   9.733  -0.284 -0.3140  0.4145 -0.7562
  814MOL0     C 7341   7.864   9.835  -0.202 -0.5205 -0.4341 -0.0581
  814MOL0     C 7342   7.999   9.887  -0.208  0.5664  0.5319  0.2603
  814MOL0     C 7343   8.049   9.975  -0.106 -0.1139  0.1491 -0.1381
  814MOL0     C 7344   7.964  10.018  -0.004 -0.5232  0.3913 -0.3770
  814MOL0     C 7345   8.011  10.117   0.099  0.2016  0.7665 -0.3803
  814MOL0     O 7346   8.113  10.200   0.064 -0.2696  0.1341  0.7198
  814MOL0     C 7347   8.181  10.268   0.159  0.8468 -0.3528  0.1980
  814MOL0     C 7348   8.315  10.236   0.192  0.5423 -0.0956  0.6647
  814MOL0     C 7349   8.385  10.311   0.289  0.2043  0.0110 -0.0614
  814MOL0     C 7350   8.325  10.418   0.358  0.2505 -0.0820  0.3004
  814MOL0     O 7351   8.407  10.475   0.446  0.1657  0.0769 -0.5593
  814MOL0     C 7352   8.405  10.615   0.475  0.4594 -0.1527 -0.2772
  814MOL0     C 7353   8.530  10.642   0.560  0.1474 -0.5354  0.3538
  814MOL0     C 7354   8.534  10.781   0.621  0.0174 -0.0147 -0.5151
  814MOL0     C 7355   8.661  10.811   0.703 -0.6565  0.4329 -0.2083
  814MOL0     C 7356   8.784  10.823   0.608  0.7520 -0.0216 -0.2034
  814MOL0     C 7357   8.907  10.894   0.680  0.9943  0.8358  0.3360
  814MOL0     C 7358   9.031  10.903   0.587  0.3891  0.5589  0.2831
  814MOL0     C 7359   9.131  10.998   0.649 -0.7935 -0.4279  0.8338
  814MOL0    Cl 7360   9.185  10.930   0.802  0.0393  0.0120 -0.0947
  814MOL0     C 7361   8.196  10.468   0.319 -0.3990  1.2259  0.2593
  814MOL0     C 7362   8.127  10.377   0.225  1.0898  0.4818 -0.6183
  814MOL0     O 7363   7.963  10.103   0.208  0.2899 -0.0252  0.0974
  814MOL0     C 7364   7.830   9.975  -0.009  0.3272  0.3754 -0.5422
  814MOL0     C 7365   7.782   9.879  -0.100 -0.6712  0.0320 -0.3400
  814MOL0     N 7366   7.243   9.553  -0.398  0.5865  0.3288  0.6556
  814MOL0     N 7367   7.155   9.497  -0.318 -0.4788 -0.4446 -0.4473
  814MOL0     C 7368   7.911   8.784   0.171 -0.2408  0.8010 -0.3676
  814MOL0     C 7369   7.987   8.780   0.291 -0.1041 -0.9426  0.8791
  814MOL0     C 7370   8.203   8.833   0.670 -1.1463 -1.0514  0.1606
  814MOL0     C 7371   8.334   8.870   0.643 -0.7262  0.2645  0.6351
  814MOL0     C 7372   8.427   8.858   0.748  0.5935 -0.6365  0.3711
  814MOL0     C 7373   8.397   8.811   0.873  0.0653  0.9228 -1.0619
  814MOL0     O 7374   8.509   8.804   0.961 -0.5561 -0.1365  0.2220
  814MOL0     C 7375   8.496   8.755   1.095  0.3345  0.2142  0.3379
  814MOL0     C 7376   8.426   8.861   1.182  1.1113  0.2858 -0.2757
  814MOL0     C 7377   8.522   8.988   1.202 -0.3120 -0.2611 -0.3093
  814MOL0     C 7378   8.472   9.132   1.180 -0.7392 -0.1212 -0.6737
  814MOL0     C 7379   8.418   9.149   1.050 -0.3110  0.3536  0.3282
  814MOL0     C 7380   8.368   9.150   0.941 -0.0869  0.4256  0.7624
  814MOL0     C 7381   8.264   8.769   0.899 -0.4936 -0.8212 -0.8134
  814MOL0     C 7382   8.165   8.790   0.800 -0.2179  0.8282 -0.0745
  814MOL0     H 7383   8.151   9.082   0.249 -1.5735  0.7374  5.1293
  814MOL0     H 7384   8.009   9.086   0.037  2.1240  0.6268  0.2695
  814MOL0     H 7385   7.662   8.812   0.089  0.3519  0.1097 -0.5849
  814MOL0     H 7386   7.729   8.731  -0.041  0.2628 -0.8694  2.3807
  814MOL0     H 7387   7.506   8.838  -0.118 -0.4352  1.8722 -0.6914
  814MOL0     H 7388   7.636   8.933  -0.193 -0.2964  1.8117  0.3668
  814MOL0     H 7389   7.644   9.097  -0.034 -0.0042  1.3647 -0.7932
  814MOL0     H 7390   7.544   8.989   0.076  1.3133 -2.3352 -1.9330
  814MOL0     H 7391   7.442   9.110  -0.177 -1.1935  0.3171  0.4553
  814MOL0     H 7392   7.345   9.027  -0.052  0.6453 -1.3773  2.2924
  814MOL0     H 7393   7.482   9.300  -0.030  1.0740 -0.6775  2.3345
  814MOL0     H 7394   7.433   9.223   0.110  1.0880  2.9197 -0.7770
  814MOL0     H 7395   7.207   9.187   0.038 -0.3165  1.9660  0.8863
  814MOL0     H 7396   7.241   9.242  -0.131 -0.1583 -5.7958 -0.3895
  814MOL0     H 7397   7.172   9.367   0.132  2.5765  0.5310  1.5432
  814MOL0     H 7398   7.295   9.456   0.067  0.0130 -0.8913 -0.8741
  814MOL0     H 7399   7.077   9.553  -0.015  5.9178  0.5418  5.1691
  814MOL0     H 7400   7.047   9.402  -0.113  2.2687 -1.9854 -0.7072
  814MOL0     H 7401   7.354   9.630  -0.093 -2.0464  1.6212  0.4485
  814MOL0     H 7402   7.502   9.729  -0.253 -2.4764  0.5984  0.1832
  814MOL0     H 7403   7.441   9.778  -0.405  1.5150  1.0792 -0.8568
  814MOL0     H 7404   7.527   9.542  -0.487 -4.0284  2.3681  1.0647
  814MOL0     H 7405   7.621   9.534  -0.339 -0.1782  0.9483  0.8081
  814MOL0     H 7406   7.769   9.604  -0.524 -2.5599 -3.1533 -1.9365
  814MOL0     H 7407   7.654   9.727  -0.587  3.5824 -0.2533 -0.7277
  814MOL0     H 7408   7.661   9.837  -0.365  0.1342  1.9131 -0.9316
  814MOL0     H 7409   7.815   9.841  -0.456  1.7439 -0.1919  1.8379
  814MOL0     H 7410   8.059   9.857  -0.293 -1.6244  2.5195 -2.1736
  814MOL0     H 7411   8.142  10.026  -0.130  1.6163 -2.1961  1.1575
  814MOL0     H 7412   8.359  10.150   0.142 -2.0242 -1.3136  0.2919
  814MOL0     H 7413   8.488  10.277   0.305  0.3262 -1.0946 -2.7036
  814MOL0     H 7414   8.310  10.649   0.519  0.9710  1.8774 -0.6513
  814MOL0     H 7415   8.426  10.672   0.385  0.8584 -0.4494 -0.3717
  814MOL0     H 7416   8.616  10.620   0.497  0.1009 -0.8225  0.3874
  814MOL0     H 7417   8.531  10.568   0.641  0.8463 -0.6994  0.1988
  814MOL0     H 7418   8.451  10.797   0.690 -0.3540  2.9353 -1.4883
  814MOL0     H 7419   8.532  10.867   0.552  0.9436  2.1790  2.0100
  814MOL0     H 7420   8.653  10.901   0.765 -0.1454  1.6250 -1.7909
  814MOL0     H 7421   8.672  10.722   0.765 -1.4157 -0.3644 -1.1771
  814MOL0     H 7422   8.760  10.893   0.528 -3.3973 -0.9723 -0.0034
  814MOL0     H 7423   8.807  10.725   0.565 -3.5298 -1.0974 -0.4354
  814MOL0     H 7424   8.950  10.841   0.766  1.0599  0.8212  0.2939
  814MOL0     H 7425   8.870  10.992   0.710 -1.7269  0.0842 -0.2774
  814MOL0     H 7426   9.089  10.811   0.576  0.8878  1.1507 -2.7925
  814MOL0     H 7427   8.998  10.933   0.487  2.3553 -2.9905 -1.6492
  814MOL0     H 7428   9.081  11.094   0.666  1.9861  1.3164 -0.1159
  814MOL0     H 7429   9.215  11.027   0.585 -1.4042 -5.9147 -3.1760
  814MOL0     H 7430   8.142  10.555   0.353 -3.8769 -0.1176 -1.3872
  814MOL0     H 7431   8.030  10.409   0.189  2.2911  3.7070 -1.3598
  814MOL0     H 7432   7.767  10.001   0.075 -0.0401 -0.2720 -0.6088
  814MOL0     H 7433   7.678   9.851  -0.083 -0.5726  0.1843  0.5689
  814MOL0     H 7434   7.839   8.706   0.151  1.8523 -2.4740  3.3717
  814MOL0     H 7435   7.968   8.690   0.350 -2.0379  0.5162  2.6554
  814MOL0     H 7436   8.375   8.895   0.545  0.5006  0.7734  1.2490
  814MOL0     H 7437   8.530   8.885   0.728  0.3683 -0.2445 -0.3169
  814MOL0     H 7438   8.595   8.721   1.126 -0.4760 -4.0955 -1.0586
  814MOL0     H 7439   8.432   8.667   1.081  0.0543  0.7427 -2.2269
  814MOL0     H 7440   8.333   8.899   1.139 -0.4850  1.1417  3.4395
  814MOL0     H 7441   8.408   8.827   1.285 -0.0213  1.8810  0.0991
  814MOL0     H 7442   8.617   8.971   1.150 -1.3609 -1.7957 -1.8654
  814MOL0     H 7443   8.552   8.989   1.307 -0.4944  3.8111 -0.1356
  814MOL0     H 7444   8.408   9.156   1.265 -0.3497  0.8838 -0.6555
  814MOL0     H 7445   8.554   9.203   1.191 -0.3196 -0.4591 -1.5110
  814MOL0     H 7446   8.340   9.154   0.837 -0.8208  1.4307  0.9884
  814MOL0     H 7447   8.233   8.712   0.986  2.9966 -0.1500  1.0244
  814MOL0     H 7448   8.064   8.764   0.830  0.7915 -0.7580  2.2551
  815MOL0     O 7449   1.658   3.076   3.413  0.0425 -0.3781 -0.7250
  815MOL0     C 7450   1.719   3.140   3.323 -0.0266 -0.4587  0.0090
  815MOL0     O 7451   1.687   3.270   3.283 -0.6899  0.7568 -0.3635
  815MOL0     C 7452   1.583   3.331   3.341 -0.3969  0.2043 -1.1111
  815MOL0     C 7453   1.452   3.280   3.367 -0.2350  0.1299  0.8349
  815MOL0     C 7454   1.363   3.357   3.441  0.3481 -0.2346  0.2366
  815MOL0     C 7455   1.397   3.487   3.485 -0.6675 -0.6829 -0.5969
  815MOL0     O 7456   1.314   3.555   3.580  0.0020 -0.4568 -0.2459
  815MOL0     C 7457   1.369   3.662   3.657  0.3702 -0.4939 -0.9727
  815MOL0     C 7458   1.265   3.701   3.764 -0.2674 -0.2963 -0.3116
  815MOL0     C 7459   1.264   3.588   3.860 -0.1378 -0.2556 -0.0446
  815MOL0     C 7460   1.177   3.625   3.983  0.5446 -0.2782  0.8396
  815MOL0     C 7461   1.034   3.604   3.951 -0.0649  0.0280 -0.0360
  815MOL0     C 7462   0.928   3.662   4.054 -0.6461  0.3430  0.2923
  815MOL0     C 7463   0.931   3.813   4.077  0.8036 -0.5234  0.3126
  815MOL0     C 7464   0.798   3.851   4.155 -0.7560 -0.5641  0.1548
  815MOL0     N 7465   0.789   3.991   4.202 -0.1108  0.3949  0.6224
  815MOL0     C 7466   0.756   4.090   4.114 -0.5176  0.1749 -0.1096
  815MOL0     C 7467   0.719   4.196   4.188 -0.2012  0.3401 -0.0148
  815MOL0     C 7468   0.650   4.315   4.128  0.8157 -0.3430 -0.0089
  815MOL0     C 7469   0.506   4.335   4.195 -0.4871  0.3617 -0.9162
  815MOL0     C 7470   0.414   4.421   4.102  0.2892  0.0809  0.9016
  815MOL0     C 7471   0.272   4.431   4.160 -0.7708 -0.7901  0.5936
  815MOL0     O 7472   0.211   4.297   4.186 -0.0239 -0.4368  0.6436
  815MOL0     C 7473   0.074   4.284   4.226  0.2482 -0.2925 -1.0334
  815MOL0     C 7474   0.038   4.165   4.303  1.1424  0.2537 -0.0080
  815MOL0     C 7475  -0.092   4.151   4.351  0.7528  0.1680 -0.4423
  815MOL0     C 7476  -0.188   4.249   4.336  0.4235  0.1905  0.4532
  815MOL0     C 7477  -0.319   4.233   4.395  0.5243 -0.1427 -0.1956
  815MOL0     O 7478  -0.422   4.312   4.346 -1.0481 -0.3197 -0.0156
  815MOL0     C 7479  -0.544   4.305   4.402  0.1114  0.6154  1.5664
  815MOL0     C 7480  -0.618   4.189   4.416 -0.3490 -1.1581  0.2135
  815MOL0     C 7481  -0.720   4.177   4.501 -0.5166  0.0000  0.0876
  815MOL0     C 7482  -0.779   4.294   4.559 -0.3649  0.1057 -0.9777
  815MOL0     O 7483  -0.900   4.301   4.630 -0.0290  0.4539 -0.4617
  815MOL0     C 7484  -0.994   4.187   4.629 -0.7652 -0.3073 -0.1620
  815MOL0     C 7485  -1.109   4.221   4.722 -0.9019 -0.1915  0.2572
  815MOL0     C 7486  -1.237   4.272   4.647  0.5222  0.2104  0.1644
  815MOL0     C 7487  -1.216   4.405   4.579 -0.2427  0.2386  0.6089
  815MOL0     C 7488  -1.229   4.524   4.675 -0.3414  0.0600  0.0813
  815MOL0     C 7489  -1.256   4.664   4.603 -0.1973 -0.1686 -0.5570
  815MOL0     C 7490  -1.234   4.787   4.700  1.0762 -0.0628  0.8313
  815MOL0     C 7491  -1.312   4.775   4.841 -0.1608  0.4912  1.1149
  815MOL0    Cl 7492  -1.487   4.777   4.816 -0.2246  0.4052  0.3750
  815MOL0     C 7493  -0.716   4.417   4.527 -0.0366  0.2811  0.2517
  815MOL0     C 7494  -0.599   4.424   4.442  0.1699  0.5626  0.4447
  815MOL0     O 7495  -0.332   4.144   4.477 -1.0541  0.5079  1.0037
  815MOL0     C 7496  -0.147   4.371   4.287 -0.8063 -0.4602  0.2905
  815MOL0     C 7497  -0.020   4.390   4.237 -0.4376 -0.9318 -0.3214
  815MOL0     N 7498   0.755   4.163   4.321 -0.2478 -0.0989 -0.3645
  815MOL0     N 7499   0.794   4.042   4.326 -0.0291 -0.2465 -0.6268
  815MOL0     C 7500   1.530   3.538   3.449 -0.3911 -0.1579  0.3152
  815MOL0     C 7501   1.611   3.460   3.379  0.6269  0.4035 -0.6820
  815MOL0     C 7502   1.820   3.063   3.244  0.2112 -0.0771 -0.1887
  815MOL0     C 7503   1.834   2.919   3.267 -0.7826  0.6359 -0.6731
  815MOL0     C 7504   1.944   2.861   3.201 -0.8749  0.0365  0.3613
  815MOL0     C 7505   2.033   2.936   3.121 -0.3182 -0.6711 -0.1796
  815MOL0     O 7506   2.158   2.890   3.073  0.4668 -0.1485 -0.1030
  815MOL0     C 7507   2.192   2.752   3.080 -0.1035 -0.6344 -0.1293
  815MOL0     C 7508   2.104   2.659   2.987  0.0050  0.0234 -1.0813
  815MOL0     C 7509   2.145   2.695   2.837 -0.5255 -0.3364 -0.2136
  815MOL0     C 7510   2.084   2.596   2.740  0.1995  0.3647 -0.3214
  815MOL0     C 7511   1.944   2.631   2.692 -0.8661 -0.4054  0.2076
  815MOL0     C 7512   1.834   2.667   2.658  0.5439  0.8161 -0.6077
  815MOL0     C 7513   2.016   3.069   3.105 -0.1815 -0.1130 -0.1953
  815MOL0     C 7514   1.909   3.135   3.162  0.0282 -0.4959  0.8712
  815MOL0     H 7515   1.430   3.180   3.331  1.4794 -0.7473  2.0694
  815MOL0     H 7516   1.265   3.313   3.458 -0.6255  0.8733 -2.0374
  815MOL0     H 7517   1.386   3.748   3.592  1.3563 -0.1915 -0.3418
  815MOL0     H 7518   1.462   3.635   3.707  1.4061 -0.2079 -2.6719
  815MOL0     H 7519   1.164   3.720   3.727 -0.5675  1.5825  1.3119
  815MOL0     H 7520   1.283   3.798   3.811  0.6760  0.2555 -1.7341
  815MOL0     H 7521   1.364   3.557   3.891  1.3862  1.9119 -2.3862
  815MOL0     H 7522   1.212   3.508   3.807 -3.2566  2.4020 -1.3535
  815MOL0     H 7523   1.209   3.569   4.071  3.0722  0.7752  0.6898
  815MOL0     H 7524   1.182   3.733   4.003  0.3787 -0.0395 -0.3327
  815MOL0     H 7525   1.016   3.498   3.931 -0.9278  0.3597 -1.1444
  815MOL0     H 7526   1.003   3.648   3.856 -0.9318 -1.9600 -0.7219
  815MOL0     H 7527   0.952   3.609   4.146  1.8605  0.0941 -0.4060
  815MOL0     H 7528   0.831   3.636   4.011  0.0778 -3.0072  0.3911
  815MOL0     H 7529   1.029   3.842   4.117  0.6865 -0.4760  0.5713
  815MOL0     H 7530   0.914   3.865   3.983  0.2015  0.9795  1.2176
  815MOL0     H 7531   0.791   3.779   4.236 -0.4863  0.9393  1.5785
  815MOL0     H 7532   0.715   3.826   4.089  0.3762 -0.5010 -1.3533
  815MOL0     H 7533   0.757   4.081   4.006  3.7373  1.2757 -0.3306
  815MOL0     H 7534   0.638   4.308   4.019  5.1356  2.8874 -0.9902
  815MOL0     H 7535   0.711   4.404   4.143  1.0036 -0.6393  1.0228
  815MOL0     H 7536   0.517   4.394   4.287  2.9925 -1.0046 -0.2731
  815MOL0     H 7537   0.458   4.240   4.220 -1.4531  1.5620  2.2390
  815MOL0     H 7538   0.458   4.518   4.082  0.6966 -0.1276  0.7756
  815MOL0     H 7539   0.395   4.370   4.007 -3.6694  0.8979  1.0700
  815MOL0     H 7540   0.207   4.493   4.097 -0.4916  1.4455  2.3433
  815MOL0     H 7541   0.264   4.483   4.256 -0.0827 -0.0704  0.2772
  815MOL0     H 7542   0.117   4.091   4.306 -0.5737 -1.9478 -3.5860
  815MOL0     H 7543  -0.119   4.055   4.393  1.8636 -0.1301 -0.3972
  815MOL0     H 7544  -0.574   4.097   4.377  1.2637 -0.0836 -0.6109
  815MOL0     H 7545  -0.752   4.075   4.520  1.9164 -0.9589 -0.6693
  815MOL0     H 7546  -0.937   4.099   4.662 -0.7813 -0.2945 -0.0997
  815MOL0     H 7547  -1.040   4.160   4.533 -2.0665 -0.3286  0.4454
  815MOL0     H 7548  -1.071   4.290   4.798  1.1206  1.7914 -2.3788
  815MOL0     H 7549  -1.130   4.134   4.784  1.0566 -0.5504  0.4581
  815MOL0     H 7550  -1.322   4.283   4.714 -1.5049  0.1956 -2.2745
  815MOL0     H 7551  -1.272   4.215   4.560  2.9329 -0.5135 -0.4157
  815MOL0     H 7552  -1.129   4.403   4.514 -0.7504 -2.2050 -0.0861
  815MOL0     H 7553  -1.297   4.423   4.507  0.8738 -2.3064 -1.4382
  815MOL0     H 7554  -1.133   4.542   4.724 -0.8234  2.5397  0.1989
  815MOL0     H 7555  -1.300   4.503   4.756 -0.5033  2.1485  0.5255
  815MOL0     H 7556  -1.357   4.666   4.563  1.1597  2.3751 -4.4802
  815MOL0     H 7557  -1.185   4.679   4.522  2.2824 -0.4700  1.4168
  815MOL0     H 7558  -1.126   4.776   4.712  1.0763 -1.1109 -0.0136
  815MOL0     H 7559  -1.256   4.887   4.663 -0.6118  0.3516  2.7606
  815MOL0     H 7560  -1.286   4.857   4.908 -0.6656 -0.8932  3.1065
  815MOL0     H 7561  -1.296   4.676   4.886  0.3138 -0.0915 -0.2705
  815MOL0     H 7562  -0.745   4.513   4.568  1.2753  1.0054 -0.4560
  815MOL0     H 7563  -0.555   4.519   4.414  2.2169  0.3146  2.4431
  815MOL0     H 7564  -0.229   4.441   4.300 -1.7940 -1.3348 -1.0207
  815MOL0     H 7565   0.012   4.490   4.209  0.8705 -1.3528 -0.4261
  815MOL0     H 7566   1.577   3.621   3.500  1.4057 -0.9156 -0.0577
  815MOL0     H 7567   1.715   3.488   3.363  1.4205 -1.9865 -0.1615
  815MOL0     H 7568   1.773   2.868   3.341  1.8533 -1.7666  0.0186
  815MOL0     H 7569   1.977   2.760   3.225 -1.1681 -0.2761 -0.5007
  815MOL0     H 7570   2.198   2.703   3.178  1.4097  0.2344  0.2485
  815MOL0     H 7571   2.298   2.750   3.054  0.9693  5.5766  2.2245
  815MOL0     H 7572   2.129   2.555   3.012 -2.4408  0.3986  4.4017
  815MOL0     H 7573   1.997   2.669   3.010  0.3135  0.7426  0.1495
  815MOL0     H 7574   2.254   2.687   2.844 -0.6631 -2.6817 -0.1440
  815MOL0     H 7575   2.102   2.794   2.818 -0.8376 -0.8800 -2.6482
  815MOL0     H 7576   2.145   2.589   2.649  2.4398  4.1459  0.6544
  815MOL0     H 7577   2.085   2.493   2.778  0.0543  0.3563 -0.3397
  815MOL0     H 7578   1.736   2.709   2.646 -0.7674 -2.0077 -0.6020
  815MOL0     H 7579   2.085   3.122   3.041  0.4873 -0.9640 -0.1901
  815MOL0     H 7580   1.903   3.243   3.148 -0.9724 -0.4530  1.5804
  816MOL0     O 7581   7.233   7.440   9.115 -0.0106 -0.2663  0.2438
  816MOL0     C 7582   7.177   7.352   9.050  0.4535 -0.9772 -0.2346
  816MOL0     O 7583   7.070   7.286   9.082  0.0304  0.2948  0.0198
  816MOL0     C 7584   6.984   7.322   9.181  0.5123 -0.0503 -1.0728
  816MOL0     C 7585   6.911   7.443   9.179  0.2413  0.3518  0.4276
  816MOL0     C 7586   6.836   7.473   9.294  0.8016 -0.9764 -0.1281
  816MOL0     C 7587   6.852   7.395   9.417  0.2205  0.0565 -0.3636
  816MOL0     O 7588   6.779   7.422   9.525 -0.2704  0.1682  0.5451
  816MOL0     C 7589   6.819   7.524   9.612  0.3238  0.9482 -0.3199
  816MOL0     C 7590   6.714   7.521   9.735  0.2854 -0.1592  0.0284
  816MOL0     C 7591   6.756   7.427   9.849 -0.2961  0.0101  0.8320
  816MOL0     C 7592   6.803   7.284   9.799  0.0067  0.5830 -0.3514
  816MOL0     C 7593   6.835   7.198   9.931  0.6540 -0.3837  0.1138
  816MOL0     C 7594   6.721   7.180  10.039  0.4662 -0.0130 -0.1979
  816MOL0     C 7595   6.603   7.133   9.950  0.2789  0.2206  0.9558
  816MOL0     C 7596   6.503   7.053  10.036 -0.0706 -0.1924 -0.4830
  816MOL0     N 7597   6.420   7.138  10.128 -0.3057 -0.3464  0.4721
  816MOL0     C 7598   6.293   7.178  10.104 -0.6166 -0.4637  0.2783
  816MOL0     C 7599   6.264   7.227  10.224 -0.2887  0.1458 -0.0543
  816MOL0     C 7600   6.129   7.274  10.265 -0.7190 -0.5315  0.4270
  816MOL0     C 7601   6.017   7.205  10.188 -0.0559 -0.5711  0.0700
  816MOL0     C 7602   5.892   7.206  10.276  0.5343 -0.3071  0.7719
  816MOL0     C 7603   5.855   7.350  10.347 -0.9926 -0.3407  0.2978
  816MOL0     O 7604   5.740   7.338  10.437  0.4244 -0.3422  0.9597
  816MOL0     C 7605   5.659   7.441  10.457 -0.4683  0.7516 -0.2875
  816MOL0     C 7606   5.676   7.572  10.438  0.4141 -0.3759 -0.0757
  816MOL0     C 7607   5.579   7.672  10.473 -1.1707  0.0986 -0.5559
  816MOL0     C 7608   5.455   7.625  10.531 -0.0547 -0.0398 -1.4230
  816MOL0     C 7609   5.365   7.720  10.591  0.0752  0.0314  0.6214
  816MOL0     O 7610   5.422   7.840  10.615 -0.4085 -0.4435 -0.0506
  816MOL0     C 7611   5.381   7.916  10.715 -0.6855 -0.2506 -0.2729
  816MOL0     C 7612   5.467   7.927  10.835 -0.7412 -0.8574 -0.4524
  816MOL0     C 7613   5.420   8.013  10.941  0.2259 -0.0797 -0.5996
  816MOL0     C 7614   5.295   8.079  10.937  0.2438 -0.4636  0.3119
  816MOL0     O 7615   5.270   8.156  11.048  0.4273 -0.1538  0.6063
  816MOL0     C 7616   5.242   8.293  11.012  0.8170  0.4639  1.0151
  816MOL0     C 7617   5.154   8.357  11.123 -0.0944  0.1030 -0.8989
  816MOL0     C 7618   5.016   8.297  11.127  0.6996  0.0307 -0.2697
  816MOL0     C 7619   4.948   8.357  11.248  0.7115 -0.7324 -0.4499
  816MOL0     C 7620   4.790   8.367  11.229  0.2368 -0.2516 -0.1006
  816MOL0     C 7621   4.730   8.398  11.374 -0.3862  0.1207  1.3584
  816MOL0     C 7622   4.579   8.393  11.373  0.1132 -0.8721  0.3786
  816MOL0     C 7623   4.514   8.255  11.346 -0.4983 -0.0307 -0.1424
  816MOL0    Cl 7624   4.576   8.123  11.456  0.1811 -0.8933  0.2541
  816MOL0     C 7625   5.210   8.062  10.821  0.4300  0.1727  0.0511
  816MOL0     C 7626   5.258   7.986  10.713 -0.2497 -0.1316 -0.5367
  816MOL0     O 7627   5.254   7.688  10.628 -0.1644  0.6777 -0.5552
  816MOL0     C 7628   5.448   7.490  10.567 -0.7823  0.4276 -0.8820
  816MOL0     C 7629   5.543   7.395  10.521 -0.5032 -0.0105  0.0583
  816MOL0     N 7630   6.374   7.228  10.312  0.2791 -0.4152  0.4242
  816MOL0     N 7631   6.468   7.170  10.251 -0.7436  0.4735  0.9166
  816MOL0     C 7632   6.921   7.278   9.410  0.4821 -1.3935  0.1342
  816MOL0     C 7633   6.999   7.247   9.293 -0.2463  0.5380 -0.9393
  816MOL0     C 7634   7.239   7.306   8.926 -0.3265 -0.4108  0.6983
  816MOL0     C 7635   7.163   7.254   8.822 -0.3173  0.8376  0.7362
  816MOL0     C 7636   7.225   7.211   8.704 -0.0888  0.8741 -0.8761
  816MOL0     C 7637   7.348   7.232   8.680 -1.2565 -0.3523  0.7789
  816MOL0     O 7638   7.430   7.211   8.569 -0.5343 -0.1857 -0.2928
  816MOL0     C 7639   7.359   7.164   8.458 -0.6995  0.2358 -0.3381
  816MOL0     C 7640   7.447   7.158   8.335  0.7493  0.1966  0.4989
  816MOL0     C 7641   7.547   7.047   8.350  0.0824 -0.3109  0.9160
  816MOL0     C 7642   7.481   6.907   8.319 -0.5568 -0.6342 -0.4574
  816MOL0     C 7643   7.450   6.893   8.178 -0.8897  0.3807  0.7842
  816MOL0     C 7644   7.436   6.876   8.058  0.7684  0.3941  0.0340
  816MOL0     C 7645   7.425   7.296   8.768 -0.4803 -0.2271  0.9415
  816MOL0     C 7646   7.379   7.317   8.896  0.9506 -0.4197  0.2825
  816MOL0     H 7647   6.908   7.516   9.098  0.5014  0.8847  0.8896
  816MOL0     H 7648   6.775   7.562   9.287  0.8867 -0.9802 -1.0511
  816MOL0     H 7649   6.834   7.621   9.564  1.6250  1.0703  0.2762
  816MOL0     H 7650   6.914   7.504   9.663 -0.9574  0.0774  1.8406
  816MOL0     H 7651   6.620   7.502   9.684  0.5690 -0.6129 -0.3278
  816MOL0     H 7652   6.714   7.623   9.775  4.2201  0.2405 -0.6209
  816MOL0     H 7653   6.669   7.409   9.913  1.2174  0.0463  3.0015
  816MOL0     H 7654   6.835   7.475   9.907  0.0052  1.4214 -0.6749
  816MOL0     H 7655   6.732   7.236   9.731 -1.3126 -1.0642  2.0463
  816MOL0     H 7656   6.900   7.289   9.747 -0.2717  0.0195 -0.9476
  816MOL0     H 7657   6.918   7.248   9.982  1.8920  1.7788 -3.5747
  816MOL0     H 7658   6.880   7.109   9.888  1.1942  1.4085 -3.4115
  816MOL0     H 7659   6.710   7.276  10.090  1.8615  2.3654 -3.9462
  816MOL0     H 7660   6.745   7.093  10.101  1.9159  0.2222 -0.3764
  816MOL0     H 7661   6.553   7.222   9.910  2.1033  0.2915 -1.3829
  816MOL0     H 7662   6.639   7.069   9.869 -0.6080 -2.4929  2.5817
  816MOL0     H 7663   6.557   6.970  10.084  1.5067  0.5646 -0.8725
  816MOL0     H 7664   6.444   7.000   9.961 -0.3929  2.5384 -2.3101
  816MOL0     H 7665   6.225   7.169  10.020 -0.2861 -1.1392  0.0824
  816MOL0     H 7666   6.129   7.383  10.251  5.2876 -0.0698  1.3980
  816MOL0     H 7667   6.125   7.247  10.371  1.0989 -3.0521 -0.0685
  816MOL0     H 7668   6.048   7.103  10.162  1.2624 -1.1330  3.3369
  816MOL0     H 7669   5.998   7.259  10.095  0.1931  1.3918  1.1198
  816MOL0     H 7670   5.807   7.190  10.209  1.7366  2.2264 -1.5699
  816MOL0     H 7671   5.894   7.124  10.349  0.6385 -1.3564 -0.3858
  816MOL0     H 7672   5.830   7.419  10.266  0.5571 -1.4374 -1.1990
  816MOL0     H 7673   5.939   7.392  10.403  0.4342 -2.1419 -0.3772
  816MOL0     H 7674   5.768   7.613  10.395  0.6707 -0.6687  0.1922
  816MOL0     H 7675   5.609   7.771  10.440  0.3536 -0.7392 -1.7876
  816MOL0     H 7676   5.553   7.861  10.843 -1.6287 -1.8509  1.2195
  816MOL0     H 7677   5.474   8.026  11.034  0.7181  0.7236 -0.9815
  816MOL0     H 7678   5.200   8.312  10.913 -0.8234  1.7607  1.9092
  816MOL0     H 7679   5.343   8.333  11.022  1.3800 -0.9858  1.4102
  816MOL0     H 7680   5.146   8.465  11.111 -1.2107  0.5478  2.6454
  816MOL0     H 7681   5.203   8.340  11.219 -0.4733  2.3242 -0.2723
  816MOL0     H 7682   5.004   8.189  11.119  1.6957  0.0213 -2.1741
  816MOL0     H 7683   4.964   8.330  11.037  1.1516  2.9303  0.4233
  816MOL0     H 7684   4.982   8.319  11.345  1.0958 -0.0832 -0.3273
  816MOL0     H 7685   4.982   8.459  11.266  0.5928 -0.9130  0.9270
  816MOL0     H 7686   4.754   8.275  11.182 -1.7445  0.8627 -0.8947
  816MOL0     H 7687   4.774   8.452  11.162  0.7801 -0.3506 -0.3595
  816MOL0     H 7688   4.760   8.499  11.402  2.9544 -0.1207 -0.7974
  816MOL0     H 7689   4.777   8.332  11.448 -1.0575 -0.7565  1.0126
  816MOL0     H 7690   4.541   8.425  11.470 -2.2324 -0.7987 -0.5028
  816MOL0     H 7691   4.540   8.457  11.293 -0.5662  0.5366  1.8013
  816MOL0     H 7692   4.543   8.214  11.249 -0.8888 -2.2688  0.6447
  816MOL0     H 7693   4.405   8.263  11.355 -0.7144 -1.6355 -1.0353
  816MOL0     H 7694   5.108   8.098  10.811  0.4575  0.7422  1.5707
  816MOL0     H 7695   5.195   7.965  10.627 -0.4366  0.6049 -0.5859
  816MOL0     H 7696   5.366   7.452  10.627 -1.0064 -0.3849 -1.6866
  816MOL0     H 7697   5.536   7.290  10.551  0.1098  0.6407  2.7211
  816MOL0     H 7698   6.936   7.221   9.501 -2.0654 -3.2780 -0.5113
  816MOL0     H 7699   7.074   7.168   9.295 -0.4144  0.3847  1.2263
  816MOL0     H 7700   7.056   7.239   8.833 -0.1318 -3.1418 -1.0915
  816MOL0     H 7701   7.171   7.153   8.630  1.9951 -1.4557 -0.7384
  816MOL0     H 7702   7.286   7.236   8.422  0.4053  0.3754 -2.3955
  816MOL0     H 7703   7.297   7.076   8.479 -0.0007  0.6755  4.9218
  816MOL0     H 7704   7.384   7.155   8.246  1.1032  1.3024  0.1942
  816MOL0     H 7705   7.509   7.248   8.331 -0.1714  0.8997  1.4497
  816MOL0     H 7706   7.599   7.051   8.446  1.1741  1.3186  0.2979
  816MOL0     H 7707   7.622   7.060   8.272 -2.5619 -0.2059 -1.7851
  816MOL0     H 7708   7.553   6.830   8.347  1.7786  0.9828 -1.6141
  816MOL0     H 7709   7.392   6.914   8.382 -0.1837  0.3238 -0.0228
  816MOL0     H 7710   7.425   6.861   7.953  2.7786 -0.6452 -0.0900
  816MOL0     H 7711   7.529   7.321   8.749 -0.8283  0.3503 -0.3118
  816MOL0     H 7712   7.440   7.367   8.970  0.2669 -0.2272  0.7218
  817MOL0     O 7713  10.555   7.637   5.460  0.9055 -1.0226  0.1395
  817MOL0     C 7714  10.531   7.697   5.358 -1.0585 -0.2769  0.4273
  817MOL0     O 7715  10.538   7.643   5.237  0.0404  0.6625  0.1079
  817MOL0     C 7716  10.552   7.502   5.226  0.2952 -0.7792 -0.2832
  817MOL0     C 7717  10.479   7.408   5.296  0.5937 -0.6953  0.3612
  817MOL0     C 7718  10.478   7.271   5.264 -0.3522 -0.1069  0.3869
  817MOL0     C 7719  10.567   7.220   5.164  0.5324  0.4843 -0.0918
  817MOL0     O 7720  10.585   7.089   5.133 -0.1515  0.5352  0.2131
  817MOL0     C 7721  10.506   6.993   5.210 -0.0475  0.9973  0.0901
  817MOL0     C 7722  10.519   6.855   5.149  0.7714 -0.9153 -0.7281
  817MOL0     C 7723  10.462   6.756   5.256 -0.1059  0.0904 -0.2793
  817MOL0     C 7724  10.491   6.616   5.204 -1.2969  0.3912 -0.3604
  817MOL0     C 7725  10.452   6.506   5.302 -0.3377 -0.4197  0.6132
  817MOL0     C 7726  10.497   6.375   5.240 -0.0972  0.7528 -0.1430
  817MOL0     C 7727  10.471   6.262   5.344 -0.4283  0.3790 -0.4570
  817MOL0     C 7728  10.470   6.125   5.281  0.1025 -0.2673 -0.3080
  817MOL0     N 7729  10.465   6.013   5.380 -0.5933  1.0010  0.4390
  817MOL0     C 7730  10.580   5.956   5.430  0.3889  0.3009  0.5855
  817MOL0     C 7731  10.529   5.861   5.519 -0.3203 -0.3677  0.3516
  817MOL0     C 7732  10.622   5.787   5.626 -0.1308 -0.6793  0.3770
  817MOL0     C 7733  10.702   5.876   5.709  0.1279  0.4214 -0.3956
  817MOL0     C 7734  10.828   5.793   5.748 -0.4243 -0.3152  0.1502
  817MOL0     C 7735  10.896   5.845   5.879 -0.9328  0.6506 -0.4268
  817MOL0     O 7736  10.933   5.982   5.867  0.2976  0.8261  0.0148
  817MOL0     C 7737  11.041   6.007   5.785  0.1107 -0.0401  0.8514
  817MOL0     C 7738  11.054   6.139   5.735 -0.7816  0.8243 -0.3416
  817MOL0     C 7739  11.157   6.178   5.645  0.0224  0.0818  0.2866
  817MOL0     C 7740  11.256   6.085   5.608  0.6453  0.8119 -0.5919
  817MOL0     C 7741  11.369   6.135   5.535 -0.4303  0.1277  0.5075
  817MOL0     O 7742  11.385   6.267   5.547  0.1825 -0.5334 -0.6382
  817MOL0     C 7743  11.493   6.329   5.487 -0.2886  0.3772  0.8458
  817MOL0     C 7744  11.623   6.288   5.499 -0.1922  0.9222  0.1135
  817MOL0     C 7745  11.732   6.359   5.448  0.5922  0.2672  0.6965
  817MOL0     C 7746  11.711   6.476   5.383 -0.1389 -0.5516  0.5245
  817MOL0     O 7747  11.827   6.541   5.344 -0.4051  0.5262  0.2230
  817MOL0     C 7748  11.808   6.675   5.320  0.4024  0.4712 -0.3131
  817MOL0     C 7749  11.938   6.732   5.268  0.1699 -0.0717 -0.0903
  817MOL0     C 7750  11.952   6.885   5.240  0.2396 -0.6541 -0.0478
  817MOL0     C 7751  11.844   6.941   5.135 -0.8953 -0.3494 -0.4782
  817MOL0     C 7752  11.904   7.050   5.042  0.5628 -0.2204  0.0290
  817MOL0     C 7753  11.944   7.173   5.127 -0.9443  1.3039  0.4382
  817MOL0     C 7754  12.019   7.261   5.023  0.7585  0.1491  0.0838
  817MOL0     C 7755  12.021   7.400   5.084 -0.1766  0.4177 -0.5096
  817MOL0    Cl 7756  12.079   7.418   5.256 -0.1325  0.3621 -0.1516
  817MOL0     C 7757  11.576   6.522   5.370  0.1311 -0.2648  0.6592
  817MOL0     C 7758  11.464   6.442   5.415 -0.1660  0.0711  0.0448
  817MOL0     O 7759  11.448   6.055   5.478 -0.4510 -0.7884 -0.0511
  817MOL0     C 7760  11.243   5.950   5.653  0.4073  0.1276  0.3189
  817MOL0     C 7761  11.132   5.910   5.729  0.0764  0.3266  0.3825
  817MOL0     N 7762  10.391   5.880   5.530 -0.3218  0.2908  0.5737
  817MOL0     N 7763  10.353   5.971   5.440 -0.5551 -0.7688  0.1748
  817MOL0     C 7764  10.652   7.313   5.097  0.5426  0.0884  0.9085
  817MOL0     C 7765  10.637   7.443   5.127  0.4088 -0.6431 -0.6902
  817MOL0     C 7766  10.474   7.839   5.366 -0.6848  0.1319  0.0845
  817MOL0     C 7767  10.461   7.920   5.252 -1.0012  0.2682 -0.6475
  817MOL0     C 7768  10.366   8.032   5.254 -0.2998  0.6960  0.1864
  817MOL0     C 7769  10.304   8.065   5.377  0.5234 -0.4052 -0.9092
  817MOL0     O 7770  10.212   8.165   5.398 -0.6845  0.0442 -0.3906
  817MOL0     C 7771  10.158   8.248   5.289  0.8247  0.7001 -0.7703
  817MOL0     C 7772  10.027   8.325   5.327 -0.2866 -0.1688 -0.3416
  817MOL0     C 7773  10.066   8.458   5.402 -0.1862  0.1016  0.8129
  817MOL0     C 7774   9.964   8.577   5.385 -1.4361 -0.0654 -1.2103
  817MOL0     C 7775   9.833   8.527   5.433  0.6573  0.4126 -0.7544
  817MOL0     C 7776   9.723   8.480   5.459  0.2244  0.7292 -0.7229
  817MOL0     C 7777  10.331   7.990   5.489  0.5669  0.8888  0.4130
  817MOL0     C 7778  10.407   7.874   5.482 -0.1089  0.1141 -0.2896
  817MOL0     H 7779  10.409   7.435   5.375  0.1053  0.3888 -0.4363
  817MOL0     H 7780  10.426   7.205   5.332  0.2989  1.0007  2.0317
  817MOL0     H 7781  10.401   7.018   5.224  0.0058  0.7008  1.1537
  817MOL0     H 7782  10.549   6.980   5.310  0.3628  2.6417  0.1531
  817MOL0     H 7783  10.624   6.833   5.126  0.3466 -0.9816 -2.7755
  817MOL0     H 7784  10.477   6.836   5.050 -2.5039 -2.0114  0.7232
  817MOL0     H 7785  10.357   6.784   5.269  0.5889  1.8902  2.3256
  817MOL0     H 7786  10.508   6.777   5.353  1.4579  1.9734 -1.3560
  817MOL0     H 7787  10.444   6.599   5.106  2.0617 -0.2266 -2.0086
  817MOL0     H 7788  10.599   6.604   5.195 -1.2481 -2.2534  2.0825
  817MOL0     H 7789  10.343   6.513   5.314 -0.3262 -0.3482  0.6814
  817MOL0     H 7790  10.504   6.518   5.398  3.5064 -1.2054 -1.1893
  817MOL0     H 7791  10.598   6.378   5.200 -1.6487  0.7897 -4.6281
  817MOL0     H 7792  10.438   6.353   5.151  1.3009 -0.2734 -0.8509
  817MOL0     H 7793  10.546   6.282   5.422 -1.1208 -0.9206  0.5983
  817MOL0     H 7794  10.377   6.286   5.394 -1.2704 -1.3209 -1.1831
  817MOL0     H 7795  10.547   6.097   5.210 -1.6534 -4.7144 -0.7652
  817MOL0     H 7796  10.377   6.125   5.224 -0.7164  0.6432  0.9578
  817MOL0     H 7797  10.681   5.977   5.397 -0.7102  0.3384 -3.2290
  817MOL0     H 7798  10.688   5.719   5.571 -0.2411  0.8291 -1.7385
  817MOL0     H 7799  10.552   5.730   5.688 -2.5915  1.1515 -0.5342
  817MOL0     H 7800  10.654   5.898   5.805  3.2516 -2.0095  1.9139
  817MOL0     H 7801  10.742   5.958   5.649  2.0162 -1.9225 -2.5909
  817MOL0     H 7802  10.805   5.687   5.766  3.1845 -1.0578  1.1889
  817MOL0     H 7803  10.906   5.807   5.672  0.7884  3.2571  1.8578
  817MOL0     H 7804  10.980   5.787   5.919 -2.0968  0.8038  2.4639
  817MOL0     H 7805  10.817   5.838   5.954 -0.4901  0.0351 -0.0144
  817MOL0     H 7806  10.995   6.224   5.768 -0.2022  1.2846 -0.4606
  817MOL0     H 7807  11.167   6.281   5.613  1.0393 -0.0245  0.2270
  817MOL0     H 7808  11.638   6.205   5.567 -1.7418  1.4372  1.1337
  817MOL0     H 7809  11.832   6.320   5.463  0.3284 -0.6419  0.1759
  817MOL0     H 7810  11.773   6.719   5.414 -1.9335 -0.2152 -0.7902
  817MOL0     H 7811  11.731   6.682   5.243  1.3339  1.2285 -1.1961
  817MOL0     H 7812  11.951   6.680   5.173 -4.2516  0.8622 -1.4444
  817MOL0     H 7813  12.009   6.696   5.342 -0.1262  1.0717  0.7919
  817MOL0     H 7814  12.055   6.902   5.207 -0.9167  0.8797 -3.2951
  817MOL0     H 7815  11.928   6.943   5.330 -1.3966  1.2759 -1.6179
  817MOL0     H 7816  11.797   6.857   5.081  1.9091 -1.9066 -0.6586
  817MOL0     H 7817  11.769   6.988   5.199 -0.1231 -1.0152  0.9386
  817MOL0     H 7818  11.833   7.078   4.964  0.0585 -1.3495  0.0637
  817MOL0     H 7819  11.987   7.008   4.985  1.1495 -0.7176  1.2098
  817MOL0     H 7820  12.011   7.149   5.210 -1.9469  2.9788  1.8043
  817MOL0     H 7821  11.850   7.216   5.163 -1.6623  0.7387 -0.7385
  817MOL0     H 7822  12.125   7.237   5.009  1.0396 -0.1009  2.3028
  817MOL0     H 7823  11.965   7.278   4.929  0.7998  0.7179  0.1614
  817MOL0     H 7824  11.923   7.447   5.082 -1.6147 -2.4119 -0.7025
  817MOL0     H 7825  12.085   7.461   5.019  0.4130 -0.2356 -0.5530
  817MOL0     H 7826  11.551   6.610   5.312  2.8316  0.1033 -0.0701
  817MOL0     H 7827  11.361   6.472   5.397  0.8756  3.0865 -1.6912
  817MOL0     H 7828  11.324   5.882   5.627 -0.9307 -0.0692 -4.1750
  817MOL0     H 7829  11.103   5.807   5.750 -1.2039  0.5860 -0.0590
  817MOL0     H 7830  10.712   7.273   5.016 -3.1080 -2.2619 -0.9286
  817MOL0     H 7831  10.695   7.523   5.084 -0.6324 -0.5762 -2.0314
  817MOL0     H 7832  10.501   7.888   5.156 -1.8773  2.1045 -1.6810
  817MOL0     H 7833  10.330   8.075   5.161 -0.5249  0.3611  0.1160
  817MOL0     H 7834  10.133   8.175   5.211 -1.2720 -2.0079  2.1539
  817MOL0     H 7835  10.231   8.323   5.258 -1.6781  2.7017 -2.2306
  817MOL0     H 7836   9.972   8.344   5.234  2.7108  3.7788 -1.5917
  817MOL0     H 7837   9.966   8.279   5.405 -2.0292  1.0992 -0.9135
  817MOL0     H 7838  10.164   8.494   5.368  0.4253 -2.5144 -0.4525
  817MOL0     H 7839  10.076   8.435   5.509  1.5621  1.2217  0.9287
  817MOL0     H 7840  10.002   8.661   5.443  0.8829 -2.9299  1.7601
  817MOL0     H 7841   9.959   8.600   5.278  0.0711 -2.8039 -1.9492
  817MOL0     H 7842   9.626   8.442   5.483 -1.0538  2.8826 -2.1043
  817MOL0     H 7843  10.278   8.010   5.581  0.8888 -2.1824  1.3847
  817MOL0     H 7844  10.420   7.812   5.571  3.8670  0.4646 -0.4342
  818MOL0     O 7845   3.257   9.324   9.366 -0.3723  0.2203 -0.3798
  818MOL0     C 7846   3.149   9.269   9.385  0.3321 -0.4744 -0.7318
  818MOL0     O 7847   3.033   9.319   9.455  0.5248 -0.1423 -0.4562
  818MOL0     C 7848   3.021   9.441   9.514 -0.6173  0.3749 -0.2670
  818MOL0     C 7849   3.118   9.535   9.538 -1.1055  0.2587  0.5307
  818MOL0     C 7850   3.091   9.645   9.614  0.4929  0.6290  0.3407
  818MOL0     C 7851   2.965   9.663   9.658  0.2502 -0.9369 -0.1287
  818MOL0     O 7852   2.953   9.780   9.741  0.1048 -0.4746 -0.0570
  818MOL0     C 7853   2.841   9.797   9.837  0.9607  0.2930  0.2577
  818MOL0     C 7854   2.705   9.857   9.784 -0.3328 -0.1278  0.5396
  818MOL0     C 7855   2.735   9.963   9.675  0.6835  0.1397 -0.7909
  818MOL0     C 7856   2.737  10.107   9.724 -0.0923 -0.8218 -0.4344
  818MOL0     C 7857   2.735  10.217   9.617  0.3869  0.2497 -0.5683
  818MOL0     C 7858   2.681  10.350   9.663 -0.4687 -0.3465 -0.0274
  818MOL0     C 7859   2.540  10.353   9.728 -1.1811 -0.7023 -0.4564
  818MOL0     C 7860   2.486  10.490   9.740 -0.7488 -0.0114 -0.0755
  818MOL0     N 7861   2.345  10.493   9.797  0.8543  1.1893 -0.5135
  818MOL0     C 7862   2.307  10.527   9.923 -0.4451  1.0471 -0.1736
  818MOL0     C 7863   2.170  10.492   9.935 -0.0253  0.7329  0.4914
  818MOL0     C 7864   2.095  10.507  10.064  0.6296  0.3004 -0.7767
  818MOL0     C 7865   1.947  10.490  10.044 -0.2982  0.2569  1.3268
  818MOL0     C 7866   1.882  10.610   9.976 -0.7735 -1.2495 -0.7726
  818MOL0     C 7867   1.731  10.621   9.998 -0.0532 -0.0708  0.6668
  818MOL0     O 7868   1.695  10.597  10.133 -0.0640 -0.0946 -0.3031
  818MOL0     C 7869   1.575  10.652  10.159 -1.1468  0.5723  0.7581
  818MOL0     C 7870   1.464  10.621  10.080 -0.4411  0.4966  0.3880
  818MOL0     C 7871   1.340  10.685  10.087 -0.0620 -0.2661  0.6574
  818MOL0     C 7872   1.318  10.786  10.179 -0.7532  0.6262  0.6040
  818MOL0     C 7873   1.186  10.853  10.196  0.7349  0.2016  0.6132
  818MOL0     O 7874   1.102  10.850  10.091 -0.6195 -0.9683  0.1332
  818MOL0     C 7875   0.983  10.920  10.080 -1.0333 -0.8195 -0.1591
  818MOL0     C 7876   0.903  10.863   9.983  0.5798  0.3612  0.2337
  818MOL0     C 7877   0.800  10.924   9.935  0.9949 -0.8542 -0.4208
  818MOL0     C 7878   0.766  11.045   9.986 -0.3868 -1.0580 -0.7126
  818MOL0     O 7879   0.652  11.098   9.949 -0.2534  0.0077 -0.5958
  818MOL0     C 7880   0.649  11.140   9.809  0.2429  0.6398  0.1568
  818MOL0     C 7881   0.571  11.271   9.786  0.8859  0.4581 -0.0584
  818MOL0     C 7882   0.577  11.315   9.638  0.1701 -0.2292  0.3126
  818MOL0     C 7883   0.498  11.443   9.598 -0.9626 -0.3083  0.0829
  818MOL0     C 7884   0.343  11.429   9.629 -0.4361  0.2191  0.4382
  818MOL0     C 7885   0.262  11.322   9.572 -0.4350  0.7321  0.5766
  818MOL0     C 7886   0.115  11.376   9.606  0.2097 -0.3932  1.2202
  818MOL0     C 7887   0.009  11.267   9.596 -0.2272 -0.0166 -0.5057
  818MOL0    Cl 7888  -0.152  11.342   9.615  0.4613  0.0451 -0.7284
  818MOL0     C 7889   0.851  11.113  10.074 -0.7591 -0.1936 -0.2456
  818MOL0     C 7890   0.971  11.054  10.125 -0.2532 -0.7322 -0.1188
  818MOL0     O 7891   1.173  10.921  10.295 -0.1053  0.1573  0.1750
  818MOL0     C 7892   1.427  10.816  10.254 -0.4150  0.1451  0.4044
  818MOL0     C 7893   1.557  10.758  10.241 -0.0837  0.1950 -0.1342
  818MOL0     N 7894   2.133  10.444   9.810 -0.1751  0.3670 -0.3246
  818MOL0     N 7895   2.237  10.446   9.733  0.3702 -0.2133 -0.0246
  818MOL0     C 7896   2.864   9.565   9.637  0.6521 -0.7700 -0.4731
  818MOL0     C 7897   2.896   9.454   9.569 -0.3089  0.2887  0.4941
  818MOL0     C 7898   3.135   9.129   9.332 -0.5684  0.3857  0.3145
  818MOL0     C 7899   3.252   9.063   9.291 -0.5554  0.1323  0.8467
  818MOL0     C 7900   3.230   8.941   9.225  0.1972 -1.3116  0.1372
  818MOL0     C 7901   3.102   8.895   9.182 -0.1041 -0.2037 -0.9311
  818MOL0     O 7902   3.095   8.799   9.086  0.0631  0.0649  0.5560
  818MOL0     C 7903   2.967   8.738   9.058  0.1169  0.5776 -0.3648
  818MOL0     C 7904   2.983   8.599   9.010  0.1480  0.6668 -0.8541
  818MOL0     C 7905   2.852   8.518   8.981 -0.6702  1.0148  0.5240
  818MOL0     C 7906   2.750   8.527   9.098 -0.6873 -0.3512  0.1885
  818MOL0     C 7907   2.645   8.431   9.068 -0.5297  0.2301 -0.0274
  818MOL0     C 7908   2.555   8.360   9.041 -0.6153 -0.3249 -0.3831
  818MOL0     C 7909   2.992   8.966   9.220 -0.1806 -0.2940  0.0341
  818MOL0     C 7910   3.007   9.080   9.297 -1.3476  0.0140  0.1847
  818MOL0     H 7911   3.219   9.527   9.499 -1.0017 -1.2374  1.0730
  818MOL0     H 7912   3.168   9.719   9.634 -0.3548  1.7355 -0.3793
  818MOL0     H 7913   2.871   9.865   9.918  2.1832 -0.0169  0.0921
  818MOL0     H 7914   2.807   9.699   9.871 -1.3420  0.8798 -0.2074
  818MOL0     H 7915   2.646   9.898   9.866  1.1155  2.2357  0.5071
  818MOL0     H 7916   2.644   9.785   9.728 -0.5268 -0.1889  0.8302
  818MOL0     H 7917   2.653   9.972   9.604  0.4659 -1.9926 -0.8801
  818MOL0     H 7918   2.830   9.938   9.626  0.5747 -1.7296 -0.1257
  818MOL0     H 7919   2.655  10.113   9.796  0.1193  0.5649 -0.2906
  818MOL0     H 7920   2.834  10.119   9.775 -0.0170 -1.2168 -0.4822
  818MOL0     H 7921   2.674  10.190   9.531 -1.5055 -0.8038  1.0126
  818MOL0     H 7922   2.830  10.233   9.566 -0.2778 -0.7051 -2.1668
  818MOL0     H 7923   2.669  10.414   9.575 -0.0609  0.6288  0.6054
  818MOL0     H 7924   2.754  10.390   9.734  0.1031  0.7127 -1.1675
  818MOL0     H 7925   2.480  10.284   9.668  0.3459 -1.4580 -1.1914
  818MOL0     H 7926   2.534  10.313   9.829  0.7314 -0.7485 -0.3143
  818MOL0     H 7927   2.477  10.537   9.642 -1.6222  0.1358  0.0664
  818MOL0     H 7928   2.555  10.552   9.798  0.6226 -0.6400 -0.9897
  818MOL0     H 7929   2.367  10.573  10.001  1.4502  1.4466 -1.8089
  818MOL0     H 7930   2.113  10.610  10.099  2.3456 -0.1486 -0.2643
  818MOL0     H 7931   2.116  10.436  10.144 -0.4586 -2.0048 -2.4158
  818MOL0     H 7932   1.905  10.476  10.144  1.5989  0.9789  2.2911
  818MOL0     H 7933   1.927  10.401   9.985  2.0200 -0.8313  2.0315
  818MOL0     H 7934   1.925  10.700  10.020  1.0143 -2.8022  0.8100
  818MOL0     H 7935   1.895  10.609   9.867  0.0413 -2.4343 -0.6825
  818MOL0     H 7936   1.675  10.546   9.941 -2.3541  2.5930 -0.7786
  818MOL0     H 7937   1.697  10.716   9.957  3.2264 -0.4542 -3.7406
  818MOL0     H 7938   1.475  10.540  10.009  1.2599  1.7775 -0.9021
  818MOL0     H 7939   1.259  10.648  10.025  1.9767 -2.0425 -1.1150
  818MOL0     H 7940   0.915  10.762   9.945  1.8116  1.3413 -2.1883
  818MOL0     H 7941   0.737  10.870   9.865  1.4366 -1.7114 -0.1646
  818MOL0     H 7942   0.584  11.068   9.759  0.4363  1.0130 -0.6521
  818MOL0     H 7943   0.746  11.146   9.758  0.3135  2.4677  0.4542
  818MOL0     H 7944   0.616  11.344   9.854  0.1408 -0.1018  1.0477
  818MOL0     H 7945   0.465  11.257   9.808  0.5349  0.7921 -1.3985
  818MOL0     H 7946   0.539  11.238   9.571 -1.5061  2.2581 -1.8075
  818MOL0     H 7947   0.679  11.342   9.608  1.2210 -1.0994  2.7782
  818MOL0     H 7948   0.543  11.524   9.656  0.2999 -0.2877 -0.8630
  818MOL0     H 7949   0.507  11.461   9.490  0.0770 -3.1926 -0.4070
  818MOL0     H 7950   0.299  11.520   9.587 -0.6628 -1.1633 -2.6182
  818MOL0     H 7951   0.336  11.419   9.738  2.0225 -1.6221  0.5044
  818MOL0     H 7952   0.295  11.228   9.618  3.3109  2.5443  1.9633
  818MOL0     H 7953   0.274  11.317   9.463  0.3792  0.2924  0.6799
  818MOL0     H 7954   0.104  11.412   9.709 -1.3013 -3.4607  2.2432
  818MOL0     H 7955   0.091  11.454   9.533  2.1441  0.2624  1.2078
  818MOL0     H 7956   0.029  11.194   9.675 -0.9759 -0.7655 -0.9929
  818MOL0     H 7957   0.007  11.221   9.497  2.8512  0.4148 -0.8781
  818MOL0     H 7958   0.809  11.209  10.100 -2.5512 -0.6509 -1.2789
  818MOL0     H 7959   1.040  11.102  10.193 -1.1704 -0.0887  0.3843
  818MOL0     H 7960   1.423  10.887  10.337  1.9511 -0.7881  1.4096
  818MOL0     H 7961   1.640  10.784  10.306 -0.0881 -0.6223  0.2077
  818MOL0     H 7962   2.761   9.587   9.663  0.6540  0.6256 -1.5115
  818MOL0     H 7963   2.823   9.375   9.558  0.3529 -0.3443  0.5779
  818MOL0     H 7964   3.353   9.094   9.315 -0.4452  1.3709 -0.9847
  818MOL0     H 7965   3.313   8.872   9.215  1.0442 -0.5029  1.3010
  818MOL0     H 7966   2.911   8.783   8.976 -1.5726  0.7459  0.8373
  818MOL0     H 7967   2.911   8.718   9.149 -2.2238 -0.4302 -1.9374
  818MOL0     H 7968   3.041   8.616   8.919  1.3780 -2.5893 -0.7844
  818MOL0     H 7969   3.056   8.547   9.072  1.5702 -0.6896 -3.5104
  818MOL0     H 7970   2.884   8.416   8.959  2.6193  1.7663  1.3479
  818MOL0     H 7971   2.817   8.565   8.889 -0.3093  2.6400  1.1771
  818MOL0     H 7972   2.789   8.498   9.196  2.9419 -3.4500 -1.9173
  818MOL0     H 7973   2.718   8.632   9.104 -1.3277 -0.6208  4.6496
  818MOL0     H 7974   2.468   8.300   9.022  0.2017 -1.1122 -1.8368
  818MOL0     H 7975   2.892   8.933   9.193 -0.4782 -1.7034  2.5479
  818MOL0     H 7976   2.916   9.133   9.321 -2.4311 -0.8773 -1.7476
  819MOL0     O 7977   5.840   6.330  10.206  0.2963 -1.0424 -0.1312
  819MOL0     C 7978   5.900   6.423  10.144 -0.2379  0.8133  0.3212
  819MOL0     O 7979   6.009   6.403  10.064 -0.5926  0.7543  0.1559
  819MOL0     C 7980   6.076   6.277  10.064  0.0690 -0.3885  0.6492
  819MOL0     C 7981   6.089   6.188  10.182  0.1158  0.6853  0.3917
  819MOL0     C 7982   6.182   6.086  10.193  0.7011  0.8826 -0.2199
  819MOL0     C 7983   6.271   6.063  10.094 -0.4160 -0.1085  0.1051
  819MOL0     O 7984   6.357   5.955  10.099 -0.0654  0.7185  0.5070
  819MOL0     C 7985   6.502   5.978  10.114 -0.5824  0.5311 -0.3827
  819MOL0     C 7986   6.536   6.005  10.257  1.0807  0.0130  0.3847
  819MOL0     C 7987   6.686   6.059  10.277 -0.0782 -0.5003  0.6260
  819MOL0     C 7988   6.712   6.111  10.419 -0.2631 -0.7529  0.2405
  819MOL0     C 7989   6.850   6.167  10.424 -1.4561 -0.0118 -0.2826
  819MOL0     C 7990   6.899   6.206  10.569  0.3667 -0.4360 -0.6399
  819MOL0     C 7991   7.008   6.321  10.558  0.4528  0.3401  0.0670
  819MOL0     C 7992   7.090   6.352  10.683  0.0477 -0.1356 -0.8136
  819MOL0     N 7993   7.184   6.457  10.656 -0.2253 -0.4326  0.5681
  819MOL0     C 7994   7.156   6.584  10.608 -0.5201 -0.3673  0.9004
  819MOL0     C 7995   7.278   6.646  10.596  1.2720  0.7250 -0.7697
  819MOL0     C 7996   7.310   6.798  10.563  0.1436 -0.3028 -0.0363
  819MOL0     C 7997   7.325   6.881  10.690  0.5119  0.6822  0.3745
  819MOL0     C 7998   7.437   6.841  10.793 -0.4889 -0.3081  0.3970
  819MOL0     C 7999   7.385   6.735  10.885 -0.0536 -0.0587 -0.4833
  819MOL0     O 8000   7.392   6.791  11.026 -0.1385 -0.8528 -0.0517
  819MOL0     C 8001   7.310   6.737  11.117 -0.4296  1.4525  0.0509
  819MOL0     C 8002   7.236   6.613  11.091 -0.4149 -0.2131  0.2766
  819MOL0     C 8003   7.143   6.570  11.187 -0.3765  0.2407 -0.2228
  819MOL0     C 8004   7.122   6.651  11.300  1.6898  0.7296 -0.2752
  819MOL0     C 8005   7.016   6.612  11.393  0.3202  0.3661  0.9493
  819MOL0     O 8006   6.953   6.495  11.370  0.8154 -0.0158  0.7320
  819MOL0     C 8007   6.841   6.456  11.435  0.6347 -0.3525  0.2094
  819MOL0     C 8008   6.721   6.523  11.400  1.4384 -0.0724  0.1683
  819MOL0     C 8009   6.595   6.487  11.467 -0.8987  0.0497  0.3726
  819MOL0     C 8010   6.601   6.395  11.573 -0.0959  0.2886 -0.5506
  819MOL0     O 8011   6.497   6.366  11.647 -0.0600  0.2965 -0.4038
  819MOL0     C 8012   6.475   6.454  11.755 -0.6606 -0.3320 -0.6458
  819MOL0     C 8013   6.402   6.381  11.857  0.6460  0.4885 -0.9273
  819MOL0     C 8014   6.384   6.439  11.993  0.4870  0.2370 -0.8866
  819MOL0     C 8015   6.320   6.332  12.083 -0.1224  0.2588 -0.7137
  819MOL0     C 8016   6.266   6.399  12.212  0.5283  0.5853  0.0971
  819MOL0     C 8017   6.305   6.536  12.246  0.5336  0.6487  0.3697
  819MOL0     C 8018   6.256   6.584  12.379 -0.9086  0.2698  0.3352
  819MOL0     C 8019   6.287   6.484  12.501 -0.3718 -0.3753  0.4530
  819MOL0    Cl 8020   6.465   6.462  12.524  0.0199 -0.1061 -0.4146
  819MOL0     C 8021   6.722   6.323  11.600  0.3750  0.0754  0.0077
  819MOL0     C 8022   6.837   6.348  11.526  0.3985 -1.0771  0.1545
  819MOL0     O 8023   6.977   6.694  11.474  0.3928  0.1569  0.3443
  819MOL0     C 8024   7.193   6.767  11.324  0.2830 -0.1869 -0.3369
  819MOL0     C 8025   7.282   6.815  11.228 -0.0837  0.3725 -0.7186
  819MOL0     N 8026   7.378   6.552  10.595  0.6304 -0.0395  0.4341
  819MOL0     N 8027   7.318   6.445  10.631 -0.4707  0.2147  0.2286
  819MOL0     C 8028   6.268   6.144   9.985  0.7341  0.1347 -0.7963
  819MOL0     C 8029   6.179   6.249   9.975  0.6404 -0.0165 -0.1007
  819MOL0     C 8030   5.845   6.562  10.151 -0.6163  0.1625 -0.0210
  819MOL0     C 8031   5.707   6.575  10.186 -1.1314 -0.1241  0.6999
  819MOL0     C 8032   5.647   6.695  10.174 -0.0734 -0.6690 -0.7824
  819MOL0     C 8033   5.715   6.814  10.140  1.0606  0.4719  0.1097
  819MOL0     O 8034   5.665   6.938  10.135 -1.0904 -0.8801  0.1553
  819MOL0     C 8035   5.543   6.958  10.209 -0.7524 -0.1097 -0.1404
  819MOL0     C 8036   5.524   7.112  10.230  0.3192  0.0748  0.0151
  819MOL0     C 8037   5.386   7.161  10.281 -0.4199  0.0923  0.8297
  819MOL0     C 8038   5.276   7.146  10.178  0.4041  0.3879  0.3876
  819MOL0     C 8039   5.137   7.158  10.233 -0.2493 -0.8455  0.4281
  819MOL0     C 8040   5.034   7.173  10.291  0.1702 -0.8668  0.3241
  819MOL0     C 8041   5.855   6.797  10.108 -0.6103 -0.9494  0.5507
  819MOL0     C 8042   5.919   6.678  10.115 -0.9320  0.2333 -0.7170
  819MOL0     H 8043   6.030   6.205  10.272  1.6325  2.0843  1.1601
  819MOL0     H 8044   6.174   6.018  10.277  1.4172 -2.4146 -2.5953
  819MOL0     H 8045   6.545   6.061  10.057  3.0159 -1.2422 -0.5653
  819MOL0     H 8046   6.546   5.880  10.092  0.0126  0.5153  0.7933
  819MOL0     H 8047   6.514   5.908  10.304  1.6424 -0.9556 -1.2823
  819MOL0     H 8048   6.472   6.086  10.291  0.6454 -0.1205 -0.1109
  819MOL0     H 8049   6.714   6.128  10.198  0.2635  0.6200  1.6987
  819MOL0     H 8050   6.767   5.985  10.272  1.1693  0.7613  1.5126
  819MOL0     H 8051   6.634   6.183  10.442 -1.3430 -1.6615 -0.4557
  819MOL0     H 8052   6.722   6.028  10.490  1.3049 -0.4867  0.3767
  819MOL0     H 8053   6.848   6.262  10.370 -1.8075  1.3311  1.9671
  819MOL0     H 8054   6.931   6.112  10.375  0.7174  3.2290 -0.6594
  819MOL0     H 8055   6.948   6.118  10.610  2.1399  1.5462  1.7944
  819MOL0     H 8056   6.812   6.242  10.624  1.2351  1.5922 -0.4724
  819MOL0     H 8057   7.087   6.298  10.486  3.7404  1.6046  2.9584
  819MOL0     H 8058   6.954   6.410  10.525 -1.0745 -0.4589  0.2846
  819MOL0     H 8059   7.155   6.268  10.710 -0.6518  0.3545  2.8779
  819MOL0     H 8060   7.032   6.381  10.771 -1.5895  2.5297 -2.6356
  819MOL0     H 8061   7.053   6.620  10.601  0.0008  1.0421 -0.2303
  819MOL0     H 8062   7.229   6.841  10.503 -2.4248  0.0876  3.4510
  819MOL0     H 8063   7.403   6.820  10.510  0.8674 -0.3075  1.1998
  819MOL0     H 8064   7.228   6.885  10.741 -0.1131  0.1807 -0.7351
  819MOL0     H 8065   7.340   6.983  10.655 -1.2083  1.0746  0.6420
  819MOL0     H 8066   7.528   6.802  10.747 -0.3858  1.4904 -1.0175
  819MOL0     H 8067   7.464   6.926  10.855 -1.2801  1.7616 -1.9133
  819MOL0     H 8068   7.440   6.643  10.866 -0.8590 -0.5597 -0.4550
  819MOL0     H 8069   7.281   6.701  10.874 -1.3679  1.4370  4.5579
  819MOL0     H 8070   7.257   6.540  11.013  1.6753  1.7865 -1.1444
  819MOL0     H 8071   7.087   6.478  11.180 -0.3425  0.1155  0.9898
  819MOL0     H 8072   6.724   6.610  11.335  0.4347  1.3776  1.9290
  819MOL0     H 8073   6.507   6.546  11.446  0.8545  3.1363  1.1089
  819MOL0     H 8074   6.424   6.539  11.709  0.7066  1.3729  0.8214
  819MOL0     H 8075   6.566   6.486  11.807 -1.5344  1.1760  0.0139
  819MOL0     H 8076   6.446   6.281  11.871  0.1241  0.6402  2.7586
  819MOL0     H 8077   6.305   6.353  11.814 -1.4869  1.8472  2.5771
  819MOL0     H 8078   6.314   6.523  11.983  1.2792  1.1619  0.8571
  819MOL0     H 8079   6.470   6.488  12.039  0.2424 -1.0533  1.0530
  819MOL0     H 8080   6.243   6.272  12.033 -0.9203 -1.2260  2.0843
  819MOL0     H 8081   6.395   6.258  12.113 -1.4830 -1.4655 -1.3946
  819MOL0     H 8082   6.288   6.324  12.289 -2.8713 -3.2611 -2.2732
  819MOL0     H 8083   6.157   6.400  12.203  0.5603  1.4358 -0.2293
  819MOL0     H 8084   6.268   6.611  12.175  0.1120 -1.1182 -1.3519
  819MOL0     H 8085   6.414   6.542  12.234  0.7291  0.2463  1.7463
  819MOL0     H 8086   6.300   6.682  12.399  1.8094 -0.3141 -2.1427
  819MOL0     H 8087   6.148   6.600  12.372 -1.2611 -2.0874 -0.6478
  819MOL0     H 8088   6.240   6.386  12.483 -0.7622 -0.6724  2.7966
  819MOL0     H 8089   6.251   6.542  12.586  1.2188  0.4394  0.6006
  819MOL0     H 8090   6.716   6.245  11.675  0.9092  1.2979  1.3762
  819MOL0     H 8091   6.930   6.297  11.551  0.0638 -0.6909  2.4957
  819MOL0     H 8092   7.193   6.820  11.419 -0.9697  1.2919 -1.1250
  819MOL0     H 8093   7.329   6.911  11.248 -0.9097  0.5224  0.6103
  819MOL0     H 8094   6.329   6.122   9.898  0.9439 -1.3471 -0.2954
  819MOL0     H 8095   6.179   6.309   9.885 -0.0434  2.0543  1.1993
  819MOL0     H 8096   5.645   6.487  10.200 -3.0409  1.2627  1.3594
  819MOL0     H 8097   5.540   6.688  10.189  0.0431 -2.8068 -0.6255
  819MOL0     H 8098   5.560   6.910  10.305  1.3651  1.2621  0.2415
  819MOL0     H 8099   5.458   6.910  10.158  1.4327 -0.1066 -4.2081
  819MOL0     H 8100   5.585   7.149  10.313 -1.2568  0.8152  0.8899
  819MOL0     H 8101   5.558   7.170  10.144 -0.0172 -0.9124 -0.7960
  819MOL0     H 8102   5.399   7.268  10.301  1.5980 -0.1507  1.1115
  819MOL0     H 8103   5.360   7.102  10.369  0.0138 -1.7200 -0.2152
  819MOL0     H 8104   5.296   7.212  10.093  1.5282  0.0459  0.3672
  819MOL0     H 8105   5.268   7.046  10.135 -2.7012  0.9799 -0.6491
  819MOL0     H 8106   4.948   7.212  10.341  1.9905  0.3026  2.7635
  819MOL0     H 8107   5.913   6.883  10.075  1.6308 -2.4408  0.3793
  819MOL0     H 8108   6.026   6.688  10.096 -0.7037  0.5272  0.6449
  820MOL0     O 8109   8.349   2.856   8.755  0.5348 -0.1073  0.0249
  820MOL0     C 8110   8.351   2.942   8.667  0.2364 -0.0062  0.1322
  820MOL0     O 8111   8.262   2.963   8.567  0.1503 -0.1219  0.1035
  820MOL0     C 8112   8.162   2.876   8.546  0.0370  0.1952 -0.3030
  820MOL0     C 8113   8.060   2.831   8.638  0.2374 -0.4566 -0.5943
  820MOL0     C 8114   7.963   2.728   8.608  0.1597 -0.7341 -0.8515
  820MOL0     C 8115   7.953   2.675   8.485 -1.3310  0.0574  0.0256
  820MOL0     O 8116   7.843   2.598   8.440  0.8513 -0.2073 -0.0071
  820MOL0     C 8117   7.719   2.626   8.513 -0.6961  0.5333  0.4268
  820MOL0     C 8118   7.608   2.536   8.442  0.8508  0.1065  0.4049
  820MOL0     C 8119   7.479   2.545   8.525  0.2708 -0.8990  0.4858
  820MOL0     C 8120   7.358   2.478   8.465  0.9810 -0.3501  0.7447
  820MOL0     C 8121   7.225   2.502   8.553 -0.2312  0.4224 -1.2328
  820MOL0     C 8122   7.108   2.431   8.481  0.5734 -0.1651 -0.1398
  820MOL0     C 8123   6.981   2.423   8.561 -0.1960 -0.0785 -0.5436
  820MOL0     C 8124   6.858   2.380   8.461  0.0275  0.7218  0.1221
  820MOL0     N 8125   6.817   2.484   8.367 -0.3112 -0.5380  0.5041
  820MOL0     C 8126   6.875   2.493   8.237  0.3816  0.0198 -0.3417
  820MOL0     C 8127   6.813   2.598   8.190 -0.0724 -0.3140  0.7003
  820MOL0     C 8128   6.826   2.656   8.052 -0.2717 -0.0781  0.0191
  820MOL0     C 8129   6.897   2.792   8.039  0.7103 -0.0958 -0.3625
  820MOL0     C 8130   6.928   2.838   7.896 -0.1402 -0.2154  0.1264
  820MOL0     C 8131   7.028   2.950   7.893  0.6990 -0.0350  0.1341
  820MOL0     O 8132   7.151   2.905   7.938  0.4114 -0.0486 -0.3889
  820MOL0     C 8133   7.246   2.876   7.840  0.0120 -0.3188 -0.4353
  820MOL0     C 8134   7.266   2.740   7.807  0.2825  0.5566  0.1711
  820MOL0     C 8135   7.353   2.695   7.716 -0.0133 -0.1291  0.2095
  820MOL0     C 8136   7.440   2.781   7.653  0.2401 -0.6358  0.6123
  820MOL0     C 8137   7.558   2.741   7.567  0.5686  0.2751 -0.2617
  820MOL0     O 8138   7.546   2.612   7.524  1.0759  0.0986  0.1385
  820MOL0     C 8139   7.633   2.567   7.438 -0.9440  0.1461 -0.3238
  820MOL0     C 8140   7.735   2.482   7.476  0.2247 -0.6998 -0.0003
  820MOL0     C 8141   7.832   2.437   7.391  1.2683 -0.0036 -1.4966
  820MOL0     C 8142   7.852   2.495   7.269  0.1869 -0.9621  0.1883
  820MOL0     O 8143   7.952   2.462   7.179  0.3101 -0.0833 -0.6451
  820MOL0     C 8144   8.077   2.426   7.236 -0.8937 -0.5859  0.4303
  820MOL0     C 8145   8.182   2.456   7.135 -0.1846 -0.0048 -0.4164
  820MOL0     C 8146   8.323   2.425   7.174 -0.4227  0.5121  0.8405
  820MOL0     C 8147   8.336   2.273   7.201  0.0444  0.5281 -0.0509
  820MOL0     C 8148   8.465   2.219   7.239 -1.1750 -0.2564  0.4137
  820MOL0     C 8149   8.478   2.084   7.310 -0.2027  0.3203  0.8855
  820MOL0     C 8150   8.381   1.975   7.275  0.0740 -0.6430 -0.1693
  820MOL0     C 8151   8.414   1.840   7.336  1.0201 -0.1860 -0.9052
  820MOL0    Cl 8152   8.561   1.785   7.258 -0.8516  0.3105  0.0256
  820MOL0     C 8153   7.748   2.579   7.218  0.8769  1.0888 -0.1702
  820MOL0     C 8154   7.647   2.617   7.301  0.7521  0.1530  0.9390
  820MOL0     O 8155   7.651   2.820   7.540 -0.0201 -0.1199  0.0771
  820MOL0     C 8156   7.416   2.920   7.683  0.3651 -0.2413 -0.0489
  820MOL0     C 8157   7.320   2.970   7.780 -0.5328 -0.7234  0.5254
  820MOL0     N 8158   6.732   2.658   8.284 -0.1662 -0.0659 -0.1677
  820MOL0     N 8159   6.731   2.584   8.392  0.0738 -0.8513  0.2548
  820MOL0     C 8160   8.049   2.715   8.387 -0.4457 -0.0663  0.5949
  820MOL0     C 8161   8.150   2.815   8.422 -0.2514 -0.4812 -0.0549
  820MOL0     C 8162   8.472   3.034   8.677  1.4497 -0.4907 -0.5852
  820MOL0     C 8163   8.554   3.042   8.793 -0.6357 -0.2556  0.0410
  820MOL0     C 8164   8.661   3.139   8.791  0.2795  0.1397  0.2459
  820MOL0     C 8165   8.679   3.234   8.689  0.0621  0.2778  0.7605
  820MOL0     O 8166   8.774   3.334   8.687  0.0049 -0.0720 -1.0099
  820MOL0     C 8167   8.763   3.434   8.795 -0.2706  0.5013  0.0986
  820MOL0     C 8168   8.822   3.561   8.720 -0.4129 -0.1093  0.5826
  820MOL0     C 8169   8.976   3.571   8.687 -0.0446  0.0349 -0.3614
  820MOL0     C 8170   9.009   3.671   8.579  1.0165 -0.1974 -0.1621
  820MOL0     C 8171   9.147   3.665   8.532 -0.5508 -0.2013  0.5881
  820MOL0     C 8172   9.271   3.670   8.516 -0.5036 -0.1594  0.4110
  820MOL0     C 8173   8.597   3.215   8.573 -1.3269  0.6635  1.1767
  820MOL0     C 8174   8.504   3.111   8.572 -0.4847 -0.0548  0.1206
  820MOL0     H 8175   8.061   2.881   8.734 -0.2703 -0.6362 -0.4922
  820MOL0     H 8176   7.896   2.698   8.688  0.1909 -0.7129 -0.8175
  820MOL0     H 8177   7.692   2.732   8.508  0.1300  0.7122 -0.3209
  820MOL0     H 8178   7.726   2.607   8.621  0.9659  1.2340  0.4657
  820MOL0     H 8179   7.646   2.433   8.438  0.1776 -0.1181 -0.8990
  820MOL0     H 8180   7.595   2.581   8.343  1.4432 -0.2629  0.1530
  820MOL0     H 8181   7.447   2.647   8.548 -1.5863 -0.8971 -1.7463
  820MOL0     H 8182   7.499   2.503   8.624  1.4722  1.9644  1.5660
  820MOL0     H 8183   7.347   2.518   8.363 -0.7171  0.9808  1.3999
  820MOL0     H 8184   7.389   2.373   8.469  0.6266 -0.5649 -1.0430
  820MOL0     H 8185   7.203   2.605   8.580  0.9116  0.8094 -1.7276
  820MOL0     H 8186   7.242   2.455   8.651  0.0777  0.9075 -1.0485
  820MOL0     H 8187   7.140   2.332   8.449  2.7348  0.7528 -1.0255
  820MOL0     H 8188   7.077   2.491   8.394 -2.1347 -0.9021  0.2075
  820MOL0     H 8189   6.970   2.349   8.641 -2.3251 -0.1125 -0.8046
  820MOL0     H 8190   6.976   2.525   8.600  0.4920 -1.0125  2.2153
  820MOL0     H 8191   6.766   2.360   8.517 -0.6626  1.4800 -0.6992
  820MOL0     H 8192   6.881   2.284   8.413  0.2849  0.9520 -0.2246
  820MOL0     H 8193   6.942   2.424   8.186 -1.9622 -1.2433 -1.8712
  820MOL0     H 8194   6.722   2.660   8.020 -0.1631 -2.8385 -0.9092
  820MOL0     H 8195   6.873   2.584   7.985 -1.2409  0.6237 -1.4628
  820MOL0     H 8196   6.987   2.791   8.102  1.1898  0.8253 -1.0029
  820MOL0     H 8197   6.832   2.870   8.081  0.8074 -1.3807  2.3811
  820MOL0     H 8198   6.965   2.755   7.834 -0.7647 -0.1034 -0.4040
  820MOL0     H 8199   6.831   2.868   7.856 -0.0874 -1.3658 -0.9175
  820MOL0     H 8200   6.998   3.037   7.952  1.6185  0.9205 -0.7350
  820MOL0     H 8201   7.038   2.979   7.787 -3.0944  2.5677  0.2812
  820MOL0     H 8202   7.207   2.676   7.872  0.6226  1.7441  1.7058
  820MOL0     H 8203   7.366   2.590   7.692  1.7650  0.2151 -0.4849
  820MOL0     H 8204   7.727   2.423   7.567 -0.0229 -1.1747 -0.3285
  820MOL0     H 8205   7.911   2.368   7.419 -0.0088 -1.4647 -1.3553
  820MOL0     H 8206   8.074   2.319   7.256  1.5436 -0.4330  2.0241
  820MOL0     H 8207   8.097   2.492   7.321  1.7099 -2.3582  1.3054
  820MOL0     H 8208   8.185   2.563   7.114 -0.0344  0.0192 -0.2755
  820MOL0     H 8209   8.155   2.393   7.049  0.0724  0.7507 -1.0625
  820MOL0     H 8210   8.347   2.481   7.265 -0.8139  0.2345  1.1224
  820MOL0     H 8211   8.387   2.459   7.093 -1.7581  1.0781 -0.0065
  820MOL0     H 8212   8.280   2.262   7.294  1.4734  0.5922  0.8438
  820MOL0     H 8213   8.286   2.214   7.124 -3.6629  3.6480 -0.3673
  820MOL0     H 8214   8.510   2.296   7.301 -0.1068  2.5176 -3.4350
  820MOL0     H 8215   8.529   2.210   7.150  0.0957  0.4270  1.2263
  820MOL0     H 8216   8.449   2.103   7.414 -0.9622  0.1649  0.7059
  820MOL0     H 8217   8.585   2.058   7.313  0.0764  1.2546 -0.3204
  820MOL0     H 8218   8.284   2.004   7.317 -0.0708  1.3776 -1.7378
  820MOL0     H 8219   8.359   1.963   7.169 -0.6809  3.3350 -0.6483
  820MOL0     H 8220   8.337   1.764   7.321 -1.8141  1.6453  2.8052
  820MOL0     H 8221   8.426   1.861   7.442 -2.3235  2.2829 -0.8540
  820MOL0     H 8222   7.754   2.607   7.113  2.7504 -2.6984 -1.2862
  820MOL0     H 8223   7.566   2.678   7.264  0.6564 -0.8172 -0.5367
  820MOL0     H 8224   7.484   2.984   7.628  0.2963 -1.8768 -2.1956
  820MOL0     H 8225   7.306   3.072   7.815  0.0197 -0.2484 -0.5821
  820MOL0     H 8226   8.029   2.670   8.290 -3.8566  2.5983 -0.1165
  820MOL0     H 8227   8.212   2.839   8.336 -0.7139  0.3772 -0.1578
  820MOL0     H 8228   8.551   2.975   8.878 -0.9487  0.7944  0.8725
  820MOL0     H 8229   8.726   3.164   8.874  0.7382 -2.1755  0.6502
  820MOL0     H 8230   8.830   3.415   8.879 -0.5111  1.7900  0.6128
  820MOL0     H 8231   8.657   3.445   8.817 -0.6812  0.2341 -1.6355
  820MOL0     H 8232   8.761   3.577   8.631 -0.8218 -0.6262  0.7606
  820MOL0     H 8233   8.792   3.647   8.780  0.9714  1.3521 -0.7107
  820MOL0     H 8234   9.011   3.472   8.653  0.3362  0.6803 -1.9712
  820MOL0     H 8235   9.027   3.605   8.778 -1.3035 -0.5354  0.5742
  820MOL0     H 8236   8.937   3.647   8.500  1.5225 -0.6006 -0.5045
  820MOL0     H 8237   8.992   3.770   8.621  0.2785 -0.0764 -0.7209
  820MOL0     H 8238   9.378   3.679   8.519 -0.5349  0.3072  0.1613
  820MOL0     H 8239   8.617   3.276   8.486 -0.4503 -0.7338  0.3567
  820MOL0     H 8240   8.445   3.091   8.483 -3.4503  1.2031  1.6721
  821MOL0     O 8241   2.806   9.640   2.947 -0.6430  0.0521 -0.4011
  821MOL0     C 8242   2.855   9.741   3.009 -0.6487  0.1861 -0.4716
  821MOL0     O 8243   2.896   9.746   3.139  1.0122  0.1659  0.4332
  821MOL0     C 8244   2.910   9.626   3.203 -0.2426  0.2975 -0.5371
  821MOL0     C 8245   3.024   9.633   3.285  0.3537 -0.3128  0.0716
  821MOL0     C 8246   3.045   9.530   3.376 -0.6149  0.1102  0.8578
  821MOL0     C 8247   2.961   9.415   3.381 -1.3285 -0.5864  0.3272
  821MOL0     O 8248   2.973   9.306   3.467  0.2590 -1.3119  0.4613
  821MOL0     C 8249   3.003   9.339   3.603  0.5051  0.3502 -0.3677
  821MOL0     C 8250   3.090   9.235   3.659 -0.4907  0.7775  0.1392
  821MOL0     C 8251   3.027   9.098   3.677  0.8018 -0.6395 -0.5718
  821MOL0     C 8252   3.110   9.002   3.761 -1.1390 -0.0883 -0.3525
  821MOL0     C 8253   3.040   8.869   3.772 -0.3547 -1.0960 -0.2556
  821MOL0     C 8254   3.065   8.798   3.638  0.4939 -0.3111  0.4150
  821MOL0     C 8255   3.047   8.650   3.649 -0.4417  0.3069  0.8357
  821MOL0     C 8256   3.058   8.584   3.506 -0.0478 -0.0548 -0.0826
  821MOL0     N 8257   3.025   8.443   3.533  0.5541 -0.5017  0.2109
  821MOL0     C 8258   2.897   8.392   3.526  0.1339 -0.4201  0.0448
  821MOL0     C 8259   2.904   8.263   3.559  0.0331  0.1646  0.4590
  821MOL0     C 8260   2.787   8.176   3.578  0.0572 -0.1309  0.1703
  821MOL0     C 8261   2.765   8.143   3.720 -0.7135 -0.8505  0.6453
  821MOL0     C 8262   2.847   8.017   3.768  0.5040 -0.3639  0.2652
  821MOL0     C 8263   2.825   7.991   3.921  0.2858  0.3853 -0.4231
  821MOL0     O 8264   2.688   7.955   3.946 -0.9490  0.1397  0.3586
  821MOL0     C 8265   2.658   7.937   4.078 -0.4953 -0.6609  0.5934
  821MOL0     C 8266   2.736   7.973   4.185 -0.2025  0.2911 -0.6727
  821MOL0     C 8267   2.675   7.956   4.318  0.0300  0.9478  0.1054
  821MOL0     C 8268   2.538   7.934   4.339  0.8086  0.2320 -0.1735
  821MOL0     C 8269   2.471   7.941   4.464 -0.1743  0.2739 -0.2538
  821MOL0     O 8270   2.342   7.908   4.467 -0.2453 -0.0769 -0.6175
  821MOL0     C 8271   2.282   7.929   4.590 -0.5032  0.1608 -0.1952
  821MOL0     C 8272   2.310   7.865   4.706 -0.3228  0.5639  0.0723
  821MOL0     C 8273   2.252   7.897   4.826  0.0519 -1.0412 -0.5979
  821MOL0     C 8274   2.165   8.008   4.831  0.7943 -0.8423  0.4196
  821MOL0     O 8275   2.100   8.042   4.943  0.1062  0.7464 -0.2766
  821MOL0     C 8276   2.090   8.177   4.984  0.3806  0.4852 -0.0707
  821MOL0     C 8277   1.965   8.171   5.070  0.7410  0.2315 -0.1971
  821MOL0     C 8278   1.954   8.285   5.181 -0.2992 -1.1583 -1.4194
  821MOL0     C 8279   1.817   8.267   5.248 -0.3117  0.1360  0.3870
  821MOL0     C 8280   1.769   8.382   5.334 -0.1045  0.2596  0.6694
  821MOL0     C 8281   1.780   8.522   5.256  0.7463 -0.6490 -0.1772
  821MOL0     C 8282   1.690   8.621   5.331 -0.8552  0.2815  0.0019
  821MOL0     C 8283   1.708   8.763   5.298  0.2509 -0.2746  0.1596
  821MOL0    Cl 8284   1.658   8.791   5.135 -0.2039 -0.1744  0.1286
  821MOL0     C 8285   2.119   8.061   4.717 -0.4185 -0.1340 -0.3853
  821MOL0     C 8286   2.179   8.026   4.594  0.2111  0.7246 -0.0569
  821MOL0     O 8287   2.539   7.974   4.559 -0.2915 -0.2175  0.2969
  821MOL0     C 8288   2.462   7.940   4.223  0.3948  0.6613  0.8065
  821MOL0     C 8289   2.519   7.929   4.097 -1.0497 -0.1786 -0.0120
  821MOL0     N 8290   3.045   8.237   3.570 -0.0874  0.4007  0.1157
  821MOL0     N 8291   3.108   8.345   3.563 -0.3420 -0.1610  0.6856
  821MOL0     C 8292   2.850   9.413   3.304  0.5327 -0.4585  0.3208
  821MOL0     C 8293   2.826   9.518   3.207  0.2524  0.5991 -0.0526
  821MOL0     C 8294   2.887   9.860   2.926 -0.4382  0.3830 -0.9348
  821MOL0     C 8295   2.879   9.846   2.788  0.2009 -1.1507  0.3921
  821MOL0     C 8296   2.918   9.957   2.707 -0.1620 -0.7090 -0.4666
  821MOL0     C 8297   2.981  10.066   2.758 -0.4746 -0.5169  0.1309
  821MOL0     O 8298   3.027  10.180   2.700  0.3265 -0.7693 -0.0873
  821MOL0     C 8299   3.003  10.201   2.558 -0.7690  0.8168 -0.8495
  821MOL0     C 8300   3.003  10.344   2.506  0.2756 -0.1979  0.8320
  821MOL0     C 8301   3.129  10.394   2.427  0.0215  0.2558 -0.2379
  821MOL0     C 8302   3.146  10.547   2.439 -0.2128  0.0719  0.5790
  821MOL0     C 8303   3.017  10.623   2.408  0.4366 -0.0718 -0.7225
  821MOL0     C 8304   2.927  10.693   2.361  0.7712  0.2449  0.1859
  821MOL0     C 8305   2.983  10.078   2.897 -0.5725  0.2394  1.2245
  821MOL0     C 8306   2.936   9.982   2.985 -0.2483 -1.1588  0.6195
  821MOL0     H 8307   3.084   9.723   3.278  1.0220 -0.7171  0.4963
  821MOL0     H 8308   3.130   9.546   3.442 -1.5838 -0.1036  2.2079
  821MOL0     H 8309   2.917   9.353   3.670  0.7318  4.0267 -0.6211
  821MOL0     H 8310   3.059   9.430   3.627  1.4731 -0.5270  0.8429
  821MOL0     H 8311   3.113   9.274   3.758 -3.0250 -0.5187  1.3473
  821MOL0     H 8312   3.180   9.225   3.598  0.2834  0.1148  1.3530
  821MOL0     H 8313   3.028   9.054   3.577  0.2051 -3.0072  0.3888
  821MOL0     H 8314   2.925   9.102   3.717 -0.2451  1.1623 -3.1790
  821MOL0     H 8315   3.207   8.979   3.716 -0.8649 -1.7322  0.9721
  821MOL0     H 8316   3.112   9.033   3.866 -3.7386 -0.3925 -0.1304
  821MOL0     H 8317   2.937   8.859   3.806 -0.9109 -0.2092 -1.6150
  821MOL0     H 8318   3.094   8.810   3.847  0.0438 -0.1886  0.1896
  821MOL0     H 8319   3.164   8.820   3.596  0.4961 -0.5316  0.3037
  821MOL0     H 8320   2.987   8.832   3.568  0.5280  1.8828  1.3530
  821MOL0     H 8321   3.126   8.604   3.709 -0.0363  1.2758  1.0623
  821MOL0     H 8322   2.953   8.624   3.697  0.6971  1.5566  3.9620
  821MOL0     H 8323   3.157   8.586   3.462 -0.5050 -0.3263 -1.1510
  821MOL0     H 8324   2.983   8.636   3.445 -1.2056 -0.3003  1.0835
  821MOL0     H 8325   2.814   8.452   3.491 -0.4855 -0.7327  0.9588
  821MOL0     H 8326   2.797   8.085   3.519 -1.6044  0.2671 -0.7724
  821MOL0     H 8327   2.698   8.224   3.536 -0.1926  0.5649  1.4189
  821MOL0     H 8328   2.659   8.123   3.732 -0.8960 -0.2117  0.1577
  821MOL0     H 8329   2.798   8.230   3.777  0.1246  1.2951 -2.7590
  821MOL0     H 8330   2.825   7.929   3.708 -2.7553 -1.5197  2.8343
  821MOL0     H 8331   2.955   8.034   3.762  0.5741 -0.6782  0.6378
  821MOL0     H 8332   2.855   8.085   3.967  2.1890 -0.4210  0.0693
  821MOL0     H 8333   2.889   7.911   3.959 -0.7419  0.9022  2.6280
  821MOL0     H 8334   2.841   8.001   4.180 -0.8456  2.9095 -0.6986
  821MOL0     H 8335   2.743   7.967   4.403  2.5626 -1.8076 -1.3525
  821MOL0     H 8336   2.390   7.792   4.708  1.0753  2.0328  1.0012
  821MOL0     H 8337   2.289   7.845   4.914 -0.6013  1.0767  1.0279
  821MOL0     H 8338   2.070   8.244   4.900  1.0278  1.3687  0.4701
  821MOL0     H 8339   2.179   8.205   5.040  1.5442 -0.9282 -1.1370
  821MOL0     H 8340   1.948   8.073   5.116  1.0547 -0.8254 -2.1876
  821MOL0     H 8341   1.880   8.192   5.003  0.5194  0.2613  0.0939
  821MOL0     H 8342   1.974   8.381   5.134 -0.6390  0.7174  1.9575
  821MOL0     H 8343   2.028   8.264   5.259 -0.5288  1.7479 -0.2974
  821MOL0     H 8344   1.737   8.263   5.173  0.8698  1.8099 -1.0551
  821MOL0     H 8345   1.809   8.178   5.311 -2.7790  1.6379  2.3894
  821MOL0     H 8346   1.822   8.403   5.428  2.2621 -0.7021 -0.3729
  821MOL0     H 8347   1.665   8.366   5.364 -0.1726 -0.7458 -0.0562
  821MOL0     H 8348   1.746   8.515   5.152  0.0886 -2.0069  0.1138
  821MOL0     H 8349   1.884   8.555   5.260  0.3579  0.6021  0.2471
  821MOL0     H 8350   1.585   8.590   5.334 -0.7098 -0.1702  0.6777
  821MOL0     H 8351   1.724   8.620   5.435 -1.9600  2.6677  0.4555
  821MOL0     H 8352   1.811   8.796   5.312  0.1378  0.3799 -0.4613
  821MOL0     H 8353   1.636   8.815   5.362 -0.9227 -2.5801  0.8331
  821MOL0     H 8354   2.062   8.154   4.714  1.6249  1.1552 -1.3040
  821MOL0     H 8355   2.136   8.072   4.506 -0.5724  1.9494  0.9378
  821MOL0     H 8356   2.353   7.946   4.217  0.4427  0.0164 -1.8556
  821MOL0     H 8357   2.450   7.920   4.014  0.4081  2.6120 -1.6998
  821MOL0     H 8358   2.792   9.322   3.309  0.9934 -0.8350 -0.8488
  821MOL0     H 8359   2.745   9.508   3.136  1.4846 -1.9214 -1.2345
  821MOL0     H 8360   2.852   9.749   2.747 -1.6246 -1.0941  1.3502
  821MOL0     H 8361   2.924   9.924   2.603 -0.9241 -0.9230 -0.4446
  821MOL0     H 8362   2.911  10.149   2.532 -0.1143 -1.3457  0.8534
  821MOL0     H 8363   3.088  10.147   2.515 -2.5108 -2.3368 -0.5586
  821MOL0     H 8364   2.921  10.358   2.435 -0.9799  0.7713  2.4099
  821MOL0     H 8365   2.989  10.414   2.589  2.1082 -1.0969  1.9738
  821MOL0     H 8366   3.140  10.366   2.322  0.1720  1.1777 -0.4834
  821MOL0     H 8367   3.210  10.338   2.475 -0.1238  0.2547  0.0087
  821MOL0     H 8368   3.166  10.558   2.547 -1.2438 -2.6578  1.1198
  821MOL0     H 8369   3.233  10.581   2.381 -0.1313  0.1967  0.7713
  821MOL0     H 8370   2.840  10.736   2.314  0.4729 -1.2095 -0.6602
  821MOL0     H 8371   3.014  10.177   2.927  1.7400 -0.7395  2.2907
  821MOL0     H 8372   2.969   9.990   3.088 -1.5336 -1.2931  1.0612
  822MOL0     O 8373   2.238   4.531   8.872  0.3625  0.2119 -0.4188
  822MOL0     C 8374   2.217   4.654   8.855  0.2297  0.6142 -0.3175
  822MOL0     O 8375   2.274   4.753   8.915  0.2909 -0.0871  0.2422
  822MOL0     C 8376   2.335   4.716   9.030  1.1706  0.2218  0.0711
  822MOL0     C 8377   2.263   4.680   9.139  0.0754  0.2311 -1.0767
  822MOL0     C 8378   2.328   4.645   9.263  0.1354 -0.1531  0.2309
  822MOL0     C 8379   2.469   4.653   9.269 -0.3009  0.1349 -0.4216
  822MOL0     O 8380   2.537   4.632   9.388  0.5265 -0.1459 -0.0806
  822MOL0     C 8381   2.606   4.508   9.393 -0.7524 -0.7238  0.1389
  822MOL0     C 8382   2.636   4.473   9.542 -0.2164 -0.1337 -0.3837
  822MOL0     C 8383   2.729   4.584   9.607  0.4002 -0.0762 -0.4695
  822MOL0     C 8384   2.764   4.548   9.747 -0.5837 -0.7678 -0.5229
  822MOL0     C 8385   2.846   4.662   9.808  0.5264 -0.7639 -0.1903
  822MOL0     C 8386   2.996   4.660   9.760  0.8781  0.1209 -0.9349
  822MOL0     C 8387   3.076   4.737   9.869  0.0088  0.0050  0.5135
  822MOL0     C 8388   3.226   4.717   9.835  0.5935  0.0127 -0.4554
  822MOL0     N 8389   3.316   4.803   9.912 -0.1331  0.0685 -0.1234
  822MOL0     C 8390   3.412   4.887   9.864 -0.4330  1.0771 -0.1948
  822MOL0     C 8391   3.456   4.941   9.971 -0.0539  0.1755 -0.5603
  822MOL0     C 8392   3.589   5.014   9.979 -0.6022 -0.2533  0.0322
  822MOL0     C 8393   3.661   5.023  10.120 -0.0451  0.5691 -0.1768
  822MOL0     C 8394   3.756   5.137  10.131  0.4579  0.3940  0.4792
  822MOL0     C 8395   3.866   5.141  10.233  1.0739  0.9737 -0.0295
  822MOL0     O 8396   3.949   5.019  10.235  0.1823  0.0932  0.1276
  822MOL0     C 8397   4.063   5.007  10.313  0.5872  0.6973 -0.4953
  822MOL0     C 8398   4.169   4.920  10.269  0.0707 -1.1906 -0.3468
  822MOL0     C 8399   4.272   4.888  10.358  0.6192  0.2094  0.5685
  822MOL0     C 8400   4.273   4.939  10.494  0.1871  0.1939  0.3910
  822MOL0     C 8401   4.390   4.916  10.573  0.9114 -0.0076 -0.1439
  822MOL0     O 8402   4.365   4.969  10.705  0.2390 -0.0382 -0.5246
  822MOL0     C 8403   4.473   4.969  10.792 -0.0030 -0.7194  0.5695
  822MOL0     C 8404   4.498   4.840  10.859  0.4258 -0.8478  0.3719
  822MOL0     C 8405   4.612   4.837  10.948  0.4205  0.0470 -0.4533
  822MOL0     C 8406   4.703   4.946  10.958 -0.2550  0.7407  0.1687
  822MOL0     O 8407   4.826   4.931  11.030 -1.0771 -0.1010  0.1774
  822MOL0     C 8408   4.935   4.884  10.949  0.1573  0.7683  0.5551
  822MOL0     C 8409   5.061   4.874  11.033 -0.5744 -0.3128  0.2391
  822MOL0     C 8410   5.175   4.790  10.964  0.3485  0.1723 -0.2901
  822MOL0     C 8411   5.129   4.641  10.959 -0.0804 -0.4406 -0.4708
  822MOL0     C 8412   5.226   4.541  10.910  0.3083 -0.4564  0.1517
  822MOL0     C 8413   5.369   4.553  10.958 -0.8645  0.4233 -0.7546
  822MOL0     C 8414   5.375   4.531  11.112 -0.2974 -0.1824 -0.2764
  822MOL0     C 8415   5.383   4.387  11.167 -0.3725  0.3757  0.4412
  822MOL0    Cl 8416   5.555   4.318  11.144 -0.4183 -0.2174 -0.1343
  822MOL0     C 8417   4.665   5.064  10.897  0.0861  0.3484 -0.4615
  822MOL0     C 8418   4.548   5.079  10.814 -0.8719  0.7140 -0.4180
  822MOL0     O 8419   4.497   4.868  10.533 -0.1946 -0.3303  0.0885
  822MOL0     C 8420   4.180   5.035  10.524 -0.8852 -0.3116  0.0206
  822MOL0     C 8421   4.079   5.075  10.434 -0.0159  0.4443  0.0989
  822MOL0     N 8422   3.402   4.886  10.083  0.0110  0.4688 -0.2305
  822MOL0     N 8423   3.320   4.797  10.046  0.4104 -0.1034 -0.6473
  822MOL0     C 8424   2.540   4.668   9.153  0.2520 -1.3298 -0.5357
  822MOL0     C 8425   2.468   4.696   9.037 -0.1766 -0.0945 -0.3586
  822MOL0     C 8426   2.104   4.694   8.767  0.4800  0.0782  0.1397
  822MOL0     C 8427   2.089   4.819   8.707  0.4339 -0.1084  0.4551
  822MOL0     C 8428   1.977   4.848   8.629 -0.3251  0.8513 -0.3866
  822MOL0     C 8429   1.878   4.752   8.607 -0.1027  0.5555  0.1093
  822MOL0     O 8430   1.786   4.766   8.510  0.1462 -0.2799  0.0380
  822MOL0     C 8431   1.734   4.900   8.508 -0.7049 -0.9309 -0.0412
  822MOL0     C 8432   1.599   4.888   8.425 -0.1339  0.1357  0.0747
  822MOL0     C 8433   1.516   5.022   8.444 -0.2340  0.1464  1.1748
  822MOL0     C 8434   1.433   5.056   8.321  0.5717  0.1728 -0.6232
  822MOL0     C 8435   1.300   4.986   8.335  0.3955 -0.1279 -1.1722
  822MOL0     C 8436   1.190   4.929   8.358 -0.0484 -0.0998  0.6159
  822MOL0     C 8437   1.898   4.624   8.663  0.3354 -0.2879 -0.0982
  822MOL0     C 8438   2.001   4.595   8.752 -1.0706 -0.3085  0.1633
  822MOL0     H 8439   2.155   4.675   9.151  0.1205  0.8020 -0.4019
  822MOL0     H 8440   2.271   4.628   9.354 -0.1473  1.1420  0.3022
  822MOL0     H 8441   2.699   4.512   9.335 -0.2614  0.8236  0.9521
  822MOL0     H 8442   2.546   4.426   9.354 -3.9647  1.8900 -0.8987
  822MOL0     H 8443   2.682   4.374   9.549 -2.3656 -1.1358  0.3871
  822MOL0     H 8444   2.548   4.473   9.607 -1.9751 -0.6238 -2.6203
  822MOL0     H 8445   2.670   4.675   9.607 -2.1697 -1.6403 -1.6444
  822MOL0     H 8446   2.829   4.581   9.562  2.5310 -1.4728  3.7875
  822MOL0     H 8447   2.678   4.535   9.814 -1.6437  2.5398 -1.0291
  822MOL0     H 8448   2.839   4.469   9.755  0.1083  0.0008  1.1749
  822MOL0     H 8449   2.842   4.647   9.916  3.0354 -2.2533 -0.2296
  822MOL0     H 8450   2.809   4.761   9.780  1.3414  0.5859  3.0558
  822MOL0     H 8451   2.995   4.710   9.663 -1.5223 -0.2309 -1.1393
  822MOL0     H 8452   3.015   4.553   9.743 -4.3481 -0.8475 -2.2620
  822MOL0     H 8453   3.043   4.841   9.867 -0.2417 -0.0827 -0.4429
  822MOL0     H 8454   3.057   4.696   9.969 -1.2310  2.2780  1.2836
  822MOL0     H 8455   3.239   4.736   9.728 -1.2082  0.2020 -0.6757
  822MOL0     H 8456   3.254   4.613   9.855 -0.6303 -0.1867  0.3640
  822MOL0     H 8457   3.433   4.904   9.758  2.8506  0.6029  0.2825
  822MOL0     H 8458   3.580   5.113   9.932  3.2855  1.6604  2.8045
  822MOL0     H 8459   3.658   4.966   9.909  0.4967  0.9354  0.2624
  822MOL0     H 8460   3.724   4.935  10.132  0.6871  1.1861  0.6274
  822MOL0     H 8461   3.593   5.046  10.202 -1.8322  1.7733 -1.8985
  822MOL0     H 8462   3.804   5.138  10.032 -1.7552  3.3357 -0.7184
  822MOL0     H 8463   3.697   5.229  10.127 -0.9202 -0.4977 -1.9976
  822MOL0     H 8464   3.816   5.149  10.329 -3.5461  0.3116 -2.1386
  822MOL0     H 8465   3.916   5.237  10.216 -0.8354  2.4990  2.3646
  822MOL0     H 8466   4.173   4.878  10.169  1.1596 -1.0744 -0.3668
  822MOL0     H 8467   4.356   4.828  10.323  1.4978  0.8544  1.5074
  822MOL0     H 8468   4.440   4.754  10.827 -0.3539  0.3455 -1.6533
  822MOL0     H 8469   4.652   4.751  11.000  3.4850  0.2072 -2.3135
  822MOL0     H 8470   4.950   4.954  10.866 -0.3405  0.4069  0.1541
  822MOL0     H 8471   4.903   4.789  10.907  0.3288  0.3250  1.3978
  822MOL0     H 8472   5.049   4.831  11.133  2.3045 -2.9762 -0.4344
  822MOL0     H 8473   5.092   4.979  11.041 -2.0027  0.0088  2.5311
  822MOL0     H 8474   5.273   4.793  11.012  0.9937  1.2123 -1.5903
  822MOL0     H 8475   5.189   4.833  10.864  2.0205 -1.2996 -0.7458
  822MOL0     H 8476   5.090   4.609  11.057  0.5557  2.8841  1.0097
  822MOL0     H 8477   5.041   4.630  10.894 -0.1974  1.5178 -0.6919
  822MOL0     H 8478   5.226   4.544  10.801 -1.8506 -4.0661 -0.1201
  822MOL0     H 8479   5.189   4.442  10.936  3.7442 -1.4830  1.6808
  822MOL0     H 8480   5.423   4.642  10.924  0.2215  1.5618  3.3898
  822MOL0     H 8481   5.443   4.479  10.924  4.5956  3.8892  2.1791
  822MOL0     H 8482   5.456   4.592  11.153 -1.5640  2.0788 -0.9193
  822MOL0     H 8483   5.283   4.571  11.158 -0.1756  0.7956 -0.8580
  822MOL0     H 8484   5.323   4.313  11.114 -1.3924  0.7592  1.0346
  822MOL0     H 8485   5.362   4.382  11.274  0.7576 -2.6922  0.5947
  822MOL0     H 8486   4.727   5.152  10.910 -0.0589  0.1542  1.9735
  822MOL0     H 8487   4.520   5.179  10.782 -2.4870  0.5528  0.3794
  822MOL0     H 8488   4.194   5.082  10.621  4.0516 -4.7493  1.9469
  822MOL0     H 8489   4.009   5.153  10.463 -0.6993  0.4494 -1.5070
  822MOL0     H 8490   2.647   4.656   9.160  0.4504  0.1994 -0.5569
  822MOL0     H 8491   2.531   4.726   8.954  0.9132  3.0042  1.4447
  822MOL0     H 8492   2.158   4.903   8.708 -2.0351  2.0311  0.4939
  822MOL0     H 8493   1.959   4.947   8.587 -2.7984  0.7663  0.3186
  822MOL0     H 8494   1.800   4.962   8.446 -0.8763  0.3261  0.9991
  822MOL0     H 8495   1.721   4.945   8.606  2.5137 -0.7326  0.3835
  822MOL0     H 8496   1.622   4.865   8.321  0.6049  2.0774 -0.2295
  822MOL0     H 8497   1.533   4.814   8.471  0.2429  0.1292  0.6136
  822MOL0     H 8498   1.589   5.101   8.466 -1.3572  0.9930  2.0142
  822MOL0     H 8499   1.450   5.018   8.531 -3.7169  0.2111 -1.2889
  822MOL0     H 8500   1.434   5.164   8.306  0.2629 -0.1743 -3.8295
  822MOL0     H 8501   1.482   5.017   8.232  1.0446  2.6222 -1.5148
  822MOL0     H 8502   1.091   4.895   8.381 -0.7652 -1.0455 -3.1919
  822MOL0     H 8503   1.825   4.547   8.638 -0.5697  0.5538 -0.1293
  822MOL0     H 8504   2.007   4.490   8.781 -0.6187 -1.7729 -4.3666
  823MOL0     O 8505   9.002   3.452   5.005  0.5027 -0.8763  0.8005
  823MOL0     C 8506   8.948   3.432   5.115 -0.1728  0.9973  1.2010
  823MOL0     O 8507   9.011   3.423   5.230  0.8388  0.8437  0.5401
  823MOL0     C 8508   9.136   3.478   5.244 -0.4383 -0.8036 -0.8140
  823MOL0     C 8509   9.222   3.416   5.343  0.5587  0.4404 -0.7676
  823MOL0     C 8510   9.339   3.483   5.390  0.2887  0.5958 -0.2111
  823MOL0     C 8511   9.380   3.606   5.336 -0.6798  0.7910 -0.2880
  823MOL0     O 8512   9.501   3.659   5.379 -0.4325 -0.3862  0.2090
  823MOL0     C 8513   9.562   3.763   5.295 -0.1687 -0.6715  1.4154
  823MOL0     C 8514   9.712   3.766   5.334 -0.0798 -0.0175  0.1703
  823MOL0     C 8515   9.787   3.861   5.237 -0.6934 -0.1824  0.4991
  823MOL0     C 8516   9.937   3.875   5.269  0.5025  0.1796  0.2058
  823MOL0     C 8517   9.967   3.942   5.411 -0.5986 -0.1599 -0.4432
  823MOL0     C 8518  10.037   4.085   5.401 -0.7211  0.2683 -0.7873
  823MOL0     C 8519  10.023   4.157   5.532 -0.1258  0.3899 -0.0689
  823MOL0     C 8520  10.079   4.294   5.538  0.3023  0.0271 -0.1891
  823MOL0     N 8521  10.200   4.336   5.469  0.3456 -0.0009 -0.0132
  823MOL0     C 8522  10.316   4.263   5.458  0.2920 -0.0234  0.2205
  823MOL0     C 8523  10.401   4.346   5.399 -0.3104 -0.4038 -0.3379
  823MOL0     C 8524  10.535   4.321   5.361  0.2306 -0.2924 -0.3588
  823MOL0     C 8525  10.624   4.287   5.475  0.3675  0.0230 -0.0718
  823MOL0     C 8526  10.773   4.287   5.456 -0.9699 -0.0643 -0.8789
  823MOL0     C 8527  10.825   4.416   5.401  0.4580  0.1397  0.5764
  823MOL0     O 8528  10.849   4.513   5.511  0.1944  0.4663 -0.0087
  823MOL0     C 8529  10.804   4.637   5.485  0.6749  0.2071 -0.7858
  823MOL0     C 8530  10.677   4.678   5.517 -0.3221 -0.0177 -0.1600
  823MOL0     C 8531  10.639   4.808   5.494  0.6829  0.7013  0.4767
  823MOL0     C 8532  10.721   4.906   5.436 -0.0820 -0.4667 -0.6547
  823MOL0     C 8533  10.666   5.039   5.410 -0.0612  0.0061  0.7011
  823MOL0     O 8534  10.541   5.057   5.445  0.0247 -0.2196  0.2876
  823MOL0     C 8535  10.485   5.181   5.429  0.7098  0.6503 -0.4027
  823MOL0     C 8536  10.351   5.186   5.389 -0.8579  0.0073  0.2755
  823MOL0     C 8537  10.301   5.301   5.332  1.0703  1.0966  0.6106
  823MOL0     C 8538  10.369   5.410   5.320 -0.0267 -0.8389  0.2600
  823MOL0     O 8539  10.313   5.501   5.234  0.6861 -0.3065  0.5419
  823MOL0     C 8540  10.333   5.640   5.261 -0.1740  0.0594 -0.1156
  823MOL0     C 8541  10.257   5.727   5.151  0.0494  0.3104 -0.0587
  823MOL0     C 8542  10.098   5.726   5.169  0.5102 -0.1695  0.4171
  823MOL0     C 8543  10.039   5.840   5.253  0.5102 -0.1731 -0.6655
  823MOL0     C 8544   9.893   5.845   5.280 -0.2008 -0.1828  0.9637
  823MOL0     C 8545   9.812   5.856   5.150 -0.3838 -0.4040  0.0361
  823MOL0     C 8546   9.674   5.908   5.179  0.4521  0.2243 -0.0619
  823MOL0     C 8547   9.588   5.937   5.060 -0.4475 -0.8547 -0.6490
  823MOL0    Cl 8548   9.599   6.111   5.028  0.2123 -0.0819 -0.5153
  823MOL0     C 8549  10.492   5.426   5.384 -0.0846  0.4510  0.4351
  823MOL0     C 8550  10.552   5.305   5.430 -0.3694 -0.3897 -0.1004
  823MOL0     O 8551  10.726   5.104   5.322  0.4230  0.2729 -0.1356
  823MOL0     C 8552  10.851   4.861   5.402  0.1645 -0.5401 -0.1570
  823MOL0     C 8553  10.895   4.733   5.430  0.4160 -0.6730 -0.9062
  823MOL0     N 8554  10.353   4.472   5.403 -0.8165  0.1431  0.2979
  823MOL0     N 8555  10.226   4.468   5.441  0.1810  1.0469  0.4430
  823MOL0     C 8556   9.291   3.667   5.250 -0.1568 -0.5242 -0.2466
  823MOL0     C 8557   9.173   3.610   5.201 -0.1617  0.4777 -0.1626
  823MOL0     C 8558   8.804   3.380   5.123 -0.0290 -0.3799  0.2021
  823MOL0     C 8559   8.749   3.377   5.249 -0.5009  0.5033 -0.4759
  823MOL0     C 8560   8.619   3.324   5.251 -0.4056  0.3436 -0.5997
  823MOL0     C 8561   8.537   3.291   5.140  0.0242 -0.4292  1.0578
  823MOL0     O 8562   8.415   3.236   5.177  0.3858 -0.9596  0.0636
  823MOL0     C 8563   8.349   3.155   5.082  0.6583 -0.6552  0.2622
  823MOL0     C 8564   8.212   3.118   5.138 -0.1971 -0.5467 -0.9097
  823MOL0     C 8565   8.173   2.977   5.100 -0.8865 -0.9075  0.5664
  823MOL0     C 8566   8.022   2.966   5.138 -0.1992 -0.0311  0.6973
  823MOL0     C 8567   7.940   3.032   5.043  1.5559 -0.3001  0.5382
  823MOL0     C 8568   7.863   3.082   4.967  0.1316  0.3418  0.9349
  823MOL0     C 8569   8.596   3.316   5.012 -0.3453  1.3365  0.2398
  823MOL0     C 8570   8.731   3.368   5.010  0.1316  1.2293  0.3996
  823MOL0     H 8571   9.191   3.321   5.385  0.1203  1.0140  0.2530
  823MOL0     H 8572   9.398   3.474   5.480  1.5162  0.4551 -1.0121
  823MOL0     H 8573   9.502   3.855   5.303 -1.6061 -1.4514  0.1611
  823MOL0     H 8574   9.570   3.753   5.186  0.1727 -0.0187  1.3727
  823MOL0     H 8575   9.757   3.668   5.319  0.4425  0.7481 -4.8538
  823MOL0     H 8576   9.719   3.794   5.440 -0.6413  0.3225  0.1230
  823MOL0     H 8577   9.748   3.963   5.250 -2.4246 -0.9288  1.5397
  823MOL0     H 8578   9.770   3.823   5.136 -1.3497 -0.3148  0.6559
  823MOL0     H 8579   9.987   3.778   5.276  2.8853  1.1147 -2.2455
  823MOL0     H 8580   9.992   3.921   5.187  0.7037  0.5117  0.5214
  823MOL0     H 8581  10.028   3.876   5.473  0.9913  0.7225 -1.0093
  823MOL0     H 8582   9.866   3.964   5.447  0.1761 -0.1502  1.8756
  823MOL0     H 8583  10.004   4.152   5.321  2.1307  3.2918  0.3250
  823MOL0     H 8584  10.143   4.060   5.391 -0.8794 -0.7498  0.0293
  823MOL0     H 8585   9.922   4.152   5.573 -0.0826 -1.6773 -0.1125
  823MOL0     H 8586  10.069   4.093   5.607 -2.4736 -0.3086  0.8753
  823MOL0     H 8587  10.095   4.327   5.641  1.2182  0.4590 -0.4566
  823MOL0     H 8588  10.007   4.369   5.504  0.2780  0.2542  0.3381
  823MOL0     H 8589  10.332   4.157   5.477  2.9649 -0.4398 -3.3386
  823MOL0     H 8590  10.577   4.402   5.300 -1.1254  0.4493 -0.3476
  823MOL0     H 8591  10.526   4.235   5.293 -0.5977 -0.5905  0.1142
  823MOL0     H 8592  10.604   4.185   5.509  0.2079  0.0447 -0.1007
  823MOL0     H 8593  10.601   4.358   5.555  1.0166  1.1031 -0.8205
  823MOL0     H 8594  10.820   4.264   5.552 -0.1743 -0.8030 -1.4181
  823MOL0     H 8595  10.804   4.209   5.386 -0.8752  2.1210 -3.4244
  823MOL0     H 8596  10.767   4.465   5.323  0.9412 -0.4898 -0.1996
  823MOL0     H 8597  10.925   4.400   5.359  1.2911  1.5416  1.8952
  823MOL0     H 8598  10.602   4.608   5.552 -2.2907  0.2433 -3.4503
  823MOL0     H 8599  10.537   4.833   5.522 -0.8837 -1.6017 -2.4925
  823MOL0     H 8600  10.275   5.109   5.401 -0.9630  0.0741  0.0417
  823MOL0     H 8601  10.201   5.308   5.290  0.9901 -0.1429  0.5565
  823MOL0     H 8602  10.439   5.664   5.267 -0.7456  2.7230  0.8382
  823MOL0     H 8603  10.303   5.662   5.364  0.8763 -1.6439  0.6115
  823MOL0     H 8604  10.281   5.689   5.051  0.8913 -0.4776  0.4249
  823MOL0     H 8605  10.307   5.823   5.163  2.1767 -0.7771  0.3638
  823MOL0     H 8606  10.068   5.625   5.198  4.8500 -2.2766 -1.4343
  823MOL0     H 8607  10.056   5.751   5.070  0.1983 -3.0409 -0.2680
  823MOL0     H 8608  10.080   5.835   5.354  0.4448 -1.1582 -0.6846
  823MOL0     H 8609  10.069   5.934   5.206 -0.7659 -0.8910 -3.1212
  823MOL0     H 8610   9.873   5.933   5.342  0.4893 -1.1725  2.6511
  823MOL0     H 8611   9.864   5.758   5.340 -0.3332 -0.0689  1.0671
  823MOL0     H 8612   9.816   5.767   5.086 -1.2974  0.9875 -2.0767
  823MOL0     H 8613   9.861   5.930   5.086 -3.0499 -0.2061 -1.9471
  823MOL0     H 8614   9.619   5.830   5.231  0.2433 -0.7723 -1.7269
  823MOL0     H 8615   9.680   5.988   5.254 -1.7713  1.3669 -0.9905
  823MOL0     H 8616   9.486   5.900   5.076  0.0445 -2.1669 -0.4105
  823MOL0     H 8617   9.619   5.882   4.970  2.9722  1.0913 -0.8244
  823MOL0     H 8618  10.529   5.527   5.397 -4.1688  2.7179 -3.0677
  823MOL0     H 8619  10.658   5.315   5.453  0.4910 -3.7343 -1.9376
  823MOL0     H 8620  10.915   4.938   5.360  0.5639 -0.1706  1.0942
  823MOL0     H 8621  11.000   4.705   5.426  1.1154  1.7896 -3.1428
  823MOL0     H 8622   9.330   3.758   5.207  1.1230  0.3734  2.5524
  823MOL0     H 8623   9.097   3.655   5.138 -1.1335  0.6186  1.0466
  823MOL0     H 8624   8.805   3.398   5.339  0.2635 -1.9043 -0.3130
  823MOL0     H 8625   8.579   3.315   5.352  0.8957 -1.5594 -0.1960
  823MOL0     H 8626   8.410   3.066   5.064  3.6448  0.8137  2.3767
  823MOL0     H 8627   8.332   3.217   4.993  1.8665  0.9383  1.1037
  823MOL0     H 8628   8.209   3.120   5.247  0.6818 -2.7241 -0.8006
  823MOL0     H 8629   8.140   3.184   5.088 -1.0296  3.0646  4.2732
  823MOL0     H 8630   8.233   2.905   5.157 -0.8259 -0.4235  1.1161
  823MOL0     H 8631   8.190   2.965   4.993  1.8850  0.7627  0.7286
  823MOL0     H 8632   8.008   2.859   5.153  0.7188 -0.4793 -1.2511
  823MOL0     H 8633   8.004   3.029   5.226 -1.2283  3.5784 -1.8733
  823MOL0     H 8634   7.776   3.098   4.906 -0.4628 -1.3342  1.2617
  823MOL0     H 8635   8.545   3.305   4.917  3.0019 -1.1200 -1.4965
  823MOL0     H 8636   8.769   3.399   4.914 -0.7376  1.1828  0.0347
  824MOL0     O 8637  10.775   2.062   6.689  1.1769 -0.4549 -0.2637
  824MOL0     C 8638  10.891   2.020   6.692  0.0764  0.4451 -0.5700
  824MOL0     O 8639  10.930   1.887   6.678  1.0716 -0.3051  0.0352
  824MOL0     C 8640  10.824   1.803   6.630 -0.2333  0.5049 -1.4038
  824MOL0     C 8641  10.745   1.742   6.732 -0.3884 -0.2682 -0.0272
  824MOL0     C 8642  10.650   1.651   6.693  0.0386  0.3432  0.5452
  824MOL0     C 8643  10.627   1.626   6.564  0.3676  0.2320  0.1132
  824MOL0     O 8644  10.527   1.532   6.532 -0.3114  0.7488 -0.0832
  824MOL0     C 8645  10.455   1.552   6.415  0.7271  0.3136  1.0148
  824MOL0     C 8646  10.334   1.457   6.388  0.2419 -0.2445 -0.0660
  824MOL0     C 8647  10.370   1.313   6.383  0.0043 -0.9387 -0.7276
  824MOL0     C 8648  10.274   1.236   6.303  0.1873  0.2751  1.0959
  824MOL0     C 8649  10.311   1.238   6.151 -0.6295 -0.2361  0.7264
  824MOL0     C 8650  10.197   1.183   6.069 -0.6254 -0.9276  0.2921
  824MOL0     C 8651  10.231   1.142   5.921  0.9030 -0.5192  0.3262
  824MOL0     C 8652  10.239   1.259   5.837  1.3573 -0.9810  0.2248
  824MOL0     N 8653  10.372   1.308   5.802 -0.7715 -0.4788  0.7029
  824MOL0     C 8654  10.494   1.240   5.770  0.6547  0.3207 -0.2662
  824MOL0     C 8655  10.588   1.331   5.729  0.5819 -0.7450 -0.7139
  824MOL0     C 8656  10.726   1.296   5.689 -0.1574 -0.6447  0.0972
  824MOL0     C 8657  10.827   1.342   5.796  0.2287  0.4149  0.5211
  824MOL0     C 8658  10.793   1.270   5.924  0.5651  0.2169 -0.7611
  824MOL0     C 8659  10.704   1.346   6.024 -0.7315  0.1271  0.1445
  824MOL0     O 8660  10.703   1.278   6.151 -0.4552 -0.5019  0.0648
  824MOL0     C 8661  10.780   1.326   6.256  1.7162  0.1910  0.4570
  824MOL0     C 8662  10.871   1.427   6.248  0.0018 -0.0383  0.1988
  824MOL0     C 8663  10.931   1.472   6.367  0.2374  0.2800 -0.0109
  824MOL0     C 8664  10.911   1.403   6.493 -0.8646  0.7324 -0.3685
  824MOL0     C 8665  10.989   1.440   6.618 -0.4949 -0.2224 -0.1490
  824MOL0     O 8666  10.947   1.386   6.736 -0.0893  0.5276  0.1925
  824MOL0     C 8667  11.010   1.397   6.859 -0.8993  0.0520 -0.5204
  824MOL0     C 8668  11.057   1.518   6.907 -0.6558  0.4261 -0.1481
  824MOL0     C 8669  11.118   1.536   7.032  0.0746  0.1737 -0.2268
  824MOL0     C 8670  11.135   1.430   7.115 -0.1997  0.9310  0.5985
  824MOL0     O 8671  11.192   1.448   7.238  0.2366 -0.5778 -0.2593
  824MOL0     C 8672  11.203   1.331   7.323  0.1234 -0.2183  0.4823
  824MOL0     C 8673  11.266   1.356   7.455  0.3847  0.3233  0.1135
  824MOL0     C 8674  11.413   1.387   7.434 -0.6217 -0.0127  0.4718
  824MOL0     C 8675  11.495   1.365   7.557 -0.0520  0.1969  0.9483
  824MOL0     C 8676  11.478   1.467   7.676  0.5399  0.3514  0.2444
  824MOL0     C 8677  11.547   1.403   7.794 -0.2829 -0.0558  0.0042
  824MOL0     C 8678  11.522   1.494   7.920 -0.3321 -0.3023  0.0268
  824MOL0     C 8679  11.378   1.491   7.982  0.2381 -0.9657  0.0432
  824MOL0    Cl 8680  11.364   1.317   8.058 -0.0809 -0.3158  0.1201
  824MOL0     C 8681  11.070   1.304   7.080  0.1210 -0.2779 -0.2471
  824MOL0     C 8682  11.010   1.296   6.955  0.3337  0.8413 -0.1407
  824MOL0     O 8683  11.097   1.506   6.605 -0.1350  0.3649  1.2946
  824MOL0     C 8684  10.822   1.296   6.489 -0.8488  0.3669 -0.1263
  824MOL0     C 8685  10.751   1.264   6.377  0.4140 -0.7451  0.0775
  824MOL0     N 8686  10.519   1.453   5.721  0.0269  0.1985  0.5715
  824MOL0     N 8687  10.402   1.439   5.770 -0.2408  0.2737  0.0031
  824MOL0     C 8688  10.702   1.688   6.462  0.3659 -0.2845 -0.5236
  824MOL0     C 8689  10.801   1.779   6.497 -0.4298 -0.4567  0.4529
  824MOL0     C 8690  10.991   2.120   6.729 -0.0612 -0.2997 -0.2570
  824MOL0     C 8691  10.965   2.253   6.767  0.5552  0.4254 -0.8941
  824MOL0     C 8692  11.071   2.333   6.818 -0.0129 -0.0189  0.2726
  824MOL0     C 8693  11.205   2.291   6.814 -0.1848  0.8337  0.7379
  824MOL0     O 8694  11.307   2.371   6.849 -0.0000  0.0790 -0.3107
  824MOL0     C 8695  11.292   2.511   6.866  0.2557  0.5535 -0.2137
  824MOL0     C 8696  11.439   2.576   6.849 -0.0200  0.1026 -0.0397
  824MOL0     C 8697  11.555   2.504   6.917  0.1238  0.5605  0.6182
  824MOL0     C 8698  11.692   2.568   6.898 -1.1394  0.7622 -0.8102
  824MOL0     C 8699  11.789   2.484   6.979  0.6571  1.1904 -0.2328
  824MOL0     C 8700  11.859   2.411   7.032  0.3551  0.7792 -0.7013
  824MOL0     C 8701  11.230   2.160   6.771  0.5873 -0.0002 -0.6744
  824MOL0     C 8702  11.125   2.081   6.739 -0.0238 -0.0069 -1.2926
  824MOL0     H 8703  10.755   1.757   6.839 -4.6801  2.3411  0.2727
  824MOL0     H 8704  10.580   1.597   6.756 -2.0394 -0.1758 -2.0541
  824MOL0     H 8705  10.521   1.536   6.329 -0.7620 -0.2454 -0.0682
  824MOL0     H 8706  10.424   1.656   6.396  1.9417  0.4068 -0.7708
  824MOL0     H 8707  10.306   1.493   6.289 -0.4471  0.9603  0.5403
  824MOL0     H 8708  10.264   1.477   6.470  1.9110  0.3932  1.2638
  824MOL0     H 8709  10.374   1.272   6.484  0.0449 -0.1602 -0.4110
  824MOL0     H 8710  10.470   1.306   6.340 -0.0408 -1.0862 -0.8109
  824MOL0     H 8711  10.289   1.133   6.337 -1.5265 -0.7304 -0.9523
  824MOL0     H 8712  10.173   1.270   6.325  0.3663  1.6449 -0.0404
  824MOL0     H 8713  10.405   1.184   6.142 -1.2233 -1.5093  1.7968
  824MOL0     H 8714  10.320   1.341   6.115  0.4378 -0.4823  0.2406
  824MOL0     H 8715  10.118   1.258   6.074 -0.2351 -0.5018  0.1534
  824MOL0     H 8716  10.160   1.099   6.128  1.9802 -2.1599  0.3186
  824MOL0     H 8717  10.325   1.087   5.924  0.7324 -1.0732 -2.0441
  824MOL0     H 8718  10.154   1.074   5.882 -1.9783  1.6488  1.8429
  824MOL0     H 8719  10.202   1.347   5.889  2.5999 -0.1039 -0.3368
  824MOL0     H 8720  10.190   1.234   5.742  1.9558  1.6237 -0.8390
  824MOL0     H 8721  10.515   1.134   5.783 -0.4311 -0.2884 -2.8637
  824MOL0     H 8722  10.736   1.349   5.593 -2.5686 -2.1290 -1.0851
  824MOL0     H 8723  10.750   1.192   5.663  0.4909 -0.0754 -1.7845
  824MOL0     H 8724  10.824   1.451   5.801 -0.0698  0.6669 -2.7371
  824MOL0     H 8725  10.923   1.307   5.758 -0.4358  1.1448 -2.1045
  824MOL0     H 8726  10.735   1.179   5.903 -0.3366  0.7915 -0.8101
  824MOL0     H 8727  10.889   1.244   5.968  0.0216 -2.0776 -0.8048
  824MOL0     H 8728  10.603   1.357   5.983 -1.9619 -2.0964  2.3288
  824MOL0     H 8729  10.728   1.453   6.031  0.2098 -0.1791  2.0330
  824MOL0     H 8730  10.893   1.473   6.152  2.2365  1.4994  1.3680
  824MOL0     H 8731  11.013   1.543   6.364  1.0831 -0.6349  0.7540
  824MOL0     H 8732  11.073   1.593   6.830 -4.3537  3.3468  1.5775
  824MOL0     H 8733  11.152   1.637   7.055 -0.0045  0.2503 -0.4398
  824MOL0     H 8734  11.269   1.259   7.273  1.3713  1.8075 -0.9835
  824MOL0     H 8735  11.105   1.286   7.338  0.3577 -0.4587  1.3164
  824MOL0     H 8736  11.267   1.262   7.511  2.4683  1.0533  1.4437
  824MOL0     H 8737  11.223   1.437   7.515  1.6663 -0.1539  1.7523
  824MOL0     H 8738  11.420   1.489   7.395 -1.5200  0.0922  0.5503
  824MOL0     H 8739  11.464   1.332   7.355  1.0972  0.5508  1.1348
  824MOL0     H 8740  11.476   1.262   7.588 -2.0361 -0.1036 -1.0109
  824MOL0     H 8741  11.601   1.366   7.530 -0.0723  0.8268  0.8719
  824MOL0     H 8742  11.374   1.495   7.695  1.6263  3.8912  1.6364
  824MOL0     H 8743  11.534   1.556   7.646  0.4102  0.5349  0.5421
  824MOL0     H 8744  11.657   1.400   7.790 -0.0730  2.6843  1.5073
  824MOL0     H 8745  11.509   1.301   7.810  1.8872 -0.8480  0.4755
  824MOL0     H 8746  11.589   1.454   7.997  0.5786 -1.3912 -1.2709
  824MOL0     H 8747  11.548   1.598   7.900 -0.0356 -0.3105  0.3605
  824MOL0     H 8748  11.298   1.500   7.907 -0.8244 -0.5334  1.1980
  824MOL0     H 8749  11.355   1.573   8.050 -2.0766 -0.6714 -0.9815
  824MOL0     H 8750  11.060   1.220   7.147 -2.3963  2.0073  2.5762
  824MOL0     H 8751  10.949   1.210   6.930  0.8464  0.3639  0.2273
  824MOL0     H 8752  10.804   1.234   6.577 -0.0684 -0.7608 -0.7371
  824MOL0     H 8753  10.676   1.186   6.378 -0.1752 -0.2165 -0.8975
  824MOL0     H 8754  10.674   1.687   6.357 -0.1659 -2.4359 -0.4169
  824MOL0     H 8755  10.860   1.834   6.425  1.3390 -0.0598  2.1333
  824MOL0     H 8756  10.867   2.299   6.773  0.8637  1.3842 -2.4557
  824MOL0     H 8757  11.060   2.432   6.861  0.7479  0.0495  0.3371
  824MOL0     H 8758  11.250   2.530   6.965 -1.9661  0.3369 -1.0659
  824MOL0     H 8759  11.223   2.575   6.810  1.7348  2.8190  0.3723
  824MOL0     H 8760  11.474   2.588   6.746 -0.3240 -0.4967 -0.2173
  824MOL0     H 8761  11.439   2.668   6.908 -1.1144 -0.4128  0.8221
  824MOL0     H 8762  11.555   2.401   6.879 -0.7010  0.2885  1.2992
  824MOL0     H 8763  11.544   2.480   7.023  1.6193  2.0889  1.1530
  824MOL0     H 8764  11.741   2.584   6.802  0.8918 -2.4835 -0.4944
  824MOL0     H 8765  11.688   2.664   6.950  2.1791  0.7162 -0.2267
  824MOL0     H 8766  11.921   2.342   7.085 -0.9088  1.3515  1.6671
  824MOL0     H 8767  11.326   2.110   6.777  2.7677  3.9261  1.6841
  824MOL0     H 8768  11.157   1.977   6.734 -1.2975 -0.6570  1.8610
  825MOL0     O 8769   7.329   2.506   2.796  0.4687  0.1767  0.1683
  825MOL0     C 8770   7.353   2.446   2.903 -0.1727 -0.0481  0.2210
  825MOL0     O 8771   7.297   2.325   2.938 -0.4088 -0.1061 -0.7876
  825MOL0     C 8772   7.188   2.285   2.861 -0.0672  1.1111  0.1084
  825MOL0     C 8773   7.205   2.208   2.745  0.2400  0.3199  0.8207
  825MOL0     C 8774   7.099   2.147   2.680 -0.7165  0.2934 -0.3396
  825MOL0     C 8775   6.966   2.175   2.725 -0.1546 -0.2672  0.4677
  825MOL0     O 8776   6.861   2.117   2.648  0.7339 -0.4163 -0.3295
  825MOL0     C 8777   6.732   2.169   2.670  0.7383 -0.2676  1.0983
  825MOL0     C 8778   6.625   2.068   2.616  0.7256  0.8436 -0.2235
  825MOL0     C 8779   6.487   2.124   2.618  1.0228 -0.5627 -0.1668
  825MOL0     C 8780   6.388   2.029   2.546  0.0148  0.6935 -0.0945
  825MOL0     C 8781   6.252   2.096   2.500  0.0777 -0.2866  0.0582
  825MOL0     C 8782   6.187   2.003   2.395  0.1466 -0.8110 -0.2825
  825MOL0     C 8783   6.173   1.866   2.448 -0.4269  0.2259 -0.3265
  825MOL0     C 8784   6.065   1.781   2.387  0.3052 -0.1252 -0.2394
  825MOL0     N 8785   5.927   1.801   2.409  0.2177 -0.2791  0.2924
  825MOL0     C 8786   5.857   1.758   2.522  0.4733  0.5845 -0.2838
  825MOL0     C 8787   5.736   1.815   2.504  0.0300  0.1285 -0.2111
  825MOL0     C 8788   5.615   1.784   2.594 -0.7196 -0.0693  0.1698
  825MOL0     C 8789   5.486   1.836   2.536 -0.6983  0.2040  0.0523
  825MOL0     C 8790   5.382   1.768   2.618  0.2633  0.0833 -0.7918
  825MOL0     C 8791   5.235   1.796   2.574 -0.3669  0.0660  0.1402
  825MOL0     O 8792   5.137   1.753   2.675 -0.3076  0.3673  0.4241
  825MOL0     C 8793   5.021   1.698   2.635  0.7652  0.5432  0.1186
  825MOL0     C 8794   4.960   1.601   2.712  0.2463 -0.1700 -0.7982
  825MOL0     C 8795   4.834   1.547   2.685 -0.2690  0.0934 -0.0700
  825MOL0     C 8796   4.767   1.572   2.566 -0.0652  0.7145 -0.8444
  825MOL0     C 8797   4.642   1.487   2.535 -0.6171  0.3120  0.2294
  825MOL0     O 8798   4.597   1.494   2.405  0.5269  0.5824  0.5141
  825MOL0     C 8799   4.481   1.419   2.372  0.2833 -0.0235 -0.6055
  825MOL0     C 8800   4.371   1.410   2.456  1.1556 -0.3947 -0.9152
  825MOL0     C 8801   4.256   1.330   2.411 -0.1600 -0.4362  0.7077
  825MOL0     C 8802   4.255   1.250   2.296 -0.7888  0.0258 -0.4497
  825MOL0     O 8803   4.145   1.172   2.284 -0.3244  0.0197 -0.2124
  825MOL0     C 8804   4.144   1.081   2.168  0.8512  0.0031 -0.5975
  825MOL0     C 8805   4.032   0.978   2.202  0.0387  0.0064 -0.0419
  825MOL0     C 8806   4.063   0.880   2.310 -0.8286  1.0537 -0.2328
  825MOL0     C 8807   3.984   0.879   2.446  0.0667  0.3899 -0.1961
  825MOL0     C 8808   4.046   0.796   2.555 -0.7401  0.4719  0.1142
  825MOL0     C 8809   3.957   0.789   2.687 -0.2324 -0.0513 -1.1174
  825MOL0     C 8810   3.818   0.729   2.654 -0.1376  0.7925 -0.1936
  825MOL0     C 8811   3.732   0.719   2.786  0.4555 -0.2944 -0.7372
  825MOL0    Cl 8812   3.679   0.874   2.845 -0.3724  0.2234  0.2886
  825MOL0     C 8813   4.369   1.260   2.213  0.1077 -0.4927  0.6125
  825MOL0     C 8814   4.472   1.343   2.255  0.4472 -0.7745 -0.0622
  825MOL0     O 8815   4.588   1.425   2.625 -0.9508 -0.8509 -0.3670
  825MOL0     C 8816   4.831   1.654   2.473  0.2694 -1.3056 -0.2962
  825MOL0     C 8817   4.958   1.715   2.507 -0.5753 -0.2907 -0.1119
  825MOL0     N 8818   5.732   1.875   2.383  0.4428  0.3209  0.1468
  825MOL0     N 8819   5.849   1.867   2.329  0.4332 -0.0039  0.3437
  825MOL0     C 8820   6.953   2.277   2.823  0.4928  0.5566 -0.3472
  825MOL0     C 8821   7.059   2.323   2.891  0.2491  0.0694  0.4972
  825MOL0     C 8822   7.436   2.520   2.997 -0.0081 -0.3908 -0.0853
  825MOL0     C 8823   7.472   2.656   2.971 -0.1871  0.3046 -0.0316
  825MOL0     C 8824   7.531   2.731   3.070 -0.1571  0.4071 -0.3166
  825MOL0     C 8825   7.569   2.672   3.193  0.7263 -1.0062 -0.1909
  825MOL0     O 8826   7.641   2.728   3.297 -0.3411  0.1610 -0.8888
  825MOL0     C 8827   7.677   2.872   3.296  0.3002 -0.9001  0.4327
  825MOL0     C 8828   7.811   2.884   3.227 -0.3160  0.4797  0.1243
  825MOL0     C 8829   7.925   2.810   3.300 -0.0319 -0.5113  0.6112
  825MOL0     C 8830   7.956   2.879   3.437  0.5230  0.1032  0.4226
  825MOL0     C 8831   8.049   2.799   3.508 -1.5749  0.3505 -0.8393
  825MOL0     C 8832   8.133   2.735   3.559 -0.3231 -0.4543  0.8055
  825MOL0     C 8833   7.533   2.532   3.218 -0.1068 -0.7356 -0.6479
  825MOL0     C 8834   7.476   2.462   3.113 -0.0740  1.1390  0.0568
  825MOL0     H 8835   7.305   2.201   2.704  0.4731  1.3500  1.1884
  825MOL0     H 8836   7.113   2.080   2.596 -0.8144  4.1586 -3.7394
  825MOL0     H 8837   6.722   2.266   2.619 -0.6618 -0.3788  1.1054
  825MOL0     H 8838   6.698   2.182   2.773  0.7646 -0.5437  1.1418
  825MOL0     H 8839   6.628   1.976   2.675  1.1222 -0.1735 -1.7655
  825MOL0     H 8840   6.650   2.038   2.514  3.5303 -0.7319  0.8308
  825MOL0     H 8841   6.490   2.221   2.570 -1.7544 -0.4155 -0.2305
  825MOL0     H 8842   6.450   2.139   2.720 -0.0220  3.2640 -0.9752
  825MOL0     H 8843   6.437   1.977   2.463  2.8594 -1.8189  2.8989
  825MOL0     H 8844   6.374   1.948   2.617 -1.5125 -1.4996 -2.7014
  825MOL0     H 8845   6.276   2.190   2.450  3.5300 -0.2111  1.5586
  825MOL0     H 8846   6.194   2.105   2.592 -0.7361 -4.6527  0.1705
  825MOL0     H 8847   6.252   1.995   2.307 -1.0567 -1.2317 -1.1536
  825MOL0     H 8848   6.088   2.046   2.376  0.1700  0.3593  1.8424
  825MOL0     H 8849   6.272   1.822   2.438  1.7756  4.4661  0.4638
  825MOL0     H 8850   6.157   1.867   2.556  3.1054 -0.1464  0.2935
  825MOL0     H 8851   6.079   1.673   2.402 -0.0604  0.1151  2.2902
  825MOL0     H 8852   6.072   1.793   2.279 -0.5129  0.5760 -0.2245
  825MOL0     H 8853   5.888   1.693   2.604 -0.5145 -1.0871 -1.1903
  825MOL0     H 8854   5.637   1.837   2.687 -0.4463  0.6870 -0.3104
  825MOL0     H 8855   5.612   1.677   2.615 -3.0054  0.0346  0.6284
  825MOL0     H 8856   5.476   1.813   2.429 -1.9194 -1.6888  0.5174
  825MOL0     H 8857   5.481   1.945   2.539 -0.9069  0.3235 -2.3397
  825MOL0     H 8858   5.389   1.659   2.618 -6.1746 -0.7511  0.6927
  825MOL0     H 8859   5.378   1.808   2.720 -1.4911 -0.9196 -0.4112
  825MOL0     H 8860   5.220   1.740   2.481 -0.2557 -1.7111  1.1513
  825MOL0     H 8861   5.232   1.903   2.553  0.8695  0.1911  0.5090
  825MOL0     H 8862   5.014   1.593   2.806 -1.7040 -1.9450  0.2577
  825MOL0     H 8863   4.797   1.481   2.763  0.6172  3.2631  3.2864
  825MOL0     H 8864   4.356   1.456   2.553  0.5641 -3.5447  0.6417
  825MOL0     H 8865   4.163   1.320   2.466 -2.3788  3.2151 -1.9055
  825MOL0     H 8866   4.229   1.020   2.137  1.6618  0.5359  0.5138
  825MOL0     H 8867   4.111   1.128   2.075 -3.4210  1.3534  1.3232
  825MOL0     H 8868   3.992   0.933   2.111 -0.5088 -0.9987  0.6666
  825MOL0     H 8869   3.948   1.040   2.235 -0.1787 -0.2325 -0.1421
  825MOL0     H 8870   4.168   0.884   2.339 -1.2551  1.8445  1.3111
  825MOL0     H 8871   4.054   0.778   2.272 -4.0543 -0.2967  3.4985
  825MOL0     H 8872   3.963   0.979   2.485 -0.8657 -0.7320  2.4198
  825MOL0     H 8873   3.892   0.827   2.416  1.9817 -2.2342 -1.8916
  825MOL0     H 8874   4.147   0.832   2.576 -2.2092  4.3825  1.3051
  825MOL0     H 8875   4.065   0.695   2.517  0.2118  0.7753 -0.2458
  825MOL0     H 8876   3.944   0.887   2.735  1.2285 -0.5790  0.4871
  825MOL0     H 8877   4.010   0.740   2.769 -1.8129  1.5552  1.0082
  825MOL0     H 8878   3.771   0.799   2.585 -0.7586  3.0225  2.3540
  825MOL0     H 8879   3.833   0.623   2.630 -1.6651 -0.1007  2.4060
  825MOL0     H 8880   3.781   0.662   2.866 -3.6406 -0.9596  1.5577
  825MOL0     H 8881   3.645   0.660   2.757 -1.0767  2.3650 -1.9228
  825MOL0     H 8882   4.370   1.227   2.110  1.4034 -1.3919  0.8882
  825MOL0     H 8883   4.560   1.340   2.192  0.2934 -0.6860 -0.2816
  825MOL0     H 8884   4.792   1.655   2.372 -0.9484 -0.4415  0.1642
  825MOL0     H 8885   5.015   1.753   2.423 -0.9997 -2.7624 -1.6007
  825MOL0     H 8886   6.858   2.323   2.849 -0.0873 -0.1477 -1.1721
  825MOL0     H 8887   7.041   2.388   2.977  1.2688 -1.3270  1.8338
  825MOL0     H 8888   7.445   2.705   2.878  1.2661  2.4130  0.6036
  825MOL0     H 8889   7.561   2.835   3.059 -0.9679  0.8393  1.2444
  825MOL0     H 8890   7.683   2.902   3.401 -3.5955  0.7377  0.3586
  825MOL0     H 8891   7.605   2.936   3.244  0.1807 -1.5658 -0.2487
  825MOL0     H 8892   7.804   2.836   3.129  0.6917 -2.7334  1.5051
  825MOL0     H 8893   7.840   2.987   3.207 -0.6169  0.5930  0.2607
  825MOL0     H 8894   8.013   2.799   3.235 -1.3008 -1.3465 -1.0597
  825MOL0     H 8895   7.902   2.704   3.316  0.0431 -1.1683 -2.8441
  825MOL0     H 8896   7.987   2.983   3.428  2.5657 -0.3888  1.2608
  825MOL0     H 8897   7.874   2.880   3.510 -0.2212 -1.5289 -0.3303
  825MOL0     H 8898   8.206   2.675   3.609  0.8184  0.2383  0.0179
  825MOL0     H 8899   7.562   2.484   3.311 -0.0947  1.5270  0.5896
  825MOL0     H 8900   7.454   2.357   3.127  3.1144 -0.0448 -2.5914
  826MOL0     O 8901   3.891   1.062   0.528  0.0798 -0.2909  0.6572
  826MOL0     C 8902   3.911   1.003   0.637  0.2544  0.1812 -0.2851
  826MOL0     O 8903   3.827   0.932   0.708 -0.4207  0.2951  0.4625
  826MOL0     C 8904   3.703   0.881   0.676 -0.5173  0.3807  0.4704
  826MOL0     C 8905   3.636   0.905   0.550  0.1988  0.1053 -0.2797
  826MOL0     C 8906   3.516   0.836   0.531  0.0128 -0.8527 -0.2259
  826MOL0     C 8907   3.455   0.762   0.630  0.9282 -0.3370  0.1064
  826MOL0     O 8908   3.332   0.726   0.611 -0.7566 -0.5721 -0.4078
  826MOL0     C 8909   3.276   0.623   0.695  0.0121  0.2105  0.1373
  826MOL0     C 8910   3.139   0.598   0.652  0.2760 -0.0886 -0.6983
  826MOL0     C 8911   3.055   0.725   0.627  0.7110  0.7184 -0.5767
  826MOL0     C 8912   3.028   0.799   0.757  0.1607  0.3526 -0.0890
  826MOL0     C 8913   2.925   0.911   0.732  0.2296  0.3597 -0.5975
  826MOL0     C 8914   2.879   0.987   0.863  0.5718 -1.1443  0.5688
  826MOL0     C 8915   2.797   0.896   0.953  0.5665 -0.6351 -0.4811
  826MOL0     C 8916   2.725   0.989   1.059 -0.6401  0.1910 -0.7540
  826MOL0     N 8917   2.620   0.925   1.130 -0.2097  0.2834 -0.1526
  826MOL0     C 8918   2.505   0.891   1.084  0.6218 -0.8004 -0.8736
  826MOL0     C 8919   2.435   0.840   1.187 -0.3612  0.1212  0.2179
  826MOL0     C 8920   2.299   0.788   1.174 -0.1869  0.3167  0.7259
  826MOL0     C 8921   2.184   0.891   1.146 -0.3098 -1.2375 -0.0947
  826MOL0     C 8922   2.198   1.015   1.232 -0.1770 -0.9608 -0.4639
  826MOL0     C 8923   2.174   0.992   1.376 -0.7730  1.3846  0.1088
  826MOL0     O 8924   2.171   1.125   1.439  0.1724 -0.1532 -0.0900
  826MOL0     C 8925   2.279   1.190   1.495  0.9394 -0.2551 -0.2848
  826MOL0     C 8926   2.408   1.147   1.497  0.1903 -0.0927  1.4734
  826MOL0     C 8927   2.514   1.235   1.547  0.4500 -0.0940 -0.9981
  826MOL0     C 8928   2.478   1.353   1.607 -0.2738  0.0233  0.4926
  826MOL0     C 8929   2.583   1.449   1.659 -0.0572 -0.3350  0.5384
  826MOL0     O 8930   2.702   1.390   1.672  0.6516 -0.0822  0.3084
  826MOL0     C 8931   2.795   1.456   1.740 -0.0658  0.2519 -0.2621
  826MOL0     C 8932   2.803   1.428   1.881  0.4572 -0.3364  0.2595
  826MOL0     C 8933   2.910   1.488   1.953  1.3187 -0.6811 -0.3767
  826MOL0     C 8934   2.993   1.573   1.893  1.7626 -0.3230  0.9140
  826MOL0     O 8935   3.082   1.642   1.973  0.3224 -1.0131 -0.8156
  826MOL0     C 8936   3.142   1.584   2.091 -1.1426  0.1703  0.2391
  826MOL0     C 8937   3.274   1.652   2.126 -0.9457  1.0932 -0.4196
  826MOL0     C 8938   3.337   1.596   2.247 -1.0254 -1.5366 -0.2516
  826MOL0     C 8939   3.456   1.685   2.289 -0.7163  0.9327 -0.3952
  826MOL0     C 8940   3.527   1.594   2.382 -0.6880  0.1284  0.3175
  826MOL0     C 8941   3.654   1.668   2.426 -0.2628  0.2796 -0.9688
  826MOL0     C 8942   3.742   1.590   2.528  0.1730  0.5153  0.8603
  826MOL0     C 8943   3.876   1.662   2.545  0.3615  0.4892  0.7953
  826MOL0    Cl 8944   3.963   1.701   2.383 -0.3184  0.1149 -0.2649
  826MOL0     C 8945   2.991   1.601   1.760  0.2085  0.6117 -0.4328
  826MOL0     C 8946   2.893   1.532   1.680  0.1771  0.1942 -0.2436
  826MOL0     O 8947   2.552   1.563   1.696 -0.2155  0.5703 -0.2318
  826MOL0     C 8948   2.346   1.388   1.607 -0.2692  0.3392 -0.5030
  826MOL0     C 8949   2.249   1.311   1.550 -0.4458 -1.2939 -0.2516
  826MOL0     N 8950   2.522   0.849   1.299  0.3998 -0.4765 -0.3297
  826MOL0     N 8951   2.629   0.905   1.265 -0.4476 -0.6145 -0.1239
  826MOL0     C 8952   3.528   0.743   0.755  0.5978  0.2604  0.0333
  826MOL0     C 8953   3.655   0.796   0.774  0.3819 -0.2235 -0.0875
  826MOL0     C 8954   4.053   1.013   0.692 -0.1084 -0.7038  0.0443
  826MOL0     C 8955   4.113   1.143   0.708 -0.4579  0.2476  0.3044
  826MOL0     C 8956   4.241   1.156   0.755  0.0845  0.6439 -1.0360
  826MOL0     C 8957   4.329   1.049   0.784  0.9542  0.1153 -0.4505
  826MOL0     O 8958   4.457   1.055   0.830 -0.3462 -0.2218 -0.8509
  826MOL0     C 8959   4.553   1.132   0.743  0.0166  0.3639 -0.3531
  826MOL0     C 8960   4.666   1.155   0.835 -0.2484  0.2580  0.2663
  826MOL0     C 8961   4.639   1.280   0.914 -0.3229  1.3778 -0.0373
  826MOL0     C 8962   4.703   1.269   1.046  1.4202  0.8796  0.0614
  826MOL0     C 8963   4.681   1.398   1.101  0.3008 -0.8076 -0.0191
  826MOL0     C 8964   4.673   1.512   1.145 -0.4871  1.0612 -0.1638
  826MOL0     C 8965   4.264   0.925   0.770  0.2377  0.2201  0.7558
  826MOL0     C 8966   4.133   0.908   0.728 -1.0990  0.0085 -0.3338
  826MOL0     H 8967   3.674   0.969   0.471 -0.2489 -0.1868 -0.7393
  826MOL0     H 8968   3.456   0.862   0.444 -1.3432  1.7571  1.3570
  826MOL0     H 8969   3.293   0.652   0.799  3.8696  1.3893 -0.6595
  826MOL0     H 8970   3.340   0.535   0.683 -0.5144 -0.4196  1.6557
  826MOL0     H 8971   3.090   0.544   0.733  0.3155  0.8459 -0.0273
  826MOL0     H 8972   3.142   0.544   0.557  3.5952  0.3315 -0.9498
  826MOL0     H 8973   2.962   0.688   0.581  1.1031 -0.2198 -0.6398
  826MOL0     H 8974   3.111   0.791   0.560  0.8459  3.7572  2.2732
  826MOL0     H 8975   2.980   0.726   0.823  0.5469 -1.3635 -1.5871
  826MOL0     H 8976   3.127   0.829   0.791  0.0618  0.9428 -0.3124
  826MOL0     H 8977   2.847   0.866   0.671  1.6409 -1.6879 -0.9880
  826MOL0     H 8978   2.970   0.984   0.663  2.8941  0.3943  1.0297
  826MOL0     H 8979   2.820   1.069   0.821  0.5275  0.1716  3.0536
  826MOL0     H 8980   2.954   1.039   0.922  1.6560 -1.5555 -0.4139
  826MOL0     H 8981   2.724   0.842   0.892  0.2771  1.0516 -1.7013
  826MOL0     H 8982   2.866   0.834   1.011 -0.3035  0.4210  1.8060
  826MOL0     H 8983   2.674   1.080   1.025 -1.4405 -0.0762 -0.2930
  826MOL0     H 8984   2.792   1.021   1.140 -2.0620 -1.0977  1.0146
  826MOL0     H 8985   2.462   0.916   0.987  2.4286  3.6909 -0.7613
  826MOL0     H 8986   2.272   0.745   1.271  0.7503 -2.5164 -0.1705
  826MOL0     H 8987   2.290   0.704   1.105  0.3923  0.2276  0.7567
  826MOL0     H 8988   2.082   0.854   1.165 -1.3162  0.1143 -2.4925
  826MOL0     H 8989   2.185   0.935   1.046 -0.8545  1.6609  1.0961
  826MOL0     H 8990   2.296   1.057   1.207  0.3890 -2.2694 -0.5231
  826MOL0     H 8991   2.117   1.086   1.214 -0.3245 -0.1403  2.8554
  826MOL0     H 8992   2.261   0.929   1.399  0.4572  1.7877 -2.9792
  826MOL0     H 8993   2.092   0.922   1.394  0.4887  0.1089  1.2238
  826MOL0     H 8994   2.445   1.055   1.453  2.2927  1.2722  0.2121
  826MOL0     H 8995   2.620   1.212   1.539  1.0128  2.7283 -2.8551
  826MOL0     H 8996   2.731   1.361   1.926  1.8876 -1.2982  1.2145
  826MOL0     H 8997   2.915   1.477   2.061 -0.2202 -0.4097 -0.2552
  826MOL0     H 8998   3.164   1.480   2.065 -1.0151  0.9718 -3.3824
  826MOL0     H 8999   3.083   1.598   2.181  2.9240 -1.2334  3.4380
  826MOL0     H 9000   3.252   1.758   2.136 -0.7776  1.2245 -1.4118
  826MOL0     H 9001   3.341   1.640   2.041 -1.6108  1.2023 -0.9667
  826MOL0     H 9002   3.375   1.495   2.225  1.9911 -0.3333 -1.0418
  826MOL0     H 9003   3.259   1.594   2.324 -0.8071 -1.3580 -0.0268
  826MOL0     H 9004   3.513   1.701   2.197 -0.0085  1.1228  0.0661
  826MOL0     H 9005   3.431   1.784   2.329  1.8593  0.5392  2.5566
  826MOL0     H 9006   3.565   1.499   2.343  0.2174 -0.0523  1.5919
  826MOL0     H 9007   3.466   1.565   2.468 -0.8089  1.3757  0.6727
  826MOL0     H 9008   3.620   1.759   2.475 -1.5152  1.1354 -3.2768
  826MOL0     H 9009   3.708   1.694   2.335 -0.2520  4.7141  0.0671
  826MOL0     H 9010   3.685   1.575   2.620 -1.1568  1.6692  0.2709
  826MOL0     H 9011   3.748   1.490   2.483 -0.5373 -0.8588  3.6174
  826MOL0     H 9012   3.943   1.581   2.574  0.8330  0.1571 -1.0963
  826MOL0     H 9013   3.888   1.748   2.612  2.1139 -0.3474  1.6160
  826MOL0     H 9014   3.053   1.685   1.731 -0.2113  1.7596  1.7703
  826MOL0     H 9015   2.891   1.543   1.572  0.1854  0.2416 -0.2391
  826MOL0     H 9016   2.313   1.481   1.653 -0.5450  1.3359 -2.5707
  826MOL0     H 9017   2.147   1.346   1.557  0.0961  0.0750  1.4456
  826MOL0     H 9018   3.484   0.683   0.834 -1.4494 -2.1426 -2.7090
  826MOL0     H 9019   3.721   0.779   0.858 -0.3764 -0.5148  0.4677
  826MOL0     H 9020   4.078   1.227   0.649  1.2782  0.1722 -0.9162
  826MOL0     H 9021   4.298   1.248   0.750  0.4583  0.3828 -1.7074
  826MOL0     H 9022   4.507   1.221   0.700 -0.2879 -0.1569 -1.1225
  826MOL0     H 9023   4.584   1.065   0.662 -0.1617  0.1284 -0.2287
  826MOL0     H 9024   4.675   1.071   0.905  0.1848 -0.7999 -1.0020
  826MOL0     H 9025   4.760   1.181   0.786 -0.3637  2.3025  1.0526
  826MOL0     H 9026   4.533   1.305   0.923 -0.5597  0.6178 -0.6141
  826MOL0     H 9027   4.694   1.360   0.864  4.2991 -1.5172 -0.1712
  826MOL0     H 9028   4.663   1.189   1.109  0.2507  1.3076 -0.1022
  826MOL0     H 9029   4.807   1.240   1.031  0.6327 -2.3078 -0.0761
  826MOL0     H 9030   4.679   1.609   1.189  0.1946  2.0297 -2.2802
  826MOL0     H 9031   4.326   0.839   0.792  1.3331  0.0864 -2.3061
  826MOL0     H 9032   4.090   0.808   0.729 -0.7648 -0.1459 -0.8896
  827MOL0     O 9033  10.309  11.079   8.505 -0.4280 -0.2404 -0.3897
  827MOL0     C 9034  10.223  11.021   8.440 -0.1360 -0.8326 -0.4980
  827MOL0     O 9035  10.094  11.036   8.459  0.5777  0.1757  0.0850
  827MOL0     C 9036  10.040  11.107   8.566 -0.5349 -0.9764 -0.5286
  827MOL0     C 9037   9.949  11.202   8.535  0.2209  0.5542  0.0086
  827MOL0     C 9038   9.877  11.267   8.636  0.3113 -1.3358  0.4234
  827MOL0     C 9039   9.910  11.229   8.765  0.4862 -0.7570  0.3194
  827MOL0     O 9040   9.855  11.304   8.871 -0.2002 -0.0154  0.2503
  827MOL0     C 9041   9.907  11.318   9.003  0.7415 -0.5306  0.4976
  827MOL0     C 9042   9.842  11.441   9.072 -0.1896  0.5527  0.2025
  827MOL0     C 9043   9.850  11.424   9.221 -0.7520  0.5897  0.3586
  827MOL0     C 9044   9.773  11.299   9.274 -0.6437  0.1932 -0.1509
  827MOL0     C 9045   9.747  11.308   9.425 -0.1054  0.3972  0.0883
  827MOL0     C 9046   9.682  11.187   9.495  0.0602  0.5078  0.0850
  827MOL0     C 9047   9.634  11.209   9.647 -1.0443 -0.3151 -0.2018
  827MOL0     C 9048   9.551  11.090   9.709 -1.0721 -0.0693  0.3773
  827MOL0     N 9049   9.632  10.987   9.754  0.3662 -0.6814  0.0751
  827MOL0     C 9050   9.694  10.977   9.881 -0.0023  0.7690 -0.2511
  827MOL0     C 9051   9.761  10.857   9.864 -0.7486  0.4029  0.0280
  827MOL0     C 9052   9.853  10.803   9.959 -0.7710 -0.2279 -0.1679
  827MOL0     C 9053  10.001  10.857   9.941  1.0612  0.0832  0.3984
  827MOL0     C 9054  10.095  10.744   9.903 -0.5199  0.0399 -0.3824
  827MOL0     C 9055  10.235  10.782   9.946  0.2721 -0.7846  0.2374
  827MOL0     O 9056  10.336  10.728   9.867 -0.2003  0.4939  0.4894
  827MOL0     C 9057  10.457  10.737   9.925  0.1659  0.4944 -0.6745
  827MOL0     C 9058  10.542  10.625   9.908  0.2291 -0.3110 -0.6495
  827MOL0     C 9059  10.668  10.631   9.973  0.9656  1.1277 -0.3444
  827MOL0     C 9060  10.708  10.737  10.059 -0.0803 -0.1273  0.3992
  827MOL0     C 9061  10.830  10.726  10.139 -0.3204  0.0642 -0.9130
  827MOL0     O 9062  10.863  10.839  10.211 -0.6477 -0.3138  0.5346
  827MOL0     C 9063  10.930  10.808  10.324  1.3229  0.6769  0.4339
  827MOL0     C 9064  10.863  10.759  10.443 -0.2422  0.1434 -0.1760
  827MOL0     C 9065  10.937  10.750  10.557 -1.1542  0.5640 -1.1095
  827MOL0     C 9066  11.074  10.779  10.566  1.5721 -0.3480  1.2067
  827MOL0     O 9067  11.132  10.778  10.686  0.1048 -0.7238 -0.1386
  827MOL0     C 9068  11.263  10.712  10.689  0.8952  0.0499 -0.3157
  827MOL0     C 9069  11.247  10.561  10.709 -0.0667  0.0364  0.1530
  827MOL0     C 9070  11.170  10.517  10.840  0.4625  0.2196  0.1372
  827MOL0     C 9071  11.183  10.373  10.860  0.3611  0.6667 -0.3100
  827MOL0     C 9072  11.106  10.320  10.981  0.8309  1.1400 -0.5154
  827MOL0     C 9073  11.123  10.163  11.004  0.3096 -0.0587 -0.5127
  827MOL0     C 9074  11.050  10.110  11.129  0.0503 -0.1645 -1.3256
  827MOL0     C 9075  11.144  10.097  11.254 -0.2876 -0.0104 -0.7501
  827MOL0    Cl 9076  11.022  10.099  11.387 -0.4527  0.1545  0.6808
  827MOL0     C 9077  11.134  10.804  10.446  0.1084 -0.9991 -0.0369
  827MOL0     C 9078  11.068  10.823  10.323  0.7014  0.6697 -0.4209
  827MOL0     O 9079  10.879  10.615  10.159 -0.2162  0.3768 -0.4766
  827MOL0     C 9080  10.618  10.845  10.073  0.1674  0.9325 -0.3501
  827MOL0     C 9081  10.501  10.852  10.012 -1.3450  0.3351  0.3460
  827MOL0     N 9082   9.748  10.805   9.740  0.3014  0.5246 -0.0610
  827MOL0     N 9083   9.671  10.884   9.678  0.3497  0.4744 -0.1555
  827MOL0     C 9084   9.997  11.124   8.793  0.1786 -0.1535 -0.0077
  827MOL0     C 9085  10.048  11.050   8.688  0.3690 -0.3960  0.5275
  827MOL0     C 9086  10.265  10.932   8.338  0.2057  1.0206 -0.6296
  827MOL0     C 9087  10.385  10.867   8.324  0.3683  0.1700  0.1536
  827MOL0     C 9088  10.410  10.783   8.218  0.5835  0.7047 -0.2211
  827MOL0     C 9089  10.312  10.742   8.129  0.8794 -0.0223 -0.4571
  827MOL0     O 9090  10.346  10.642   8.030  0.0250  0.2853  0.1190
  827MOL0     C 9091  10.274  10.515   8.052  0.5000 -0.3554  0.1728
  827MOL0     C 9092  10.367  10.430   8.148 -1.4411 -0.5562 -0.3601
  827MOL0     C 9093  10.501  10.388   8.081 -0.7945 -0.6706  0.2438
  827MOL0     C 9094  10.486  10.277   7.977  0.2717  0.4399 -0.1771
  827MOL0     C 9095  10.460  10.146   8.042 -0.5587 -0.6091  0.2378
  827MOL0     C 9096  10.431  10.045   8.090  0.0860 -0.1103 -0.8246
  827MOL0     C 9097  10.185  10.801   8.147 -0.2128  0.4929  0.4893
  827MOL0     C 9098  10.163  10.900   8.241 -0.0405  0.8009 -0.7541
  827MOL0     H 9099   9.942  11.241   8.434 -0.5617 -0.3401 -0.3069
  827MOL0     H 9100   9.809  11.348   8.609  0.9110 -1.0277 -0.2000
  827MOL0     H 9101  10.014  11.340   9.007  0.7750 -0.5371 -0.2272
  827MOL0     H 9102   9.883  11.228   9.061  0.1609 -0.2961  0.6209
  827MOL0     H 9103   9.733  11.442   9.064 -0.3087 -0.3216  1.4679
  827MOL0     H 9104   9.886  11.539   9.052  0.3311  0.8328  2.4470
  827MOL0     H 9105   9.807  11.507   9.279 -1.2974 -1.3102  2.8606
  827MOL0     H 9106   9.952  11.433   9.259 -1.8913  3.4572  3.2251
  827MOL0     H 9107   9.681  11.280   9.219 -2.4762 -4.3117  3.7430
  827MOL0     H 9108   9.831  11.208   9.255 -1.6496 -0.6042  0.4827
  827MOL0     H 9109   9.673  11.386   9.441 -3.4022 -2.2513 -1.0710
  827MOL0     H 9110   9.838  11.336   9.479 -0.8279  1.2370  0.8863
  827MOL0     H 9111   9.752  11.104   9.479  0.0365  0.4506  0.2694
  827MOL0     H 9112   9.593  11.151   9.443 -1.9717 -2.2088  4.7912
  827MOL0     H 9113   9.728  11.220   9.702  1.7066  2.3277 -4.7905
  827MOL0     H 9114   9.576  11.301   9.657 -2.0419 -1.1627  3.1356
  827MOL0     H 9115   9.491  11.056   9.624 -0.4469 -2.6285  0.8758
  827MOL0     H 9116   9.494  11.132   9.793  1.7208  1.9278  1.4403
  827MOL0     H 9117   9.684  11.040   9.969  1.1127  0.8415 -0.1694
  827MOL0     H 9118   9.844  10.694   9.955 -3.7056 -0.0511 -0.7958
  827MOL0     H 9119   9.827  10.814  10.065  1.5615 -1.8323  0.6519
  827MOL0     H 9120  10.038  10.886  10.040 -1.1221  1.1988  0.9520
  827MOL0     H 9121  10.003  10.937   9.867  0.5342 -2.6769 -2.8290
  827MOL0     H 9122  10.074  10.648   9.952  2.9283 -0.2894  0.7833
  827MOL0     H 9123  10.087  10.726   9.795  0.4640 -2.7620 -0.0829
  827MOL0     H 9124  10.248  10.758  10.051 -1.5045 -1.5473  0.3265
  827MOL0     H 9125  10.251  10.888   9.922 -0.2417 -0.9986 -1.1570
  827MOL0     H 9126  10.503  10.546   9.844 -4.9270  2.0796 -1.0296
  827MOL0     H 9127  10.741  10.552   9.961 -0.0308 -0.0320  0.8524
  827MOL0     H 9128  10.758  10.734  10.435  0.3418 -2.2113 -1.6406
  827MOL0     H 9129  10.892  10.706  10.645 -2.0506  1.6994 -0.9726
  827MOL0     H 9130  11.318  10.750  10.776  1.7619 -0.2539 -0.7139
  827MOL0     H 9131  11.336  10.735  10.610  1.8132  2.3219  1.0926
  827MOL0     H 9132  11.348  10.517  10.706  1.1941  2.7455 -0.0329
  827MOL0     H 9133  11.193  10.514  10.626  2.1919  1.7030 -2.4714
  827MOL0     H 9134  11.064  10.536  10.821  0.6751  0.4981 -0.8322
  827MOL0     H 9135  11.201  10.559  10.936 -2.6665 -1.0362  1.8156
  827MOL0     H 9136  11.150  10.311  10.776  1.4345 -1.4506  0.7352
  827MOL0     H 9137  11.289  10.345  10.865 -0.2356 -2.4300 -2.2733
  827MOL0     H 9138  11.001  10.351  10.981  1.6319  4.2787 -1.5874
  827MOL0     H 9139  11.150  10.356  11.074 -0.9395 -1.7351  1.6267
  827MOL0     H 9140  11.232  10.151  11.009  1.2440  5.7149  2.7328
  827MOL0     H 9141  11.063  10.114  10.926 -1.4461 -0.8634  1.2624
  827MOL0     H 9142  10.969  10.177  11.159  1.0172 -0.0546  1.2713
  827MOL0     H 9143  11.011  10.010  11.104  0.7530 -1.9283  3.5625
  827MOL0     H 9144  11.215  10.180  11.264 -1.5439  1.9065 -5.1651
  827MOL0     H 9145  11.202  10.005  11.250 -0.6173 -0.1936 -1.3921
  827MOL0     H 9146  11.235  10.844  10.444 -0.1760 -0.2808 -1.3172
  827MOL0     H 9147  11.121  10.853  10.234  2.0022 -2.6950 -0.9185
  827MOL0     H 9148  10.637  10.918  10.151  2.5893 -0.1819  0.2181
  827MOL0     H 9149  10.424  10.928  10.021 -3.2183 -1.5474  1.1667
  827MOL0     H 9150  10.024  11.111   8.897  0.1895  1.2011  0.1846
  827MOL0     H 9151  10.119  10.972   8.715 -0.3155 -0.5237  2.0765
  827MOL0     H 9152  10.461  10.873   8.401  1.0448 -3.3617 -0.0762
  827MOL0     H 9153  10.508  10.737   8.214  0.2314 -0.1963  0.9876
  827MOL0     H 9154  10.222  10.488   7.959 -2.4314  1.4055  1.1744
  827MOL0     H 9155  10.184  10.531   8.112  0.1773 -2.6671  0.3929
  827MOL0     H 9156  10.387  10.489   8.238  0.1976 -0.3037 -0.8666
  827MOL0     H 9157  10.314  10.342   8.188 -1.9866  0.1279  0.4653
  827MOL0     H 9158  10.577  10.357   8.153 -1.1677 -0.2708  0.8164
  827MOL0     H 9159  10.543  10.476   8.032 -2.3865 -0.1588 -0.2525
  827MOL0     H 9160  10.399  10.303   7.916  0.4100  0.4814 -0.3577
  827MOL0     H 9161  10.576  10.262   7.917 -0.3381 -4.0756 -0.3132
  827MOL0     H 9162  10.399   9.956   8.142  0.8534 -0.8426 -1.5804
  827MOL0     H 9163  10.103  10.785   8.078  0.1704 -1.4735  0.4372
  827MOL0     H 9164  10.062  10.937   8.253 -0.9122 -1.2156 -1.4717
  828MOL0     O 9165   7.040   5.440   9.804 -0.3961  0.0624 -1.3958
  828MOL0     C 9166   7.107   5.440   9.912  0.2238 -0.9016 -0.4266
  828MOL0     O 9167   7.051   5.476  10.036 -0.1213 -1.1694 -0.3627
  828MOL0     C 9168   6.917   5.523  10.049  0.8723  0.2201 -0.4824
  828MOL0     C 9169   6.860   5.502  10.176  0.1531 -0.1181 -0.1783
  828MOL0     C 9170   6.717   5.526  10.200 -0.2382 -0.2395  0.7694
  828MOL0     C 9171   6.638   5.581  10.101  1.0980  0.0083  0.8086
  828MOL0     O 9172   6.505   5.598  10.118 -0.3575  0.3247  0.3574
  828MOL0     C 9173   6.417   5.499  10.175 -0.2889 -0.0340 -0.0391
  828MOL0     C 9174   6.287   5.558  10.230  0.2436 -0.2131  0.2170
  828MOL0     C 9175   6.213   5.644  10.132  0.0599 -0.5821  0.4459
  828MOL0     C 9176   6.097   5.728  10.197 -0.8982  0.0115 -0.0593
  828MOL0     C 9177   5.980   5.640  10.246  0.2464  1.1577  0.6945
  828MOL0     C 9178   5.909   5.569  10.127 -0.7123 -0.1951  0.3424
  828MOL0     C 9179   5.788   5.490  10.155 -0.4101 -0.2622  0.0775
  828MOL0     C 9180   5.804   5.398  10.281  1.0080 -0.4284 -0.4057
  828MOL0     N 9181   5.910   5.309  10.266  0.2133  0.4784 -0.1187
  828MOL0     C 9182   5.953   5.238  10.156  0.0992 -0.1640 -0.0593
  828MOL0     C 9183   6.047   5.154  10.204  0.0370  0.2654  0.5739
  828MOL0     C 9184   6.155   5.092  10.120 -0.0545  0.4884  0.5082
  828MOL0     C 9185   6.294   5.079  10.174 -0.8884  0.7781 -0.5479
  828MOL0     C 9186   6.354   4.943  10.126  0.5001 -0.5206  0.9152
  828MOL0     C 9187   6.497   4.942  10.137  0.2376 -0.2796 -0.1350
  828MOL0     O 9188   6.543   4.827  10.198  0.0092 -0.2191 -0.7526
  828MOL0     C 9189   6.641   4.756  10.132 -0.5799 -0.2980 -0.6514
  828MOL0     C 9190   6.640   4.616  10.129  0.1830  0.3545 -0.0958
  828MOL0     C 9191   6.751   4.546  10.085  0.4285  0.1734  0.0577
  828MOL0     C 9192   6.873   4.620  10.050 -0.1281  0.0823  0.0383
  828MOL0     C 9193   7.002   4.559  10.022  0.1637 -0.8644  0.0373
  828MOL0     O 9194   7.100   4.645   9.972  0.4763  1.1066  0.0317
  828MOL0     C 9195   7.221   4.606   9.934 -0.0240  0.3715 -0.0050
  828MOL0     C 9196   7.310   4.529  10.014 -0.2780  0.7582  0.1380
  828MOL0     C 9197   7.444   4.520   9.979 -0.5834 -0.1033 -0.7773
  828MOL0     C 9198   7.494   4.560   9.855 -0.1251 -0.5198 -1.6457
  828MOL0     O 9199   7.632   4.544   9.816  0.3643 -1.1191  0.5853
  828MOL0     C 9200   7.682   4.413   9.829  0.4041  1.3817 -0.0698
  828MOL0     C 9201   7.805   4.416   9.733 -0.2630  1.0604  0.1024
  828MOL0     C 9202   7.932   4.490   9.786 -0.1823  0.4395  0.6196
  828MOL0     C 9203   8.048   4.454   9.693 -0.4351  0.4456 -0.4157
  828MOL0     C 9204   8.185   4.514   9.728 -0.0404 -0.1347  0.6157
  828MOL0     C 9205   8.200   4.652   9.672  0.1080  0.0107  0.4984
  828MOL0     C 9206   8.299   4.650   9.562  0.1802  0.4566 -0.8393
  828MOL0     C 9207   8.339   4.798   9.525 -0.1478  0.6895  0.7574
  828MOL0    Cl 9208   8.454   4.800   9.392  0.0674  0.6134  0.3139
  828MOL0     C 9209   7.394   4.623   9.769 -0.4685 -0.1382 -0.4619
  828MOL0     C 9210   7.264   4.651   9.811 -0.1501 -1.1235 -1.2064
  828MOL0     O 9211   7.008   4.443  10.048 -0.0140  0.3588  0.2675
  828MOL0     C 9212   6.873   4.759  10.054  0.8583 -0.2971  0.3616
  828MOL0     C 9213   6.756   4.823  10.101 -0.9687 -0.8045  0.1655
  828MOL0     N 9214   6.038   5.155  10.338  0.1400 -0.5437 -0.9135
  828MOL0     N 9215   5.943   5.231  10.381 -0.2378 -0.1613  0.0489
  828MOL0     C 9216   6.697   5.620   9.977  0.4767 -0.0140 -0.3698
  828MOL0     C 9217   6.833   5.591   9.950 -0.7532 -0.7611  0.3058
  828MOL0     C 9218   7.248   5.400   9.896 -0.0012  0.9904 -1.0880
  828MOL0     C 9219   7.339   5.438   9.991  0.6316 -0.8291  0.0254
  828MOL0     C 9220   7.468   5.406   9.989 -0.4727  0.4654  0.5399
  828MOL0     C 9221   7.521   5.341   9.872  0.4904 -0.2705  1.3199
  828MOL0     O 9222   7.650   5.312   9.833 -0.6972 -0.1767 -0.1065
  828MOL0     C 9223   7.758   5.347   9.922 -0.4525 -0.1640  0.0378
  828MOL0     C 9224   7.896   5.302   9.883  0.0194 -0.1322  0.3086
  828MOL0     C 9225   7.909   5.150   9.907  0.3090 -0.4302 -0.2141
  828MOL0     C 9226   7.991   5.073   9.804 -0.9612  0.3792 -0.1595
  828MOL0     C 9227   8.132   5.101   9.813 -0.7291  0.6323 -0.0049
  828MOL0     C 9228   8.255   5.107   9.815  0.0436  0.1805 -0.2447
  828MOL0     C 9229   7.427   5.305   9.771 -0.6265  0.4097 -0.0503
  828MOL0     C 9230   7.293   5.338   9.781  0.1545  0.3792 -0.9819
  828MOL0     H 9231   6.910   5.432  10.243 -2.6586 -4.7470 -2.3707
  828MOL0     H 9232   6.673   5.494  10.293  2.6910 -0.4919  2.1819
  828MOL0     H 9233   6.476   5.449  10.253 -0.2150  0.9027  0.5195
  828MOL0     H 9234   6.382   5.436  10.093 -3.0674  0.4590  0.6867
  828MOL0     H 9235   6.313   5.613  10.322  1.9476  0.2104 -0.4828
  828MOL0     H 9236   6.222   5.472  10.251  0.3011  0.0684  1.7035
  828MOL0     H 9237   6.177   5.590  10.045  1.4379 -0.6239 -0.1255
  828MOL0     H 9238   6.280   5.714  10.082  0.2021  0.1263  1.5858
  828MOL0     H 9239   6.139   5.785  10.280 -1.1718  2.0757 -1.2804
  828MOL0     H 9240   6.081   5.808  10.125 -2.5340 -1.6103 -1.5911
  828MOL0     H 9241   5.903   5.696  10.300 -0.1241 -0.4390  1.8900
  828MOL0     H 9242   6.007   5.560  10.316 -0.5520 -2.1296 -2.4828
  828MOL0     H 9243   5.983   5.509  10.073 -1.2446 -2.4214  1.9706
  828MOL0     H 9244   5.886   5.655  10.063  0.5254  0.3518  0.6025
  828MOL0     H 9245   5.709   5.563  10.176 -1.3985 -0.6985 -1.8650
  828MOL0     H 9246   5.773   5.434  10.062  0.0192  0.2639 -0.3125
  828MOL0     H 9247   5.710   5.342  10.278 -0.0288  1.2614 -3.3582
  828MOL0     H 9248   5.807   5.456  10.374  2.4746  1.2750 -1.4537
  828MOL0     H 9249   5.938   5.280  10.057 -1.2391  0.2830  0.3124
  828MOL0     H 9250   6.140   5.139  10.023  1.8432 -0.4951 -0.2967
  828MOL0     H 9251   6.117   4.990  10.106 -3.1382  1.4004  1.2975
  828MOL0     H 9252   6.281   5.053  10.280 -2.1576 -0.9716 -1.0813
  828MOL0     H 9253   6.358   5.167  10.161 -0.2749  0.3134 -0.7020
  828MOL0     H 9254   6.311   4.857  10.179 -1.9675  0.2889  0.3629
  828MOL0     H 9255   6.324   4.927  10.023 -0.8610 -0.3255  1.2641
  828MOL0     H 9256   6.525   5.031  10.195  1.7803  0.7918 -2.3786
  828MOL0     H 9257   6.538   4.947  10.036 -0.1108  0.2716 -0.2510
  828MOL0     H 9258   6.556   4.560  10.169 -0.6240  3.2933  2.7529
  828MOL0     H 9259   6.749   4.438  10.080  0.7441  0.0694  1.7494
  828MOL0     H 9260   7.274   4.493  10.110 -0.9323  1.3914  0.1373
  828MOL0     H 9261   7.513   4.475  10.050  1.0484  0.9907 -1.6024
  828MOL0     H 9262   7.622   4.324   9.806  2.3827 -0.1404  0.3714
  828MOL0     H 9263   7.706   4.396   9.934  0.5987 -3.2556 -0.6646
  828MOL0     H 9264   7.773   4.452   9.634  0.3735 -2.7221 -1.6561
  828MOL0     H 9265   7.824   4.309   9.719 -2.0451 -0.0979  4.7385
  828MOL0     H 9266   7.958   4.453   9.885 -1.4727  1.7855  1.4974
  828MOL0     H 9267   7.921   4.598   9.796 -1.8377  0.4232 -0.4893
  828MOL0     H 9268   8.054   4.346   9.710  1.4175  0.5823 -0.0839
  828MOL0     H 9269   8.017   4.473   9.589 -0.8230  0.7855 -0.2398
  828MOL0     H 9270   8.268   4.450   9.697 -0.7570 -0.5213 -0.5620
  828MOL0     H 9271   8.196   4.508   9.837  3.5670 -1.2262  0.3118
  828MOL0     H 9272   8.224   4.728   9.747  0.4355 -1.0061  1.4562
  828MOL0     H 9273   8.110   4.686   9.621  0.7403  1.9919  0.6108
  828MOL0     H 9274   8.392   4.600   9.589  0.9035  0.2737 -3.3831
  828MOL0     H 9275   8.251   4.604   9.475 -1.7289  0.8179 -0.0337
  828MOL0     H 9276   8.398   4.844   9.605  0.1455  0.6284  0.5748
  828MOL0     H 9277   8.243   4.842   9.495 -0.8754 -1.2763  0.0484
  828MOL0     H 9278   7.426   4.651   9.669 -1.0107 -1.9115 -1.1774
  828MOL0     H 9279   7.198   4.697   9.739 -3.6279 -2.5430  0.8427
  828MOL0     H 9280   6.959   4.818  10.025  0.3025 -0.6343 -2.1752
  828MOL0     H 9281   6.761   4.931  10.112 -2.5955 -0.8866  2.1750
  828MOL0     H 9282   6.661   5.670   9.888  1.6366  0.8270 -0.4038
  828MOL0     H 9283   6.879   5.616   9.855  3.3435  0.3266  2.3475
  828MOL0     H 9284   7.299   5.501  10.070 -0.1881  0.3748 -1.2901
  828MOL0     H 9285   7.534   5.424  10.073 -0.6716 -2.2161  1.3774
  828MOL0     H 9286   7.743   5.311  10.024 -1.0343  1.0615  0.3981
  828MOL0     H 9287   7.777   5.455   9.921  2.0819 -0.2907  4.8992
  828MOL0     H 9288   7.898   5.322   9.776 -0.2543  0.3867  0.3975
  828MOL0     H 9289   7.969   5.358   9.942  0.8250 -0.2979 -0.5091
  828MOL0     H 9290   7.810   5.104   9.900  0.5211 -1.3481  2.0268
  828MOL0     H 9291   7.941   5.123  10.008  0.3052 -0.7168 -0.2881
  828MOL0     H 9292   7.980   4.966   9.825  0.8461 -0.0684 -1.2757
  828MOL0     H 9293   7.957   5.107   9.705  4.0724  0.9206 -1.9689
  828MOL0     H 9294   8.361   5.108   9.826  0.1899  0.5783 -1.5054
  828MOL0     H 9295   7.467   5.253   9.684  0.2289  0.2078  0.4551
  828MOL0     H 9296   7.224   5.320   9.699  0.2525  0.7598 -1.1544
  829MOL0     O 9297   5.087  10.963   9.796  0.6299 -0.3088  0.1776
  829MOL0     C 9298   5.025  11.056   9.851 -0.8243 -0.7575  0.6976
  829MOL0     O 9299   5.056  11.125   9.966  0.4094  0.0808  1.5692
  829MOL0     C 9300   5.145  11.075  10.045 -0.8402 -0.4887 -0.4592
  829MOL0     C 9301   5.163  10.947  10.079  0.6139  0.2956  0.1900
  829MOL0     C 9302   5.268  10.919  10.170  0.1833 -0.0152 -0.2037
  829MOL0     C 9303   5.335  11.006  10.249 -0.5781 -0.6286 -0.3810
  829MOL0     O 9304   5.420  10.971  10.349  0.6391 -0.1808 -0.2556
  829MOL0     C 9305   5.466  10.845  10.353  0.2999  0.6058 -0.6884
  829MOL0     C 9306   5.557  10.844  10.479  1.6384 -0.4191 -0.2080
  829MOL0     C 9307   5.696  10.899  10.455 -0.0692  0.3495  0.5179
  829MOL0     C 9308   5.769  10.820  10.352 -0.6713  0.2573  0.7603
  829MOL0     C 9309   5.906  10.900  10.337 -0.3976 -0.6745 -1.3467
  829MOL0     C 9310   5.989  10.824  10.230  0.5367  0.0831 -0.1298
  829MOL0     C 9311   6.109  10.899  10.159  0.2851  0.4974  0.5458
  829MOL0     C 9312   6.066  11.028  10.094  0.1309 -0.0898  0.2823
  829MOL0     N 9313   6.162  11.068   9.996 -0.1137  0.3836  0.2220
  829MOL0     C 9314   6.295  11.095  10.018 -0.1149  0.4940 -0.9494
  829MOL0     C 9315   6.337  11.135   9.895 -1.2023 -0.7494 -0.0239
  829MOL0     C 9316   6.487  11.182   9.872  1.4563  0.2994  0.8588
  829MOL0     C 9317   6.525  11.218   9.729 -0.7332  0.1410  0.2018
  829MOL0     C 9318   6.678  11.211   9.705  0.9737 -0.2736 -0.2194
  829MOL0     C 9319   6.751  11.303   9.803  0.0688 -0.2731 -0.4650
  829MOL0     O 9320   6.895  11.285   9.807 -0.7368  0.1264  0.3960
  829MOL0     C 9321   6.963  11.299   9.690  0.3063 -0.5758 -0.0428
  829MOL0     C 9322   6.921  11.377   9.585  0.5809  0.5429  0.0533
  829MOL0     C 9323   7.011  11.392   9.478 -0.6689  0.5243  0.3833
  829MOL0     C 9324   7.125  11.308   9.461 -0.4478  0.5319  0.7539
  829MOL0     C 9325   7.210  11.311   9.340 -0.2276  1.0057  0.7406
  829MOL0     O 9326   7.169  11.390   9.239 -0.4925 -0.6087  0.2488
  829MOL0     C 9327   7.256  11.437   9.149  0.6707  0.6050  0.1328
  829MOL0     C 9328   7.217  11.441   9.013  0.3825  0.8736 -0.2034
  829MOL0     C 9329   7.311  11.493   8.920  0.3123 -1.5790  0.0314
  829MOL0     C 9330   7.442  11.533   8.953  0.8198 -0.1153 -1.2326
  829MOL0     O 9331   7.539  11.559   8.860  0.9969  0.3182  0.5747
  829MOL0     C 9332   7.497  11.615   8.729 -0.4215  1.1454 -0.0640
  829MOL0     C 9333   7.620  11.666   8.655 -0.0197 -0.1069 -0.1654
  829MOL0     C 9334   7.685  11.784   8.721  0.5874 -0.5177  0.0894
  829MOL0     C 9335   7.607  11.904   8.758 -1.0055 -0.6406 -0.2509
  829MOL0     C 9336   7.677  11.996   8.857 -0.8044  0.0959  0.1989
  829MOL0     C 9337   7.609  12.134   8.878 -0.1572 -0.7177 -0.5212
  829MOL0     C 9338   7.710  12.224   8.949  0.1758  0.6176  0.3416
  829MOL0     C 9339   7.827  12.284   8.860 -0.0587 -0.0231 -0.2316
  829MOL0    Cl 9340   7.971  12.324   8.968 -0.1220  0.2683  0.5022
  829MOL0     C 9341   7.475  11.523   9.082  0.7761 -0.0487 -0.4322
  829MOL0     C 9342   7.389  11.481   9.179 -0.1107 -0.5302  0.0711
  829MOL0     O 9343   7.317  11.251   9.348 -1.4742 -0.4070  0.3845
  829MOL0     C 9344   7.146  11.218   9.564  0.1566 -0.3392  0.1547
  829MOL0     C 9345   7.078  11.217   9.685 -0.1895  0.1467 -0.5050
  829MOL0     N 9346   6.235  11.117   9.808  0.6002 -0.0546  0.2734
  829MOL0     N 9347   6.130  11.072   9.865  0.3334 -0.2165 -0.4457
  829MOL0     C 9348   5.311  11.137  10.212  0.1910  0.3511 -0.3182
  829MOL0     C 9349   5.224  11.171  10.107 -0.2428  0.6672  0.7932
  829MOL0     C 9350   4.890  11.067   9.793 -0.2471 -0.4786  0.1876
  829MOL0     C 9351   4.787  11.109   9.875  0.7482 -0.0658 -0.4025
  829MOL0     C 9352   4.655  11.127   9.826 -0.0900  0.3362  0.0321
  829MOL0     C 9353   4.632  11.118   9.692 -0.9156 -0.4546  0.5440
  829MOL0     O 9354   4.517  11.151   9.622 -0.0778 -0.7250  1.0145
  829MOL0     C 9355   4.389  11.177   9.689 -1.0041 -0.5674  0.3380
  829MOL0     C 9356   4.260  11.170   9.608 -0.0405 -0.4352  0.4447
  829MOL0     C 9357   4.266  11.234   9.472 -0.0583  0.1966  0.1564
  829MOL0     C 9358   4.178  11.171   9.371 -1.1770  0.6739  0.6647
  829MOL0     C 9359   4.069  11.259   9.328  0.2120 -0.7084 -0.0368
  829MOL0     C 9360   3.957  11.310   9.290 -0.6659 -0.0784 -0.3769
  829MOL0     C 9361   4.735  11.076   9.610 -0.9724  0.7700  0.1870
  829MOL0     C 9362   4.867  11.042   9.658 -0.2417 -0.7155  0.4717
  829MOL0     H 9363   5.104  10.864  10.043  1.0490 -0.0897  0.3588
  829MOL0     H 9364   5.279  10.814  10.196 -2.4337 -0.2879  0.1489
  829MOL0     H 9365   5.514  10.815  10.259  3.0980 -1.1355  1.1429
  829MOL0     H 9366   5.394  10.765  10.372  0.1080  1.2164  1.4320
  829MOL0     H 9367   5.568  10.742  10.517  3.3911  0.7805  2.9351
  829MOL0     H 9368   5.513  10.889  10.569 -3.0528 -3.9427 -0.3196
  829MOL0     H 9369   5.765  10.901  10.540  1.6049 -0.0360 -0.7687
  829MOL0     H 9370   5.688  11.000  10.415 -0.2244  0.2600  0.3220
  829MOL0     H 9371   5.793  10.718  10.384  0.3267 -0.9418 -3.2323
  829MOL0     H 9372   5.724  10.819  10.253  0.0665  0.5436  0.4133
  829MOL0     H 9373   5.962  10.921  10.428 -2.5996 -1.2599  0.2352
  829MOL0     H 9374   5.884  11.004  10.311 -1.0665 -1.3193 -3.6539
  829MOL0     H 9375   5.915  10.801  10.153  0.0511  0.8327  0.1020
  829MOL0     H 9376   6.041  10.737  10.273 -0.0949 -0.3709 -0.2743
  829MOL0     H 9377   6.188  10.919  10.231  1.3694  0.8443 -0.6879
  829MOL0     H 9378   6.156  10.832  10.086  0.2063  1.2168 -0.1894
  829MOL0     H 9379   6.043  11.106  10.167 -1.9866  3.5384 -3.8124
  829MOL0     H 9380   5.970  11.006  10.048 -0.0105 -1.1831  1.0785
  829MOL0     H 9381   6.354  11.074  10.107 -0.9273 -4.1104 -1.2503
  829MOL0     H 9382   6.555  11.104   9.907 -1.2788 -1.8012  1.8852
  829MOL0     H 9383   6.508  11.268   9.936  0.4639 -0.1796  1.8544
  829MOL0     H 9384   6.494  11.317   9.693  0.3107  1.1748  1.9781
  829MOL0     H 9385   6.480  11.137   9.671  2.4904 -1.9339  0.3470
  829MOL0     H 9386   6.720  11.112   9.721  0.6506 -0.1348  1.7260
  829MOL0     H 9387   6.694  11.249   9.604  0.5062  0.3470 -0.0724
  829MOL0     H 9388   6.726  11.288   9.909 -0.9510  0.2292 -0.6174
  829MOL0     H 9389   6.727  11.408   9.780  5.2064  0.6913 -2.8357
  829MOL0     H 9390   6.836  11.445   9.591 -0.9110 -1.1019 -1.2878
  829MOL0     H 9391   6.991  11.451   9.389 -1.0985 -0.9230 -0.5109
  829MOL0     H 9392   7.120  11.396   8.993  1.3812 -0.9477 -1.1859
  829MOL0     H 9393   7.279  11.490   8.816  0.8726  0.9947 -0.2814
  829MOL0     H 9394   7.416  11.688   8.742 -0.7506  0.3671  2.9115
  829MOL0     H 9395   7.459  11.532   8.668 -1.0831  2.0495 -0.9174
  829MOL0     H 9396   7.592  11.697   8.554  1.5962 -1.6050 -1.1366
  829MOL0     H 9397   7.689  11.583   8.638 -1.9478 -1.3142 -2.7575
  829MOL0     H 9398   7.765  11.828   8.660  0.4738  0.5615  0.7068
  829MOL0     H 9399   7.731  11.744   8.812  0.5606 -0.7355  0.0072
  829MOL0     H 9400   7.586  11.967   8.670  0.0956  0.3824  0.1967
  829MOL0     H 9401   7.511  11.884   8.805  0.3328 -0.9107  2.5131
  829MOL0     H 9402   7.776  12.004   8.810 -0.7044 -0.8696  0.2110
  829MOL0     H 9403   7.692  11.940   8.950 -2.5064  2.4105  1.9800
  829MOL0     H 9404   7.521  12.131   8.943  2.1043 -0.5177  2.7641
  829MOL0     H 9405   7.575  12.180   8.785  0.4311 -1.3519 -1.0570
  829MOL0     H 9406   7.662  12.300   9.011 -2.0705  0.1106 -0.6610
  829MOL0     H 9407   7.747  12.156   9.027 -0.3357 -0.7065 -0.5282
  829MOL0     H 9408   7.774  12.367   8.812  0.1568  0.3261  0.1332
  829MOL0     H 9409   7.843  12.216   8.776  0.2689 -0.9834  0.5820
  829MOL0     H 9410   7.580  11.528   9.108  1.0987 -3.7073 -0.5089
  829MOL0     H 9411   7.414  11.490   9.285  0.8177  1.0803 -0.2478
  829MOL0     H 9412   7.224  11.145   9.543 -0.1801 -0.9627  1.0456
  829MOL0     H 9413   7.103  11.161   9.775 -0.9313 -0.1922 -0.5010
  829MOL0     H 9414   5.371  11.206  10.271 -2.3372  0.3000  2.5876
  829MOL0     H 9415   5.197  11.273  10.081  0.6614  0.4921 -0.9676
  829MOL0     H 9416   4.806  11.153   9.972  2.8500  0.4123 -0.9922
  829MOL0     H 9417   4.578  11.138   9.902  0.2680  0.6373  0.3543
  829MOL0     H 9418   4.402  11.279   9.725  1.6911 -0.9020  0.4965
  829MOL0     H 9419   4.384  11.110   9.776 -1.2026  0.7099  1.3322
  829MOL0     H 9420   4.237  11.063   9.601  2.3261 -0.8783 -3.0580
  829MOL0     H 9421   4.178  11.228   9.654  0.1758  3.1408 -3.1183
  829MOL0     H 9422   4.365  11.228   9.426  0.6450  0.3976  1.5825
  829MOL0     H 9423   4.246  11.339   9.493 -0.6660  0.7267 -2.7216
  829MOL0     H 9424   4.237  11.141   9.284 -2.1615 -0.1290  0.2609
  829MOL0     H 9425   4.142  11.077   9.414  2.4439 -1.6446 -0.9184
  829MOL0     H 9426   3.864  11.353   9.259 -2.6999 -2.9943  1.1822
  829MOL0     H 9427   4.700  11.068   9.508 -0.2176  1.8852 -0.1777
  829MOL0     H 9428   4.953  11.010   9.601 -1.2087 -0.9862 -0.8802
  830MOL0     O 9429   7.353   2.089   2.461 -0.1330  0.0948 -0.1542
  830MOL0     C 9430   7.458   2.065   2.391 -0.1434 -0.0679 -0.8102
  830MOL0     O 9431   7.472   1.995   2.269 -0.3763 -0.7480  0.2761
  830MOL0     C 9432   7.365   1.927   2.206 -0.3801  0.1037  0.6069
  830MOL0     C 9433   7.233   1.954   2.232 -0.2891 -0.5248  0.4667
  830MOL0     C 9434   7.123   1.892   2.158 -0.0267 -0.3505  0.5621
  830MOL0     C 9435   7.154   1.800   2.058  0.2758  0.2385  0.3388
  830MOL0     O 9436   7.062   1.734   1.976 -0.3492 -0.2159 -0.1493
  830MOL0     C 9437   7.026   1.595   2.013  0.0098 -0.1733 -0.3580
  830MOL0     C 9438   7.100   1.495   1.932  0.2366  0.1950  0.6477
  830MOL0     C 9439   7.021   1.367   1.896  0.6459  0.3239  0.3926
  830MOL0     C 9440   6.924   1.388   1.768 -1.1014 -0.7697 -0.0417
  830MOL0     C 9441   6.855   1.260   1.716 -0.0262  0.8246  0.1821
  830MOL0     C 9442   6.740   1.291   1.628 -0.1145 -0.4752  0.2787
  830MOL0     C 9443   6.667   1.166   1.583  0.6980  0.3904  0.3165
  830MOL0     C 9444   6.514   1.169   1.608  0.8009  0.0823  0.1277
  830MOL0     N 9445   6.453   1.269   1.513  0.1398 -0.1521  0.4004
  830MOL0     C 9446   6.412   1.402   1.544 -0.6475 -0.4026  0.4094
  830MOL0     C 9447   6.386   1.450   1.422 -0.2115 -0.3213  0.4856
  830MOL0     C 9448   6.346   1.598   1.379 -0.2878  0.4100 -0.2929
  830MOL0     C 9449   6.456   1.675   1.310  0.4132 -0.8630  0.1095
  830MOL0     C 9450   6.432   1.829   1.329 -0.5619  0.6314 -0.7812
  830MOL0     C 9451   6.304   1.876   1.246  0.4863 -0.7802  0.4904
  830MOL0     O 9452   6.319   2.019   1.217 -0.0832 -0.0974 -0.1774
  830MOL0     C 9453   6.244   2.076   1.120 -0.3617  0.0781  0.2360
  830MOL0     C 9454   6.148   2.007   1.050  0.7203  0.2617  0.3603
  830MOL0     C 9455   6.071   2.067   0.946  0.3390  0.3668 -0.5030
  830MOL0     C 9456   6.085   2.210   0.926  0.6326  1.1047  0.0444
  830MOL0     C 9457   6.030   2.283   0.814 -0.3459 -0.1709  0.2780
  830MOL0     O 9458   5.972   2.201   0.724  0.3984  0.2824 -0.0760
  830MOL0     C 9459   5.946   2.253   0.598 -0.0170 -0.5972  0.3247
  830MOL0     C 9460   5.813   2.276   0.562 -0.4573  0.4764  0.0079
  830MOL0     C 9461   5.776   2.323   0.431 -0.7421  0.2172 -1.0234
  830MOL0     C 9462   5.883   2.341   0.340  0.4375  0.0629 -0.6173
  830MOL0     O 9463   5.851   2.364   0.210  0.0362 -0.2007 -0.2442
  830MOL0     C 9464   5.830   2.506   0.196 -0.8369  0.4406 -0.5380
  830MOL0     C 9465   5.798   2.540   0.051  0.6082  0.0127  0.1549
  830MOL0     C 9466   5.805   2.683   0.008  0.1130  0.2078  1.1008
  830MOL0     C 9467   5.712   2.721  -0.104 -0.4085 -0.5335  0.3401
  830MOL0     C 9468   5.677   2.613  -0.201 -0.3123  0.2971 -0.9806
  830MOL0     C 9469   5.584   2.666  -0.301 -0.5319  0.0403 -0.1473
  830MOL0     C 9470   5.600   2.585  -0.434  0.1570  0.0876  0.5463
  830MOL0     C 9471   5.489   2.628  -0.532  1.3089  0.0468  0.4268
  830MOL0    Cl 9472   5.469   2.527  -0.685 -0.0588 -0.4289  0.2674
  830MOL0     C 9473   6.013   2.320   0.378  0.0123  0.2816  0.4558
  830MOL0     C 9474   6.049   2.289   0.502  0.1063 -0.1111 -0.3480
  830MOL0     O 9475   6.056   2.402   0.794  0.7609  0.2520  0.3255
  830MOL0     C 9476   6.176   2.279   1.010 -0.6747 -0.1854  0.3096
  830MOL0     C 9477   6.255   2.212   1.099 -0.6642  0.2220  0.6528
  830MOL0     N 9478   6.429   1.363   1.321  0.3275 -0.1680  0.1675
  830MOL0     N 9479   6.463   1.257   1.380  0.1130 -0.2152  0.2945
  830MOL0     C 9480   7.288   1.772   2.035 -0.0374 -0.1364  0.4854
  830MOL0     C 9481   7.390   1.834   2.103  0.0162 -0.1302 -0.6385
  830MOL0     C 9482   7.587   2.125   2.439  0.0033 -0.3782  0.3727
  830MOL0     C 9483   7.597   2.237   2.527  0.0753  0.8162  0.0529
  830MOL0     C 9484   7.718   2.300   2.554  0.2094  0.6662  0.3567
  830MOL0     C 9485   7.830   2.236   2.496  0.0117 -0.5949  0.4887
  830MOL0     O 9486   7.958   2.285   2.521 -0.1311 -0.2994  0.1832
  830MOL0     C 9487   7.976   2.420   2.561 -0.1114  0.1705  0.1348
  830MOL0     C 9488   7.937   2.517   2.453  0.8990 -0.0669 -0.7366
  830MOL0     C 9489   8.045   2.520   2.349 -1.1028 -0.1768  0.1333
  830MOL0     C 9490   8.002   2.610   2.232 -0.2861  0.0613 -0.1046
  830MOL0     C 9491   8.034   2.746   2.269 -0.5093 -0.0514 -0.0213
  830MOL0     C 9492   8.077   2.860   2.279  0.8111  0.1213  0.4494
  830MOL0     C 9493   7.821   2.128   2.411 -0.6324 -0.5990 -0.0017
  830MOL0     C 9494   7.702   2.072   2.377 -0.3168  0.2328  0.0862
  830MOL0     H 9495   7.202   2.017   2.315  0.3358 -0.5111  0.6915
  830MOL0     H 9496   7.023   1.932   2.156  1.1483  2.8219 -1.0387
  830MOL0     H 9497   6.918   1.590   2.001 -0.1354  2.5133 -0.9523
  830MOL0     H 9498   7.036   1.570   2.119 -1.2451  2.2677  0.4249
  830MOL0     H 9499   7.185   1.453   1.987 -0.0834  1.6405  2.3117
  830MOL0     H 9500   7.140   1.547   1.844 -1.3754  0.0570 -0.2051
  830MOL0     H 9501   6.963   1.350   1.987 -1.1001 -0.1973 -0.7841
  830MOL0     H 9502   7.100   1.291   1.886 -1.1482 -1.2780 -3.8200
  830MOL0     H 9503   6.850   1.459   1.806 -0.8688 -1.0248  0.9167
  830MOL0     H 9504   6.983   1.439   1.691  1.7081  1.2643  3.1502
  830MOL0     H 9505   6.825   1.199   1.801  1.8510 -1.3058 -0.5601
  830MOL0     H 9506   6.929   1.198   1.663  0.2136  2.6877 -1.8172
  830MOL0     H 9507   6.773   1.354   1.545 -1.4255  1.0829  0.8905
  830MOL0     H 9508   6.657   1.344   1.676  0.7462  3.2264 -1.9286
  830MOL0     H 9509   6.684   1.165   1.475 -2.5577  0.0287 -0.2792
  830MOL0     H 9510   6.711   1.082   1.638 -1.0675 -0.4036  0.6012
  830MOL0     H 9511   6.491   1.188   1.713  0.1086  1.7766 -0.3019
  830MOL0     H 9512   6.469   1.072   1.582 -0.3977  1.0585 -1.7005
  830MOL0     H 9513   6.410   1.452   1.640  1.4793  0.8585 -0.1442
  830MOL0     H 9514   6.334   1.639   1.480 -0.5386 -0.6781  0.1355
  830MOL0     H 9515   6.258   1.603   1.314 -0.0093  1.6132 -0.5994
  830MOL0     H 9516   6.469   1.656   1.203 -1.3694  0.5859 -0.4257
  830MOL0     H 9517   6.547   1.641   1.359  0.7595 -2.4536 -1.5610
  830MOL0     H 9518   6.405   1.849   1.433  0.3629 -1.3265 -0.1096
  830MOL0     H 9519   6.526   1.885   1.320 -0.2512  1.2633  3.9358
  830MOL0     H 9520   6.213   1.863   1.305  0.8936 -0.0463  1.3025
  830MOL0     H 9521   6.304   1.819   1.152 -0.9755  1.0241 -0.6627
  830MOL0     H 9522   6.139   1.899   1.057  2.0626  0.1668  0.8852
  830MOL0     H 9523   6.013   2.012   0.873  2.3827 -1.8894 -0.5563
  830MOL0     H 9524   5.733   2.260   0.634 -3.4850  0.4044 -3.1214
  830MOL0     H 9525   5.679   2.339   0.385 -0.4807  0.2940 -1.5607
  830MOL0     H 9526   5.913   2.568   0.231  0.9608 -1.2533 -1.6347
  830MOL0     H 9527   5.734   2.522   0.246 -0.7519 -0.3768 -0.0972
  830MOL0     H 9528   5.694   2.508   0.042  0.1930  0.5178  2.4202
  830MOL0     H 9529   5.857   2.476  -0.015  3.4782  1.9944  0.5876
  830MOL0     H 9530   5.906   2.707  -0.027 -0.4844 -1.9686 -2.6440
  830MOL0     H 9531   5.781   2.742   0.097 -3.7648 -1.8556  1.6267
  830MOL0     H 9532   5.619   2.770  -0.073  0.4155  2.2642 -1.2099
  830MOL0     H 9533   5.763   2.804  -0.155 -0.0988 -0.2092  1.1652
  830MOL0     H 9534   5.633   2.527  -0.150 -0.3710  0.9015  0.0180
  830MOL0     H 9535   5.773   2.587  -0.246  0.2538  0.2487  0.2314
  830MOL0     H 9536   5.609   2.772  -0.311  2.5990 -0.5772  0.1995
  830MOL0     H 9537   5.481   2.659  -0.264  0.4713 -0.7686  2.7814
  830MOL0     H 9538   5.701   2.610  -0.468  0.2442 -1.6310 -0.5817
  830MOL0     H 9539   5.597   2.477  -0.416 -3.6198 -0.7723 -3.5397
  830MOL0     H 9540   5.520   2.728  -0.565  3.5877 -1.5511 -2.8027
  830MOL0     H 9541   5.392   2.627  -0.482  2.0835 -0.1110  1.9625
  830MOL0     H 9542   6.096   2.328   0.308  0.4102  0.2591  0.9185
  830MOL0     H 9543   6.150   2.283   0.541 -0.7469  0.1948  2.0971
  830MOL0     H 9544   6.199   2.384   0.997 -2.0904  0.3014  1.4748
  830MOL0     H 9545   6.342   2.267   1.135  0.3942 -0.0253 -1.3895
  830MOL0     H 9546   7.316   1.695   1.964 -0.6576 -0.8393  0.9888
  830MOL0     H 9547   7.491   1.806   2.077 -0.7099 -3.1895 -0.4891
  830MOL0     H 9548   7.510   2.280   2.577 -1.5856 -0.9832 -1.1290
  830MOL0     H 9549   7.713   2.396   2.604 -0.9545  1.1468 -0.6139
  830MOL0     H 9550   8.083   2.430   2.585 -0.1507 -1.3378  1.0806
  830MOL0     H 9551   7.921   2.443   2.653 -0.0349  3.1051 -0.4423
  830MOL0     H 9552   7.839   2.483   2.420 -0.0225 -0.3982  2.1260
  830MOL0     H 9553   7.932   2.620   2.491  1.9163 -0.6802  1.1900
  830MOL0     H 9554   8.059   2.419   2.308  1.0752  0.5536 -1.1079
  830MOL0     H 9555   8.142   2.557   2.384 -1.1056  2.2145 -2.0633
  830MOL0     H 9556   8.045   2.578   2.137 -1.5780  0.0089 -0.6890
  830MOL0     H 9557   7.892   2.612   2.230 -0.5246  2.2943  3.9636
  830MOL0     H 9558   8.104   2.963   2.288 -0.5809  0.6721 -1.1874
  830MOL0     H 9559   7.908   2.094   2.354 -2.0019 -0.9776 -1.9577
  830MOL0     H 9560   7.707   1.990   2.305  2.5515 -0.7891  1.3159
  831MOL0     O 9561   7.768   9.985   6.993  0.9808  0.3996 -0.6883
  831MOL0     C 9562   7.832   9.921   6.912 -0.1299 -0.6115 -0.2397
  831MOL0     O 9563   7.813   9.921   6.773  0.2694 -0.3120  0.1457
  831MOL0     C 9564   7.690   9.961   6.722 -0.1514  0.3645 -0.3837
  831MOL0     C 9565   7.694  10.021   6.600  0.5357 -0.2570  0.4981
  831MOL0     C 9566   7.574  10.056   6.532 -0.2622 -0.0682  0.4748
  831MOL0     C 9567   7.456  10.054   6.605 -0.2431 -0.0851 -0.2032
  831MOL0     O 9568   7.339  10.065   6.544  0.9743  0.0788  0.6436
  831MOL0     C 9569   7.317  10.025   6.407  0.5938 -0.4092 -0.2619
  831MOL0     C 9570   7.172   9.971   6.390 -0.7866  0.1354 -0.6760
  831MOL0     C 9571   7.153   9.948   6.238  0.6027 -0.2622  0.5003
  831MOL0     C 9572   7.006   9.964   6.188  0.2807 -0.5112  0.5258
  831MOL0     C 9573   6.951  10.103   6.190  0.7481 -0.1353  0.4141
  831MOL0     C 9574   6.822  10.117   6.104  0.1505  0.2065 -0.5921
  831MOL0     C 9575   6.719  10.221   6.165  0.3739 -0.5696 -0.4287
  831MOL0     C 9576   6.586  10.232   6.085  0.4131 -0.2284 -0.2298
  831MOL0     N 9577   6.494  10.121   6.123  0.2301 -0.8437 -0.8771
  831MOL0     C 9578   6.496   9.985   6.099 -0.7134 -0.2539  0.1266
  831MOL0     C 9579   6.363   9.946   6.103 -1.2523  0.2954  0.5658
  831MOL0     C 9580   6.317   9.815   6.062  0.0012 -0.3878 -0.1999
  831MOL0     C 9581   6.229   9.817   5.942  0.8466 -0.7796  0.2939
  831MOL0     C 9582   6.150   9.683   5.911 -0.3442  0.9357 -0.4631
  831MOL0     C 9583   6.254   9.570   5.886  0.4583 -0.1188 -0.5722
  831MOL0     O 9584   6.329   9.605   5.768  0.2521 -0.0591  0.3906
  831MOL0     C 9585   6.428   9.524   5.724 -0.5273 -0.2099  0.3186
  831MOL0     C 9586   6.458   9.530   5.591 -0.1152 -1.0726 -0.1808
  831MOL0     C 9587   6.587   9.488   5.546 -0.4664  0.6323  0.6374
  831MOL0     C 9588   6.667   9.403   5.622  0.7605  0.4072  0.2324
  831MOL0     C 9589   6.805   9.344   5.581 -0.5517  0.6689 -0.1248
  831MOL0     O 9590   6.858   9.262   5.676  0.2851 -0.1871 -0.1230
  831MOL0     C 9591   6.991   9.227   5.668 -0.8687  0.5699 -0.5772
  831MOL0     C 9592   7.066   9.204   5.787  0.3583  0.3135 -0.7690
  831MOL0     C 9593   7.206   9.182   5.789  0.1968  1.1115  0.1540
  831MOL0     C 9594   7.284   9.155   5.680 -0.8151  0.1451  0.3777
  831MOL0     O 9595   7.417   9.135   5.683  0.6818  0.2804  0.1130
  831MOL0     C 9596   7.490   9.155   5.810  0.0656 -0.4383 -0.6377
  831MOL0     C 9597   7.629   9.087   5.793  0.3818  0.1243  0.0145
  831MOL0     C 9598   7.726   9.113   5.915  0.5119  0.6210  0.1476
  831MOL0     C 9599   7.864   9.054   5.897  0.0080  0.0744  0.3010
  831MOL0     C 9600   7.884   8.906   5.912  0.7013  0.1312 -0.3093
  831MOL0     C 9601   8.031   8.861   5.928  0.5007  0.1690 -0.3272
  831MOL0     C 9602   8.099   8.875   5.789  0.4056  0.7177  0.2615
  831MOL0     C 9603   8.249   8.888   5.812 -0.4661  0.7599  0.0167
  831MOL0    Cl 9604   8.311   8.745   5.904 -0.5752 -0.5470  0.4893
  831MOL0     C 9605   7.210   9.155   5.560 -0.3027 -0.2560  0.2887
  831MOL0     C 9606   7.075   9.209   5.551 -0.3966 -0.0396 -0.8359
  831MOL0     O 9607   6.854   9.374   5.471 -0.1117  0.6467  0.8915
  831MOL0     C 9608   6.619   9.383   5.757  0.2241 -0.1152 -0.4592
  831MOL0     C 9609   6.511   9.449   5.808  0.1696  0.5006  0.5948
  831MOL0     N 9610   6.296  10.056   6.155  0.3024 -0.3986 -0.5445
  831MOL0     N 9611   6.369  10.166   6.166  0.0159 -0.4742 -0.1312
  831MOL0     C 9612   7.453   9.996   6.730 -0.0260 -0.3673  0.3603
  831MOL0     C 9613   7.571   9.933   6.784  0.2457 -0.1394 -0.7456
  831MOL0     C 9614   7.933   9.821   6.969  0.9406 -0.8577  0.3227
  831MOL0     C 9615   8.024   9.747   6.883 -0.0235  0.0680  0.9221
  831MOL0     C 9616   8.106   9.657   6.951 -0.2909  0.7770  0.3249
  831MOL0     C 9617   8.128   9.648   7.087  0.8470  0.7885  0.2123
  831MOL0     O 9618   8.225   9.557   7.128 -0.0099 -0.3718  0.1127
  831MOL0     C 9619   8.251   9.541   7.270 -0.2563  0.1459  0.2048
  831MOL0     C 9620   8.381   9.464   7.278  0.1115  0.0399 -0.2090
  831MOL0     C 9621   8.364   9.318   7.229  0.2713  0.3909  0.0768
  831MOL0     C 9622   8.478   9.218   7.252  0.5001 -0.2812  0.5074
  831MOL0     C 9623   8.544   9.179   7.122  0.0584 -0.3214 -0.2350
  831MOL0     C 9624   8.590   9.153   7.018 -0.2222 -0.1054 -0.0631
  831MOL0     C 9625   8.046   9.722   7.167  0.3817  0.0486 -1.3996
  831MOL0     C 9626   7.942   9.794   7.108  1.0012  0.6746 -0.3312
  831MOL0     H 9627   7.785  10.004   6.542 -0.5659 -3.3047 -0.5380
  831MOL0     H 9628   7.580  10.075   6.425  2.0131 -4.5816 -0.4929
  831MOL0     H 9629   7.391   9.954   6.370  1.3553  0.0014  0.4261
  831MOL0     H 9630   7.331  10.116   6.349  0.1969 -0.4799 -0.4718
  831MOL0     H 9631   7.101  10.040   6.435 -2.1109 -0.2466 -2.0978
  831MOL0     H 9632   7.161   9.879   6.449  0.3819  1.3724  1.6254
  831MOL0     H 9633   7.181   9.844   6.217 -0.3366  0.1082 -3.4907
  831MOL0     H 9634   7.216  10.014   6.177 -1.5136  2.6906  1.3435
  831MOL0     H 9635   7.026   9.935   6.085  6.0961  1.0725  0.8406
  831MOL0     H 9636   6.925   9.910   6.238 -1.6880 -0.0752 -2.0203
  831MOL0     H 9637   7.026  10.166   6.142 -1.4892 -0.1094 -3.5236
  831MOL0     H 9638   6.936  10.130   6.294  0.7862 -0.2380  0.4471
  831MOL0     H 9639   6.781  10.016   6.106 -0.2425  0.3755  0.8550
  831MOL0     H 9640   6.842  10.138   5.998 -2.5013  0.8374 -1.0372
  831MOL0     H 9641   6.699  10.200   6.270  1.3147 -1.4450 -0.4090
  831MOL0     H 9642   6.774  10.313   6.145  1.3375 -1.1628 -0.5893
  831MOL0     H 9643   6.608  10.219   5.979  0.6214  0.8615 -0.3295
  831MOL0     H 9644   6.533  10.325   6.107 -3.1684 -1.1249 -3.8804
  831MOL0     H 9645   6.592   9.941   6.073 -0.6503  1.6539 -3.5627
  831MOL0     H 9646   6.278   9.763   6.151  0.3394  0.1095  0.2428
  831MOL0     H 9647   6.401   9.754   6.026 -0.9099 -0.9438 -1.4782
  831MOL0     H 9648   6.289   9.840   5.854 -2.0579  2.3639 -1.0762
  831MOL0     H 9649   6.153   9.896   5.937 -0.4145 -1.9997 -0.5641
  831MOL0     H 9650   6.079   9.662   5.991  2.1256 -1.1462  1.3426
  831MOL0     H 9651   6.083   9.695   5.825 -1.4414 -1.8371 -0.0831
  831MOL0     H 9652   6.204   9.475   5.866  0.2753 -0.4515  1.3517
  831MOL0     H 9653   6.317   9.562   5.974 -1.2327  1.6003  0.8988
  831MOL0     H 9654   6.387   9.585   5.529  1.2177 -1.8510 -2.5002
  831MOL0     H 9655   6.606   9.494   5.439 -1.6900 -0.9722  0.2887
  831MOL0     H 9656   7.005   9.199   5.877  1.7909  2.9418  0.4615
  831MOL0     H 9657   7.253   9.191   5.886  1.0931 -1.5102  0.0293
  831MOL0     H 9658   7.435   9.103   5.888  1.3355  0.2800  0.7887
  831MOL0     H 9659   7.493   9.262   5.832 -0.0828 -0.5178 -0.2410
  831MOL0     H 9660   7.663   9.129   5.698  1.0182 -1.8709 -0.6928
  831MOL0     H 9661   7.619   8.978   5.789 -0.5116  0.0607  2.3002
  831MOL0     H 9662   7.680   9.098   6.013  1.8283  2.0653  1.0262
  831MOL0     H 9663   7.753   9.219   5.914 -0.9011  1.0019 -0.3627
  831MOL0     H 9664   7.917   9.100   5.813 -1.2025 -1.2386 -1.2545
  831MOL0     H 9665   7.919   9.092   5.983 -0.7716 -0.8252  1.2299
  831MOL0     H 9666   7.854   8.860   5.817  1.0199 -0.1198 -0.2907
  831MOL0     H 9667   7.820   8.869   5.993 -0.5841 -0.3597 -1.5022
  831MOL0     H 9668   8.036   8.755   5.955 -0.0333 -0.6129 -2.9655
  831MOL0     H 9669   8.081   8.923   6.003 -1.1252  0.8471  0.2358
  831MOL0     H 9670   8.065   8.788   5.731 -0.6189  0.3668  1.3350
  831MOL0     H 9671   8.058   8.961   5.735 -2.4507 -0.5898  0.1370
  831MOL0     H 9672   8.281   8.974   5.871  2.5355  0.0120 -0.3732
  831MOL0     H 9673   8.312   8.882   5.723  2.3265 -0.2312  1.8843
  831MOL0     H 9674   7.269   9.138   5.471 -1.1002  2.5342 -0.8622
  831MOL0     H 9675   7.037   9.226   5.450 -0.0113  1.0851 -0.8138
  831MOL0     H 9676   6.682   9.335   5.831 -1.2493 -0.1480  0.8314
  831MOL0     H 9677   6.493   9.435   5.914  2.1022 -0.9733  0.7985
  831MOL0     H 9678   7.360   9.976   6.782 -0.5303 -0.1950 -0.4602
  831MOL0     H 9679   7.579   9.876   6.876  1.2494 -0.3313 -0.9365
  831MOL0     H 9680   8.042   9.769   6.778  3.1518 -1.5353  0.9823
  831MOL0     H 9681   8.174   9.599   6.890  0.2554 -1.7757  3.1005
  831MOL0     H 9682   8.181   9.492   7.339  0.6329  0.2628  1.2171
  831MOL0     H 9683   8.262   9.635   7.324 -2.1546  0.0994  0.7533
  831MOL0     H 9684   8.456   9.515   7.216  0.0276 -0.1139 -0.4357
  831MOL0     H 9685   8.419   9.456   7.380 -1.7412 -2.6746  0.3545
  831MOL0     H 9686   8.332   9.326   7.124 -1.7732  2.2705  0.7577
  831MOL0     H 9687   8.277   9.283   7.286 -0.1371 -0.8567 -1.2599
  831MOL0     H 9688   8.551   9.262   7.320  1.3004 -1.0171  0.1350
  831MOL0     H 9689   8.440   9.128   7.301  2.4491 -1.2647  0.2933
  831MOL0     H 9690   8.622   9.137   6.917  4.5998 -0.1869  1.2115
  831MOL0     H 9691   8.058   9.705   7.274  1.9155 -2.2981 -1.8582
  831MOL0     H 9692   7.861   9.823   7.175 -0.9739 -3.9836 -0.2885
  832MOL0     O 9693   2.949   7.865  10.753  0.1267  0.6265 -0.5169
  832MOL0     C 9694   2.981   7.811  10.648  0.5116 -0.1219  0.1263
  832MOL0     O 9695   2.900   7.767  10.551 -0.4232  0.5559  0.4292
  832MOL0     C 9696   2.779   7.829  10.550  0.3784 -0.4099  0.1524
  832MOL0     C 9697   2.768   7.939  10.463  0.0816 -0.0176 -0.6416
  832MOL0     C 9698   2.654   8.016  10.471 -0.1806 -0.4226 -0.2785
  832MOL0     C 9699   2.544   7.976  10.535 -0.3669  0.4120 -0.3544
  832MOL0     O 9700   2.441   8.068  10.527  0.2496  0.6497  0.6014
  832MOL0     C 9701   2.333   8.054  10.619  0.7460  0.5776 -0.4124
  832MOL0     C 9702   2.206   8.122  10.570  0.5610  0.3451  0.1932
  832MOL0     C 9703   2.108   8.147  10.685  0.0512 -0.1068 -0.3777
  832MOL0     C 9704   2.069   8.297  10.682 -0.2884 -0.6348  0.4001
  832MOL0     C 9705   1.984   8.314  10.805  0.2354  0.0401 -0.1527
  832MOL0     C 9706   1.896   8.437  10.794 -0.5197  0.1277 -0.0720
  832MOL0     C 9707   1.966   8.571  10.829 -1.1983 -0.0038  0.0483
  832MOL0     C 9708   1.946   8.612  10.974  1.3323  0.1417  0.1880
  832MOL0     N 9709   2.001   8.531  11.086  0.0230 -0.4710  0.5133
  832MOL0     C 9710   2.135   8.512  11.107  0.4323 -0.6518  0.9678
  832MOL0     C 9711   2.138   8.411  11.194 -0.5347  0.0584 -0.5009
  832MOL0     C 9712   2.268   8.364  11.258 -0.1759 -0.1581  0.4889
  832MOL0     C 9713   2.254   8.243  11.349 -0.6208  0.9533 -0.1973
  832MOL0     C 9714   2.178   8.279  11.474  0.6473 -0.1509 -1.2525
  832MOL0     C 9715   2.125   8.156  11.556  0.3120 -0.3534  0.1404
  832MOL0     O 9716   2.054   8.206  11.675 -0.0236  1.3460 -0.3869
  832MOL0     C 9717   1.919   8.214  11.666  0.0046 -0.2012  0.7135
  832MOL0     C 9718   1.845   8.220  11.548  0.9984 -1.1689 -0.0738
  832MOL0     C 9719   1.707   8.202  11.560  0.2866  1.0683  0.6359
  832MOL0     C 9720   1.644   8.177  11.681 -0.6477  0.2642  1.1928
  832MOL0     C 9721   1.501   8.136  11.678 -0.4050  0.1479 -0.4688
  832MOL0     O 9722   1.471   8.047  11.582 -0.0792 -0.0029  0.1435
  832MOL0     C 9723   1.335   8.019  11.570 -1.1132  1.8006 -0.4738
  832MOL0     C 9724   1.279   7.901  11.620 -0.8724 -0.1793  0.2991
  832MOL0     C 9725   1.156   7.855  11.575  0.2380  0.2022 -0.2375
  832MOL0     C 9726   1.065   7.941  11.505 -0.1227  0.1958 -0.8904
  832MOL0     O 9727   0.943   7.897  11.460 -0.4651  0.7262 -0.3873
  832MOL0     C 9728   0.885   7.780  11.516  0.6882  0.1195  0.7325
  832MOL0     C 9729   0.734   7.804  11.498  0.2750 -0.5968  0.8696
  832MOL0     C 9730   0.648   7.688  11.546 -0.3709  1.1080 -0.5099
  832MOL0     C 9731   0.499   7.701  11.530 -0.0859 -1.1873  0.2355
  832MOL0     C 9732   0.419   7.579  11.578  0.3588 -0.4800  0.8011
  832MOL0     C 9733   0.269   7.631  11.606  0.7347 -0.1389  0.3182
  832MOL0     C 9734   0.207   7.696  11.481  0.1709 -0.1628  0.7320
  832MOL0     C 9735   0.061   7.712  11.496 -0.3270  0.3987 -0.2865
  832MOL0    Cl 9736   0.027   7.841  11.626  0.1261 -0.8366  0.2911
  832MOL0     C 9737   1.116   8.064  11.465 -0.2510 -0.3845 -0.3920
  832MOL0     C 9738   1.251   8.099  11.494  0.8388  0.0883  0.2752
  832MOL0     O 9739   1.424   8.171  11.766 -0.1831 -0.1669  0.1086
  832MOL0     C 9740   1.717   8.174  11.798 -0.3519 -0.3213  0.0665
  832MOL0     C 9741   1.857   8.190  11.789  0.1757 -0.7699  0.4008
  832MOL0     N 9742   2.012   8.376  11.231  0.1930  0.6010  0.3487
  832MOL0     N 9743   1.927   8.440  11.151 -0.4024 -0.7207 -0.1780
  832MOL0     C 9744   2.553   7.869  10.620 -0.0531 -0.2848  0.5789
  832MOL0     C 9745   2.672   7.799  10.636 -0.3884  0.3060 -0.2942
  832MOL0     C 9746   3.124   7.775  10.628 -0.0100 -0.6232 -0.1142
  832MOL0     C 9747   3.205   7.756  10.728  0.5015  0.6072 -0.1308
  832MOL0     C 9748   3.345   7.719  10.721  0.1745 -0.1824  0.3409
  832MOL0     C 9749   3.400   7.695  10.594  0.5691 -0.5061 -0.3156
  832MOL0     O 9750   3.535   7.668  10.572  0.5197 -0.0259  0.2299
  832MOL0     C 9751   3.637   7.672  10.673 -0.5230 -0.1394  0.7344
  832MOL0     C 9752   3.779   7.678  10.610 -0.4311 -0.1925  0.1175
  832MOL0     C 9753   3.887   7.719  10.712  0.2620  0.8327 -0.3582
  832MOL0     C 9754   4.030   7.705  10.665  0.0308  0.1712 -0.0543
  832MOL0     C 9755   4.126   7.764  10.751  0.1450  0.5147 -0.6410
  832MOL0     C 9756   4.220   7.812  10.812  0.2709 -0.2912 -0.2008
  832MOL0     C 9757   3.308   7.695  10.488 -0.4090  0.4138 -0.6745
  832MOL0     C 9758   3.179   7.735  10.503 -0.3135  0.3346 -0.0788
  832MOL0     H 9759   2.847   7.969  10.395 -0.9928  2.5734 -0.8727
  832MOL0     H 9760   2.653   8.104  10.408  1.7827 -0.9089 -1.0593
  832MOL0     H 9761   2.362   8.100  10.714  0.5228  1.3102 -0.6888
  832MOL0     H 9762   2.306   7.950  10.638 -0.1460  0.8027 -0.4323
  832MOL0     H 9763   2.157   8.062  10.492  1.9460  1.6574 -1.7757
  832MOL0     H 9764   2.232   8.221  10.531  2.4400 -1.2427 -2.9397
  832MOL0     H 9765   2.142   8.127  10.787 -2.4449 -1.4919  0.2736
  832MOL0     H 9766   2.022   8.079  10.683  0.6193 -0.9039  0.7052
  832MOL0     H 9767   2.160   8.358  10.680 -0.4437 -0.3907  0.7584
  832MOL0     H 9768   2.021   8.317  10.586  3.6756 -0.7971 -1.8402
  832MOL0     H 9769   2.036   8.308  10.901  0.4383 -2.7962 -0.3481
  832MOL0     H 9770   1.915   8.229  10.806 -1.4202  1.3088 -1.1289
  832MOL0     H 9771   1.808   8.421  10.857 -2.8374  1.8680 -2.6043
  832MOL0     H 9772   1.850   8.444  10.695  0.0355 -2.2727 -0.5726
  832MOL0     H 9773   2.074   8.559  10.814 -1.5597 -0.6226 -2.4656
  832MOL0     H 9774   1.925   8.642  10.757 -0.1878  0.1176 -0.4317
  832MOL0     H 9775   1.837   8.604  10.978  1.0827  0.3458 -3.1459
  832MOL0     H 9776   1.963   8.720  10.983  1.8250  0.1607 -0.7930
  832MOL0     H 9777   2.223   8.564  11.070 -0.1052  0.3457  1.0450
  832MOL0     H 9778   2.316   8.438  11.322  1.7255  0.0255 -1.0582
  832MOL0     H 9779   2.337   8.328  11.181 -0.8136 -1.5476  0.5388
  832MOL0     H 9780   2.351   8.201  11.376 -1.5064 -1.1415 -0.0961
  832MOL0     H 9781   2.203   8.161  11.296 -0.6515  0.0110  1.2340
  832MOL0     H 9782   2.236   8.345  11.538 -3.0744  1.9476  0.2910
  832MOL0     H 9783   2.093   8.342  11.446  1.9434  1.1084 -2.4604
  832MOL0     H 9784   2.216   8.109  11.594  0.8672  0.9219  0.4512
  832MOL0     H 9785   2.074   8.073  11.506 -3.8149  0.5824  2.3137
  832MOL0     H 9786   1.888   8.246  11.451 -0.0745  0.8928 -0.0512
  832MOL0     H 9787   1.644   8.197  11.472 -0.4309  4.0453  0.8555
  832MOL0     H 9788   1.352   7.853  11.684  0.7596  0.4648 -1.0016
  832MOL0     H 9789   1.131   7.756  11.610 -1.0593 -0.1136 -1.9314
  832MOL0     H 9790   0.909   7.753  11.619  2.3027  0.4483  0.4597
  832MOL0     H 9791   0.911   7.691  11.458  1.3949  2.1544 -2.3510
  832MOL0     H 9792   0.709   7.830  11.394 -0.0657  1.4914  1.4175
  832MOL0     H 9793   0.696   7.892  11.551  0.0276 -0.0497 -0.1859
  832MOL0     H 9794   0.668   7.670  11.652 -0.8158 -0.9539 -0.7469
  832MOL0     H 9795   0.683   7.601  11.491 -0.6266  1.3294 -1.0237
  832MOL0     H 9796   0.482   7.777  11.606  1.5690 -3.6147  3.2914
  832MOL0     H 9797   0.481   7.730  11.427 -0.3256  0.0075  0.6011
  832MOL0     H 9798   0.471   7.537  11.665  0.7309  1.1661  1.4129
  832MOL0     H 9799   0.410   7.506  11.498 -0.6645 -1.1286  1.4832
  832MOL0     H 9800   0.262   7.693  11.695 -3.2149 -0.8002  0.6283
  832MOL0     H 9801   0.204   7.546  11.627 -0.9903  0.8386 -0.7877
  832MOL0     H 9802   0.257   7.793  11.479 -1.0252  0.4818 -1.7111
  832MOL0     H 9803   0.216   7.627  11.396 -3.2878 -0.8150  0.7607
  832MOL0     H 9804   0.018   7.614  11.521  0.2963  0.5007  1.3272
  832MOL0     H 9805   0.024   7.745  11.399  0.0981  1.4325 -0.1087
  832MOL0     H 9806   1.069   8.117  11.384  0.2137 -3.1022 -2.5713
  832MOL0     H 9807   1.279   8.198  11.457 -4.3634  2.4917  1.8129
  832MOL0     H 9808   1.660   8.160  11.889 -0.5028  0.1124  0.0413
  832MOL0     H 9809   1.922   8.182  11.876  0.0872 -1.8346  0.3758
  832MOL0     H 9810   2.467   7.836  10.678 -0.8349  0.9352  0.1655
  832MOL0     H 9811   2.670   7.707  10.693  2.4141 -0.5726 -1.4737
  832MOL0     H 9812   3.169   7.786  10.826  0.6209 -2.1739  0.8580
  832MOL0     H 9813   3.405   7.719  10.812  0.4366 -1.0956  0.1800
  832MOL0     H 9814   3.635   7.593  10.748 -1.9845  1.5151  2.5410
  832MOL0     H 9815   3.617   7.770  10.718  2.1728  0.7517  0.1575
  832MOL0     H 9816   3.803   7.583  10.560  0.4729  0.5594 -0.9107
  832MOL0     H 9817   3.782   7.750  10.528 -0.0998  0.3543  0.6076
  832MOL0     H 9818   3.875   7.652  10.797  2.9511  0.1457 -0.4146
  832MOL0     H 9819   3.868   7.824  10.733 -1.8980  0.1960  1.2352
  832MOL0     H 9820   4.045   7.596  10.663  1.7490  0.3859 -2.0085
  832MOL0     H 9821   4.054   7.738  10.564  3.1662 -3.0289 -0.5812
  832MOL0     H 9822   4.298   7.865  10.862 -0.5387 -1.8198  2.9924
  832MOL0     H 9823   3.350   7.676  10.390  0.8780  3.8964 -0.9262
  832MOL0     H 9824   3.111   7.740  10.419 -2.4192 -1.0323  1.4311
  833MOL0     O 9825   1.257  11.114   2.502 -0.5224  0.0995  0.1629
  833MOL0     C 9826   1.344  11.062   2.429  0.6577 -0.7445  0.6313
  833MOL0     O 9827   1.354  11.066   2.298  0.2212  0.0415  0.0059
  833MOL0     C 9828   1.263  11.140   2.231 -0.3206  0.4824  0.1714
  833MOL0     C 9829   1.189  11.071   2.138  0.8097 -0.2494 -0.2816
  833MOL0     C 9830   1.100  11.143   2.061  0.1584 -0.0063 -0.3950
  833MOL0     C 9831   1.086  11.285   2.072 -0.1835  0.9222  0.4084
  833MOL0     O 9832   1.029  11.365   1.983  0.5988 -0.0713 -0.0412
  833MOL0     C 9833   0.916  11.311   1.916  0.0681  0.1012  0.5196
  833MOL0     C 9834   0.842  11.438   1.851 -0.1378  0.5873  1.0611
  833MOL0     C 9835   0.703  11.400   1.790  0.0302 -0.6662  0.1632
  833MOL0     C 9836   0.654  11.525   1.712  1.1167  0.9624  0.7725
  833MOL0     C 9837   0.497  11.529   1.703 -0.1035  0.5158 -0.2926
  833MOL0     C 9838   0.444  11.603   1.576 -1.3158 -0.2031 -0.0263
  833MOL0     C 9839   0.293  11.595   1.553 -0.4643  0.1083 -0.3414
  833MOL0     C 9840   0.220  11.691   1.651  0.4241  0.4873  0.2276
  833MOL0     N 9841   0.085  11.691   1.593 -1.0745 -0.4456 -0.0073
  833MOL0     C 9842   0.049  11.758   1.479 -0.3453 -0.4350 -0.2766
  833MOL0     C 9843  -0.091  11.779   1.486 -0.2270  0.0861  0.0711
  833MOL0     C 9844  -0.187  11.851   1.396 -0.2852  0.6095  0.3043
  833MOL0     C 9845  -0.237  11.744   1.297 -0.5528 -0.6072 -0.4063
  833MOL0     C 9846  -0.336  11.804   1.200  0.4678  0.6857  0.2090
  833MOL0     C 9847  -0.373  11.706   1.083  0.4547  0.4293  0.0662
  833MOL0     O 9848  -0.429  11.574   1.120 -0.7625 -0.5268  0.3686
  833MOL0     C 9849  -0.542  11.518   1.064  0.0040  0.4757 -0.0945
  833MOL0     C 9850  -0.605  11.569   0.949 -0.4090 -0.3476 -0.2704
  833MOL0     C 9851  -0.709  11.498   0.897 -0.0421  0.6601  0.3855
  833MOL0     C 9852  -0.756  11.371   0.941  0.5672  0.2099  0.2714
  833MOL0     C 9853  -0.869  11.300   0.874  0.4458 -0.2284  0.7697
  833MOL0     O 9854  -0.870  11.167   0.877  0.3334  0.0811 -0.0712
  833MOL0     C 9855  -0.950  11.101   0.796  0.6581 -0.7646  0.3945
  833MOL0     C 9856  -1.055  11.019   0.835  1.1162  0.3506  0.8486
  833MOL0     C 9857  -1.129  10.938   0.744  0.6657 -0.1671 -0.3864
  833MOL0     C 9858  -1.112  10.955   0.603  0.0132 -0.9060 -0.5595
  833MOL0     O 9859  -1.212  10.903   0.521 -0.0015  0.8955  0.1616
  833MOL0     C 9860  -1.223  10.956   0.383  0.7049 -0.7990  0.3851
  833MOL0     C 9861  -1.323  10.870   0.304 -0.4086 -0.1179 -0.2125
  833MOL0     C 9862  -1.371  10.940   0.187 -0.0373  0.5930  0.0083
  833MOL0     C 9863  -1.492  10.879   0.118  0.1145  0.3092  0.9112
  833MOL0     C 9864  -1.554  10.965   0.014  0.0616  0.7406 -0.4172
  833MOL0     C 9865  -1.649  10.872  -0.079 -0.6139 -0.0440  0.0396
  833MOL0     C 9866  -1.714  10.978  -0.174  0.6604 -0.7174 -0.0271
  833MOL0     C 9867  -1.760  10.904  -0.300  0.8827  0.7177  0.2680
  833MOL0    Cl 9868  -1.838  11.012  -0.417 -0.4994 -0.1633  0.5425
  833MOL0     C 9869  -1.002  11.040   0.560 -1.0307 -0.4105 -0.0001
  833MOL0     C 9870  -0.930  11.118   0.656 -1.1033  1.3103 -0.2937
  833MOL0     O 9871  -0.945  11.367   0.811  0.0419 -0.3308 -0.1884
  833MOL0     C 9872  -0.691  11.319   1.047 -0.9460 -0.6885 -0.6366
  833MOL0     C 9873  -0.577  11.391   1.107  0.2545  0.4639  0.0568
  833MOL0     N 9874  -0.131  11.716   1.603  0.3859 -1.1127  0.6991
  833MOL0     N 9875  -0.031  11.659   1.656  0.2407  0.5766  0.3730
  833MOL0     C 9876   1.167  11.351   2.171 -0.4282 -0.4296  0.4160
  833MOL0     C 9877   1.248  11.276   2.245  0.0541 -0.3237 -0.3172
  833MOL0     C 9878   1.445  10.980   2.490  0.2764  1.8664 -0.2766
  833MOL0     C 9879   1.564  10.936   2.416  0.1225  0.4561  0.8905
  833MOL0     C 9880   1.676  10.864   2.473  0.3299  0.6939 -0.0070
  833MOL0     C 9881   1.673  10.830   2.609 -0.1980  0.4875  0.2651
  833MOL0     O 9882   1.780  10.771   2.678  0.0545  0.0030  0.1648
  833MOL0     C 9883   1.919  10.833   2.648  0.0784  0.4955 -0.3484
  833MOL0     C 9884   2.016  10.740   2.569 -0.3152 -0.5177 -0.2503
  833MOL0     C 9885   2.160  10.794   2.590 -0.3671 -0.4610 -1.0427
  833MOL0     C 9886   2.253  10.775   2.478 -0.7034  0.0531  0.1465
  833MOL0     C 9887   2.305  10.638   2.478 -0.6208 -1.0715 -1.0049
  833MOL0     C 9888   2.338  10.524   2.460 -1.5065  0.5283 -0.2011
  833MOL0     C 9889   1.559  10.863   2.682 -0.7873  0.7331 -0.7631
  833MOL0     C 9890   1.451  10.931   2.625 -0.4686  0.2696  0.6920
  833MOL0     H 9891   1.205  10.964   2.140  1.7131 -0.1249  1.8875
  833MOL0     H 9892   1.041  11.096   1.984 -1.0025 -0.2336  0.5945
  833MOL0     H 9893   0.847  11.263   1.986  0.2047  1.2852  1.5152
  833MOL0     H 9894   0.956  11.239   1.845  0.4147 -0.5711  1.3908
  833MOL0     H 9895   0.909  11.470   1.771  0.7304  1.2063  2.0076
  833MOL0     H 9896   0.825  11.521   1.920 -0.3241  2.5019 -1.1660
  833MOL0     H 9897   0.643  11.376   1.878 -1.2739 -3.1666 -1.2776
  833MOL0     H 9898   0.689  11.313   1.724 -0.1814 -0.1012 -0.5496
  833MOL0     H 9899   0.688  11.615   1.765  2.5854  1.4132 -0.8376
  833MOL0     H 9900   0.689  11.526   1.609  0.1215 -0.4113  0.4022
  833MOL0     H 9901   0.464  11.574   1.797  1.4403 -2.9425  2.1201
  833MOL0     H 9902   0.474  11.422   1.701  4.4510 -0.6813 -0.4404
  833MOL0     H 9903   0.497  11.565   1.489  1.0076 -1.9133  2.0151
  833MOL0     H 9904   0.473  11.708   1.574 -1.4887  0.0456  3.4149
  833MOL0     H 9905   0.274  11.643   1.456  0.9756  3.0759  0.7200
  833MOL0     H 9906   0.260  11.491   1.552  4.7343 -1.8988 -2.8193
  833MOL0     H 9907   0.264  11.791   1.649 -0.7622  1.0207 -0.7706
  833MOL0     H 9908   0.226  11.644   1.750 -0.9807  1.2627  0.7079
  833MOL0     H 9909   0.118  11.799   1.406 -0.8786 -0.0830 -0.5865
  833MOL0     H 9910  -0.131  11.929   1.342  0.0247  0.4924  0.4536
  833MOL0     H 9911  -0.273  11.893   1.449 -0.0183  4.4901 -1.9217
  833MOL0     H 9912  -0.282  11.659   1.349  1.4813 -2.7007 -1.8945
  833MOL0     H 9913  -0.147  11.706   1.248  1.4655  0.6549  2.0745
  833MOL0     H 9914  -0.433  11.815   1.249  0.8932  2.1595  0.7700
  833MOL0     H 9915  -0.311  11.905   1.165 -0.6076  1.7013  2.1649
  833MOL0     H 9916  -0.276  11.706   1.033  0.5025  4.6970 -0.2046
  833MOL0     H 9917  -0.449  11.765   1.031 -2.3991 -0.4521  2.9502
  833MOL0     H 9918  -0.583  11.667   0.906 -3.5971  0.7395  0.3152
  833MOL0     H 9919  -0.766  11.550   0.821 -1.6667  3.2822  3.1656
  833MOL0     H 9920  -1.078  11.000   0.940 -0.4016  0.9098  0.6447
  833MOL0     H 9921  -1.197  10.868   0.792  1.1230  0.4305  1.1894
  833MOL0     H 9922  -1.126  10.945   0.335 -0.6471  0.4169 -2.9343
  833MOL0     H 9923  -1.268  11.056   0.386  0.8082 -0.7479  0.2153
  833MOL0     H 9924  -1.407  10.844   0.369 -2.5196 -0.8164 -3.0413
  833MOL0     H 9925  -1.262  10.787   0.266  4.1777  3.2502 -0.9854
  833MOL0     H 9926  -1.292  10.951   0.112 -1.3110 -1.8617 -1.8605
  833MOL0     H 9927  -1.415  11.039   0.203 -1.5259 -0.3155  2.0456
  833MOL0     H 9928  -1.461  10.783   0.075 -0.2652  0.4206  0.3843
  833MOL0     H 9929  -1.564  10.865   0.199 -1.4622  1.1796 -0.3125
  833MOL0     H 9930  -1.473  10.992  -0.055  0.2324 -0.9411 -0.9251
  833MOL0     H 9931  -1.601  11.055   0.054  0.9262  0.8887  0.3229
  833MOL0     H 9932  -1.717  10.813  -0.017 -1.4963 -1.3254 -2.0420
  833MOL0     H 9933  -1.580  10.807  -0.133  0.0077 -0.2653  1.0703
  833MOL0     H 9934  -1.804  11.015  -0.123  1.7122 -0.1285  1.4750
  833MOL0     H 9935  -1.641  11.057  -0.198 -0.4987 -0.2522 -2.3357
  833MOL0     H 9936  -1.843  10.838  -0.272 -1.5151  2.7847 -1.5060
  833MOL0     H 9937  -1.673  10.861  -0.349  2.4020  0.8665  2.6757
  833MOL0     H 9938  -0.988  11.057   0.454 -1.8956  2.5847  0.2559
  833MOL0     H 9939  -0.866  11.196   0.617 -1.6931  2.0826  0.2401
  833MOL0     H 9940  -0.714  11.221   1.088 -0.7713  0.4223  2.3278
  833MOL0     H 9941  -0.524  11.336   1.184 -0.9586 -4.7613 -2.4170
  833MOL0     H 9942   1.168  11.459   2.178 -0.5585 -0.4856  1.3660
  833MOL0     H 9943   1.310  11.339   2.309 -3.1393  0.9157  1.8131
  833MOL0     H 9944   1.574  10.955   2.310  2.3084  1.6741  1.2593
  833MOL0     H 9945   1.752  10.815   2.414  0.1589 -1.1656  1.2100
  833MOL0     H 9946   1.971  10.863   2.740  0.1759 -1.7801  0.4078
  833MOL0     H 9947   1.904  10.917   2.581 -0.0800  1.5100  0.9220
  833MOL0     H 9948   2.029  10.637   2.604  2.3554 -2.3091 -5.5252
  833MOL0     H 9949   1.981  10.748   2.466 -0.5232  2.3779 -0.0388
  833MOL0     H 9950   2.194  10.737   2.678 -1.1684 -2.1214 -1.7566
  833MOL0     H 9951   2.156  10.898   2.622  1.4744  0.0947 -2.4397
  833MOL0     H 9952   2.194  10.796   2.388 -2.8864 -2.6001  0.8200
  833MOL0     H 9953   2.340  10.841   2.487 -0.4907 -0.2755  0.5804
  833MOL0     H 9954   2.385  10.431   2.435 -2.3878  0.4940 -1.8897
  833MOL0     H 9955   1.574  10.828   2.784 -0.9121 -0.8251 -1.2611
  833MOL0     H 9956   1.363  10.961   2.681 -1.0183 -3.3069  1.9484
  834MOL0     O 9957   7.671   9.522   3.801  0.2243  0.6042  0.9975
  834MOL0     C 9958   7.734   9.447   3.728 -0.9282  0.1927 -0.0802
  834MOL0     O 9959   7.679   9.365   3.631  0.2758 -0.5191 -0.1091
  834MOL0     C 9960   7.540   9.366   3.625  0.1548  0.7899 -0.5046
  834MOL0     C 9961   7.461   9.249   3.651  0.3218 -0.0773 -0.0917
  834MOL0     C 9962   7.321   9.243   3.637 -0.3579  0.2356  0.3439
  834MOL0     C 9963   7.251   9.364   3.601  0.0520  0.8550  0.3933
  834MOL0     O 9964   7.115   9.380   3.600 -0.1968 -0.1480  0.8366
  834MOL0     C 9965   7.040   9.304   3.686 -0.3353 -0.3677  1.1522
  834MOL0     C 9966   6.903   9.286   3.624  0.5058 -1.0858 -0.1815
  834MOL0     C 9967   6.822   9.209   3.730  0.0819 -0.5925  0.3765
  834MOL0     C 9968   6.668   9.255   3.724  0.3430 -0.2021 -0.6433
  834MOL0     C 9969   6.579   9.158   3.811  1.0591  0.6151 -0.9961
  834MOL0     C 9970   6.553   9.191   3.960  0.4803  0.9945  1.1461
  834MOL0     C 9971   6.479   9.319   3.983 -0.1120 -0.5778  0.2540
  834MOL0     C 9972   6.448   9.365   4.120  0.0166 -0.8421 -0.2878
  834MOL0     N 9973   6.570   9.421   4.186 -0.6877  0.3836  0.0360
  834MOL0     C 9974   6.684   9.469   4.127  0.1511  0.2546  0.2717
  834MOL0     C 9975   6.762   9.515   4.231 -0.7374 -0.9257  0.3226
  834MOL0     C 9976   6.892   9.592   4.203 -0.8341  0.5244 -0.5827
  834MOL0     C 9977   6.989   9.581   4.324  0.6128 -0.0829  0.2632
  834MOL0     C 9978   7.098   9.681   4.301 -0.4109 -0.3821 -1.0995
  834MOL0     C 9979   7.221   9.640   4.377 -0.0688 -0.4206 -0.1929
  834MOL0     O 9980   7.282   9.527   4.316 -0.6216  0.5624 -0.9509
  834MOL0     C 9981   7.404   9.500   4.379  0.3143 -0.1027 -0.3180
  834MOL0     C 9982   7.428   9.381   4.447 -0.0814 -0.3507  0.7646
  834MOL0     C 9983   7.563   9.346   4.491  0.4670 -0.2269  0.1197
  834MOL0     C 9984   7.670   9.430   4.482  0.4830 -0.4931 -0.0310
  834MOL0     C 9985   7.803   9.399   4.533  0.0399  0.2973 -0.2673
  834MOL0     O 9986   7.842   9.266   4.546 -0.6575 -0.7770  0.6315
  834MOL0     C 9987   7.982   9.237   4.554  0.3578  0.3385  0.1943
  834MOL0     C 9988   8.075   9.293   4.469  0.0667  0.0352 -0.2254
  834MOL0     C 9989   8.209   9.266   4.461 -0.4757 -0.2518 -0.1669
  834MOL0     C 9990   8.251   9.165   4.558  0.0740 -0.5202  1.2773
  834MOL0     O 9991   8.385   9.136   4.552 -0.3232 -0.2918  0.4284
  834MOL0     C 9992   8.430   9.042   4.658 -0.6624  0.1274  0.3681
  834MOL0     C 9993   8.581   9.023   4.661  0.1818 -0.0341  0.1852
  834MOL0     C 9994   8.615   8.970   4.796 -0.5940  0.1033  0.4290
  834MOL0     C 9995   8.776   8.974   4.799 -0.7134  0.3875 -0.0154
  834MOL0     C 9996   8.849   8.842   4.824 -0.7933 -0.3079 -0.3132
  834MOL0     C 9997   8.881   8.773   4.690 -0.2597 -0.9586  0.3517
  834MOL0     C 9998   8.982   8.649   4.695  0.2251 -1.4470 -0.4161
  834MOL0     C 9999   9.007   8.590   4.554  0.8085 -0.1830  0.5294
  834MOL0    Cl10000   8.852   8.553   4.469 -0.3038  0.0355 -0.1955
  834MOL0     C10001   8.161   9.122   4.660  0.6565 -0.5510 -0.6388
  834MOL0     C10002   8.031   9.162   4.655  0.3303 -0.2773 -0.0292
  834MOL0     O10003   7.880   9.493   4.556 -0.3965 -0.0215  0.6394
  834MOL0     C10004   7.640   9.550   4.411 -0.9561  0.7631 -0.2022
  834MOL0     C10005   7.514   9.583   4.360 -0.1672 -0.5898  0.1113
  834MOL0     N10006   6.696   9.500   4.349  0.3085  0.0330  0.4737
  834MOL0     N10007   6.580   9.442   4.322 -1.0635 -0.4513 -0.0245
  834MOL0     C10008   7.328   9.471   3.563  0.1510 -0.3652  0.0377
  834MOL0     C10009   7.466   9.477   3.575 -0.5702 -0.0618 -0.4497
  834MOL0     C10010   7.875   9.474   3.714 -0.5554  0.9058  0.1373
  834MOL0     C10011   7.938   9.555   3.814 -0.2147 -0.4028  0.8486
  834MOL0     C10012   8.073   9.590   3.792 -0.4854  0.0090 -1.0375
  834MOL0     C10013   8.148   9.543   3.692  0.4450  1.1290  1.0100
  834MOL0     O10014   8.276   9.595   3.678 -0.5217  0.2437 -0.2472
  834MOL0     C10015   8.373   9.517   3.607  0.3733  0.5028 -0.4140
  834MOL0     C10016   8.519   9.582   3.617  0.1196  0.8390 -0.5896
  834MOL0     C10017   8.570   9.579   3.760 -0.2558  0.2401 -0.3484
  834MOL0     C10018   8.710   9.644   3.763 -0.8757 -0.0629  0.0154
  834MOL0     C10019   8.794   9.598   3.872 -0.0786 -0.8632  0.2100
  834MOL0     C10020   8.874   9.558   3.955  0.6117  0.5871 -0.3998
  834MOL0     C10021   8.086   9.442   3.611 -0.8965 -0.0615  0.2736
  834MOL0     C10022   7.956   9.407   3.619 -0.2469 -0.5271  0.8147
  834MOL0     H10023   7.526   9.166   3.677  1.1037 -0.0036 -1.7293
  834MOL0     H10024   7.272   9.146   3.648  1.8800 -1.1153 -0.8184
  834MOL0     H10025   7.048   9.348   3.786 -0.2340  4.8679 -0.8564
  834MOL0     H10026   7.084   9.204   3.680 -0.9389 -0.5698 -3.5565
  834MOL0     H10027   6.913   9.252   3.520  0.2879 -0.9059 -0.2606
  834MOL0     H10028   6.864   9.388   3.617  2.1361 -0.3755  0.3862
  834MOL0     H10029   6.856   9.228   3.832  1.5598 -0.4818 -0.1138
  834MOL0     H10030   6.836   9.106   3.697 -1.6757 -0.9545  0.6611
  834MOL0     H10031   6.651   9.351   3.771 -0.6837 -1.4922  1.7826
  834MOL0     H10032   6.639   9.233   3.620  2.1319 -4.9272 -0.4123
  834MOL0     H10033   6.613   9.055   3.797  0.8916  0.1077  1.7833
  834MOL0     H10034   6.479   9.153   3.767  0.3884  0.8284  0.4264
  834MOL0     H10035   6.644   9.175   4.018  1.5770 -0.0610 -0.7821
  834MOL0     H10036   6.485   9.115   4.000 -0.5512 -0.5343 -2.9545
  834MOL0     H10037   6.504   9.406   3.922 -1.3683 -0.9986 -0.9076
  834MOL0     H10038   6.382   9.302   3.936  0.6912  1.0390 -2.1851
  834MOL0     H10039   6.416   9.287   4.188  0.4414  0.1966  1.1467
  834MOL0     H10040   6.376   9.447   4.109  0.3697 -0.3945  0.6672
  834MOL0     H10041   6.693   9.477   4.019 -2.8472  1.0815  0.0036
  834MOL0     H10042   6.857   9.694   4.186  1.7984  3.0634  6.0317
  834MOL0     H10043   6.937   9.557   4.110 -2.4417 -1.4047 -0.7297
  834MOL0     H10044   7.020   9.476   4.317  1.0958  0.1216 -0.9576
  834MOL0     H10045   6.941   9.600   4.420 -2.4394  3.2176 -1.6421
  834MOL0     H10046   7.131   9.695   4.198  2.5091  0.4488 -0.1622
  834MOL0     H10047   7.073   9.777   4.347  0.3301  0.0271 -1.5347
  834MOL0     H10048   7.209   9.626   4.485  2.7802  0.6580  0.3534
  834MOL0     H10049   7.278   9.732   4.365  0.2704 -0.7668 -1.3594
  834MOL0     H10050   7.339   9.319   4.454 -1.5485  1.8253  2.6615
  834MOL0     H10051   7.567   9.265   4.563  0.8661  0.3816  0.7956
  834MOL0     H10052   8.034   9.373   4.408  2.3878  0.6888 -1.0313
  834MOL0     H10053   8.286   9.321   4.408  0.1764  0.2040  1.1967
  834MOL0     H10054   8.381   8.947   4.637  1.2033 -0.6501 -0.7518
  834MOL0     H10055   8.397   9.085   4.753  0.2174  3.2537 -0.6024
  834MOL0     H10056   8.620   9.123   4.640 -0.3122  0.2451  0.5727
  834MOL0     H10057   8.614   8.957   4.580 -2.1673  1.2220 -1.9189
  834MOL0     H10058   8.579   8.867   4.799 -3.7428  1.1114  2.5572
  834MOL0     H10059   8.567   9.024   4.878 -0.3950  1.6957 -0.4718
  834MOL0     H10060   8.821   9.020   4.710  1.8439 -1.3861  0.2378
  834MOL0     H10061   8.806   9.046   4.875 -1.8619 -0.0070  0.8450
  834MOL0     H10062   8.789   8.773   4.884 -1.6145 -1.0799 -1.9250
  834MOL0     H10063   8.937   8.857   4.886 -1.6130  0.8632  0.6119
  834MOL0     H10064   8.922   8.848   4.621 -1.0527  0.9303  1.8539
  834MOL0     H10065   8.788   8.735   4.646  1.3206 -1.7676 -2.5424
  834MOL0     H10066   9.068   8.675   4.757 -1.0888 -0.6287  1.1341
  834MOL0     H10067   8.926   8.574   4.752 -0.9087 -0.0604  0.3782
  834MOL0     H10068   9.073   8.503   4.554  1.1443  0.0279  2.1025
  834MOL0     H10069   9.043   8.668   4.487 -5.6824  2.0919 -1.0213
  834MOL0     H10070   8.188   9.064   4.748  0.1035  2.1090  1.4359
  834MOL0     H10071   7.959   9.138   4.733 -1.3411  1.1778 -1.0384
  834MOL0     H10072   7.720   9.621   4.392  1.1092 -0.8310  1.8762
  834MOL0     H10073   7.497   9.671   4.299 -0.5911 -0.0771  0.9495
  834MOL0     H10074   7.276   9.560   3.531 -1.0570 -1.2570 -0.5622
  834MOL0     H10075   7.536   9.559   3.561  0.8715 -1.3050 -0.8170
  834MOL0     H10076   7.894   9.602   3.901 -0.0557  0.3761  0.5101
  834MOL0     H10077   8.125   9.643   3.871  3.8564 -0.1995 -3.4727
  834MOL0     H10078   8.347   9.519   3.501 -2.5462  0.1546  0.2060
  834MOL0     H10079   8.372   9.416   3.648  0.9950  1.4619  2.2221
  834MOL0     H10080   8.590   9.531   3.551  2.0923  1.1849  1.1578
  834MOL0     H10081   8.519   9.682   3.574 -0.0193  1.3660  0.6134
  834MOL0     H10082   8.590   9.474   3.784  0.0586  0.5224  0.7213
  834MOL0     H10083   8.497   9.622   3.829 -0.9982 -0.4202 -0.7094
  834MOL0     H10084   8.767   9.607   3.677  3.1087  0.5334  2.1737
  834MOL0     H10085   8.703   9.753   3.754  1.7498  0.0734 -1.3834
  834MOL0     H10086   8.946   9.517   4.023 -0.6006 -0.7566  0.1206
  834MOL0     H10087   8.150   9.397   3.535  0.0618  0.3378  0.8238
  834MOL0     H10088   7.917   9.339   3.545 -2.9837  0.4207  1.2462
  835MOL0     O10089   6.990   2.708   3.963  0.9195 -0.2972  0.3428
  835MOL0     C10090   7.055   2.788   3.902 -0.4088 -0.0257  0.2434
  835MOL0     O10091   7.188   2.820   3.938 -0.6445 -0.0003 -0.5412
  835MOL0     C10092   7.242   2.735   4.029  0.3321  0.5419  0.6810
  835MOL0     C10093   7.201   2.758   4.157 -0.7065  0.7864  0.5164
  835MOL0     C10094   7.262   2.693   4.266  0.2584 -0.0878 -0.4428
  835MOL0     C10095   7.345   2.584   4.237 -0.8968  0.3365 -1.0754
  835MOL0     O10096   7.392   2.505   4.337 -0.4254  0.1806 -0.3492
  835MOL0     C10097   7.320   2.506   4.465  0.2614 -0.3083 -0.2305
  835MOL0     C10098   7.330   2.386   4.562 -0.3899 -0.4237  0.4156
  835MOL0     C10099   7.464   2.369   4.637  0.7219  0.7487  0.8403
  835MOL0     C10100   7.467   2.226   4.708 -0.5009 -0.4298 -0.4108
  835MOL0     C10101   7.407   2.239   4.846 -0.3246  1.1336  0.7439
  835MOL0     C10102   7.487   2.144   4.931 -0.3266 -0.2230 -0.6686
  835MOL0     C10103   7.400   2.059   5.020  0.5120  0.1909 -0.5350
  835MOL0     C10104   7.344   2.144   5.135 -0.2416  0.5105 -0.3997
  835MOL0     N10105   7.264   2.065   5.224 -0.0591 -0.3086  0.6635
  835MOL0     C10106   7.309   2.014   5.342 -0.2029 -0.3014  0.7278
  835MOL0     C10107   7.228   1.923   5.387  0.8481  0.5887  0.2281
  835MOL0     C10108   7.249   1.818   5.500 -0.1559 -0.1893 -0.2289
  835MOL0     C10109   7.377   1.730   5.487 -0.2903 -0.1967 -0.3318
  835MOL0     C10110   7.369   1.609   5.396 -0.2133  1.4213  0.8802
  835MOL0     C10111   7.495   1.517   5.379 -0.5331 -0.9423  1.0456
  835MOL0     O10112   7.624   1.596   5.365  0.8285 -0.6802  0.2934
  835MOL0     C10113   7.643   1.669   5.257  0.8342  0.2880 -0.2165
  835MOL0     C10114   7.722   1.785   5.269 -0.7437 -0.1902  0.8349
  835MOL0     C10115   7.756   1.858   5.159 -0.0451  0.0097 -0.5511
  835MOL0     C10116   7.705   1.825   5.033 -0.6707  0.3564 -0.3277
  835MOL0     C10117   7.756   1.899   4.916 -0.3707 -0.1140 -0.3302
  835MOL0     O10118   7.862   1.983   4.941 -0.3607 -0.0572 -0.1605
  835MOL0     C10119   7.906   2.065   4.835  0.6763  0.1547 -0.4794
  835MOL0     C10120   7.884   2.203   4.836 -0.0982 -0.2747 -0.4563
  835MOL0     C10121   7.926   2.277   4.730 -0.0606  0.6522 -0.0322
  835MOL0     C10122   7.993   2.223   4.623 -0.0227  0.2296  0.1837
  835MOL0     O10123   8.032   2.312   4.526 -0.3100 -0.1271 -0.6247
  835MOL0     C10124   8.023   2.268   4.393 -0.0509 -0.8724  0.7491
  835MOL0     C10125   7.999   2.392   4.306  0.0488 -0.0432  0.1138
  835MOL0     C10126   7.848   2.419   4.303 -0.7291  0.3829  0.8613
  835MOL0     C10127   7.807   2.516   4.189  0.3558 -0.8632  0.1774
  835MOL0     C10128   7.781   2.452   4.054 -0.1669  0.0079 -0.0945
  835MOL0     C10129   7.714   2.555   3.964 -0.7418  0.1308 -0.3341
  835MOL0     C10130   7.624   2.486   3.849 -0.5788  0.1618  0.9567
  835MOL0     C10131   7.719   2.406   3.757 -1.0101 -0.3143  0.4825
  835MOL0    Cl10132   7.845   2.514   3.690 -0.0034 -0.0866 -0.0534
  835MOL0     C10133   8.023   2.086   4.620  0.1269 -0.0722 -1.2208
  835MOL0     C10134   7.982   2.012   4.730  0.1669  0.1287 -0.3224
  835MOL0     O10135   7.703   1.883   4.805 -0.3184  0.7050 -0.4986
  835MOL0     C10136   7.627   1.711   5.025 -0.0459 -0.5014  0.6392
  835MOL0     C10137   7.581   1.648   5.133  1.0345  0.2505 -0.6523
  835MOL0     N10138   7.128   1.919   5.292  0.6634 -0.1165 -1.1535
  835MOL0     N10139   7.147   2.010   5.206 -0.4687 -0.1098  0.3331
  835MOL0     C10140   7.388   2.560   4.105  0.3914 -0.3241  0.5096
  835MOL0     C10141   7.346   2.640   3.996  0.1351  0.3612  0.0619
  835MOL0     C10142   6.999   2.847   3.778  0.5580  0.3751 -0.2801
  835MOL0     C10143   6.876   2.795   3.725 -0.2134 -0.6981 -0.2451
  835MOL0     C10144   6.829   2.834   3.601 -0.5326  0.2368  0.6567
  835MOL0     C10145   6.901   2.931   3.532 -0.6800 -0.4589 -0.5310
  835MOL0     O10146   6.866   2.988   3.411  0.4628 -0.1192 -0.0619
  835MOL0     C10147   6.792   2.901   3.324 -0.2324 -0.3663 -0.1593
  835MOL0     C10148   6.880   2.785   3.253 -0.3097  0.2867  0.2541
  835MOL0     C10149   7.019   2.844   3.187  0.5796 -0.2243  0.2914
  835MOL0     C10150   7.117   2.731   3.125 -0.3048  0.5024 -0.4374
  835MOL0     C10151   7.120   2.614   3.214 -0.5557  0.5062  1.2724
  835MOL0     C10152   7.119   2.521   3.284  0.0048  0.0833 -0.3375
  835MOL0     C10153   7.017   2.987   3.592 -0.0871  0.6139 -0.4335
  835MOL0     C10154   7.064   2.950   3.716 -0.3259 -0.5838  0.7080
  835MOL0     H10155   7.132   2.840   4.174 -1.8904 -0.1694  0.3916
  835MOL0     H10156   7.229   2.733   4.361  1.4717  1.7919 -0.7641
  835MOL0     H10157   7.214   2.526   4.447  0.0880 -0.8318  0.1808
  835MOL0     H10158   7.366   2.580   4.531  2.3951 -2.3113  0.6590
  835MOL0     H10159   7.318   2.289   4.511 -0.6079 -1.7881  2.9194
  835MOL0     H10160   7.252   2.393   4.638 -1.2265 -2.5152 -0.1553
  835MOL0     H10161   7.465   2.454   4.706 -3.7202  2.1100 -0.4699
  835MOL0     H10162   7.542   2.374   4.560 -1.2511 -2.8926 -1.7516
  835MOL0     H10163   7.414   2.151   4.649  0.9471  0.9093 -3.7348
  835MOL0     H10164   7.573   2.198   4.717 -0.1243  1.1185  0.2778
  835MOL0     H10165   7.303   2.206   4.836  0.2984 -0.4573 -1.2627
  835MOL0     H10166   7.401   2.341   4.883  1.1301  0.7798  2.0825
  835MOL0     H10167   7.559   2.207   4.984 -1.2553 -0.5322  1.0112
  835MOL0     H10168   7.545   2.070   4.875  0.6054 -1.4329  1.7812
  835MOL0     H10169   7.314   2.018   4.965  1.4081 -0.7958 -1.2408
  835MOL0     H10170   7.454   1.974   5.062  2.3263  0.4295 -2.2363
  835MOL0     H10171   7.274   2.218   5.097  0.5502  2.8494  2.3037
  835MOL0     H10172   7.428   2.192   5.187  0.3548 -0.2643 -0.6211
  835MOL0     H10173   7.411   2.037   5.374  0.5544 -0.7253 -1.2069
  835MOL0     H10174   7.160   1.755   5.511  0.1003 -1.0105 -2.3971
  835MOL0     H10175   7.264   1.863   5.598  0.9233 -0.0705 -0.4303
  835MOL0     H10176   7.404   1.684   5.583  2.5863  3.1905  0.7242
  835MOL0     H10177   7.453   1.800   5.452 -1.6147  1.0768 -0.8079
  835MOL0     H10178   7.275   1.563   5.426 -0.1140  2.2976  2.6843
  835MOL0     H10179   7.339   1.641   5.296  0.3243  3.8925  1.4210
  835MOL0     H10180   7.481   1.454   5.291  0.3721  1.5859 -1.0552
  835MOL0     H10181   7.507   1.465   5.475 -0.9030  0.4281  1.8510
  835MOL0     H10182   7.773   1.814   5.361 -0.2815  1.0046  0.2242
  835MOL0     H10183   7.825   1.938   5.184 -0.3719  1.1918 -3.1551
  835MOL0     H10184   7.829   2.241   4.922  1.1446 -1.4810  0.9275
  835MOL0     H10185   7.897   2.381   4.727 -0.2772  0.6409  1.2259
  835MOL0     H10186   7.950   2.190   4.371 -1.0345  0.2638 -0.2174
  835MOL0     H10187   8.123   2.239   4.360  0.0624  1.9977 -1.8639
  835MOL0     H10188   8.055   2.367   4.216  0.9618 -0.9143  0.8916
  835MOL0     H10189   8.058   2.476   4.342 -0.9725  1.2335 -1.0958
  835MOL0     H10190   7.806   2.464   4.394 -1.3784  2.2273 -0.3084
  835MOL0     H10191   7.798   2.325   4.279 -3.9903  1.6924  1.9300
  835MOL0     H10192   7.711   2.561   4.216  1.8801  2.3964  0.5666
  835MOL0     H10193   7.867   2.607   4.190  1.8690 -1.6643  4.6906
  835MOL0     H10194   7.722   2.363   4.077  2.0527 -1.2706  0.9830
  835MOL0     H10195   7.869   2.407   4.009  0.1171  0.0366  0.4238
  835MOL0     H10196   7.786   2.631   3.931  2.5899 -2.2776  0.8803
  835MOL0     H10197   7.639   2.615   4.016 -1.0220 -0.3559 -0.1714
  835MOL0     H10198   7.540   2.430   3.891 -0.1353 -0.0668  1.5575
  835MOL0     H10199   7.580   2.560   3.782 -1.5461  0.3913  1.8304
  835MOL0     H10200   7.680   2.366   3.663  3.2165  2.0157 -2.6009
  835MOL0     H10201   7.757   2.319   3.812 -1.6606 -1.0091 -0.1418
  835MOL0     H10202   8.091   2.043   4.548  0.6343 -1.8705  0.2553
  835MOL0     H10203   7.997   1.905   4.741 -2.3676 -0.3581 -1.0018
  835MOL0     H10204   7.587   1.671   4.932 -1.4127  0.4445  0.7722
  835MOL0     H10205   7.519   1.560   5.123 -0.8459  1.4588 -0.1554
  835MOL0     H10206   7.462   2.482   4.091 -0.7682 -1.4409  0.4673
  835MOL0     H10207   7.393   2.627   3.900  0.4504  2.8522 -0.2086
  835MOL0     H10208   6.848   2.702   3.772  0.4104  0.0191  1.6078
  835MOL0     H10209   6.755   2.783   3.540 -0.2850  1.2705 -0.5447
  835MOL0     H10210   6.758   2.968   3.245  0.6923  1.9359  1.2871
  835MOL0     H10211   6.698   2.865   3.367  0.1187 -1.2614 -0.1272
  835MOL0     H10212   6.893   2.709   3.330 -3.0718 -1.0923 -0.5380
  835MOL0     H10213   6.816   2.732   3.182 -1.9503  1.4063  0.8283
  835MOL0     H10214   7.088   2.899   3.251  2.4113  0.1176 -1.8943
  835MOL0     H10215   6.984   2.921   3.118  2.7148  0.8570  0.3343
  835MOL0     H10216   7.088   2.686   3.029  1.0675  0.4167 -0.8304
  835MOL0     H10217   7.211   2.784   3.108  0.3816 -0.5013  0.1363
  835MOL0     H10218   7.124   2.432   3.343  0.4308 -0.3305 -0.9807
  835MOL0     H10219   7.056   3.073   3.539 -0.1555  0.4946 -0.6747
  835MOL0     H10220   7.152   2.995   3.760  0.4684 -2.2524  0.9164
  836MOL0     O10221   4.948   4.578   1.205  0.7879 -0.1408  0.0939
  836MOL0     C10222   4.898   4.507   1.112 -0.5881  0.7168 -0.0489
  836MOL0     O10223   4.783   4.533   1.045 -0.0398  0.7335  0.7127
  836MOL0     C10224   4.715   4.645   1.074  0.3229  0.2077  0.1780
  836MOL0     C10225   4.737   4.761   1.009 -0.4381  0.2083  0.3622
  836MOL0     C10226   4.653   4.870   1.036  0.3785 -0.6022 -0.0064
  836MOL0     C10227   4.551   4.866   1.133  0.4849 -0.4655  0.7514
  836MOL0     O10228   4.457   4.969   1.155  0.0697 -0.7226  0.1265
  836MOL0     C10229   4.508   5.096   1.209 -0.0718  0.0329  0.9030
  836MOL0     C10230   4.396   5.155   1.282  0.7134 -0.2845  0.0978
  836MOL0     C10231   4.439   5.295   1.311  0.4112  0.4019 -0.2172
  836MOL0     C10232   4.328   5.349   1.394 -0.1248  0.1381  0.4664
  836MOL0     C10233   4.340   5.499   1.420  0.4742  0.1153  0.0475
  836MOL0     C10234   4.228   5.557   1.518 -1.0321 -0.4364  0.3655
  836MOL0     C10235   4.100   5.577   1.435 -0.1473  0.3372 -0.2680
  836MOL0     C10236   4.054   5.718   1.376 -0.4260  0.0034 -0.3670
  836MOL0     N10237   3.937   5.695   1.284  0.0654  1.1587 -0.9597
  836MOL0     C10238   3.913   5.590   1.198 -0.9607  0.6501  0.4315
  836MOL0     C10239   3.792   5.605   1.145  0.5393 -0.5124  0.7277
  836MOL0     C10240   3.730   5.519   1.035 -0.1943  0.0852  0.2887
  836MOL0     C10241   3.658   5.403   1.105  0.2718  0.1734  0.7280
  836MOL0     C10242   3.666   5.275   1.019 -0.1555 -0.3084  0.1068
  836MOL0     C10243   3.584   5.159   1.079  0.5374  0.6321 -0.5479
  836MOL0     O10244   3.597   5.036   1.000 -0.2286 -0.0692  0.2324
  836MOL0     C10245   3.515   5.027   0.893 -0.5095  0.6159  0.4177
  836MOL0     C10246   3.546   4.913   0.822 -0.7406 -0.6662 -0.4903
  836MOL0     C10247   3.479   4.892   0.701 -0.4690  0.0470  0.3526
  836MOL0     C10248   3.377   4.979   0.653  0.0048  0.3947 -0.7199
  836MOL0     C10249   3.296   4.942   0.535  0.7069  0.6476  0.1304
  836MOL0     O10250   3.163   4.950   0.530 -0.1152  0.0806 -0.4661
  836MOL0     C10251   3.090   4.913   0.422  0.7170  1.1539 -0.3275
  836MOL0     C10252   2.973   4.826   0.433 -0.0016 -0.8081 -0.4731
  836MOL0     C10253   2.920   4.780   0.313  0.9517  0.1382 -0.0277
  836MOL0     C10254   2.961   4.824   0.187  0.2650  0.8945  0.5181
  836MOL0     O10255   2.888   4.796   0.074 -0.3189 -0.5695 -0.5749
  836MOL0     C10256   2.955   4.758  -0.047  0.0174  0.0326 -0.0228
  836MOL0     C10257   2.875   4.636  -0.114 -0.0506  0.1876 -0.5625
  836MOL0     C10258   2.803   4.688  -0.232 -0.4534 -0.4080 -0.0434
  836MOL0     C10259   2.746   4.590  -0.342 -0.4744 -1.1210 -0.8734
  836MOL0     C10260   2.703   4.668  -0.471 -0.2601  0.0132 -0.3357
  836MOL0     C10261   2.649   4.570  -0.578  0.2022 -0.4760  0.5687
  836MOL0     C10262   2.623   4.647  -0.719 -0.4796  0.0619  0.9860
  836MOL0     C10263   2.531   4.555  -0.798 -0.3910 -0.1174 -0.7614
  836MOL0    Cl10264   2.650   4.466  -0.905  0.1935  0.0421 -0.0825
  836MOL0     C10265   3.073   4.911   0.179  0.1791  0.1981 -0.1800
  836MOL0     C10266   3.142   4.955   0.294 -0.7835  0.7065 -0.7095
  836MOL0     O10267   3.363   4.886   0.452  0.0399 -0.8134 -0.6021
  836MOL0     C10268   3.339   5.089   0.732 -0.7212 -0.2847 -0.2971
  836MOL0     C10269   3.417   5.113   0.845 -0.1906  0.5899 -0.6308
  836MOL0     N10270   3.752   5.731   1.172 -0.0476  0.0101  0.4046
  836MOL0     N10271   3.833   5.778   1.263  0.9485  0.0137  0.0182
  836MOL0     C10272   4.533   4.752   1.201 -0.0930  0.5651 -0.4873
  836MOL0     C10273   4.621   4.642   1.178  0.7669 -1.1056  0.1148
  836MOL0     C10274   4.978   4.379   1.073 -0.1744 -0.3385  0.1013
  836MOL0     C10275   5.084   4.347   1.155 -0.5348 -0.2804 -0.1563
  836MOL0     C10276   5.149   4.223   1.135 -0.4785 -0.7841 -0.0003
  836MOL0     C10277   5.116   4.136   1.031  1.1070  0.3782  0.3836
  836MOL0     O10278   5.182   4.017   1.021 -0.4249 -0.3031 -0.7439
  836MOL0     C10279   5.281   4.010   0.917 -0.3377 -0.2317 -0.3235
  836MOL0     C10280   5.343   3.875   0.900  0.6400 -0.2025  0.5293
  836MOL0     C10281   5.436   3.860   0.774  0.7023  0.2744 -0.2608
  836MOL0     C10282   5.590   3.871   0.809 -0.4950 -0.0482 -1.0686
  836MOL0     C10283   5.650   3.775   0.909  0.2741 -0.1288 -0.4370
  836MOL0     C10284   5.687   3.699   0.993 -0.3748 -0.2652 -0.8029
  836MOL0     C10285   5.008   4.170   0.953 -0.5987  0.0027 -0.5695
  836MOL0     C10286   4.937   4.292   0.974  0.8496  0.5648  0.6069
  836MOL0     H10287   4.814   4.763   0.933  0.5781  2.9840  1.3338
  836MOL0     H10288   4.667   4.961   0.979  0.5521  0.6278  1.9265
  836MOL0     H10289   4.532   5.156   1.121 -0.2138  1.8246  2.0277
  836MOL0     H10290   4.599   5.091   1.270  0.5369  1.4293  0.1572
  836MOL0     H10291   4.384   5.100   1.376 -0.1914 -0.5093 -0.1326
  836MOL0     H10292   4.298   5.142   1.233 -0.2554 -0.2960  1.9434
  836MOL0     H10293   4.453   5.351   1.218  0.3201  2.2322  0.8147
  836MOL0     H10294   4.530   5.306   1.370  0.4750  2.5515 -0.6342
  836MOL0     H10295   4.236   5.336   1.337 -0.1453  0.6684  0.3769
  836MOL0     H10296   4.337   5.298   1.491  4.3342 -1.1476 -0.3901
  836MOL0     H10297   4.342   5.558   1.327  1.0317 -2.1081 -1.4470
  836MOL0     H10298   4.436   5.519   1.467  1.6305 -0.9828 -1.7086
  836MOL0     H10299   4.254   5.651   1.569 -0.7708  0.0410 -0.6123
  836MOL0     H10300   4.219   5.494   1.606  0.4654  0.7245  1.4150
  836MOL0     H10301   4.099   5.494   1.363 -1.1477  0.7403 -0.7440
  836MOL0     H10302   4.024   5.546   1.507  1.9518 -0.7962  1.6089
  836MOL0     H10303   4.140   5.757   1.321  0.7690 -0.3242  1.2150
  836MOL0     H10304   4.026   5.787   1.456  1.8846 -1.4813  1.8830
  836MOL0     H10305   3.977   5.505   1.177 -0.6940  0.5140  1.7062
  836MOL0     H10306   3.806   5.489   0.962  0.5368  0.7929  0.7460
  836MOL0     H10307   3.657   5.571   0.972 -1.1416 -1.5839 -0.0638
  836MOL0     H10308   3.551   5.421   1.123 -0.2713  0.1810 -2.0541
  836MOL0     H10309   3.698   5.382   1.205 -0.0226 -0.7415  0.6655
  836MOL0     H10310   3.627   5.299   0.920  0.8488  1.3026  0.0616
  836MOL0     H10311   3.768   5.235   1.015 -0.8394 -2.7292  2.7844
  836MOL0     H10312   3.480   5.187   1.097  0.6044  0.5477 -0.0097
  836MOL0     H10313   3.614   5.126   1.179 -0.1494 -1.2241 -0.9116
  836MOL0     H10314   3.636   4.858   0.845  0.3754  2.9046  6.0679
  836MOL0     H10315   3.505   4.805   0.642 -1.3029  0.1317 -0.1534
  836MOL0     H10316   2.937   4.799   0.532 -0.8181 -0.6872 -0.7249
  836MOL0     H10317   2.836   4.712   0.326  1.1700 -0.1745 -0.2416
  836MOL0     H10318   3.061   4.732  -0.049  0.0859  0.1266  1.2036
  836MOL0     H10319   2.959   4.853  -0.101  1.1015  1.5524  2.5011
  836MOL0     H10320   2.810   4.597  -0.035 -0.3610 -0.2534 -1.0262
  836MOL0     H10321   2.945   4.556  -0.140  4.9116  4.3129 -1.5091
  836MOL0     H10322   2.869   4.752  -0.291 -0.3983  1.5931  2.0775
  836MOL0     H10323   2.716   4.749  -0.205 -2.2734 -1.7423 -2.4766
  836MOL0     H10324   2.815   4.507  -0.358 -2.2957 -2.8946  0.0497
  836MOL0     H10325   2.654   4.540  -0.311 -1.7689  1.0101 -1.0253
  836MOL0     H10326   2.795   4.719  -0.502  0.4829  0.4337  2.2887
  836MOL0     H10327   2.629   4.745  -0.446 -1.5929 -2.1651  3.1933
  836MOL0     H10328   2.565   4.519  -0.530 -0.8042  0.2294 -0.4028
  836MOL0     H10329   2.720   4.490  -0.603 -0.0414  0.1314 -2.4004
  836MOL0     H10330   2.573   4.743  -0.703  0.0499  0.4278  0.5114
  836MOL0     H10331   2.713   4.668  -0.777 -1.9922  1.1367 -1.1316
  836MOL0     H10332   2.450   4.590  -0.863 -2.4473 -1.0383  1.1603
  836MOL0     H10333   2.480   4.494  -0.723  1.9614 -2.4214 -0.9132
  836MOL0     H10334   3.109   4.944   0.082 -0.3682  1.1773 -0.0736
  836MOL0     H10335   3.228   5.021   0.303 -0.4417  0.0418  1.3777
  836MOL0     H10336   3.269   5.153   0.679 -1.6841 -0.9042  0.1947
  836MOL0     H10337   3.400   5.209   0.891  1.0187 -0.2926  1.8634
  836MOL0     H10338   4.457   4.756   1.278  1.7302 -0.7013  1.5367
  836MOL0     H10339   4.597   4.555   1.239 -0.5708  1.0167  2.8421
  836MOL0     H10340   5.112   4.419   1.232  1.4192  0.2371 -1.2607
  836MOL0     H10341   5.238   4.202   1.193  1.8475  0.3102 -2.9206
  836MOL0     H10342   5.363   4.077   0.944 -1.7395  0.1870  3.4925
  836MOL0     H10343   5.237   4.052   0.825 -0.6385 -0.9073 -0.4972
  836MOL0     H10344   5.393   3.831   0.986 -3.8045 -3.6971  1.6997
  836MOL0     H10345   5.258   3.807   0.891  0.6985 -0.0002 -2.9026
  836MOL0     H10346   5.407   3.945   0.711 -1.0575  0.4152  0.6778
  836MOL0     H10347   5.419   3.762   0.729  1.0230  0.1248 -0.0628
  836MOL0     H10348   5.648   3.857   0.717 -3.3004 -0.9699 -2.8227
  836MOL0     H10349   5.610   3.970   0.850  2.7309 -1.4401  1.1209
  836MOL0     H10350   5.726   3.639   1.073  1.8179  0.5603 -1.1558
  836MOL0     H10351   4.996   4.101   0.870  0.6789 -1.5672  0.4841
  836MOL0     H10352   4.857   4.317   0.906 -1.6535 -2.0593  2.3505
  837MOL0     O10353   4.965   6.894  11.046  0.2436  1.0260 -0.2426
  837MOL0     C10354   4.877   6.905  11.132  0.8768  0.1058  0.5832
  837MOL0     O10355   4.897   6.906  11.267  0.0625  0.2360  0.0367
  837MOL0     C10356   5.028   6.907  11.321  0.3395  0.2136  0.1100
  837MOL0     C10357   5.039   6.890  11.456 -0.5020 -0.1740  0.0928
  837MOL0     C10358   5.155   6.879  11.528  0.2793  0.0800 -0.7761
  837MOL0     C10359   5.278   6.892  11.463  0.3645 -0.6662 -0.5995
  837MOL0     O10360   5.396   6.886  11.527  0.7756 -0.0454 -0.0020
  837MOL0     C10361   5.403   6.869  11.677  0.7379  0.4536 -0.5758
  837MOL0     C10362   5.531   6.946  11.731 -0.4722 -1.0458  0.8238
  837MOL0     C10363   5.660   6.897  11.658 -0.6204 -0.5074 -0.7740
  837MOL0     C10364   5.775   6.991  11.701  0.2249 -0.3307 -0.2355
  837MOL0     C10365   5.848   6.945  11.835 -0.3722 -1.2013 -0.2195
  837MOL0     C10366   5.972   7.038  11.867  0.3748 -0.1946  0.5470
  837MOL0     C10367   6.073   7.036  11.746 -0.1830  0.3292  0.2099
  837MOL0     C10368   6.207   7.089  11.796 -0.2592 -0.0985  0.4491
  837MOL0     N10369   6.205   7.220  11.869 -0.8881 -0.2621 -0.2724
  837MOL0     C10370   6.208   7.229  12.004  0.4841 -0.5729 -0.6695
  837MOL0     C10371   6.189   7.364  12.027 -0.6815  0.7861  0.4082
  837MOL0     C10372   6.198   7.427  12.160 -0.1512 -0.3476  0.5650
  837MOL0     C10373   6.356   7.435  12.190  0.6199  0.3417  0.3945
  837MOL0     C10374   6.392   7.552  12.284  0.8015 -0.2579  0.2677
  837MOL0     C10375   6.539   7.537  12.337 -0.8558 -0.1425  0.8966
  837MOL0     O10376   6.585   7.663  12.386  0.3378 -0.0312  0.7871
  837MOL0     C10377   6.525   7.716  12.495 -0.0912 -0.9120 -0.1598
  837MOL0     C10378   6.465   7.839  12.473 -0.5404  0.0950 -0.3296
  837MOL0     C10379   6.390   7.894  12.581 -0.3973 -0.0101  0.3053
  837MOL0     C10380   6.401   7.844  12.714  0.2826 -1.9139  0.7445
  837MOL0     C10381   6.350   7.916  12.835 -0.0698 -0.1127 -0.7743
  837MOL0     O10382   6.302   7.831  12.942  0.6186  0.1418  0.7842
  837MOL0     C10383   6.252   7.898  13.049 -0.3370 -0.2835  0.3342
  837MOL0     C10384   6.192   8.022  13.059  0.2231  0.7848  1.0883
  837MOL0     C10385   6.118   8.060  13.167  0.1544  0.4357  0.2649
  837MOL0     C10386   6.109   7.973  13.270  0.2612 -0.2633  0.9201
  837MOL0     O10387   6.023   8.008  13.371  1.3601 -0.6477  0.7074
  837MOL0     C10388   5.897   7.950  13.348  0.3184  0.3677  0.5183
  837MOL0     C10389   5.796   8.067  13.327  0.0543 -0.1971 -0.4565
  837MOL0     C10390   5.644   8.033  13.295 -0.6045 -0.3089 -0.8652
  837MOL0     C10391   5.572   7.957  13.411 -0.3157 -0.0857  0.4541
  837MOL0     C10392   5.421   7.956  13.392 -0.2071  0.0265  0.2885
  837MOL0     C10393   5.374   7.846  13.294 -0.0736  0.4125 -0.7090
  837MOL0     C10394   5.224   7.832  13.302  0.4141  0.5842  0.1008
  837MOL0     C10395   5.185   7.716  13.202  0.1034  0.1180  0.3127
  837MOL0    Cl10396   5.215   7.792  13.040  0.0316  0.2079 -0.8869
  837MOL0     C10397   6.167   7.846  13.275 -0.1040 -0.6039  0.0051
  837MOL0     C10398   6.244   7.813  13.168 -0.5160 -0.4093 -0.6264
  837MOL0     O10399   6.349   8.040  12.830  0.0108  0.3517 -0.1107
  837MOL0     C10400   6.453   7.720  12.725 -1.1623  0.1652 -0.9096
  837MOL0     C10401   6.512   7.651  12.621  0.1809 -0.2231 -0.7057
  837MOL0     N10402   6.158   7.424  11.910  0.6732 -0.8940  0.6475
  837MOL0     N10403   6.168   7.336  11.813 -0.4107  0.0393  0.8383
  837MOL0     C10404   5.284   6.926  11.331 -0.2090 -0.9875  1.4593
  837MOL0     C10405   5.153   6.921  11.258 -1.0485 -0.1861 -0.2829
  837MOL0     C10406   4.749   6.954  11.070  0.2494 -0.3987  0.0497
  837MOL0     C10407   4.670   7.046  11.135  0.6568  0.2530 -0.3687
  837MOL0     C10408   4.539   7.076  11.089 -0.3210  0.0975  0.0420
  837MOL0     C10409   4.487   7.017  10.973  0.6060  0.0529  0.3966
  837MOL0     O10410   4.357   7.048  10.924 -0.4873  0.0291 -0.7129
  837MOL0     C10411   4.245   7.105  11.000  0.3349  0.3999  0.0137
  837MOL0     C10412   4.203   7.241  10.943 -0.1760 -0.3768 -0.5935
  837MOL0     C10413   4.315   7.342  10.972 -0.1876  0.9619  0.6077
  837MOL0     C10414   4.274   7.491  10.962 -0.4196 -0.7453 -0.4759
  837MOL0     C10415   4.389   7.575  10.940 -1.1364 -0.9168 -0.7308
  837MOL0     C10416   4.488   7.637  10.895  0.3964  0.4271 -0.1956
  837MOL0     C10417   4.574   6.939  10.906 -0.2467  0.3686  0.5603
  837MOL0     C10418   4.712   6.923  10.943 -0.0076 -0.5869 -0.1237
  837MOL0     H10419   4.944   6.879  11.508 -1.0650  0.6638 -0.7146
  837MOL0     H10420   5.143   6.857  11.634  2.4331 -3.8123 -1.1049
  837MOL0     H10421   5.402   6.763  11.705 -3.3421  0.4050 -0.4069
  837MOL0     H10422   5.323   6.919  11.732  1.0098 -0.1117  0.3544
  837MOL0     H10423   5.531   6.936  11.840  0.3100  0.9725  1.0490
  837MOL0     H10424   5.524   7.053  11.708 -2.2471 -1.4956 -0.9810
  837MOL0     H10425   5.655   6.904  11.549  1.9423 -0.6393 -0.9673
  837MOL0     H10426   5.680   6.794  11.689 -2.2539 -1.2980 -2.1716
  837MOL0     H10427   5.846   6.980  11.618  0.3067 -0.3454 -0.1645
  837MOL0     H10428   5.734   7.092  11.709 -3.5438 -1.8158  1.9131
  837MOL0     H10429   5.887   6.843  11.829  1.9248 -0.3084 -2.6420
  837MOL0     H10430   5.772   6.964  11.911  0.0994  0.8698 -0.2132
  837MOL0     H10431   6.026   7.000  11.954  2.1303 -2.1828 -1.2937
  837MOL0     H10432   5.934   7.138  11.889  1.6258  0.6612 -0.9371
  837MOL0     H10433   6.088   6.933  11.712  0.9136  0.7157 -0.5183
  837MOL0     H10434   6.046   7.090  11.656 -0.5476 -2.0699 -1.2218
  837MOL0     H10435   6.282   7.091  11.717  2.6187  1.3681  3.0369
  837MOL0     H10436   6.251   7.025  11.873  1.9161  1.1698  0.3351
  837MOL0     H10437   6.241   7.150  12.070  1.9275  1.6631  1.4717
  837MOL0     H10438   6.139   7.373  12.234 -3.1743  0.6233 -0.9854
  837MOL0     H10439   6.164   7.531  12.148  1.8652  0.5464  2.0643
  837MOL0     H10440   6.404   7.471  12.099 -2.3309  2.4850 -0.4541
  837MOL0     H10441   6.389   7.337  12.225  0.7476 -0.0149 -0.6959
  837MOL0     H10442   6.389   7.648  12.231 -0.0288  0.0132  0.7952
  837MOL0     H10443   6.319   7.557  12.365  0.2526 -0.9483 -0.1666
  837MOL0     H10444   6.599   7.509  12.250  0.0569 -0.1448  1.5136
  837MOL0     H10445   6.565   7.461  12.412  4.0694  0.8436  0.5229
  837MOL0     H10446   6.473   7.878  12.372  2.9284 -0.0511 -0.2341
  837MOL0     H10447   6.347   7.993  12.574  1.1487  0.7411  0.7987
  837MOL0     H10448   6.197   8.103  12.987 -1.9156 -0.2503 -0.3229
  837MOL0     H10449   6.068   8.155  13.177  0.4921  0.5512  0.9111
  837MOL0     H10450   5.865   7.886  13.431 -0.9336 -0.2513 -0.4046
  837MOL0     H10451   5.897   7.890  13.256 -1.9548  1.3879 -0.2296
  837MOL0     H10452   5.831   8.133  13.247 -0.8778 -0.5203 -1.1370
  837MOL0     H10453   5.797   8.121  13.422  0.5516 -0.8149 -0.0994
  837MOL0     H10454   5.644   7.965  13.209  1.3802 -1.4941 -0.0077
  837MOL0     H10455   5.598   8.130  13.273  1.7472  0.8628 -0.8489
  837MOL0     H10456   5.618   7.858  13.401  1.6191  0.8016  0.0040
  837MOL0     H10457   5.593   8.001  13.508 -1.8914  0.4559  0.5727
  837MOL0     H10458   5.390   8.058  13.365  0.7896  0.0090 -0.9882
  837MOL0     H10459   5.380   7.931  13.491  0.4548 -0.6081  0.4089
  837MOL0     H10460   5.414   7.749  13.327 -2.5158  0.1968  1.9984
  837MOL0     H10461   5.403   7.872  13.192  0.8358  2.9929  0.1353
  837MOL0     H10462   5.195   7.796  13.401 -1.2236  1.3737 -0.0644
  837MOL0     H10463   5.169   7.919  13.264  0.8000  0.1021 -1.6866
  837MOL0     H10464   5.091   7.663  13.220  2.9854 -5.1681  2.0238
  837MOL0     H10465   5.246   7.627  13.222 -2.3469 -1.7546  0.0356
  837MOL0     H10466   6.147   7.776  13.355 -1.4132 -0.9793 -0.6256
  837MOL0     H10467   6.275   7.710  13.153  1.3253  0.3645 -2.8152
  837MOL0     H10468   6.440   7.663  12.816  3.1729 -0.9709 -0.7935
  837MOL0     H10469   6.543   7.547  12.627  0.6816 -0.1311 -1.4523
  837MOL0     H10470   5.369   6.946  11.267 -1.0247  1.0760  0.9152
  837MOL0     H10471   5.158   6.937  11.151 -2.9992  0.2877 -0.3546
  837MOL0     H10472   4.691   7.106  11.223 -1.0314  0.2835  0.0579
  837MOL0     H10473   4.483   7.151  11.144 -0.7388  0.0275 -0.2820
  837MOL0     H10474   4.271   7.118  11.105 -2.4436  2.3667  0.5623
  837MOL0     H10475   4.170   7.026  11.001  0.4898  0.2214  1.8980
  837MOL0     H10476   4.185   7.223  10.836 -4.2462 -0.8034  0.0034
  837MOL0     H10477   4.111   7.288  10.978  0.6041  0.6564  0.1236
  837MOL0     H10478   4.400   7.327  10.906  1.1665  1.3867  2.1800
  837MOL0     H10479   4.341   7.321  11.076 -1.9036 -1.2098  0.6701
  837MOL0     H10480   4.201   7.514  10.884  0.9456  1.4067 -1.2188
  837MOL0     H10481   4.227   7.513  11.059  0.4683 -3.6230  0.6920
  837MOL0     H10482   4.557   7.700  10.842  0.4973  0.1445 -0.4001
  837MOL0     H10483   4.546   6.890  10.813  0.9912 -0.6864  0.7141
  837MOL0     H10484   4.781   6.869  10.879  1.1336 -1.4441  1.7454
  838MOL0     O10485   4.602   3.494   0.220  0.3274  0.8380  0.1637
  838MOL0     C10486   4.705   3.501   0.293  0.2046  0.5429 -0.2779
  838MOL0     O10487   4.724   3.604   0.384 -0.2531  0.3710  0.5650
  838MOL0     C10488   4.620   3.692   0.402 -0.0253 -0.7495  0.3075
  838MOL0     C10489   4.480   3.667   0.429  0.0698  0.1319  0.9307
  838MOL0     C10490   4.385   3.761   0.460 -0.1370  0.5045 -0.4366
  838MOL0     C10491   4.430   3.902   0.461  0.3662 -0.0177 -1.0379
  838MOL0     O10492   4.346   4.008   0.489  0.9146 -0.2172  0.1954
  838MOL0     C10493   4.203   3.984   0.509 -0.1484 -0.2096  0.1754
  838MOL0     C10494   4.141   4.117   0.555 -0.2719 -0.2323  0.1295
  838MOL0     C10495   3.992   4.079   0.590 -0.5694 -0.4587 -0.7540
  838MOL0     C10496   3.928   4.209   0.646  0.5518 -0.1836 -0.2807
  838MOL0     C10497   3.974   4.285   0.769  0.1515 -0.0583  0.0477
  838MOL0     C10498   4.010   4.200   0.893 -0.2449  0.4480 -0.2689
  838MOL0     C10499   4.015   4.300   1.012  0.0536 -0.5267 -0.7746
  838MOL0     C10500   4.005   4.221   1.147 -0.2610  0.2605  0.3069
  838MOL0     N10501   3.865   4.222   1.202 -0.2335  0.1298 -0.0702
  838MOL0     C10502   3.755   4.180   1.135  0.0950  0.1565 -0.1477
  838MOL0     C10503   3.652   4.176   1.224  0.3773 -0.6457  0.5852
  838MOL0     C10504   3.511   4.138   1.197 -0.2566  1.0815 -0.8789
  838MOL0     C10505   3.472   4.007   1.264  1.1886 -1.0695 -0.0456
  838MOL0     C10506   3.337   3.967   1.195 -0.1836  0.0242  0.1122
  838MOL0     C10507   3.283   3.838   1.248  0.5949 -0.2980 -0.3182
  838MOL0     O10508   3.295   3.839   1.383 -0.3398 -0.2093  0.0705
  838MOL0     C10509   3.408   3.771   1.430  1.2873 -0.3199  0.6133
  838MOL0     C10510   3.496   3.684   1.364  0.0810 -0.5380 -0.4191
  838MOL0     C10511   3.601   3.608   1.431  0.0778  0.1017  0.7109
  838MOL0     C10512   3.624   3.636   1.564 -0.7206  0.5836 -1.0828
  838MOL0     C10513   3.747   3.581   1.639 -0.4786 -1.2775 -0.1134
  838MOL0     O10514   3.854   3.521   1.566  0.3234 -0.0519  1.0137
  838MOL0     C10515   3.945   3.434   1.626 -0.1623  0.2656  0.0634
  838MOL0     C10516   3.924   3.354   1.742 -0.7118  0.8177 -0.3982
  838MOL0     C10517   4.028   3.273   1.789 -1.3840 -0.3964  0.2522
  838MOL0     C10518   4.155   3.270   1.722 -0.3112 -0.8784 -0.3386
  838MOL0     O10519   4.273   3.211   1.759  0.2969  0.5236 -0.0726
  838MOL0     C10520   4.266   3.074   1.814  0.2708 -1.7796  0.1874
  838MOL0     C10521   4.402   3.027   1.864  0.0192  0.2685  0.0295
  838MOL0     C10522   4.427   3.076   2.011 -0.2102 -0.4765  0.6925
  838MOL0     C10523   4.547   2.991   2.070  0.3044 -0.1054 -0.4989
  838MOL0     C10524   4.685   3.001   2.012  0.6394 -0.3523 -0.1323
  838MOL0     C10525   4.713   2.930   1.875  0.9066 -0.1245  0.6952
  838MOL0     C10526   4.860   2.907   1.851 -0.2491  0.0151  0.6663
  838MOL0     C10527   4.876   2.818   1.728 -0.2383 -0.0544 -0.2049
  838MOL0    Cl10528   5.050   2.788   1.718  0.3571  0.0180 -0.0978
  838MOL0     C10529   4.171   3.338   1.603 -0.6942  0.2117  0.0856
  838MOL0     C10530   4.064   3.414   1.553  0.1645 -0.9844  0.4069
  838MOL0     O10531   3.745   3.575   1.761 -0.5589 -0.4400 -0.6290
  838MOL0     C10532   3.530   3.723   1.636 -0.4873  1.3126  0.3111
  838MOL0     C10533   3.425   3.779   1.568  0.5343 -0.2465 -0.5063
  838MOL0     N10534   3.705   4.227   1.343 -0.4209 -0.4546 -0.0039
  838MOL0     N10535   3.829   4.251   1.329  0.0479 -0.2216  0.0188
  838MOL0     C10536   4.562   3.926   0.426 -0.2703 -0.3541  0.0682
  838MOL0     C10537   4.656   3.826   0.396  0.7038  0.2418  0.4737
  838MOL0     C10538   4.815   3.397   0.285 -0.0256 -0.8909  0.5674
  838MOL0     C10539   4.810   3.291   0.190  0.7096 -0.1215 -0.5330
  838MOL0     C10540   4.914   3.198   0.194 -0.0403 -0.4294  0.1043
  838MOL0     C10541   5.020   3.199   0.288 -0.5283 -0.3334 -0.1016
  838MOL0     O10542   5.113   3.093   0.275 -0.0383  0.0582  0.1702
  838MOL0     C10543   5.223   3.104   0.360  0.0524  0.8508  0.1855
  838MOL0     C10544   5.325   2.993   0.332 -0.1255 -0.3258 -0.2745
  838MOL0     C10545   5.393   3.023   0.201  0.0194  0.3094  0.0975
  838MOL0     C10546   5.511   2.931   0.181 -0.1727 -0.3984 -0.1933
  838MOL0     C10547   5.481   2.790   0.148 -0.0514  0.1376 -0.9611
  838MOL0     C10548   5.469   2.673   0.135  0.2202  1.1131 -0.5824
  838MOL0     C10549   5.017   3.306   0.380  0.1453 -0.6242 -0.2938
  838MOL0     C10550   4.922   3.401   0.374 -0.9238  0.1122  1.2183
  838MOL0     H10551   4.472   3.559   0.432  0.0918  0.1267  0.8387
  838MOL0     H10552   4.283   3.726   0.475  0.6133 -1.0044  1.6599
  838MOL0     H10553   4.205   3.909   0.589  5.6711  0.1724  0.8132
  838MOL0     H10554   4.150   3.931   0.429  1.1959 -3.4267  1.2295
  838MOL0     H10555   4.140   4.189   0.473 -1.6350  0.6293  0.8514
  838MOL0     H10556   4.196   4.173   0.632 -2.3883  0.4658  1.2276
  838MOL0     H10557   3.997   3.994   0.657  1.9352 -0.0429 -0.3005
  838MOL0     H10558   3.944   4.052   0.495  2.4473 -0.7420 -2.3228
  838MOL0     H10559   3.936   4.287   0.571  0.3784 -0.9150 -1.0795
  838MOL0     H10560   3.822   4.183   0.650  0.0701  1.3703 -1.7612
  838MOL0     H10561   3.898   4.358   0.798  0.5488  0.9202 -1.2858
  838MOL0     H10562   4.067   4.337   0.744  2.5911 -1.3453  5.1414
  838MOL0     H10563   4.111   4.161   0.876 -0.4179  0.2846 -0.9330
  838MOL0     H10564   3.939   4.116   0.895  1.8821 -1.5237 -1.3533
  838MOL0     H10565   4.113   4.348   1.024 -0.6726  0.2321  3.9044
  838MOL0     H10566   3.935   4.373   1.018  1.1519  0.6207  3.6367
  838MOL0     H10567   4.070   4.272   1.218 -0.8492 -1.0942  1.9029
  838MOL0     H10568   4.043   4.119   1.135  1.9758  1.3268 -3.1466
  838MOL0     H10569   3.758   4.149   1.031 -0.8111 -0.0249 -0.1233
  838MOL0     H10570   3.509   4.118   1.090  1.2071 -1.5146 -0.5148
  838MOL0     H10571   3.450   4.228   1.207  1.7123  2.4938 -0.8087
  838MOL0     H10572   3.470   4.017   1.373  1.4353  0.9944 -0.1852
  838MOL0     H10573   3.552   3.935   1.244  1.0152 -1.2458 -0.0959
  838MOL0     H10574   3.265   4.049   1.190 -2.4076 -1.8763 -1.7758
  838MOL0     H10575   3.363   3.955   1.089 -0.8139  2.1058 -0.3183
  838MOL0     H10576   3.307   3.745   1.196  0.5321 -0.2244 -0.4814
  838MOL0     H10577   3.174   3.839   1.240  0.5280 -2.8407 -0.4176
  838MOL0     H10578   3.504   3.681   1.255 -0.0988  0.9295 -0.4883
  838MOL0     H10579   3.662   3.539   1.374  0.7660 -0.2434  1.8234
  838MOL0     H10580   3.825   3.359   1.787 -0.5790  2.5195 -0.2136
  838MOL0     H10581   4.031   3.217   1.882  2.3878 -0.6369  0.1523
  838MOL0     H10582   4.236   3.002   1.739 -1.2706  1.0426 -2.0914
  838MOL0     H10583   4.191   3.080   1.894 -0.6165  2.2147 -0.7164
  838MOL0     H10584   4.479   3.064   1.796 -1.5081 -0.1341 -2.0134
  838MOL0     H10585   4.398   2.918   1.865 -1.5624  0.2352 -2.0878
  838MOL0     H10586   4.335   3.047   2.063  0.1805  0.2419  1.8143
  838MOL0     H10587   4.453   3.181   2.023  4.4731 -1.2887 -0.4779
  838MOL0     H10588   4.559   3.024   2.174  2.9368  1.9797 -1.3490
  838MOL0     H10589   4.524   2.884   2.073 -0.7746  0.1008  2.7841
  838MOL0     H10590   4.748   2.945   2.081  1.9929 -0.9117 -1.7370
  838MOL0     H10591   4.725   3.103   2.017  3.7367 -1.4902  0.0725
  838MOL0     H10592   4.672   2.986   1.790  1.6873 -1.2711 -0.4755
  838MOL0     H10593   4.653   2.838   1.874 -1.3606  1.2708 -0.2728
  838MOL0     H10594   4.907   3.002   1.822 -4.6128  2.1472 -0.2094
  838MOL0     H10595   4.911   2.861   1.936  1.1203 -3.7157 -1.9091
  838MOL0     H10596   4.841   2.868   1.637  1.0136  1.0640 -0.1200
  838MOL0     H10597   4.822   2.724   1.740 -0.3700  0.2420  2.1336
  838MOL0     H10598   4.261   3.345   1.543 -1.8824 -0.1506 -1.8429
  838MOL0     H10599   4.076   3.471   1.461  1.2566 -0.8218  0.6263
  838MOL0     H10600   3.551   3.734   1.742  3.5224  1.9318 -0.4006
  838MOL0     H10601   3.358   3.835   1.633  0.6706 -1.1968  0.4681
  838MOL0     H10602   4.596   4.029   0.419 -0.3107 -0.4028 -0.9476
  838MOL0     H10603   4.760   3.836   0.369  1.2612 -2.2748  1.3494
  838MOL0     H10604   4.721   3.266   0.133 -1.1912  0.1538  2.1215
  838MOL0     H10605   4.913   3.114   0.125  4.6039 -0.6107 -0.0627
  838MOL0     H10606   5.184   3.094   0.461 -3.5116  1.6205 -0.9762
  838MOL0     H10607   5.264   3.206   0.355  0.6498  0.5712 -1.2414
  838MOL0     H10608   5.397   2.992   0.415  0.5791 -1.0914 -0.8779
  838MOL0     H10609   5.282   2.893   0.336 -1.1335  0.1053 -0.0492
  838MOL0     H10610   5.425   3.128   0.207 -3.1173  1.5670 -2.3048
  838MOL0     H10611   5.322   3.031   0.119 -0.7819  2.9044  0.9214
  838MOL0     H10612   5.573   2.953   0.093  0.7541 -1.4025  0.1812
  838MOL0     H10613   5.573   2.922   0.270 -1.8510 -0.6168  1.0066
  838MOL0     H10614   5.485   2.569   0.153  0.6787  1.1207 -0.9248
  838MOL0     H10615   5.093   3.329   0.454 -1.1185  2.0645  0.2595
  838MOL0     H10616   4.920   3.486   0.441 -2.6053 -1.6353  3.5313
  839MOL0     O10617   2.429   1.451   2.851 -0.2749  0.4606  0.1362
  839MOL0     C10618   2.477   1.451   2.736  0.6080  0.4252  0.2598
  839MOL0     O10619   2.610   1.434   2.706  0.1510  0.3063 -0.1379
  839MOL0     C10620   2.706   1.457   2.806  0.5303 -0.6264  0.1236
  839MOL0     C10621   2.753   1.340   2.877 -0.0239  0.4991  0.7978
  839MOL0     C10622   2.865   1.352   2.969  0.9352 -0.5474 -1.0017
  839MOL0     C10623   2.927   1.481   2.986 -0.3237 -0.0255  0.5124
  839MOL0     O10624   3.037   1.486   3.067  0.4013  0.2014  0.0928
  839MOL0     C10625   3.013   1.489   3.203 -0.5446  0.1642 -0.2306
  839MOL0     C10626   3.079   1.619   3.251  0.2965 -0.5123 -1.1694
  839MOL0     C10627   3.107   1.602   3.404  0.2924 -0.8151 -0.0305
  839MOL0     C10628   3.162   1.739   3.442 -0.8207 -0.0982 -0.9429
  839MOL0     C10629   3.168   1.757   3.596  0.3722  0.4714  0.0224
  839MOL0     C10630   3.253   1.657   3.675  0.1114 -0.2185  0.3535
  839MOL0     C10631   3.218   1.645   3.820 -0.9901  0.3834  0.9513
  839MOL0     C10632   3.320   1.543   3.895  0.4785 -0.1100  0.3895
  839MOL0     N10633   3.292   1.557   4.039 -1.2808  0.0079  0.0730
  839MOL0     C10634   3.346   1.652   4.120 -0.5286  0.4558  1.0250
  839MOL0     C10635   3.317   1.606   4.239  0.0017 -0.3954  0.0858
  839MOL0     C10636   3.371   1.669   4.377  0.4055  0.9820 -0.3173
  839MOL0     C10637   3.518   1.641   4.405  0.3934  0.1071 -0.1234
  839MOL0     C10638   3.567   1.496   4.373 -1.0339  0.0003  0.3481
  839MOL0     C10639   3.641   1.505   4.240  0.2963  0.7249  1.0655
  839MOL0     O10640   3.758   1.587   4.247  0.6597  0.0309  0.2523
  839MOL0     C10641   3.854   1.575   4.155 -0.8525  0.4341  1.2564
  839MOL0     C10642   3.869   1.477   4.057  0.5528 -0.2666  0.5211
  839MOL0     C10643   3.971   1.492   3.960  1.3805  1.9840  0.0175
  839MOL0     C10644   4.063   1.591   3.957  0.2309  0.0065  0.6671
  839MOL0     C10645   4.161   1.605   3.849  0.6739 -0.7334 -0.6746
  839MOL0     O10646   4.160   1.502   3.757 -0.3074 -0.1679 -0.0292
  839MOL0     C10647   4.223   1.511   3.637 -0.0077  0.3991  0.0991
  839MOL0     C10648   4.180   1.605   3.548  0.1095 -0.3555  1.0884
  839MOL0     C10649   4.238   1.627   3.421 -0.4946  0.3183 -0.3880
  839MOL0     C10650   4.356   1.556   3.399  0.2496  0.2944  0.4262
  839MOL0     O10651   4.427   1.583   3.284  0.2461  0.5020 -0.0321
  839MOL0     C10652   4.560   1.634   3.298  0.1074 -0.5398  0.3405
  839MOL0     C10653   4.624   1.599   3.162  0.3782  0.1604 -0.1228
  839MOL0     C10654   4.637   1.442   3.141 -0.1528  0.6410  0.3177
  839MOL0     C10655   4.697   1.415   3.002  0.5878  0.1264  0.2403
  839MOL0     C10656   4.696   1.263   2.989  0.0926  1.0403  0.4828
  839MOL0     C10657   4.547   1.233   2.933 -0.1168  0.2152  0.0592
  839MOL0     C10658   4.524   1.069   2.935 -0.9251 -0.8906 -0.0078
  839MOL0     C10659   4.376   1.027   2.936  0.8372 -0.7156  0.9522
  839MOL0    Cl10660   4.290   1.089   3.085  0.6458  0.5118  0.0361
  839MOL0     C10661   4.413   1.466   3.492 -0.3383  0.6967 -1.1520
  839MOL0     C10662   4.339   1.442   3.613  0.3589  1.2662 -0.2268
  839MOL0     O10663   4.236   1.697   3.848  0.2111 -0.7937 -0.5243
  839MOL0     C10664   4.053   1.692   4.059  0.5629  0.2445 -0.0553
  839MOL0     C10665   3.944   1.683   4.146 -0.3062 -0.1600 -0.8013
  839MOL0     N10666   3.238   1.489   4.230 -1.0856 -0.4257 -0.0647
  839MOL0     N10667   3.233   1.461   4.106  0.4049 -0.3566 -0.4743
  839MOL0     C10668   2.884   1.584   2.905 -0.6244  0.5992 -0.5867
  839MOL0     C10669   2.769   1.578   2.823  0.4201  0.6771  0.2183
  839MOL0     C10670   2.377   1.444   2.626 -0.0806  0.9348  0.3779
  839MOL0     C10671   2.248   1.409   2.660 -0.2213 -0.1202 -0.3310
  839MOL0     C10672   2.159   1.374   2.568  0.0789 -0.7813 -0.6142
  839MOL0     C10673   2.184   1.394   2.430 -0.0580 -0.7566  0.1378
  839MOL0     O10674   2.084   1.397   2.333  0.1062 -0.0154 -0.0567
  839MOL0     C10675   2.058   1.271   2.277 -0.7595  0.3951  0.2090
  839MOL0     C10676   1.907   1.260   2.247  0.4869 -0.3226  0.0738
  839MOL0     C10677   1.878   1.174   2.126 -0.0063 -0.6797 -0.0965
  839MOL0     C10678   1.727   1.138   2.117 -0.1998  0.1487  0.3551
  839MOL0     C10679   1.635   1.253   2.096 -0.0632  1.0064  0.1051
  839MOL0     C10680   1.568   1.350   2.118  0.1020  0.0453 -0.6956
  839MOL0     C10681   2.316   1.422   2.394 -0.5853 -0.2277  0.2341
  839MOL0     C10682   2.411   1.441   2.493 -0.2240  0.2207 -0.7510
  839MOL0     H10683   2.717   1.239   2.866 -2.0631  1.2983 -0.3941
  839MOL0     H10684   2.902   1.267   3.026  1.4334  0.9178  0.9584
  839MOL0     H10685   3.057   1.405   3.257  0.3770  0.8524  0.1083
  839MOL0     H10686   2.908   1.496   3.231 -0.4069  0.0776  0.3099
  839MOL0     H10687   3.021   1.707   3.223 -1.7442 -1.4548 -0.1092
  839MOL0     H10688   3.180   1.635   3.211  1.1886 -0.3872  1.0067
  839MOL0     H10689   3.185   1.527   3.419  3.9095  1.8330 -3.5593
  839MOL0     H10690   3.012   1.591   3.457 -0.6006  2.4311 -0.7585
  839MOL0     H10691   3.262   1.741   3.397 -0.9961 -1.6150 -1.4550
  839MOL0     H10692   3.104   1.825   3.406  1.9719  2.7585  0.7606
  839MOL0     H10693   3.066   1.773   3.631 -0.5657  2.5683 -3.2239
  839MOL0     H10694   3.220   1.852   3.615  0.5884  0.8668 -2.2256
  839MOL0     H10695   3.350   1.704   3.654 -0.0714  0.3203  0.7053
  839MOL0     H10696   3.246   1.560   3.624 -0.7784 -1.1290  2.1325
  839MOL0     H10697   3.214   1.749   3.855 -0.9403  0.5480  0.4783
  839MOL0     H10698   3.121   1.599   3.840  0.1296 -1.0067  3.6230
  839MOL0     H10699   3.422   1.579   3.883  0.4944  0.4329  1.9969
  839MOL0     H10700   3.306   1.438   3.866  1.7127 -0.2463  0.2402
  839MOL0     H10701   3.394   1.746   4.093 -0.3011  0.7688  2.4526
  839MOL0     H10702   3.313   1.619   4.455  0.1800  0.3197 -0.9001
  839MOL0     H10703   3.357   1.777   4.369  2.0960  1.1133 -2.5168
  839MOL0     H10704   3.535   1.673   4.508  0.2702 -3.1554  1.0484
  839MOL0     H10705   3.579   1.705   4.341  2.6826 -3.1464 -1.4551
  839MOL0     H10706   3.635   1.463   4.452 -0.4699  1.3662  0.4567
  839MOL0     H10707   3.492   1.417   4.368  0.6248 -1.7033  0.9224
  839MOL0     H10708   3.568   1.536   4.165  0.7133 -1.5648 -0.3755
  839MOL0     H10709   3.676   1.405   4.212  0.3410  1.4053 -1.5767
  839MOL0     H10710   3.796   1.398   4.040  3.7680 -3.7679  1.5690
  839MOL0     H10711   3.960   1.423   3.877  1.5209 -1.3972  2.5814
  839MOL0     H10712   4.097   1.670   3.573  0.3399  1.7120 -2.6571
  839MOL0     H10713   4.201   1.704   3.354  0.4931  1.8054  0.7062
  839MOL0     H10714   4.623   1.608   3.384  3.2228  5.4473  0.3703
  839MOL0     H10715   4.562   1.743   3.301  0.5799 -0.5080 -0.6531
  839MOL0     H10716   4.728   1.633   3.165  0.0087  1.3139  2.1168
  839MOL0     H10717   4.574   1.645   3.076 -0.5400 -1.2222 -0.3564
  839MOL0     H10718   4.537   1.399   3.150 -0.6653  1.4803 -1.1815
  839MOL0     H10719   4.703   1.395   3.215  1.2487  1.9755 -0.0327
  839MOL0     H10720   4.644   1.460   2.917 -2.1972 -0.1235  1.7351
  839MOL0     H10721   4.805   1.432   3.002  0.8778 -1.4038  1.9818
  839MOL0     H10722   4.730   1.210   3.078  0.2127 -1.4453 -0.9502
  839MOL0     H10723   4.765   1.234   2.910 -2.0401 -1.8272 -0.5231
  839MOL0     H10724   4.537   1.267   2.830  3.2985  0.6230 -0.2513
  839MOL0     H10725   4.468   1.283   2.989 -0.9906  0.2472 -1.1615
  839MOL0     H10726   4.569   1.032   2.842  1.0886  1.2405 -0.0096
  839MOL0     H10727   4.565   1.020   3.023  1.1264 -0.4955 -0.6756
  839MOL0     H10728   4.365   0.918   2.936  0.7503 -0.7065  1.1827
  839MOL0     H10729   4.325   1.066   2.847 -1.5090  1.6857  3.1889
  839MOL0     H10730   4.504   1.408   3.479  0.4444  2.2072 -2.8506
  839MOL0     H10731   4.386   1.373   3.683  1.6524  2.3761  0.0377
  839MOL0     H10732   4.109   1.785   4.058  0.9241  0.0347  0.2937
  839MOL0     H10733   3.930   1.775   4.202  0.2185  1.0618 -2.6173
  839MOL0     H10734   2.943   1.672   2.928  2.8310 -2.0494  1.6874
  839MOL0     H10735   2.748   1.657   2.752  6.6283 -0.5802 -3.8805
  839MOL0     H10736   2.213   1.403   2.762 -1.4781  0.7808 -0.6915
  839MOL0     H10737   2.067   1.344   2.617  0.5477 -2.3670 -0.6713
  839MOL0     H10738   2.092   1.181   2.329  1.4375  1.1422  0.1729
  839MOL0     H10739   2.118   1.275   2.185  0.4751 -0.9792  0.9091
  839MOL0     H10740   1.858   1.214   2.333  0.3924  0.5813  0.5161
  839MOL0     H10741   1.852   1.354   2.244  0.5406 -0.1214  2.6778
  839MOL0     H10742   1.935   1.083   2.148  2.2300 -0.2411 -3.2354
  839MOL0     H10743   1.922   1.214   2.034 -0.7674 -0.5656 -0.4119
  839MOL0     H10744   1.702   1.072   2.034 -2.6592 -0.5699  1.5621
  839MOL0     H10745   1.693   1.091   2.210 -1.9391 -0.1493 -0.3941
  839MOL0     H10746   1.529   1.445   2.149  0.9986  0.6037 -1.2498
  839MOL0     H10747   2.340   1.444   2.290  0.0352  1.3208  0.6853
  839MOL0     H10748   2.518   1.453   2.476  0.4853 -0.9306  2.2042
  840MOL0     O10749   8.369  11.281  10.890 -0.7120  0.2904  0.1267
  840MOL0     C10750   8.268  11.217  10.844 -0.0025 -0.3165  1.3990
  840MOL0     O10751   8.142  11.272  10.824 -0.0149  1.0630 -0.9543
  840MOL0     C10752   8.129  11.402  10.846 -1.4113 -0.2155 -0.3699
  840MOL0     C10753   8.120  11.456  10.976  0.9807  0.3676 -0.7990
  840MOL0     C10754   8.098  11.597  10.998 -0.0954  0.1629  1.2832
  840MOL0     C10755   8.092  11.683  10.887  1.0350  0.0819  0.5483
  840MOL0     O10756   8.075  11.813  10.903 -0.9909 -0.3818  0.8282
  840MOL0     C10757   8.189  11.891  10.951 -0.0817  0.0726  0.9891
  840MOL0     C10758   8.168  12.043  10.938  0.2917 -0.1985  0.2922
  840MOL0     C10759   8.039  12.086  11.002  1.2447  0.7220 -0.0331
  840MOL0     C10760   8.027  12.235  11.035  0.1163 -0.7954 -0.0520
  840MOL0     C10761   7.890  12.297  11.092 -0.0405  0.2755 -0.2213
  840MOL0     C10762   7.833  12.200  11.200 -0.2006  0.3301  0.1147
  840MOL0     C10763   7.702  12.244  11.252  0.7798 -0.7436 -0.5924
  840MOL0     C10764   7.715  12.356  11.367 -0.5719  0.2084  1.1650
  840MOL0     N10765   7.581  12.376  11.422  0.3496  0.6590  0.0527
  840MOL0     C10766   7.511  12.288  11.497  0.1201  1.0121  0.7175
  840MOL0     C10767   7.380  12.322  11.490  0.6511 -0.1138 -0.6654
  840MOL0     C10768   7.259  12.266  11.549  0.8495  0.1627 -0.4333
  840MOL0     C10769   7.202  12.156  11.467  0.5298  0.4839  0.5311
  840MOL0     C10770   7.112  12.058  11.553  0.2349 -0.0504  1.1299
  840MOL0     C10771   6.975  12.123  11.574  0.1175  0.1306  0.1004
  840MOL0     O10772   6.896  12.011  11.622  0.7346 -0.1095 -0.9303
  840MOL0     C10773   6.752  12.024  11.631 -0.0257 -0.7033  0.6345
  840MOL0     C10774   6.675  12.142  11.605 -0.0219 -0.3652  0.2047
  840MOL0     C10775   6.538  12.137  11.614  0.1923  0.2481 -0.3783
  840MOL0     C10776   6.473  12.012  11.627  0.8282 -0.5218  0.7125
  840MOL0     C10777   6.320  12.008  11.615 -1.6062  0.5446 -0.4595
  840MOL0     O10778   6.273  11.883  11.593 -0.5279 -0.0123  0.0823
  840MOL0     C10779   6.145  11.834  11.606 -0.2616 -0.2781  0.0556
  840MOL0     C10780   6.022  11.901  11.632  0.4585 -0.3335  0.5244
  840MOL0     C10781   5.889  11.850  11.632 -0.3233  0.6994  0.5435
  840MOL0     C10782   5.882  11.712  11.600  0.1436 -0.3199  0.4945
  840MOL0     O10783   5.757  11.651  11.599  0.4336  0.2807  0.1394
  840MOL0     C10784   5.686  11.656  11.713 -0.3031 -0.1389 -0.0754
  840MOL0     C10785   5.733  11.545  11.811  0.0305  0.1296 -0.3622
  840MOL0     C10786   5.677  11.573  11.947  0.4593 -0.0221  0.3878
  840MOL0     C10787   5.519  11.579  11.951 -0.3235  0.3591  0.1313
  840MOL0     C10788   5.467  11.568  12.092  0.0372 -1.0497 -0.2717
  840MOL0     C10789   5.316  11.542  12.104  0.0589 -0.3653 -0.2929
  840MOL0     C10790   5.281  11.486  12.249 -0.9017  0.0104  0.6319
  840MOL0     C10791   5.130  11.454  12.261 -0.1836 -0.2282 -0.6357
  840MOL0    Cl10792   5.087  11.364  12.114 -0.1513 -0.1038  0.2201
  840MOL0     C10793   5.995  11.633  11.578 -0.0845 -0.1163  0.0847
  840MOL0     C10794   6.127  11.692  11.598  0.3119  0.0634 -0.1825
  840MOL0     O10795   6.253  12.109  11.633 -0.3122  0.3227  0.3253
  840MOL0     C10796   6.544  11.898  11.647 -0.5942  0.2764  0.7545
  840MOL0     C10797   6.686  11.905  11.652  0.1603 -0.1854 -0.9139
  840MOL0     N10798   7.369  12.433  11.397 -0.1530  0.3436 -0.0297
  840MOL0     N10799   7.493  12.462  11.361 -0.8706 -0.5717  0.5368
  840MOL0     C10800   8.061  11.626  10.758  0.2878 -0.2877  0.3885
  840MOL0     C10801   8.097  11.489  10.733 -0.3445 -0.0139 -0.7772
  840MOL0     C10802   8.294  11.080  10.796 -0.5561  0.0520  0.0641
  840MOL0     C10803   8.422  11.017  10.804 -0.0192 -0.4835  0.2872
  840MOL0     C10804   8.436  10.881  10.761 -0.1827 -0.1748 -0.4211
  840MOL0     C10805   8.322  10.809  10.726 -0.5162  0.3874  0.4746
  840MOL0     O10806   8.344  10.676  10.684  0.4942 -0.4117 -0.6573
  840MOL0     C10807   8.253  10.594  10.614  0.5357  0.8527  0.9759
  840MOL0     C10808   8.257  10.643  10.469  0.3282  0.2745  0.6371
  840MOL0     C10809   8.159  10.552  10.388  0.4993 -0.3743  0.1367
  840MOL0     C10810   8.134  10.598  10.251  0.8279 -1.8424 -0.0323
  840MOL0     C10811   8.055  10.504  10.174  0.6417  0.0274  0.1272
  840MOL0     C10812   7.980  10.431  10.110 -0.0472 -0.1512  0.1959
  840MOL0     C10813   8.196  10.868  10.720 -0.3109 -1.4283  0.2353
  840MOL0     C10814   8.184  10.999  10.748 -0.3114 -0.1891 -1.6049
  840MOL0     H10815   8.119  11.398  11.067  1.9626 -1.9501 -2.1817
  840MOL0     H10816   8.107  11.627  11.101 -0.7460 -0.0919  1.4193
  840MOL0     H10817   8.280  11.860  10.899 -0.2951 -2.4375  1.9641
  840MOL0     H10818   8.196  11.876  11.059 -0.4270 -1.8266  0.7875
  840MOL0     H10819   8.140  12.073  10.836 -0.9620 -4.8402 -0.9617
  840MOL0     H10820   8.246  12.103  10.987  1.4353 -1.7016  0.3778
  840MOL0     H10821   8.033  12.039  11.101  0.3237 -0.3690 -0.5813
  840MOL0     H10822   7.950  12.051  10.948  1.1947 -3.6117  2.4224
  840MOL0     H10823   8.106  12.260  11.107  0.5333 -1.5059 -0.2503
  840MOL0     H10824   8.064  12.281  10.942  0.1188  1.2327  0.9006
  840MOL0     H10825   7.811  12.313  11.018 -2.6236 -2.8019  1.5954
  840MOL0     H10826   7.928  12.394  11.126  0.3887  0.2622 -0.6494
  840MOL0     H10827   7.909  12.180  11.277 -0.1321 -2.4959 -0.5711
  840MOL0     H10828   7.809  12.106  11.149  0.5464  1.2629 -2.0824
  840MOL0     H10829   7.648  12.288  11.168  0.6823 -2.6969 -1.5992
  840MOL0     H10830   7.657  12.154  11.295  4.1144 -1.0138  2.8632
  840MOL0     H10831   7.743  12.444  11.309  0.5860 -1.0576 -0.2879
  840MOL0     H10832   7.791  12.328  11.440 -0.4392  0.1532  1.0036
  840MOL0     H10833   7.547  12.202  11.553  0.8326  0.9717  0.2019
  840MOL0     H10834   7.197  12.353  11.569  2.2260  1.1112 -0.1614
  840MOL0     H10835   7.282  12.226  11.648 -2.5683 -0.3427  0.2856
  840MOL0     H10836   7.279  12.093  11.423 -0.4823 -1.0565  0.8842
  840MOL0     H10837   7.149  12.218  11.394  0.2914  2.7040  2.4607
  840MOL0     H10838   7.099  11.975  11.484 -2.2737  2.1544 -1.2920
  840MOL0     H10839   7.148  12.033  11.653 -0.1665  0.8687  1.5199
  840MOL0     H10840   6.940  12.148  11.474  1.6985 -2.4461 -1.2085
  840MOL0     H10841   6.974  12.209  11.641  0.2238  1.1031 -1.1097
  840MOL0     H10842   6.733  12.233  11.597  2.2287 -1.7808 -0.7586
  840MOL0     H10843   6.490  12.231  11.587  1.0285  0.8714  0.2623
  840MOL0     H10844   6.023  12.008  11.649  2.6209 -0.5346  2.0464
  840MOL0     H10845   5.803  11.915  11.647 -1.3833 -0.7543  0.9648
  840MOL0     H10846   5.581  11.641  11.685  0.9011 -3.6476 -3.5035
  840MOL0     H10847   5.704  11.755  11.756  6.7097  0.2879 -2.7305
  840MOL0     H10848   5.842  11.536  11.815  0.1943  1.1463 -2.0669
  840MOL0     H10849   5.685  11.452  11.777 -0.2227 -0.6927  2.0205
  840MOL0     H10850   5.719  11.659  11.999 -0.0810 -1.3979  3.2722
  840MOL0     H10851   5.712  11.490  12.010  2.7633  0.6380  0.0769
  840MOL0     H10852   5.488  11.674  11.906  1.3137  0.9982  0.2902
  840MOL0     H10853   5.487  11.494  11.891  0.7339 -0.2519  0.4176
  840MOL0     H10854   5.499  11.660  12.141 -0.1923  0.3953 -2.6260
  840MOL0     H10855   5.514  11.480  12.136 -1.6257 -1.0772  1.5975
  840MOL0     H10856   5.292  11.468  12.027 -1.0897 -0.6078  0.2737
  840MOL0     H10857   5.258  11.632  12.078 -0.3850 -1.0261 -1.7074
  840MOL0     H10858   5.322  11.385  12.259 -2.2632 -0.5217  1.0722
  840MOL0     H10859   5.318  11.550  12.329  0.3225  0.6223 -0.3817
  840MOL0     H10860   5.072  11.545  12.278  2.1532  1.0370  1.2028
  840MOL0     H10861   5.115  11.391  12.349 -0.2193  1.1784  0.4067
  840MOL0     H10862   5.986  11.526  11.557 -0.1806 -0.1959  0.5148
  840MOL0     H10863   6.210  11.623  11.590 -0.4011 -0.8196 -0.0479
  840MOL0     H10864   6.497  11.800  11.650 -0.9452  0.2753 -2.2085
  840MOL0     H10865   6.746  11.814  11.658  0.5395  0.1467  1.4739
  840MOL0     H10866   8.035  11.691  10.674  0.6800  0.9365  1.1858
  840MOL0     H10867   8.094  11.451  10.631  0.1855 -1.5943 -0.2188
  840MOL0     H10868   8.510  11.073  10.837 -2.1721  1.2496  3.7031
  840MOL0     H10869   8.535  10.838  10.751  0.4046  0.8298  0.7787
  840MOL0     H10870   8.158  10.603  10.667  1.5883  0.9256  2.9796
  840MOL0     H10871   8.294  10.494  10.629  0.3557  0.6704  0.2616
  840MOL0     H10872   8.228  10.748  10.460  0.0044  0.0638 -1.0022
  840MOL0     H10873   8.353  10.628  10.419  0.2684  2.1677 -0.1167
  840MOL0     H10874   8.064  10.535  10.441 -0.2039 -0.8100 -1.2152
  840MOL0     H10875   8.207  10.454  10.380  1.7679  0.2197  0.3702
  840MOL0     H10876   8.078  10.692  10.251  0.8518 -1.8278 -0.0440
  840MOL0     H10877   8.229  10.621  10.201  0.5165 -0.1879  0.1119
  840MOL0     H10878   7.905  10.375  10.058  0.5108  0.6059 -1.4981
  840MOL0     H10879   8.108  10.817  10.684  0.4941 -2.7165  0.0136
  840MOL0     H10880   8.089  11.051  10.738  0.2594  1.4174  0.5685
  841MOL0     O10881   7.388   0.792   4.872  0.0639  0.4499 -0.6798
  841MOL0     C10882   7.382   0.859   4.975 -0.6223  0.3643  0.9070
  841MOL0     O10883   7.285   0.945   5.007  0.1809  0.1855 -0.0383
  841MOL0     C10884   7.175   0.956   4.928  0.0902  0.6201  0.3725
  841MOL0     C10885   7.067   0.875   4.952 -0.4195 -0.5849  0.3412
  841MOL0     C10886   6.951   0.893   4.883  0.9530  0.6822  0.3894
  841MOL0     C10887   6.931   0.994   4.792  0.6676  0.0695  0.4646
  841MOL0     O10888   6.813   0.980   4.718  0.3393 -0.0816  0.1488
  841MOL0     C10889   6.801   1.069   4.602  0.0810  0.6355  0.1261
  841MOL0     C10890   6.679   1.038   4.523  0.9050  0.3229 -0.5231
  841MOL0     C10891   6.546   1.092   4.595 -0.5204 -0.8465  0.5676
  841MOL0     C10892   6.425   1.039   4.525 -0.1320  0.8149  0.3395
  841MOL0     C10893   6.291   1.065   4.589  0.3356  0.4665 -0.2682
  841MOL0     C10894   6.257   1.212   4.578  0.1769 -0.0870  0.4884
  841MOL0     C10895   6.128   1.233   4.668 -0.1822 -0.1341 -0.0646
  841MOL0     C10896   6.118   1.385   4.715 -0.3999 -0.0290 -0.7570
  841MOL0     N10897   6.088   1.468   4.604  0.0795 -0.4634  0.1185
  841MOL0     C10898   5.959   1.516   4.579  0.5466  0.4132 -0.7141
  841MOL0     C10899   5.973   1.578   4.462 -0.1106  0.2786  0.5232
  841MOL0     C10900   5.860   1.646   4.385  0.0280 -0.2464 -0.8915
  841MOL0     C10901   5.756   1.723   4.466  0.1404  0.3776 -0.9886
  841MOL0     C10902   5.622   1.724   4.390 -0.3929 -0.7415 -0.0360
  841MOL0     C10903   5.542   1.611   4.432  1.2487  0.2836 -0.0758
  841MOL0     O10904   5.480   1.650   4.553 -0.2217  0.0699 -0.8665
  841MOL0     C10905   5.347   1.611   4.575  1.5259 -1.0650 -0.2527
  841MOL0     C10906   5.238   1.674   4.513 -0.1403 -0.7156  0.3905
  841MOL0     C10907   5.105   1.637   4.554 -0.5991 -0.7030  0.0215
  841MOL0     C10908   5.076   1.543   4.657 -0.2244  0.2638 -0.6671
  841MOL0     C10909   4.931   1.508   4.693  0.3244  0.0153 -0.3395
  841MOL0     O10910   4.924   1.422   4.797 -0.5155 -0.5282 -0.1337
  841MOL0     C10911   4.808   1.359   4.850  0.0787  0.1081  0.1798
  841MOL0     C10912   4.819   1.310   4.976 -0.6743 -0.8965 -0.5969
  841MOL0     C10913   4.710   1.246   5.042  0.0924  0.1872 -0.3427
  841MOL0     C10914   4.590   1.226   4.974  0.5142 -0.3577  1.3297
  841MOL0     O10915   4.481   1.168   5.037  0.3508  0.3066 -0.1735
  841MOL0     C10916   4.516   1.083   5.157  0.0652 -0.4129  0.2065
  841MOL0     C10917   4.400   0.977   5.153 -0.4632 -0.1347 -0.4025
  841MOL0     C10918   4.279   1.055   5.197  0.3645  0.0043 -0.4668
  841MOL0     C10919   4.157   0.963   5.225 -0.3510  1.0054 -0.2014
  841MOL0     C10920   4.081   0.943   5.093  0.3266  0.1076  0.4645
  841MOL0     C10921   3.971   0.838   5.101 -0.0821 -0.2551  0.2118
  841MOL0     C10922   3.871   0.890   5.203  0.1149 -0.0113 -0.5846
  841MOL0     C10923   3.784   0.777   5.275  0.0581 -1.1213  0.3572
  841MOL0    Cl10924   3.678   0.692   5.153 -0.0952 -0.3848  0.0121
  841MOL0     C10925   4.576   1.292   4.844 -0.1223  0.1754 -0.0553
  841MOL0     C10926   4.684   1.353   4.788 -0.0787 -0.0644 -0.6954
  841MOL0     O10927   4.840   1.550   4.626  0.3072  0.8998  0.4156
  841MOL0     C10928   5.192   1.477   4.704  0.4186 -0.1104 -0.7073
  841MOL0     C10929   5.321   1.510   4.668  0.3790 -1.1216 -0.1553
  841MOL0     N10930   6.106   1.573   4.425  0.6347 -0.0771 -0.7965
  841MOL0     N10931   6.170   1.499   4.505 -0.8042  0.4476 -0.3165
  841MOL0     C10932   7.041   1.081   4.765 -0.4831  0.8969 -0.0539
  841MOL0     C10933   7.162   1.056   4.837  0.3071  0.1788  0.2788
  841MOL0     C10934   7.491   0.833   5.070 -0.2316  0.2592 -0.1070
  841MOL0     C10935   7.477   0.884   5.195 -0.1995  0.3248  0.1049
  841MOL0     C10936   7.581   0.866   5.291 -0.0025  0.1554  0.1585
  841MOL0     C10937   7.691   0.788   5.262 -0.0959  0.4102 -0.0148
  841MOL0     O10938   7.780   0.741   5.353 -0.3121  0.8578 -0.5170
  841MOL0     C10939   7.801   0.801   5.483  0.2310  0.2172 -1.1625
  841MOL0     C10940   7.908   0.725   5.560 -0.4611 -0.0988 -0.0304
  841MOL0     C10941   8.045   0.787   5.537  1.1325  0.3702 -0.0702
  841MOL0     C10942   8.156   0.717   5.612 -0.4500  1.3583  0.8960
  841MOL0     C10943   8.279   0.796   5.604 -0.4011  0.8202  0.2188
  841MOL0     C10944   8.374   0.865   5.609  0.7707 -0.5936 -1.2297
  841MOL0     C10945   7.706   0.729   5.131 -0.7730  0.9212  0.1049
  841MOL0     C10946   7.602   0.759   5.039 -0.0027 -0.2305 -0.5822
  841MOL0     H10947   7.081   0.793   5.022 -0.6878  1.4752  2.9843
  841MOL0     H10948   6.868   0.823   4.887  0.5129  1.0491 -1.3050
  841MOL0     H10949   6.893   1.069   4.544 -0.7947 -2.0297 -1.4287
  841MOL0     H10950   6.779   1.170   4.637  0.3353  0.8840 -0.4282
  841MOL0     H10951   6.683   0.930   4.502  1.9018  0.9205 -3.9473
  841MOL0     H10952   6.694   1.086   4.427 -1.0103  0.5384 -0.7517
  841MOL0     H10953   6.547   1.201   4.590  2.3793 -0.8581 -0.9164
  841MOL0     H10954   6.536   1.061   4.700 -2.1341 -1.2602  0.3179
  841MOL0     H10955   6.422   1.089   4.427  1.3847  1.1865  0.4517
  841MOL0     H10956   6.430   0.932   4.501  0.2267  1.0717 -0.8188
  841MOL0     H10957   6.290   1.029   4.692  0.2940  0.3791 -0.2991
  841MOL0     H10958   6.221   0.998   4.538  3.0999 -1.0722 -2.3250
  841MOL0     H10959   6.235   1.238   4.474 -0.5664 -2.5660 -0.0306
  841MOL0     H10960   6.341   1.278   4.603 -2.0071  2.6584  1.2418
  841MOL0     H10961   6.039   1.200   4.613 -1.0464  0.3378  1.0176
  841MOL0     H10962   6.135   1.168   4.755 -1.5969 -1.0576 -0.6049
  841MOL0     H10963   6.217   1.415   4.752 -0.1164 -0.6127 -1.0263
  841MOL0     H10964   6.047   1.395   4.798  0.9688 -3.6180  1.0241
  841MOL0     H10965   5.873   1.497   4.643 -2.2500 -0.7611 -4.4685
  841MOL0     H10966   5.816   1.556   4.342  0.4761 -0.0448 -1.7966
  841MOL0     H10967   5.894   1.709   4.302 -0.4652  2.1698  0.6409
  841MOL0     H10968   5.796   1.824   4.483  2.5515  0.1953 -4.4366
  841MOL0     H10969   5.751   1.680   4.566  0.4517  2.5839  0.0496
  841MOL0     H10970   5.556   1.810   4.404 -1.0738 -1.2799  0.1559
  841MOL0     H10971   5.646   1.706   4.285 -1.5547 -0.4260 -0.3745
  841MOL0     H10972   5.605   1.522   4.436 -0.5281 -1.0240  0.2414
  841MOL0     H10973   5.469   1.600   4.351  2.3569 -0.6745 -0.9890
  841MOL0     H10974   5.243   1.751   4.437 -1.3179  0.2989  1.2993
  841MOL0     H10975   5.028   1.701   4.511 -1.7701 -0.3844  2.4124
  841MOL0     H10976   4.908   1.329   5.035 -2.3797 -4.0207  3.5650
  841MOL0     H10977   4.712   1.214   5.146 -0.1205  0.5846 -0.2141
  841MOL0     H10978   4.531   1.144   5.246  0.0559  0.6074 -0.4709
  841MOL0     H10979   4.609   1.031   5.136  0.0443 -0.1104 -0.7085
  841MOL0     H10980   4.409   0.891   5.220 -0.8943  1.0516  1.2354
  841MOL0     H10981   4.380   0.953   5.048 -0.4346  2.6295 -1.1215
  841MOL0     H10982   4.258   1.137   5.129 -0.2532  1.6005  1.5392
  841MOL0     H10983   4.291   1.109   5.291 -0.7314 -1.8058  0.7950
  841MOL0     H10984   4.195   0.866   5.260  2.2001  2.3811  1.1134
  841MOL0     H10985   4.108   0.990   5.319 -1.4216 -0.6032 -0.2467
  841MOL0     H10986   4.146   0.913   5.009 -0.9648 -1.6821  0.0526
  841MOL0     H10987   4.037   1.036   5.059 -0.0133  0.4624  1.8178
  841MOL0     H10988   4.018   0.742   5.125  1.2191 -0.2774 -2.0923
  841MOL0     H10989   3.915   0.829   5.007 -1.1339  2.6864  0.4412
  841MOL0     H10990   3.925   0.944   5.282 -0.8475  3.9001 -2.3580
  841MOL0     H10991   3.797   0.956   5.157  0.7638  1.5963  0.5463
  841MOL0     H10992   3.716   0.815   5.352  0.1322 -0.2096 -0.0119
  841MOL0     H10993   3.849   0.710   5.332  0.6956  1.3317  2.7433
  841MOL0     H10994   4.476   1.292   4.803 -0.1481  2.3572 -0.1026
  841MOL0     H10995   4.670   1.404   4.693 -0.2403  2.5281  0.6187
  841MOL0     H10996   5.189   1.393   4.773  1.4469 -0.7891 -1.4640
  841MOL0     H10997   5.408   1.471   4.720  1.0827  1.6515  0.9410
  841MOL0     H10998   7.033   1.169   4.701 -1.9973  1.8885  1.4004
  841MOL0     H10999   7.244   1.127   4.830  1.8977 -1.4853  1.3504
  841MOL0     H11000   7.403   0.953   5.233  0.0179  0.8250 -0.3729
  841MOL0     H11001   7.569   0.905   5.392 -0.2499 -2.9207  1.4534
  841MOL0     H11002   7.712   0.798   5.547  0.6418  0.0030 -0.5915
  841MOL0     H11003   7.833   0.905   5.477 -2.5772  1.1593 -1.5815
  841MOL0     H11004   7.895   0.741   5.667  1.3838  0.6584  0.1217
  841MOL0     H11005   7.914   0.623   5.521  1.5132  0.1658 -0.5286
  841MOL0     H11006   8.032   0.892   5.567  0.2017  0.2090  0.1151
  841MOL0     H11007   8.072   0.768   5.433  1.8911 -0.5047  0.2714
  841MOL0     H11008   8.139   0.702   5.719  3.0213  1.5865  1.6017
  841MOL0     H11009   8.161   0.623   5.556 -4.9123  0.1753  2.1391
  841MOL0     H11010   8.466   0.921   5.611 -0.3719  1.3737  0.6464
  841MOL0     H11011   7.794   0.669   5.111  0.5421  2.6073  0.5513
  841MOL0     H11012   7.615   0.733   4.935 -0.9235  0.5608 -0.9075
  842MOL0     O11013   7.807   4.075   2.088  1.2104  0.2953  0.5074
  842MOL0     C11014   7.732   4.007   2.025 -0.6199  0.4096 -0.3547
  842MOL0     O11015   7.597   4.020   2.015 -0.3023  0.9031 -0.4786
  842MOL0     C11016   7.533   4.127   2.071 -0.2381  0.9398  0.4196
  842MOL0     C11017   7.583   4.257   2.054 -0.7271  0.1705  0.2958
  842MOL0     C11018   7.520   4.376   2.097  0.0514  0.8304 -0.2364
  842MOL0     C11019   7.405   4.368   2.181 -0.9067 -0.3177 -0.2262
  842MOL0     O11020   7.342   4.475   2.237  0.3015 -0.4890 -0.5831
  842MOL0     C11021   7.391   4.605   2.211 -0.0773 -1.0106 -0.4689
  842MOL0     C11022   7.344   4.729   2.290  0.2606  0.0144  0.6909
  842MOL0     C11023   7.430   4.759   2.420  0.9725 -0.3655  0.5068
  842MOL0     C11024   7.459   4.629   2.497  0.8843 -0.0711  0.2663
  842MOL0     C11025   7.559   4.649   2.610  0.2449  0.5079 -0.1870
  842MOL0     C11026   7.569   4.541   2.725 -0.0787  0.0421 -0.1378
  842MOL0     C11027   7.698   4.566   2.807 -0.1520  0.4968  1.4631
  842MOL0     C11028   7.688   4.498   2.939 -0.2385  0.2166  0.7264
  842MOL0     N11029   7.802   4.526   3.027 -0.3176 -0.0342 -0.2915
  842MOL0     C11030   7.933   4.514   2.994  0.2374  1.2542  1.4228
  842MOL0     C11031   8.008   4.562   3.098  0.7392  0.4741 -0.8419
  842MOL0     C11032   8.160   4.549   3.111  0.6549  0.2027 -1.0215
  842MOL0     C11033   8.225   4.670   3.055 -0.0403  0.1204 -0.9667
  842MOL0     C11034   8.187   4.798   3.126  0.5382 -0.5592 -1.0886
  842MOL0     C11035   8.286   4.909   3.133 -0.7482 -1.3856  0.1340
  842MOL0     O11036   8.235   5.021   3.215 -0.5241 -0.6701 -0.2061
  842MOL0     C11037   8.329   5.117   3.243 -0.6031  0.7153  0.1061
  842MOL0     C11038   8.450   5.137   3.173  0.3019  0.4512  0.8965
  842MOL0     C11039   8.543   5.237   3.210  0.4727 -0.3564 -0.2736
  842MOL0     C11040   8.505   5.337   3.304  0.3029  0.6701  0.0768
  842MOL0     C11041   8.601   5.455   3.332  0.1363 -0.5947 -0.3170
  842MOL0     O11042   8.571   5.540   3.432  0.4331 -0.1516  0.0913
  842MOL0     C11043   8.640   5.657   3.461  0.3120 -0.4809 -0.0451
  842MOL0     C11044   8.746   5.727   3.391  0.3260  0.2647 -0.5574
  842MOL0     C11045   8.801   5.849   3.423 -0.1433  0.6119  0.1933
  842MOL0     C11046   8.757   5.913   3.537 -0.3020  0.2923 -0.0215
  842MOL0     O11047   8.838   6.019   3.568  0.4821 -0.0010 -0.8397
  842MOL0     C11048   8.785   6.102   3.679 -0.3455  0.1642  0.3244
  842MOL0     C11049   8.852   6.233   3.702  0.2379 -1.1910 -0.3045
  842MOL0     C11050   8.774   6.317   3.807  0.1038  0.6282  0.4511
  842MOL0     C11051   8.841   6.443   3.836 -0.1207 -0.1006 -0.0158
  842MOL0     C11052   8.754   6.548   3.883 -0.3391  0.8351 -0.6008
  842MOL0     C11053   8.837   6.623   3.982 -0.4159 -0.1251 -0.2881
  842MOL0     C11054   8.754   6.750   4.031 -0.8290  0.3308  0.9117
  842MOL0     C11055   8.845   6.845   4.125 -0.4100  0.5511  0.3505
  842MOL0    Cl11056   8.737   6.980   4.159  0.3223 -0.0311  0.0776
  842MOL0     C11057   8.651   5.853   3.610 -0.1355 -0.1472 -0.3359
  842MOL0     C11058   8.601   5.726   3.574  0.5031 -1.7212 -0.0322
  842MOL0     O11059   8.694   5.464   3.253 -0.1585  0.0532  0.8181
  842MOL0     C11060   8.386   5.316   3.377 -0.2588 -0.8993  0.0003
  842MOL0     C11061   8.299   5.212   3.344  0.1997  0.2165  0.1597
  842MOL0     N11062   7.917   4.623   3.190  0.7882 -0.4718  0.6255
  842MOL0     N11063   7.794   4.597   3.145  0.4633  0.5012 -0.0618
  842MOL0     C11064   7.355   4.242   2.195  0.2924 -0.2985  0.0751
  842MOL0     C11065   7.417   4.127   2.146  0.1332  0.4758  0.8954
  842MOL0     C11066   7.784   3.881   1.988 -0.0506  0.5981  0.4939
  842MOL0     C11067   7.901   3.827   2.041  0.4891 -0.2013 -0.0960
  842MOL0     C11068   7.964   3.719   1.993 -0.1935  0.0641 -0.8726
  842MOL0     C11069   7.906   3.647   1.889  0.0566 -0.6756 -0.0018
  842MOL0     O11070   7.956   3.540   1.826  0.8815  0.7457 -0.3963
  842MOL0     C11071   8.095   3.531   1.809  0.3323 -0.6545 -0.0515
  842MOL0     C11072   8.157   3.461   1.926  0.7135 -0.3273 -0.6517
  842MOL0     C11073   8.304   3.498   1.941 -0.0972  0.3121 -0.1006
  842MOL0     C11074   8.388   3.433   1.828 -0.2628  0.5409 -0.2896
  842MOL0     C11075   8.519   3.493   1.825 -0.0033  0.1295 -0.1033
  842MOL0     C11076   8.626   3.541   1.860  0.0894  0.5118 -0.0844
  842MOL0     C11077   7.784   3.687   1.842  0.1533 -0.6960  0.3396
  842MOL0     C11078   7.724   3.804   1.885 -0.0041 -0.4858  0.3714
  842MOL0     H11079   7.677   4.276   2.003 -0.6277 -1.7955 -0.3249
  842MOL0     H11080   7.591   4.456   2.078 -0.2021  1.5494  1.6350
  842MOL0     H11081   7.358   4.615   2.107 -1.5533  0.6465  0.1094
  842MOL0     H11082   7.499   4.615   2.199 -0.2554  0.3286 -1.0884
  842MOL0     H11083   7.242   4.714   2.326 -0.2502  1.8690  0.1504
  842MOL0     H11084   7.344   4.822   2.232  1.2817  0.7733  1.8589
  842MOL0     H11085   7.381   4.827   2.490 -1.3948 -0.4985 -0.9069
  842MOL0     H11086   7.519   4.813   2.386  2.4460 -1.1210  2.9276
  842MOL0     H11087   7.367   4.583   2.535  2.4750 -3.0108  0.8796
  842MOL0     H11088   7.503   4.553   2.431  2.1270  0.9236 -0.0798
  842MOL0     H11089   7.538   4.743   2.663 -0.6271 -0.3427  1.0322
  842MOL0     H11090   7.657   4.676   2.571 -0.0838 -0.5747 -1.8170
  842MOL0     H11091   7.583   4.447   2.672 -0.6876 -0.3596  0.3953
  842MOL0     H11092   7.477   4.542   2.784 -1.2024 -1.9145 -1.7647
  842MOL0     H11093   7.776   4.530   2.739 -2.5076  0.7256 -1.6094
  842MOL0     H11094   7.710   4.672   2.832 -3.1374  1.2684  0.1553
  842MOL0     H11095   7.685   4.390   2.926  1.1179 -0.3365  3.9885
  842MOL0     H11096   7.592   4.527   2.983 -2.5334  1.3260 -4.3199
  842MOL0     H11097   7.969   4.455   2.910  0.7363  2.5620  0.6899
  842MOL0     H11098   8.200   4.465   3.054 -0.2017  0.2626 -1.7446
  842MOL0     H11099   8.191   4.532   3.214  1.7161  1.3457 -1.1394
  842MOL0     H11100   8.196   4.680   2.950 -1.9313 -2.5410 -0.7985
  842MOL0     H11101   8.333   4.660   3.071  0.4341  3.5161 -1.2652
  842MOL0     H11102   8.108   4.834   3.060 -0.1757  1.5419  0.7770
  842MOL0     H11103   8.140   4.773   3.221 -1.6323  2.0453 -1.3555
  842MOL0     H11104   8.309   4.945   3.032  0.5129  2.2919  1.5851
  842MOL0     H11105   8.373   4.862   3.179 -0.4286 -3.1239 -2.0620
  842MOL0     H11106   8.473   5.094   3.076  1.2582  0.4424  1.1166
  842MOL0     H11107   8.637   5.255   3.159  0.3143  2.0065  0.1448
  842MOL0     H11108   8.795   5.671   3.312  0.8980 -1.6257  1.0444
  842MOL0     H11109   8.884   5.890   3.366 -1.6248  0.0981 -2.5174
  842MOL0     H11110   8.757   6.046   3.769  0.4589 -2.0453 -0.7281
  842MOL0     H11111   8.682   6.127   3.651 -0.8906 -0.6478  1.5117
  842MOL0     H11112   8.859   6.285   3.606  1.8746  2.7017  1.6886
  842MOL0     H11113   8.948   6.209   3.750  0.0476 -1.2884  0.0293
  842MOL0     H11114   8.775   6.263   3.902  0.9043  2.1000  1.3190
  842MOL0     H11115   8.675   6.329   3.763  1.4378  1.6529 -2.5416
  842MOL0     H11116   8.931   6.420   3.894 -0.1016  0.9623  0.4013
  842MOL0     H11117   8.892   6.482   3.747  0.1398 -0.9591 -0.2488
  842MOL0     H11118   8.658   6.512   3.923  0.9082  0.4297  2.2161
  842MOL0     H11119   8.727   6.614   3.800  4.6268 -0.3916 -3.5720
  842MOL0     H11120   8.935   6.654   3.945  0.2638 -0.0578  1.4895
  842MOL0     H11121   8.853   6.551   4.063  0.5336  2.3613  1.8945
  842MOL0     H11122   8.730   6.810   3.943 -1.0688 -1.5661 -0.3583
  842MOL0     H11123   8.665   6.704   4.075  0.7598 -3.2950  0.7083
  842MOL0     H11124   8.943   6.873   4.085  0.4837  0.6085  2.4243
  842MOL0     H11125   8.866   6.779   4.209 -2.6195 -3.4361 -1.9310
  842MOL0     H11126   8.602   5.904   3.693 -3.1778 -0.9792 -1.4874
  842MOL0     H11127   8.516   5.696   3.635 -1.1220  1.0473 -0.7414
  842MOL0     H11128   8.361   5.392   3.451 -2.0957 -0.2605 -1.1855
  842MOL0     H11129   8.197   5.212   3.380 -0.7201 -0.6219 -2.2359
  842MOL0     H11130   7.258   4.242   2.244  0.2768  1.6762  0.1087
  842MOL0     H11131   7.354   4.040   2.163  0.0184  0.1165 -1.0773
  842MOL0     H11132   7.942   3.889   2.120 -3.7314  0.6185  1.7193
  842MOL0     H11133   8.055   3.682   2.038 -1.2000 -0.3861  0.9014
  842MOL0     H11134   8.136   3.632   1.814 -1.5167  0.0749  1.5395
  842MOL0     H11135   8.116   3.488   1.710 -0.4102  0.4304 -0.6931
  842MOL0     H11136   8.103   3.482   2.019  2.6381  1.6173  0.1008
  842MOL0     H11137   8.143   3.353   1.912 -0.4660  0.0768 -3.2096
  842MOL0     H11138   8.326   3.452   2.038 -0.3557 -2.8181 -1.3969
  842MOL0     H11139   8.301   3.607   1.941  1.5236  0.4558 -3.2043
  842MOL0     H11140   8.400   3.328   1.859 -0.1398  1.1764  1.9985
  842MOL0     H11141   8.340   3.442   1.731 -0.3715  0.3168 -0.2570
  842MOL0     H11142   8.724   3.577   1.883  1.1760 -1.3645 -1.4977
  842MOL0     H11143   7.731   3.630   1.766 -2.5005  1.7435  0.1809
  842MOL0     H11144   7.632   3.840   1.839  0.3925 -0.3701 -0.3549
  843MOL0     O11145  10.106   2.865   2.707  0.0295  0.5464  0.1053
  843MOL0     C11146  10.203   2.787   2.709 -0.7339  0.6105  0.2327
  843MOL0     O11147  10.211   2.670   2.646  0.3715  0.5497  0.2660
  843MOL0     C11148  10.113   2.606   2.584  1.3990 -0.9424  1.0147
  843MOL0     C11149  10.142   2.475   2.540  0.3665  0.0381  0.3647
  843MOL0     C11150  10.042   2.389   2.483  0.1810  0.6944 -0.6489
  843MOL0     C11151   9.905   2.433   2.462 -0.6858 -0.2711  0.1412
  843MOL0     O11152   9.806   2.361   2.406  1.2142  0.2822 -0.3916
  843MOL0     C11153   9.838   2.227   2.370  0.2487  0.5430 -0.5301
  843MOL0     C11154   9.710   2.166   2.317  0.1690  0.1548  0.8718
  843MOL0     C11155   9.731   2.014   2.297  0.4625  0.4930  1.1397
  843MOL0     C11156   9.731   1.921   2.420  0.0527 -0.9894 -0.5592
  843MOL0     C11157   9.627   1.966   2.525 -0.1645 -0.4488 -0.0916
  843MOL0     C11158   9.630   1.882   2.653 -1.1438 -0.0750 -0.0946
  843MOL0     C11159   9.519   1.920   2.756  0.4004  0.2020 -0.0724
  843MOL0     C11160   9.383   1.870   2.720  0.3856 -0.5340 -0.7149
  843MOL0     N11161   9.273   1.916   2.807 -0.2516  0.2364  0.0617
  843MOL0     C11162   9.140   1.892   2.783 -0.3507 -0.2076 -0.5547
  843MOL0     C11163   9.075   1.954   2.893 -0.4786  0.1592  0.0175
  843MOL0     C11164   8.940   1.971   2.910 -0.5339  0.1045 -0.7468
  843MOL0     C11165   8.900   1.868   3.028  0.7215 -0.0142  0.1546
  843MOL0     C11166   8.753   1.897   3.069 -0.4140 -0.6689  0.5559
  843MOL0     C11167   8.648   1.900   2.954 -0.2484 -0.0116 -0.1658
  843MOL0     O11168   8.526   1.912   3.021 -0.1392 -0.1134 -0.2961
  843MOL0     C11169   8.409   1.917   2.951 -0.3410  0.0729  0.4311
  843MOL0     C11170   8.387   1.952   2.818 -0.7216 -0.1200  0.1610
  843MOL0     C11171   8.262   1.930   2.763 -0.4081 -0.5932 -0.2897
  843MOL0     C11172   8.157   1.873   2.833  1.0865 -0.2818 -0.4069
  843MOL0     C11173   8.033   1.839   2.761  0.0817 -0.0933 -0.5015
  843MOL0     O11174   7.930   1.777   2.823  0.4589 -1.0184 -0.0657
  843MOL0     C11175   7.821   1.751   2.753 -0.2105 -0.5949  0.8647
  843MOL0     C11176   7.798   1.616   2.720 -0.0627 -0.6279  0.4556
  843MOL0     C11177   7.681   1.578   2.663  0.2838 -0.8465  0.1812
  843MOL0     C11178   7.586   1.676   2.623 -0.5174 -0.3141 -0.2326
  843MOL0     O11179   7.461   1.625   2.584 -0.2596 -0.1963  0.5933
  843MOL0     C11180   7.425   1.676   2.458 -0.5119 -0.3557  0.2525
  843MOL0     C11181   7.282   1.629   2.430  0.1849  0.2635  0.1752
  843MOL0     C11182   7.289   1.478   2.399 -0.7752 -0.6827 -0.2785
  843MOL0     C11183   7.167   1.428   2.332 -0.5137  0.2998  0.2604
  843MOL0     C11184   7.168   1.271   2.339  0.6763  0.4212  0.3664
  843MOL0     C11185   7.078   1.207   2.250  0.6954 -0.7835  0.7108
  843MOL0     C11186   6.933   1.218   2.285 -0.0451 -0.0468  1.2502
  843MOL0     C11187   6.847   1.138   2.183 -0.3880 -0.0644  0.6150
  843MOL0    Cl11188   6.813   0.989   2.259  1.0622  0.3441 -0.4317
  843MOL0     C11189   7.613   1.813   2.644  0.5927  0.1010  0.3782
  843MOL0     C11190   7.730   1.850   2.709  0.4357  0.0727 -0.6303
  843MOL0     O11191   8.043   1.856   2.637 -0.0710  0.1719 -0.6759
  843MOL0     C11192   8.176   1.840   2.967  0.4257 -0.5190  0.0087
  843MOL0     C11193   8.302   1.872   3.024 -0.3133  1.0284  0.9274
  843MOL0     N11194   9.175   2.011   2.965 -0.3700 -0.1131 -0.2961
  843MOL0     N11195   9.288   1.984   2.924 -0.9580  0.1514  0.2349
  843MOL0     C11196   9.883   2.565   2.510  0.1476  0.4649 -0.4643
  843MOL0     C11197   9.979   2.648   2.566  0.2356  0.1584  0.2008
  843MOL0     C11198  10.326   2.835   2.777 -0.0092  0.0380 -0.5708
  843MOL0     C11199  10.434   2.758   2.778 -0.6802  0.3444 -1.0250
  843MOL0     C11200  10.547   2.781   2.859  0.0429 -0.9092  1.0875
  843MOL0     C11201  10.553   2.900   2.923  0.1031  0.5956 -0.7965
  843MOL0     O11202  10.653   2.912   3.021  0.8391  0.5650 -0.6910
  843MOL0     C11203  10.701   3.040   3.062  0.1756  0.6369 -0.0969
  843MOL0     C11204  10.853   3.012   3.113  1.0766 -0.4268  0.4765
  843MOL0     C11205  10.933   2.955   2.995  0.6070  0.2391  1.1499
  843MOL0     C11206  11.052   2.879   3.044 -0.1124  0.2291  0.6176
  843MOL0     C11207  11.140   2.963   3.120 -1.0491 -0.3417 -0.2002
  843MOL0     C11208  11.221   3.027   3.176 -1.0068 -0.4851 -0.5268
  843MOL0     C11209  10.446   2.997   2.914 -0.1900  0.2346  0.0360
  843MOL0     C11210  10.330   2.955   2.844  0.0965 -0.8103 -0.2848
  843MOL0     H11211  10.243   2.441   2.560 -0.2033 -0.7219  2.1266
  843MOL0     H11212  10.066   2.283   2.473  0.5105  0.5112  1.6057
  843MOL0     H11213   9.882   2.183   2.460  0.4799 -0.7411 -1.2464
  843MOL0     H11214   9.910   2.210   2.290  1.0327  0.3653  0.1891
  843MOL0     H11215   9.703   2.216   2.220  5.0180 -0.9679 -0.3334
  843MOL0     H11216   9.627   2.184   2.386 -0.0395  0.8478  0.4442
  843MOL0     H11217   9.824   1.991   2.245  0.9331 -1.7728  2.8057
  843MOL0     H11218   9.641   1.990   2.241 -0.2624 -0.0990  2.4988
  843MOL0     H11219   9.716   1.818   2.386  2.8370 -0.7440 -2.9045
  843MOL0     H11220   9.831   1.922   2.464  0.8470  0.7881 -2.2773
  843MOL0     H11221   9.525   1.948   2.491 -0.7296  3.4872 -0.9753
  843MOL0     H11222   9.648   2.070   2.551 -2.8171 -0.0630  0.7658
  843MOL0     H11223   9.728   1.912   2.692 -0.2548  0.2950 -2.4382
  843MOL0     H11224   9.644   1.774   2.645  1.1647 -0.0006  1.6838
  843MOL0     H11225   9.538   1.878   2.855 -0.8582  1.5642  0.7769
  843MOL0     H11226   9.511   2.027   2.777  2.2527  0.2350  0.7009
  843MOL0     H11227   9.373   1.761   2.720 -1.6586 -0.3995 -0.9065
  843MOL0     H11228   9.363   1.901   2.617 -0.7041  3.6143  0.5387
  843MOL0     H11229   9.099   1.844   2.695 -2.0924  0.1061  0.0533
  843MOL0     H11230   8.891   1.937   2.819  1.4229 -0.3091 -1.6887
  843MOL0     H11231   8.893   2.065   2.942  0.3785 -0.2985  2.0907
  843MOL0     H11232   8.968   1.883   3.113  3.1138 -0.7630 -1.5060
  843MOL0     H11233   8.915   1.763   3.002 -0.2992  0.3463 -2.0896
  843MOL0     H11234   8.721   1.827   3.147 -2.6232 -0.6007 -0.2087
  843MOL0     H11235   8.744   1.988   3.130  3.7805  0.4371 -0.1906
  843MOL0     H11236   8.656   1.809   2.894  0.9151 -0.5143  0.7114
  843MOL0     H11237   8.665   1.987   2.892 -1.6822  2.1978  2.3179
  843MOL0     H11238   8.476   1.982   2.762 -0.9084 -2.1713 -1.3447
  843MOL0     H11239   8.250   1.957   2.659  2.5214 -0.1679 -0.5962
  843MOL0     H11240   7.877   1.549   2.752 -1.5762 -1.2072  3.3204
  843MOL0     H11241   7.663   1.474   2.641 -0.6066 -0.7578  0.4513
  843MOL0     H11242   7.492   1.641   2.379  1.3072  1.5268  0.8821
  843MOL0     H11243   7.431   1.785   2.460  4.1129 -0.2999  4.8040
  843MOL0     H11244   7.249   1.687   2.343  1.6775 -0.0892 -0.6727
  843MOL0     H11245   7.217   1.637   2.517 -0.7977  0.9774 -0.6072
  843MOL0     H11246   7.309   1.416   2.487  3.6456  3.8674  2.4780
  843MOL0     H11247   7.378   1.458   2.338  0.2031 -1.5155  1.3583
  843MOL0     H11248   7.076   1.464   2.381  0.4462  3.4904 -0.0915
  843MOL0     H11249   7.163   1.442   2.224 -1.6605 -2.4559 -0.1403
  843MOL0     H11250   7.157   1.242   2.444 -0.3961  3.1143  1.0873
  843MOL0     H11251   7.265   1.233   2.305  0.2757  0.1033 -0.4443
  843MOL0     H11252   7.087   1.098   2.242 -2.9431 -1.1393 -0.6585
  843MOL0     H11253   7.101   1.251   2.152  4.6623 -0.4045  1.6343
  843MOL0     H11254   6.914   1.164   2.378  0.9807 -1.3256  0.7345
  843MOL0     H11255   6.903   1.323   2.283  0.9361  0.2385  0.7408
  843MOL0     H11256   6.897   1.117   2.088  0.2496 -2.4783  1.4375
  843MOL0     H11257   6.753   1.189   2.159  0.5635  2.0336  1.1256
  843MOL0     H11258   7.555   1.901   2.618 -0.3186 -1.0440 -1.7649
  843MOL0     H11259   7.740   1.953   2.740  1.4663 -0.4087  0.7645
  843MOL0     H11260   8.099   1.778   3.013  0.9323 -1.8779 -0.9283
  843MOL0     H11261   8.325   1.851   3.128 -2.5813  0.3332  1.3435
  843MOL0     H11262   9.786   2.608   2.487  1.2726  3.0459 -0.7629
  843MOL0     H11263   9.956   2.750   2.593 -0.9108 -0.8116  3.2631
  843MOL0     H11264  10.427   2.660   2.731  1.3953 -0.0579 -0.5939
  843MOL0     H11265  10.629   2.712   2.874  2.4975  1.5127 -0.2973
  843MOL0     H11266  10.643   3.067   3.150  1.4917 -1.2971  1.4584
  843MOL0     H11267  10.706   3.108   2.977  1.3532 -1.6593 -1.9923
  843MOL0     H11268  10.902   3.103   3.148 -0.4462  0.9494 -0.7721
  843MOL0     H11269  10.843   2.937   3.191  0.1613 -2.1317 -1.1913
  843MOL0     H11270  10.966   3.038   2.932  2.3803 -1.4918 -0.3153
  843MOL0     H11271  10.882   2.884   2.929  0.4672  2.5611 -1.4220
  843MOL0     H11272  11.022   2.800   3.113  0.8210  2.2232  3.5000
  843MOL0     H11273  11.109   2.832   2.963  0.0745  0.0488  0.8536
  843MOL0     H11274  11.286   3.086   3.237 -0.0865 -1.3681 -0.6259
  843MOL0     H11275  10.452   3.084   2.979 -0.5180  0.0293  0.3473
  843MOL0     H11276  10.244   3.020   2.837  0.5813  0.4594  3.1185
  844MOL0     O11277   1.736  10.193   5.604  0.4411  0.0547 -0.3942
  844MOL0     C11278   1.779  10.169   5.489 -0.0377 -0.1205  0.5393
  844MOL0     O11279   1.699  10.152   5.381  0.1980 -0.0631  0.3246
  844MOL0     C11280   1.564  10.148   5.408 -0.6732 -0.3206 -1.2823
  844MOL0     C11281   1.481  10.260   5.428 -1.2533  0.7694 -0.1059
  844MOL0     C11282   1.354  10.248   5.479  0.4948 -0.3243 -0.1716
  844MOL0     C11283   1.299  10.119   5.508 -0.3439 -0.5302  0.5967
  844MOL0     O11284   1.175  10.099   5.556  0.7293  0.7770 -0.4531
  844MOL0     C11285   1.097  10.222   5.597 -0.2594 -0.2876  0.2201
  844MOL0     C11286   0.971  10.155   5.646  1.1453  0.4515 -0.1250
  844MOL0     C11287   0.871  10.262   5.688 -0.6813 -0.2615 -0.3138
  844MOL0     C11288   0.745  10.215   5.757 -0.0507 -0.3079 -0.2515
  844MOL0     C11289   0.752  10.081   5.850 -0.4008  0.0538  0.0336
  844MOL0     C11290   0.619  10.011   5.899 -0.2255 -1.1468 -0.0070
  844MOL0     C11291   0.647   9.863   5.955 -0.7373 -0.2440  0.4912
  844MOL0     C11292   0.551   9.828   6.074  0.0633 -1.0400  0.1998
  844MOL0     N11293   0.563   9.697   6.126 -0.3504  0.3110  1.0367
  844MOL0     C11294   0.529   9.589   6.049  0.1304  0.3605  0.2391
  844MOL0     C11295   0.523   9.483   6.136 -0.2181  0.7523 -0.2223
  844MOL0     C11296   0.484   9.334   6.118  0.7636 -0.3801 -0.4090
  844MOL0     C11297   0.601   9.262   6.056 -0.2229  0.0875 -0.1462
  844MOL0     C11298   0.584   9.110   6.063  0.5547 -0.6000  0.7060
  844MOL0     C11299   0.649   9.037   5.950 -0.1052 -0.1191 -0.8977
  844MOL0     O11300   0.792   9.049   5.951  0.9428  1.1938 -0.0410
  844MOL0     C11301   0.864   8.972   5.857 -0.3791  0.7962 -0.0996
  844MOL0     C11302   1.000   9.010   5.850  0.2582 -0.2598  0.5452
  844MOL0     C11303   1.084   8.944   5.761 -0.3204 -0.6087  0.2114
  844MOL0     C11304   1.043   8.839   5.675  0.4875  0.0514 -0.2679
  844MOL0     C11305   1.131   8.776   5.562 -0.8064  0.5436 -0.1283
  844MOL0     O11306   1.074   8.705   5.464 -0.5286  0.3432  0.9508
  844MOL0     C11307   1.153   8.678   5.351  0.0759  0.6567  0.1814
  844MOL0     C11308   1.204   8.549   5.330 -0.8245 -0.4064  0.3060
  844MOL0     C11309   1.270   8.522   5.206 -0.3796  0.1397 -1.0045
  844MOL0     C11310   1.303   8.625   5.112 -0.0537  0.1354 -0.3501
  844MOL0     O11311   1.365   8.607   4.988 -0.0153 -0.1287 -0.5982
  844MOL0     C11312   1.475   8.516   4.997 -0.4485 -0.0229  0.2484
  844MOL0     C11313   1.550   8.530   4.864  0.9073 -0.4515  0.6008
  844MOL0     C11314   1.635   8.418   4.803  0.2767  0.4171  0.0285
  844MOL0     C11315   1.711   8.455   4.673  0.1369  0.8607 -0.7328
  844MOL0     C11316   1.777   8.330   4.619 -0.3283 -0.5695  1.6024
  844MOL0     C11317   1.826   8.364   4.472  0.1998 -0.2790  0.2471
  844MOL0     C11318   1.909   8.244   4.412 -0.0554 -0.8961 -0.4922
  844MOL0     C11319   1.947   8.278   4.273 -0.7206  0.5061  0.5144
  844MOL0    Cl11320   2.103   8.184   4.250  0.1467  0.2251  0.3969
  844MOL0     C11321   1.267   8.752   5.152 -0.7165 -0.3009 -0.2146
  844MOL0     C11322   1.194   8.779   5.274  0.7505  0.2858 -0.3141
  844MOL0     O11323   1.255   8.792   5.576  0.5892  0.2851  0.6631
  844MOL0     C11324   0.912   8.802   5.680  0.7384  0.4723 -0.7881
  844MOL0     C11325   0.831   8.858   5.782 -0.0470  0.5245 -0.7185
  844MOL0     N11326   0.575   9.525   6.256 -0.6700  0.0555  0.3975
  844MOL0     N11327   0.609   9.653   6.250 -0.4095  1.0573 -0.0781
  844MOL0     C11328   1.378  10.010   5.468 -0.5611  0.0705 -0.0446
  844MOL0     C11329   1.509  10.026   5.425 -0.0453  0.0887  0.6514
  844MOL0     C11330   1.924  10.138   5.463 -0.7710 -0.6685  0.6774
  844MOL0     C11331   2.005  10.085   5.572  0.0072  0.3456  0.4709
  844MOL0     C11332   2.134  10.058   5.559 -1.6659  0.1112  1.1194
  844MOL0     C11333   2.195  10.086   5.431 -0.6958  0.6727 -0.3481
  844MOL0     O11334   2.328  10.088   5.418 -0.5711  0.4013  0.0667
  844MOL0     C11335   2.391   9.977   5.476 -0.0121 -0.2988 -0.2395
  844MOL0     C11336   2.516   9.957   5.387  0.1398  0.7553  0.2564
  844MOL0     C11337   2.591   9.827   5.416  0.6469 -0.9361 -0.2644
  844MOL0     C11338   2.707   9.824   5.326 -0.3370  0.1848  0.2771
  844MOL0     C11339   2.778   9.704   5.378 -1.0227 -0.4574 -0.0877
  844MOL0     C11340   2.845   9.615   5.432 -0.4729  0.4753  1.0243
  844MOL0     C11341   2.119  10.139   5.322 -0.1210 -1.0240 -0.5815
  844MOL0     C11342   1.981  10.154   5.334 -1.0878  0.0229 -0.0157
  844MOL0     H11343   1.520  10.359   5.404  0.3074  0.0271 -0.8142
  844MOL0     H11344   1.297  10.340   5.491  1.5663  0.2530  0.7066
  844MOL0     H11345   1.066  10.299   5.525  1.9637 -2.0973 -2.9431
  844MOL0     H11346   1.156  10.269   5.677 -3.0253  0.8916  1.7171
  844MOL0     H11347   1.001  10.089   5.728  1.4809  1.3937  0.5278
  844MOL0     H11348   0.933  10.086   5.570  3.0400 -1.0219  0.1817
  844MOL0     H11349   0.838  10.315   5.598 -0.7382 -0.2432 -0.2820
  844MOL0     H11350   0.915  10.335   5.757 -0.8138 -4.1691  4.3728
  844MOL0     H11351   0.697  10.297   5.812  0.5736  0.6448 -1.0930
  844MOL0     H11352   0.682  10.196   5.669  1.6489 -0.5240 -1.4734
  844MOL0     H11353   0.804  10.116   5.939 -1.1300 -0.6567  0.7535
  844MOL0     H11354   0.800  10.004   5.790  0.5223  0.2025  0.5609
  844MOL0     H11355   0.555  10.006   5.810  0.0959  0.5468 -0.3720
  844MOL0     H11356   0.580  10.073   5.980 -1.9139 -2.1162 -0.0247
  844MOL0     H11357   0.644   9.788   5.876  0.7131  2.0136 -1.8787
  844MOL0     H11358   0.752   9.860   5.986  0.3246 -0.6657 -2.7994
  844MOL0     H11359   0.450   9.834   6.031 -0.5211  2.3912  1.6930
  844MOL0     H11360   0.563   9.904   6.152 -2.1347 -0.1009 -0.2960
  844MOL0     H11361   0.503   9.586   5.944  1.6956 -0.0173 -0.1680
  844MOL0     H11362   0.399   9.329   6.048  0.0164  3.4697 -0.0029
  844MOL0     H11363   0.465   9.306   6.222  1.7544 -0.4555 -0.2483
  844MOL0     H11364   0.691   9.290   6.112 -0.3007  1.7111 -0.7885
  844MOL0     H11365   0.603   9.288   5.950  1.4721  0.0390 -0.1523
  844MOL0     H11366   0.582   9.065   6.163  2.0570 -4.0323 -0.6955
  844MOL0     H11367   0.479   9.099   6.032  0.6405  2.1669 -0.9425
  844MOL0     H11368   0.615   9.066   5.849 -0.9739 -2.7404 -1.4271
  844MOL0     H11369   0.610   8.937   5.968  0.6263 -0.2316  0.1112
  844MOL0     H11370   1.039   9.094   5.905  2.9878  1.2514 -3.2747
  844MOL0     H11371   1.188   8.973   5.755 -0.0662 -1.3549  0.7467
  844MOL0     H11372   1.204   8.476   5.410  1.5214  0.6834  1.4028
  844MOL0     H11373   1.299   8.419   5.188 -0.3174  0.0597 -0.4520
  844MOL0     H11374   1.446   8.410   4.995 -1.6662  0.2272  2.2584
  844MOL0     H11375   1.538   8.524   5.086  0.5966 -1.6078 -0.2893
  844MOL0     H11376   1.599   8.628   4.867 -1.2455  0.6785  2.8182
  844MOL0     H11377   1.466   8.553   4.797  0.4940  0.7932  1.5021
  844MOL0     H11378   1.569   8.332   4.787 -1.6564  1.4842  1.9329
  844MOL0     H11379   1.692   8.397   4.894  0.0387  1.4258  0.4197
  844MOL0     H11380   1.643   8.486   4.593 -1.4499 -5.3859 -2.3645
  844MOL0     H11381   1.787   8.529   4.699  1.6392  0.1658 -2.9387
  844MOL0     H11382   1.700   8.253   4.606  1.1090 -1.7359 -0.6842
  844MOL0     H11383   1.856   8.298   4.687  1.2261 -2.2401 -0.8026
  844MOL0     H11384   1.883   8.455   4.489 -0.6634  0.1431  0.9472
  844MOL0     H11385   1.747   8.394   4.403  2.0321  2.4837 -0.8211
  844MOL0     H11386   2.007   8.231   4.461  1.1083  0.1634 -2.4029
  844MOL0     H11387   1.845   8.156   4.423 -5.0946  2.1876 -1.9414
  844MOL0     H11388   1.978   8.382   4.267 -3.0252  1.2481  0.6812
  844MOL0     H11389   1.871   8.243   4.203  0.9291 -2.1086 -0.1572
  844MOL0     H11390   1.304   8.839   5.100  1.6018  1.1054  3.3978
  844MOL0     H11391   1.178   8.882   5.304 -1.8257  1.2529 -4.1538
  844MOL0     H11392   0.866   8.733   5.610 -0.4609  2.2441 -1.8275
  844MOL0     H11393   0.731   8.824   5.805  0.4131  0.4671  1.4170
  844MOL0     H11394   1.329   9.913   5.473 -1.9879  0.7733  0.1074
  844MOL0     H11395   1.564   9.934   5.410  0.9893  0.7625  0.1885
  844MOL0     H11396   1.973  10.072   5.675  2.5379 -0.6796  1.2149
  844MOL0     H11397   2.192  10.030   5.646  1.4377 -1.7575 -1.2948
  844MOL0     H11398   2.333   9.884   5.479  1.1640 -1.0310  1.0444
  844MOL0     H11399   2.428  10.014   5.572  1.4992 -0.5842 -0.6938
  844MOL0     H11400   2.482   9.946   5.283  1.5511 -7.0412  0.0684
  844MOL0     H11401   2.587  10.039   5.406  2.2719 -1.1932  1.1389
  844MOL0     H11402   2.519   9.745   5.408 -0.0581 -0.2602 -1.1053
  844MOL0     H11403   2.630   9.827   5.518  1.3161 -2.0267 -0.5068
  844MOL0     H11404   2.681   9.810   5.221 -2.7557 -0.8573  0.9595
  844MOL0     H11405   2.777   9.907   5.347  0.2275 -0.3861  0.7022
  844MOL0     H11406   2.902   9.532   5.469  1.1996  0.7142 -0.8483
  844MOL0     H11407   2.146  10.164   5.220 -3.2297  2.0386 -0.8161
  844MOL0     H11408   1.921  10.190   5.251  0.3731 -0.7401 -1.4621
  845MOL0     O11409   0.469   9.572   5.691 -0.0807 -0.8028 -0.4704
  845MOL0     C11410   0.481   9.510   5.584 -0.8272 -0.6346 -0.1498
  845MOL0     O11411   0.493   9.573   5.463 -0.0845  0.2386  0.0360
  845MOL0     C11412   0.513   9.709   5.458  0.8112 -0.4612 -0.6184
  845MOL0     C11413   0.624   9.761   5.500  0.2347  0.5808  1.4904
  845MOL0     C11414   0.644   9.902   5.496 -0.6939 -0.8616  0.1331
  845MOL0     C11415   0.553   9.997   5.447 -0.1370  0.5984  0.5496
  845MOL0     O11416   0.597  10.125   5.440 -0.1870 -0.5383 -0.7740
  845MOL0     C11417   0.547  10.217   5.343 -0.2312  0.1365 -0.2380
  845MOL0     C11418   0.634  10.348   5.356  1.0617  0.0282  0.5892
  845MOL0     C11419   0.777  10.314   5.316 -0.1593  0.1257  0.5392
  845MOL0     C11420   0.888  10.424   5.310 -0.3485  2.1980 -0.6420
  845MOL0     C11421   0.993  10.371   5.211  0.8507  0.2975 -0.1481
  845MOL0     C11422   1.103  10.478   5.211  0.4394  0.3205  0.7498
  845MOL0     C11423   1.182  10.485   5.082  0.0257  0.7837  0.7363
  845MOL0     C11424   1.103  10.511   4.944  0.0468 -0.7749  0.2766
  845MOL0     N11425   1.200  10.531   4.838 -0.2377 -0.3146  0.0095
  845MOL0     C11426   1.203  10.468   4.719  0.5051 -0.1224  0.8355
  845MOL0     C11427   1.300  10.537   4.647  0.0302 -0.0726 -0.2014
  845MOL0     C11428   1.344  10.489   4.513 -0.4685 -0.4056  0.0379
  845MOL0     C11429   1.464  10.388   4.516 -0.5804 -0.2823  0.8714
  845MOL0     C11430   1.577  10.439   4.612 -0.7250  0.5273  0.2422
  845MOL0     C11431   1.655  10.568   4.577  0.3596 -0.0175 -0.6979
  845MOL0     O11432   1.784  10.597   4.654  1.4385  0.2379  0.2243
  845MOL0     C11433   1.798  10.700   4.742  0.3924  0.0205  1.4259
  845MOL0     C11434   1.697  10.797   4.767 -0.5795  1.0204  0.4045
  845MOL0     C11435   1.730  10.913   4.842 -0.2997  0.9392 -0.1320
  845MOL0     C11436   1.858  10.918   4.920  0.0888  0.4071  0.3032
  845MOL0     C11437   1.894  11.031   5.005  0.0982  0.3110  0.3522
  845MOL0     O11438   1.800  11.133   4.997 -0.6658  0.1131 -0.4831
  845MOL0     C11439   1.797  11.239   5.088  0.4484  0.5679  0.4280
  845MOL0     C11440   1.707  11.332   5.041 -0.1454 -0.3924  0.2792
  845MOL0     C11441   1.685  11.451   5.106 -0.5413 -0.4966  0.2795
  845MOL0     C11442   1.744  11.478   5.231  0.5635  1.0132 -0.9434
  845MOL0     O11443   1.709  11.580   5.310 -0.0337 -0.7584 -0.6698
  845MOL0     C11444   1.615  11.683   5.262 -0.4932  0.1821 -1.2819
  845MOL0     C11445   1.614  11.808   5.357 -0.3204 -0.0254 -0.5424
  845MOL0     C11446   1.470  11.851   5.378  0.1737 -0.3112 -0.9096
  845MOL0     C11447   1.465  11.925   5.516  0.2683 -0.8314 -0.2993
  845MOL0     C11448   1.316  11.963   5.551 -0.2274 -0.5053  0.3022
  845MOL0     C11449   1.233  12.044   5.448  0.6839  0.7158  0.9748
  845MOL0     C11450   1.273  12.199   5.424  0.3068 -0.3473  0.3472
  845MOL0     C11451   1.261  12.287   5.548  0.3520  0.8662 -0.3967
  845MOL0    Cl11452   1.274  12.462   5.517 -0.0193  0.4036  0.2137
  845MOL0     C11453   1.838  11.381   5.280 -0.7239 -0.2833 -0.4530
  845MOL0     C11454   1.866  11.269   5.205 -0.9913 -0.6200 -0.1126
  845MOL0     O11455   1.992  11.025   5.079  0.1920  0.6590  0.9949
  845MOL0     C11456   1.949  10.821   4.886 -0.1863  0.3518 -0.7205
  845MOL0     C11457   1.922  10.713   4.799 -0.2869 -0.2125 -1.2121
  845MOL0     N11458   1.357  10.644   4.724 -0.7018  0.5833 -0.1987
  845MOL0     N11459   1.297  10.633   4.844 -0.6875 -0.2126 -0.4049
  845MOL0     C11460   0.439   9.942   5.384 -0.5799  0.2182 -0.8555
  845MOL0     C11461   0.422   9.806   5.386  0.6101  0.2864  0.4324
  845MOL0     C11462   0.474   9.354   5.591  0.7194  0.3761 -1.7306
  845MOL0     C11463   0.525   9.275   5.492 -0.1550 -0.3908 -0.2743
  845MOL0     C11464   0.541   9.135   5.508  0.7489  0.1864 -0.5402
  845MOL0     C11465   0.484   9.075   5.624 -0.6837  0.3033  0.8936
  845MOL0     O11466   0.480   8.938   5.618 -0.0565  0.0201  0.2268
  845MOL0     C11467   0.395   8.867   5.706  0.3055  0.5202 -1.0218
  845MOL0     C11468   0.248   8.874   5.667  0.7454  0.0129 -0.4823
  845MOL0     C11469   0.158   8.837   5.789 -0.1250  0.0296  0.0792
  845MOL0     C11470   0.167   8.688   5.830 -0.2832 -0.0375  0.1298
  845MOL0     C11471   0.292   8.651   5.889  0.3171  0.2204 -0.0565
  845MOL0     C11472   0.394   8.591   5.943 -0.5671  0.4050  0.4537
  845MOL0     C11473   0.434   9.156   5.727 -0.5929  0.2731  0.2952
  845MOL0     C11474   0.427   9.299   5.713 -0.6377  0.4389 -0.1515
  845MOL0     H11475   0.708   9.704   5.539  2.9680  2.0668 -1.6955
  845MOL0     H11476   0.738   9.941   5.535 -0.1131 -1.3875 -0.7013
  845MOL0     H11477   0.439  10.234   5.342 -0.2354  0.1092 -1.1271
  845MOL0     H11478   0.556  10.188   5.238  0.3377  2.2190 -0.8134
  845MOL0     H11479   0.623  10.384   5.459 -2.7663 -0.2480  0.4005
  845MOL0     H11480   0.589  10.422   5.289 -0.2436  0.5972  2.0363
  845MOL0     H11481   0.776  10.272   5.215  1.7629 -0.6545  0.7963
  845MOL0     H11482   0.812  10.242   5.391 -0.8452  2.5685  3.4004
  845MOL0     H11483   0.847  10.513   5.260 -1.2131  1.0595 -2.0257
  845MOL0     H11484   0.930  10.438   5.409 -1.1127  0.8128 -0.0952
  845MOL0     H11485   0.958  10.363   5.108  1.5629  3.4092 -0.7403
  845MOL0     H11486   1.021  10.272   5.248 -2.6534 -0.3969  1.1191
  845MOL0     H11487   1.161  10.475   5.303 -2.5062 -1.7136  2.7251
  845MOL0     H11488   1.050  10.574   5.212  0.7294  0.6161 -2.5727
  845MOL0     H11489   1.274  10.540   5.104  1.5600 -1.1870 -0.4134
  845MOL0     H11490   1.234  10.389   5.074  0.0079  0.8814 -0.9438
  845MOL0     H11491   1.041  10.601   4.949 -0.3720 -1.0335 -0.2814
  845MOL0     H11492   1.026  10.436   4.926 -0.3067 -0.6502  1.1879
  845MOL0     H11493   1.141  10.385   4.686  2.9274 -1.4322 -0.7067
  845MOL0     H11494   1.374  10.579   4.459 -0.4111  0.3916  1.3639
  845MOL0     H11495   1.261  10.445   4.457 -0.5055 -1.0430  0.5848
  845MOL0     H11496   1.508  10.356   4.421  0.6119  0.4360  1.1580
  845MOL0     H11497   1.431  10.297   4.566 -3.0878  1.1600  2.0547
  845MOL0     H11498   1.539  10.434   4.714  0.7557 -1.1804  0.7658
  845MOL0     H11499   1.649  10.360   4.635 -2.3306 -0.9375  0.4514
  845MOL0     H11500   1.585  10.651   4.588  1.3641  0.6155  1.2759
  845MOL0     H11501   1.677  10.549   4.472 -1.4059 -0.4723 -1.0239
  845MOL0     H11502   1.608  10.811   4.707  0.4549 -1.7622 -2.0533
  845MOL0     H11503   1.659  10.995   4.851 -2.7046 -0.7520 -2.3995
  845MOL0     H11504   1.664  11.329   4.942 -1.5606 -0.4762  0.8659
  845MOL0     H11505   1.621  11.519   5.051  3.7996  1.0971 -3.3871
  845MOL0     H11506   1.518  11.632   5.252 -0.2182 -0.4610 -0.7899
  845MOL0     H11507   1.655  11.723   5.169  0.3504  1.8613 -0.2427
  845MOL0     H11508   1.667  11.892   5.312  0.4129 -1.0568 -1.6400
  845MOL0     H11509   1.650  11.771   5.454 -1.3122  2.4029  0.8555
  845MOL0     H11510   1.399  11.768   5.376  1.5268 -1.5080 -0.9654
  845MOL0     H11511   1.448  11.923   5.298  1.0008 -0.4255 -1.2488
  845MOL0     H11512   1.505  11.868   5.600 -0.4485 -2.6766 -1.1506
  845MOL0     H11513   1.522  12.018   5.501  0.4764 -0.9604 -0.3121
  845MOL0     H11514   1.325  12.013   5.648 -1.2139  0.4713 -0.0872
  845MOL0     H11515   1.264  11.869   5.572  2.5657 -2.6499 -1.6202
  845MOL0     H11516   1.132  12.051   5.490 -0.6675  0.6170 -1.9743
  845MOL0     H11517   1.216  11.978   5.362  1.2758  1.6672  0.1038
  845MOL0     H11518   1.377  12.204   5.391  0.0237 -1.5347 -0.8084
  845MOL0     H11519   1.209  12.244   5.348 -1.8809 -1.2372  1.5508
  845MOL0     H11520   1.338  12.252   5.617  3.2181  2.0950 -2.7769
  845MOL0     H11521   1.158  12.269   5.582  0.3863  0.4461 -0.5191
  845MOL0     H11522   1.896  11.398   5.370 -1.0838 -0.2509 -0.2237
  845MOL0     H11523   1.948  11.215   5.251 -0.4748  1.5007  1.6528
  845MOL0     H11524   2.043  10.834   4.939  0.6121  1.2228 -2.2543
  845MOL0     H11525   2.001  10.641   4.780  0.7165  0.4453  0.2428
  845MOL0     H11526   0.365  10.007   5.338 -2.1644 -0.3340  0.8073
  845MOL0     H11527   0.338   9.760   5.337 -0.5229  2.2898  0.3862
  845MOL0     H11528   0.555   9.339   5.409  1.1090  0.4443  0.7901
  845MOL0     H11529   0.582   9.066   5.435  1.5240  1.8078 -1.7080
  845MOL0     H11530   0.417   8.897   5.809  3.8299 -2.6340 -0.6219
  845MOL0     H11531   0.423   8.761   5.700  1.0322  0.6800 -0.6310
  845MOL0     H11532   0.217   8.976   5.642  0.1225  0.1702  0.8809
  845MOL0     H11533   0.212   8.809   5.587 -2.3435  0.8133  0.1393
  845MOL0     H11534   0.055   8.852   5.757 -0.4218 -1.6502  0.1799
  845MOL0     H11535   0.185   8.891   5.880  0.5200 -1.7888  1.0192
  845MOL0     H11536   0.087   8.660   5.900 -2.1693 -0.7546 -2.1521
  845MOL0     H11537   0.150   8.619   5.747  0.7344 -2.3793  1.7847
  845MOL0     H11538   0.481   8.533   5.967 -0.4251 -1.2861 -3.3807
  845MOL0     H11539   0.413   9.118   5.826  0.3640  0.2982  0.5145
  845MOL0     H11540   0.385   9.357   5.795 -1.0521 -0.2336  0.1206
  846MOL0     O11541   5.190   0.896   1.081  0.6646  1.2551  0.1074
  846MOL0     C11542   5.146   1.009   1.086  0.2449  0.6549  0.6664
  846MOL0     O11543   5.039   1.057   1.012 -0.3120 -0.7626 -0.2442
  846MOL0     C11544   4.974   0.965   0.931 -0.0208 -0.6970  0.8272
  846MOL0     C11545   5.024   0.938   0.801 -0.2202 -0.6466  0.0218
  846MOL0     C11546   4.931   0.860   0.721 -0.0537  0.4023 -0.4415
  846MOL0     C11547   4.823   0.791   0.770  0.4922 -0.9818 -1.0058
  846MOL0     O11548   4.740   0.708   0.696 -0.1484 -0.0290 -1.0208
  846MOL0     C11549   4.775   0.690   0.555 -0.3594  0.0383  0.1026
  846MOL0     C11550   4.687   0.576   0.496  0.5207 -0.3020  0.6330
  846MOL0     C11551   4.538   0.584   0.526 -0.4797  0.6499  0.5383
  846MOL0     C11552   4.479   0.724   0.498 -0.1343  0.6327 -0.9499
  846MOL0     C11553   4.324   0.712   0.467 -0.2187  0.0105  0.3715
  846MOL0     C11554   4.307   0.645   0.331 -0.7277 -0.3056  0.3389
  846MOL0     C11555   4.165   0.669   0.275 -0.2028 -0.5088  0.4811
  846MOL0     C11556   4.149   0.644   0.126 -0.0442 -0.3557  0.6515
  846MOL0     N11557   4.018   0.666   0.065  0.5110 -0.1745 -1.0406
  846MOL0     C11558   3.930   0.565   0.053  0.8345  0.0202 -0.8477
  846MOL0     C11559   3.854   0.602  -0.055  0.4953  0.2831 -1.1071
  846MOL0     C11560   3.756   0.500  -0.129 -0.6333  0.2979  0.1741
  846MOL0     C11561   3.643   0.566  -0.215  0.1080 -0.0059  0.8018
  846MOL0     C11562   3.524   0.469  -0.237  0.2450 -0.5441  0.2898
  846MOL0     C11563   3.565   0.341  -0.320  0.1837 -1.0695  0.0976
  846MOL0     O11564   3.457   0.245  -0.297 -0.6326 -0.2776 -0.3239
  846MOL0     C11565   3.335   0.254  -0.364 -0.4847 -0.6560 -0.2844
  846MOL0     C11566   3.229   0.164  -0.322 -1.0144 -0.3902 -0.3552
  846MOL0     C11567   3.107   0.176  -0.373  1.0063 -1.0159  0.1480
  846MOL0     C11568   3.078   0.271  -0.470  0.2768  0.4932  0.2297
  846MOL0     C11569   2.943   0.295  -0.522  0.1808 -0.6047 -0.4185
  846MOL0     O11570   2.935   0.355  -0.650  0.9183 -0.0938 -0.4246
  846MOL0     C11571   2.832   0.324  -0.736  0.5195  1.5078  0.1289
  846MOL0     C11572   2.731   0.223  -0.717 -0.5250  0.4793 -0.0164
  846MOL0     C11573   2.640   0.201  -0.822 -0.0688 -0.0316  0.4206
  846MOL0     C11574   2.640   0.276  -0.939  0.3945 -0.2805  0.4375
  846MOL0     O11575   2.546   0.250  -1.035  0.3022 -0.0101 -0.4869
  846MOL0     C11576   2.564   0.297  -1.166 -0.9156 -0.2551  0.4461
  846MOL0     C11577   2.509   0.437  -1.179  0.0014  0.3415 -0.0318
  846MOL0     C11578   2.589   0.509  -1.287 -0.2414  0.6917 -0.1122
  846MOL0     C11579   2.542   0.663  -1.309  1.0332  0.0204  0.6285
  846MOL0     C11580   2.398   0.661  -1.369  0.7235  0.6735 -0.7071
  846MOL0     C11581   2.356   0.803  -1.408 -0.1309 -0.1764  0.2881
  846MOL0     C11582   2.368   0.841  -1.560 -0.4189  0.5256 -0.0548
  846MOL0     C11583   2.254   0.792  -1.641 -0.7426  1.4074 -0.3751
  846MOL0    Cl11584   2.299   0.730  -1.796 -0.1200  0.2925  0.4264
  846MOL0     C11585   2.732   0.381  -0.954  0.2737 -0.7802  1.1114
  846MOL0     C11586   2.825   0.405  -0.851 -0.0695 -0.1149 -0.2419
  846MOL0     O11587   2.851   0.266  -0.454 -0.8341  0.4130  0.0150
  846MOL0     C11588   3.183   0.359  -0.508  0.0998 -0.4214  0.5276
  846MOL0     C11589   3.310   0.351  -0.465  0.7854  0.1712 -0.4524
  846MOL0     N11590   3.898   0.726  -0.099  0.1549  0.7804 -0.5845
  846MOL0     N11591   3.996   0.762  -0.023 -0.4249  0.7819  0.2883
  846MOL0     C11592   4.789   0.812   0.905  0.2686 -0.2089 -0.1252
  846MOL0     C11593   4.862   0.903   0.974  0.3910  0.3898 -0.1962
  846MOL0     C11594   5.224   1.095   1.179 -1.0742 -0.5313  0.5836
  846MOL0     C11595   5.196   1.235   1.187 -0.3387 -0.0591 -0.3313
  846MOL0     C11596   5.250   1.323   1.289  0.5345  0.3702 -0.3062
  846MOL0     C11597   5.348   1.270   1.376  0.5394  0.4847  0.1145
  846MOL0     O11598   5.395   1.354   1.469 -0.1474  0.1785  0.1314
  846MOL0     C11599   5.487   1.316   1.575  0.1194 -0.9394  0.9849
  846MOL0     C11600   5.417   1.228   1.681  0.1241  0.9739  0.2451
  846MOL0     C11601   5.518   1.216   1.806 -0.6591  0.3984 -0.1640
  846MOL0     C11602   5.479   1.100   1.903 -0.4155 -0.0860 -1.0846
  846MOL0     C11603   5.587   1.091   2.010  0.4795  0.3894 -0.1986
  846MOL0     C11604   5.658   1.104   2.106 -0.2402  0.4578 -0.5112
  846MOL0     C11605   5.387   1.145   1.355 -0.8918  0.2454  0.3714
  846MOL0     C11606   5.337   1.059   1.262 -0.2254 -0.1836  0.0543
  846MOL0     H11607   5.107   0.987   0.752 -1.9435 -0.8200 -3.3480
  846MOL0     H11608   4.959   0.854   0.617 -0.1224 -0.6174 -0.4124
  846MOL0     H11609   4.881   0.665   0.542 -0.0814  0.9387  0.5595
  846MOL0     H11610   4.757   0.783   0.501 -0.7766 -0.4320 -0.5789
  846MOL0     H11611   4.719   0.478   0.534  4.3775  0.4260 -0.2787
  846MOL0     H11612   4.703   0.580   0.388  1.5942  0.3964  0.8100
  846MOL0     H11613   4.522   0.552   0.630 -0.9829 -0.7401  0.0554
  846MOL0     H11614   4.500   0.502   0.466  2.6390 -0.8409  0.3785
  846MOL0     H11615   4.502   0.788   0.584  1.9131 -0.3232 -0.7230
  846MOL0     H11616   4.532   0.764   0.411  0.7401  0.1922 -0.6268
  846MOL0     H11617   4.282   0.813   0.459 -0.8624 -0.3130 -0.5759
  846MOL0     H11618   4.262   0.656   0.537 -0.1502 -2.5636 -1.4793
  846MOL0     H11619   4.321   0.537   0.334 -0.9303 -0.5646 -3.3502
  846MOL0     H11620   4.377   0.692   0.262  3.3883 -1.7494  3.1738
  846MOL0     H11621   4.091   0.613   0.334  1.7078 -1.6019  1.9812
  846MOL0     H11622   4.149   0.776   0.290  0.5710 -0.5883  2.0835
  846MOL0     H11623   4.185   0.545   0.095 -0.3220 -0.0597 -0.6862
  846MOL0     H11624   4.217   0.716   0.080 -0.2456 -0.9251 -0.5727
  846MOL0     H11625   3.926   0.466   0.098  0.9755 -0.5345 -2.0254
  846MOL0     H11626   3.710   0.432  -0.055  1.1248  0.2436  1.2823
  846MOL0     H11627   3.821   0.436  -0.189  0.5423  0.3286  1.3796
  846MOL0     H11628   3.677   0.587  -0.316 -1.4676  0.4824  0.3401
  846MOL0     H11629   3.619   0.668  -0.182  2.6033  0.3667  1.6790
  846MOL0     H11630   3.486   0.437  -0.140 -2.1509  0.9003 -0.1027
  846MOL0     H11631   3.437   0.511  -0.288  1.5125  0.3432 -1.2415
  846MOL0     H11632   3.664   0.298  -0.301  0.6125 -0.2597 -0.2759
  846MOL0     H11633   3.578   0.354  -0.427  0.3389 -1.1214  0.1096
  846MOL0     H11634   3.236   0.093  -0.240 -1.8585  1.7034  1.6210
  846MOL0     H11635   3.018   0.124  -0.340  0.6579  0.0649  0.9681
  846MOL0     H11636   2.717   0.164  -0.628 -2.8419 -0.4011 -0.8873
  846MOL0     H11637   2.558   0.130  -0.813  1.8375 -2.5488 -0.8034
  846MOL0     H11638   2.516   0.221  -1.228 -2.5477 -1.3990  2.9278
  846MOL0     H11639   2.671   0.297  -1.187 -0.7639 -0.5083  1.1863
  846MOL0     H11640   2.511   0.490  -1.083  3.4011  1.3916 -0.5420
  846MOL0     H11641   2.403   0.425  -1.203 -0.4051 -2.8366  2.5854
  846MOL0     H11642   2.576   0.452  -1.379 -1.3080 -0.7790  0.9155
  846MOL0     H11643   2.691   0.499  -1.248 -0.4946  2.1728  1.0331
  846MOL0     H11644   2.525   0.710  -1.212  1.7100  4.2730 -1.0908
  846MOL0     H11645   2.620   0.718  -1.363  0.8140 -0.6688 -0.4362
  846MOL0     H11646   2.330   0.618  -1.296  0.0509  1.5682 -0.7869
  846MOL0     H11647   2.394   0.591  -1.452  0.2759 -4.1242  2.9641
  846MOL0     H11648   2.416   0.870  -1.345 -0.9566  0.5790  0.2871
  846MOL0     H11649   2.250   0.820  -1.385 -0.1855 -0.1574  0.0285
  846MOL0     H11650   2.374   0.950  -1.571 -0.7166  0.6670  1.1039
  846MOL0     H11651   2.465   0.799  -1.590  0.4914  1.7681  1.0095
  846MOL0     H11652   2.186   0.875  -1.658  2.3577  3.7086 -2.6596
  846MOL0     H11653   2.206   0.708  -1.590 -2.3050  1.2757 -1.9689
  846MOL0     H11654   2.739   0.438  -1.045 -1.4199 -3.5899 -0.9570
  846MOL0     H11655   2.904   0.474  -0.880  0.3007  0.2823  1.5825
  846MOL0     H11656   3.156   0.435  -0.580 -0.9422 -0.8976  0.4018
  846MOL0     H11657   3.382   0.422  -0.503 -0.3046  1.1985 -0.6837
  846MOL0     H11658   4.691   0.777   0.934 -0.8472 -0.2964 -3.5373
  846MOL0     H11659   4.826   0.946   1.067 -1.5501  2.9148 -1.9881
  846MOL0     H11660   5.116   1.281   1.130  0.9389 -0.0954 -2.2155
  846MOL0     H11661   5.211   1.423   1.304 -2.2517 -0.6501 -0.0121
  846MOL0     H11662   5.519   1.405   1.630  1.1404  0.2274 -1.3271
  846MOL0     H11663   5.573   1.265   1.530 -0.1282 -1.6253  1.2872
  846MOL0     H11664   5.329   1.268   1.731  1.0797  0.8193  2.1421
  846MOL0     H11665   5.405   1.129   1.636  1.2886 -0.3666  2.7089
  846MOL0     H11666   5.505   1.304   1.869 -0.5030  0.1996  0.1446
  846MOL0     H11667   5.622   1.208   1.775 -0.6641 -1.5634  0.1932
  846MOL0     H11668   5.382   1.128   1.945  0.1613 -0.1138  0.3084
  846MOL0     H11669   5.462   1.004   1.852 -0.2098 -1.9190  2.0688
  846MOL0     H11670   5.722   1.109   2.192  0.3224 -1.5230 -0.7708
  846MOL0     H11671   5.472   1.112   1.414  0.3985 -1.3151 -2.2011
  846MOL0     H11672   5.388   0.964   1.257 -1.7520 -1.0450  0.2793
  847MOL0     O11673   0.300   2.516   0.827 -0.1987 -0.5501  0.0792
  847MOL0     C11674   0.326   2.582   0.722  0.2839 -0.7661 -0.1958
  847MOL0     O11675   0.292   2.721   0.697  0.0283  0.3634  0.0920
  847MOL0     C11676   0.186   2.786   0.745 -0.5463 -0.8947 -0.8223
  847MOL0     C11677   0.155   2.911   0.681 -0.2629  0.0413 -0.6085
  847MOL0     C11678   0.054   2.988   0.733 -0.2142 -0.8268 -0.5249
  847MOL0     C11679  -0.019   2.962   0.852  0.1251  0.3211  0.5649
  847MOL0     O11680  -0.126   3.045   0.888  0.3013  0.2138  0.4049
  847MOL0     C11681  -0.185   3.035   1.026  0.0071  0.5705 -0.1574
  847MOL0     C11682  -0.296   3.136   1.028  1.0500  0.1526  0.3798
  847MOL0     C11683  -0.383   3.150   1.155  0.1243  0.0572  0.1088
  847MOL0     C11684  -0.512   3.229   1.133 -0.4385  0.5094  0.7668
  847MOL0     C11685  -0.602   3.235   1.253 -1.0872  0.2188  0.8645
  847MOL0     C11686  -0.717   3.325   1.252  0.1772 -0.2596  0.9978
  847MOL0     C11687  -0.818   3.259   1.160  1.2153  0.3596  0.4050
  847MOL0     C11688  -0.942   3.347   1.191 -0.2013 -0.4195 -1.2574
  847MOL0     N11689  -1.049   3.317   1.103  0.3348  0.1049 -0.2918
  847MOL0     C11690  -1.105   3.394   1.011  0.6600  0.8032 -0.4116
  847MOL0     C11691  -1.219   3.326   0.970 -0.3382 -0.4201  0.0028
  847MOL0     C11692  -1.313   3.363   0.852  0.5077  0.2102 -0.1576
  847MOL0     C11693  -1.238   3.395   0.719  0.8458 -0.5147  0.1258
  847MOL0     C11694  -1.096   3.318   0.704 -0.0735 -0.4935  0.0702
  847MOL0     C11695  -1.052   3.338   0.557  0.7806  0.1017  0.0753
  847MOL0     O11696  -0.920   3.274   0.546 -0.2859 -0.9113  0.0310
  847MOL0     C11697  -0.843   3.319   0.445  0.8052 -0.5768  0.3185
  847MOL0     C11698  -0.876   3.321   0.311 -0.7221 -0.3346  0.4377
  847MOL0     C11699  -0.779   3.332   0.206  0.2377  0.2451 -0.6239
  847MOL0     C11700  -0.639   3.353   0.244 -0.6149  0.6435 -0.5579
  847MOL0     C11701  -0.534   3.360   0.143  0.2687 -1.3094  0.0663
  847MOL0     O11702  -0.568   3.293   0.028 -0.8441  0.9394 -0.2751
  847MOL0     C11703  -0.499   3.296  -0.093 -0.4506  0.5592 -1.3187
  847MOL0     C11704  -0.417   3.392  -0.135  0.1401 -0.2893  0.2617
  847MOL0     C11705  -0.335   3.367  -0.241 -0.2056  0.6501  0.7115
  847MOL0     C11706  -0.342   3.245  -0.319  0.6618 -0.2434  0.2880
  847MOL0     O11707  -0.264   3.197  -0.418  0.0017  0.1929  0.2855
  847MOL0     C11708  -0.138   3.268  -0.431  0.9722 -0.3495  0.2565
  847MOL0     C11709  -0.177   3.391  -0.535  0.7027  0.8970  0.8855
  847MOL0     C11710  -0.240   3.340  -0.671  1.0479  0.3598  0.6560
  847MOL0     C11711  -0.141   3.243  -0.745 -0.5976 -0.2158  0.2136
  847MOL0     C11712  -0.024   3.317  -0.815 -0.4138  1.1855  0.5027
  847MOL0     C11713   0.094   3.378  -0.736  1.5641 -0.7499 -0.6272
  847MOL0     C11714   0.227   3.367  -0.806  0.8865 -0.0917  0.3615
  847MOL0     C11715   0.329   3.449  -0.726  0.6220  0.0274 -0.1381
  847MOL0    Cl11716   0.286   3.618  -0.748  0.1744 -0.0955  0.1891
  847MOL0     C11717  -0.451   3.169  -0.293  0.2542 -0.1665  0.9135
  847MOL0     C11718  -0.526   3.186  -0.176 -0.5489  0.3633  1.5626
  847MOL0     O11719  -0.432   3.424   0.166 -0.2418 -0.5504 -0.2685
  847MOL0     C11720  -0.608   3.357   0.380 -0.0381 -0.5210 -0.9216
  847MOL0     C11721  -0.711   3.331   0.483  0.6568 -0.2084  0.1118
  847MOL0     N11722  -1.227   3.208   1.037 -0.1015  0.2828  0.0461
  847MOL0     N11723  -1.130   3.207   1.117 -0.0261 -0.2996 -0.9088
  847MOL0     C11724   0.012   2.843   0.922 -0.6446 -0.1788 -0.7690
  847MOL0     C11725   0.112   2.755   0.866 -0.3736  0.5232 -0.3739
  847MOL0     C11726   0.420   2.524   0.624 -0.7545  0.1778 -0.1652
  847MOL0     C11727   0.475   2.600   0.528  0.6171  0.4797 -0.7214
  847MOL0     C11728   0.587   2.558   0.456 -0.3698 -0.2614 -0.0860
  847MOL0     C11729   0.639   2.435   0.472  0.9959 -0.0824  0.0652
  847MOL0     O11730   0.739   2.373   0.391  0.1461 -0.3593  0.3326
  847MOL0     C11731   0.800   2.454   0.288  0.8028 -0.4240 -0.3857
  847MOL0     C11732   0.904   2.557   0.344  0.7154 -0.3219  0.3180
  847MOL0     C11733   1.009   2.486   0.434  0.2989  0.1191 -0.0164
  847MOL0     C11734   1.132   2.578   0.450  1.1155 -0.5807 -0.2227
  847MOL0     C11735   1.233   2.491   0.504 -0.1271  1.0513  0.0532
  847MOL0     C11736   1.328   2.409   0.539  0.7694 -0.0046  0.8880
  847MOL0     C11737   0.565   2.348   0.551 -0.0659 -0.4657  0.1133
  847MOL0     C11738   0.463   2.393   0.633  0.7638  0.2503 -0.1478
  847MOL0     H11739   0.204   2.939   0.589  0.7109 -1.8332 -0.7071
  847MOL0     H11740   0.025   3.081   0.685  4.1468  0.8345 -0.3716
  847MOL0     H11741  -0.102   3.057   1.094 -1.6807  0.6464  1.9944
  847MOL0     H11742  -0.209   2.932   1.054  4.3300 -2.2376 -4.9749
  847MOL0     H11743  -0.370   3.109   0.952 -0.9167  3.3360  0.9923
  847MOL0     H11744  -0.260   3.235   0.999  2.2750  0.1386  1.7347
  847MOL0     H11745  -0.331   3.196   1.239 -0.6143 -2.0978  1.8642
  847MOL0     H11746  -0.391   3.047   1.193  2.1352  0.8378  2.9857
  847MOL0     H11747  -0.478   3.330   1.109  1.8158 -0.4145 -0.1292
  847MOL0     H11748  -0.569   3.190   1.048  0.2853  0.7842  0.1519
  847MOL0     H11749  -0.541   3.257   1.341 -0.7667 -0.5324  0.8392
  847MOL0     H11750  -0.643   3.135   1.274  0.7306 -0.4481  1.4417
  847MOL0     H11751  -0.687   3.422   1.209  1.2178 -0.3936  1.3795
  847MOL0     H11752  -0.746   3.329   1.357  0.1105 -0.0872  0.9735
  847MOL0     H11753  -0.794   3.258   1.054  2.3919  2.3099  0.5980
  847MOL0     H11754  -0.838   3.156   1.190 -0.5696  0.5136 -0.1788
  847MOL0     H11755  -0.928   3.455   1.196  0.4630 -0.5375 -0.2504
  847MOL0     H11756  -0.967   3.322   1.294 -1.1497  1.3410 -1.0320
  847MOL0     H11757  -1.067   3.494   0.997  4.0517 -0.4469 -1.1473
  847MOL0     H11758  -1.361   3.453   0.891  2.4127  0.5162  1.7353
  847MOL0     H11759  -1.384   3.282   0.836  2.3116 -2.2747  3.1115
  847MOL0     H11760  -1.205   3.499   0.711  2.3537 -0.5768  3.5470
  847MOL0     H11761  -1.305   3.370   0.636  0.8780  1.1922 -0.4605
  847MOL0     H11762  -1.024   3.355   0.778 -2.6961  3.1122  1.1046
  847MOL0     H11763  -1.104   3.212   0.730  0.0550 -0.7375 -0.8537
  847MOL0     H11764  -1.038   3.445   0.544  2.5207  0.1793  2.0402
  847MOL0     H11765  -1.121   3.284   0.492 -0.5675 -0.2199  1.7031
  847MOL0     H11766  -0.981   3.299   0.294 -1.8572  2.8408  2.4464
  847MOL0     H11767  -0.809   3.322   0.102  4.0473  3.1268 -2.2458
  847MOL0     H11768  -0.422   3.477  -0.066  1.2365 -1.0984  1.3771
  847MOL0     H11769  -0.254   3.434  -0.268  0.4642 -0.2890  0.3178
  847MOL0     H11770  -0.062   3.196  -0.463  2.0029 -0.2380  2.2702
  847MOL0     H11771  -0.103   3.317  -0.340 -3.1039  0.0559  1.7942
  847MOL0     H11772  -0.078   3.432  -0.553  1.2138 -0.0789  1.3716
  847MOL0     H11773  -0.244   3.465  -0.489  0.2945  1.6246 -0.7897
  847MOL0     H11774  -0.263   3.430  -0.729  0.1276  1.2794  2.3436
  847MOL0     H11775  -0.330   3.279  -0.661 -1.3510  3.4332 -0.5546
  847MOL0     H11776  -0.089   3.175  -0.677 -0.4234  0.7723  1.0878
  847MOL0     H11777  -0.202   3.188  -0.818 -2.0059 -0.0969  1.2616
  847MOL0     H11778  -0.064   3.399  -0.875 -0.2295  0.4095 -0.7373
  847MOL0     H11779   0.017   3.243  -0.885 -2.0625  0.4412  0.2751
  847MOL0     H11780   0.107   3.321  -0.643 -1.3162 -1.8763 -0.8307
  847MOL0     H11781   0.065   3.474  -0.693  2.6103 -0.2794 -0.9374
  847MOL0     H11782   0.248   3.259  -0.809  2.3214  0.1711  0.1079
  847MOL0     H11783   0.223   3.399  -0.910  1.1709 -0.0429  0.3652
  847MOL0     H11784   0.433   3.427  -0.750 -0.2762 -0.7679 -3.9161
  847MOL0     H11785   0.309   3.426  -0.620 -0.4422  0.5462 -0.2092
  847MOL0     H11786  -0.476   3.087  -0.359  0.6971 -2.0431  2.9926
  847MOL0     H11787  -0.594   3.106  -0.149 -2.3153  1.8903  1.8524
  847MOL0     H11788  -0.505   3.373   0.410 -0.5329  0.3995  0.4246
  847MOL0     H11789  -0.691   3.310   0.588  0.3701 -2.0688 -0.1657
  847MOL0     H11790  -0.036   2.818   1.016 -0.7443  1.7117 -0.2844
  847MOL0     H11791   0.135   2.667   0.925  1.5701 -0.1106 -1.9333
  847MOL0     H11792   0.449   2.701   0.495 -1.2693  0.4013  0.4250
  847MOL0     H11793   0.637   2.625   0.386 -0.0328 -0.3344  0.0797
  847MOL0     H11794   0.719   2.505   0.235 -0.2657  2.0773  3.2612
  847MOL0     H11795   0.864   2.387   0.230  1.3328 -0.2124 -0.0513
  847MOL0     H11796   0.952   2.618   0.267  0.9886  0.4958  1.1214
  847MOL0     H11797   0.865   2.628   0.417  0.6544 -1.4902  1.4594
  847MOL0     H11798   1.046   2.398   0.381 -2.5331 -1.0992 -0.1252
  847MOL0     H11799   0.967   2.463   0.532 -0.7432  0.3701 -0.3849
  847MOL0     H11800   1.184   2.616   0.361  1.5221  0.6136  0.4971
  847MOL0     H11801   1.110   2.666   0.511  0.0154  1.1713 -2.9367
  847MOL0     H11802   1.405   2.338   0.562  0.8046  0.2374  1.5444
  847MOL0     H11803   0.592   2.243   0.556  0.4720 -0.2894  1.3816
  847MOL0     H11804   0.420   2.323   0.705  2.3307 -1.8403 -1.1361
  848MOL0     O11805   5.555   2.625   2.357  0.1883 -0.0314 -0.7338
  848MOL0     C11806   5.460   2.547   2.368  0.2531  0.1126  0.0419
  848MOL0     O11807   5.437   2.477   2.481  1.1306  0.2269 -0.3655
  848MOL0     C11808   5.523   2.488   2.590  0.1256  0.5628 -0.0438
  848MOL0     C11809   5.561   2.366   2.648  1.6285  0.6418 -0.5514
  848MOL0     C11810   5.640   2.354   2.755 -0.4225  0.5322 -0.3461
  848MOL0     C11811   5.686   2.473   2.814  0.0452  0.3095 -0.7026
  848MOL0     O11812   5.765   2.438   2.931  0.1563 -0.0082  0.1410
  848MOL0     C11813   5.788   2.547   3.014 -0.3761  0.0695 -0.1440
  848MOL0     C11814   5.918   2.628   2.976  0.3856 -0.0543 -0.0485
  848MOL0     C11815   6.042   2.541   3.013  0.7045 -0.9273  0.1370
  848MOL0     C11816   6.172   2.616   2.987  0.5734 -0.2512  0.0478
  848MOL0     C11817   6.257   2.541   2.891  0.3449  0.2924 -0.0139
  848MOL0     C11818   6.397   2.610   2.903 -0.0890  0.7501  0.1697
  848MOL0     C11819   6.491   2.534   2.994 -0.6584 -0.6584  0.4017
  848MOL0     C11820   6.617   2.618   3.007  0.0086 -0.9998 -0.0383
  848MOL0     N11821   6.688   2.642   2.880 -0.2043  1.2333 -0.9258
  848MOL0     C11822   6.778   2.745   2.852 -0.3069 -0.1955  0.0226
  848MOL0     C11823   6.828   2.722   2.733 -0.4369  0.4401 -0.9842
  848MOL0     C11824   6.913   2.807   2.648 -0.6364  0.2992  0.5814
  848MOL0     C11825   7.049   2.837   2.711  0.2759  0.2550  0.1583
  848MOL0     C11826   7.128   2.907   2.610 -0.4721  0.4407  0.0523
  848MOL0     C11827   7.255   2.949   2.660  0.2524 -0.4223 -0.1322
  848MOL0     O11828   7.216   3.036   2.771 -0.4145  0.2988  0.0093
  848MOL0     C11829   7.324   3.088   2.840 -0.1800  0.3142 -0.5592
  848MOL0     C11830   7.454   3.064   2.805 -0.8140 -0.2263  0.2016
  848MOL0     C11831   7.563   3.117   2.882  0.3886 -0.1168 -0.2116
  848MOL0     C11832   7.546   3.164   3.014 -0.3218 -0.3122  0.5610
  848MOL0     C11833   7.662   3.194   3.095  0.3954 -0.4431  1.0055
  848MOL0     O11834   7.645   3.207   3.228  0.0719 -0.1518  0.0049
  848MOL0     C11835   7.741   3.214   3.329 -0.6220 -0.1531  0.4721
  848MOL0     C11836   7.691   3.191   3.455  0.2992 -1.1463  0.1921
  848MOL0     C11837   7.778   3.201   3.561  0.3381  0.2685  1.5284
  848MOL0     C11838   7.914   3.227   3.541 -0.2306  0.1676 -0.2503
  848MOL0     O11839   8.005   3.239   3.646  0.0742  0.3933 -0.1368
  848MOL0     C11840   8.027   3.115   3.715  0.0424  0.0585 -0.0071
  848MOL0     C11841   8.159   3.131   3.803 -0.0317 -0.5583 -0.8781
  848MOL0     C11842   8.276   3.168   3.713 -0.1997 -0.3410  0.0223
  848MOL0     C11843   8.412   3.120   3.766  1.1310 -0.6562  0.0087
  848MOL0     C11844   8.450   3.175   3.903 -0.3896 -0.4218  0.1514
  848MOL0     C11845   8.593   3.108   3.923 -0.6696 -0.1016 -0.6736
  848MOL0     C11846   8.643   3.139   4.059  0.0568 -0.3705 -0.5648
  848MOL0     C11847   8.790   3.109   4.064 -0.3888  0.4691 -1.1314
  848MOL0    Cl11848   8.839   2.941   4.064  0.3151  0.0801  0.4074
  848MOL0     C11849   7.971   3.236   3.413 -0.0192  0.3908  0.9092
  848MOL0     C11850   7.876   3.238   3.310 -0.8560 -0.0690  0.6921
  848MOL0     O11851   7.769   3.213   3.032  0.4979 -0.7957 -0.2647
  848MOL0     C11852   7.416   3.183   3.051  0.2291  0.2148  0.5896
  848MOL0     C11853   7.304   3.147   2.971  0.1478  0.5873  0.6033
  848MOL0     N11854   6.801   2.590   2.700  0.2122  0.0259 -0.3985
  848MOL0     N11855   6.718   2.544   2.782  0.0102  0.1907 -0.5347
  848MOL0     C11856   5.654   2.591   2.763 -0.1554 -0.1482 -0.1220
  848MOL0     C11857   5.558   2.604   2.658 -0.8940 -0.1574  0.1490
  848MOL0     C11858   5.363   2.520   2.258  1.0378  0.5402  0.9699
  848MOL0     C11859   5.251   2.433   2.270 -0.2983  0.9588 -0.5006
  848MOL0     C11860   5.173   2.412   2.156 -0.1834  0.2177  0.8010
  848MOL0     C11861   5.188   2.463   2.029  1.0226  0.0323 -0.3864
  848MOL0     O11862   5.094   2.424   1.934 -0.5451  0.0271 -0.1441
  848MOL0     C11863   5.150   2.416   1.794  0.9700  0.1120  0.1906
  848MOL0     C11864   5.211   2.283   1.749 -0.8718  0.2839  0.1950
  848MOL0     C11865   5.131   2.165   1.800 -0.6852 -0.0761  0.3208
  848MOL0     C11866   5.185   2.036   1.724 -1.0389  0.1902  0.3805
  848MOL0     C11867   5.125   1.916   1.789 -0.2347 -0.2494  0.4490
  848MOL0     C11868   5.076   1.829   1.859 -0.4089 -0.4426 -0.0875
  848MOL0     C11869   5.285   2.562   2.027 -0.1675  0.8991 -0.9492
  848MOL0     C11870   5.375   2.585   2.129  0.0313  0.2218 -0.8242
  848MOL0     H11871   5.528   2.271   2.605  0.8173 -0.2879  1.9302
  848MOL0     H11872   5.654   2.254   2.796  0.9624  0.9509  0.2736
  848MOL0     H11873   5.791   2.506   3.115 -4.6155 -2.0024 -0.6488
  848MOL0     H11874   5.706   2.620   3.010 -0.0657  0.5029  1.0125
  848MOL0     H11875   5.921   2.723   3.030 -0.4304  0.0364 -0.1532
  848MOL0     H11876   5.905   2.648   2.869 -1.1852  3.1619  0.5988
  848MOL0     H11877   6.038   2.447   2.956  2.9976 -0.7231 -0.4657
  848MOL0     H11878   6.045   2.515   3.119  2.7148  1.5232  0.7730
  848MOL0     H11879   6.157   2.719   2.956 -2.5655  0.0504  2.1120
  848MOL0     H11880   6.223   2.617   3.085 -1.0003 -0.8477  0.9057
  848MOL0     H11881   6.213   2.533   2.791  0.8355 -0.9487 -0.1562
  848MOL0     H11882   6.257   2.436   2.924 -1.2510  0.0606 -0.6833
  848MOL0     H11883   6.390   2.713   2.938 -2.0577 -0.0117  2.2512
  848MOL0     H11884   6.445   2.609   2.805 -0.7136  0.2788 -0.1340
  848MOL0     H11885   6.455   2.525   3.097  4.5115  0.0326  2.6296
  848MOL0     H11886   6.512   2.435   2.954  2.0166  0.9249 -2.5792
  848MOL0     H11887   6.682   2.557   3.071 -1.6662 -0.9779  1.7706
  848MOL0     H11888   6.597   2.711   3.061  1.7366 -0.3198 -0.4919
  848MOL0     H11889   6.788   2.836   2.910 -3.4339  1.3459 -1.5983
  848MOL0     H11890   6.864   2.904   2.645  1.2352  1.5464  4.3267
  848MOL0     H11891   6.919   2.773   2.544 -0.6558 -0.6600  0.8854
  848MOL0     H11892   7.112   2.750   2.734 -0.1190 -0.8610 -2.5569
  848MOL0     H11893   7.026   2.898   2.798 -1.7225 -1.6289  1.0386
  848MOL0     H11894   7.150   2.833   2.532 -0.9272  0.8972 -0.5175
  848MOL0     H11895   7.075   2.994   2.570 -3.2337 -2.1767 -2.5967
  848MOL0     H11896   7.298   3.013   2.582  2.9915 -3.4891 -1.4516
  848MOL0     H11897   7.327   2.872   2.690  0.7451 -1.0678 -2.7144
  848MOL0     H11898   7.475   3.029   2.704  0.3220  2.2512 -0.5125
  848MOL0     H11899   7.657   3.087   2.838  0.2691  0.3847 -0.8223
  848MOL0     H11900   7.585   3.181   3.472  0.3981  0.4656  2.2187
  848MOL0     H11901   7.733   3.191   3.659 -2.8993 -0.7769  0.0938
  848MOL0     H11902   8.047   3.038   3.640  0.1585 -1.2102  1.2922
  848MOL0     H11903   7.940   3.084   3.774 -0.4169  2.0633  0.4466
  848MOL0     H11904   8.188   3.057   3.879 -0.4545  1.3237  1.2252
  848MOL0     H11905   8.131   3.217   3.864 -0.5850 -1.2654 -0.0930
  848MOL0     H11906   8.276   3.275   3.690  2.7562 -0.5421 -1.2909
  848MOL0     H11907   8.262   3.126   3.613 -1.4757  4.9368 -2.3717
  848MOL0     H11908   8.393   3.013   3.776 -1.0425 -0.1853  1.8145
  848MOL0     H11909   8.487   3.154   3.694 -1.3131  1.0275 -1.9453
  848MOL0     H11910   8.378   3.138   3.978  0.1696 -1.6328  0.1254
  848MOL0     H11911   8.448   3.284   3.907 -0.4580 -0.3687 -1.1412
  848MOL0     H11912   8.661   3.137   3.843 -0.7619  0.5488 -0.5252
  848MOL0     H11913   8.575   3.000   3.917 -0.7364 -0.2088  0.8759
  848MOL0     H11914   8.619   3.244   4.076  0.1683 -0.5838  1.0264
  848MOL0     H11915   8.602   3.074   4.136  1.2870  2.8348  3.1004
  848MOL0     H11916   8.829   3.161   4.152 -3.6123  0.7151  0.3173
  848MOL0     H11917   8.837   3.149   3.974  1.9902 -0.9665 -0.6251
  848MOL0     H11918   8.077   3.238   3.390  0.4916 -1.5959  2.7545
  848MOL0     H11919   7.922   3.236   3.212 -1.3113 -0.9198  0.4815
  848MOL0     H11920   7.381   3.222   3.146 -0.0041 -1.1560  1.0923
  848MOL0     H11921   7.202   3.168   3.004  1.0625  1.1132  3.3836
  848MOL0     H11922   5.700   2.680   2.805  1.8743 -2.6724  3.4639
  848MOL0     H11923   5.529   2.696   2.608  0.6504 -0.0906 -0.6905
  848MOL0     H11924   5.232   2.385   2.365 -1.1746  1.5802 -0.3516
  848MOL0     H11925   5.106   2.327   2.154  0.6135 -0.4161 -0.0687
  848MOL0     H11926   5.221   2.495   1.771  0.7476  0.6056  1.1227
  848MOL0     H11927   5.066   2.444   1.730  1.6978  0.7166 -0.5191
  848MOL0     H11928   5.225   2.275   1.641  0.6247  3.0080  0.0953
  848MOL0     H11929   5.308   2.275   1.799  0.0225  1.6984 -1.2284
  848MOL0     H11930   5.026   2.187   1.780 -0.9941 -2.3884 -0.9137
  848MOL0     H11931   5.161   2.158   1.905 -2.1407  0.5739  0.8067
  848MOL0     H11932   5.168   2.033   1.616 -3.1023 -5.9625  0.5032
  848MOL0     H11933   5.292   2.030   1.743 -1.2424 -2.1044  1.0618
  848MOL0     H11934   5.058   1.752   1.931  3.0863 -0.4534  0.9676
  848MOL0     H11935   5.298   2.608   1.929  0.8424  1.1854 -0.6996
  848MOL0     H11936   5.460   2.652   2.117 -0.4337  0.7839 -1.0460
  849MOL0     O11937   6.028   0.493   9.284 -0.4925 -1.0181 -0.8981
  849MOL0     C11938   6.006   0.509   9.171 -0.5102  0.0790  1.3666
  849MOL0     O11939   5.912   0.581   9.107 -0.1097 -0.0819 -0.5140
  849MOL0     C11940   5.787   0.615   9.159  0.2001 -0.5239 -0.7691
  849MOL0     C11941   5.719   0.535   9.253  0.4459 -0.4142 -0.0018
  849MOL0     C11942   5.586   0.563   9.302 -0.3383  0.0761  1.1665
  849MOL0     C11943   5.521   0.685   9.253 -0.3149  0.5069 -0.3320
  849MOL0     O11944   5.399   0.731   9.298 -0.0816 -0.0561 -0.2574
  849MOL0     C11945   5.342   0.672   9.410  1.3545  0.0534  0.8112
  849MOL0     C11946   5.211   0.748   9.448  0.3647  0.2005  0.6263
  849MOL0     C11947   5.090   0.725   9.357  0.1550  0.4218 -0.0575
  849MOL0     C11948   4.975   0.813   9.413  0.6632 -0.9428 -0.1704
  849MOL0     C11949   4.841   0.781   9.352  0.3057  0.1312 -0.0928
  849MOL0     C11950   4.851   0.753   9.201  0.0275  0.1284 -0.7152
  849MOL0     C11951   4.706   0.741   9.133 -0.2174  0.7751 -0.1905
  849MOL0     C11952   4.588   0.707   9.224  0.5564 -1.0553 -0.3847
  849MOL0     N11953   4.460   0.726   9.159  0.5715  0.3813 -0.2773
  849MOL0     C11954   4.434   0.678   9.036  1.0021 -0.1657  0.5069
  849MOL0     C11955   4.317   0.738   9.008 -0.3123  0.7538  0.5367
  849MOL0     C11956   4.244   0.714   8.884  0.0076 -0.5575  0.5760
  849MOL0     C11957   4.119   0.622   8.915 -0.4774 -0.1344 -1.0568
  849MOL0     C11958   4.023   0.618   8.803 -0.4580 -0.5431 -0.0998
  849MOL0     C11959   4.091   0.578   8.669 -0.4259 -0.3394 -0.3471
  849MOL0     O11960   3.988   0.541   8.571  0.1145  0.0367  0.0875
  849MOL0     C11961   3.916   0.428   8.577 -0.0035  0.4720 -1.5314
  849MOL0     C11962   3.824   0.416   8.482 -0.0344  0.9084  0.4461
  849MOL0     C11963   3.754   0.301   8.462  0.3036  0.5042  0.7347
  849MOL0     C11964   3.765   0.190   8.551 -0.0333 -0.7620  0.0011
  849MOL0     C11965   3.693   0.066   8.528  0.1667  0.6069 -0.7606
  849MOL0     O11966   3.633   0.015   8.641  0.0485  0.3166 -0.2201
  849MOL0     C11967   3.557  -0.098   8.627 -0.3054  0.3875 -0.3468
  849MOL0     C11968   3.614  -0.226   8.637  0.4755 -0.3418  0.6438
  849MOL0     C11969   3.541  -0.349   8.623  0.0851 -0.5456 -0.4623
  849MOL0     C11970   3.404  -0.334   8.602  0.3343  0.0666  0.5374
  849MOL0     O11971   3.321  -0.442   8.621 -0.1038 -0.3386  0.0931
  849MOL0     C11972   3.204  -0.463   8.540 -0.3559  0.6129  0.8091
  849MOL0     C11973   3.138  -0.592   8.592 -0.3991  0.7271 -0.2532
  849MOL0     C11974   3.007  -0.627   8.513 -0.0046  0.7433 -0.1523
  849MOL0     C11975   2.906  -0.708   8.591 -0.6974 -0.8130  0.1392
  849MOL0     C11976   2.929  -0.856   8.601  0.1811 -0.4152  0.2922
  849MOL0     C11977   2.963  -0.921   8.468  0.1828 -0.2823 -0.9568
  849MOL0     C11978   2.897  -1.063   8.460  0.1852 -0.6182 -0.8123
  849MOL0     C11979   2.982  -1.168   8.384  1.2811  0.4571 -0.0891
  849MOL0    Cl11980   2.903  -1.329   8.398  0.0653 -0.0195 -0.3228
  849MOL0     C11981   3.344  -0.208   8.574 -0.2864 -0.0892 -0.5932
  849MOL0     C11982   3.423  -0.091   8.593  0.2218 -0.6015 -1.0799
  849MOL0     O11983   3.660   0.031   8.414 -0.4464 -0.2057  0.0190
  849MOL0     C11984   3.843   0.215   8.666 -0.0943 -0.3144 -0.2111
  849MOL0     C11985   3.927   0.327   8.668 -0.1765 -0.4605 -0.6610
  849MOL0     N11986   4.288   0.821   9.114  0.3826 -1.1639 -0.2301
  849MOL0     N11987   4.371   0.806   9.209 -0.0066  0.0001 -0.2125
  849MOL0     C11988   5.592   0.763   9.162  0.6310  0.3690  0.6050
  849MOL0     C11989   5.721   0.734   9.121  0.3867 -0.1403  0.3536
  849MOL0     C11990   6.083   0.429   9.075 -0.0320 -0.8678  1.3293
  849MOL0     C11991   6.218   0.412   9.086 -0.7671  0.1991  0.1202
  849MOL0     C11992   6.295   0.341   9.001  1.0461  0.1809 -0.0287
  849MOL0     C11993   6.227   0.281   8.891 -1.0901 -0.0974  0.7635
  849MOL0     O11994   6.315   0.204   8.817  0.4149  0.1639 -0.5233
  849MOL0     C11995   6.271   0.112   8.714 -1.1562  0.2351 -1.0436
  849MOL0     C11996   6.266   0.194   8.573  0.6183 -0.1815 -0.5002
  849MOL0     C11997   6.396   0.250   8.525 -0.9245  0.0749 -0.1216
  849MOL0     C11998   6.492   0.134   8.485 -0.1102  0.1710 -0.2598
  849MOL0     C11999   6.548   0.075   8.604  0.5133  0.0531  0.3384
  849MOL0     C12000   6.586   0.018   8.706 -0.9623 -0.1157 -0.1605
  849MOL0     C12001   6.089   0.294   8.866 -0.2053 -0.0392 -0.3633
  849MOL0     C12002   6.013   0.369   8.966  0.1741  0.8450  1.0373
  849MOL0     H12003   5.772   0.445   9.282 -0.1528 -1.8366 -2.9279
  849MOL0     H12004   5.535   0.494   9.368 -3.0442  0.8543  0.0278
  849MOL0     H12005   5.416   0.682   9.491  1.0712  0.5956  1.0075
  849MOL0     H12006   5.310   0.568   9.397  2.1412  0.0058 -1.0466
  849MOL0     H12007   5.223   0.857   9.444 -0.8554  0.4836  2.8880
  849MOL0     H12008   5.179   0.724   9.550  0.5367 -1.5607  0.2892
  849MOL0     H12009   5.074   0.617   9.348  0.4397  0.5273 -2.3448
  849MOL0     H12010   5.120   0.767   9.261 -2.5356  0.8235 -0.7921
  849MOL0     H12011   4.972   0.800   9.521  3.0650  4.9595  1.0238
  849MOL0     H12012   5.010   0.916   9.399  2.3963 -1.3082  1.1829
  849MOL0     H12013   4.768   0.858   9.379 -0.6988 -0.0258 -2.1741
  849MOL0     H12014   4.817   0.684   9.396  1.3769 -0.4119 -0.6706
  849MOL0     H12015   4.905   0.661   9.175  1.2672  0.7310 -0.2961
  849MOL0     H12016   4.906   0.839   9.164  1.2657 -0.2531  0.1818
  849MOL0     H12017   4.679   0.832   9.079 -1.1485 -0.9131 -2.7046
  849MOL0     H12018   4.719   0.672   9.050  1.4283 -0.9696  1.4140
  849MOL0     H12019   4.587   0.773   9.311 -2.8884 -1.4342 -0.0122
  849MOL0     H12020   4.599   0.604   9.258  1.4147 -0.4655  1.2905
  849MOL0     H12021   4.497   0.601   8.993  1.7843 -0.7666  2.5838
  849MOL0     H12022   4.313   0.675   8.808  1.1335  0.2239  1.1584
  849MOL0     H12023   4.212   0.810   8.843  0.4235 -0.4801  0.4248
  849MOL0     H12024   4.081   0.663   9.008 -0.4797 -3.2019  0.4314
  849MOL0     H12025   4.153   0.522   8.945 -0.7204 -0.0945 -0.6361
  849MOL0     H12026   3.941   0.553   8.834 -2.7813  2.3710  0.3625
  849MOL0     H12027   3.978   0.713   8.773 -2.1412 -0.9641  0.9890
  849MOL0     H12028   4.158   0.493   8.688 -1.0075 -1.0422 -1.3364
  849MOL0     H12029   4.150   0.659   8.627  1.5616 -1.0126  1.0220
  849MOL0     H12030   3.816   0.499   8.413 -2.3354  0.9365  0.6682
  849MOL0     H12031   3.697   0.312   8.371  1.9854  0.9171 -0.3228
  849MOL0     H12032   3.720  -0.231   8.658  0.8362  1.2295 -0.5298
  849MOL0     H12033   3.589  -0.447   8.628  2.6124  0.5614 -1.3081
  849MOL0     H12034   3.234  -0.464   8.434 -3.1733  2.8407 -0.1524
  849MOL0     H12035   3.134  -0.379   8.536 -0.8222  0.3546  2.7730
  849MOL0     H12036   3.124  -0.582   8.700  1.8827 -1.1778  0.3105
  849MOL0     H12037   3.205  -0.678   8.580 -2.0496 -0.7772  0.9271
  849MOL0     H12038   3.031  -0.681   8.420 -0.9920 -0.1581  0.0967
  849MOL0     H12039   2.955  -0.534   8.489  0.5835  1.5169  1.4332
  849MOL0     H12040   2.903  -0.662   8.690 -2.0809  1.4748 -0.8948
  849MOL0     H12041   2.811  -0.684   8.543 -0.3662  2.3387  0.8758
  849MOL0     H12042   2.828  -0.888   8.629  0.0218  1.8752  2.8833
  849MOL0     H12043   3.003  -0.886   8.675 -1.0147 -0.7483  1.3946
  849MOL0     H12044   3.072  -0.921   8.462  0.2607  0.3059  0.2763
  849MOL0     H12045   2.930  -0.869   8.377 -1.3306 -0.6046 -0.6211
  849MOL0     H12046   2.874  -1.107   8.558 -2.7197 -2.1806 -2.0669
  849MOL0     H12047   2.803  -1.057   8.406 -1.6996  1.7684  2.3784
  849MOL0     H12048   3.081  -1.169   8.431  0.1811 -0.8416  2.3680
  849MOL0     H12049   2.993  -1.140   8.279  0.1676  2.7233  0.3367
  849MOL0     H12050   3.236  -0.209   8.566 -0.4136 -0.7651  0.8024
  849MOL0     H12051   3.368   0.000   8.573 -0.7886 -0.3993  2.1151
  849MOL0     H12052   3.854   0.134   8.737  2.6196 -0.1982 -0.3945
  849MOL0     H12053   4.007   0.338   8.741  1.2262 -1.6910 -1.9340
  849MOL0     H12054   5.553   0.857   9.124  1.3250  0.6138  0.4848
  849MOL0     H12055   5.772   0.803   9.054 -1.5731  1.4987  0.4458
  849MOL0     H12056   6.268   0.468   9.164 -1.4467  1.5228 -0.3548
  849MOL0     H12057   6.402   0.345   9.016  0.9589  3.5284  0.4725
  849MOL0     H12058   6.178   0.059   8.738 -0.2266 -1.0315 -0.0642
  849MOL0     H12059   6.340   0.028   8.697  0.6566  1.6637 -1.0242
  849MOL0     H12060   6.225   0.119   8.504  1.8762 -1.4053  0.0493
  849MOL0     H12061   6.199   0.281   8.569 -1.8157 -1.8229  1.4853
  849MOL0     H12062   6.445   0.310   8.602  1.5359 -2.6422  0.5929
  849MOL0     H12063   6.378   0.297   8.428 -1.2728  1.4702  0.6020
  849MOL0     H12064   6.446   0.051   8.430  3.6470 -0.5774 -2.6303
  849MOL0     H12065   6.576   0.168   8.422 -0.1981 -0.3317 -0.6593
  849MOL0     H12066   6.615  -0.028   8.798  0.4033  2.3430  0.7324
  849MOL0     H12067   6.042   0.242   8.783  0.2738 -1.1414  0.0300
  849MOL0     H12068   5.909   0.387   8.943  0.4748  0.4416 -0.8850
  850MOL0     O12069   2.959   5.225  10.416 -0.0271  0.3434  0.4009
  850MOL0     C12070   2.975   5.329  10.474  0.3774 -0.5654 -0.7657
  850MOL0     O12071   2.907   5.438  10.459 -0.0923 -0.6729  1.0771
  850MOL0     C12072   2.837   5.454  10.337 -0.0723  0.0833  0.0549
  850MOL0     C12073   2.704   5.391  10.328 -0.1533  0.1453  0.0628
  850MOL0     C12074   2.619   5.415  10.219 -0.5743 -0.9084  0.0847
  850MOL0     C12075   2.667   5.501  10.117  0.6581 -0.0522 -1.2824
  850MOL0     O12076   2.597   5.537  10.002  0.0471 -0.5034  0.3942
  850MOL0     C12077   2.468   5.485   9.986  0.4891 -0.8596  0.9088
  850MOL0     C12078   2.371   5.596  10.054 -0.8911  1.5948  0.7068
  850MOL0     C12079   2.223   5.593  10.003 -0.4613  0.6338 -0.0743
  850MOL0     C12080   2.186   5.728   9.933  0.8036  0.0495  0.8553
  850MOL0     C12081   2.055   5.719   9.841  0.4187 -0.2344  0.0937
  850MOL0     C12082   2.061   5.640   9.711  0.3108 -0.2418 -0.7210
  850MOL0     C12083   2.196   5.634   9.639 -0.8754 -0.1625  0.5074
  850MOL0     C12084   2.195   5.545   9.516 -1.1621  0.3155  0.1357
  850MOL0     N12085   2.193   5.403   9.557 -0.5986 -0.8153  0.3240
  850MOL0     C12086   2.309   5.338   9.601  0.4739 -0.1574 -0.2199
  850MOL0     C12087   2.282   5.212   9.603  0.2339  0.5551 -0.6357
  850MOL0     C12088   2.389   5.103   9.626  0.4819  0.2200  0.0326
  850MOL0     C12089   2.479   5.081   9.506 -0.0179  0.4554 -0.3962
  850MOL0     C12090   2.572   4.959   9.521 -0.1133 -0.0604  0.9982
  850MOL0     C12091   2.643   4.946   9.384 -0.7823 -0.4056 -0.5886
  850MOL0     O12092   2.756   4.862   9.386 -0.3673 -0.5188  0.1173
  850MOL0     C12093   2.866   4.903   9.443  0.1609 -0.1351 -0.7790
  850MOL0     C12094   2.977   4.824   9.426 -0.7113 -0.0058 -0.2468
  850MOL0     C12095   3.104   4.863   9.474 -0.2684 -0.0251  0.3818
  850MOL0     C12096   3.130   4.993   9.519  0.1781 -0.5242  0.4632
  850MOL0     C12097   3.267   5.045   9.532  0.2193 -0.2749  1.0773
  850MOL0     O12098   3.285   5.187   9.522 -0.3151  0.1912  0.0855
  850MOL0     C12099   3.418   5.232   9.524  0.4262  0.5913 -0.5652
  850MOL0     C12100   3.454   5.342   9.435  0.8765  0.0004 -1.3570
  850MOL0     C12101   3.583   5.370   9.426 -0.7482 -0.3380  0.5593
  850MOL0     C12102   3.688   5.304   9.488 -0.6680  0.1111 -0.0164
  850MOL0     O12103   3.818   5.325   9.463  0.3462 -0.5712  0.4091
  850MOL0     C12104   3.894   5.240   9.381 -0.1393 -0.1755 -0.2598
  850MOL0     C12105   4.014   5.313   9.327 -0.0849 -0.2175 -0.3629
  850MOL0     C12106   4.098   5.391   9.442 -0.4726 -0.6609  0.0168
  850MOL0     C12107   4.202   5.485   9.389 -0.2192  0.0589  0.3331
  850MOL0     C12108   4.219   5.603   9.483  0.4256 -0.9375 -0.2261
  850MOL0     C12109   4.331   5.695   9.421 -0.7085 -0.2465 -0.0710
  850MOL0     C12110   4.323   5.842   9.475 -0.7283  0.1472  0.9092
  850MOL0     C12111   4.356   5.853   9.622 -0.2491  1.4827  0.6289
  850MOL0    Cl12112   4.514   5.777   9.638 -0.1174 -0.1790 -0.2922
  850MOL0     C12113   3.654   5.204   9.587 -0.0170 -0.4887 -0.3664
  850MOL0     C12114   3.517   5.172   9.610 -0.8169 -0.2448  0.4827
  850MOL0     O12115   3.355   4.960   9.526  0.2408  0.1607  0.7837
  850MOL0     C12116   3.021   5.078   9.543 -0.1054  0.1521  0.2057
  850MOL0     C12117   2.890   5.030   9.511 -0.2955  0.5044  0.3621
  850MOL0     N12118   2.145   5.209   9.588 -0.6341  0.5425 -0.5130
  850MOL0     N12119   2.089   5.318   9.545  0.6351  0.0328 -0.3992
  850MOL0     C12120   2.794   5.556  10.130  0.0737  0.1961  0.1349
  850MOL0     C12121   2.877   5.541  10.240  0.2671 -0.3446  0.0142
  850MOL0     C12122   3.096   5.343  10.560  0.3647 -0.0049  0.4346
  850MOL0     C12123   3.167   5.216  10.588  0.8002 -0.9584  0.3275
  850MOL0     C12124   3.278   5.222  10.658  0.0212 -0.4515  0.5660
  850MOL0     C12125   3.336   5.337  10.699 -0.0530 -0.3706 -0.4669
  850MOL0     O12126   3.450   5.329  10.771 -0.3957  0.6048  0.4253
  850MOL0     C12127   3.453   5.375  10.903 -0.0064  0.3426  0.1669
  850MOL0     C12128   3.597   5.371  10.960  0.0067 -0.0546 -0.3133
  850MOL0     C12129   3.679   5.499  10.940 -0.1569 -0.7438 -0.2855
  850MOL0     C12130   3.617   5.621  11.023 -1.3531 -0.0847 -0.5599
  850MOL0     C12131   3.688   5.749  10.984 -0.1721  0.4331  0.1194
  850MOL0     C12132   3.748   5.852  10.954 -0.5251 -0.0104  0.3199
  850MOL0     C12133   3.272   5.452  10.681 -0.6459 -0.0853  0.3959
  850MOL0     C12134   3.146   5.457  10.612  0.0093 -1.0017  0.1842
  850MOL0     H12135   2.683   5.333  10.416  4.8779 -3.1307 -0.4678
  850MOL0     H12136   2.520   5.374  10.203 -0.3349 -0.8995 -1.6653
  850MOL0     H12137   2.456   5.383  10.024  1.9407 -0.6843  1.9262
  850MOL0     H12138   2.443   5.491   9.880  2.5243 -1.7523  0.3181
  850MOL0     H12139   2.412   5.697  10.040  1.3489  0.4967 -1.0766
  850MOL0     H12140   2.368   5.573  10.161  0.8682  1.1138  0.6649
  850MOL0     H12141   2.158   5.567  10.087 -3.1582 -0.4436 -2.3420
  850MOL0     H12142   2.214   5.510   9.932 -2.4160  2.4595 -2.0872
  850MOL0     H12143   2.161   5.797  10.014  1.5939 -0.7166  1.7853
  850MOL0     H12144   2.273   5.766   9.880  1.7804 -1.9646  0.9018
  850MOL0     H12145   2.022   5.816   9.804  1.2011 -0.5334 -1.4744
  850MOL0     H12146   1.972   5.686   9.904 -1.2363  3.3039 -0.0172
  850MOL0     H12147   1.988   5.676   9.638  0.8285 -3.6141 -3.1211
  850MOL0     H12148   2.034   5.537   9.736  0.7667  0.1079  1.3373
  850MOL0     H12149   2.215   5.738   9.614  2.9496 -0.4788  1.4413
  850MOL0     H12150   2.279   5.607   9.706 -0.8913 -0.2208  0.5049
  850MOL0     H12151   2.276   5.568   9.447  1.5269 -1.8104  2.3465
  850MOL0     H12152   2.100   5.565   9.465 -0.3615  1.0682 -1.1268
  850MOL0     H12153   2.407   5.380   9.623  0.1386  1.0273 -0.8654
  850MOL0     H12154   2.336   5.015   9.663 -0.8793  1.0631  0.1420
  850MOL0     H12155   2.449   5.133   9.713 -1.8663  2.3556  1.0066
  850MOL0     H12156   2.536   5.172   9.490 -0.4075  0.9552  0.9338
  850MOL0     H12157   2.407   5.065   9.425 -2.1423 -1.5093  1.7071
  850MOL0     H12158   2.641   4.982   9.602  3.6144 -0.0779 -1.9138
  850MOL0     H12159   2.507   4.873   9.540 -1.9404  0.5673 -1.6599
  850MOL0     H12160   2.668   5.042   9.338  2.0165 -1.2550 -1.0073
  850MOL0     H12161   2.578   4.897   9.311  0.7953 -0.0256 -2.3135
  850MOL0     H12162   2.954   4.726   9.386  0.3669  0.2910 -1.6433
  850MOL0     H12163   3.192   4.802   9.462  2.6867  3.4806  2.1158
  850MOL0     H12164   3.382   5.393   9.372  0.2726  0.9570  0.0454
  850MOL0     H12165   3.595   5.451   9.355 -3.2434  1.3435  1.9121
  850MOL0     H12166   3.829   5.215   9.297 -0.3552  0.1189 -0.1803
  850MOL0     H12167   3.912   5.143   9.430 -1.8913 -0.9407 -1.0547
  850MOL0     H12168   3.985   5.394   9.259  2.0743  3.0009  2.1727
  850MOL0     H12169   4.080   5.249   9.268  1.5706  0.2790  0.8713
  850MOL0     H12170   4.133   5.312   9.509  0.5884  0.2856  0.5925
  850MOL0     H12171   4.026   5.452   9.498  0.2027 -0.6952  0.9364
  850MOL0     H12172   4.298   5.432   9.386  0.1803  0.6898  1.4776
  850MOL0     H12173   4.170   5.512   9.288  2.8714 -0.7391 -1.0049
  850MOL0     H12174   4.244   5.557   9.579 -1.6839 -2.6177 -0.4143
  850MOL0     H12175   4.127   5.661   9.490  2.6411  2.9167 -0.0890
  850MOL0     H12176   4.328   5.703   9.311  3.2218 -1.6325 -0.4633
  850MOL0     H12177   4.433   5.657   9.432  0.5472  1.7616 -3.0341
  850MOL0     H12178   4.397   5.892   9.412  0.5811 -1.7564  0.8465
  850MOL0     H12179   4.228   5.891   9.452 -1.3872 -0.8072  1.4963
  850MOL0     H12180   4.277   5.804   9.679 -2.4479 -0.1776 -3.3914
  850MOL0     H12181   4.377   5.952   9.662  0.8352  1.6556 -0.3013
  850MOL0     H12182   3.725   5.149   9.648  0.8975  1.1024  0.0849
  850MOL0     H12183   3.485   5.098   9.683 -0.3287  0.9438  1.9605
  850MOL0     H12184   3.032   5.175   9.590 -0.9751  0.9630 -1.2122
  850MOL0     H12185   2.805   5.089   9.543 -0.1657  1.6569 -1.3121
  850MOL0     H12186   2.832   5.612  10.044  3.3732 -1.6152  0.2606
  850MOL0     H12187   2.975   5.586  10.227 -0.0803  0.4231 -0.0109
  850MOL0     H12188   3.139   5.117  10.552 -2.0639 -0.9918  2.3261
  850MOL0     H12189   3.316   5.123  10.683  2.1020  0.8924  3.2189
  850MOL0     H12190   3.373   5.315  10.946 -2.7907  2.6553 -1.4667
  850MOL0     H12191   3.419   5.478  10.906 -0.1001  0.3222 -0.1590
  850MOL0     H12192   3.597   5.361  11.069  1.2813  2.6749  0.0288
  850MOL0     H12193   3.648   5.280  10.929  1.1633  0.7292 -0.7746
  850MOL0     H12194   3.696   5.517  10.833  0.9716 -2.1031 -0.3618
  850MOL0     H12195   3.780   5.482  10.978  1.9723  3.7579 -3.0440
  850MOL0     H12196   3.510   5.639  11.016 -2.1724 -2.8001  2.6765
  850MOL0     H12197   3.630   5.597  11.129 -1.1340 -1.1116 -0.8046
  850MOL0     H12198   3.795   5.944  10.924  0.1813 -0.3758  0.2716
  850MOL0     H12199   3.315   5.548  10.709 -2.4392  0.5317  1.1965
  850MOL0     H12200   3.097   5.552  10.597  2.6692  0.5034  0.3625
  851MOL0     O12201   7.990   4.038   4.069  0.3192  1.3085  0.7208
  851MOL0     C12202   7.984   4.153   4.046  0.3102 -0.1500  0.5917
  851MOL0     O12203   7.869   4.223   4.023  0.0147  0.9524 -0.7771
  851MOL0     C12204   7.762   4.162   3.987  0.3379  0.4571 -0.1354
  851MOL0     C12205   7.759   4.096   3.858 -0.9262 -0.0379 -0.2756
  851MOL0     C12206   7.650   4.018   3.823 -0.1905 -0.0437  0.6694
  851MOL0     C12207   7.537   4.007   3.912 -0.2874 -1.0887 -0.0684
  851MOL0     O12208   7.433   3.913   3.894 -0.4067 -0.5701  0.1080
  851MOL0     C12209   7.432   3.822   3.781 -0.2309  0.0021  0.1177
  851MOL0     C12210   7.308   3.734   3.762  0.7218  0.3986  0.8231
  851MOL0     C12211   7.180   3.806   3.703 -0.2047  0.1300 -0.5605
  851MOL0     C12212   7.065   3.711   3.698  1.0416  0.3001 -0.3771
  851MOL0     C12213   6.964   3.768   3.602 -0.7887  0.5491  0.4782
  851MOL0     C12214   6.846   3.855   3.668 -0.3026  0.5605 -0.0934
  851MOL0     C12215   6.743   3.890   3.561  0.8174 -0.1136  0.2318
  851MOL0     C12216   6.637   3.981   3.614 -0.7674 -0.1132  0.1452
  851MOL0     N12217   6.535   4.000   3.514  0.2527 -0.0061  0.7146
  851MOL0     C12218   6.410   3.934   3.517  0.5183 -0.3783 -0.0689
  851MOL0     C12219   6.348   3.970   3.400 -0.1957 -0.1832 -0.1856
  851MOL0     C12220   6.211   3.926   3.354  0.5452 -0.8924 -0.4978
  851MOL0     C12221   6.154   3.998   3.227 -0.6234 -0.6698  0.5440
  851MOL0     C12222   6.025   3.934   3.182 -0.7687  0.2346 -0.0309
  851MOL0     C12223   5.964   3.967   3.047  0.3157 -0.2214  0.6705
  851MOL0     O12224   5.817   3.964   3.065 -0.1553  0.0333  0.3891
  851MOL0     C12225   5.736   3.891   2.967  0.6006  0.1323  1.4323
  851MOL0     C12226   5.620   3.830   3.008  0.1164  1.2534 -0.2468
  851MOL0     C12227   5.525   3.782   2.917  0.7972 -0.5569 -0.9267
  851MOL0     C12228   5.556   3.772   2.780  0.7968 -0.4608  0.5651
  851MOL0     C12229   5.464   3.704   2.683  0.1882  0.0140  0.2230
  851MOL0     O12230   5.332   3.672   2.717  0.0616  0.0032 -0.3180
  851MOL0     C12231   5.244   3.663   2.613  0.7249 -0.2935  0.5420
  851MOL0     C12232   5.205   3.777   2.548  0.3730 -0.3281 -0.2927
  851MOL0     C12233   5.104   3.770   2.451 -0.6857 -0.6545  0.5580
  851MOL0     C12234   5.039   3.652   2.434 -0.7707  0.0151 -0.2287
  851MOL0     O12235   4.933   3.663   2.347  0.3156  0.3955  0.0140
  851MOL0     C12236   4.811   3.591   2.382 -0.4890 -0.1138 -0.5714
  851MOL0     C12237   4.702   3.637   2.291  0.4101  0.4194 -0.1345
  851MOL0     C12238   4.574   3.570   2.342 -0.2908 -0.7849  0.5472
  851MOL0     C12239   4.452   3.648   2.284 -0.0184 -0.3253 -0.8047
  851MOL0     C12240   4.319   3.582   2.311  0.8200  0.0779  0.9742
  851MOL0     C12241   4.209   3.644   2.220 -0.0666  0.1509  0.3398
  851MOL0     C12242   4.210   3.593   2.070  0.5917  0.2022 -0.5125
  851MOL0     C12243   4.103   3.492   2.046  0.8738 -0.2298 -1.1847
  851MOL0    Cl12244   4.142   3.340   2.128  0.0967 -0.2797  0.3281
  851MOL0     C12245   5.082   3.530   2.489  0.1220 -0.5417 -0.1017
  851MOL0     C12246   5.188   3.537   2.576  1.1129  0.6501 -0.1549
  851MOL0     O12247   5.502   3.702   2.566  0.5357 -0.7106  0.5368
  851MOL0     C12248   5.681   3.828   2.742  0.1471 -0.2170 -0.7126
  851MOL0     C12249   5.767   3.885   2.834  0.1325 -0.6169  0.2447
  851MOL0     N12250   6.426   4.065   3.341  0.1313 -0.6216  0.3550
  851MOL0     N12251   6.533   4.089   3.410 -0.2164 -0.5958 -0.2518
  851MOL0     C12252   7.540   4.070   4.038 -0.4641 -1.1049 -1.1403
  851MOL0     C12253   7.654   4.150   4.075  0.8037 -0.2039  0.6575
  851MOL0     C12254   8.109   4.230   4.031  0.2594 -0.2443  0.0860
  851MOL0     C12255   8.217   4.189   4.103  0.4454  0.3061 -0.2672
  851MOL0     C12256   8.326   4.268   4.110 -0.8850 -0.1996 -0.1268
  851MOL0     C12257   8.341   4.376   4.022 -0.4470 -0.5911 -0.4615
  851MOL0     O12258   8.459   4.445   4.040  0.3707  0.0916 -0.8818
  851MOL0     C12259   8.514   4.514   3.926 -0.7115 -0.8855 -0.0598
  851MOL0     C12260   8.658   4.551   3.959  0.7820 -0.4634 -0.2679
  851MOL0     C12261   8.716   4.657   3.868  0.0032 -0.3352  0.5617
  851MOL0     C12262   8.845   4.690   3.927 -0.4592  0.0327  0.2480
  851MOL0     C12263   8.913   4.779   3.831  0.2176 -0.7848 -0.1669
  851MOL0     C12264   8.967   4.859   3.760  0.3401  0.1000  0.0128
  851MOL0     C12265   8.239   4.413   3.937 -0.5750  0.0411  0.2075
  851MOL0     C12266   8.119   4.345   3.955  0.5022 -0.3020 -0.6826
  851MOL0     H12267   7.849   4.088   3.797 -1.6458 -1.9840 -1.1975
  851MOL0     H12268   7.654   3.964   3.729  0.3372  1.4580 -0.1989
  851MOL0     H12269   7.517   3.753   3.788 -0.8856 -0.8226 -0.0020
  851MOL0     H12270   7.431   3.873   3.684 -1.5100 -1.8535 -0.8948
  851MOL0     H12271   7.284   3.690   3.859  2.9787 -0.9902  0.8177
  851MOL0     H12272   7.341   3.651   3.699 -0.0071 -0.7244  1.8874
  851MOL0     H12273   7.204   3.854   3.608 -0.3742  2.5458  0.5541
  851MOL0     H12274   7.156   3.886   3.774 -1.2281 -3.5881  3.7097
  851MOL0     H12275   7.098   3.620   3.647 -0.0355 -0.0835 -0.4213
  851MOL0     H12276   7.021   3.685   3.794 -0.8031  0.5392 -1.1028
  851MOL0     H12277   6.929   3.675   3.557  3.9460 -1.6345  0.6825
  851MOL0     H12278   7.010   3.824   3.520 -2.7119 -2.3215 -2.8127
  851MOL0     H12279   6.889   3.946   3.711 -2.5992  2.8358 -2.3460
  851MOL0     H12280   6.794   3.801   3.748  0.6961  0.2896  0.3973
  851MOL0     H12281   6.796   3.934   3.477  1.4270 -0.6224  0.3390
  851MOL0     H12282   6.698   3.800   3.517 -2.3191  3.0513 -3.7766
  851MOL0     H12283   6.691   4.076   3.623 -0.7823  0.2823 -2.9302
  851MOL0     H12284   6.607   3.946   3.713 -1.0130  0.4186  0.2597
  851MOL0     H12285   6.374   3.866   3.593 -0.1407  1.1643  1.0501
  851MOL0     H12286   6.134   3.937   3.432 -1.5627 -0.3271 -2.5325
  851MOL0     H12287   6.214   3.819   3.333  2.2136 -0.5832 -1.9890
  851MOL0     H12288   6.226   4.005   3.145 -1.1766 -2.3138 -0.1348
  851MOL0     H12289   6.143   4.105   3.245  1.9014 -0.2784  0.2255
  851MOL0     H12290   6.043   3.827   3.163  3.0160  0.9444 -1.2407
  851MOL0     H12291   5.952   3.948   3.262  0.2461  0.9716  0.7894
  851MOL0     H12292   6.003   3.908   2.964  3.4495 -0.3122  2.0728
  851MOL0     H12293   5.994   4.068   3.019 -0.9158  0.0543  0.2707
  851MOL0     H12294   5.607   3.817   3.115  2.5797  2.6610  0.3079
  851MOL0     H12295   5.424   3.746   2.937  0.5917  0.0121 -0.9155
  851MOL0     H12296   5.266   3.864   2.570  0.8030 -0.5315 -0.6714
  851MOL0     H12297   5.065   3.854   2.394  0.2924 -1.7141 -1.8019
  851MOL0     H12298   4.792   3.625   2.484  1.3414 -2.2350  0.5654
  851MOL0     H12299   4.835   3.484   2.376  1.1109  0.2688 -1.7001
  851MOL0     H12300   4.728   3.618   2.187  2.3006 -0.8926  0.5255
  851MOL0     H12301   4.703   3.746   2.301 -0.3490  0.4275 -0.0879
  851MOL0     H12302   4.558   3.561   2.450 -0.9765  4.1966  1.1305
  851MOL0     H12303   4.577   3.467   2.307 -1.9786 -0.5370 -0.4736
  851MOL0     H12304   4.449   3.747   2.332  0.3621 -2.2236  3.5706
  851MOL0     H12305   4.461   3.647   2.175 -0.2191  1.2251 -0.8627
  851MOL0     H12306   4.275   3.601   2.409  1.1645  0.3593  1.0771
  851MOL0     H12307   4.337   3.476   2.294  0.8792  0.4723 -2.0072
  851MOL0     H12308   4.235   3.751   2.215  0.2535  0.0315 -0.6211
  851MOL0     H12309   4.108   3.634   2.260 -0.2634 -0.6611 -0.3434
  851MOL0     H12310   4.214   3.674   1.997  0.4250  2.2669  1.6486
  851MOL0     H12311   4.295   3.526   2.058  1.2497  0.9294  0.0451
  851MOL0     H12312   4.084   3.483   1.938 -3.4145 -0.8402 -0.5361
  851MOL0     H12313   4.004   3.520   2.081  0.8298 -0.9908 -0.6764
  851MOL0     H12314   5.018   3.444   2.472 -0.8233  0.0637  0.3318
  851MOL0     H12315   5.216   3.444   2.625  0.0332 -0.1296 -0.9912
  851MOL0     H12316   5.729   3.823   2.645  0.3374  1.6172 -0.7376
  851MOL0     H12317   5.858   3.924   2.788 -0.7640  1.3255  0.0257
  851MOL0     H12318   7.460   4.044   4.106 -2.6053  3.7369 -1.3907
  851MOL0     H12319   7.648   4.197   4.173 -0.1207 -1.1649  1.0909
  851MOL0     H12320   8.206   4.103   4.168 -0.0990  1.4463  1.2257
  851MOL0     H12321   8.393   4.232   4.188  1.4201  2.7565 -0.5824
  851MOL0     H12322   8.450   4.601   3.909  0.6849  0.4321  1.1891
  851MOL0     H12323   8.519   4.457   3.832  1.7308  1.8757 -1.7626
  851MOL0     H12324   8.646   4.603   4.055 -1.0579 -0.2402 -0.5723
  851MOL0     H12325   8.717   4.459   3.965 -0.0356 -1.3610 -3.6087
  851MOL0     H12326   8.659   4.751   3.867  0.4050 -0.0428 -2.3906
  851MOL0     H12327   8.713   4.616   3.767 -2.5661 -0.7021  0.7017
  851MOL0     H12328   8.839   4.733   4.027  2.2577  1.0111  0.0589
  851MOL0     H12329   8.907   4.600   3.922 -0.3257  0.1546 -0.3382
  851MOL0     H12330   9.015   4.941   3.710  1.6494  0.1847  1.3619
  851MOL0     H12331   8.248   4.499   3.873  0.2632 -1.4038 -1.7085
  851MOL0     H12332   8.028   4.382   3.908 -0.5919 -1.1387  0.6860
  852MOL0     O12333  10.032   4.814   0.330 -0.0639 -1.0742  0.4078
  852MOL0     C12334  10.029   4.708   0.394 -0.2639 -0.2420 -0.1321
  852MOL0     O12335   9.937   4.602   0.378 -0.3216  0.0861 -0.7666
  852MOL0     C12336   9.840   4.602   0.286 -0.3136 -0.6093 -0.2205
  852MOL0     C12337   9.786   4.479   0.258 -0.2763 -0.1713 -0.3457
  852MOL0     C12338   9.681   4.463   0.173  0.2115 -0.1537  0.8878
  852MOL0     C12339   9.617   4.574   0.117  0.3073 -0.4430 -0.2418
  852MOL0     O12340   9.527   4.575   0.013  0.2443 -0.2171 -0.2160
  852MOL0     C12341   9.574   4.567  -0.119 -0.0628 -0.0440 -0.1272
  852MOL0     C12342   9.463   4.481  -0.190  0.0975  0.2853  0.0500
  852MOL0     C12343   9.491   4.436  -0.335 -0.5456  0.2158 -1.3013
  852MOL0     C12344   9.501   4.553  -0.438  0.8738  0.5418  0.0855
  852MOL0     C12345   9.453   4.501  -0.571  0.0664  0.6809  0.9667
  852MOL0     C12346   9.296   4.500  -0.590 -0.6677  0.4437 -0.4289
  852MOL0     C12347   9.261   4.430  -0.718  0.8327  0.7273 -0.0120
  852MOL0     C12348   9.109   4.389  -0.737  0.3264 -0.1246 -1.0256
  852MOL0     N12349   9.013   4.506  -0.725 -0.0900  0.4360 -0.1930
  852MOL0     C12350   9.017   4.621  -0.808 -0.2904  0.1377  0.2531
  852MOL0     C12351   8.921   4.696  -0.766  0.5806 -0.5240  0.6247
  852MOL0     C12352   8.879   4.819  -0.842  0.3121  0.4539 -0.4165
  852MOL0     C12353   8.877   4.945  -0.751 -0.8749  1.0059  0.3104
  852MOL0     C12354   8.818   5.063  -0.829  0.0084  0.5260  0.5892
  852MOL0     C12355   8.746   5.156  -0.741 -0.6076 -0.7976 -1.3330
  852MOL0     O12356   8.833   5.260  -0.710 -0.3527 -0.1765  0.1189
  852MOL0     C12357   8.855   5.370  -0.792 -0.1612 -0.3472  0.2346
  852MOL0     C12358   8.775   5.409  -0.906 -0.3253  0.2536 -0.5141
  852MOL0     C12359   8.814   5.524  -0.972  0.0165  0.8166  0.5312
  852MOL0     C12360   8.912   5.607  -0.923  0.1853 -0.5395  0.0717
  852MOL0     C12361   8.945   5.737  -0.981  0.0305  0.1660 -0.5840
  852MOL0     O12362   9.019   5.822  -0.894  0.4374 -0.4583  0.5169
  852MOL0     C12363   9.115   5.903  -0.953  0.4033  0.4887 -1.2897
  852MOL0     C12364   9.140   6.007  -0.865  0.0049  0.0831  0.9962
  852MOL0     C12365   9.238   6.095  -0.896 -0.7131  0.0220 -0.1629
  852MOL0     C12366   9.308   6.094  -1.013 -0.6454 -0.1247  0.0127
  852MOL0     O12367   9.417   6.174  -1.034 -0.4524 -0.4965 -0.6700
  852MOL0     C12368   9.415   6.306  -0.984  0.5027  0.2438 -0.6726
  852MOL0     C12369   9.529   6.364  -1.052 -0.4537  0.6563 -0.2906
  852MOL0     C12370   9.562   6.507  -0.997  0.2395  0.0122  0.0149
  852MOL0     C12371   9.688   6.569  -1.044  0.1677  0.3991 -0.0410
  852MOL0     C12372   9.702   6.579  -1.194 -0.2132 -0.8974 -0.6133
  852MOL0     C12373   9.596   6.651  -1.278  0.6462 -0.4072 -0.5033
  852MOL0     C12374   9.643   6.663  -1.425  0.7278 -0.1742 -0.7963
  852MOL0     C12375   9.654   6.525  -1.488 -0.2004  0.0657 -0.3484
  852MOL0    Cl12376   9.644   6.516  -1.671 -0.1387  0.0150  0.3806
  852MOL0     C12377   9.272   5.995  -1.102 -0.1209 -0.0779 -0.0123
  852MOL0     C12378   9.175   5.898  -1.076  0.0957 -0.2671 -1.1890
  852MOL0     O12379   8.902   5.756  -1.096 -1.3881 -0.5108 -0.4453
  852MOL0     C12380   8.988   5.570  -0.814 -0.0930 -0.1751 -0.7409
  852MOL0     C12381   8.963   5.448  -0.752  0.4614 -0.7504 -0.5436
  852MOL0     N12382   8.857   4.631  -0.654  0.0487 -1.6455 -0.5277
  852MOL0     N12383   8.911   4.512  -0.642 -0.1374 -0.4556  0.9100
  852MOL0     C12384   9.648   4.702   0.170 -0.3285  0.2745 -0.6771
  852MOL0     C12385   9.761   4.714   0.256  0.7279 -0.4415  0.4691
  852MOL0     C12386  10.125   4.693   0.507  0.5506 -1.0614  0.3326
  852MOL0     C12387  10.184   4.821   0.551 -0.1642 -0.0976 -0.5353
  852MOL0     C12388  10.278   4.821   0.657 -0.5235  0.1910 -1.4290
  852MOL0     C12389  10.301   4.695   0.732 -1.0606 -0.7354 -0.4778
  852MOL0     O12390  10.389   4.690   0.837  0.5169  0.3392 -0.3585
  852MOL0     C12391  10.520   4.669   0.792 -0.7512 -0.1145 -0.8372
  852MOL0     C12392  10.618   4.708   0.902 -0.3923  0.7967 -0.5433
  852MOL0     C12393  10.706   4.831   0.875  0.8158  0.3323  0.0753
  852MOL0     C12394  10.826   4.853   0.954  0.1461 -0.2555  0.0597
  852MOL0     C12395  10.926   4.751   0.923 -0.0162 -0.3432  0.3916
  852MOL0     C12396  11.010   4.664   0.923  0.2924 -0.5006 -0.1402
  852MOL0     C12397  10.234   4.577   0.688  0.0452  0.3345  0.4683
  852MOL0     C12398  10.155   4.578   0.575  0.2587 -1.2496 -0.6645
  852MOL0     H12399   9.834   4.394   0.305  0.1012 -0.3328 -1.0150
  852MOL0     H12400   9.655   4.365   0.137  2.3145 -0.3165 -0.3434
  852MOL0     H12401   9.665   4.506  -0.117 -1.1560 -1.7506  1.3999
  852MOL0     H12402   9.597   4.663  -0.166 -0.8051  0.2202  0.0265
  852MOL0     H12403   9.371   4.541  -0.190 -1.9492 -2.2780  4.8288
  852MOL0     H12404   9.438   4.395  -0.126 -1.7509  1.6401  1.2625
  852MOL0     H12405   9.411   4.366  -0.362 -0.4134 -0.3493 -0.2825
  852MOL0     H12406   9.585   4.380  -0.328 -2.5818 -3.4281 -0.4107
  852MOL0     H12407   9.446   4.642  -0.406  0.0381 -0.0877  0.4279
  852MOL0     H12408   9.605   4.587  -0.449  0.7271  1.0268  0.1432
  852MOL0     H12409   9.509   4.412  -0.603 -1.1482  1.0698 -2.6950
  852MOL0     H12410   9.499   4.577  -0.635 -0.0554  0.8863  1.1240
  852MOL0     H12411   9.277   4.605  -0.613 -0.2788  0.8153  0.8576
  852MOL0     H12412   9.238   4.464  -0.504 -0.0260  0.5484  0.0554
  852MOL0     H12413   9.296   4.493  -0.800  1.5171  0.2605 -0.0804
  852MOL0     H12414   9.319   4.338  -0.732  0.0801  0.4435 -1.5279
  852MOL0     H12415   9.079   4.313  -0.664 -3.8659 -0.0838 -2.4540
  852MOL0     H12416   9.087   4.348  -0.835 -0.2846 -0.9594 -0.5508
  852MOL0     H12417   9.057   4.623  -0.909 -1.3772  2.0497 -0.1886
  852MOL0     H12418   8.781   4.796  -0.884  0.9427 -1.8378 -0.7926
  852MOL0     H12419   8.943   4.831  -0.930  1.9656  1.4392  0.8488
  852MOL0     H12420   8.982   4.962  -0.723 -0.4393 -3.1573  1.8179
  852MOL0     H12421   8.823   4.918  -0.661 -2.2875  2.0061 -0.2040
  852MOL0     H12422   8.901   5.102  -0.889  0.8506 -2.2529 -0.2143
  852MOL0     H12423   8.744   5.024  -0.900  3.3344  0.7008 -3.4044
  852MOL0     H12424   8.706   5.105  -0.652  0.6158  2.1109  1.0565
  852MOL0     H12425   8.656   5.201  -0.783 -0.4028  2.2975  1.1853
  852MOL0     H12426   8.685   5.360  -0.941  0.8521 -2.2206 -0.3239
  852MOL0     H12427   8.749   5.563  -1.049 -2.1447 -0.2831  1.6910
  852MOL0     H12428   9.094   6.014  -0.766  0.1987  2.2734  0.9730
  852MOL0     H12429   9.255   6.172  -0.821 -1.4303  0.4525 -0.4329
  852MOL0     H12430   9.422   6.304  -0.875  1.9151  2.4507 -0.6770
  852MOL0     H12431   9.325   6.364  -1.008  0.1021  1.3617  2.8595
  852MOL0     H12432   9.521   6.370  -1.161 -1.2708  0.0194 -0.2692
  852MOL0     H12433   9.623   6.308  -1.046  0.0852  1.5144 -0.5178
  852MOL0     H12434   9.568   6.500  -0.888  0.6547  1.8661  0.1449
  852MOL0     H12435   9.478   6.573  -1.020  0.1202 -0.9027 -2.4883
  852MOL0     H12436   9.688   6.664  -0.989 -1.2068  0.3298  0.0960
  852MOL0     H12437   9.770   6.505  -1.009 -0.8242 -1.3978 -0.8942
  852MOL0     H12438   9.729   6.480  -1.232  3.6119  0.0698 -0.7746
  852MOL0     H12439   9.788   6.642  -1.216 -0.7286 -0.7944 -2.5025
  852MOL0     H12440   9.584   6.752  -1.238 -1.5107 -1.1457  0.8729
  852MOL0     H12441   9.503   6.593  -1.273  1.4862 -1.7398  0.3029
  852MOL0     H12442   9.571   6.725  -1.479  2.0662  1.1595 -1.0916
  852MOL0     H12443   9.737   6.717  -1.420 -0.0397  1.1759 -0.3934
  852MOL0     H12444   9.570   6.463  -1.456 -0.7913  1.2496  0.4752
  852MOL0     H12445   9.754   6.488  -1.463  1.3557  2.6448 -2.1746
  852MOL0     H12446   9.329   5.983  -1.193  1.4354  1.4918  0.6954
  852MOL0     H12447   9.156   5.814  -1.142 -0.8214 -2.2242  1.3865
  852MOL0     H12448   9.068   5.633  -0.776 -0.1862 -0.2440 -0.4345
  852MOL0     H12449   9.035   5.415  -0.678  1.2183  2.3164  0.2439
  852MOL0     H12450   9.596   4.790   0.135  1.9940  0.6604 -3.6065
  852MOL0     H12451   9.786   4.811   0.298  2.1312 -0.6293  0.1017
  852MOL0     H12452  10.171   4.917   0.502  2.7776 -0.3033 -1.9693
  852MOL0     H12453  10.328   4.909   0.696  0.6097 -1.8589  2.2667
  852MOL0     H12454  10.543   4.727   0.702 -1.5727  0.7486 -0.5189
  852MOL0     H12455  10.536   4.564   0.770 -2.4127 -0.7821  0.8741
  852MOL0     H12456  10.561   4.719   0.995 -0.9509  0.6094 -0.8553
  852MOL0     H12457  10.681   4.620   0.921  1.7412  1.6335 -3.1498
  852MOL0     H12458  10.650   4.924   0.885  0.8076  0.6629 -2.3628
  852MOL0     H12459  10.727   4.845   0.768 -0.5463  4.1832  0.1497
  852MOL0     H12460  10.864   4.954   0.935  0.7680  0.2205  3.2603
  852MOL0     H12461  10.805   4.837   1.061  3.8556 -3.4065  0.5372
  852MOL0     H12462  11.086   4.591   0.904  0.6006  0.1292 -1.4706
  852MOL0     H12463  10.240   4.491   0.753 -2.1432 -0.0495  0.2353
  852MOL0     H12464  10.108   4.487   0.539 -1.8324 -1.8215  3.0890
  853MOL0     O12465   3.772   2.575  10.288  0.0340 -0.0771 -0.5320
  853MOL0     C12466   3.727   2.619  10.393  0.3305 -0.2958  0.0299
  853MOL0     O12467   3.800   2.649  10.500 -0.2098  0.0872 -0.1098
  853MOL0     C12468   3.936   2.638  10.499  0.7745  0.2184  0.8648
  853MOL0     C12469   4.029   2.646  10.389  0.0932  0.5024  0.1546
  853MOL0     C12470   4.161   2.648  10.408  0.5710  0.2171  0.2485
  853MOL0     C12471   4.219   2.630  10.538 -0.1322 -0.2964 -0.7729
  853MOL0     O12472   4.362   2.627  10.554  0.4834 -0.1646 -0.3459
  853MOL0     C12473   4.426   2.738  10.619  0.5241 -0.9552 -0.1959
  853MOL0     C12474   4.373   2.877  10.567 -0.4267  0.1540 -0.0191
  853MOL0     C12475   4.417   2.907  10.418 -0.5940  0.7542  0.2198
  853MOL0     C12476   4.338   3.040  10.371 -0.1240  0.5652  0.2776
  853MOL0     C12477   4.388   3.078  10.228 -0.0260  1.7693 -0.8814
  853MOL0     C12478   4.318   3.212  10.189  0.0676  0.1979 -0.3741
  853MOL0     C12479   4.389   3.342  10.246  0.4539  0.1930  0.1875
  853MOL0     C12480   4.330   3.471  10.169 -0.4839  0.0467 -0.8373
  853MOL0     N12481   4.399   3.594  10.209 -0.9862 -1.0843 -0.0332
  853MOL0     C12482   4.425   3.635  10.334 -1.5660  0.6060  0.7030
  853MOL0     C12483   4.465   3.765  10.325  0.0741  0.2231  0.2174
  853MOL0     C12484   4.546   3.848  10.421 -0.1889  0.7478 -0.7354
  853MOL0     C12485   4.651   3.945  10.356 -0.5829 -0.4655  0.1538
  853MOL0     C12486   4.784   3.983  10.439 -0.0348  0.1798  0.2243
  853MOL0     C12487   4.912   3.915  10.388 -0.2865 -0.0592  0.7592
  853MOL0     O12488   5.025   3.954  10.459 -0.2565  0.7951  0.7285
  853MOL0     C12489   5.145   3.892  10.434  0.4583 -0.1482  0.3510
  853MOL0     C12490   5.165   3.793  10.343 -0.6489 -0.2755  1.0585
  853MOL0     C12491   5.289   3.727  10.339 -0.1580  0.6064 -0.6073
  853MOL0     C12492   5.388   3.748  10.433 -0.9962 -1.2908  0.0877
  853MOL0     C12493   5.523   3.668  10.435  1.0245 -0.0553 -0.2994
  853MOL0     O12494   5.538   3.565  10.346  0.0553  0.0237  0.3278
  853MOL0     C12495   5.667   3.526  10.304  1.0917  0.0208 -0.1418
  853MOL0     C12496   5.775   3.621  10.288  0.4696 -0.1251 -0.0887
  853MOL0     C12497   5.908   3.585  10.302  0.9419  0.0498  0.9889
  853MOL0     C12498   5.936   3.445  10.295  0.1669 -0.7295  1.1305
  853MOL0     O12499   6.068   3.406  10.315  0.2865  0.0133  0.1339
  853MOL0     C12500   6.145   3.377  10.191  0.2092  0.2676 -0.0193
  853MOL0     C12501   6.236   3.491  10.159  0.5590 -0.8783 -0.3800
  853MOL0     C12502   6.347   3.520  10.272 -0.1726  0.4308  0.5160
  853MOL0     C12503   6.434   3.406  10.317 -0.6780 -0.2465 -0.1617
  853MOL0     C12504   6.532   3.388  10.200 -0.5186  0.4704  0.1868
  853MOL0     C12505   6.636   3.281  10.243 -0.1302  0.7750  0.0462
  853MOL0     C12506   6.769   3.306  10.166 -0.6110  0.0818  0.3780
  853MOL0     C12507   6.876   3.198  10.193  1.2768 -0.1865 -0.1937
  853MOL0    Cl12508   7.008   3.200  10.062  0.0192 -0.2024 -0.0956
  853MOL0     C12509   5.830   3.348  10.288 -0.2533 -0.9067  0.4419
  853MOL0     C12510   5.697   3.386  10.289 -1.0554  0.5855  0.0735
  853MOL0     O12511   5.599   3.696  10.531  0.1365 -0.5712 -0.3390
  853MOL0     C12512   5.367   3.845  10.521  0.3932 -0.5164  0.4197
  853MOL0     C12513   5.249   3.919  10.526  0.4985 -0.1540 -0.0833
  853MOL0     N12514   4.444   3.805  10.190  0.1227 -0.1304 -0.5751
  853MOL0     N12515   4.394   3.704  10.133  0.5839  0.9246 -0.4380
  853MOL0     C12516   4.130   2.636  10.643 -0.5197 -0.0487 -0.0118
  853MOL0     C12517   3.998   2.647  10.627 -0.4185 -0.6815  0.5467
  853MOL0     C12518   3.573   2.648  10.391 -1.1623  0.0409  0.4389
  853MOL0     C12519   3.490   2.564  10.323 -0.4559  0.3546  0.2713
  853MOL0     C12520   3.355   2.577  10.335  0.2700 -0.3030  0.4881
  853MOL0     C12521   3.305   2.673  10.431 -0.8265  0.8889  1.0416
  853MOL0     O12522   3.171   2.675  10.452  0.7368 -0.1097  0.1359
  853MOL0     C12523   3.129   2.768  10.556  0.2167  0.1212  0.6324
  853MOL0     C12524   2.981   2.773  10.565 -0.3223 -0.2102 -0.5417
  853MOL0     C12525   2.924   2.881  10.659  0.4112  0.2674  0.7238
  853MOL0     C12526   2.937   2.845  10.805 -1.3506  0.2916  1.0054
  853MOL0     C12527   2.859   2.938  10.880 -0.1171  0.4519 -0.3318
  853MOL0     C12528   2.791   3.009  10.951 -0.0260  0.1373 -0.8715
  853MOL0     C12529   3.399   2.750  10.509  0.1037 -1.2640  0.4940
  853MOL0     C12530   3.535   2.745  10.485  0.1712 -0.5077  1.1476
  853MOL0     H12531   4.000   2.648  10.285  0.5067  1.1730  0.0530
  853MOL0     H12532   4.231   2.636  10.325  0.7121  0.5739  0.3139
  853MOL0     H12533   4.534   2.730  10.609  0.4935 -3.3350  0.6779
  853MOL0     H12534   4.404   2.733  10.726 -0.2877 -1.5919 -0.3779
  853MOL0     H12535   4.426   2.943  10.636  0.0331  0.7980 -0.9573
  853MOL0     H12536   4.266   2.873  10.587 -0.0590 -2.8901  1.9564
  853MOL0     H12537   4.393   2.820  10.356 -1.8761  1.0593  0.2636
  853MOL0     H12538   4.523   2.931  10.408 -0.9641  1.5311 -3.1582
  853MOL0     H12539   4.231   3.017  10.376 -0.3577  1.7102  0.7084
  853MOL0     H12540   4.358   3.124  10.437 -0.3817  2.2760 -1.7059
  853MOL0     H12541   4.355   2.988  10.174 -0.4665  0.1321  1.9451
  853MOL0     H12542   4.497   3.083  10.220  0.5552 -2.9158  0.7538
  853MOL0     H12543   4.211   3.209  10.211 -0.5953 -0.7478 -3.3070
  853MOL0     H12544   4.325   3.195  10.081  0.5433 -2.9386  0.0499
  853MOL0     H12545   4.378   3.355  10.354  0.4974  2.3398 -0.0213
  853MOL0     H12546   4.498   3.341  10.231  0.3735 -1.8998 -0.5093
  853MOL0     H12547   4.223   3.480  10.193 -0.0324  2.0073  0.6831
  853MOL0     H12548   4.352   3.452  10.064 -0.1575 -1.1611 -0.5703
  853MOL0     H12549   4.438   3.569  10.419 -2.1108 -0.5931 -0.1203
  853MOL0     H12550   4.597   3.777  10.487  2.1599  0.4321 -2.7635
  853MOL0     H12551   4.477   3.905  10.485 -0.0319 -1.9378  2.0497
  853MOL0     H12552   4.600   4.039  10.338  1.0855  0.1022 -2.1471
  853MOL0     H12553   4.684   3.907  10.259  1.9070  1.6363  0.0715
  853MOL0     H12554   4.809   4.089  10.433  3.0141 -0.3280  2.1465
  853MOL0     H12555   4.769   3.973  10.546  0.1740  2.0254  0.4501
  853MOL0     H12556   4.914   3.946  10.283  0.2756  0.8613  1.0328
  853MOL0     H12557   4.879   3.813  10.410 -2.7295  0.8142  1.4950
  853MOL0     H12558   5.082   3.760  10.281  0.9822 -3.6263  0.4563
  853MOL0     H12559   5.305   3.644  10.270  3.8937  0.4054  0.3433
  853MOL0     H12560   5.757   3.728  10.278  1.9288  0.3160  1.6123
  853MOL0     H12561   5.981   3.665  10.303  0.3306  0.8143 -2.4087
  853MOL0     H12562   6.078   3.342  10.112 -0.4506 -1.8880  1.3859
  853MOL0     H12563   6.198   3.282  10.195  0.5331  0.4779  1.6845
  853MOL0     H12564   6.179   3.579  10.130 -1.7674 -1.6559  1.5200
  853MOL0     H12565   6.293   3.472  10.067 -0.3373 -0.3582 -1.0535
  853MOL0     H12566   6.302   3.563  10.362 -0.8737 -0.9347  0.8421
  853MOL0     H12567   6.418   3.588  10.224  1.1764 -2.3943 -1.7510
  853MOL0     H12568   6.488   3.429  10.409  0.1571 -2.4695 -0.0302
  853MOL0     H12569   6.376   3.314  10.331  1.3977 -2.5403 -4.5217
  853MOL0     H12570   6.590   3.477  10.174 -0.6750  1.4348  2.7974
  853MOL0     H12571   6.479   3.356  10.110 -3.8388  1.9735  1.4323
  853MOL0     H12572   6.582   3.187  10.232 -0.1424  0.8837 -0.8918
  853MOL0     H12573   6.651   3.290  10.351 -1.6814 -2.0924  0.5905
  853MOL0     H12574   6.753   3.298  10.058  0.3581 -0.3001  0.2573
  853MOL0     H12575   6.807   3.406  10.187  0.6475 -0.5719  1.2892
  853MOL0     H12576   6.827   3.101  10.188  1.7092 -0.3473 -2.1600
  853MOL0     H12577   6.920   3.207  10.293  0.0099 -3.3245  0.7690
  853MOL0     H12578   5.850   3.242  10.301  1.2618 -0.8161 -0.8590
  853MOL0     H12579   5.621   3.310  10.308 -1.5994  1.7591  3.3266
  853MOL0     H12580   5.436   3.857  10.604 -1.4740 -3.6173  2.6556
  853MOL0     H12581   5.225   3.981  10.612 -3.1016 -2.4050  0.7700
  853MOL0     H12582   4.173   2.629  10.742  1.3580 -0.2008 -0.7939
  853MOL0     H12583   3.940   2.685  10.711 -0.4012 -0.2640  0.3718
  853MOL0     H12584   3.532   2.483  10.264 -1.4153  0.7985 -1.0931
  853MOL0     H12585   3.296   2.516  10.268  0.7193 -1.4196  1.0811
  853MOL0     H12586   3.167   2.866  10.525  1.0751  0.4921  2.6605
  853MOL0     H12587   3.175   2.739  10.652 -0.5595  1.6156  1.4962
  853MOL0     H12588   2.957   2.811  10.465 -1.1162 -4.8642 -2.3911
  853MOL0     H12589   2.936   2.676  10.585  0.9339 -0.3613  1.9222
  853MOL0     H12590   2.818   2.897  10.638  0.5830  0.7604  0.2118
  853MOL0     H12591   2.977   2.972  10.631 -0.6655  0.6674 -0.1088
  853MOL0     H12592   2.920   2.741  10.836  1.5720 -0.1973  1.2890
  853MOL0     H12593   3.042   2.859  10.834 -1.0936 -2.1563  1.5381
  853MOL0     H12594   2.739   3.060  11.029  0.5276 -2.4039  1.3229
  853MOL0     H12595   3.363   2.813  10.591  1.3901  1.3778 -0.8401
  853MOL0     H12596   3.616   2.795  10.538  2.4054  2.4405 -4.1640
  854MOL0     O12597   9.577   0.750   0.853  0.1607 -0.7031 -0.2251
  854MOL0     C12598   9.631   0.648   0.806 -0.8323  0.1553  0.7846
  854MOL0     O12599   9.762   0.616   0.809  0.0896  0.2004  0.1340
  854MOL0     C12600   9.843   0.708   0.874 -0.5212  0.9863  0.3294
  854MOL0     C12601   9.846   0.703   1.012  0.5235 -0.3418 -0.7393
  854MOL0     C12602   9.954   0.761   1.078  0.8827  0.3309  0.6222
  854MOL0     C12603  10.045   0.847   1.013 -0.1737  0.8444 -0.1276
  854MOL0     O12604  10.132   0.929   1.078 -0.3969  0.1313 -0.0414
  854MOL0     C12605  10.107   1.063   1.100  0.0099 -0.6541  0.2583
  854MOL0     C12606  10.076   1.071   1.254 -0.3322 -0.6070  0.3421
  854MOL0     C12607   9.944   1.012   1.306 -0.8925 -0.6735 -0.8238
  854MOL0     C12608   9.872   1.091   1.404 -0.0932 -1.2320 -0.6701
  854MOL0     C12609   9.761   1.022   1.477  0.1464  0.2974  0.2472
  854MOL0     C12610   9.663   1.128   1.536  0.6240  0.3399 -0.6010
  854MOL0     C12611   9.569   1.057   1.620  0.7904 -0.0382 -0.0114
  854MOL0     C12612   9.508   1.150   1.717 -0.3830  0.6418  0.0379
  854MOL0     N12613   9.414   1.072   1.795  0.8139  0.1452  0.0216
  854MOL0     C12614   9.440   0.950   1.859  0.3411 -0.8107  1.0281
  854MOL0     C12615   9.323   0.918   1.929 -0.4203 -0.6434  0.5494
  854MOL0     C12616   9.292   0.806   2.020 -0.2482  0.6073  0.3555
  854MOL0     C12617   9.181   0.707   1.982 -0.1007  0.1708 -0.6050
  854MOL0     C12618   9.157   0.599   2.094 -0.1076 -0.0582 -0.3322
  854MOL0     C12619   9.037   0.505   2.093 -0.8622  0.3470  0.3387
  854MOL0     O12620   9.025   0.435   2.213 -0.0731  0.4997 -0.9970
  854MOL0     C12621   9.097   0.314   2.243  0.0552 -0.1530  0.3467
  854MOL0     C12622   9.202   0.260   2.176 -0.4099  0.0684  0.0323
  854MOL0     C12623   9.257   0.136   2.223 -0.1278 -0.1969  0.9584
  854MOL0     C12624   9.200   0.066   2.325 -0.9942  0.4210 -0.3926
  854MOL0     C12625   9.263  -0.062   2.367 -0.4880 -0.0187  0.7833
  854MOL0     O12626   9.183  -0.148   2.429 -0.7594 -0.1037  0.2062
  854MOL0     C12627   9.247  -0.230   2.511 -0.0591 -0.9857  0.2213
  854MOL0     C12628   9.251  -0.360   2.474  0.3911 -0.6041 -0.7026
  854MOL0     C12629   9.295  -0.453   2.573 -0.6754  0.4704  0.2087
  854MOL0     C12630   9.335  -0.407   2.703 -1.2886 -1.1143  1.1931
  854MOL0     O12631   9.368  -0.512   2.793  0.8142 -0.1772  1.2554
  854MOL0     C12632   9.399  -0.488   2.923  0.7957 -0.1338  0.6063
  854MOL0     C12633   9.473  -0.605   2.995  0.1705 -0.2770 -1.1474
  854MOL0     C12634   9.617  -0.628   2.942  0.2163 -0.1695 -0.1587
  854MOL0     C12635   9.676  -0.738   3.021 -0.1407 -0.1143 -0.3495
  854MOL0     C12636   9.829  -0.746   3.004  0.2511 -0.9100  0.5541
  854MOL0     C12637   9.883  -0.871   3.060  0.9512  0.1547  0.2904
  854MOL0     C12638  10.026  -0.853   3.108 -0.1420 -1.4116 -0.1289
  854MOL0     C12639  10.123  -0.811   2.995 -1.0638  0.1466 -0.5694
  854MOL0    Cl12640  10.270  -0.744   3.075 -0.3432 -0.2329 -0.4515
  854MOL0     C12641   9.336  -0.272   2.737 -0.8337 -0.1931 -0.5907
  854MOL0     C12642   9.285  -0.185   2.638 -0.4833 -0.9599  0.7817
  854MOL0     O12643   9.381  -0.073   2.366  0.0193 -0.5764  0.1446
  854MOL0     C12644   9.086   0.121   2.393  0.1439 -0.6846  0.6812
  854MOL0     C12645   9.045   0.243   2.358 -0.0927  0.3474 -0.4333
  854MOL0     N12646   9.228   1.022   1.902  0.1940  0.3169  0.0049
  854MOL0     N12647   9.290   1.107   1.827 -0.0131  0.3164 -0.0309
  854MOL0     C12648  10.044   0.848   0.870  0.4458 -0.5617  0.1262
  854MOL0     C12649   9.934   0.788   0.801  0.6475 -0.0654  0.2047
  854MOL0     C12650   9.558   0.549   0.723  0.0271 -0.8385 -0.0300
  854MOL0     C12651   9.412   0.553   0.728  0.4050 -0.0995 -0.9582
  854MOL0     C12652   9.330   0.463   0.662 -0.0802  0.6384 -0.7918
  854MOL0     C12653   9.392   0.358   0.582 -0.2115 -0.0760 -0.3772
  854MOL0     O12654   9.317   0.274   0.501  0.5026 -0.5635  0.3825
  854MOL0     C12655   9.180   0.298   0.472  0.0565 -0.1096  0.1353
  854MOL0     C12656   9.114   0.161   0.432 -0.0849 -0.5973 -0.3470
  854MOL0     C12657   9.073   0.092   0.559 -0.2025  0.3508  0.7189
  854MOL0     C12658   8.929   0.020   0.552  0.2795 -0.2170 -0.1963
  854MOL0     C12659   8.931  -0.093   0.458 -0.3574 -0.3336  0.0844
  854MOL0     C12660   8.949  -0.190   0.384 -0.3735 -0.2294  0.0550
  854MOL0     C12661   9.528   0.351   0.579  0.5025 -0.5427  0.9426
  854MOL0     C12662   9.613   0.432   0.664  0.2639 -0.0609 -0.0817
  854MOL0     H12663   9.767   0.649   1.063  2.1412 -3.3404 -1.2079
  854MOL0     H12664   9.977   0.748   1.183 -0.6023 -2.4233  0.7108
  854MOL0     H12665  10.024   1.107   1.044  2.9445  2.2223 -2.1970
  854MOL0     H12666  10.190   1.121   1.059  0.1952 -2.5502 -2.3630
  854MOL0     H12667  10.086   1.179   1.272  4.0267 -0.7347 -0.2556
  854MOL0     H12668  10.164   1.027   1.301 -1.2919 -1.0344  1.7961
  854MOL0     H12669   9.981   0.920   1.353  3.0053  0.9490 -0.3133
  854MOL0     H12670   9.877   0.971   1.231 -1.0503 -1.2897 -0.3573
  854MOL0     H12671   9.945   1.125   1.479 -1.1491  0.7049 -0.4445
  854MOL0     H12672   9.830   1.179   1.356  0.3818  0.5156  1.8709
  854MOL0     H12673   9.792   0.954   1.557 -2.7711 -0.5040  0.8179
  854MOL0     H12674   9.708   0.961   1.404  1.6827  1.1659 -1.7177
  854MOL0     H12675   9.613   1.190   1.462 -0.5139  1.9991  1.4618
  854MOL0     H12676   9.732   1.193   1.590  2.0318 -0.3290 -1.5279
  854MOL0     H12677   9.486   1.022   1.559  1.0311 -1.7463  0.5961
  854MOL0     H12678   9.623   0.976   1.670 -1.2203 -0.8017  1.0167
  854MOL0     H12679   9.457   1.225   1.658 -1.8517  1.1213  1.8413
  854MOL0     H12680   9.590   1.196   1.773 -1.0155  0.4429  1.1597
  854MOL0     H12681   9.538   0.903   1.860 -0.0457 -2.0438 -3.0140
  854MOL0     H12682   9.263   0.854   2.114 -1.2424  1.1232 -0.1994
  854MOL0     H12683   9.384   0.748   2.032 -0.3182 -0.3180 -2.8346
  854MOL0     H12684   9.223   0.659   1.893  0.3153  2.0808 -1.4883
  854MOL0     H12685   9.086   0.758   1.961 -0.1383  2.5682  4.1136
  854MOL0     H12686   9.251   0.543   2.096  1.6291  2.5526 -2.1039
  854MOL0     H12687   9.151   0.644   2.193  3.1152  0.0391 -0.0777
  854MOL0     H12688   9.050   0.435   2.010  0.3378  0.6479  0.2528
  854MOL0     H12689   8.952   0.571   2.072  1.2312  2.1256 -3.5633
  854MOL0     H12690   9.253   0.319   2.101 -0.6211  2.5531  1.7524
  854MOL0     H12691   9.337   0.089   2.168  0.9228  0.0676  2.2154
  854MOL0     H12692   9.216  -0.394   2.377 -2.6762 -0.6943  0.3329
  854MOL0     H12693   9.318  -0.553   2.537 -1.8610  0.0105  0.6945
  854MOL0     H12694   9.305  -0.464   2.975 -0.4358  3.8362 -2.8450
  854MOL0     H12695   9.463  -0.400   2.926  1.7976 -0.8778  1.5863
  854MOL0     H12696   9.412  -0.695   2.982  0.2788  0.0359 -5.6010
  854MOL0     H12697   9.483  -0.583   3.101 -1.1491  1.6894 -1.3759
  854MOL0     H12698   9.668  -0.534   2.963 -0.4165 -0.1282  1.3162
  854MOL0     H12699   9.617  -0.658   2.837  1.6503 -0.2112 -0.1573
  854MOL0     H12700   9.638  -0.731   3.123 -0.1191  0.9871 -0.3998
  854MOL0     H12701   9.631  -0.830   2.983  3.0174 -0.5666 -3.5982
  854MOL0     H12702   9.877  -0.659   3.050  0.9923 -2.5520  3.0996
  854MOL0     H12703   9.845  -0.765   2.897  1.3593 -2.1913  0.9138
  854MOL0     H12704   9.887  -0.954   2.988 -0.8175 -1.1650  1.6003
  854MOL0     H12705   9.812  -0.910   3.134  0.3244 -0.4558 -0.6085
  854MOL0     H12706  10.030  -0.768   3.178  1.9886 -0.9296 -0.7596
  854MOL0     H12707  10.060  -0.946   3.155  0.1678 -2.8875 -3.0733
  854MOL0     H12708  10.084  -0.726   2.939 -4.2964 -1.3687 -0.8766
  854MOL0     H12709  10.141  -0.886   2.917  0.4812 -1.9478  1.6867
  854MOL0     H12710   9.370  -0.234   2.833  0.1731 -1.3025 -0.4935
  854MOL0     H12711   9.271  -0.081   2.668  0.7171 -0.5403 -0.0608
  854MOL0     H12712   9.031   0.076   2.475 -0.2962  0.6324  1.1494
  854MOL0     H12713   8.965   0.287   2.415 -1.9638 -2.0973 -1.0066
  854MOL0     H12714  10.126   0.889   0.812 -0.5807 -1.6962 -2.2573
  854MOL0     H12715   9.929   0.793   0.693  1.6869  1.1195  0.1939
  854MOL0     H12716   9.376   0.630   0.794  2.0454 -0.4842  0.4641
  854MOL0     H12717   9.224   0.477   0.682 -0.0118 -0.6258  0.6210
  854MOL0     H12718   9.163   0.366   0.389  1.9030 -0.7052 -0.7830
  854MOL0     H12719   9.133   0.335   0.564 -0.1596  5.2052 -1.7748
  854MOL0     H12720   9.025   0.192   0.378  1.0292  0.8604 -1.4030
  854MOL0     H12721   9.177   0.109   0.359 -1.7477 -0.7961 -1.7112
  854MOL0     H12722   9.078   0.155   0.648  1.3140  2.0538 -0.4857
  854MOL0     H12723   9.149   0.015   0.573  2.3953  1.8791 -3.1746
  854MOL0     H12724   8.910  -0.024   0.650 -1.7951 -0.2212 -0.5525
  854MOL0     H12725   8.843   0.085   0.533  0.2492  0.6847  2.5635
  854MOL0     H12726   8.968  -0.278   0.324  1.0250  0.4869 -0.5934
  854MOL0     H12727   9.568   0.279   0.508  2.3990  1.1850  0.1806
  854MOL0     H12728   9.720   0.414   0.650  0.5083  1.1530  0.1171
  855MOL0     O12729   6.838  10.396   6.380 -0.8010 -0.3642 -0.1412
  855MOL0     C12730   6.876  10.494   6.441  0.4616 -0.2001  0.0088
  855MOL0     O12731   6.809  10.618   6.441 -0.2661 -0.9353  0.1324
  855MOL0     C12732   6.684  10.625   6.388  0.5225 -0.2753 -0.1177
  855MOL0     C12733   6.645  10.743   6.328 -0.2460 -0.3041 -0.1496
  855MOL0     C12734   6.510  10.766   6.281 -0.0578  0.1823 -0.4822
  855MOL0     C12735   6.411  10.664   6.290 -0.3311  1.6920 -0.1603
  855MOL0     O12736   6.292  10.695   6.225  0.6783 -0.3704  0.3152
  855MOL0     C12737   6.230  10.594   6.145 -0.1988 -0.4674 -0.6035
  855MOL0     C12738   6.082  10.621   6.132 -0.3349 -0.5704 -0.2314
  855MOL0     C12739   6.027  10.528   6.027 -1.0568  0.0802  0.1428
  855MOL0     C12740   5.879  10.540   5.990 -0.5687  0.4953  0.2115
  855MOL0     C12741   5.831  10.431   5.888 -0.2306 -0.3481  0.2302
  855MOL0     C12742   5.854  10.282   5.923  0.3787  0.0461  0.0926
  855MOL0     C12743   5.894  10.202   5.793  0.4560  0.2714  0.7555
  855MOL0     C12744   5.763  10.182   5.712 -0.2864 -0.4725  0.1753
  855MOL0     N12745   5.681  10.070   5.761 -0.1545  0.1577  0.7085
  855MOL0     C12746   5.731   9.944   5.780 -0.0970 -0.5761  0.6554
  855MOL0     C12747   5.625   9.871   5.819 -0.7065 -0.3679 -0.5654
  855MOL0     C12748   5.634   9.722   5.833 -0.6534 -0.0102 -0.1065
  855MOL0     C12749   5.762   9.648   5.885 -0.2599 -1.4872  0.2836
  855MOL0     C12750   5.787   9.684   6.036 -0.7064 -0.0524  0.3501
  855MOL0     C12751   5.767   9.561   6.131 -0.0275  0.3217  0.0467
  855MOL0     O12752   5.834   9.442   6.083  0.3015  0.1696 -0.7839
  855MOL0     C12753   5.964   9.416   6.096  0.2135  0.8369 -0.0499
  855MOL0     C12754   6.055   9.485   6.181  0.2667  0.4027  0.8115
  855MOL0     C12755   6.186   9.437   6.191  0.3150 -1.0018  1.5321
  855MOL0     C12756   6.228   9.313   6.130 -0.4106 -0.1417  0.5453
  855MOL0     C12757   6.370   9.274   6.128 -0.0151 -0.1123  0.3580
  855MOL0     O12758   6.405   9.162   6.062 -0.6402  0.0978  0.0840
  855MOL0     C12759   6.533   9.116   6.076 -0.6086  0.6497 -0.8508
  855MOL0     C12760   6.605   9.091   6.189 -1.2575  0.4294  0.4386
  855MOL0     C12761   6.734   9.041   6.188 -0.7147 -0.4268  0.1274
  855MOL0     C12762   6.804   9.016   6.073  0.0585  0.3228  0.5746
  855MOL0     O12763   6.933   8.958   6.067 -0.1297  0.7828 -0.3139
  855MOL0     C12764   6.996   8.886   6.183 -0.3942  0.1235  0.6359
  855MOL0     C12765   7.104   8.784   6.148  0.1721  0.3035  0.8947
  855MOL0     C12766   7.227   8.845   6.072 -0.2258  0.0928  0.3367
  855MOL0     C12767   7.314   8.731   6.032  0.2922  0.5580 -0.6175
  855MOL0     C12768   7.446   8.787   5.971 -0.1510  0.0359 -0.2020
  855MOL0     C12769   7.557   8.681   5.964 -0.3312 -0.5159  0.0365
  855MOL0     C12770   7.508   8.551   5.898 -0.6647 -0.2748  0.3041
  855MOL0     C12771   7.631   8.464   5.879  0.3665  0.2529  0.1415
  855MOL0    Cl12772   7.729   8.551   5.744  0.0398 -0.0153  0.2117
  855MOL0     C12773   6.735   9.047   5.953  0.1697  0.2980 -0.4739
  855MOL0     C12774   6.602   9.094   5.953  0.4107  1.1979  0.2042
  855MOL0     O12775   6.449   9.335   6.201 -0.1024 -0.4246  0.2150
  855MOL0     C12776   6.137   9.250   6.050 -0.6631 -0.5640 -0.7093
  855MOL0     C12777   6.003   9.298   6.023 -0.8007 -0.7516  0.5537
  855MOL0     N12778   5.520   9.948   5.841 -0.4065  0.4587 -0.4524
  855MOL0     N12779   5.552  10.063   5.798  0.5843 -1.0619 -0.1632
  855MOL0     C12780   6.446  10.546   6.357  0.6314  0.2088 -0.6256
  855MOL0     C12781   6.583  10.527   6.402 -0.3328  0.1875 -0.1235
  855MOL0     C12782   6.992  10.486   6.523 -0.0445  0.0967 -0.1668
  855MOL0     C12783   7.025  10.589   6.613  0.4494  0.2713 -0.0974
  855MOL0     C12784   7.151  10.590   6.685  0.7601 -0.0099 -0.6234
  855MOL0     C12785   7.240  10.483   6.683 -0.5350 -0.3959  0.2000
  855MOL0     O12786   7.353  10.486   6.764 -0.0555 -0.2102  0.0122
  855MOL0     C12787   7.452  10.379   6.750 -0.2438  0.4211 -1.2659
  855MOL0     C12788   7.558  10.352   6.871  0.7092  0.0846 -0.0270
  855MOL0     C12789   7.493  10.370   7.005  0.0697  0.5151  0.1958
  855MOL0     C12790   7.563  10.307   7.114 -0.1572 -0.8942  0.4570
  855MOL0     C12791   7.519  10.362   7.246  0.3056 -0.7507 -0.5362
  855MOL0     C12792   7.496  10.400   7.362 -0.3815  0.0909 -0.3119
  855MOL0     C12793   7.191  10.374   6.601  0.3472 -0.0395 -0.5353
  855MOL0     C12794   7.079  10.378   6.517 -0.8879 -0.3970 -0.7681
  855MOL0     H12795   6.722  10.817   6.313  1.5028 -2.1717 -0.9401
  855MOL0     H12796   6.493  10.861   6.233 -0.7323  0.9961  1.2733
  855MOL0     H12797   6.243  10.501   6.201  4.4990  1.1659  1.5221
  855MOL0     H12798   6.278  10.585   6.047 -0.1502 -1.9183 -0.4618
  855MOL0     H12799   6.066  10.726   6.108 -0.4692 -0.5928 -0.2433
  855MOL0     H12800   6.056  10.609   6.238  2.7943  2.5540  1.0999
  855MOL0     H12801   6.042  10.427   6.066 -1.5071 -1.5786 -3.5505
  855MOL0     H12802   6.089  10.538   5.938 -0.6551  1.1933  0.5365
  855MOL0     H12803   5.824  10.535   6.084  4.4859 -3.0162  3.4713
  855MOL0     H12804   5.855  10.631   5.935 -1.0947  0.0038 -0.3875
  855MOL0     H12805   5.898  10.447   5.803 -0.5699  3.5256  0.5126
  855MOL0     H12806   5.728  10.446   5.853 -1.2748 -2.3877  2.1285
  855MOL0     H12807   5.775  10.231   5.977 -1.0992  0.6796 -1.3850
  855MOL0     H12808   5.938  10.272   5.993  0.8108  0.0952 -0.4096
  855MOL0     H12809   5.965  10.260   5.734 -1.9568  0.2549 -2.4450
  855MOL0     H12810   5.938  10.103   5.808 -1.0532 -0.3782  1.0787
  855MOL0     H12811   5.780  10.157   5.606  0.0269  0.8298 -0.0929
  855MOL0     H12812   5.707  10.276   5.717 -1.3457 -1.0813  0.2064
  855MOL0     H12813   5.832   9.908   5.762  1.0433  2.4552  0.3573
  855MOL0     H12814   5.611   9.681   5.734  4.0464 -1.0354 -1.0210
  855MOL0     H12815   5.558   9.683   5.901 -0.2456  0.2279  0.4899
  855MOL0     H12816   5.840   9.681   5.815 -1.2638  1.6670  0.4894
  855MOL0     H12817   5.749   9.540   5.872 -0.8000 -1.4339  0.3854
  855MOL0     H12818   5.889   9.722   6.045  0.0824 -2.4723  3.1597
  855MOL0     H12819   5.718   9.758   6.077  0.0565  2.1932 -2.1227
  855MOL0     H12820   5.659   9.546   6.134 -0.0068 -0.0851  3.7793
  855MOL0     H12821   5.791   9.580   6.236 -1.7637 -0.1145  0.5650
  855MOL0     H12822   6.026   9.571   6.239  0.9943  0.2604  1.3992
  855MOL0     H12823   6.255   9.499   6.247  0.8123  3.0644 -2.9392
  855MOL0     H12824   6.560   9.118   6.284 -3.1888 -3.1610  0.7326
  855MOL0     H12825   6.788   9.024   6.281  4.3164 -1.3331 -2.6365
  855MOL0     H12826   6.916   8.831   6.233 -3.2074  2.5027 -0.9324
  855MOL0     H12827   7.035   8.966   6.246  1.1834 -0.4918  0.4736
  855MOL0     H12828   7.069   8.695   6.096 -2.5099  0.6546  1.9515
  855MOL0     H12829   7.149   8.750   6.242 -0.4730 -0.4638  0.9399
  855MOL0     H12830   7.280   8.917   6.135  1.7598 -1.9572  1.1686
  855MOL0     H12831   7.191   8.898   5.984  0.0349  3.0356  1.8682
  855MOL0     H12832   7.327   8.663   6.117  0.3440 -0.0742 -1.1153
  855MOL0     H12833   7.258   8.675   5.957 -3.3395  3.5189 -0.3577
  855MOL0     H12834   7.489   8.863   6.037  2.3082 -2.0189  0.7081
  855MOL0     H12835   7.428   8.832   5.873 -1.0619  1.2209  0.4757
  855MOL0     H12836   7.603   8.663   6.062 -0.2196 -1.9094 -0.2493
  855MOL0     H12837   7.639   8.730   5.911 -0.6348  0.5635  0.5488
  855MOL0     H12838   7.431   8.511   5.965 -0.4422 -0.6013  0.3678
  855MOL0     H12839   7.458   8.570   5.803  3.1842  3.5625 -1.3046
  855MOL0     H12840   7.591   8.367   5.846 -4.0287  2.2703 -1.1725
  855MOL0     H12841   7.682   8.462   5.976 -3.0713  2.7481  2.2304
  855MOL0     H12842   6.782   9.021   5.859 -2.2241  1.4361 -2.0919
  855MOL0     H12843   6.546   9.118   5.863 -0.4456  0.5846  0.5714
  855MOL0     H12844   6.156   9.155   6.000  1.7358  0.1016 -1.1909
  855MOL0     H12845   5.940   9.254   5.946  2.0618 -1.6746 -1.4379
  855MOL0     H12846   6.369  10.473   6.380 -0.2819  1.0797 -0.8353
  855MOL0     H12847   6.607  10.433   6.451 -1.9385 -0.9280 -1.3913
  855MOL0     H12848   6.965  10.678   6.628 -1.1366 -1.0420  1.8771
  855MOL0     H12849   7.178  10.674   6.748 -1.8497  0.5009 -0.0751
  855MOL0     H12850   7.513  10.401   6.662  1.1991  2.9964  0.2376
  855MOL0     H12851   7.397  10.285   6.741  0.0041  0.1076  0.1863
  855MOL0     H12852   7.591  10.249   6.857 -1.9139 -0.8666  0.1621
  855MOL0     H12853   7.638  10.426   6.860  0.8930  0.5284  3.2404
  855MOL0     H12854   7.397  10.317   7.001 -0.2357  1.0806 -0.1035
  855MOL0     H12855   7.475  10.476   7.024 -1.7636 -0.0295  1.8090
  855MOL0     H12856   7.552  10.199   7.099 -2.7922 -0.4521 -1.4709
  855MOL0     H12857   7.670  10.332   7.116 -0.5104  1.1188 -1.5055
  855MOL0     H12858   7.476  10.427   7.464  0.7438  1.4274 -0.4102
  855MOL0     H12859   7.250  10.283   6.603 -0.5180 -0.6522 -1.7916
  855MOL0     H12860   7.049  10.298   6.451  1.0145 -1.5204 -0.3528
  856MOL0     O12861   6.924   8.460   2.012  0.5429 -0.0137 -0.6252
  856MOL0     C12862   6.976   8.509   2.111 -0.6262  0.7808 -0.6694
  856MOL0     O12863   7.100   8.562   2.114  0.2282 -0.4202  0.3784
  856MOL0     C12864   7.176   8.563   2.002 -0.5369 -1.0024  0.1877
  856MOL0     C12865   7.153   8.656   1.893  0.7019  0.7572 -1.0733
  856MOL0     C12866   7.246   8.660   1.799 -0.0088 -0.9806  0.8143
  856MOL0     C12867   7.353   8.577   1.789 -0.6833  0.0361  0.1830
  856MOL0     O12868   7.455   8.584   1.694  0.1856 -0.4849  0.0581
  856MOL0     C12869   7.436   8.669   1.583  0.1166  0.0096  0.2136
  856MOL0     C12870   7.565   8.677   1.497 -0.1271 -0.0284 -0.6454
  856MOL0     C12871   7.702   8.711   1.571  0.3067 -0.0320  0.4317
  856MOL0     C12872   7.804   8.686   1.468 -0.8195 -0.4772  0.4497
  856MOL0     C12873   7.937   8.763   1.503 -0.1549 -0.2101 -0.5498
  856MOL0     C12874   7.979   8.733   1.650 -0.6240 -0.0214  1.2528
  856MOL0     C12875   8.127   8.749   1.670  1.0124  0.5535 -0.0755
  856MOL0     C12876   8.201   8.617   1.665 -0.0076 -0.1115 -0.0719
  856MOL0     N12877   8.344   8.632   1.693 -0.3008  0.0753 -0.5311
  856MOL0     C12878   8.394   8.662   1.819 -0.3936 -0.5974 -0.5743
  856MOL0     C12879   8.526   8.661   1.807  0.1209  0.7708  0.2004
  856MOL0     C12880   8.616   8.677   1.919 -1.0386 -0.0832  0.1185
  856MOL0     C12881   8.756   8.629   1.895 -0.1716 -0.0885  0.0683
  856MOL0     C12882   8.846   8.673   2.015 -0.4988  0.5537 -0.5104
  856MOL0     C12883   8.984   8.616   1.984  0.3701  0.8107 -0.2479
  856MOL0     O12884   9.017   8.646   1.851 -0.1031 -0.6097 -0.2722
  856MOL0     C12885   9.143   8.609   1.802  0.6394  0.8787 -0.6295
  856MOL0     C12886   9.232   8.523   1.861 -0.1319 -0.0282 -0.6608
  856MOL0     C12887   9.345   8.477   1.794 -0.4356 -0.4807 -0.1929
  856MOL0     C12888   9.383   8.528   1.669 -0.0460  0.4939  1.2137
  856MOL0     C12889   9.520   8.525   1.621  0.3909  0.4522  0.5103
  856MOL0     O12890   9.570   8.634   1.545 -0.2554  0.3083 -0.4711
  856MOL0     C12891   9.704   8.627   1.511  0.4636 -0.2526  0.3195
  856MOL0     C12892   9.806   8.681   1.593  0.6867 -0.1624  0.4378
  856MOL0     C12893   9.940   8.670   1.531  0.0621  0.5359  0.1608
  856MOL0     C12894   9.964   8.583   1.424  0.6710  0.5036 -0.5838
  856MOL0     O12895  10.101   8.561   1.405 -0.4534 -0.2570 -0.2790
  856MOL0     C12896  10.142   8.593   1.278 -0.0093  0.4508  1.0334
  856MOL0     C12897  10.198   8.461   1.203 -0.0431 -0.8145  0.5836
  856MOL0     C12898  10.332   8.406   1.242  0.1921 -0.1941  0.5238
  856MOL0     C12899  10.368   8.299   1.128 -0.5581 -0.1627 -0.4391
  856MOL0     C12900  10.481   8.199   1.164  0.0045  1.3239 -0.4623
  856MOL0     C12901  10.501   8.115   1.038  0.5382  0.4054 -0.6140
  856MOL0     C12902  10.599   8.003   1.088  0.7139  0.1937  0.0982
  856MOL0     C12903  10.752   8.039   1.102 -0.7169  0.4459  0.2336
  856MOL0    Cl12904  10.795   8.092   1.257 -0.3814 -0.1879 -0.1161
  856MOL0     C12905   9.862   8.535   1.348  0.0749  0.6569 -0.3667
  856MOL0     C12906   9.734   8.559   1.387  0.2657 -0.0906 -0.7851
  856MOL0     O12907   9.591   8.431   1.652  0.3471  0.4656  0.4401
  856MOL0     C12908   9.296   8.605   1.602  0.7331  0.3899 -0.3590
  856MOL0     C12909   9.180   8.649   1.670  0.1211 -0.3938  0.3799
  856MOL0     N12910   8.561   8.637   1.675  0.4981  0.4403 -0.9368
  856MOL0     N12911   8.453   8.629   1.606  0.0246  0.3135  0.6086
  856MOL0     C12912   7.363   8.465   1.871  0.7955  0.4657 -0.5977
  856MOL0     C12913   7.277   8.468   1.985 -0.6179 -0.1200  0.7630
  856MOL0     C12914   6.899   8.496   2.237 -0.1174 -0.2878 -0.1250
  856MOL0     C12915   6.959   8.542   2.356  0.1212 -0.8326  0.6605
  856MOL0     C12916   6.891   8.515   2.476  0.8210 -0.9279  0.7594
  856MOL0     C12917   6.763   8.463   2.475 -0.4011 -0.3224 -0.2351
  856MOL0     O12918   6.685   8.443   2.580 -0.7047  1.3328 -0.5146
  856MOL0     C12919   6.687   8.549   2.672 -0.2162 -0.8400 -1.2248
  856MOL0     C12920   6.585   8.523   2.793 -0.0672  0.0175 -0.7213
  856MOL0     C12921   6.614   8.625   2.901  0.2937 -0.9952  0.5503
  856MOL0     C12922   6.646   8.553   3.032  0.5317  0.3318 -0.2756
  856MOL0     C12923   6.543   8.465   3.096  0.4868 -0.0805 -0.4519
  856MOL0     C12924   6.464   8.391   3.157  0.2034 -0.0519 -0.6090
  856MOL0     C12925   6.704   8.419   2.354 -0.0540  0.4045  0.1140
  856MOL0     C12926   6.772   8.438   2.232  0.0932  0.4970 -0.3698
  856MOL0     H12927   7.067   8.722   1.903 -0.4620 -0.5813 -1.8443
  856MOL0     H12928   7.246   8.749   1.737 -3.3016 -0.6098  1.1408
  856MOL0     H12929   7.418   8.773   1.612 -3.2400 -0.5218  0.4329
  856MOL0     H12930   7.347   8.641   1.525 -1.1727 -0.2231  2.2015
  856MOL0     H12931   7.548   8.761   1.429  0.0950 -0.6224 -1.4397
  856MOL0     H12932   7.576   8.583   1.443 -0.4236 -1.9733  2.4561
  856MOL0     H12933   7.715   8.645   1.658  2.3827  0.7275  0.7413
  856MOL0     H12934   7.702   8.807   1.623 -0.9332 -1.0321  2.3958
  856MOL0     H12935   7.818   8.577   1.463  0.7920 -0.3500  1.4202
  856MOL0     H12936   7.778   8.728   1.371  3.7706 -0.6969 -1.1505
  856MOL0     H12937   7.926   8.870   1.482  1.3562  0.3619  1.2982
  856MOL0     H12938   8.016   8.738   1.432  1.6480 -0.4898  1.4681
  856MOL0     H12939   7.947   8.631   1.675  2.5585 -0.9190  2.1699
  856MOL0     H12940   7.930   8.809   1.712 -0.7177  2.4712 -1.6223
  856MOL0     H12941   8.164   8.815   1.592  0.5412  2.7413  1.4466
  856MOL0     H12942   8.133   8.798   1.768 -1.8309 -0.3247  0.6320
  856MOL0     H12943   8.197   8.575   1.563  0.8513 -3.7798  1.2277
  856MOL0     H12944   8.151   8.543   1.728 -3.5381 -0.2530 -2.6993
  856MOL0     H12945   8.341   8.672   1.914 -2.0886  2.6829 -1.6918
  856MOL0     H12946   8.577   8.625   2.007  0.7333 -1.3856  0.1710
  856MOL0     H12947   8.615   8.785   1.939 -0.3606  0.3719 -2.0787
  856MOL0     H12948   8.791   8.681   1.805 -1.4003 -0.4238 -0.6238
  856MOL0     H12949   8.752   8.522   1.873  0.7575 -0.1175  0.0032
  856MOL0     H12950   8.852   8.782   2.009 -0.7286  0.5691 -0.4903
  856MOL0     H12951   8.808   8.630   2.108  3.0969  2.5969  2.1257
  856MOL0     H12952   8.986   8.506   1.986  1.5961  0.8002 -0.9852
  856MOL0     H12953   9.057   8.665   2.049  2.1331 -0.1512 -1.4175
  856MOL0     H12954   9.215   8.469   1.954  1.4533  1.8178  0.7750
  856MOL0     H12955   9.416   8.415   1.848  0.3954  1.9479  1.6662
  856MOL0     H12956   9.784   8.726   1.690 -1.4435 -4.2900  2.1228
  856MOL0     H12957  10.020   8.715   1.590 -0.8176  1.6241  0.5474
  856MOL0     H12958  10.227   8.663   1.274 -0.4218  0.9658  1.1856
  856MOL0     H12959  10.065   8.646   1.222  3.3359  1.7421 -2.9268
  856MOL0     H12960  10.193   8.484   1.096 -0.3467 -1.4287  0.4630
  856MOL0     H12961  10.129   8.377   1.212  1.2883 -1.8477  1.4937
  856MOL0     H12962  10.317   8.343   1.330 -1.0130  1.3970  1.5287
  856MOL0     H12963  10.410   8.482   1.252  2.1960 -2.1916  0.6586
  856MOL0     H12964  10.279   8.238   1.108  0.2589 -1.7747  0.6338
  856MOL0     H12965  10.404   8.353   1.040 -0.0911 -0.6527 -0.5536
  856MOL0     H12966  10.446   8.127   1.239 -1.7211  2.3909 -0.1765
  856MOL0     H12967  10.568   8.251   1.205 -1.0549  1.9587  1.1085
  856MOL0     H12968  10.552   8.173   0.961 -0.7784 -0.3882 -2.1210
  856MOL0     H12969  10.409   8.068   1.002 -0.6002 -0.3308  2.8607
  856MOL0     H12970  10.576   7.952   1.182  1.7556  0.1937  0.3683
  856MOL0     H12971  10.592   7.921   1.017  3.5804 -1.3691  1.4409
  856MOL0     H12972  10.789   8.109   1.027  3.3228 -2.7771 -1.1368
  856MOL0     H12973  10.814   7.953   1.072 -1.4301 -0.5013  1.3762
  856MOL0     H12974   9.884   8.478   1.259 -0.0608  1.6940 -1.0896
  856MOL0     H12975   9.649   8.513   1.338 -1.0389  0.1704  1.1187
  856MOL0     H12976   9.332   8.648   1.509  0.4808 -0.3757 -0.8159
  856MOL0     H12977   9.109   8.703   1.608  0.1837  0.0091  0.6523
  856MOL0     H12978   7.442   8.391   1.865  1.1214  0.8921 -2.1031
  856MOL0     H12979   7.283   8.384   2.054 -0.9748  0.2361  1.2347
  856MOL0     H12980   7.060   8.581   2.362 -0.6279  0.9776  2.7542
  856MOL0     H12981   6.926   8.535   2.577  0.5155  0.5237  0.6035
  856MOL0     H12982   6.651   8.633   2.612 -2.7642 -1.0289 -0.1089
  856MOL0     H12983   6.777   8.578   2.726  0.2740  1.0036 -2.9265
  856MOL0     H12984   6.482   8.532   2.758  0.9492  0.3689 -3.8787
  856MOL0     H12985   6.591   8.415   2.812 -1.4786 -0.5153 -2.8808
  856MOL0     H12986   6.520   8.680   2.907 -0.7518 -2.7997  2.3257
  856MOL0     H12987   6.687   8.703   2.882 -1.6422  0.4274 -1.4726
  856MOL0     H12988   6.739   8.498   3.016 -1.1222 -2.3370 -1.3874
  856MOL0     H12989   6.668   8.637   3.099  6.8825 -1.8875  1.0454
  856MOL0     H12990   6.395   8.324   3.204 -0.9698  1.0333 -0.7293
  856MOL0     H12991   6.605   8.375   2.362 -0.6776  1.1897 -2.3153
  856MOL0     H12992   6.727   8.402   2.140  1.1804 -0.6957 -0.4615
  857MOL0     O12993   8.034   9.308   2.598 -0.5898 -0.0721 -0.5914
  857MOL0     C12994   8.016   9.406   2.529 -0.2348  0.1203 -0.0125
  857MOL0     O12995   7.911   9.497   2.544 -0.3739  0.4547  0.5034
  857MOL0     C12996   7.814   9.467   2.637  0.0263  0.1569 -0.4800
  857MOL0     C12997   7.778   9.569   2.719 -0.0687  0.0828 -0.0191
  857MOL0     C12998   7.672   9.567   2.813  0.2759  0.0541 -0.2282
  857MOL0     C12999   7.595   9.452   2.820  0.3929  0.6357  1.1850
  857MOL0     O13000   7.473   9.427   2.880 -0.8459  0.0310 -0.0340
  857MOL0     C13001   7.441   9.505   2.993  0.2761  0.6863 -1.0789
  857MOL0     C13002   7.297   9.497   3.052 -0.8376 -0.3086 -0.2227
  857MOL0     C13003   7.259   9.354   3.091  0.6421  0.5421 -0.0200
  857MOL0     C13004   7.321   9.315   3.236  0.8771  0.5869  0.2930
  857MOL0     C13005   7.357   9.166   3.239 -0.2256 -0.0738 -0.3125
  857MOL0     C13006   7.494   9.142   3.171 -0.4214 -0.2185 -0.3895
  857MOL0     C13007   7.617   9.214   3.232  0.1173  0.3852  0.3303
  857MOL0     C13008   7.749   9.172   3.182  0.0452  1.1502 -0.3021
  857MOL0     N13009   7.836   9.281   3.187 -0.6339 -0.0647 -0.5190
  857MOL0     C13010   7.849   9.373   3.084  0.7927 -0.4721 -0.2818
  857MOL0     C13011   7.937   9.463   3.131  1.0699  0.7639  0.6302
  857MOL0     C13012   7.979   9.576   3.050  0.2677  0.1650  0.2218
  857MOL0     C13013   8.092   9.512   2.968  0.0099  0.4345 -0.7133
  857MOL0     C13014   8.170   9.616   2.891 -1.0721 -0.3016 -0.7147
  857MOL0     C13015   8.294   9.541   2.824  1.0223 -0.4570 -0.3062
  857MOL0     O13016   8.338   9.633   2.726  0.8499  0.0193  0.3482
  857MOL0     C13017   8.437   9.577   2.651 -0.5757 -0.3045 -0.2748
  857MOL0     C13018   8.563   9.574   2.712  0.6767 -1.1170  0.0631
  857MOL0     C13019   8.671   9.513   2.640  0.5440  1.4868  0.3820
  857MOL0     C13020   8.651   9.453   2.506 -0.7526  0.1948 -0.7455
  857MOL0     C13021   8.763   9.404   2.431 -1.6062  0.2585  0.6499
  857MOL0     O13022   8.725   9.341   2.311 -0.1215  0.0781  0.5086
  857MOL0     C13023   8.823   9.284   2.236 -0.4750 -0.1653 -0.1852
  857MOL0     C13024   8.873   9.346   2.124  0.0165 -1.0960  0.8384
  857MOL0     C13025   8.946   9.278   2.033  0.1758  0.1548  0.1848
  857MOL0     C13026   8.987   9.151   2.059  0.1759 -0.7934 -0.2095
  857MOL0     O13027   9.087   9.103   1.981  0.3827 -0.0699 -1.1007
  857MOL0     C13028   9.179   9.012   2.053  0.1123 -0.2893  0.5715
  857MOL0     C13029   9.308   9.005   1.966  0.6155  0.2086 -0.4738
  857MOL0     C13030   9.284   8.970   1.822 -0.3065  0.6002 -0.6395
  857MOL0     C13031   9.413   8.998   1.746 -0.1921  0.4300 -0.0413
  857MOL0     C13032   9.409   8.962   1.594 -0.6887  0.5111  0.0533
  857MOL0     C13033   9.533   9.012   1.520 -0.0008  0.0512  0.9970
  857MOL0     C13034   9.529   8.988   1.368 -0.6697  0.1839  1.3246
  857MOL0     C13035   9.676   8.967   1.317  0.3735  0.2470 -0.0293
  857MOL0    Cl13036   9.787   9.104   1.337  0.9246  0.2082  0.1760
  857MOL0     C13037   8.935   9.088   2.173 -0.5008  1.0724  1.0325
  857MOL0     C13038   8.855   9.149   2.264  0.0651 -0.5972  1.0522
  857MOL0     O13039   8.871   9.390   2.488  0.6264  0.0596 -1.0605
  857MOL0     C13040   8.523   9.472   2.454 -0.3781  1.0557 -0.6890
  857MOL0     C13041   8.420   9.532   2.522 -0.2658  0.5920  0.5326
  857MOL0     N13042   7.965   9.428   3.265 -1.1743 -0.0986 -0.3459
  857MOL0     N13043   7.907   9.317   3.298  0.1712  0.5997 -0.0686
  857MOL0     C13044   7.642   9.337   2.744  0.2414 -0.1023 -0.2652
  857MOL0     C13045   7.748   9.348   2.657 -0.8993 -0.5698 -0.1984
  857MOL0     C13046   8.102   9.425   2.410 -0.8808  0.3891 -0.7156
  857MOL0     C13047   8.190   9.317   2.363 -0.3758 -0.5256  0.9704
  857MOL0     C13048   8.259   9.352   2.242 -0.2868 -0.9906 -0.8045
  857MOL0     C13049   8.234   9.470   2.166 -0.3969 -0.5059  0.2331
  857MOL0     O13050   8.291   9.483   2.048  0.0114 -0.1491 -0.0337
  857MOL0     C13051   8.435   9.497   2.043 -0.2724 -0.5458  0.0008
  857MOL0     C13052   8.471   9.539   1.897 -0.4789 -0.1193  0.2597
  857MOL0     C13053   8.625   9.512   1.876 -0.3810 -0.2258  0.5076
  857MOL0     C13054   8.670   9.536   1.731 -0.4254 -0.0087  0.3178
  857MOL0     C13055   8.808   9.547   1.718 -1.1215  0.5114  0.3375
  857MOL0     C13056   8.933   9.563   1.699  0.4842  0.1957  1.0234
  857MOL0     C13057   8.157   9.563   2.218 -0.5024 -0.6569  0.2085
  857MOL0     C13058   8.100   9.543   2.342 -0.2306 -0.9031  0.0494
  857MOL0     H13059   7.810   9.671   2.700 -0.0835  0.5670  2.3283
  857MOL0     H13060   7.653   9.654   2.875  1.4600  4.4253 -5.3038
  857MOL0     H13061   7.461   9.611   2.975 -0.3377  1.4683  2.2352
  857MOL0     H13062   7.509   9.472   3.073 -2.9616 -1.6236  0.9826
  857MOL0     H13063   7.220   9.532   2.983 -1.8170 -0.8811  0.5674
  857MOL0     H13064   7.282   9.565   3.136  0.2000  0.8814 -0.9622
  857MOL0     H13065   7.296   9.281   3.018  1.0129  0.4688  0.2386
  857MOL0     H13066   7.150   9.343   3.093  0.9166 -4.5528  1.8430
  857MOL0     H13067   7.411   9.371   3.261  1.6260 -0.1089 -0.7388
  857MOL0     H13068   7.240   9.327   3.309 -1.5753 -1.4964 -1.8726
  857MOL0     H13069   7.276   9.125   3.179  0.0775 -0.2282 -0.6213
  857MOL0     H13070   7.353   9.127   3.341  0.1181  0.5374 -0.0610
  857MOL0     H13071   7.484   9.176   3.068 -2.5452  0.6918  0.0732
  857MOL0     H13072   7.494   9.033   3.161 -3.1843 -0.4532  1.2279
  857MOL0     H13073   7.611   9.318   3.199  0.9322  0.2325 -0.3167
  857MOL0     H13074   7.610   9.212   3.342 -2.2605  1.1091  0.2476
  857MOL0     H13075   7.743   9.127   3.083 -2.4657  1.2060 -0.2421
  857MOL0     H13076   7.793   9.098   3.249  0.8175  0.4818 -1.5214
  857MOL0     H13077   7.804   9.369   2.985 -1.4465  1.1500  0.5773
  857MOL0     H13078   8.028   9.659   3.103 -1.1965  2.4330 -1.7621
  857MOL0     H13079   7.891   9.605   2.991  0.5321 -0.6290 -0.5825
  857MOL0     H13080   8.054   9.447   2.889 -0.0615  1.2962 -1.4044
  857MOL0     H13081   8.145   9.455   3.045 -0.4103  1.6720  0.5270
  857MOL0     H13082   8.119   9.667   2.809 -1.0143  0.8146 -0.0780
  857MOL0     H13083   8.197   9.700   2.957 -0.1327 -0.8487 -0.3816
  857MOL0     H13084   8.256   9.454   2.770 -0.2644  0.7404 -1.4235
  857MOL0     H13085   8.372   9.514   2.897  3.4394  1.8759 -1.8204
  857MOL0     H13086   8.591   9.619   2.806  1.0837  1.6110 -1.2662
  857MOL0     H13087   8.770   9.509   2.684  0.2983  0.0109  0.8840
  857MOL0     H13088   8.842   9.447   2.101  1.9986 -0.8149 -0.8600
  857MOL0     H13089   8.961   9.313   1.931  1.7802  1.1355  0.7167
  857MOL0     H13090   9.130   8.915   2.067 -1.1722 -0.0234 -1.7207
  857MOL0     H13091   9.213   9.045   2.152  0.2321 -0.6619  0.6565
  857MOL0     H13092   9.378   8.935   2.012  0.4724  0.5655  0.3039
  857MOL0     H13093   9.367   9.097   1.963  0.4890  0.2760 -1.0344
  857MOL0     H13094   9.198   9.021   1.777  0.0449  2.7796  0.9742
  857MOL0     H13095   9.269   8.862   1.826 -1.5161  0.6507 -2.4460
  857MOL0     H13096   9.435   9.105   1.746  2.6015 -0.0642  0.6216
  857MOL0     H13097   9.500   8.954   1.796 -0.1965 -0.3752 -0.7200
  857MOL0     H13098   9.315   8.994   1.548 -0.9892  0.1414  0.4073
  857MOL0     H13099   9.395   8.854   1.581 -1.7586  0.9424 -3.3050
  857MOL0     H13100   9.620   8.963   1.565  0.3932 -1.4699 -1.2231
  857MOL0     H13101   9.544   9.120   1.529 -2.3504  0.1464  4.4806
  857MOL0     H13102   9.478   8.893   1.346 -0.4085  0.2185  0.5215
  857MOL0     H13103   9.482   9.067   1.309  2.1043  1.0027  0.0420
  857MOL0     H13104   9.677   8.939   1.211 -2.0486  0.6702 -0.2208
  857MOL0     H13105   9.731   8.882   1.358  0.7483 -1.0301 -2.9796
  857MOL0     H13106   8.954   8.983   2.193 -1.8747  1.1002  2.6846
  857MOL0     H13107   8.807   9.108   2.352  0.5357  0.3949  1.7900
  857MOL0     H13108   8.493   9.442   2.354 -1.6843 -2.2446  0.5749
  857MOL0     H13109   8.330   9.541   2.462 -1.0967  1.7424  1.8926
  857MOL0     H13110   7.597   9.238   2.751 -0.3436  0.2553  1.5951
  857MOL0     H13111   7.772   9.260   2.598  2.2175  0.1280 -0.1372
  857MOL0     H13112   8.192   9.215   2.400 -2.2887 -1.9094 -2.2993
  857MOL0     H13113   8.310   9.269   2.196  0.8609 -2.3583  2.6417
  857MOL0     H13114   8.491   9.408   2.074 -1.8578 -0.8671  2.2189
  857MOL0     H13115   8.466   9.582   2.105 -0.4046 -0.4215 -0.1029
  857MOL0     H13116   8.417   9.480   1.823  3.1603 -0.3067 -2.5585
  857MOL0     H13117   8.445   9.644   1.875  0.4230 -0.2864 -1.8784
  857MOL0     H13118   8.633   9.403   1.881 -0.3387 -0.2215  0.5351
  857MOL0     H13119   8.691   9.561   1.947  1.3274 -0.1679 -1.0548
  857MOL0     H13120   8.637   9.445   1.682 -3.2794  0.8640  0.4216
  857MOL0     H13121   8.617   9.627   1.700 -0.7273 -0.5394 -0.7569
  857MOL0     H13122   9.035   9.586   1.677 -0.6013  1.8125 -3.0591
  857MOL0     H13123   8.140   9.654   2.162  1.1038 -0.8240 -0.6165
  857MOL0     H13124   8.043   9.620   2.393  1.8824  0.5296  0.3385
  858MOL0     O13125   3.692   7.894   8.690 -0.1977  0.5238  0.2455
  858MOL0     C13126   3.646   8.008   8.679 -0.8431 -0.0736  0.0984
  858MOL0     O13127   3.649   8.087   8.563  0.5083 -0.3824 -0.1191
  858MOL0     C13128   3.704   8.029   8.453 -0.4776 -0.3345  0.8916
  858MOL0     C13129   3.845   8.011   8.440  0.6915 -0.0457  0.0812
  858MOL0     C13130   3.903   7.990   8.317 -0.6659 -0.3043 -0.0446
  858MOL0     C13131   3.816   7.971   8.209 -0.2578 -0.0603 -0.1600
  858MOL0     O13132   3.845   7.913   8.087  0.2186 -0.0146  0.9106
  858MOL0     C13133   3.945   7.803   8.086 -1.4450 -0.7336 -0.7779
  858MOL0     C13134   3.905   7.701   7.985 -0.5003  0.0199 -0.4853
  858MOL0     C13135   3.867   7.761   7.848  1.1399  0.8150  1.1806
  858MOL0     C13136   3.912   7.656   7.738 -0.2984  0.3030 -0.9690
  858MOL0     C13137   3.885   7.722   7.607  0.1375  0.7539  0.5008
  858MOL0     C13138   3.983   7.684   7.502  0.5378  1.1291  0.3506
  858MOL0     C13139   3.992   7.535   7.474  0.0350  0.1749  0.0232
  858MOL0     C13140   3.924   7.497   7.329  0.5298 -0.0165 -0.7755
  858MOL0     N13141   3.782   7.492   7.360  0.8741 -0.7685  0.2873
  858MOL0     C13142   3.721   7.374   7.387  0.6991 -0.3534  0.6498
  858MOL0     C13143   3.595   7.423   7.403  0.8776  0.4136  0.6567
  858MOL0     C13144   3.474   7.351   7.451  0.5116 -0.0154  0.0594
  858MOL0     C13145   3.425   7.424   7.572 -0.4310 -0.2796  0.2082
  858MOL0     C13146   3.515   7.396   7.698  0.1751  0.2537  0.6591
  858MOL0     C13147   3.495   7.503   7.809 -0.1763  0.3796 -0.4048
  858MOL0     O13148   3.437   7.458   7.934 -0.0919  0.7859  0.2189
  858MOL0     C13149   3.515   7.372   8.011  1.0317  0.0840 -0.1740
  858MOL0     C13150   3.652   7.359   8.005  0.3368  0.9454  0.4963
  858MOL0     C13151   3.729   7.268   8.085  0.8601  0.0883  0.6862
  858MOL0     C13152   3.658   7.182   8.163  0.0200  0.8284 -0.0144
  858MOL0     C13153   3.723   7.099   8.260 -0.8283  0.4461  0.0593
  858MOL0     O13154   3.865   7.114   8.267 -0.4533  0.1440 -0.2510
  858MOL0     C13155   3.944   7.043   8.355  0.7591  0.5741 -0.8583
  858MOL0     C13156   3.968   7.085   8.484 -0.2012  0.1013 -0.1260
  858MOL0     C13157   4.024   6.998   8.578  0.3667  0.0791 -0.2867
  858MOL0     C13158   4.049   6.870   8.541 -0.1992  0.4602 -0.4527
  858MOL0     O13159   4.082   6.795   8.654 -0.1057 -0.7800  0.1917
  858MOL0     C13160   4.179   6.695   8.622  0.0351  0.1474 -0.5039
  858MOL0     C13161   4.284   6.673   8.732  0.5913  0.5090 -0.3119
  858MOL0     C13162   4.358   6.547   8.701 -0.6259 -0.1053  0.2807
  858MOL0     C13163   4.451   6.509   8.820  0.1397  0.7608  0.0701
  858MOL0     C13164   4.524   6.375   8.790 -0.3542  0.4454 -0.7471
  858MOL0     C13165   4.636   6.395   8.689 -0.0494 -0.2726 -0.0546
  858MOL0     C13166   4.741   6.501   8.733 -0.3111  0.6645  0.1349
  858MOL0     C13167   4.854   6.509   8.633 -0.8589 -0.4107 -0.5578
  858MOL0    Cl13168   4.972   6.383   8.652 -0.1058 -0.3488 -0.0651
  858MOL0     C13169   4.041   6.829   8.407  0.8806  0.4082 -0.4594
  858MOL0     C13170   3.974   6.916   8.319 -0.3635  0.7561 -0.2957
  858MOL0     O13171   3.657   7.015   8.322 -0.5193 -0.6419  0.5722
  858MOL0     C13172   3.510   7.188   8.169 -0.0146  0.2351  1.1334
  858MOL0     C13173   3.448   7.289   8.096 -0.3448 -0.6079  1.6871
  858MOL0     N13174   3.576   7.548   7.347 -0.9328 -0.3489  0.4388
  858MOL0     N13175   3.695   7.594   7.315  0.2570 -0.1591 -0.2496
  858MOL0     C13176   3.672   7.974   8.225 -0.6766  0.0613 -0.2511
  858MOL0     C13177   3.621   8.005   8.349 -0.2411  0.0101  0.7325
  858MOL0     C13178   3.555   8.060   8.785 -0.0250 -0.2808  0.2832
  858MOL0     C13179   3.570   8.014   8.915 -0.3148 -0.6326 -0.3218
  858MOL0     C13180   3.481   8.056   9.009 -1.0872  0.3210 -0.8995
  858MOL0     C13181   3.375   8.141   8.975  0.0993  1.0097 -0.1146
  858MOL0     O13182   3.292   8.195   9.067 -0.5575  0.4671 -0.6171
  858MOL0     C13183   3.346   8.203   9.200 -0.0263 -0.0967  0.3139
  858MOL0     C13184   3.271   8.318   9.280 -0.5597 -0.8274  0.3944
  858MOL0     C13185   3.120   8.272   9.297  0.0321  0.4855 -0.0017
  858MOL0     C13186   3.044   8.368   9.391 -0.1035 -0.2996 -0.1354
  858MOL0     C13187   3.048   8.513   9.374 -0.3167  0.3349  0.7841
  858MOL0     C13188   3.071   8.632   9.377  0.0518 -0.8000  0.1620
  858MOL0     C13189   3.351   8.180   8.837  0.7319 -0.3007 -0.1431
  858MOL0     C13190   3.452   8.150   8.746 -0.0643  0.3742  0.0545
  858MOL0     H13191   3.900   8.040   8.529  0.4836  0.2767  0.1051
  858MOL0     H13192   4.010   7.982   8.303 -0.4504 -0.8932  1.7002
  858MOL0     H13193   3.941   7.750   8.182  2.4450  3.7671  2.2758
  858MOL0     H13194   4.037   7.853   8.054 -3.4319  1.6594 -3.2113
  858MOL0     H13195   3.812   7.654   8.020  0.5421 -0.5320  1.7485
  858MOL0     H13196   3.985   7.627   7.971 -1.3895 -0.7222 -1.9864
  858MOL0     H13197   3.923   7.853   7.833  1.8443  0.1462 -0.4463
  858MOL0     H13198   3.761   7.788   7.838  1.5096  1.3627 -2.8974
  858MOL0     H13199   4.019   7.631   7.737 -0.0071  1.3052  1.0038
  858MOL0     H13200   3.857   7.563   7.757  0.3513  0.4027  1.8897
  858MOL0     H13201   3.880   7.831   7.610 -0.4721  0.9326 -3.1517
  858MOL0     H13202   3.784   7.690   7.579  0.7004 -2.7885  1.8782
  858MOL0     H13203   4.080   7.729   7.525  0.3030  2.2986 -0.8017
  858MOL0     H13204   3.939   7.729   7.412  2.8004 -0.7804 -1.8547
  858MOL0     H13205   4.100   7.523   7.462 -0.2551 -0.8614 -1.8679
  858MOL0     H13206   3.948   7.477   7.556 -0.6751  1.5355  0.6550
  858MOL0     H13207   3.955   7.405   7.279  3.1802 -0.4039  1.3636
  858MOL0     H13208   3.924   7.573   7.251 -1.6443 -1.0343 -1.8459
  858MOL0     H13209   3.767   7.282   7.423 -0.8924 -0.3536  2.8956
  858MOL0     H13210   3.504   7.249   7.478 -1.5153 -0.7198 -0.1792
  858MOL0     H13211   3.392   7.365   7.380  0.1337 -0.3454  0.4206
  858MOL0     H13212   3.327   7.385   7.600 -1.8383  2.0399 -1.2044
  858MOL0     H13213   3.420   7.530   7.545 -2.0295 -0.4233 -0.1449
  858MOL0     H13214   3.486   7.298   7.738  0.5597 -0.5142 -0.8796
  858MOL0     H13215   3.620   7.388   7.666  0.5449  2.0737  1.2644
  858MOL0     H13216   3.422   7.573   7.767 -0.9948  0.3218  0.8692
  858MOL0     H13217   3.593   7.548   7.831  1.3228 -3.6507  2.2394
  858MOL0     H13218   3.706   7.427   7.940  2.2879 -1.1704 -0.2592
  858MOL0     H13219   3.837   7.258   8.083  0.9362  0.9104 -0.5256
  858MOL0     H13220   3.945   7.185   8.519 -1.5717  0.4945 -2.0108
  858MOL0     H13221   4.047   7.031   8.679 -0.2235 -0.2774 -0.0323
  858MOL0     H13222   4.239   6.706   8.531  0.9970 -2.2714 -0.2450
  858MOL0     H13223   4.128   6.598   8.617 -0.3982  0.1935  1.7613
  858MOL0     H13224   4.226   6.666   8.825  1.6149 -0.3182  0.2928
  858MOL0     H13225   4.353   6.757   8.735  0.4750  0.5940  0.1169
  858MOL0     H13226   4.425   6.561   8.616  0.8154  0.7828  1.5155
  858MOL0     H13227   4.290   6.463   8.682  1.6591 -2.0343  0.0797
  858MOL0     H13228   4.527   6.582   8.848  2.4004 -1.0424 -1.0375
  858MOL0     H13229   4.380   6.502   8.903 -1.4298 -1.4039 -1.3435
  858MOL0     H13230   4.455   6.294   8.764  1.6511 -1.1139 -1.4437
  858MOL0     H13231   4.571   6.334   8.880 -0.9016  1.8070  0.1888
  858MOL0     H13232   4.587   6.433   8.599  2.2965 -0.3014 -1.3993
  858MOL0     H13233   4.676   6.293   8.681 -0.2287 -0.4694  1.2840
  858MOL0     H13234   4.689   6.597   8.726 -2.1101 -0.3391 -1.5660
  858MOL0     H13235   4.770   6.494   8.838  1.5813  1.8295 -0.2772
  858MOL0     H13236   4.910   6.602   8.650 -0.6435 -0.9479  2.0276
  858MOL0     H13237   4.814   6.504   8.531  0.3843 -0.4553 -1.0618
  858MOL0     H13238   4.067   6.727   8.380 -1.2895 -0.9352  1.9637
  858MOL0     H13239   3.927   6.879   8.228 -0.9887 -1.7501  0.9539
  858MOL0     H13240   3.453   7.114   8.225 -0.6756 -1.6336 -1.7407
  858MOL0     H13241   3.342   7.297   8.114 -0.0527  3.7214  2.6109
  858MOL0     H13242   3.606   7.948   8.143 -2.0354  0.5976  0.6372
  858MOL0     H13243   3.514   8.010   8.366 -0.7215  0.2841 -1.9354
  858MOL0     H13244   3.653   7.949   8.939  1.3835  1.2508 -0.7617
  858MOL0     H13245   3.508   8.022   9.108  1.1660  1.5115 -1.0511
  858MOL0     H13246   3.452   8.228   9.190 -0.1086  1.7214  2.9719
  858MOL0     H13247   3.321   8.108   9.249  0.7924  0.2198  1.3621
  858MOL0     H13248   3.319   8.322   9.378  2.1598 -3.9320 -0.6132
  858MOL0     H13249   3.289   8.412   9.228 -0.1213 -2.4365 -2.6253
  858MOL0     H13250   3.101   8.172   9.335 -0.0389  0.5306  0.0792
  858MOL0     H13251   3.067   8.274   9.201 -0.3515 -0.4125  0.1892
  858MOL0     H13252   2.936   8.348   9.381 -0.2579  0.4995 -0.0958
  858MOL0     H13253   3.089   8.347   9.488  0.5393  1.7876  0.0600
  858MOL0     H13254   3.093   8.737   9.381  0.4372 -0.8912  0.4223
  858MOL0     H13255   3.267   8.246   8.818  0.6020 -0.2822  0.4728
  858MOL0     H13256   3.445   8.181   8.643 -1.8712  0.0331  0.0477
  859MOL0     O13257   0.485   8.873   0.920 -0.2615  1.0474  0.1643
  859MOL0     C13258   0.590   8.804   0.938 -0.1503  0.0946 -0.4222
  859MOL0     O13259   0.684   8.836   1.030 -0.6144 -0.2659 -0.4136
  859MOL0     C13260   0.673   8.959   1.094  0.8627  0.4555  0.7829
  859MOL0     C13261   0.578   8.977   1.200 -0.3068 -0.8755  0.2991
  859MOL0     C13262   0.581   9.106   1.266  0.6457  1.3012  0.6030
  859MOL0     C13263   0.645   9.214   1.224  0.5211 -0.4796  0.5917
  859MOL0     O13264   0.623   9.333   1.292 -0.3306 -0.1602 -0.3229
  859MOL0     C13265   0.671   9.451   1.233  0.0241 -0.7657  0.4571
  859MOL0     C13266   0.672   9.564   1.340  0.4034 -0.4924  0.5178
  859MOL0     C13267   0.733   9.694   1.286  0.3165 -0.4507 -0.1308
  859MOL0     C13268   0.888   9.693   1.261  0.6761  0.1192 -0.5933
  859MOL0     C13269   0.918   9.832   1.195  0.1090 -0.8837  0.1431
  859MOL0     C13270   1.060   9.851   1.146 -0.1585 -0.1561 -0.9203
  859MOL0     C13271   1.133   9.733   1.097 -0.7163 -0.5227  0.0170
  859MOL0     C13272   1.279   9.766   1.057 -0.0310 -0.4117  0.4820
  859MOL0     N13273   1.295   9.853   0.939  0.6969  0.2013 -0.0246
  859MOL0     C13274   1.315   9.811   0.812  0.0995  0.1484 -0.6529
  859MOL0     C13275   1.357   9.917   0.731 -0.5825 -0.2433 -0.0929
  859MOL0     C13276   1.382   9.914   0.586 -0.0676 -1.0637  0.0645
  859MOL0     C13277   1.492  10.019   0.555  0.4966  0.1021  0.0819
  859MOL0     C13278   1.530   9.994   0.411 -0.1834 -0.6660  0.0771
  859MOL0     C13279   1.669  10.028   0.375 -0.2891 -0.1096  0.3423
  859MOL0     O13280   1.683  10.035   0.235 -0.2996  0.6656  0.4759
  859MOL0     C13281   1.661  10.143   0.153  0.6081  0.3423 -1.0632
  859MOL0     C13282   1.604  10.270   0.204  0.0284  0.2104  0.1129
  859MOL0     C13283   1.583  10.381   0.117 -0.0224  0.0350  0.2706
  859MOL0     C13284   1.630  10.366  -0.023  0.9681  0.0802 -0.0485
  859MOL0     C13285   1.597  10.469  -0.117 -0.4432  0.0420  0.2525
  859MOL0     O13286   1.683  10.465  -0.226  0.3864 -0.1018  0.4454
  859MOL0     C13287   1.669  10.555  -0.334  0.4665  0.0825 -0.0300
  859MOL0     C13288   1.545  10.586  -0.391  1.0644  0.5332 -0.4904
  859MOL0     C13289   1.527  10.669  -0.500  0.7754 -0.2512  0.2141
  859MOL0     C13290   1.641  10.731  -0.552 -0.3953 -0.4208 -0.7380
  859MOL0     O13291   1.631  10.822  -0.642 -0.2567 -0.1126 -1.1916
  859MOL0     C13292   1.525  10.918  -0.628 -0.6839  0.3046 -0.2082
  859MOL0     C13293   1.545  11.007  -0.742  0.0392  0.6128  0.3246
  859MOL0     C13294   1.436  11.114  -0.754  0.2179 -0.3424 -0.1724
  859MOL0     C13295   1.302  11.051  -0.773  0.3676 -0.6765 -0.1909
  859MOL0     C13296   1.199  11.141  -0.858  0.5283 -0.3691  0.4824
  859MOL0     C13297   1.170  11.281  -0.780  0.0184 -0.4890 -0.7246
  859MOL0     C13298   1.081  11.377  -0.866  0.6821 -0.7103 -0.5144
  859MOL0     C13299   0.961  11.310  -0.931 -0.0491  0.8515  0.4145
  859MOL0    Cl13300   0.881  11.437  -1.033 -0.4132  0.2030 -0.1545
  859MOL0     C13301   1.768  10.703  -0.501  0.6507  0.3728 -0.7706
  859MOL0     C13302   1.789  10.603  -0.397  0.5921 -0.4321  0.5712
  859MOL0     O13303   1.499  10.539  -0.099  0.2693 -0.3122  0.4921
  859MOL0     C13304   1.698  10.244  -0.066 -1.0388 -0.5479 -0.1304
  859MOL0     C13305   1.704  10.138   0.021  0.3941  0.2376 -0.1444
  859MOL0     N13306   1.352  10.025   0.815  0.3193  0.1328 -0.4061
  859MOL0     N13307   1.325   9.981   0.930 -0.3974  0.0327 -0.4384
  859MOL0     C13308   0.731   9.201   1.103  0.1588 -0.7745 -0.3340
  859MOL0     C13309   0.733   9.073   1.043  0.0489  0.5147 -0.4775
  859MOL0     C13310   0.594   8.678   0.862 -0.3470 -0.1420  0.4677
  859MOL0     C13311   0.486   8.633   0.783 -0.3109 -0.5210  0.4074
  859MOL0     C13312   0.492   8.520   0.720 -0.3124  0.2641 -1.0568
  859MOL0     C13313   0.612   8.446   0.702 -0.3651 -0.5141 -0.6913
  859MOL0     O13314   0.608   8.317   0.648  0.3314  0.0818 -0.1854
  859MOL0     C13315   0.723   8.238   0.671  0.2147 -0.0947  1.0944
  859MOL0     C13316   0.694   8.102   0.600  0.0162 -0.1807 -1.7153
  859MOL0     C13317   0.555   8.040   0.653  0.8091 -0.0519 -0.6021
  859MOL0     C13318   0.506   7.948   0.541 -0.0558  0.9786  0.1559
  859MOL0     C13319   0.388   7.886   0.608 -0.0451 -0.7325 -0.2977
  859MOL0     C13320   0.295   7.851   0.681  0.8933 -0.4906  1.4400
  859MOL0     C13321   0.728   8.495   0.771 -0.5901  0.1365 -0.3949
  859MOL0     C13322   0.721   8.614   0.843 -0.3231  0.0725  0.4081
  859MOL0     H13323   0.511   8.899   1.235 -1.1957  0.2922  1.2468
  859MOL0     H13324   0.509   9.117   1.347 -0.5306  0.5961 -0.3145
  859MOL0     H13325   0.624   9.467   1.136 -1.5220  1.6418  1.4921
  859MOL0     H13326   0.778   9.434   1.218 -0.0170 -0.0231 -0.7731
  859MOL0     H13327   0.727   9.525   1.426  0.1036 -4.1918 -0.8082
  859MOL0     H13328   0.566   9.574   1.363 -0.2680 -3.7669 -0.6134
  859MOL0     H13329   0.701   9.782   1.343  2.1343  2.0136 -2.5992
  859MOL0     H13330   0.686   9.708   1.188 -1.6061 -2.7647  0.3884
  859MOL0     H13331   0.944   9.686   1.354 -1.3248  0.7934  0.7484
  859MOL0     H13332   0.909   9.614   1.189 -0.3792 -1.7006  1.0059
  859MOL0     H13333   0.889   9.913   1.263  0.7100  2.0654 -2.8692
  859MOL0     H13334   0.851   9.832   1.109 -0.9948 -0.2265  0.9818
  859MOL0     H13335   1.114   9.890   1.233  1.9451 -1.3563 -1.5940
  859MOL0     H13336   1.054   9.921   1.061 -0.3071 -0.4162 -1.1264
  859MOL0     H13337   1.143   9.665   1.182 -1.3609  1.7804  2.0477
  859MOL0     H13338   1.082   9.674   1.020  1.5308 -1.7254 -0.6396
  859MOL0     H13339   1.329   9.671   1.037  2.4512  0.8367  0.3893
  859MOL0     H13340   1.333   9.819   1.136 -0.4536  3.9742 -1.8664
  859MOL0     H13341   1.312   9.707   0.779 -3.0688  0.6051 -2.1425
  859MOL0     H13342   1.294   9.955   0.536  1.3225  1.2155 -0.6422
  859MOL0     H13343   1.404   9.812   0.553 -1.3417 -1.2062 -0.4374
  859MOL0     H13344   1.578  10.006   0.622  1.1027 -1.6106 -0.9551
  859MOL0     H13345   1.434  10.111   0.569 -0.5593 -0.7306  1.2896
  859MOL0     H13346   1.525   9.889   0.381 -0.2079 -1.4967  2.7700
  859MOL0     H13347   1.460  10.059   0.356 -0.8283  1.1703  2.8829
  859MOL0     H13348   1.745   9.963   0.421  0.5360  1.0364  0.6442
  859MOL0     H13349   1.700  10.127   0.410  2.4958 -0.9803  0.6433
  859MOL0     H13350   1.574  10.287   0.307  0.2037  0.9772  0.0486
  859MOL0     H13351   1.545  10.478   0.146  0.9120  0.9963 -1.5233
  859MOL0     H13352   1.452  10.541  -0.357  0.5079  2.8860  1.2728
  859MOL0     H13353   1.429  10.682  -0.545  2.2827  1.9352 -2.8010
  859MOL0     H13354   1.546  10.970  -0.534 -0.6666  1.4715 -0.8378
  859MOL0     H13355   1.428  10.869  -0.636  1.1756 -3.8275  0.2858
  859MOL0     H13356   1.532  10.936  -0.825  0.0502 -1.5373  2.0759
  859MOL0     H13357   1.647  11.047  -0.749  0.3427 -0.0953  0.6098
  859MOL0     H13358   1.458  11.175  -0.841 -1.6280  1.8194  0.7771
  859MOL0     H13359   1.434  11.187  -0.672 -1.7234 -1.0039  0.4285
  859MOL0     H13360   1.297  10.959  -0.832 -1.2460  1.2895 -3.3400
  859MOL0     H13361   1.254  11.025  -0.678  0.1154  0.2018 -0.0762
  859MOL0     H13362   1.114  11.077  -0.880 -0.5652 -0.0759  3.4079
  859MOL0     H13363   1.254  11.169  -0.948  0.3298 -2.9108 -0.4995
  859MOL0     H13364   1.264  11.333  -0.758  0.3768 -0.7764 -1.5603
  859MOL0     H13365   1.123  11.255  -0.684  1.3990  1.0252  0.4123
  859MOL0     H13366   1.069  11.470  -0.808  2.1765 -0.2495 -0.9094
  859MOL0     H13367   1.149  11.401  -0.948  0.6802  1.1167 -0.0283
  859MOL0     H13368   0.899  11.274  -0.848 -1.1314  1.0574 -0.2835
  859MOL0     H13369   0.996  11.228  -0.993 -0.6457  0.8077  0.1234
  859MOL0     H13370   1.856  10.740  -0.553  2.4686  0.7869  2.2862
  859MOL0     H13371   1.889  10.566  -0.374  0.2038 -2.9482 -1.3593
  859MOL0     H13372   1.726  10.238  -0.171 -1.3361  1.0227 -0.3308
  859MOL0     H13373   1.740  10.049  -0.030  0.2866  2.0921 -3.8265
  859MOL0     H13374   0.792   9.288   1.078  4.5690 -2.6284  2.5864
  859MOL0     H13375   0.792   9.055   0.953  2.6177 -2.4321  1.5262
  859MOL0     H13376   0.389   8.683   0.781 -1.1146 -1.8414 -3.8293
  859MOL0     H13377   0.396   8.492   0.679  0.0881  0.0175 -1.8384
  859MOL0     H13378   0.736   8.199   0.772  1.5607 -0.4918  0.7869
  859MOL0     H13379   0.815   8.280   0.629  1.5277 -1.5563  2.4004
  859MOL0     H13380   0.684   8.124   0.493 -2.1485 -0.1288 -1.5519
  859MOL0     H13381   0.776   8.039   0.635 -0.4450 -0.2878 -0.7952
  859MOL0     H13382   0.476   8.112   0.675  0.9900  0.0629 -0.3162
  859MOL0     H13383   0.574   7.993   0.750  0.4549  1.6312  0.3411
  859MOL0     H13384   0.490   8.010   0.453  3.4539  0.2002 -1.2061
  859MOL0     H13385   0.584   7.876   0.516  0.8545  1.9516  0.1422
  859MOL0     H13386   0.217   7.814   0.744 -1.4923 -2.0961 -2.0790
  859MOL0     H13387   0.823   8.442   0.777 -0.4718 -0.2497 -3.6002
  859MOL0     H13388   0.817   8.643   0.884  1.7560 -2.0963 -2.4978
  860MOL0     O13389   5.651   5.540   8.677  0.7013 -1.1253 -0.1677
  860MOL0     C13390   5.648   5.661   8.709  0.2252 -0.9602 -0.3937
  860MOL0     O13391   5.750   5.726   8.757  0.0760 -0.5714  0.3828
  860MOL0     C13392   5.871   5.661   8.771 -1.6705  0.3086  1.8610
  860MOL0     C13393   5.935   5.651   8.892  0.4182  0.6190  1.4154
  860MOL0     C13394   6.059   5.584   8.896  0.7010 -0.1914 -0.5447
  860MOL0     C13395   6.126   5.515   8.790  1.7548 -0.2309 -1.2030
  860MOL0     O13396   6.242   5.443   8.791 -0.0373  0.0775  1.0728
  860MOL0     C13397   6.276   5.360   8.912  1.2218  0.3542 -0.8203
  860MOL0     C13398   6.392   5.269   8.881  0.3836  0.4719  0.3694
  860MOL0     C13399   6.509   5.350   8.834 -0.7912  0.2201  0.2989
  860MOL0     C13400   6.634   5.262   8.840  0.6056  0.2293  0.0968
  860MOL0     C13401   6.759   5.351   8.825 -0.8058 -0.0477 -0.3300
  860MOL0     C13402   6.786   5.393   8.675  0.5816 -0.3376 -0.0332
  860MOL0     C13403   6.911   5.487   8.678 -0.2006  0.0167 -0.1923
  860MOL0     C13404   6.924   5.569   8.546  0.7786  0.0099 -0.6887
  860MOL0     N13405   7.044   5.645   8.546  0.0368  0.0907 -0.4923
  860MOL0     C13406   7.154   5.627   8.463 -0.1985 -0.7320 -0.0309
  860MOL0     C13407   7.236   5.736   8.485 -0.1850 -0.6838 -0.6285
  860MOL0     C13408   7.370   5.750   8.421 -0.4505  1.0181 -0.9442
  860MOL0     C13409   7.367   5.843   8.296 -0.0322  0.5361 -0.4343
  860MOL0     C13410   7.282   5.782   8.182  0.6192 -0.7481 -0.3142
  860MOL0     C13411   7.257   5.887   8.073  0.5526  0.3554  1.8201
  860MOL0     O13412   7.219   5.819   7.953  0.0864 -0.3345 -0.9221
  860MOL0     C13413   7.151   5.893   7.851  0.9609 -0.4254 -0.1330
  860MOL0     C13414   7.126   6.027   7.860 -0.0031 -0.9357 -0.5713
  860MOL0     C13415   7.034   6.093   7.773  0.2433 -0.2288 -0.4194
  860MOL0     C13416   6.987   6.027   7.660 -0.1523 -0.7654  0.3051
  860MOL0     C13417   6.884   6.088   7.569 -0.9800  1.7027  0.5173
  860MOL0     O13418   6.831   6.202   7.617 -0.0699 -0.3393 -0.1204
  860MOL0     C13419   6.739   6.272   7.535 -0.3940  0.2189 -0.2205
  860MOL0     C13420   6.621   6.214   7.478  0.2317  0.3033  0.1601
  860MOL0     C13421   6.533   6.299   7.400  1.1008  0.3599 -0.5549
  860MOL0     C13422   6.555   6.435   7.382  0.4658 -0.3440  0.3745
  860MOL0     O13423   6.475   6.526   7.312  0.1008 -0.2185 -0.2860
  860MOL0     C13424   6.359   6.487   7.242 -0.3180  0.2324  0.5950
  860MOL0     C13425   6.293   6.601   7.164  0.1607  0.0119 -0.4462
  860MOL0     C13426   6.217   6.704   7.256 -0.0571 -0.0592  0.3375
  860MOL0     C13427   6.186   6.836   7.188  0.0894  0.8974  0.8059
  860MOL0     C13428   6.106   6.910   7.286 -1.8023 -0.3936 -0.2804
  860MOL0     C13429   6.206   6.957   7.404  0.2485 -0.2570  0.0098
  860MOL0     C13430   6.151   7.080   7.467  0.3467  0.1498  0.0830
  860MOL0     C13431   6.248   7.136   7.566  0.4101  0.6496  0.3809
  860MOL0    Cl13432   6.175   7.282   7.647  0.5087  0.3447 -0.1004
  860MOL0     C13433   6.670   6.494   7.443  0.0274  0.3734 -0.1718
  860MOL0     C13434   6.750   6.411   7.520 -0.5978  0.1862 -0.3092
  860MOL0     O13435   6.857   6.025   7.467  0.0721  1.0374 -0.5680
  860MOL0     C13436   7.044   5.900   7.629  0.0166 -0.0245  1.0779
  860MOL0     C13437   7.120   5.832   7.730 -0.5672 -0.0560  0.2471
  860MOL0     N13438   7.181   5.815   8.590  0.2141 -0.6477 -0.2824
  860MOL0     N13439   7.064   5.764   8.624  0.1795  0.2383  0.9281
  860MOL0     C13440   6.065   5.528   8.667 -0.5671  0.0591  0.3137
  860MOL0     C13441   5.935   5.587   8.655  0.2854 -1.1629  0.0563
  860MOL0     C13442   5.519   5.737   8.697 -0.5480 -0.4666  0.0029
  860MOL0     C13443   5.515   5.878   8.706  0.2078 -0.5764  0.4191
  860MOL0     C13444   5.397   5.946   8.704 -0.5935 -0.4068 -0.1205
  860MOL0     C13445   5.272   5.876   8.692 -0.4982  0.1866 -0.1615
  860MOL0     O13446   5.154   5.941   8.694  0.7459 -0.3014 -0.1932
  860MOL0     C13447   5.029   5.892   8.742  0.6603  0.5063  0.1997
  860MOL0     C13448   4.944   6.002   8.813 -0.5230 -0.2099  0.6632
  860MOL0     C13449   5.014   6.115   8.888 -0.4529 -0.6027  0.9108
  860MOL0     C13450   5.119   6.067   8.984  0.6498  0.0576 -0.1966
  860MOL0     C13451   5.182   6.176   9.057  0.1938 -0.3195 -0.6062
  860MOL0     C13452   5.222   6.265   9.114  0.2842 -0.7365 -1.2095
  860MOL0     C13453   5.278   5.738   8.692 -0.1584  0.0814 -0.6022
  860MOL0     C13454   5.399   5.666   8.692  0.1937 -0.4399 -0.2220
  860MOL0     H13455   5.871   5.668   8.978  3.2660  2.0858  3.4106
  860MOL0     H13456   6.099   5.575   8.996 -0.8807 -1.6882  0.0228
  860MOL0     H13457   6.188   5.304   8.946  2.9545 -1.6929  0.6300
  860MOL0     H13458   6.316   5.425   8.991  2.6075 -3.8228  2.2893
  860MOL0     H13459   6.361   5.209   8.795 -1.1447  1.0199  0.5002
  860MOL0     H13460   6.414   5.205   8.967  0.6558 -1.0762 -0.8194
  860MOL0     H13461   6.530   5.434   8.901 -0.1772 -0.2597  0.7203
  860MOL0     H13462   6.492   5.393   8.735  4.7384  1.8360 -0.2906
  860MOL0     H13463   6.639   5.212   8.937  0.5541 -1.5799 -0.7814
  860MOL0     H13464   6.634   5.187   8.760  0.6912  1.1523 -0.7837
  860MOL0     H13465   6.853   5.316   8.868  1.3548  2.7704 -2.3851
  860MOL0     H13466   6.746   5.442   8.884 -1.5077  0.0205 -0.5856
  860MOL0     H13467   6.699   5.445   8.633  1.3943  0.5739 -0.6385
  860MOL0     H13468   6.808   5.302   8.619  2.3411  0.0110  0.0330
  860MOL0     H13469   6.906   5.554   8.765 -2.0192 -0.8400  0.4299
  860MOL0     H13470   7.002   5.427   8.688 -1.8145 -2.3443  1.5151
  860MOL0     H13471   6.834   5.632   8.548 -0.5411 -1.7929 -0.1906
  860MOL0     H13472   6.916   5.493   8.468 -0.8596  0.3388 -0.8830
  860MOL0     H13473   7.189   5.543   8.403  0.4840 -0.0653 -0.5834
  860MOL0     H13474   7.397   5.654   8.377  0.2936  0.8196 -0.0878
  860MOL0     H13475   7.442   5.764   8.503 -3.1312 -1.9240  2.2718
  860MOL0     H13476   7.469   5.853   8.259 -0.6051  0.8579 -2.0105
  860MOL0     H13477   7.329   5.943   8.319 -0.1059  0.4904 -0.3565
  860MOL0     H13478   7.341   5.700   8.141 -1.5139 -1.8698 -1.2480
  860MOL0     H13479   7.184   5.746   8.214 -0.3481  1.2725 -0.8179
  860MOL0     H13480   7.357   5.931   8.061  0.1523  0.6783 -1.2329
  860MOL0     H13481   7.181   5.961   8.098  2.2876  2.6801  0.5686
  860MOL0     H13482   7.179   6.086   7.934 -0.5875  0.3844 -1.1649
  860MOL0     H13483   6.998   6.194   7.791  1.5558  0.5220 -1.7460
  860MOL0     H13484   6.598   6.108   7.486  3.0057 -0.3319  0.6341
  860MOL0     H13485   6.439   6.261   7.360  1.6401 -1.0455 -0.5344
  860MOL0     H13486   6.287   6.441   7.310 -3.5066  1.1039 -1.9570
  860MOL0     H13487   6.388   6.416   7.163 -0.8011  1.8935 -1.1677
  860MOL0     H13488   6.223   6.546   7.101  1.0374 -1.2983 -0.3228
  860MOL0     H13489   6.357   6.651   7.091 -2.2304  0.1127 -2.6120
  860MOL0     H13490   6.268   6.723   7.351  0.5999  1.2672 -0.2623
  860MOL0     H13491   6.118   6.659   7.270 -0.6876  1.1013 -0.2810
  860MOL0     H13492   6.286   6.875   7.168 -0.3377  1.9264  0.5747
  860MOL0     H13493   6.129   6.812   7.097 -0.3250  0.0586  1.2792
  860MOL0     H13494   6.029   6.847   7.330 -1.0919 -1.0153  0.0984
  860MOL0     H13495   6.055   6.995   7.241  1.0573  0.1920 -2.7789
  860MOL0     H13496   6.307   6.979   7.367 -0.5655  1.0597 -1.5354
  860MOL0     H13497   6.205   6.883   7.484  0.3680  0.1099  0.3579
  860MOL0     H13498   6.131   7.162   7.397 -0.9457 -1.4931 -1.5857
  860MOL0     H13499   6.060   7.048   7.519 -0.9633  1.5822 -1.2045
  860MOL0     H13500   6.339   7.162   7.512  1.4557 -0.0918  1.6981
  860MOL0     H13501   6.265   7.058   7.641  1.1370  0.1955 -0.2498
  860MOL0     H13502   6.688   6.599   7.423 -1.1540  0.6889  0.2840
  860MOL0     H13503   6.843   6.451   7.561 -0.8480  0.3139  0.1492
  860MOL0     H13504   7.024   5.845   7.537 -1.1183  3.9473 -1.2673
  860MOL0     H13505   7.159   5.734   7.705  1.2495  0.8918 -0.8098
  860MOL0     H13506   6.118   5.493   8.579  0.1767  1.5062  0.1764
  860MOL0     H13507   5.872   5.584   8.566  0.0378  0.6485  0.1372
  860MOL0     H13508   5.609   5.932   8.717 -0.4215  0.5912  0.2852
  860MOL0     H13509   5.390   6.054   8.714 -1.9024 -0.6930  3.6233
  860MOL0     H13510   5.054   5.821   8.821 -2.3862  0.5449  1.3491
  860MOL0     H13511   4.973   5.841   8.663 -2.2240  0.9142  1.8357
  860MOL0     H13512   4.888   6.052   8.733 -0.2616  0.9553  1.1799
  860MOL0     H13513   4.876   5.951   8.881  1.2943 -1.2718  1.7588
  860MOL0     H13514   4.930   6.165   8.937 -0.7136  0.3239 -0.4145
  860MOL0     H13515   5.053   6.184   8.812 -0.6959  0.0165  1.3362
  860MOL0     H13516   5.072   5.998   9.055 -0.6510  0.6690 -0.4328
  860MOL0     H13517   5.195   6.013   8.926 -0.3016 -0.4267 -1.0295
  860MOL0     H13518   5.251   6.339   9.187 -0.2926 -1.0274 -0.6810
  860MOL0     H13519   5.184   5.684   8.698  0.1458 -0.3116  1.1579
  860MOL0     H13520   5.402   5.557   8.696 -2.2857 -0.6093 -1.1682
  861MOL0     O13521   5.962   2.410  10.917 -0.2099 -0.3562 -0.1981
  861MOL0     C13522   5.959   2.342  11.019 -0.4734  0.6866  0.0950
  861MOL0     O13523   5.853   2.275  11.073 -0.6550 -0.3127 -0.3547
  861MOL0     C13524   5.741   2.250  11.003 -0.7278  0.4202 -0.0124
  861MOL0     C13525   5.642   2.217  11.079 -0.2852  0.0988  0.6378
  861MOL0     C13526   5.518   2.191  11.017  1.2925 -0.3447  0.8371
  861MOL0     C13527   5.498   2.187  10.874 -0.2201 -0.3757  0.1492
  861MOL0     O13528   5.365   2.172  10.826 -0.7234 -0.2909 -0.7650
  861MOL0     C13529   5.341   2.162  10.684 -0.5168 -0.1136  1.0261
  861MOL0     C13530   5.207   2.233  10.663  0.2440 -0.1317  0.6648
  861MOL0     C13531   5.105   2.179  10.759  0.5669  0.3797 -0.3154
  861MOL0     C13532   4.964   2.231  10.720 -0.7306  0.3033  0.7753
  861MOL0     C13533   4.847   2.187  10.807 -0.4368 -0.5815 -0.6819
  861MOL0     C13534   4.715   2.215  10.740  0.0697 -0.4368  0.1725
  861MOL0     C13535   4.668   2.361  10.736 -0.9650  0.1845  0.9785
  861MOL0     C13536   4.527   2.375  10.681 -0.0244 -0.1371  0.2313
  861MOL0     N13537   4.427   2.308  10.773 -1.1566  0.9114 -0.8317
  861MOL0     C13538   4.371   2.355  10.891  1.0130 -0.1586 -0.2971
  861MOL0     C13539   4.304   2.256  10.947 -0.8000 -0.4253  0.4624
  861MOL0     C13540   4.226   2.267  11.077  0.8169 -0.5510 -1.3156
  861MOL0     C13541   4.095   2.342  11.048 -0.0147 -0.0873  0.8401
  861MOL0     C13542   4.001   2.341  11.167 -0.5241 -0.5219 -0.2528
  861MOL0     C13543   3.874   2.411  11.121  0.3565 -0.2234  0.5340
  861MOL0     O13544   3.875   2.551  11.108  0.8963  1.0255  0.3091
  861MOL0     C13545   3.764   2.609  11.058  0.0387 -0.3354  0.3606
  861MOL0     C13546   3.761   2.748  11.068 -0.3428 -0.3802  0.0287
  861MOL0     C13547   3.651   2.815  11.008 -0.4666  0.3474  0.4354
  861MOL0     C13548   3.541   2.749  10.954  0.1434  0.3691  0.1738
  861MOL0     C13549   3.423   2.825  10.907 -0.4628  0.5575  0.7465
  861MOL0     O13550   3.431   2.962  10.922  0.5591  0.0924  0.5846
  861MOL0     C13551   3.334   3.043  10.874 -0.2517 -0.1225 -1.0120
  861MOL0     C13552   3.229   3.072  10.957  0.4788  0.0039 -0.1847
  861MOL0     C13553   3.115   3.140  10.911  0.1073  0.1190 -0.0034
  861MOL0     C13554   3.100   3.175  10.779 -0.1675  1.0131  0.1350
  861MOL0     O13555   2.978   3.233  10.750 -0.5294 -0.3602  0.5745
  861MOL0     C13556   2.957   3.275  10.613  0.2206  0.4961  0.4065
  861MOL0     C13557   2.828   3.335  10.595  1.2618 -0.8081 -0.3873
  861MOL0     C13558   2.806   3.436  10.705  0.5758 -0.2498 -0.7191
  861MOL0     C13559   2.693   3.544  10.683 -0.6700  0.9705 -0.5849
  861MOL0     C13560   2.752   3.689  10.706 -0.2325  0.3406  0.6191
  861MOL0     C13561   2.637   3.778  10.689  0.1929  0.0296  0.8021
  861MOL0     C13562   2.666   3.919  10.726 -0.4070  0.6102 -0.1959
  861MOL0     C13563   2.540   4.007  10.706 -0.0625  0.2533  0.2374
  861MOL0    Cl13564   2.563   4.164  10.799  0.4300  0.1319  0.2294
  861MOL0     C13565   3.205   3.142  10.690 -0.7190  0.7223  0.1045
  861MOL0     C13566   3.324   3.075  10.738 -0.3584 -0.9899  0.9886
  861MOL0     O13567   3.334   2.765  10.845  0.1017  0.4039  0.4077
  861MOL0     C13568   3.540   2.606  10.951 -0.2401 -0.1261 -0.5472
  861MOL0     C13569   3.653   2.542  10.995 -0.0110 -0.0032 -0.7376
  861MOL0     N13570   4.312   2.148  10.860  0.2564 -0.7360  0.6459
  861MOL0     N13571   4.394   2.175  10.764  0.0497  0.3935  0.0518
  861MOL0     C13572   5.615   2.197  10.797 -0.4675  0.1664  0.3354
  861MOL0     C13573   5.729   2.241  10.862  0.0120  0.5683  0.0182
  861MOL0     C13574   6.076   2.368  11.110 -0.6656 -0.5098 -0.2874
  861MOL0     C13575   6.065   2.353  11.248 -0.4314  0.1365 -0.3818
  861MOL0     C13576   6.173   2.370  11.333 -1.2357 -0.2266  0.5887
  861MOL0     C13577   6.286   2.435  11.285 -0.3647  0.3114 -0.8449
  861MOL0     O13578   6.395   2.488  11.368 -0.9044  0.4405 -0.6506
  861MOL0     C13579   6.400   2.455  11.509  0.4081 -1.3157  0.7120
  861MOL0     C13580   6.546   2.478  11.551 -0.6405 -0.3685  0.0943
  861MOL0     C13581   6.566   2.491  11.705 -0.5774  0.6421 -0.1096
  861MOL0     C13582   6.708   2.558  11.744 -0.2269  0.1065 -1.0936
  861MOL0     C13583   6.819   2.470  11.711  1.0233  0.8669  0.1391
  861MOL0     C13584   6.890   2.380  11.688 -0.1143  0.2645 -0.7076
  861MOL0     C13585   6.298   2.450  11.145 -0.5486 -0.7012  0.1568
  861MOL0     C13586   6.195   2.420  11.059 -0.8279 -0.5273 -0.2586
  861MOL0     H13587   5.649   2.232  11.187  0.6148 -1.1637  0.7672
  861MOL0     H13588   5.426   2.185  11.075  0.8081 -1.4315 -0.0070
  861MOL0     H13589   5.327   2.060  10.649 -0.2638  0.8430 -2.1314
  861MOL0     H13590   5.417   2.210  10.622  0.2902 -1.4946  0.8967
  861MOL0     H13591   5.174   2.206  10.562  0.7833  1.4409  0.0369
  861MOL0     H13592   5.216   2.342  10.669 -1.9557  0.0681  1.2060
  861MOL0     H13593   5.118   2.214  10.862  1.3656  3.6258 -1.3953
  861MOL0     H13594   5.105   2.070  10.751 -1.6697  0.2259  1.0386
  861MOL0     H13595   4.971   2.340  10.722  0.3685  0.2421  2.1691
  861MOL0     H13596   4.945   2.189  10.621  0.0329 -0.6806  1.0305
  861MOL0     H13597   4.851   2.246  10.899  2.6689  1.1755 -1.7953
  861MOL0     H13598   4.849   2.083  10.838 -1.6846 -0.8107 -1.2878
  861MOL0     H13599   4.641   2.159  10.798  1.3473 -1.3563  0.9501
  861MOL0     H13600   4.715   2.184  10.636 -2.1988  0.0031 -0.0081
  861MOL0     H13601   4.668   2.395  10.840 -1.5292 -0.3101  1.1508
  861MOL0     H13602   4.734   2.431  10.685 -1.2515  0.4829  1.0144
  861MOL0     H13603   4.522   2.329  10.582 -1.9749 -1.5607  0.9343
  861MOL0     H13604   4.506   2.482  10.671  0.5164 -0.0321  0.1870
  861MOL0     H13605   4.383   2.458  10.924 -2.5733  0.4539 -0.4600
  861MOL0     H13606   4.280   2.330  11.147  1.5229  1.0025 -3.1612
  861MOL0     H13607   4.217   2.167  11.120 -2.7626 -0.5376 -1.7151
  861MOL0     H13608   4.036   2.300  10.965 -1.4263  2.1662  0.6087
  861MOL0     H13609   4.125   2.443  11.019 -0.0756 -0.4361 -0.5004
  861MOL0     H13610   3.997   2.240  11.207  1.6410 -0.6131 -0.1812
  861MOL0     H13611   4.037   2.406  11.247 -2.5946  0.4750 -0.0622
  861MOL0     H13612   3.795   2.392  11.195 -0.5465  0.8744 -0.1209
  861MOL0     H13613   3.839   2.366  11.027 -2.5975 -0.9708  1.8423
  861MOL0     H13614   3.839   2.805  11.117  0.7758 -1.2545 -0.6904
  861MOL0     H13615   3.655   2.922  11.028 -0.0526  0.0315  2.3030
  861MOL0     H13616   3.245   3.055  11.063  0.5574 -1.0683 -0.3554
  861MOL0     H13617   3.034   3.144  10.983 -0.7605  0.1868 -0.9666
  861MOL0     H13618   2.959   3.195  10.539  0.8911  2.0451 -1.3549
  861MOL0     H13619   3.038   3.345  10.588 -1.1640  2.5497  1.3189
  861MOL0     H13620   2.745   3.265  10.590 -0.0027  0.0137  4.2652
  861MOL0     H13621   2.830   3.402  10.508 -1.9389  0.1397  0.1272
  861MOL0     H13622   2.895   3.493  10.734 -0.3449  0.7358  0.2822
  861MOL0     H13623   2.776   3.378  10.793  0.6995 -0.2051 -0.6472
  861MOL0     H13624   2.658   3.530  10.580 -0.1714 -0.4655 -0.5839
  861MOL0     H13625   2.609   3.527  10.750  1.7649  0.3451  2.5644
  861MOL0     H13626   2.834   3.714  10.638 -0.5374  0.1035  0.1611
  861MOL0     H13627   2.779   3.683  10.812 -1.7188 -3.6851  0.9390
  861MOL0     H13628   2.551   3.737  10.742 -2.0382  0.6004 -2.1069
  861MOL0     H13629   2.594   3.784  10.588  0.6879 -1.1603  0.5075
  861MOL0     H13630   2.706   3.919  10.828  0.8558 -0.9214 -0.6539
  861MOL0     H13631   2.739   3.950  10.650 -1.6966  2.2688 -0.8152
  861MOL0     H13632   2.454   3.947  10.738  2.7517 -3.0835  2.2597
  861MOL0     H13633   2.531   4.029  10.599  0.7373  3.7381  0.7538
  861MOL0     H13634   3.199   3.170  10.585 -1.5326 -2.6649 -0.8631
  861MOL0     H13635   3.400   3.035  10.672 -0.0387  0.0529  0.7176
  861MOL0     H13636   3.460   2.538  10.922  0.0069 -1.6941  2.1400
  861MOL0     H13637   3.645   2.434  10.992 -0.9006  0.0668 -1.3227
  861MOL0     H13638   5.607   2.192  10.689 -2.7245 -0.3182  0.4789
  861MOL0     H13639   5.811   2.252  10.792  0.0874  3.3433  0.4445
  861MOL0     H13640   5.968   2.316  11.279 -0.4008 -0.1455 -0.6188
  861MOL0     H13641   6.173   2.323  11.430 -1.4647 -3.6576 -0.9171
  861MOL0     H13642   6.366   2.351  11.518 -0.6165 -0.9774  0.8435
  861MOL0     H13643   6.335   2.522  11.566  0.3261  1.3973 -2.3096
  861MOL0     H13644   6.604   2.389  11.523 -0.2313 -0.2673  0.6192
  861MOL0     H13645   6.596   2.563  11.503  0.2818 -0.3410  1.0514
  861MOL0     H13646   6.559   2.396  11.761  0.5113 -0.1775 -1.2974
  861MOL0     H13647   6.489   2.556  11.746 -0.5899  1.9385 -2.0632
  861MOL0     H13648   6.730   2.653  11.695 -2.1674  0.2691 -1.7402
  861MOL0     H13649   6.695   2.579  11.851 -3.3090 -0.2773 -1.2999
  861MOL0     H13650   6.958   2.299  11.671  1.0452  0.8636  0.8143
  861MOL0     H13651   6.393   2.487  11.110 -1.0424  2.5660  1.8478
  861MOL0     H13652   6.209   2.438  10.953  2.1032  0.0523  0.1537
  862MOL0     O13653   7.387   4.229   9.076  0.2330  0.9981 -0.1198
  862MOL0     C13654   7.490   4.293   9.111  0.2778 -0.9256  0.0477
  862MOL0     O13655   7.511   4.359   9.233  0.4826 -0.9470  1.0569
  862MOL0     C13656   7.409   4.356   9.328 -0.4613  0.4620  0.6507
  862MOL0     C13657   7.462   4.347   9.461  0.4149 -0.2083 -0.2894
  862MOL0     C13658   7.373   4.316   9.562  0.0714  0.3223  0.6682
  862MOL0     C13659   7.240   4.306   9.543  0.2454  0.1635  0.5241
  862MOL0     O13660   7.156   4.269   9.645 -0.7541 -0.4565  0.2732
  862MOL0     C13661   7.074   4.379   9.689 -0.0735  0.1330  0.5879
  862MOL0     C13662   6.936   4.391   9.620 -0.1409  0.2720 -0.2761
  862MOL0     C13663   6.847   4.485   9.698 -0.7197  0.3999 -0.4147
  862MOL0     C13664   6.694   4.482   9.658 -0.1588  0.0573 -0.0977
  862MOL0     C13665   6.630   4.568   9.764  0.4062  0.0980 -0.4038
  862MOL0     C13666   6.486   4.616   9.730  0.2451 -0.6072 -0.0448
  862MOL0     C13667   6.421   4.660   9.863  0.3596  0.0675 -0.2239
  862MOL0     C13668   6.268   4.669   9.848 -1.0363  0.8071 -0.8025
  862MOL0     N13669   6.218   4.757   9.743 -0.9298 -0.7141 -0.8340
  862MOL0     C13670   6.215   4.723   9.610 -0.7308 -0.3784 -0.2805
  862MOL0     C13671   6.187   4.838   9.550  1.1171 -0.1115 -0.0769
  862MOL0     C13672   6.144   4.844   9.402  0.3474  0.6259  0.6131
  862MOL0     C13673   6.271   4.849   9.322 -0.1765  0.8929  0.4119
  862MOL0     C13674   6.366   4.962   9.351 -0.4755  0.3342 -0.3131
  862MOL0     C13675   6.326   5.097   9.318 -0.1504  0.3851 -0.6018
  862MOL0     O13676   6.249   5.089   9.197  0.3060  0.2411  0.3029
  862MOL0     C13677   6.150   5.187   9.186 -0.5638 -1.0221  0.5602
  862MOL0     C13678   6.153   5.313   9.246 -0.0603  0.9604 -0.9800
  862MOL0     C13679   6.042   5.397   9.250 -0.4441  1.2099 -0.1833
  862MOL0     C13680   5.924   5.363   9.187  0.8216  0.1994  0.5952
  862MOL0     C13681   5.805   5.453   9.201  0.4516  0.3966  0.1778
  862MOL0     O13682   5.700   5.389   9.152 -0.0354 -0.3570 -0.1446
  862MOL0     C13683   5.580   5.451   9.126 -0.0304 -0.5980 -0.4232
  862MOL0     C13684   5.556   5.589   9.088 -0.2604  0.6058  0.2939
  862MOL0     C13685   5.419   5.638   9.083  0.4201 -0.3412  0.5063
  862MOL0     C13686   5.312   5.540   9.098  0.7436  0.4135  1.3389
  862MOL0     O13687   5.179   5.571   9.094 -0.9394  0.0984  0.1924
  862MOL0     C13688   5.144   5.704   9.072  0.0413  0.3820 -0.1663
  862MOL0     C13689   4.979   5.699   9.066 -0.7131  0.0479  1.3995
  862MOL0     C13690   4.930   5.587   8.983  0.3422  0.6156 -0.0143
  862MOL0     C13691   4.770   5.573   8.976  0.3673 -0.2668 -0.3181
  862MOL0     C13692   4.724   5.465   9.076  0.7301  0.0380 -0.1146
  862MOL0     C13693   4.762   5.502   9.220  0.3782 -0.5374 -0.3466
  862MOL0     C13694   4.674   5.413   9.312  0.2609 -0.7794  0.0313
  862MOL0     C13695   4.718   5.455   9.454  0.2531  0.5787 -0.2389
  862MOL0    Cl13696   4.626   5.354   9.570  0.1020  0.2303 -0.2022
  862MOL0     C13697   5.338   5.404   9.129 -0.2978 -0.3246 -0.9300
  862MOL0     C13698   5.471   5.366   9.139 -0.1347 -0.6515 -0.4555
  862MOL0     O13699   5.804   5.571   9.244  0.0249 -0.4018 -0.0358
  862MOL0     C13700   5.922   5.236   9.118  0.5879 -0.5750  1.0090
  862MOL0     C13701   6.034   5.153   9.116 -0.3867  0.1985 -0.3163
  862MOL0     N13702   6.171   4.938   9.648 -0.3498  0.3780 -0.2124
  862MOL0     N13703   6.198   4.888   9.764 -0.6252  0.5219 -0.2197
  862MOL0     C13704   7.190   4.348   9.416  0.0618 -0.9956  0.0418
  862MOL0     C13705   7.273   4.354   9.306  0.8385 -0.1104 -0.6000
  862MOL0     C13706   7.599   4.303   9.008 -0.6973 -0.0388  0.3902
  862MOL0     C13707   7.605   4.201   8.911 -0.0683  0.1445  0.5752
  862MOL0     C13708   7.698   4.214   8.800 -0.4461 -0.3961 -0.3470
  862MOL0     C13709   7.782   4.326   8.798 -0.4882  0.2971  0.6683
  862MOL0     O13710   7.869   4.339   8.687  0.1841  0.0224  0.2777
  862MOL0     C13711   7.981   4.423   8.710 -0.2043 -0.0640  0.4421
  862MOL0     C13712   8.069   4.366   8.825  0.7995 -0.4690 -0.0210
  862MOL0     C13713   8.181   4.460   8.850 -0.5792 -0.2675 -0.0849
  862MOL0     C13714   8.257   4.398   8.965 -0.7003 -0.7040 -0.4627
  862MOL0     C13715   8.257   4.484   9.081  0.0788 -0.2949  0.5685
  862MOL0     C13716   8.232   4.560   9.174 -0.1861 -0.2418  0.7176
  862MOL0     C13717   7.760   4.433   8.885  0.0444  0.3950 -0.1616
  862MOL0     C13718   7.677   4.417   8.992 -0.8513 -0.1126  0.3325
  862MOL0     H13719   7.570   4.349   9.478  0.4906 -2.8676 -0.1022
  862MOL0     H13720   7.397   4.290   9.665  1.9526 -0.7920  0.0063
  862MOL0     H13721   7.123   4.477   9.678  0.3054 -0.0546  0.6020
  862MOL0     H13722   7.054   4.354   9.793 -0.3220 -0.9638  0.2839
  862MOL0     H13723   6.889   4.293   9.629  3.1406 -1.4491 -0.5670
  862MOL0     H13724   6.947   4.429   9.518  0.1435 -2.9947 -1.5936
  862MOL0     H13725   6.885   4.586   9.679 -2.0811  0.4154 -3.4902
  862MOL0     H13726   6.860   4.460   9.804 -0.6354 -1.3057 -0.8047
  862MOL0     H13727   6.692   4.542   9.566  0.2709  1.5926  0.8693
  862MOL0     H13728   6.639   4.390   9.632 -1.3947  1.1179 -1.4099
  862MOL0     H13729   6.689   4.660   9.773 -0.9649  0.9777 -0.2199
  862MOL0     H13730   6.633   4.528   9.865 -2.4468  0.4224 -0.1301
  862MOL0     H13731   6.429   4.539   9.678  0.4014 -0.9806  0.3301
  862MOL0     H13732   6.484   4.703   9.663  0.3590  0.8452  1.7345
  862MOL0     H13733   6.453   4.594   9.944  1.6008  0.6020 -0.2563
  862MOL0     H13734   6.456   4.756   9.901  0.7097 -1.4706  3.7809
  862MOL0     H13735   6.220   4.701   9.940 -0.1722  0.8578 -0.3588
  862MOL0     H13736   6.240   4.570   9.811  3.4318  0.3648 -3.8445
  862MOL0     H13737   6.230   4.633   9.552 -2.4877  0.2995 -1.9118
  862MOL0     H13738   6.084   4.932   9.379 -0.3255 -0.8233 -4.6854
  862MOL0     H13739   6.090   4.755   9.370  0.7667 -0.2370  2.2236
  862MOL0     H13740   6.253   4.834   9.215  1.8022 -0.1684  0.1946
  862MOL0     H13741   6.332   4.759   9.334 -0.0304  0.5777 -2.1240
  862MOL0     H13742   6.404   4.953   9.453 -0.5680 -3.1793 -0.4607
  862MOL0     H13743   6.458   4.956   9.292 -0.6418 -0.1716 -0.5272
  862MOL0     H13744   6.409   5.168   9.307 -0.1856  0.6333  0.6227
  862MOL0     H13745   6.269   5.132   9.404 -2.8869 -1.7883 -1.4018
  862MOL0     H13746   6.241   5.346   9.301 -0.3394 -1.5396  1.1540
  862MOL0     H13747   6.038   5.493   9.299  2.8761  1.6736 -0.6266
  862MOL0     H13748   5.644   5.650   9.069  0.3823 -0.8388 -1.7350
  862MOL0     H13749   5.392   5.739   9.053  1.0967  0.5577  2.6559
  862MOL0     H13750   5.183   5.719   8.971  0.6166 -1.2447 -0.2258
  862MOL0     H13751   5.188   5.770   9.147 -0.9259  0.3015  0.5019
  862MOL0     H13752   4.945   5.794   9.024 -1.0339 -1.1657 -1.3130
  862MOL0     H13753   4.942   5.697   9.169 -2.8886 -3.2417  0.6968
  862MOL0     H13754   4.955   5.487   9.019  0.8969  0.0758 -1.7945
  862MOL0     H13755   4.970   5.584   8.881 -0.9525 -0.7832 -0.5163
  862MOL0     H13756   4.725   5.669   9.001  1.0562 -0.2111  0.7803
  862MOL0     H13757   4.752   5.553   8.870  1.1093  0.2075 -0.5462
  862MOL0     H13758   4.760   5.363   9.059 -0.8107 -0.7751  1.1767
  862MOL0     H13759   4.615   5.471   9.064  0.6195  1.3702  1.1898
  862MOL0     H13760   4.740   5.607   9.236 -1.6110 -0.7365 -1.5344
  862MOL0     H13761   4.867   5.476   9.238 -0.1557 -2.2135  0.5627
  862MOL0     H13762   4.566   5.429   9.302 -0.1231 -3.4461 -0.8850
  862MOL0     H13763   4.679   5.304   9.307 -0.9334 -0.8378 -0.2149
  862MOL0     H13764   4.693   5.557   9.485 -0.3541 -0.0529  1.4851
  862MOL0     H13765   4.826   5.442   9.464  0.9464  3.5155 -2.5497
  862MOL0     H13766   5.256   5.336   9.146 -1.8820  2.0070  1.4545
  862MOL0     H13767   5.499   5.263   9.158  1.7856  0.4425  4.0226
  862MOL0     H13768   5.825   5.207   9.080 -0.0689  0.1697  2.0502
  862MOL0     H13769   6.021   5.048   9.088  1.7130 -1.0270  2.7925
  862MOL0     H13770   7.082   4.338   9.408  0.0554 -1.9302  1.0255
  862MOL0     H13771   7.220   4.344   9.212 -1.7371 -2.7379  0.9485
  862MOL0     H13772   7.536   4.118   8.917 -1.1762  0.9879 -0.0875
  862MOL0     H13773   7.695   4.135   8.726  0.6101 -3.4592  2.6364
  862MOL0     H13774   7.960   4.528   8.729 -3.0181 -0.5347  0.3736
  862MOL0     H13775   8.042   4.416   8.620 -0.7584  0.3746  0.0263
  862MOL0     H13776   7.999   4.368   8.909 -2.0976  3.3634 -2.1728
  862MOL0     H13777   8.093   4.264   8.794  0.7093  0.0228 -1.8668
  862MOL0     H13778   8.164   4.566   8.872  1.6718  0.1042  0.0869
  862MOL0     H13779   8.243   4.469   8.760 -1.2209  0.4761 -0.4624
  862MOL0     H13780   8.233   4.293   8.981 -2.5019 -0.3610 -0.7572
  862MOL0     H13781   8.362   4.405   8.935 -0.6402  2.2559  0.1578
  862MOL0     H13782   8.211   4.631   9.250 -0.5822  0.4700 -0.0390
  862MOL0     H13783   7.816   4.526   8.873  2.4586 -0.8347  0.9153
  862MOL0     H13784   7.672   4.505   9.055  0.4404  1.2020 -1.2755
  863MOL0     O13785  10.887   4.142   7.818  0.1386 -0.1684  1.4598
  863MOL0     C13786  10.936   4.081   7.729 -0.6974  0.5420 -0.0295
  863MOL0     O13787  10.875   4.015   7.625 -0.1063 -0.3571 -0.4053
  863MOL0     C13788  10.747   3.996   7.616  0.4875  0.7411  0.5616
  863MOL0     C13789  10.656   3.958   7.719 -1.1394 -1.1016 -0.9179
  863MOL0     C13790  10.518   3.941   7.694  0.5012 -0.6878 -0.0539
  863MOL0     C13791  10.461   3.969   7.564 -0.3198 -0.4364  0.5391
  863MOL0     O13792  10.331   3.939   7.531 -0.3366 -0.1022 -0.6358
  863MOL0     C13793  10.282   3.936   7.396  0.2368  0.1101 -0.0663
  863MOL0     C13794  10.132   3.910   7.404  0.3580 -0.3025 -1.1433
  863MOL0     C13795  10.083   3.865   7.265 -0.0179  0.4155 -0.6217
  863MOL0     C13796  10.088   3.968   7.162  0.2712  0.3629  0.8383
  863MOL0     C13797   9.994   3.938   7.042 -0.2688 -1.1921  0.3038
  863MOL0     C13798  10.034   4.005   6.904 -0.2557  0.1854 -1.0057
  863MOL0     C13799  10.028   4.160   6.910 -0.2045 -0.7522 -0.2491
  863MOL0     C13800  10.124   4.216   6.799  0.1466  0.5230  1.0993
  863MOL0     N13801  10.124   4.359   6.796  1.1734 -0.2699  0.3779
  863MOL0     C13802  10.134   4.449   6.897  0.0045 -0.8916  0.0178
  863MOL0     C13803  10.097   4.569   6.847  0.1504  0.6282  0.7871
  863MOL0     C13804  10.082   4.693   6.923 -0.0626  0.0200  0.2230
  863MOL0     C13805   9.973   4.690   7.039 -0.2512  0.2742 -0.5847
  863MOL0     C13806   9.993   4.825   7.132 -0.1379  1.2621 -0.1159
  863MOL0     C13807   9.863   4.840   7.207 -0.0532  0.2323  0.0080
  863MOL0     O13808   9.854   4.729   7.297 -0.1759 -0.7082 -0.0473
  863MOL0     C13809   9.754   4.741   7.387  1.0563  0.9840  0.3628
  863MOL0     C13810   9.703   4.614   7.429  0.1167  0.2307 -0.8261
  863MOL0     C13811   9.587   4.610   7.512  0.5862  0.7272  0.1521
  863MOL0     C13812   9.515   4.726   7.544 -0.2138  0.5038 -0.3997
  863MOL0     C13813   9.404   4.721   7.637  0.6175  0.6962  0.9771
  863MOL0     O13814   9.356   4.838   7.694 -0.5888 -0.2468  0.0649
  863MOL0     C13815   9.272   4.844   7.806 -0.2236  0.4739 -0.3385
  863MOL0     C13816   9.140   4.821   7.794 -0.1068 -0.4327  0.5925
  863MOL0     C13817   9.052   4.814   7.909  0.2884  0.4777 -0.1956
  863MOL0     C13818   9.096   4.822   8.042 -0.5049 -0.2739 -0.2957
  863MOL0     O13819   9.026   4.833   8.155  0.6344  0.9531  0.2245
  863MOL0     C13820   8.909   4.735   8.176 -0.1576 -0.5146  1.4211
  863MOL0     C13821   8.781   4.812   8.175 -0.4352 -0.1156 -0.0119
  863MOL0     C13822   8.658   4.730   8.130  0.6781 -0.2488  0.0400
  863MOL0     C13823   8.536   4.822   8.124  0.5138  0.0451 -0.0230
  863MOL0     C13824   8.402   4.751   8.094 -0.3227  0.1910  0.3581
  863MOL0     C13825   8.280   4.841   8.074  0.1075 -0.8084 -0.5287
  863MOL0     C13826   8.157   4.753   8.032 -1.1129  0.3953 -0.7885
  863MOL0     C13827   8.019   4.828   8.014  0.3381  0.0188 -0.1703
  863MOL0    Cl13828   8.047   4.927   7.879 -0.1907  0.1617 -0.2239
  863MOL0     C13829   9.239   4.857   8.046 -0.3918  0.7351 -0.2417
  863MOL0     C13830   9.323   4.864   7.933  0.7821 -0.1723 -0.3683
  863MOL0     O13831   9.370   4.607   7.674 -0.7529  0.1754  0.6019
  863MOL0     C13832   9.563   4.844   7.489  0.0560  0.0819 -0.4722
  863MOL0     C13833   9.681   4.856   7.419 -0.3212  0.3699 -1.1264
  863MOL0     N13834  10.079   4.560   6.709  0.6427  0.3796  0.4824
  863MOL0     N13835  10.080   4.433   6.686 -0.1344  0.8938  0.3561
  863MOL0     C13836  10.543   4.034   7.465 -0.8954  0.9418  0.0271
  863MOL0     C13837  10.683   4.041   7.496  0.4148  1.1196 -0.6983
  863MOL0     C13838  11.086   4.098   7.720  1.0755 -0.1427  0.9029
  863MOL0     C13839  11.158   4.184   7.803  0.4862 -0.8489 -0.0833
  863MOL0     C13840  11.301   4.201   7.790  0.3996 -0.4502  0.2634
  863MOL0     C13841  11.364   4.125   7.693 -0.6714 -1.2747 -0.1837
  863MOL0     O13842  11.497   4.148   7.699 -0.4336  0.0556  0.1052
  863MOL0     C13843  11.561   4.145   7.568 -0.7306 -0.0335 -0.1736
  863MOL0     C13844  11.716   4.168   7.583 -0.3139  0.7163  0.1558
  863MOL0     C13845  11.783   4.152   7.449 -0.1476  0.6433 -0.6146
  863MOL0     C13846  11.793   4.010   7.405  0.2423 -1.3083 -0.3464
  863MOL0     C13847  11.871   3.997   7.280 -0.2134  0.5697  1.4105
  863MOL0     C13848  11.938   3.970   7.181 -0.1923  0.6839  0.5853
  863MOL0     C13849  11.295   4.041   7.605 -0.1509  0.6162  0.7023
  863MOL0     C13850  11.161   4.030   7.618  0.1143 -0.4195  0.1341
  863MOL0     H13851  10.694   3.950   7.820 -0.1647  0.5597 -1.1242
  863MOL0     H13852  10.457   3.908   7.777  0.1679 -0.9623 -0.4083
  863MOL0     H13853  10.340   3.882   7.321  1.5195  1.3367 -0.0061
  863MOL0     H13854  10.284   4.030   7.341  0.3933  0.1159 -0.0505
  863MOL0     H13855  10.075   3.993   7.445  0.6254 -0.0683 -1.2443
  863MOL0     H13856  10.119   3.831   7.478 -0.5517  1.1426  0.2925
  863MOL0     H13857   9.980   3.831   7.284  0.7190 -0.5821  1.9084
  863MOL0     H13858  10.132   3.775   7.226  0.0279 -0.5891  1.6488
  863MOL0     H13859  10.060   4.067   7.200 -1.8773  0.2245 -0.2548
  863MOL0     H13860  10.190   3.980   7.122  0.0899 -0.4051  0.1199
  863MOL0     H13861   9.895   3.978   7.063  1.8469  5.0212  0.5308
  863MOL0     H13862   9.992   3.832   7.017 -0.2600 -0.6567 -2.3537
  863MOL0     H13863   9.962   3.966   6.832 -1.3463  1.0072 -0.3986
  863MOL0     H13864  10.135   3.971   6.881 -1.1475 -3.8339  0.1779
  863MOL0     H13865   9.925   4.193   6.892 -1.0757 -0.4150  4.3356
  863MOL0     H13866  10.052   4.187   7.013 -0.1421  0.5542 -0.5849
  863MOL0     H13867  10.096   4.184   6.699 -0.5042 -0.0237  1.4484
  863MOL0     H13868  10.227   4.193   6.827 -0.0944 -2.6918 -0.2116
  863MOL0     H13869  10.148   4.441   7.004 -0.7508  1.2512  0.3192
  863MOL0     H13870  10.030   4.769   6.864  0.8875  1.8319  1.6083
  863MOL0     H13871  10.178   4.728   6.960 -1.0849  2.4534  0.7755
  863MOL0     H13872   9.987   4.602   7.103 -2.8110  0.1769 -0.0372
  863MOL0     H13873   9.875   4.691   6.992 -0.8072  4.4409  0.2758
  863MOL0     H13874  10.076   4.832   7.202 -0.7554  0.3513  0.7358
  863MOL0     H13875   9.997   4.908   7.061 -1.2374  2.9310  1.6885
  863MOL0     H13876   9.778   4.826   7.139  0.0088 -1.0724  0.1736
  863MOL0     H13877   9.863   4.937   7.258 -0.7227 -0.1384  0.7386
  863MOL0     H13878   9.765   4.530   7.398 -1.0152 -0.4462 -1.3308
  863MOL0     H13879   9.569   4.514   7.558  3.9305 -0.7731 -1.3322
  863MOL0     H13880   9.096   4.821   7.694 -0.2068  1.6616  0.5915
  863MOL0     H13881   8.948   4.791   7.885 -0.0238  0.7861  0.8137
  863MOL0     H13882   8.923   4.672   8.265 -0.7702 -1.0292  1.1600
  863MOL0     H13883   8.899   4.666   8.093  1.0784  0.5772  0.3230
  863MOL0     H13884   8.797   4.899   8.110  0.9074  0.8996  1.5848
  863MOL0     H13885   8.760   4.852   8.275 -1.6349 -0.2143 -0.2112
  863MOL0     H13886   8.648   4.653   8.208  2.8994  1.2401  1.9221
  863MOL0     H13887   8.667   4.673   8.037  0.9780  0.8421 -0.6244
  863MOL0     H13888   8.534   4.877   8.219 -1.9904  1.4899 -0.8065
  863MOL0     H13889   8.551   4.896   8.045 -0.9216 -0.7146 -1.0594
  863MOL0     H13890   8.380   4.663   8.154  0.9502 -2.3164 -2.5672
  863MOL0     H13891   8.415   4.706   7.995  2.9660 -0.8090  1.1429
  863MOL0     H13892   8.309   4.920   8.003  3.2396 -0.0265  1.4474
  863MOL0     H13893   8.253   4.887   8.170 -1.2757  3.4513 -2.6692
  863MOL0     H13894   8.187   4.698   7.942 -0.8805 -0.0987 -0.4122
  863MOL0     H13895   8.149   4.669   8.102  3.1485  1.2043  0.9373
  863MOL0     H13896   7.992   4.887   8.101 -0.2973 -3.2892  2.0755
  863MOL0     H13897   7.941   4.754   7.991  3.3271 -4.4382  2.3834
  863MOL0     H13898   9.281   4.892   8.140 -3.0649  1.2980  0.8331
  863MOL0     H13899   9.426   4.891   7.958  0.1119  2.3241 -0.0701
  863MOL0     H13900   9.505   4.933   7.510  0.3847 -0.3917  3.0091
  863MOL0     H13901   9.711   4.956   7.391  1.7758 -0.8725 -3.7904
  863MOL0     H13902  10.518   4.058   7.362 -0.4422 -1.1590 -0.6317
  863MOL0     H13903  10.756   4.084   7.429  3.3544 -0.3348  1.3405
  863MOL0     H13904  11.109   4.250   7.875  2.3097  2.7433 -1.8503
  863MOL0     H13905  11.351   4.273   7.854  0.3907  0.1594 -0.4006
  863MOL0     H13906  11.537   4.224   7.496  1.9808  1.2235  0.1752
  863MOL0     H13907  11.552   4.051   7.512  2.7586 -0.0670 -0.9131
  863MOL0     H13908  11.737   4.265   7.629 -2.9302  0.9397  1.0258
  863MOL0     H13909  11.751   4.091   7.652  0.5452  2.8053  2.1641
  863MOL0     H13910  11.886   4.188   7.454 -0.5152  1.5620  0.7114
  863MOL0     H13911  11.736   4.205   7.365  1.6605  1.7738 -0.9711
  863MOL0     H13912  11.848   3.950   7.478 -0.0814  0.1499  1.1508
  863MOL0     H13913  11.694   3.966   7.396  0.5451 -2.0186 -0.2377
  863MOL0     H13914  12.003   3.935   7.103  0.0873 -0.5111  1.3354
  863MOL0     H13915  11.368   3.989   7.543  0.0466  0.2565  1.2268
  863MOL0     H13916  11.103   3.970   7.549 -2.6870  2.8750 -0.6699
  864MOL0     O13917   3.031   5.541  11.065  0.5476 -0.5263  0.5360
  864MOL0     C13918   3.051   5.653  11.026  0.1258 -0.4658 -0.0669
  864MOL0     O13919   2.990   5.719  10.913 -0.6952 -0.7251  0.6838
  864MOL0     C13920   2.868   5.684  10.863 -0.2544 -0.2834 -0.6886
  864MOL0     C13921   2.771   5.587  10.914  0.1575  0.5226 -0.2878
  864MOL0     C13922   2.639   5.571  10.850 -0.3877 -0.3828 -0.4654
  864MOL0     C13923   2.612   5.651  10.739  0.0031 -0.0162  0.3197
  864MOL0     O13924   2.488   5.627  10.683 -0.3075 -0.9291  0.4771
  864MOL0     C13925   2.490   5.656  10.543 -0.6632  0.1238 -0.0591
  864MOL0     C13926   2.358   5.586  10.479  0.7160  0.4005  0.5218
  864MOL0     C13927   2.225   5.656  10.520  0.3057  0.1330 -0.0523
  864MOL0     C13928   2.114   5.591  10.432  0.2634 -0.7220  0.1236
  864MOL0     C13929   1.976   5.656  10.444 -0.7849 -0.2510  0.4914
  864MOL0     C13930   1.871   5.586  10.363 -0.3984 -0.0208 -0.0625
  864MOL0     C13931   1.874   5.660  10.237 -0.6206  0.8443 -0.0441
  864MOL0     C13932   1.764   5.610  10.138  0.1031  0.1043  1.3270
  864MOL0     N13933   1.632   5.650  10.186 -0.2145 -0.0640  0.6482
  864MOL0     C13934   1.534   5.560  10.217  0.9614 -0.7461 -0.3890
  864MOL0     C13935   1.432   5.642  10.253  0.3262  0.3806 -0.4408
  864MOL0     C13936   1.288   5.599  10.295 -0.2109  0.3599 -0.2620
  864MOL0     C13937   1.177   5.702  10.256  0.1803 -0.0568  0.7106
  864MOL0     C13938   1.164   5.741  10.108  0.5126 -0.1971 -0.1201
  864MOL0     C13939   1.079   5.634  10.031  0.8462 -0.2295  0.7464
  864MOL0     O13940   0.941   5.634  10.084  0.7261  0.2723  0.0568
  864MOL0     C13941   0.842   5.637   9.986 -0.0537  0.7484 -0.0890
  864MOL0     C13942   0.723   5.568  10.022 -0.2037 -0.1359  0.4004
  864MOL0     C13943   0.612   5.582   9.941  0.3012  0.0008  0.2467
  864MOL0     C13944   0.614   5.648   9.814 -0.1046  0.6959 -0.4873
  864MOL0     C13945   0.500   5.650   9.728  1.2377 -0.0617  1.1699
  864MOL0     O13946   0.505   5.722   9.611 -0.9288 -0.4016  0.6678
  864MOL0     C13947   0.401   5.735   9.520  0.0746  0.0973 -0.7100
  864MOL0     C13948   0.266   5.719   9.536  0.7704  0.9934 -0.1617
  864MOL0     C13949   0.181   5.755   9.424 -0.3454  0.1864  0.3645
  864MOL0     C13950   0.227   5.807   9.308 -0.2801  0.1559  0.1376
  864MOL0     O13951   0.130   5.845   9.210 -0.6204 -0.8064 -0.4400
  864MOL0     C13952   0.015   5.768   9.196 -0.6381  0.1646 -0.4921
  864MOL0     C13953  -0.068   5.800   9.068  0.9266 -0.0479  0.7724
  864MOL0     C13954   0.010   5.826   8.948  0.0557 -1.1764  0.2839
  864MOL0     C13955  -0.092   5.870   8.838 -0.1140  0.5692 -0.4169
  864MOL0     C13956  -0.044   5.912   8.701 -0.3774  0.0706  0.4008
  864MOL0     C13957   0.015   6.051   8.711 -0.0713  0.6026 -0.5513
  864MOL0     C13958   0.058   6.105   8.569 -0.4672 -0.1380  0.3194
  864MOL0     C13959   0.172   6.021   8.504 -0.5571 -0.2621  0.4776
  864MOL0    Cl13960   0.316   6.009   8.606  0.0391 -0.2147  0.0864
  864MOL0     C13961   0.361   5.812   9.287  0.2093 -0.1270 -0.8760
  864MOL0     C13962   0.446   5.766   9.388 -0.0683 -0.3282  0.2986
  864MOL0     O13963   0.394   5.602   9.770  0.6575  0.1865  0.1112
  864MOL0     C13964   0.736   5.712   9.779 -0.4472  0.3151  0.1576
  864MOL0     C13965   0.844   5.712   9.868 -0.3203  0.0904 -0.2215
  864MOL0     N13966   1.469   5.775  10.243 -0.2918  0.3247 -0.0808
  864MOL0     N13967   1.589   5.779  10.195  0.6695  0.0483 -0.0405
  864MOL0     C13968   2.711   5.748  10.691  0.1613 -0.1788 -1.1472
  864MOL0     C13969   2.840   5.760  10.752 -0.0307 -0.1075 -0.3628
  864MOL0     C13970   3.160   5.727  11.094  0.2608  0.1210 -0.2934
  864MOL0     C13971   3.238   5.673  11.195  0.1045 -0.0106 -0.2273
  864MOL0     C13972   3.345   5.746  11.238 -0.1070 -0.4133 -0.6404
  864MOL0     C13973   3.389   5.866  11.176  0.0358 -0.4505  0.0817
  864MOL0     O13974   3.494   5.947  11.205 -0.0278 -0.4802  0.1745
  864MOL0     C13975   3.583   5.913  11.307  0.0314  0.3817 -0.9950
  864MOL0     C13976   3.575   6.010  11.426  0.4761  0.4423 -0.7771
  864MOL0     C13977   3.694   5.978  11.525 -0.2150 -0.8525 -1.0702
  864MOL0     C13978   3.691   6.075  11.646 -0.3176  0.9190 -0.3309
  864MOL0     C13979   3.566   6.074  11.724 -0.7273 -0.6258  0.1745
  864MOL0     C13980   3.464   6.066  11.791 -0.5153 -0.4837 -0.5487
  864MOL0     C13981   3.313   5.908  11.070  0.3181  0.2230  0.7690
  864MOL0     C13982   3.201   5.840  11.028 -0.1544  0.6011  0.0828
  864MOL0     H13983   2.804   5.528  10.999 -1.1005  0.1486 -0.0446
  864MOL0     H13984   2.551   5.517  10.883 -1.3969  0.1678 -2.0995
  864MOL0     H13985   2.578   5.612  10.496  1.2117  1.6258  1.8378
  864MOL0     H13986   2.484   5.765  10.545  0.8322  0.4435 -3.9092
  864MOL0     H13987   2.351   5.481  10.509  1.3872 -0.3957 -1.8656
  864MOL0     H13988   2.362   5.590  10.370 -0.0407 -1.4133  0.3879
  864MOL0     H13989   2.220   5.762  10.493  1.6589 -0.4326 -2.8158
  864MOL0     H13990   2.209   5.631  10.626 -0.9468 -0.1894 -0.2968
  864MOL0     H13991   2.148   5.599  10.328  4.3331 -0.4153  1.2900
  864MOL0     H13992   2.108   5.485  10.458 -0.2041 -1.2913 -2.0591
  864MOL0     H13993   1.981   5.764  10.432 -1.9879  0.1233  2.7257
  864MOL0     H13994   1.944   5.662  10.548  1.2981  0.7184  1.1425
  864MOL0     H13995   1.770   5.603  10.401  0.0725  1.6964  0.4767
  864MOL0     H13996   1.897   5.480  10.354  0.2851  0.2984 -2.5979
  864MOL0     H13997   1.854   5.766  10.257 -3.6945  0.3798 -0.1449
  864MOL0     H13998   1.976   5.644  10.200  0.1285 -1.5969  2.6992
  864MOL0     H13999   1.766   5.501  10.127  1.0440  0.0367  2.0276
  864MOL0     H14000   1.787   5.659  10.043  0.6113  1.0896  1.9445
  864MOL0     H14001   1.539   5.451  10.218  1.9823 -0.7410 -2.1623
  864MOL0     H14002   1.289   5.600  10.404 -0.6115 -0.1750 -0.2532
  864MOL0     H14003   1.249   5.513  10.241 -2.4635  0.2950  1.3143
  864MOL0     H14004   1.202   5.799  10.300 -0.3372  0.9500 -1.1189
  864MOL0     H14005   1.087   5.675  10.311  1.2271 -1.5663  1.7664
  864MOL0     H14006   1.109   5.836  10.104  2.7720  1.2072  0.6203
  864MOL0     H14007   1.263   5.753  10.063 -0.1537  2.4323 -1.0863
  864MOL0     H14008   1.123   5.537  10.056  1.5647 -0.2046 -0.3212
  864MOL0     H14009   1.086   5.653   9.923  2.7378  1.9077  1.1620
  864MOL0     H14010   0.715   5.518  10.118  0.9797 -0.6601  0.2397
  864MOL0     H14011   0.517   5.550   9.983  0.0434  0.8871  0.3723
  864MOL0     H14012   0.227   5.685   9.631  1.3275 -0.1981 -0.3443
  864MOL0     H14013   0.074   5.758   9.442 -0.3089  3.3264  0.6680
  864MOL0     H14014  -0.049   5.796   9.281  1.0743  0.0922  0.8827
  864MOL0     H14015   0.031   5.660   9.193 -2.2149 -0.0797 -1.0103
  864MOL0     H14016  -0.136   5.885   9.083 -1.8122 -2.0103  0.2745
  864MOL0     H14017  -0.134   5.712   9.067  2.5685 -1.3235 -0.7636
  864MOL0     H14018   0.068   5.735   8.931  0.6363 -0.6957 -0.3608
  864MOL0     H14019   0.090   5.900   8.963 -2.5435  1.3964  2.8457
  864MOL0     H14020  -0.176   5.800   8.828 -2.2353  3.1295 -1.7810
  864MOL0     H14021  -0.145   5.959   8.874 -0.7507  0.2012 -0.4165
  864MOL0     H14022  -0.135   5.925   8.642 -1.6693  0.5277  2.3851
  864MOL0     H14023   0.024   5.846   8.647 -1.7468  1.4052 -3.3137
  864MOL0     H14024   0.084   6.051   8.796 -1.3789  0.4226  0.5453
  864MOL0     H14025  -0.063   6.123   8.738  0.3285  2.3019 -3.4979
  864MOL0     H14026  -0.029   6.111   8.503 -0.1176 -0.5913 -0.1876
  864MOL0     H14027   0.092   6.209   8.577 -1.2890  0.1674 -0.0236
  864MOL0     H14028   0.194   6.073   8.410 -3.4726 -3.0561 -1.9560
  864MOL0     H14029   0.146   5.922   8.464 -0.3569  0.5523 -1.8333
  864MOL0     H14030   0.413   5.858   9.203  3.7599 -2.5871 -0.2669
  864MOL0     H14031   0.554   5.767   9.378 -0.0893 -0.7812  0.0191
  864MOL0     H14032   0.755   5.774   9.692 -2.8031  2.9325  1.3412
  864MOL0     H14033   0.921   5.779   9.831 -1.7239  1.4985 -0.7009
  864MOL0     H14034   2.706   5.795  10.593  0.6040 -4.0245 -3.2242
  864MOL0     H14035   2.914   5.821  10.702 -0.0475 -0.5091 -0.8855
  864MOL0     H14036   3.207   5.576  11.231  0.8031 -0.3418 -0.5077
  864MOL0     H14037   3.392   5.717  11.332  1.4735  1.4652 -0.7892
  864MOL0     H14038   3.685   5.915  11.266  1.0677 -1.5780  1.2589
  864MOL0     H14039   3.572   5.811  11.343 -2.2590  1.2348  1.0054
  864MOL0     H14040   3.584   6.116  11.399  1.9272  1.5019  3.0854
  864MOL0     H14041   3.476   5.989  11.466 -0.0777  3.5885 -0.2303
  864MOL0     H14042   3.790   5.973  11.473 -0.0538  4.0191 -1.7017
  864MOL0     H14043   3.683   5.878  11.567 -1.2070 -0.0057  0.8173
  864MOL0     H14044   3.768   6.038  11.714 -0.0028 -0.2312 -1.2767
  864MOL0     H14045   3.715   6.181  11.632  4.4945  0.2723  1.2334
  864MOL0     H14046   3.375   6.043  11.847 -0.3737 -2.9481 -1.1929
  864MOL0     H14047   3.348   5.991  11.010  2.2969 -1.0274  0.0981
  864MOL0     H14048   3.156   5.881  10.938 -0.0643  3.6075  1.3117
  865MOL0     O14049   6.914   3.680   3.311 -0.0342  0.1042 -0.1326
  865MOL0     C14050   6.955   3.731   3.201  0.7731  0.1814 -0.2866
  865MOL0     O14051   6.886   3.726   3.080  0.1635  0.6674 -0.7234
  865MOL0     C14052   6.760   3.680   3.076 -0.5849 -0.4978  0.6811
  865MOL0     C14053   6.734   3.599   2.967  0.1859  0.5076 -0.0014
  865MOL0     C14054   6.605   3.545   2.943 -0.9137  0.2765  0.1945
  865MOL0     C14055   6.500   3.578   3.031  0.7147  0.0014  0.9204
  865MOL0     O14056   6.377   3.520   3.004  0.2737 -0.2116  0.2231
  865MOL0     C14057   6.261   3.582   3.059  0.6184  0.7957 -0.6548
  865MOL0     C14058   6.129   3.524   3.007  0.2599 -0.7355 -0.5043
  865MOL0     C14059   6.098   3.580   2.866  0.3200  0.0553  0.8403
  865MOL0     C14060   5.954   3.539   2.825  0.7914 -0.4000 -0.7474
  865MOL0     C14061   5.937   3.551   2.674 -0.5948 -0.4739 -0.1166
  865MOL0     C14062   5.821   3.457   2.631 -0.2099  0.2184  0.4021
  865MOL0     C14063   5.839   3.443   2.478  0.0855 -0.3331 -0.1216
  865MOL0     C14064   5.730   3.383   2.399  0.4131 -0.0532  0.0206
  865MOL0     N14065   5.769   3.356   2.258  0.2208 -0.4798  0.2967
  865MOL0     C14066   5.795   3.452   2.170  0.1115 -0.7862  0.0216
  865MOL0     C14067   5.836   3.385   2.060  0.6325  0.2915 -0.2819
  865MOL0     C14068   5.855   3.428   1.917  0.0185 -0.3977 -0.6038
  865MOL0     C14069   5.716   3.481   1.871  0.5043  0.4446  0.1283
  865MOL0     C14070   5.714   3.511   1.721 -0.2095  0.3130 -0.4669
  865MOL0     C14071   5.592   3.446   1.645 -0.1178 -0.2660 -0.1052
  865MOL0     O14072   5.578   3.303   1.686  0.2030  0.1518 -0.3244
  865MOL0     C14073   5.690   3.220   1.670 -0.1888  0.3513 -0.0456
  865MOL0     C14074   5.711   3.136   1.777  0.4142 -0.0048 -0.6233
  865MOL0     C14075   5.831   3.055   1.780 -0.5357 -0.5947 -0.1752
  865MOL0     C14076   5.931   3.072   1.681  1.0926  0.5494  0.2684
  865MOL0     C14077   6.056   3.003   1.697  0.1755  0.3772  0.1983
  865MOL0     O14078   6.095   2.958   1.826 -0.1516  0.2505 -0.0024
  865MOL0     C14079   6.214   2.894   1.843  0.4048  0.4864 -0.2648
  865MOL0     C14080   6.278   2.807   1.746 -0.4774 -0.0461 -0.8007
  865MOL0     C14081   6.399   2.746   1.775 -1.2058  0.4091 -0.8753
  865MOL0     C14082   6.464   2.755   1.902 -0.6160 -0.6075  0.2048
  865MOL0     O14083   6.568   2.668   1.936  0.5436 -0.1145  0.3229
  865MOL0     C14084   6.645   2.683   2.048 -0.2531  1.0194 -0.6840
  865MOL0     C14085   6.787   2.656   1.995  0.2623 -0.5768 -0.0769
  865MOL0     C14086   6.846   2.783   1.918 -0.7279  0.2533  0.8336
  865MOL0     C14087   6.981   2.770   1.852  0.5026 -0.3805  0.4021
  865MOL0     C14088   7.014   2.910   1.778 -0.2721  0.5486 -0.2259
  865MOL0     C14089   7.164   2.900   1.737  0.5616  0.2633 -0.2942
  865MOL0     C14090   7.250   3.026   1.752 -0.4092  0.5247 -0.2769
  865MOL0     C14091   7.279   3.076   1.895  0.1124  0.4415 -0.4461
  865MOL0    Cl14092   7.391   2.966   1.986  0.1791 -0.2432 -0.5179
  865MOL0     C14093   6.395   2.842   1.993 -1.1385  1.0371  0.6497
  865MOL0     C14094   6.284   2.915   1.960 -0.2437 -0.7374 -0.1765
  865MOL0     O14095   6.122   2.995   1.595 -0.3091  0.2484 -0.0625
  865MOL0     C14096   5.893   3.151   1.569  0.3533  0.1983 -0.4755
  865MOL0     C14097   5.772   3.214   1.556 -0.4645 -1.2273  0.2559
  865MOL0     N14098   5.851   3.252   2.091  0.0134 -0.7019 -0.3491
  865MOL0     N14099   5.816   3.236   2.213 -0.3522 -0.6824  0.0427
  865MOL0     C14100   6.523   3.666   3.137  0.1279  0.5632 -0.5440
  865MOL0     C14101   6.654   3.712   3.161  0.3958  0.0559 -0.5701
  865MOL0     C14102   7.078   3.806   3.210 -0.5352 -0.6817  0.2249
  865MOL0     C14103   7.168   3.773   3.315 -0.3884 -0.2503 -0.2249
  865MOL0     C14104   7.288   3.844   3.325 -0.2721  0.1175  0.2881
  865MOL0     C14105   7.328   3.939   3.228  0.4249  1.3479 -0.6094
  865MOL0     O14106   7.455   3.988   3.232  0.0598  0.5206 -0.3708
  865MOL0     C14107   7.528   3.945   3.113 -0.2144 -0.5290  0.1558
  865MOL0     C14108   7.540   4.050   3.007  0.0680 -0.1852  0.8978
  865MOL0     C14109   7.622   4.016   2.886  0.0702  0.3755 -0.2365
  865MOL0     C14110   7.621   4.126   2.778 -0.8288 -1.0337  0.2272
  865MOL0     C14111   7.758   4.172   2.767  0.3375  0.2981  0.3943
  865MOL0     C14112   7.873   4.203   2.767 -0.5838  0.0978  0.0296
  865MOL0     C14113   7.229   3.981   3.133  0.6135  0.4050  0.1890
  865MOL0     C14114   7.108   3.909   3.121 -1.1472 -0.2934 -0.3801
  865MOL0     H14115   6.812   3.567   2.900  2.2806 -0.3964  2.6624
  865MOL0     H14116   6.587   3.472   2.865  0.2776 -0.6869  0.7953
  865MOL0     H14117   6.266   3.687   3.029  2.9456  1.4216  1.5228
  865MOL0     H14118   6.258   3.586   3.168 -1.8261  2.1106 -0.7051
  865MOL0     H14119   6.045   3.541   3.075 -1.6161 -0.1592 -2.8341
  865MOL0     H14120   6.157   3.419   2.995 -3.5284 -2.1032  1.1516
  865MOL0     H14121   6.172   3.539   2.796  1.6937 -2.0395  3.3375
  865MOL0     H14122   6.098   3.689   2.870 -0.2056  0.0234  1.8056
  865MOL0     H14123   5.946   3.434   2.855  0.8438  0.1555  1.4133
  865MOL0     H14124   5.880   3.594   2.884  0.1237 -1.8919 -0.1469
  865MOL0     H14125   6.027   3.501   2.637  1.1333 -0.5142  3.5985
  865MOL0     H14126   5.927   3.656   2.645  0.0744  0.5100  2.8090
  865MOL0     H14127   5.732   3.511   2.663 -0.7104  0.3926 -1.1795
  865MOL0     H14128   5.827   3.359   2.680  5.6667 -0.3990 -0.7848
  865MOL0     H14129   5.861   3.544   2.442  0.5224 -0.4365 -0.1480
  865MOL0     H14130   5.918   3.369   2.466  0.0134 -0.7555  1.6908
  865MOL0     H14131   5.659   3.464   2.421 -1.1064 -1.6008  1.0599
  865MOL0     H14132   5.700   3.296   2.458 -0.6109  1.1006  1.2844
  865MOL0     H14133   5.771   3.558   2.180  4.2706  0.2180  2.0307
  865MOL0     H14134   5.882   3.340   1.858  3.2842  1.6534 -2.4310
  865MOL0     H14135   5.930   3.507   1.911 -0.1330 -0.0449  1.3705
  865MOL0     H14136   5.691   3.574   1.923 -2.1644 -0.5435  0.7720
  865MOL0     H14137   5.641   3.404   1.894  0.0867  0.7652 -0.1484
  865MOL0     H14138   5.696   3.618   1.702 -1.3859  0.3521  0.7252
  865MOL0     H14139   5.798   3.469   1.665 -1.9474 -1.3874 -1.9331
  865MOL0     H14140   5.596   3.451   1.536 -4.2371 -1.6878 -0.5032
  865MOL0     H14141   5.498   3.497   1.670 -1.4123 -2.6992  0.3711
  865MOL0     H14142   5.638   3.137   1.858 -1.1286 -2.7771 -1.8350
  865MOL0     H14143   5.857   2.989   1.863  0.5979  0.1643  0.0944
  865MOL0     H14144   6.230   2.777   1.654 -1.3737 -0.8493 -0.0854
  865MOL0     H14145   6.456   2.697   1.697  0.3072  0.7580 -0.0381
  865MOL0     H14146   6.619   2.605   2.120 -2.4433  2.0362 -0.2964
  865MOL0     H14147   6.632   2.778   2.101 -0.0814 -0.7188  2.7240
  865MOL0     H14148   6.780   2.577   1.919  2.5800 -0.2247 -0.7482
  865MOL0     H14149   6.858   2.628   2.074 -2.0594  3.4714  3.8736
  865MOL0     H14150   6.847   2.871   1.982 -0.9948  3.2360 -2.8932
  865MOL0     H14151   6.776   2.810   1.838 -0.9186 -0.4889  0.7384
  865MOL0     H14152   7.050   2.729   1.926 -0.4317 -0.6326  1.1587
  865MOL0     H14153   6.979   2.695   1.772  0.5650 -1.7987  1.6903
  865MOL0     H14154   6.985   3.000   1.834 -5.0898 -1.0007  0.1942
  865MOL0     H14155   6.949   2.912   1.690 -1.2216 -0.7656  0.4096
  865MOL0     H14156   7.167   2.866   1.633 -3.2307 -0.3421 -0.3269
  865MOL0     H14157   7.219   2.821   1.790 -3.4763 -2.4517  0.2926
  865MOL0     H14158   7.344   3.001   1.701 -0.3106 -1.4789  0.8056
  865MOL0     H14159   7.197   3.108   1.703 -1.6892 -0.7643 -1.1061
  865MOL0     H14160   7.187   3.086   1.954  1.0223 -1.3359  1.3445
  865MOL0     H14161   7.322   3.174   1.870 -2.3027  1.4121 -1.1512
  865MOL0     H14162   6.444   2.872   2.085 -2.3170 -1.5527  2.2354
  865MOL0     H14163   6.246   2.982   2.037 -1.1727 -0.2661 -1.0233
  865MOL0     H14164   5.953   3.166   1.480 -2.1574  0.6028 -2.1972
  865MOL0     H14165   5.748   3.277   1.472  0.7418 -1.5462 -0.3527
  865MOL0     H14166   6.445   3.720   3.189 -2.4277 -1.1858 -2.2622
  865MOL0     H14167   6.690   3.772   3.244  1.4572 -2.0174  0.5515
  865MOL0     H14168   7.138   3.704   3.394 -3.6561  0.3261 -0.8206
  865MOL0     H14169   7.354   3.817   3.407 -1.0515 -1.5752  0.3864
  865MOL0     H14170   7.489   3.855   3.064  1.6236  0.4392 -3.4606
  865MOL0     H14171   7.627   3.915   3.148  1.7922 -0.5384 -4.7639
  865MOL0     H14172   7.437   4.064   2.974 -0.5283  1.0245  3.0361
  865MOL0     H14173   7.572   4.140   3.061  2.6537  0.6560 -1.7911
  865MOL0     H14174   7.587   3.923   2.840  2.4840 -0.8296  0.2121
  865MOL0     H14175   7.726   3.999   2.916 -0.3068  1.0661  1.5389
  865MOL0     H14176   7.593   4.082   2.681 -0.0097 -0.5846 -0.2183
  865MOL0     H14177   7.554   4.208   2.806  1.8525  2.9381 -3.6139
  865MOL0     H14178   7.967   4.254   2.768 -0.2967 -0.3487  2.8761
  865MOL0     H14179   7.234   4.074   3.077 -0.0920 -0.0506 -0.6613
  865MOL0     H14180   7.031   3.955   3.060 -0.3749  2.1730  0.3647
  866MOL0     O14181  10.220   3.442   7.779 -0.1338  0.5984  0.1977
  866MOL0     C14182  10.182   3.477   7.665  1.0473 -1.0547  0.0973
  866MOL0     O14183  10.258   3.544   7.576 -0.4977  0.5600  0.1510
  866MOL0     C14184  10.399   3.534   7.595 -0.3619 -0.5580 -0.3834
  866MOL0     C14185  10.473   3.420   7.636  0.0352  0.3736 -0.0546
  866MOL0     C14186  10.612   3.406   7.647  0.2379 -0.7160 -0.5397
  866MOL0     C14187  10.676   3.520   7.616 -0.0765  0.6161 -0.0056
  866MOL0     O14188  10.813   3.506   7.615 -0.3367  1.1879  0.5882
  866MOL0     C14189  10.882   3.574   7.719 -0.5470  1.1867 -0.1276
  866MOL0     C14190  11.006   3.621   7.650  0.0080 -0.2544  1.1405
  866MOL0     C14191  11.091   3.698   7.758 -0.0816  0.7073 -0.4099
  866MOL0     C14192  11.234   3.724   7.715  0.6880 -0.6010 -0.1423
  866MOL0     C14193  11.312   3.794   7.830 -0.1866 -0.5105  0.2464
  866MOL0     C14194  11.466   3.806   7.817  0.2399 -0.6469  0.6754
  866MOL0     C14195  11.534   3.887   7.932 -0.2647 -0.2376 -0.5284
  866MOL0     C14196  11.500   3.835   8.073  0.8796  0.2501  0.0305
  866MOL0     N14197  11.518   3.694   8.103 -0.1434 -0.0427  0.6393
  866MOL0     C14198  11.634   3.637   8.073  0.6070  0.2366  0.0970
  866MOL0     C14199  11.626   3.515   8.132  0.4222 -0.9448  0.4841
  866MOL0     C14200  11.724   3.400   8.125 -0.5769 -0.6331  1.5634
  866MOL0     C14201  11.846   3.452   8.197 -0.4777  0.5479 -0.9585
  866MOL0     C14202  11.978   3.360   8.174  0.7939 -0.6684  0.0576
  866MOL0     C14203  12.104   3.388   8.259 -0.2414  0.1688 -0.1593
  866MOL0     O14204  12.196   3.270   8.253 -0.1049 -0.3318 -0.0879
  866MOL0     C14205  12.323   3.283   8.303  0.8828  0.1542  0.0775
  866MOL0     C14206  12.419   3.203   8.248  0.5886  0.4798 -0.3666
  866MOL0     C14207  12.530   3.169   8.317  0.3181 -0.0857  0.4436
  866MOL0     C14208  12.568   3.228   8.440  0.1120 -0.0473  1.0026
  866MOL0     C14209  12.699   3.191   8.505 -0.0968  0.2724 -0.0039
  866MOL0     O14210  12.789   3.155   8.425 -0.2736  0.9443 -0.0632
  866MOL0     C14211  12.921   3.125   8.459 -0.1640  0.1177 -0.7690
  866MOL0     C14212  12.990   3.195   8.567  0.2583 -0.7166  0.4567
  866MOL0     C14213  13.129   3.179   8.572  0.5255 -0.2655 -0.4709
  866MOL0     C14214  13.199   3.092   8.493 -0.3113  0.2207 -0.3089
  866MOL0     O14215  13.334   3.079   8.513  0.2462 -0.1846 -0.3317
  866MOL0     C14216  13.418   3.026   8.414  0.4204 -1.3474 -0.5544
  866MOL0     C14217  13.563   3.039   8.462 -0.3285 -0.6948  0.0386
  866MOL0     C14218  13.663   2.989   8.359  0.5418 -0.4963  0.0616
  866MOL0     C14219  13.798   3.012   8.413  0.4212 -0.9070  0.0773
  866MOL0     C14220  13.910   2.976   8.314  0.2761  0.0828  0.8201
  866MOL0     C14221  13.906   2.829   8.280 -0.0214  0.3311  0.2031
  866MOL0     C14222  14.035   2.774   8.227 -0.2220  0.0808  0.1756
  866MOL0     C14223  14.085   2.856   8.115 -0.3284  0.1406  0.3451
  866MOL0    Cl14224  14.267   2.831   8.121 -0.2552 -0.0795  0.3807
  866MOL0     C14225  13.126   3.017   8.401 -0.0405  0.3996  0.5428
  866MOL0     C14226  12.989   3.039   8.380  0.2867  0.0259  0.2120
  866MOL0     O14227  12.709   3.212   8.627 -0.4531 -0.0897 -0.0571
  866MOL0     C14228  12.476   3.333   8.482  0.0434 -0.5360  0.1794
  866MOL0     C14229  12.353   3.356   8.423  0.5237  0.6843 -0.5727
  866MOL0     N14230  11.511   3.508   8.192  0.8415  0.5068 -1.0296
  866MOL0     N14231  11.444   3.615   8.176 -0.0388 -0.5290  0.0318
  866MOL0     C14232  10.624   3.638   7.576 -0.0901  0.5650 -0.5067
  866MOL0     C14233  10.483   3.643   7.563  0.7687  0.3232  0.1681
  866MOL0     C14234  10.041   3.451   7.619 -0.3106 -0.5905  0.2168
  866MOL0     C14235   9.989   3.507   7.505  0.3455  0.8416 -0.0142
  866MOL0     C14236   9.863   3.485   7.457 -0.4828 -0.2684  0.6289
  866MOL0     C14237   9.781   3.405   7.543  0.2519 -0.9030  1.1265
  866MOL0     O14238   9.655   3.372   7.502  0.3320 -0.0320  0.2338
  866MOL0     C14239   9.603   3.408   7.382 -0.1009  1.2182  0.4378
  866MOL0     C14240   9.488   3.321   7.338 -0.4013  0.1797  0.2399
  866MOL0     C14241   9.415   3.397   7.234  0.4375  0.7712  0.5226
  866MOL0     C14242   9.302   3.323   7.152  0.4403  0.7469 -1.0397
  866MOL0     C14243   9.195   3.400   7.087 -0.2307  0.0385  0.1272
  866MOL0     C14244   9.111   3.454   7.016  0.7257  0.4583  0.4368
  866MOL0     C14245   9.833   3.342   7.658 -0.3951 -0.2500  0.5667
  866MOL0     C14246   9.967   3.369   7.701 -0.4088  0.0365  0.0359
  866MOL0     H14247  10.420   3.325   7.640 -1.5604  1.2174 -0.1194
  866MOL0     H14248  10.666   3.316   7.674  1.1625  0.1595  0.6325
  866MOL0     H14249  10.909   3.505   7.799 -0.4264  1.2084 -0.1495
  866MOL0     H14250  10.824   3.658   7.757 -0.7272  0.6122  0.8952
  866MOL0     H14251  10.990   3.693   7.569 -2.6321 -0.8343  1.0742
  866MOL0     H14252  11.065   3.535   7.616  1.4948  0.1491  2.5822
  866MOL0     H14253  11.096   3.641   7.851  2.2209  1.1698 -0.1778
  866MOL0     H14254  11.042   3.794   7.771 -0.1422  0.4573  1.3703
  866MOL0     H14255  11.269   3.622   7.696  1.7356 -0.2315 -0.2788
  866MOL0     H14256  11.259   3.778   7.623 -1.2697  1.1046  0.2424
  866MOL0     H14257  11.277   3.735   7.915 -1.9553  1.3799  0.9056
  866MOL0     H14258  11.267   3.893   7.844 -0.9917 -0.6321 -1.2933
  866MOL0     H14259  11.481   3.863   7.725  1.7046  2.1317  2.4967
  866MOL0     H14260  11.510   3.706   7.807  2.5946  0.5184 -2.6372
  866MOL0     H14261  11.642   3.879   7.917  0.1420 -0.1489  2.0232
  866MOL0     H14262  11.514   3.994   7.925 -0.2907 -0.1874  0.2294
  866MOL0     H14263  11.399   3.870   8.099  1.3438  3.1725 -1.5756
  866MOL0     H14264  11.567   3.879   8.147 -0.2022 -0.4289  1.4585
  866MOL0     H14265  11.711   3.660   7.999  1.1555  3.8504  1.5648
  866MOL0     H14266  11.742   3.386   8.018  1.4776  1.0386  1.6211
  866MOL0     H14267  11.673   3.316   8.172 -2.0908  0.5942  2.2085
  866MOL0     H14268  11.824   3.459   8.304 -2.0276 -1.1347 -1.1169
  866MOL0     H14269  11.871   3.551   8.159  3.2805  0.6441  1.2470
  866MOL0     H14270  11.952   3.258   8.205  3.1839 -0.7486  2.1532
  866MOL0     H14271  12.011   3.362   8.070  1.1120 -0.5557  0.1595
  866MOL0     H14272  12.090   3.405   8.366  0.5879 -1.9204  0.3334
  866MOL0     H14273  12.149   3.481   8.222  1.7651  0.3704  2.4354
  866MOL0     H14274  12.401   3.146   8.158 -2.3578 -3.1093  2.1376
  866MOL0     H14275  12.604   3.102   8.275  2.5077  0.9310  2.4476
  866MOL0     H14276  12.942   3.280   8.613  3.2588  1.7018 -0.5360
  866MOL0     H14277  13.193   3.227   8.645  0.1317 -0.6047  0.1089
  866MOL0     H14278  13.394   3.094   8.333  0.9989  0.6748  0.9042
  866MOL0     H14279  13.399   2.919   8.395 -1.2099 -0.9913 -1.1380
  866MOL0     H14280  13.566   2.980   8.554  1.2937 -1.6711 -0.6118
  866MOL0     H14281  13.587   3.145   8.478  0.0290 -0.5747 -1.1743
  866MOL0     H14282  13.643   3.020   8.256  0.6919 -2.0084 -0.4378
  866MOL0     H14283  13.654   2.881   8.344  0.0847 -0.4865  0.2255
  866MOL0     H14284  13.810   3.121   8.420  1.1107 -0.9268 -0.7278
  866MOL0     H14285  13.820   2.962   8.508 -0.0516 -1.0130  0.1329
  866MOL0     H14286  14.007   3.003   8.359  1.3955  0.8152 -1.8361
  866MOL0     H14287  13.894   3.030   8.220 -2.8672 -3.9297 -1.2906
  866MOL0     H14288  13.832   2.806   8.203  0.0967  1.1816 -0.1797
  866MOL0     H14289  13.883   2.766   8.366  1.6946 -0.3350  0.2099
  866MOL0     H14290  14.104   2.769   8.312 -1.5518  4.4199  1.7492
  866MOL0     H14291  14.030   2.676   8.177  1.2754  1.7095 -3.5987
  866MOL0     H14292  14.060   2.962   8.123  1.2171  0.6007 -0.5818
  866MOL0     H14293  14.053   2.814   8.020 -0.2329 -1.1193  0.8460
  866MOL0     H14294  13.160   2.935   8.339  4.0692 -0.1451  3.0865
  866MOL0     H14295  12.940   2.985   8.299  0.0367 -0.9289  0.9799
  866MOL0     H14296  12.510   3.388   8.570  0.7333 -2.4454  1.1774
  866MOL0     H14297  12.280   3.425   8.465 -0.4025 -1.0334  0.7896
  866MOL0     H14298  10.680   3.729   7.554  2.4956  0.1235  3.3579
  866MOL0     H14299  10.430   3.726   7.517  2.4958  0.4595 -1.7133
  866MOL0     H14300  10.054   3.569   7.445 -1.1567 -1.7772 -4.8648
  866MOL0     H14301   9.834   3.529   7.362 -1.8567  3.0728  2.4261
  866MOL0     H14302   9.669   3.383   7.298 -0.9640  1.8944 -0.4739
  866MOL0     H14303   9.568   3.512   7.384 -2.7547  0.4940  4.8074
  866MOL0     H14304   9.522   3.226   7.296 -2.1438 -0.4177  0.0705
  866MOL0     H14305   9.425   3.311   7.427 -1.0265  3.2556  0.2419
  866MOL0     H14306   9.481   3.454   7.168  0.4971 -1.6675 -1.6400
  866MOL0     H14307   9.359   3.474   7.289 -1.0586  1.5211 -1.9297
  866MOL0     H14308   9.349   3.256   7.079  1.0556  0.2030 -0.1672
  866MOL0     H14309   9.253   3.259   7.225  2.3205  2.1767  1.6397
  866MOL0     H14310   9.024   3.494   6.968 -0.6158  0.1319  2.4742
  866MOL0     H14311   9.775   3.271   7.716 -0.9442 -2.7769 -2.7269
  866MOL0     H14312  10.012   3.331   7.792  0.2493  1.4838  0.3338
  867MOL0     O14313   2.377   8.504   9.822  0.0049 -0.6184 -0.0338
  867MOL0     C14314   2.381   8.599   9.741  0.0016  0.0104 -0.3712
  867MOL0     O14315   2.457   8.713   9.754 -0.4436  0.1550  0.2662
  867MOL0     C14316   2.552   8.701   9.857  0.5300  0.1459  0.4419
  867MOL0     C14317   2.653   8.598   9.848  0.2748 -0.1081  0.0656
  867MOL0     C14318   2.757   8.592   9.945  0.3360 -0.9404  0.1680
  867MOL0     C14319   2.761   8.701  10.043  0.2438 -0.4237  0.7443
  867MOL0     O14320   2.849   8.681  10.148  0.0498  0.4845 -0.4581
  867MOL0     C14321   2.934   8.782  10.188 -0.2630 -0.1671 -0.1935
  867MOL0     C14322   3.041   8.714  10.282  0.5138  0.1959  0.3959
  867MOL0     C14323   3.158   8.800  10.318 -0.1747 -0.4841 -1.0433
  867MOL0     C14324   3.255   8.807  10.195  0.3657 -0.0980 -0.2234
  867MOL0     C14325   3.370   8.907  10.222  0.1421  0.8774 -1.4643
  867MOL0     C14326   3.461   8.863  10.343 -0.3468 -0.0371 -0.3162
  867MOL0     C14327   3.547   8.746  10.308 -0.1821  1.1915 -0.4544
  867MOL0     C14328   3.647   8.770  10.192  0.5478 -0.5854 -0.2605
  867MOL0     N14329   3.769   8.688  10.211  0.6661 -0.1774  0.7934
  867MOL0     C14330   3.889   8.723  10.259 -0.1328 -0.1435  0.1438
  867MOL0     C14331   3.976   8.609  10.261  0.3399 -0.1589 -0.0633
  867MOL0     C14332   4.119   8.603  10.298  0.2950 -1.1447 -0.8007
  867MOL0     C14333   4.215   8.501  10.221 -0.6772 -0.0181 -0.2754
  867MOL0     C14334   4.360   8.544  10.255  0.0806  0.3173 -0.3671
  867MOL0     C14335   4.462   8.458  10.183 -0.3864 -0.7806  0.7095
  867MOL0     O14336   4.463   8.480  10.040  0.7026 -0.3029 -0.1087
  867MOL0     C14337   4.521   8.385   9.966  0.6368  0.1647  0.0024
  867MOL0     C14338   4.642   8.320   9.995 -0.2001 -0.1651  0.5973
  867MOL0     C14339   4.726   8.246   9.912  0.7575  0.3580  0.1655
  867MOL0     C14340   4.678   8.232   9.777  0.3340  0.4938  0.0991
  867MOL0     C14341   4.751   8.148   9.684  0.6426 -0.3790  0.2357
  867MOL0     O14342   4.694   8.135   9.550  1.2175 -0.5930 -0.1173
  867MOL0     C14343   4.709   8.032   9.464 -0.3555  1.0175  0.2807
  867MOL0     C14344   4.640   8.044   9.339 -0.1229 -0.8378  0.1719
  867MOL0     C14345   4.662   7.941   9.247 -0.4258 -0.5260 -0.3043
  867MOL0     C14346   4.748   7.830   9.274  0.1363 -0.1830  0.3687
  867MOL0     O14347   4.758   7.735   9.171 -0.1764 -0.5371  1.3620
  867MOL0     C14348   4.891   7.668   9.144 -0.7710 -0.2581 -0.0568
  867MOL0     C14349   4.997   7.774   9.103 -0.0772 -0.6749  1.3911
  867MOL0     C14350   4.961   7.841   8.967  0.8393  0.3551  0.7874
  867MOL0     C14351   5.066   7.947   8.941  0.1489  0.0772  0.1175
  867MOL0     C14352   5.043   8.018   8.804 -0.3045 -0.3238  0.3477
  867MOL0     C14353   5.173   8.049   8.713 -0.5464  0.0521 -0.2383
  867MOL0     C14354   5.131   8.143   8.598 -0.3810 -0.3173 -0.5847
  867MOL0     C14355   5.242   8.162   8.503  0.4922  0.3137  0.4069
  867MOL0    Cl14356   5.377   8.235   8.573 -0.2178 -0.5461  0.3330
  867MOL0     C14357   4.808   7.820   9.401  0.0204  0.0875 -0.5846
  867MOL0     C14358   4.793   7.919   9.491  0.1983 -0.3861  0.4764
  867MOL0     O14359   4.857   8.101   9.728  0.1282  0.2631  0.7331
  867MOL0     C14360   4.550   8.290   9.740 -0.3963  0.1566 -0.2414
  867MOL0     C14361   4.479   8.368   9.832  0.3878  0.4532 -0.1634
  867MOL0     N14362   3.892   8.511  10.204 -0.1617  0.4003  0.3063
  867MOL0     N14363   3.777   8.554  10.183  0.5108  0.4767 -0.1359
  867MOL0     C14364   2.663   8.799  10.044  0.0257 -0.0093 -0.6774
  867MOL0     C14365   2.553   8.793   9.960 -0.7916 -0.1468  0.0920
  867MOL0     C14366   2.278   8.595   9.634  0.3852 -0.9459  1.1184
  867MOL0     C14367   2.256   8.700   9.539 -0.5118 -0.3096  0.8365
  867MOL0     C14368   2.139   8.703   9.462  0.1619 -0.8158 -0.6374
  867MOL0     C14369   2.051   8.593   9.449 -0.3459  1.1282  0.0626
  867MOL0     O14370   1.943   8.592   9.362 -0.3330 -0.1027 -0.5941
  867MOL0     C14371   1.812   8.574   9.423  0.2463 -0.5520 -0.5881
  867MOL0     C14372   1.720   8.667   9.338  0.0205 -0.8401  0.5292
  867MOL0     C14373   1.677   8.605   9.202 -0.2043 -0.5780 -1.1611
  867MOL0     C14374   1.600   8.710   9.121 -0.9650 -0.6748 -0.1142
  867MOL0     C14375   1.530   8.639   9.016 -0.5658  0.3544  0.7478
  867MOL0     C14376   1.469   8.587   8.922  0.3709 -0.8587  0.5184
  867MOL0     C14377   2.084   8.477   9.526 -0.2964 -0.0631 -0.2632
  867MOL0     C14378   2.190   8.484   9.621  0.4643  0.0439  0.4087
  867MOL0     H14379   2.648   8.532   9.763 -1.3863 -2.0047  1.5323
  867MOL0     H14380   2.837   8.519   9.942  2.4491  1.2952 -0.9849
  867MOL0     H14381   2.882   8.855  10.250  0.0641  0.2537 -0.4117
  867MOL0     H14382   2.988   8.830  10.106 -1.2218 -1.4946 -1.6417
  867MOL0     H14383   3.083   8.617  10.253  0.5113 -0.1876  1.6145
  867MOL0     H14384   2.986   8.703  10.376  1.9144 -1.0374  1.1170
  867MOL0     H14385   3.205   8.776  10.414 -0.4179  0.9644 -0.5324
  867MOL0     H14386   3.111   8.894  10.349 -1.8800 -2.5857  3.6199
  867MOL0     H14387   3.292   8.708  10.165  0.2559 -0.3619  0.4770
  867MOL0     H14388   3.203   8.846  10.107  0.4144  1.4478  0.4044
  867MOL0     H14389   3.325   9.003  10.246 -1.6695 -0.0345 -1.0470
  867MOL0     H14390   3.423   8.914  10.126  1.7980 -0.5252 -0.7210
  867MOL0     H14391   3.398   8.846  10.430 -0.6973 -0.1496 -0.5923
  867MOL0     H14392   3.523   8.949  10.370 -1.0291  0.9738 -1.8314
  867MOL0     H14393   3.616   8.718  10.388  2.1769  0.0519 -2.7466
  867MOL0     H14394   3.489   8.654  10.298  2.8275 -0.8292 -0.6120
  867MOL0     H14395   3.664   8.878  10.184  0.5024 -0.7104 -4.4076
  867MOL0     H14396   3.582   8.740  10.109 -3.7841 -1.8746  3.2005
  867MOL0     H14397   3.918   8.818  10.304  0.4147 -1.3381  2.5141
  867MOL0     H14398   4.125   8.569  10.402  1.0681 -0.2418 -0.5375
  867MOL0     H14399   4.160   8.704  10.284  0.0091 -0.7388  1.0193
  867MOL0     H14400   4.208   8.500  10.112 -0.5699 -2.4384 -0.3187
  867MOL0     H14401   4.194   8.398  10.252 -0.6374 -0.0258 -0.2724
  867MOL0     H14402   4.374   8.650  10.231  0.9400  0.5889  1.2397
  867MOL0     H14403   4.393   8.534  10.358 -1.5078  0.8014  0.2170
  867MOL0     H14404   4.461   8.349  10.195  5.3642 -1.2466  0.0116
  867MOL0     H14405   4.553   8.488  10.235 -0.8744  0.6678  0.7839
  867MOL0     H14406   4.671   8.322  10.099 -2.4470  1.5585  1.2596
  867MOL0     H14407   4.812   8.207   9.966  0.4644  0.4827  0.7316
  867MOL0     H14408   4.571   8.126   9.324  1.3866  0.1629 -1.9074
  867MOL0     H14409   4.607   7.924   9.154 -0.8664  1.6212 -0.4938
  867MOL0     H14410   4.886   7.592   9.065 -0.8192  1.0529 -1.3624
  867MOL0     H14411   4.923   7.611   9.231  0.1782 -0.5645 -0.5912
  867MOL0     H14412   5.092   7.723   9.086 -0.0425  0.5438 -3.5779
  867MOL0     H14413   5.001   7.841   9.189 -2.5092  0.1652  0.9364
  867MOL0     H14414   4.859   7.881   8.972  1.6098  2.3186  2.7822
  867MOL0     H14415   4.971   7.762   8.893  4.8624  1.6150 -0.2516
  867MOL0     H14416   5.062   8.034   9.007 -1.8948  2.4359 -2.8150
  867MOL0     H14417   5.162   7.896   8.942 -0.2237 -0.6546  1.4247
  867MOL0     H14418   4.987   8.108   8.831  0.9260 -0.2508  3.0046
  867MOL0     H14419   4.981   7.954   8.741 -1.7690 -0.5995  1.9739
  867MOL0     H14420   5.206   7.949   8.680  0.2148  0.2100  0.0088
  867MOL0     H14421   5.252   8.100   8.769 -1.1556  2.5548 -1.5512
  867MOL0     H14422   5.051   8.093   8.542 -0.3005 -1.2863  0.1416
  867MOL0     H14423   5.097   8.237   8.642 -0.6142 -1.9418  3.0485
  867MOL0     H14424   5.215   8.207   8.407 -0.0515 -2.4812 -0.8352
  867MOL0     H14425   5.271   8.060   8.479 -1.1893  0.3570 -2.1157
  867MOL0     H14426   4.870   7.734   9.425  1.0704  1.0178  0.1340
  867MOL0     H14427   4.840   7.924   9.589 -0.2674 -0.6096  0.7143
  867MOL0     H14428   4.512   8.281   9.638 -0.6059 -1.8905 -0.0196
  867MOL0     H14429   4.390   8.417   9.795 -1.2728 -0.1384  2.7555
  867MOL0     H14430   2.672   8.883  10.111  0.7651 -0.8715  0.3432
  867MOL0     H14431   2.472   8.862   9.980  0.8347  1.4673  1.5511
  867MOL0     H14432   2.331   8.779   9.542  0.0523 -0.7366 -0.9197
  867MOL0     H14433   2.112   8.803   9.428 -1.5935 -0.5349  1.3966
  867MOL0     H14434   1.806   8.593   9.530  0.9185 -0.2255 -0.6015
  867MOL0     H14435   1.780   8.470   9.413 -1.7441  0.0302 -0.7542
  867MOL0     H14436   1.625   8.689   9.387  0.6090  0.0100  1.3103
  867MOL0     H14437   1.776   8.752   9.300 -2.4716  1.0608  0.8491
  867MOL0     H14438   1.619   8.513   9.212  1.2837 -1.3702  1.0361
  867MOL0     H14439   1.769   8.577   9.151 -0.0908 -2.7419  0.1100
  867MOL0     H14440   1.532   8.775   9.177 -3.1879 -1.6162 -1.5705
  867MOL0     H14441   1.677   8.768   9.069 -0.5685 -1.5554 -0.5364
  867MOL0     H14442   1.407   8.549   8.844  2.3349  1.6583 -2.5147
  867MOL0     H14443   2.020   8.390   9.517  2.7258 -2.6892  1.7791
  867MOL0     H14444   2.198   8.390   9.675  1.6543 -0.2298 -0.2016
  868MOL0     O14445   7.102   2.546   7.007  0.4728 -0.0379 -0.8063
  868MOL0     C14446   7.111   2.656   6.945  1.1922  0.0671 -0.6050
  868MOL0     O14447   7.195   2.684   6.842  0.3328 -0.0775  0.3673
  868MOL0     C14448   7.303   2.599   6.833 -0.5203  0.1653  0.0115
  868MOL0     C14449   7.393   2.578   6.939 -0.4728 -0.5740 -0.1710
  868MOL0     C14450   7.499   2.487   6.921 -1.7639  0.3124 -1.4065
  868MOL0     C14451   7.514   2.411   6.805 -0.3210 -0.5186  0.5629
  868MOL0     O14452   7.613   2.323   6.794 -0.5790  0.0845 -0.1876
  868MOL0     C14453   7.734   2.343   6.877  0.7045  0.0827  0.3694
  868MOL0     C14454   7.850   2.254   6.842 -0.4970 -0.2070 -0.5664
  868MOL0     C14455   7.907   2.291   6.702  0.2858  0.5434 -0.3822
  868MOL0     C14456   8.001   2.175   6.658  0.3893  0.6558  0.3413
  868MOL0     C14457   8.060   2.210   6.516  0.4792  0.7208  0.8433
  868MOL0     C14458   8.135   2.093   6.451  0.2170 -0.2616  0.0280
  868MOL0     C14459   8.202   2.138   6.319 -0.5513  0.0605 -0.1012
  868MOL0     C14460   8.310   2.020   6.292 -0.1550  0.2684  0.5208
  868MOL0     N14461   8.238   1.896   6.244  0.5519 -0.4793  0.0459
  868MOL0     C14462   8.205   1.875   6.115  0.1558 -0.0442  0.2937
  868MOL0     C14463   8.152   1.748   6.107  0.2012  0.4276  0.9225
  868MOL0     C14464   8.101   1.671   5.979  0.7768 -0.2836 -0.8803
  868MOL0     C14465   8.093   1.517   6.006 -0.2987  0.6432  0.3819
  868MOL0     C14466   7.987   1.468   6.088  0.5486  0.0407  0.4854
  868MOL0     C14467   7.937   1.334   6.041  0.7602  0.2930 -0.4110
  868MOL0     O14468   7.835   1.269   6.129  0.2475  0.3528 -0.1579
  868MOL0     C14469   7.699   1.293   6.092 -0.7380  1.5753  0.8280
  868MOL0     C14470   7.655   1.285   5.963 -0.3643  0.1937  0.3113
  868MOL0     C14471   7.514   1.296   5.938  0.5780  0.6750  0.2011
  868MOL0     C14472   7.419   1.299   6.041 -0.3129 -0.0077 -0.0255
  868MOL0     C14473   7.273   1.302   6.006 -0.3956  1.0740  0.2526
  868MOL0     O14474   7.244   1.279   5.866 -0.2694 -0.7747  0.1703
  868MOL0     C14475   7.113   1.273   5.829 -0.3075  0.3849  0.6229
  868MOL0     C14476   7.032   1.386   5.793  0.0546 -1.4229  0.0515
  868MOL0     C14477   6.899   1.371   5.754 -0.3479  0.4876 -0.5247
  868MOL0     C14478   6.849   1.242   5.743  0.4911  0.5461 -0.1360
  868MOL0     O14479   6.740   1.208   5.677 -0.0073  0.1048 -0.0124
  868MOL0     C14480   6.643   1.297   5.625 -0.0619 -0.2056  0.7236
  868MOL0     C14481   6.514   1.232   5.583 -0.0493  1.1090 -0.0968
  868MOL0     C14482   6.412   1.341   5.546  0.1237  0.2459 -0.4276
  868MOL0     C14483   6.432   1.412   5.408  1.0124  0.5714 -1.1101
  868MOL0     C14484   6.313   1.509   5.364  0.0202 -1.3387 -0.1031
  868MOL0     C14485   6.181   1.448   5.368 -0.3779 -0.9909  0.2123
  868MOL0     C14486   6.080   1.541   5.307 -0.9597  0.6658  0.1959
  868MOL0     C14487   6.088   1.552   5.162  0.0092 -0.1958  0.5429
  868MOL0    Cl14488   6.020   1.402   5.100  0.4202  0.5291  0.3100
  868MOL0     C14489   6.928   1.127   5.764 -0.4104  0.8484  0.0160
  868MOL0     C14490   7.060   1.140   5.821 -0.0360 -0.0874 -0.1448
  868MOL0     O14491   7.190   1.311   6.094  0.4244  0.4027 -0.9623
  868MOL0     C14492   7.466   1.298   6.175  0.7043 -0.3637 -0.5559
  868MOL0     C14493   7.607   1.295   6.195  1.1932 -0.3074 -0.1076
  868MOL0     N14494   8.150   1.702   6.237  0.1599  0.2132 -0.2255
  868MOL0     N14495   8.199   1.795   6.318 -0.3572 -0.2636 -0.5275
  868MOL0     C14496   7.431   2.442   6.699 -0.9471  0.7905  0.6044
  868MOL0     C14497   7.334   2.539   6.707  0.3054  1.0286  0.3309
  868MOL0     C14498   7.027   2.768   6.999  0.3107 -0.2583 -0.6731
  868MOL0     C14499   7.043   2.903   6.954 -1.1470  0.1652 -0.0432
  868MOL0     C14500   6.958   3.005   6.992  0.2062  0.0217 -0.3441
  868MOL0     C14501   6.840   2.982   7.065 -0.0330 -0.2121 -0.5364
  868MOL0     O14502   6.757   3.093   7.085  0.3854  0.0183 -0.4415
  868MOL0     C14503   6.622   3.059   7.140 -0.2524  0.3513  1.6371
  868MOL0     C14504   6.610   3.044   7.290  0.3056 -0.9096 -0.3263
  868MOL0     C14505   6.460   3.046   7.327 -0.4958 -0.6060 -0.6330
  868MOL0     C14506   6.438   3.019   7.473 -0.0886 -0.6810 -0.3739
  868MOL0     C14507   6.308   2.972   7.516  0.1738 -0.2568 -0.4037
  868MOL0     C14508   6.189   2.958   7.561 -0.1931 -0.3331 -0.8348
  868MOL0     C14509   6.814   2.848   7.098  0.3531 -0.2384  0.3474
  868MOL0     C14510   6.911   2.750   7.078  0.0870 -0.5019  0.3846
  868MOL0     H14511   7.382   2.621   7.038  0.5716 -2.8487  0.9976
  868MOL0     H14512   7.570   2.494   7.002 -2.5314 -0.8446 -0.5961
  868MOL0     H14513   7.713   2.309   6.979 -2.1455 -2.3653 -0.8842
  868MOL0     H14514   7.769   2.446   6.868 -0.7100  0.4908 -0.8710
  868MOL0     H14515   7.809   2.154   6.860  2.4443 -1.2898  0.7421
  868MOL0     H14516   7.933   2.258   6.912 -1.1768 -0.1266  0.2484
  868MOL0     H14517   7.976   2.375   6.715 -0.4099  0.7029  4.4509
  868MOL0     H14518   7.832   2.289   6.623 -0.3683 -3.0364  0.1437
  868MOL0     H14519   8.089   2.158   6.721  0.5668  2.8015  0.7322
  868MOL0     H14520   7.950   2.079   6.648  0.0756  1.0672 -2.8753
  868MOL0     H14521   8.139   2.286   6.517  0.0127  1.2101  1.9601
  868MOL0     H14522   7.976   2.244   6.455  0.4620 -4.8382 -2.9863
  868MOL0     H14523   8.063   2.014   6.428 -0.8768  0.8998 -0.6933
  868MOL0     H14524   8.201   2.050   6.526 -1.5345  2.7242  3.6611
  868MOL0     H14525   8.126   2.148   6.242 -2.4225 -1.7072  1.4045
  868MOL0     H14526   8.253   2.234   6.333 -0.8778  0.1499  0.5444
  868MOL0     H14527   8.363   1.999   6.385  0.9955  5.6579  1.4136
  868MOL0     H14528   8.392   2.052   6.226 -1.9884  0.2322 -1.9166
  868MOL0     H14529   8.241   1.944   6.039  3.7884 -1.4254  0.5461
  868MOL0     H14530   8.153   1.683   5.884  0.0999 -1.6294 -1.4530
  868MOL0     H14531   7.998   1.701   5.959 -0.3070 -1.6237  2.0673
  868MOL0     H14532   8.190   1.503   6.054  1.7145  2.4688 -2.8388
  868MOL0     H14533   8.095   1.458   5.913 -1.0703  1.0153  0.1159
  868MOL0     H14534   8.022   1.451   6.190 -0.2943 -0.1329  0.7557
  868MOL0     H14535   7.902   1.537   6.088  0.0312 -0.5808 -0.4597
  868MOL0     H14536   8.009   1.253   6.027  0.2185 -0.2797  0.0530
  868MOL0     H14537   7.895   1.349   5.941 -3.5435  0.8056  1.2142
  868MOL0     H14538   7.723   1.262   5.882 -1.2989  1.6022 -0.9402
  868MOL0     H14539   7.478   1.307   5.836  1.4915  1.0302 -0.0952
  868MOL0     H14540   7.069   1.487   5.778 -3.0344 -0.3483 -1.0878
  868MOL0     H14541   6.840   1.456   5.722 -3.8012 -1.7215 -0.4899
  868MOL0     H14542   6.692   1.359   5.551 -1.3148  1.8939  1.5649
  868MOL0     H14543   6.608   1.373   5.696 -5.4889 -0.3921 -1.2707
  868MOL0     H14544   6.478   1.177   5.671  0.0240 -0.6341 -1.1183
  868MOL0     H14545   6.532   1.173   5.493 -2.7236  1.2510 -0.7998
  868MOL0     H14546   6.407   1.420   5.622 -2.4644 -0.1995 -0.0496
  868MOL0     H14547   6.312   1.296   5.547  0.5672 -0.7953 -1.3224
  868MOL0     H14548   6.525   1.469   5.410  2.5363 -1.8286 -0.0917
  868MOL0     H14549   6.446   1.340   5.327  1.0271 -0.2279 -0.3964
  868MOL0     H14550   6.342   1.551   5.267  1.6489  5.6128  2.7975
  868MOL0     H14551   6.318   1.602   5.421 -0.4672 -1.4291  0.0913
  868MOL0     H14552   6.152   1.423   5.470 -1.1458 -0.9053  0.0158
  868MOL0     H14553   6.173   1.355   5.310 -2.8820 -0.0336 -1.1187
  868MOL0     H14554   5.980   1.533   5.352 -1.2755  3.4907  0.1764
  868MOL0     H14555   6.114   1.634   5.354  2.1282 -1.3148  2.2740
  868MOL0     H14556   6.188   1.571   5.122 -0.3023  0.9744  0.2682
  868MOL0     H14557   6.035   1.642   5.128  0.3129 -0.5253 -0.8449
  868MOL0     H14558   6.891   1.031   5.731 -1.3372  1.3399 -0.4167
  868MOL0     H14559   7.113   1.047   5.839 -1.9211 -1.3340 -0.7723
  868MOL0     H14560   7.405   1.302   6.265 -3.3678  0.3476 -3.0826
  868MOL0     H14561   7.646   1.286   6.296  2.4030 -1.0180 -0.6119
  868MOL0     H14562   7.451   2.393   6.604  0.1697 -2.4170  2.3426
  868MOL0     H14563   7.285   2.558   6.612  3.3668  1.8508 -1.1873
  868MOL0     H14564   7.125   2.921   6.885 -0.4607 -0.0097  0.7273
  868MOL0     H14565   6.967   3.098   6.938 -1.8488 -0.1692 -1.1373
  868MOL0     H14566   6.580   2.973   7.087  1.2697  1.3312 -1.4276
  868MOL0     H14567   6.581   3.151   7.097  0.2763  0.6147  1.6793
  868MOL0     H14568   6.656   2.956   7.336 -2.6697 -1.5754  1.6710
  868MOL0     H14569   6.663   3.133   7.325  0.8128 -0.8758 -1.1579
  868MOL0     H14570   6.408   2.977   7.259 -0.2785 -1.5916  0.1715
  868MOL0     H14571   6.407   3.137   7.301 -0.2560 -0.4406 -0.5497
  868MOL0     H14572   6.505   2.935   7.494  1.0842  0.5254  0.9945
  868MOL0     H14573   6.469   3.108   7.529  0.8589 -1.2799  0.0787
  868MOL0     H14574   6.087   2.948   7.591 -0.4431 -1.3423 -1.9545
  868MOL0     H14575   6.728   2.813   7.154 -1.6711  0.5655 -2.0679
  868MOL0     H14576   6.910   2.648   7.115  2.4751  0.6065  4.1345
  869MOL0     O14577   3.202   9.836  11.017  0.7277  0.0190  0.6207
  869MOL0     C14578   3.320   9.876  10.995 -0.0730 -0.4920  0.4499
  869MOL0     O14579   3.394   9.943  11.078 -0.5945 -0.2988 -0.2394
  869MOL0     C14580   3.347   9.991  11.195  0.9839 -0.6921  0.4525
  869MOL0     C14581   3.359   9.919  11.312 -0.3064  0.2914 -0.7599
  869MOL0     C14582   3.289   9.960  11.427 -0.2916  0.2489 -0.3844
  869MOL0     C14583   3.227  10.087  11.431 -0.5653 -0.0920  0.1099
  869MOL0     O14584   3.164  10.119  11.546  0.3228  0.1409 -0.1370
  869MOL0     C14585   3.167  10.255  11.581  0.2584 -0.1278  0.1155
  869MOL0     C14586   3.132  10.276  11.722 -0.3529  0.1542  0.5032
  869MOL0     C14587   3.140  10.421  11.759 -0.3518 -0.5458  0.2900
  869MOL0     C14588   3.152  10.436  11.916  0.3442  0.9858 -0.4554
  869MOL0     C14589   3.131  10.575  11.967 -0.1282 -0.6712  0.2009
  869MOL0     C14590   3.231  10.690  11.921  1.3154 -1.2627 -0.1084
  869MOL0     C14591   3.381  10.660  11.964  0.0206  0.9162  0.6688
  869MOL0     C14592   3.481  10.780  11.952 -0.1492 -0.1168  0.2548
  869MOL0     N14593   3.469  10.862  11.832  0.5927  0.2177  0.1442
  869MOL0     C14594   3.517  10.833  11.707  0.1507 -0.6032 -0.1707
  869MOL0     C14595   3.493  10.942  11.632  0.2125 -0.4112 -0.7261
  869MOL0     C14596   3.570  10.978  11.509 -0.3787 -0.8877 -0.5152
  869MOL0     C14597   3.705  11.060  11.541 -0.1924 -1.2855 -0.0152
  869MOL0     C14598   3.816  11.027  11.434  1.1258 -1.1488 -0.5550
  869MOL0     C14599   3.933  11.123  11.441  0.9142  0.8450 -0.1568
  869MOL0     O14600   3.988  11.130  11.571 -0.2540  0.0535 -1.1330
  869MOL0     C14601   4.094  11.212  11.599  0.4529  0.6826  0.3354
  869MOL0     C14602   4.190  11.178  11.699  0.3434 -0.1264 -0.1150
  869MOL0     C14603   4.292  11.273  11.731 -0.2679 -0.1274 -0.0469
  869MOL0     C14604   4.310  11.389  11.667  0.4588 -0.4637 -0.3776
  869MOL0     C14605   4.424  11.488  11.697  0.3321  0.2261 -0.0776
  869MOL0     O14606   4.528  11.431  11.761  0.9940  0.2213  0.0345
  869MOL0     C14607   4.639  11.511  11.770  0.7142  0.8317 -0.1515
  869MOL0     C14608   4.722  11.555  11.662 -0.3432  0.6041  0.6296
  869MOL0     C14609   4.839  11.620  11.682 -0.4730  0.5418  1.8163
  869MOL0     C14610   4.887  11.644  11.807  0.2937  0.4334 -0.3184
  869MOL0     O14611   5.001  11.722  11.817 -0.3570 -0.2305 -0.3418
  869MOL0     C14612   5.032  11.774  11.945 -0.0618  0.1394  0.3553
  869MOL0     C14613   5.136  11.881  11.945  0.3626 -0.3305 -0.9171
  869MOL0     C14614   5.166  11.937  12.087  0.1890 -0.7167  0.5548
  869MOL0     C14615   5.304  12.000  12.081 -0.1541  0.1924 -0.5342
  869MOL0     C14616   5.359  12.043  12.215  0.0682  0.3035 -0.1832
  869MOL0     C14617   5.517  12.051  12.209 -0.0198 -0.5630 -0.1152
  869MOL0     C14618   5.581  12.094  12.343  0.6299  0.0195  0.3953
  869MOL0     C14619   5.733  12.065  12.334  0.6672 -1.2732  0.1581
  869MOL0    Cl14620   5.772  11.893  12.295 -0.2822 -0.4537  0.1987
  869MOL0     C14621   4.817  11.583  11.922 -0.5864 -1.2533  0.3078
  869MOL0     C14622   4.689  11.524  11.902 -1.1063  0.1743 -0.1038
  869MOL0     O14623   4.412  11.605  11.662  0.2846  0.7485  0.0362
  869MOL0     C14624   4.217  11.425  11.572  0.1817 -0.1333  0.4668
  869MOL0     C14625   4.113  11.334  11.532  0.1210 -0.6181  0.1053
  869MOL0     N14626   3.411  11.033  11.702 -0.6295 -0.3794 -0.6255
  869MOL0     N14627   3.401  10.978  11.825  0.3248  1.5528  0.0350
  869MOL0     C14628   3.209  10.156  11.310  0.3258  0.1233  0.6682
  869MOL0     C14629   3.263  10.100  11.193  0.4733  0.3361  0.4732
  869MOL0     C14630   3.383   9.842  10.859  0.5617 -0.2237 -0.1592
  869MOL0     C14631   3.530   9.822  10.855  0.4783 -0.8028 -0.2536
  869MOL0     C14632   3.578   9.776  10.733  0.4880 -0.4140  0.2639
  869MOL0     C14633   3.494   9.765  10.614  0.7503  0.4510  0.9847
  869MOL0     O14634   3.547   9.723  10.485  0.2188  0.1889 -0.4187
  869MOL0     C14635   3.470   9.728  10.365 -0.4184  0.0727 -0.4548
  869MOL0     C14636   3.380   9.604  10.343 -0.3006 -0.3164  0.3920
  869MOL0     C14637   3.464   9.471  10.328 -0.3811  0.1497 -0.1428
  869MOL0     C14638   3.372   9.360  10.280 -0.0928 -0.0025 -0.8760
  869MOL0     C14639   3.282   9.313  10.391  0.1499 -0.5998  0.1008
  869MOL0     C14640   3.197   9.287  10.463  1.0965  0.5067 -0.8169
  869MOL0     C14641   3.360   9.789  10.626  1.1123 -1.0044  0.1617
  869MOL0     C14642   3.302   9.830  10.746 -0.9976  0.5958  0.2684
  869MOL0     H14643   3.422   9.830  11.313 -2.1433 -1.0905 -1.3307
  869MOL0     H14644   3.296   9.906  11.520 -0.4465 -0.3097 -0.6917
  869MOL0     H14645   3.100  10.314  11.518  2.3153  1.0046 -1.1310
  869MOL0     H14646   3.258  10.312  11.561 -0.8152  3.0114  3.1872
  869MOL0     H14647   3.208  10.221  11.780 -1.4641 -0.5598  1.3287
  869MOL0     H14648   3.032  10.242  11.752 -0.2887  1.4701  2.3822
  869MOL0     H14649   3.052  10.470  11.718  1.0341  3.0632  1.1794
  869MOL0     H14650   3.227  10.466  11.711 -1.5706  0.4554 -1.0648
  869MOL0     H14651   3.083  10.365  11.963  1.4236 -0.1097 -0.4781
  869MOL0     H14652   3.253  10.404  11.941  0.2593 -1.2995 -2.7121
  869MOL0     H14653   3.135  10.558  12.075 -0.2644  1.0830  0.5217
  869MOL0     H14654   3.028  10.610  11.953 -0.6087 -0.6969  3.0003
  869MOL0     H14655   3.197  10.787  11.959 -2.6162 -0.9918 -3.5125
  869MOL0     H14656   3.215  10.700  11.813  0.7259 -2.8873 -0.1929
  869MOL0     H14657   3.381  10.625  12.067 -1.2094 -0.3028  0.2768
  869MOL0     H14658   3.416  10.576  11.902  0.0545  0.6000  1.1165
  869MOL0     H14659   3.582  10.739  11.945  1.2923  3.0582  0.9071
  869MOL0     H14660   3.475  10.840  12.043 -0.4013 -0.6891  0.6271
  869MOL0     H14661   3.585  10.750  11.691  2.0664  0.8098  0.2595
  869MOL0     H14662   3.496  11.030  11.448 -1.1038 -1.9775 -0.5808
  869MOL0     H14663   3.603  10.890  11.454 -0.8468 -0.1725 -1.9875
  869MOL0     H14664   3.745  11.035  11.639  2.3420  2.6818  0.1405
  869MOL0     H14665   3.687  11.168  11.540 -0.1458 -1.2777 -0.2257
  869MOL0     H14666   3.855  10.927  11.455 -1.8446 -3.1665 -3.5961
  869MOL0     H14667   3.774  11.034  11.333  0.7657  3.9370 -0.3031
  869MOL0     H14668   3.889  11.217  11.406  2.4376  0.5387 -3.3548
  869MOL0     H14669   4.012  11.096  11.369  3.7458  3.6625  1.6057
  869MOL0     H14670   4.187  11.086  11.757 -1.8004  0.7816  1.3410
  869MOL0     H14671   4.371  11.244  11.800  1.7851 -0.5465 -2.4228
  869MOL0     H14672   4.689  11.537  11.560  1.2580 -1.8257  0.4443
  869MOL0     H14673   4.901  11.645  11.596 -1.0597 -0.5818  1.0463
  869MOL0     H14674   5.078  11.685  11.989 -0.3895 -0.1414  0.1424
  869MOL0     H14675   4.940  11.792  12.002  0.0456 -0.1801  0.6311
  869MOL0     H14676   5.104  11.968  11.886 -0.3746  1.8418  2.4374
  869MOL0     H14677   5.226  11.832  11.907  1.5158  1.8291 -1.1225
  869MOL0     H14678   5.155  11.858  12.162 -1.5631 -0.3541  0.7207
  869MOL0     H14679   5.085  12.009  12.097  2.0125  1.7964 -1.4515
  869MOL0     H14680   5.379  11.926  12.053  1.6867  1.5317  0.6117
  869MOL0     H14681   5.299  12.089  12.018 -0.8315  0.9663  0.5615
  869MOL0     H14682   5.327  11.981  12.300  3.4258 -1.6971 -0.1911
  869MOL0     H14683   5.307  12.138  12.229  0.2573  0.4657 -0.5794
  869MOL0     H14684   5.558  12.116  12.131  3.0009  0.9711  2.5476
  869MOL0     H14685   5.545  11.948  12.185  0.8285 -0.0862 -1.3171
  869MOL0     H14686   5.563  12.197  12.373  1.7475  1.2634 -2.7853
  869MOL0     H14687   5.539  12.026  12.418 -1.4218  0.0104 -0.7130
  869MOL0     H14688   5.769  12.077  12.436  0.6285 -1.5616  0.2061
  869MOL0     H14689   5.774  12.136  12.261 -0.9749  0.0995  0.5071
  869MOL0     H14690   4.858  11.583  12.022  1.6654  0.3048 -0.5248
  869MOL0     H14691   4.648  11.475  11.989  1.8415 -0.6502  0.9268
  869MOL0     H14692   4.223  11.521  11.522 -1.2742 -0.0879  0.3539
  869MOL0     H14693   4.064  11.369  11.442  0.7252  1.9109  0.6928
  869MOL0     H14694   3.168  10.257  11.310  0.0829  0.0268  0.9752
  869MOL0     H14695   3.249  10.147  11.097  1.3213 -2.5143 -1.1620
  869MOL0     H14696   3.588   9.830  10.947 -1.6164  0.1384  1.0731
  869MOL0     H14697   3.684   9.777  10.709  0.0153 -0.6989 -2.1895
  869MOL0     H14698   3.544   9.723  10.284 -1.2135 -0.8816 -1.1638
  869MOL0     H14699   3.415   9.822  10.359  1.1544  0.9887 -1.3793
  869MOL0     H14700   3.327   9.591  10.437  0.9656  2.6408  1.6647
  869MOL0     H14701   3.316   9.632  10.259  0.4372  2.1507  0.5726
  869MOL0     H14702   3.519   9.449  10.420 -1.3706 -0.9513  0.2080
  869MOL0     H14703   3.538   9.480  10.248 -1.7843 -0.0588 -1.5078
  869MOL0     H14704   3.305   9.397  10.202  0.0226  0.6702 -0.6558
  869MOL0     H14705   3.432   9.285  10.227 -1.0095 -0.0021 -1.9654
  869MOL0     H14706   3.120   9.282  10.538 -0.3947  4.4973 -1.8129
  869MOL0     H14707   3.291   9.774  10.543  0.4057  0.2913  0.4778
  869MOL0     H14708   3.196   9.854  10.745 -1.1800  0.1366  2.8380
  870MOL0     O14709   2.760   4.728   7.726  0.0493  0.7241  0.1462
  870MOL0     C14710   2.817   4.734   7.620  0.3140  0.5019 -0.0127
  870MOL0     O14711   2.762   4.695   7.504 -0.4658  0.6253 -0.2204
  870MOL0     C14712   2.624   4.678   7.487  0.2574 -0.4622  0.3614
  870MOL0     C14713   2.585   4.615   7.368  0.7577  0.3145  0.2933
  870MOL0     C14714   2.449   4.592   7.334 -0.9841 -0.2300  0.4930
  870MOL0     C14715   2.346   4.649   7.410 -0.0545 -0.2922  0.5875
  870MOL0     O14716   2.209   4.632   7.371 -0.2451  0.2108  0.1531
  870MOL0     C14717   2.168   4.613   7.237  0.0949 -0.5569 -0.2341
  870MOL0     C14718   2.016   4.634   7.225  0.5680  0.1371  0.0263
  870MOL0     C14719   1.949   4.520   7.284 -0.2715  0.7284  0.0556
  870MOL0     C14720   1.801   4.529   7.272  0.6492 -0.3990  0.2141
  870MOL0     C14721   1.727   4.394   7.307 -0.1077  0.4644 -1.2586
  870MOL0     C14722   1.573   4.397   7.329  0.8052  0.5889  0.0788
  870MOL0     C14723   1.507   4.258   7.351 -0.3077  0.0856 -0.0399
  870MOL0     C14724   1.351   4.265   7.328 -0.1229 -0.0303 -0.1446
  870MOL0     N14725   1.290   4.148   7.379 -0.0761  0.2987  0.1484
  870MOL0     C14726   1.307   4.026   7.325 -1.7018 -0.4399  0.3492
  870MOL0     C14727   1.224   3.941   7.382  0.1593 -0.0199  0.5487
  870MOL0     C14728   1.227   3.797   7.344  0.0768  0.4297 -0.5633
  870MOL0     C14729   1.289   3.702   7.447  0.9916  0.0222 -0.4781
  870MOL0     C14730   1.442   3.674   7.419 -0.0139  0.6501 -0.5324
  870MOL0     C14731   1.518   3.799   7.471  0.8650 -0.2902 -0.8480
  870MOL0     O14732   1.651   3.775   7.514  0.3670 -0.1235  0.2942
  870MOL0     C14733   1.738   3.750   7.414 -0.5895  0.4033  0.2552
  870MOL0     C14734   1.766   3.617   7.374  0.0108  0.4386 -0.7942
  870MOL0     C14735   1.856   3.584   7.272 -0.6592 -0.6122  0.2229
  870MOL0     C14736   1.909   3.696   7.200 -0.3467  0.8097  0.4525
  870MOL0     C14737   2.010   3.670   7.091 -0.6204  1.0185  0.5973
  870MOL0     O14738   2.062   3.779   7.029 -0.1620  0.2295  0.0167
  870MOL0     C14739   2.166   3.755   6.937  0.4135  0.6556  0.2714
  870MOL0     C14740   2.159   3.827   6.821  0.5668 -0.4257 -0.1779
  870MOL0     C14741   2.260   3.818   6.727 -0.2893  0.0872  0.0256
  870MOL0     C14742   2.375   3.735   6.750  0.5612  0.3483 -0.5393
  870MOL0     O14743   2.481   3.725   6.660 -0.4752  0.3869 -0.7477
  870MOL0     C14744   2.441   3.682   6.529 -0.1493  1.1676  0.2370
  870MOL0     C14745   2.533   3.569   6.466  0.0761 -0.4025 -0.6003
  870MOL0     C14746   2.581   3.470   6.568  0.3241  0.3798 -0.3677
  870MOL0     C14747   2.464   3.390   6.634 -0.0594  0.0346  0.9550
  870MOL0     C14748   2.504   3.288   6.741 -1.0002  0.2439  0.6213
  870MOL0     C14749   2.594   3.176   6.687  1.1200 -0.4928 -0.8430
  870MOL0     C14750   2.558   3.050   6.774 -0.0551 -0.4374  0.2737
  870MOL0     C14751   2.657   2.933   6.754  0.2849 -0.3051 -0.0612
  870MOL0    Cl14752   2.571   2.785   6.698 -0.1098  0.3270 -0.1428
  870MOL0     C14753   2.369   3.651   6.862 -1.4011  0.6866 -0.5768
  870MOL0     C14754   2.270   3.662   6.960  0.5155  0.1370 -0.2116
  870MOL0     O14755   2.028   3.552   7.050  0.7965  0.0637  0.8402
  870MOL0     C14756   1.890   3.831   7.238 -0.1583  0.8437 -0.1764
  870MOL0     C14757   1.808   3.858   7.351  0.4151  1.1453  0.3777
  870MOL0     N14758   1.145   4.013   7.463  0.1335  0.3187 -0.4686
  870MOL0     N14759   1.180   4.143   7.459 -0.3020  0.5552 -1.4266
  870MOL0     C14760   2.388   4.708   7.532 -0.4642  0.6232  0.2882
  870MOL0     C14761   2.520   4.719   7.576 -0.3235  0.0428 -0.0626
  870MOL0     C14762   2.959   4.754   7.626 -1.1506 -0.0943  0.6609
  870MOL0     C14763   3.029   4.807   7.736 -0.2148  0.4410  0.6926
  870MOL0     C14764   3.168   4.839   7.728 -0.0027  0.1116 -0.2307
  870MOL0     C14765   3.237   4.806   7.611  0.5883  1.1033 -0.2236
  870MOL0     O14766   3.368   4.843   7.622  0.0924 -0.0262  0.8615
  870MOL0     C14767   3.448   4.849   7.506  0.4153  0.3390  0.3175
  870MOL0     C14768   3.585   4.894   7.546  0.2026  0.4807  0.8045
  870MOL0     C14769   3.695   4.925   7.430  0.6316 -0.1452 -0.0715
  870MOL0     C14770   3.831   4.971   7.482 -0.6217  0.4195 -0.7841
  870MOL0     C14771   3.913   4.854   7.498 -0.3683 -0.4918 -0.4033
  870MOL0     C14772   3.990   4.752   7.500 -0.3781 -0.0209 -0.3384
  870MOL0     C14773   3.177   4.745   7.506 -0.0947  0.5351 -0.1854
  870MOL0     C14774   3.034   4.715   7.515  0.4706 -1.1312 -0.0487
  870MOL0     H14775   2.662   4.579   7.302  1.2311  0.9654  0.4854
  870MOL0     H14776   2.419   4.544   7.242  1.0748 -4.4883  1.7892
  870MOL0     H14777   2.191   4.509   7.214 -1.4074 -2.2947  4.8294
  870MOL0     H14778   2.219   4.687   7.174 -1.6242  2.4430  1.6627
  870MOL0     H14779   1.985   4.626   7.120 -3.0063 -0.9936  1.0123
  870MOL0     H14780   1.980   4.730   7.263  0.3137 -0.1524  0.5328
  870MOL0     H14781   1.970   4.502   7.390 -1.9688  2.0163  0.6560
  870MOL0     H14782   1.974   4.425   7.237  2.6006 -0.0895  2.8637
  870MOL0     H14783   1.769   4.605   7.344 -0.4651 -2.7201  2.3319
  870MOL0     H14784   1.770   4.570   7.176 -0.7092 -0.1964  0.7185
  870MOL0     H14785   1.771   4.352   7.398 -1.9272  0.1573 -0.4874
  870MOL0     H14786   1.743   4.324   7.225 -1.7264 -0.6264 -0.6855
  870MOL0     H14787   1.530   4.458   7.249  0.7020  3.6655  2.2871
  870MOL0     H14788   1.548   4.460   7.415 -0.1522  1.1987 -0.6378
  870MOL0     H14789   1.555   4.198   7.273 -0.3799 -1.2278  0.8909
  870MOL0     H14790   1.523   4.219   7.452  4.5165 -0.9230 -0.9450
  870MOL0     H14791   1.336   4.275   7.220  2.8313 -0.8341 -0.7415
  870MOL0     H14792   1.317   4.357   7.376  3.0373  1.3182 -0.2383
  870MOL0     H14793   1.387   4.005   7.254  0.3944  0.9689  2.1621
  870MOL0     H14794   1.269   3.775   7.245 -1.6851 -2.5195 -0.7777
  870MOL0     H14795   1.124   3.763   7.332  1.2568 -2.9339 -2.6144
  870MOL0     H14796   1.244   3.602   7.439  0.4756 -0.0311  2.3128
  870MOL0     H14797   1.266   3.736   7.548 -1.0174  1.0953 -1.2476
  870MOL0     H14798   1.470   3.582   7.472 -2.3321  0.2278  0.0772
  870MOL0     H14799   1.460   3.662   7.312 -0.0984  0.4165 -0.5218
  870MOL0     H14800   1.468   3.836   7.561  1.2571  3.9902 -2.1511
  870MOL0     H14801   1.518   3.883   7.401  1.5707  0.2669 -0.1944
  870MOL0     H14802   1.707   3.534   7.413  0.8290  0.8841  1.5725
  870MOL0     H14803   1.873   3.482   7.242 -1.2904 -0.6891  0.1343
  870MOL0     H14804   2.076   3.894   6.800  0.3979  0.0656  1.8440
  870MOL0     H14805   2.267   3.870   6.632  0.2231  0.9231  0.5056
  870MOL0     H14806   2.441   3.772   6.467  0.0929  2.9016  2.6192
  870MOL0     H14807   2.343   3.634   6.523  1.7995 -3.3928  0.3850
  870MOL0     H14808   2.628   3.615   6.439 -0.5218  1.5392  0.4250
  870MOL0     H14809   2.485   3.520   6.381 -3.1344  2.0684 -0.4102
  870MOL0     H14810   2.639   3.515   6.649 -1.1571  0.2183  0.8245
  870MOL0     H14811   2.648   3.400   6.517 -0.5480 -1.7011  1.1769
  870MOL0     H14812   2.395   3.461   6.680 -2.3753 -1.0180 -0.6787
  870MOL0     H14813   2.417   3.335   6.551 -0.8227 -0.8137  1.9072
  870MOL0     H14814   2.410   3.237   6.764 -1.5460  0.9892  0.0616
  870MOL0     H14815   2.557   3.329   6.827 -0.9686 -1.1451  1.2883
  870MOL0     H14816   2.697   3.213   6.693 -0.1424  3.3370  2.4648
  870MOL0     H14817   2.570   3.167   6.581  2.8019 -1.0197 -1.2001
  870MOL0     H14818   2.562   3.074   6.881  2.5100 -0.8167  0.3142
  870MOL0     H14819   2.460   3.021   6.735 -1.0631  2.4366  0.4625
  870MOL0     H14820   2.715   2.920   6.846 -1.3394  2.4157  1.4959
  870MOL0     H14821   2.726   2.953   6.673 -0.4149 -1.7606 -1.0649
  870MOL0     H14822   2.450   3.580   6.865  0.1274  2.3177 -1.2630
  870MOL0     H14823   2.254   3.613   7.055 -4.5922  1.0783 -0.2882
  870MOL0     H14824   1.930   3.911   7.177  4.2559 -2.6407 -2.4902
  870MOL0     H14825   1.791   3.958   7.388 -0.3012  0.4027  2.1765
  870MOL0     H14826   2.318   4.760   7.597 -0.9235 -0.6477  0.8433
  870MOL0     H14827   2.545   4.787   7.657 -2.3547  0.1827  0.5027
  870MOL0     H14828   2.983   4.836   7.830  0.9362  0.3943  1.2847
  870MOL0     H14829   3.215   4.877   7.818 -2.1020 -1.4403  1.6508
  870MOL0     H14830   3.420   4.923   7.431  1.3415 -2.0514 -2.5962
  870MOL0     H14831   3.446   4.754   7.451 -1.0737  1.2932 -1.3510
  870MOL0     H14832   3.568   4.972   7.620 -3.4241 -1.7078  2.5498
  870MOL0     H14833   3.630   4.810   7.601 -0.0801 -0.0192  0.2905
  870MOL0     H14834   3.658   5.006   7.367  0.1930  0.4813  0.9522
  870MOL0     H14835   3.709   4.833   7.374 -0.0030  0.0002 -0.4782
  870MOL0     H14836   3.866   5.040   7.404 -0.5798  0.7534 -0.4727
  870MOL0     H14837   3.834   5.024   7.577  1.2795 -0.9377 -0.0451
  870MOL0     H14838   4.059   4.671   7.508  0.3294  0.7836  3.1516
  870MOL0     H14839   3.234   4.705   7.422 -0.7051 -0.6860 -0.0366
  870MOL0     H14840   2.989   4.650   7.440  2.2612 -0.5389 -1.7196
  871MOL0     O14841   4.899   2.163   3.918  0.4653 -0.5725 -0.6426
  871MOL0     C14842   4.954   2.209   3.819 -0.1438 -0.4117  0.8004
  871MOL0     O14843   4.892   2.285   3.727  0.9879  0.5940  0.0377
  871MOL0     C14844   4.752   2.311   3.746 -0.8860  0.4817  0.1259
  871MOL0     C14845   4.694   2.351   3.868 -0.1963 -0.9725  0.5925
  871MOL0     C14846   4.548   2.379   3.872  0.5206 -0.4856 -0.2632
  871MOL0     C14847   4.474   2.373   3.757 -0.1365 -0.8067  0.0459
  871MOL0     O14848   4.340   2.402   3.779 -0.4475  0.0802  0.8959
  871MOL0     C14849   4.246   2.373   3.673 -0.0368 -0.2732 -0.0256
  871MOL0     C14850   4.109   2.376   3.744  0.5868 -0.3674  1.9600
  871MOL0     C14851   4.081   2.505   3.820 -0.0045 -0.2244  0.0550
  871MOL0     C14852   3.940   2.522   3.858  0.4832  0.8205 -0.5802
  871MOL0     C14853   3.849   2.550   3.729  0.6906  0.5866 -0.2921
  871MOL0     C14854   3.701   2.577   3.764 -0.3821 -0.0199 -0.5761
  871MOL0     C14855   3.613   2.453   3.795  0.4442 -0.1269 -1.1959
  871MOL0     C14856   3.537   2.390   3.675 -0.7327 -0.3232  0.5775
  871MOL0     N14857   3.423   2.319   3.717  0.4889  0.0075 -0.2118
  871MOL0     C14858   3.430   2.208   3.798  0.0963 -0.1631 -0.6859
  871MOL0     C14859   3.303   2.185   3.832 -0.0576  0.1108 -0.1126
  871MOL0     C14860   3.252   2.069   3.917 -0.3003 -0.0724  0.0038
  871MOL0     C14861   3.105   2.017   3.889 -0.3998  0.1623 -0.1858
  871MOL0     C14862   3.010   2.113   3.952 -0.2737 -0.5392 -0.6973
  871MOL0     C14863   2.879   2.136   3.867 -0.0056  0.5372 -0.3399
  871MOL0     O14864   2.779   2.041   3.905  0.2161  1.0317  0.3605
  871MOL0     C14865   2.658   2.086   3.961 -0.4453  0.4388  0.2664
  871MOL0     C14866   2.610   2.216   3.946  0.4214 -0.6495  0.3649
  871MOL0     C14867   2.487   2.250   3.987  0.8398  0.3462 -0.4252
  871MOL0     C14868   2.414   2.151   4.061 -0.3235 -0.5934  0.2569
  871MOL0     C14869   2.280   2.193   4.130 -0.1932 -0.3098 -0.0329
  871MOL0     O14870   2.221   2.102   4.206 -0.8161  0.0714  0.2023
  871MOL0     C14871   2.098   2.139   4.250  1.1402 -0.1375 -0.6510
  871MOL0     C14872   2.086   2.221   4.366  0.0534 -1.0293  1.0262
  871MOL0     C14873   1.966   2.271   4.400 -0.1907  0.0020 -0.3967
  871MOL0     C14874   1.850   2.246   4.324 -0.1954  0.7546  0.5342
  871MOL0     O14875   1.726   2.300   4.345 -0.1335  0.3897 -0.1749
  871MOL0     C14876   1.715   2.442   4.322 -0.3878  1.1526 -0.3256
  871MOL0     C14877   1.677   2.519   4.449 -0.1980 -0.0866  0.0914
  871MOL0     C14878   1.545   2.473   4.510  0.5013  0.9258 -0.1948
  871MOL0     C14879   1.426   2.461   4.412 -0.3477 -0.4702 -0.1876
  871MOL0     C14880   1.280   2.443   4.478 -1.0410  0.3264  0.4015
  871MOL0     C14881   1.187   2.398   4.361  0.4947 -0.5343 -0.5668
  871MOL0     C14882   1.037   2.415   4.397  0.1708  0.5275 -0.5912
  871MOL0     C14883   0.934   2.319   4.331  1.2193 -0.3192 -0.3947
  871MOL0    Cl14884   0.771   2.346   4.396 -0.2892  0.2283  0.0033
  871MOL0     C14885   1.860   2.157   4.216  0.2424  0.5993  0.6715
  871MOL0     C14886   1.984   2.114   4.175  0.7830  0.0912  0.4882
  871MOL0     O14887   2.233   2.305   4.108 -0.4032 -0.2075 -0.4554
  871MOL0     C14888   2.468   2.022   4.085  0.5392  0.0840  0.5696
  871MOL0     C14889   2.583   1.993   4.019 -0.4109  0.3301  0.4014
  871MOL0     N14890   3.224   2.293   3.786 -0.1575 -0.7087  0.1010
  871MOL0     N14891   3.298   2.375   3.723 -0.4294 -0.5710 -0.2240
  871MOL0     C14892   4.525   2.326   3.639 -0.0905 -0.2296  0.8604
  871MOL0     C14893   4.661   2.295   3.637 -0.7493 -1.0819 -0.3280
  871MOL0     C14894   5.106   2.212   3.807  0.6039  0.0580  1.0672
  871MOL0     C14895   5.172   2.322   3.748  0.0834 -0.8330 -0.3695
  871MOL0     C14896   5.312   2.326   3.739 -0.2051 -0.7035 -0.1971
  871MOL0     C14897   5.389   2.221   3.800 -0.4146  0.0215 -0.0061
  871MOL0     O14898   5.523   2.218   3.804  0.2382 -0.1300  0.3925
  871MOL0     C14899   5.611   2.311   3.719  0.5080 -0.6925  0.0028
  871MOL0     C14900   5.750   2.255   3.720  0.7164 -0.2012  0.8629
  871MOL0     C14901   5.777   2.148   3.618 -0.9180  0.4884 -0.5712
  871MOL0     C14902   5.927   2.136   3.604  0.6412  0.2636  0.3536
  871MOL0     C14903   5.963   2.010   3.542 -0.9411  0.7184 -0.9957
  871MOL0     C14904   6.009   1.899   3.509  0.2253 -0.0725 -0.4944
  871MOL0     C14905   5.322   2.112   3.846  0.1071 -0.5151  0.1000
  871MOL0     C14906   5.186   2.108   3.862 -0.3820  0.1089  0.1033
  871MOL0     H14907   4.756   2.373   3.954 -0.2409 -4.2302  1.6012
  871MOL0     H14908   4.500   2.407   3.965  0.5398  0.9425 -0.6730
  871MOL0     H14909   4.265   2.278   3.623  1.1485  0.2974 -0.6825
  871MOL0     H14910   4.253   2.453   3.599  2.4543  0.0906  0.5384
  871MOL0     H14911   4.114   2.296   3.819 -0.6973  0.3138  2.8101
  871MOL0     H14912   4.035   2.346   3.670  2.9558 -0.0451 -0.7023
  871MOL0     H14913   4.087   2.601   3.767 -2.5021  0.6216  1.1622
  871MOL0     H14914   4.142   2.497   3.911 -2.1396 -1.6485  1.4479
  871MOL0     H14915   3.900   2.427   3.896  1.5073 -0.3729 -2.3358
  871MOL0     H14916   3.934   2.601   3.933 -1.0066  2.1827 -2.0526
  871MOL0     H14917   3.846   2.469   3.656 -0.4591  1.6167 -1.4414
  871MOL0     H14918   3.889   2.639   3.680  0.0512  1.3628  0.5696
  871MOL0     H14919   3.662   2.651   3.694  1.3994  1.9749  0.4189
  871MOL0     H14920   3.703   2.643   3.852  2.9238 -0.3053 -0.3356
  871MOL0     H14921   3.670   2.376   3.848  2.3811  2.3562  0.5465
  871MOL0     H14922   3.531   2.481   3.862  1.2610 -0.2498 -0.1159
  871MOL0     H14923   3.608   2.334   3.613 -0.0057  2.7465 -1.5321
  871MOL0     H14924   3.496   2.463   3.605  0.9322 -1.4484 -1.6783
  871MOL0     H14925   3.517   2.151   3.829  0.9433  2.7630  3.1321
  871MOL0     H14926   3.247   2.111   4.018 -3.1339  3.5320 -1.4030
  871MOL0     H14927   3.324   1.987   3.911 -0.1164 -0.0293  1.3211
  871MOL0     H14928   3.085   1.924   3.942 -2.2446 -0.1152 -1.2589
  871MOL0     H14929   3.095   1.993   3.782  2.1310 -0.3364 -0.3729
  871MOL0     H14930   2.985   2.090   4.056 -0.8661  0.3086 -0.6426
  871MOL0     H14931   3.059   2.211   3.953 -2.6843  0.8065 -2.9837
  871MOL0     H14932   2.899   2.106   3.764  1.2235 -0.1746  0.0784
  871MOL0     H14933   2.858   2.244   3.871 -0.6718  0.5180 -2.3374
  871MOL0     H14934   2.664   2.306   3.921 -0.1195 -0.7377 -1.2689
  871MOL0     H14935   2.468   2.357   3.985  2.5286  0.6746 -0.3979
  871MOL0     H14936   2.174   2.239   4.428 -2.4992  0.3877  4.5986
  871MOL0     H14937   1.941   2.327   4.490  0.7617 -0.7973  0.3952
  871MOL0     H14938   1.636   2.449   4.247 -1.0932 -1.5779  0.0565
  871MOL0     H14939   1.811   2.483   4.288 -0.1746 -0.2078 -1.4586
  871MOL0     H14940   1.675   2.624   4.420  5.1658  1.0108  2.3530
  871MOL0     H14941   1.755   2.516   4.526 -0.9659 -1.2545  0.8571
  871MOL0     H14942   1.508   2.552   4.574 -5.2050  0.2236 -2.0965
  871MOL0     H14943   1.561   2.382   4.568  1.1642  1.2513  0.1490
  871MOL0     H14944   1.415   2.560   4.366  0.3860 -1.3050 -2.2864
  871MOL0     H14945   1.440   2.378   4.343  0.4662 -1.0913  0.6963
  871MOL0     H14946   1.260   2.544   4.515 -1.7874  1.5860 -3.1235
  871MOL0     H14947   1.287   2.376   4.564 -1.4533 -2.2497 -1.4531
  871MOL0     H14948   1.205   2.293   4.335 -4.2175 -1.2154 -2.0083
  871MOL0     H14949   1.217   2.463   4.279 -0.1071  2.9238  1.7408
  871MOL0     H14950   1.020   2.431   4.504  0.6981 -0.6813 -0.3135
  871MOL0     H14951   1.020   2.510   4.346 -0.6784 -1.0644 -3.5202
  871MOL0     H14952   0.966   2.217   4.353  2.0588 -0.3087 -1.4917
  871MOL0     H14953   0.929   2.325   4.222 -0.0593 -3.8509 -0.6394
  871MOL0     H14954   1.771   2.125   4.162  0.2165  1.5027  0.1634
  871MOL0     H14955   1.973   2.047   4.090  3.5599 -0.0080  0.0935
  871MOL0     H14956   2.423   1.943   4.143  0.7632 -0.1771  0.3887
  871MOL0     H14957   2.629   1.895   4.026  1.3824  1.1253  0.4636
  871MOL0     H14958   4.472   2.302   3.547  1.0937 -3.1909  0.8256
  871MOL0     H14959   4.697   2.257   3.541 -2.0741 -2.6346 -0.2497
  871MOL0     H14960   5.131   2.412   3.704 -0.0010 -1.3843 -1.4342
  871MOL0     H14961   5.365   2.404   3.686 -1.1066  0.0321 -0.0353
  871MOL0     H14962   5.608   2.414   3.756 -0.2417 -0.0828 -1.6409
  871MOL0     H14963   5.574   2.301   3.616 -2.9623 -1.8724  1.2144
  871MOL0     H14964   5.818   2.339   3.705  1.2663 -0.8718 -0.5216
  871MOL0     H14965   5.783   2.220   3.819  0.4321  0.6850  1.2790
  871MOL0     H14966   5.730   2.184   3.527  2.6483  0.1881 -2.7328
  871MOL0     H14967   5.744   2.049   3.652  4.1080 -1.1562  0.5257
  871MOL0     H14968   5.972   2.226   3.561 -0.9461  0.8556 -0.1318
  871MOL0     H14969   5.974   2.138   3.703 -0.0369  0.1465  0.6862
  871MOL0     H14970   6.026   1.796   3.484 -0.3373  0.0632 -1.5130
  871MOL0     H14971   5.375   2.030   3.893 -0.8516 -0.9189  0.4952
  871MOL0     H14972   5.149   2.020   3.914  0.9101  0.4105  1.6036
  872MOL0     O14973   5.936  10.139   4.708  0.2983  0.2324  0.4079
  872MOL0     C14974   5.958  10.066   4.608  0.8254  0.9006  0.3382
  872MOL0     O14975   5.857   9.977   4.557 -0.0286  0.4730 -0.6695
  872MOL0     C14976   5.729   9.986   4.601 -0.0851 -0.5831 -0.3421
  872MOL0     C14977   5.664   9.877   4.649  0.0413 -0.6750  0.7800
  872MOL0     C14978   5.530   9.884   4.696 -0.1363  0.2679  0.4032
  872MOL0     C14979   5.461  10.012   4.695 -0.4507  0.4748  0.2438
  872MOL0     O14980   5.332  10.024   4.753 -0.3283 -0.4797  0.2524
  872MOL0     C14981   5.256   9.913   4.798 -0.2837  0.3834 -0.5031
  872MOL0     C14982   5.189   9.828   4.695 -0.8047 -0.3517 -0.6258
  872MOL0     C14983   5.165   9.682   4.738  0.5157  0.3463  0.2981
  872MOL0     C14984   5.067   9.677   4.856 -0.2004  0.4421  0.7346
  872MOL0     C14985   5.035   9.536   4.898 -0.2353 -0.1526 -0.5863
  872MOL0     C14986   4.933   9.466   4.809 -0.4297 -0.7888 -0.5728
  872MOL0     C14987   4.870   9.346   4.877  0.4352  0.8804  0.4216
  872MOL0     C14988   4.969   9.238   4.912 -0.2394 -0.4468 -0.0490
  872MOL0     N14989   4.906   9.115   4.957  0.3858 -0.2172 -1.0316
  872MOL0     C14990   4.859   9.098   5.085  0.6047 -0.3947  0.6596
  872MOL0     C14991   4.764   9.005   5.069 -0.0969 -0.4785 -0.9808
  872MOL0     C14992   4.674   8.942   5.183 -0.5695 -0.3190  0.7906
  872MOL0     C14993   4.642   8.797   5.149 -0.2321 -0.4568  0.5859
  872MOL0     C14994   4.563   8.741   5.258  1.2737  0.8662 -0.1449
  872MOL0     C14995   4.483   8.617   5.216 -0.0294 -0.7787  0.1885
  872MOL0     O14996   4.412   8.580   5.342  0.1257  0.5990  0.2153
  872MOL0     C14997   4.323   8.470   5.346  1.2264 -0.5999 -0.3954
  872MOL0     C14998   4.326   8.374   5.246 -0.4354  0.2100  0.3743
  872MOL0     C14999   4.235   8.262   5.250 -0.0113 -0.0212 -1.0741
  872MOL0     C15000   4.145   8.244   5.353  0.5965  0.1911  0.1405
  872MOL0     C15001   4.051   8.134   5.351  0.4876  0.2716 -0.3010
  872MOL0     O15002   4.068   8.037   5.259 -0.0991  0.2741  0.6587
  872MOL0     C15003   4.008   7.919   5.249  0.2627  1.7053  0.0052
  872MOL0     C15004   3.999   7.822   5.352 -0.7330  0.2047  0.2610
  872MOL0     C15005   3.951   7.692   5.331  0.4564  1.0920 -0.7721
  872MOL0     C15006   3.921   7.644   5.200  0.2963 -0.0979 -0.3401
  872MOL0     O15007   3.877   7.512   5.185  0.0586 -0.5194 -0.3409
  872MOL0     C15008   3.888   7.445   5.058 -0.1039 -0.0843 -0.3059
  872MOL0     C15009   3.845   7.302   5.077 -0.8804  0.6701  0.7638
  872MOL0     C15010   3.838   7.218   4.939  0.0964 -0.0671 -0.2442
  872MOL0     C15011   3.774   7.080   4.954  1.1447  1.3270  0.4102
  872MOL0     C15012   3.709   7.034   4.822  0.2016 -0.1675  0.2179
  872MOL0     C15013   3.822   6.965   4.731  0.5070 -0.3609  0.4511
  872MOL0     C15014   3.780   6.957   4.585  0.6970  0.0299  0.4620
  872MOL0     C15015   3.631   6.951   4.570 -0.4717  0.2918 -0.1894
  872MOL0    Cl15016   3.593   6.905   4.408  0.7658  0.1949 -0.0511
  872MOL0     C15017   3.923   7.737   5.102  0.5548 -0.4026 -0.2521
  872MOL0     C15018   3.952   7.868   5.126 -0.3224 -1.0031 -0.3057
  872MOL0     O15019   3.963   8.129   5.431  0.2256  0.0131  0.2512
  872MOL0     C15020   4.157   8.339   5.457  0.6510  0.0888 -0.0874
  872MOL0     C15021   4.243   8.451   5.460 -0.1945  0.7758  0.5732
  872MOL0     N15022   4.782   8.948   4.946 -0.1141 -0.2968  0.0963
  872MOL0     N15023   4.859   9.013   4.876  0.3789 -0.4089 -0.2446
  872MOL0     C15024   5.526  10.120   4.647  0.6741  0.4417  0.9005
  872MOL0     C15025   5.657  10.105   4.584  0.8824 -0.1420 -0.5541
  872MOL0     C15026   6.090  10.060   4.550  0.4294  0.4697  0.7515
  872MOL0     C15027   6.205  10.126   4.611 -0.8284 -0.3996  0.5885
  872MOL0     C15028   6.326  10.112   4.544  0.0215  0.1585  0.6624
  872MOL0     C15029   6.337  10.048   4.426  0.6064  0.5682 -0.2439
  872MOL0     O15030   6.469  10.033   4.379 -0.2249  0.9531 -0.1626
  872MOL0     C15031   6.513   9.905   4.334  0.2261 -1.0529  0.2320
  872MOL0     C15032   6.646   9.907   4.253 -0.3331  0.6131 -0.5796
  872MOL0     C15033   6.777   9.957   4.322  0.1598  0.2902  0.2620
  872MOL0     C15034   6.790   9.909   4.472  0.0083 -0.3627  0.3350
  872MOL0     C15035   6.917   9.954   4.524  0.6890 -0.5256 -1.4345
  872MOL0     C15036   7.016  10.007   4.567  1.1822  0.9149 -0.3440
  872MOL0     C15037   6.225   9.981   4.367 -0.4554 -0.2071 -0.7922
  872MOL0     C15038   6.110   9.979   4.444 -0.0916 -0.8697 -0.3245
  872MOL0     H15039   5.729   9.790   4.648  0.1951 -0.5571 -0.7267
  872MOL0     H15040   5.483   9.794   4.734 -1.8110  1.5666  1.5825
  872MOL0     H15041   5.181   9.954   4.868 -2.0804  1.2327 -2.7971
  872MOL0     H15042   5.320   9.847   4.857  0.1894 -0.2680 -1.7263
  872MOL0     H15043   5.254   9.838   4.608 -0.0948 -0.9310 -0.1761
  872MOL0     H15044   5.094   9.878   4.674 -1.0997  0.1279  1.5514
  872MOL0     H15045   5.264   9.648   4.770 -0.0819 -4.6155 -2.1724
  872MOL0     H15046   5.139   9.612   4.658  3.0521  1.7022 -1.9208
  872MOL0     H15047   5.092   9.727   4.950 -4.0877  1.2485  1.5139
  872MOL0     H15048   4.967   9.715   4.834  0.0708 -0.2564 -2.1126
  872MOL0     H15049   4.994   9.535   4.999  0.6025  1.3213 -0.2037
  872MOL0     H15050   5.121   9.470   4.914 -1.6760 -1.3353  3.3913
  872MOL0     H15051   4.976   9.449   4.710  2.8276  3.9952 -0.3022
  872MOL0     H15052   4.848   9.533   4.789  1.3401  2.0704  0.7956
  872MOL0     H15053   4.821   9.392   4.963  1.9129  2.9768  0.2106
  872MOL0     H15054   4.800   9.304   4.804  0.9003  1.3417 -0.3022
  872MOL0     H15055   5.043   9.274   4.985 -0.7170  0.0281  0.2067
  872MOL0     H15056   5.022   9.207   4.822  2.1960  0.3454  1.0299
  872MOL0     H15057   4.881   9.161   5.170 -2.0709  0.0004  1.1463
  872MOL0     H15058   4.580   8.996   5.177 -0.9627 -0.8533  2.0048
  872MOL0     H15059   4.717   8.956   5.282  0.2993 -0.2477  0.4149
  872MOL0     H15060   4.733   8.741   5.128 -0.8796 -1.3100  0.0227
  872MOL0     H15061   4.585   8.802   5.056 -0.7425 -0.7783  0.8717
  872MOL0     H15062   4.626   8.719   5.344  0.3715 -1.2812  0.0379
  872MOL0     H15063   4.478   8.802   5.292 -0.7901 -1.0889 -1.4920
  872MOL0     H15064   4.556   8.542   5.184  0.4910 -0.8284  1.3941
  872MOL0     H15065   4.413   8.640   5.136 -1.3909 -3.8790  0.3718
  872MOL0     H15066   4.388   8.362   5.158  0.7838 -0.2506  1.2829
  872MOL0     H15067   4.233   8.195   5.165 -0.5448 -0.2027 -0.9220
  872MOL0     H15068   4.043   7.855   5.446 -2.4496  0.5647  0.9671
  872MOL0     H15069   3.943   7.621   5.413  2.1596 -1.5675 -2.7747
  872MOL0     H15070   3.991   7.449   5.022 -0.1870 -0.6904 -0.6313
  872MOL0     H15071   3.813   7.485   4.989  0.3497 -0.0484 -0.7885
  872MOL0     H15072   3.742   7.300   5.115 -1.0266 -2.8814  0.4957
  872MOL0     H15073   3.920   7.252   5.139  0.1785 -2.9929 -3.0514
  872MOL0     H15074   3.933   7.217   4.886 -0.0171  1.6343 -0.5448
  872MOL0     H15075   3.764   7.266   4.874  0.8703 -0.4713 -1.4533
  872MOL0     H15076   3.855   7.014   4.986 -1.2526 -2.4750 -0.6767
  872MOL0     H15077   3.699   7.091   5.033 -0.4130 -1.0078 -0.6189
  872MOL0     H15078   3.671   7.119   4.764  0.5888 -0.1383  0.0006
  872MOL0     H15079   3.630   6.964   4.849  0.2455 -0.1609  0.3637
  872MOL0     H15080   3.834   6.861   4.762  0.6331 -1.5723 -3.2801
  872MOL0     H15081   3.918   7.016   4.741 -1.2355  3.5111 -0.6227
  872MOL0     H15082   3.822   7.047   4.540  0.0218  2.6432  4.5380
  872MOL0     H15083   3.820   6.867   4.538  0.5798  0.7573 -1.1276
  872MOL0     H15084   3.579   7.045   4.591 -0.0785  0.4880 -0.0844
  872MOL0     H15085   3.583   6.884   4.642 -0.9254  0.6433 -0.1562
  872MOL0     H15086   3.906   7.710   4.998  0.7627 -0.9994 -0.1376
  872MOL0     H15087   3.959   7.948   5.053 -0.5313 -0.3687  0.3572
  872MOL0     H15088   4.075   8.330   5.528  0.1558 -3.2260 -0.8795
  872MOL0     H15089   4.221   8.522   5.539 -0.3675  1.2842  0.0698
  872MOL0     H15090   5.463  10.209   4.652 -0.7205 -0.5419  1.6419
  872MOL0     H15091   5.712  10.192   4.552  1.8182 -0.5714 -0.1680
  872MOL0     H15092   6.193  10.191   4.697 -2.5571 -2.1180  1.7319
  872MOL0     H15093   6.413  10.163   4.582  0.9495 -1.7003  1.1485
  872MOL0     H15094   6.433   9.858   4.276 -0.7339 -0.1364  0.7706
  872MOL0     H15095   6.526   9.854   4.430 -2.7098 -0.4290  1.0555
  872MOL0     H15096   6.679   9.803   4.239 -0.3683  0.3955  0.8049
  872MOL0     H15097   6.624   9.967   4.164 -1.2686  1.5982  0.2842
  872MOL0     H15098   6.780  10.066   4.331 -1.1450  0.3419  0.3179
  872MOL0     H15099   6.862   9.924   4.262 -0.5779 -0.0104 -0.6374
  872MOL0     H15100   6.704   9.949   4.527  0.2149 -1.8203  1.8164
  872MOL0     H15101   6.775   9.801   4.470 -0.2988 -0.3175  0.1558
  872MOL0     H15102   7.100  10.064   4.602  2.0535  0.0884 -1.0412
  872MOL0     H15103   6.246   9.919   4.281  2.3609 -0.4232 -0.0687
  872MOL0     H15104   6.037   9.917   4.393 -2.6670  2.9556 -1.7099
  873MOL0     O15105   5.760   3.945   6.630  0.1077  1.0158 -0.2617
  873MOL0     C15106   5.651   3.913   6.588  0.1925  0.1948  0.1431
  873MOL0     O15107   5.617   3.803   6.519  0.9260 -0.0621 -0.5241
  873MOL0     C15108   5.710   3.709   6.471  1.3980 -0.1145  0.5464
  873MOL0     C15109   5.846   3.704   6.481  0.1757  0.1778  0.7842
  873MOL0     C15110   5.915   3.606   6.403 -0.2635 -1.2117  0.0078
  873MOL0     C15111   5.856   3.511   6.333  0.4644 -0.3933 -0.4655
  873MOL0     O15112   5.944   3.433   6.266 -0.0032  0.2072 -0.3443
  873MOL0     C15113   5.903   3.300   6.231  0.3552 -0.6015  0.0008
  873MOL0     C15114   6.030   3.225   6.206 -0.1801 -0.5312 -0.0675
  873MOL0     C15115   6.014   3.084   6.145  1.0518  0.3771  0.5669
  873MOL0     C15116   6.137   3.002   6.164 -0.0896  0.2001  0.3043
  873MOL0     C15117   6.120   2.853   6.130  0.6620  0.8045 -0.1528
  873MOL0     C15118   6.246   2.796   6.065  0.5310 -0.6387  0.2982
  873MOL0     C15119   6.197   2.701   5.963 -0.0650 -0.1331  0.3207
  873MOL0     C15120   6.302   2.612   5.891  0.9104 -0.2774 -1.0670
  873MOL0     N15121   6.234   2.525   5.793 -0.1553 -0.6688  0.1213
  873MOL0     C15122   6.150   2.562   5.700  0.0175  0.8273  0.1810
  873MOL0     C15123   6.127   2.448   5.630  0.7726 -1.1430 -0.0074
  873MOL0     C15124   6.055   2.442   5.497 -0.5303 -0.6206 -0.2312
  873MOL0     C15125   6.153   2.475   5.379 -0.2242 -0.3846  0.2651
  873MOL0     C15126   6.072   2.442   5.250  0.2884 -0.6484  0.3714
  873MOL0     C15127   6.070   2.551   5.142  0.9463  0.0132  0.5153
  873MOL0     O15128   6.046   2.691   5.190  0.5513  0.0020 -0.0828
  873MOL0     C15129   5.934   2.726   5.264  0.3278 -0.3525  0.1698
  873MOL0     C15130   5.820   2.653   5.271 -0.1838  0.9957  1.0418
  873MOL0     C15131   5.718   2.696   5.344  0.2342 -0.0593 -0.0100
  873MOL0     C15132   5.724   2.810   5.424  0.3221 -0.2948  0.1969
  873MOL0     C15133   5.597   2.843   5.503  0.6030  0.0398 -0.0636
  873MOL0     O15134   5.584   2.974   5.557  0.7489  0.0210  0.2486
  873MOL0     C15135   5.473   3.000   5.638 -0.5471  0.5552 -1.2193
  873MOL0     C15136   5.339   2.984   5.598 -0.0623 -0.0014  0.7880
  873MOL0     C15137   5.231   3.044   5.661 -0.3996 -0.8409  0.1098
  873MOL0     C15138   5.261   3.100   5.787  0.3434  0.9007 -0.7467
  873MOL0     O15139   5.147   3.131   5.857 -0.2179  0.3168  0.1078
  873MOL0     C15140   5.150   3.245   5.948  0.4154 -1.1922  0.0716
  873MOL0     C15141   5.021   3.297   5.999 -0.5533  0.1609 -0.0439
  873MOL0     C15142   4.923   3.338   5.889 -0.5047  0.3387 -0.2970
  873MOL0     C15143   4.793   3.407   5.932  0.6836  0.4474  0.7044
  873MOL0     C15144   4.717   3.319   6.031 -0.2690  1.0224  0.6752
  873MOL0     C15145   4.571   3.376   6.047 -0.6972  0.1922 -0.1700
  873MOL0     C15146   4.507   3.316   6.172  0.2273 -0.2770 -0.1560
  873MOL0     C15147   4.358   3.335   6.172 -0.2058 -0.2200  0.3700
  873MOL0    Cl15148   4.291   3.280   6.321 -0.4476 -0.3359 -0.0420
  873MOL0     C15149   5.387   3.114   5.838  0.1355  0.4561 -0.2741
  873MOL0     C15150   5.497   3.067   5.762  0.3212 -0.0248  0.7016
  873MOL0     O15151   5.519   2.752   5.527 -0.1635 -0.6424 -0.4917
  873MOL0     C15152   5.840   2.883   5.427 -1.1313 -0.2192  0.6293
  873MOL0     C15153   5.946   2.838   5.344 -0.3538 -0.5394 -0.4496
  873MOL0     N15154   6.190   2.350   5.679 -0.9663  0.2265 -0.7779
  873MOL0     N15155   6.259   2.390   5.780 -0.4133  0.2326 -0.2130
  873MOL0     C15156   5.718   3.501   6.321 -1.0587  1.0907  0.0712
  873MOL0     C15157   5.652   3.609   6.388  0.0743  1.0257 -1.2549
  873MOL0     C15158   5.537   4.011   6.601  0.0563  0.1243  0.3756
  873MOL0     C15159   5.542   4.121   6.686  0.3488  0.9255  0.1345
  873MOL0     C15160   5.431   4.208   6.697 -0.1375  0.2130  0.3760
  873MOL0     C15161   5.317   4.192   6.634  0.5690 -0.1830 -0.4971
  873MOL0     O15162   5.217   4.283   6.649  0.7623  0.3192  0.0407
  873MOL0     C15163   5.088   4.258   6.596  1.6020  0.3215 -0.2521
  873MOL0     C15164   4.981   4.362   6.645 -0.2556  0.4166  0.0154
  873MOL0     C15165   4.864   4.374   6.549 -0.5144 -0.3139  0.2274
  873MOL0     C15166   4.737   4.427   6.610 -0.8834 -0.4830 -0.1388
  873MOL0     C15167   4.634   4.445   6.510  0.0275 -0.5081  0.5272
  873MOL0     C15168   4.556   4.460   6.419 -1.0286 -0.9068  0.4024
  873MOL0     C15169   5.304   4.074   6.547 -0.0306  1.3744  0.3832
  873MOL0     C15170   5.416   3.987   6.534 -0.1983 -0.0999  0.4164
  873MOL0     H15171   5.902   3.781   6.533  2.6015 -0.8803 -0.0893
  873MOL0     H15172   6.023   3.609   6.395 -0.0981 -2.5376  1.2205
  873MOL0     H15173   5.835   3.309   6.145 -2.4777  0.2584  2.1850
  873MOL0     H15174   5.850   3.252   6.314 -1.0078 -0.0690 -0.5292
  873MOL0     H15175   6.073   3.226   6.307 -3.4514  0.3680  1.4264
  873MOL0     H15176   6.093   3.283   6.137  2.5179 -2.4984  0.5481
  873MOL0     H15177   5.983   3.093   6.040 -2.6930 -0.6562  1.4209
  873MOL0     H15178   5.930   3.039   6.199  0.2501  3.2977  1.9524
  873MOL0     H15179   6.214   3.062   6.113 -0.3830  1.7452  1.5842
  873MOL0     H15180   6.159   3.006   6.271  0.8328  0.0887  0.1263
  873MOL0     H15181   6.021   2.840   6.085  0.7075 -1.1509  0.2564
  873MOL0     H15182   6.105   2.785   6.214  1.3182  1.6210  0.6494
  873MOL0     H15183   6.287   2.732   6.142 -0.6664 -0.9601  0.6972
  873MOL0     H15184   6.318   2.870   6.030 -0.2993  0.2791  0.4748
  873MOL0     H15185   6.122   2.630   5.997 -1.0534  1.5096  1.7738
  873MOL0     H15186   6.147   2.767   5.892  1.3912  3.3333  2.2541
  873MOL0     H15187   6.359   2.555   5.966  1.5256  0.3222 -1.0678
  873MOL0     H15188   6.366   2.674   5.828 -0.1191  0.3245 -1.5424
  873MOL0     H15189   6.107   2.660   5.683 -4.5867 -0.7358  1.3525
  873MOL0     H15190   5.970   2.511   5.499 -0.4388 -0.5127  0.0459
  873MOL0     H15191   6.015   2.342   5.480 -0.6578 -0.3389 -1.7262
  873MOL0     H15192   6.251   2.427   5.376 -0.4967 -0.9066 -0.6452
  873MOL0     H15193   6.163   2.584   5.383 -2.2284 -0.1744  3.0109
  873MOL0     H15194   6.105   2.348   5.207 -1.5018 -1.2425  0.2157
  873MOL0     H15195   5.967   2.423   5.272  0.1481 -1.4402 -0.9279
  873MOL0     H15196   6.006   2.515   5.061  3.1173 -1.3711 -0.6983
  873MOL0     H15197   6.162   2.546   5.082 -0.4096 -1.7411 -1.5626
  873MOL0     H15198   5.799   2.558   5.223 -1.2068  2.0205 -0.6036
  873MOL0     H15199   5.622   2.646   5.335 -0.8527  1.5916  1.6468
  873MOL0     H15200   5.303   2.928   5.513  1.3599 -2.3463  1.6140
  873MOL0     H15201   5.132   3.043   5.615 -0.5468  1.1762  0.2910
  873MOL0     H15202   5.198   3.331   5.899 -1.8190  0.0941 -0.0157
  873MOL0     H15203   5.211   3.222   6.036  3.3496  2.1294 -0.8134
  873MOL0     H15204   5.070   3.387   6.039  3.6425 -1.7581 -0.3246
  873MOL0     H15205   4.975   3.233   6.075 -2.7858  2.2366  0.4822
  873MOL0     H15206   4.886   3.250   5.837 -2.2448  0.4162  0.7429
  873MOL0     H15207   4.972   3.414   5.827 -1.6873  3.1526  1.9599
  873MOL0     H15208   4.808   3.507   5.974  0.0433  0.5360  0.7410
  873MOL0     H15209   4.733   3.423   5.842 -3.0337 -1.2063  2.6756
  873MOL0     H15210   4.775   3.314   6.123 -1.1861 -2.3348  1.1899
  873MOL0     H15211   4.709   3.215   6.000  1.0044  1.5605 -1.7409
  873MOL0     H15212   4.508   3.361   5.959 -2.0764  0.1705  0.7944
  873MOL0     H15213   4.581   3.484   6.061  0.7158  0.2236 -1.2122
  873MOL0     H15214   4.524   3.208   6.171  3.7268  0.1442 -0.9880
  873MOL0     H15215   4.546   3.366   6.261  2.9328 -3.9191  0.9481
  873MOL0     H15216   4.319   3.279   6.087  2.2606 -2.6415  0.7133
  873MOL0     H15217   4.318   3.437   6.161 -0.4707 -0.3190  0.4040
  873MOL0     H15218   5.391   3.148   5.941  0.4567 -2.2714  0.7038
  873MOL0     H15219   5.600   3.089   5.789  1.0010 -1.8246 -0.2806
  873MOL0     H15220   5.852   2.967   5.495 -1.1166  0.2151  0.0952
  873MOL0     H15221   6.043   2.887   5.338 -0.5208 -0.2933 -1.2200
  873MOL0     H15222   5.672   3.422   6.262  3.4343 -1.3838 -0.5437
  873MOL0     H15223   5.544   3.612   6.377 -0.1728  0.4118  0.6428
  873MOL0     H15224   5.628   4.146   6.747  0.7777  1.1449 -0.5470
  873MOL0     H15225   5.432   4.292   6.766  3.2704  0.4219  0.2904
  873MOL0     H15226   5.049   4.164   6.637  0.0863  2.1790  2.9322
  873MOL0     H15227   5.089   4.243   6.487 -1.7965 -2.5145 -0.0952
  873MOL0     H15228   4.939   4.335   6.742 -0.9811 -2.2200 -0.9447
  873MOL0     H15229   5.035   4.456   6.657  1.7985 -0.8595  1.4382
  873MOL0     H15230   4.842   4.276   6.507 -1.5260  0.0868 -0.1877
  873MOL0     H15231   4.891   4.450   6.475  1.9540  0.5211  1.8444
  873MOL0     H15232   4.712   4.367   6.698 -0.6904  1.8584  1.6012
  873MOL0     H15233   4.751   4.531   6.642 -0.1509 -1.6041  3.6283
  873MOL0     H15234   4.478   4.462   6.346 -0.6154  1.3232 -0.0515
  873MOL0     H15235   5.225   4.065   6.473  1.2405  0.2191 -0.8997
  873MOL0     H15236   5.394   3.912   6.459 -0.5432  0.6335 -0.2409
  874MOL0     O15237   8.323   8.418  10.666 -0.1393  0.4022  0.1610
  874MOL0     C15238   8.331   8.335  10.761 -0.3226  0.7357 -0.0795
  874MOL0     O15239   8.258   8.220  10.776  0.7353  0.0877 -0.2846
  874MOL0     C15240   8.170   8.198  10.673  0.7190 -0.1575  0.5428
  874MOL0     C15241   8.048   8.146  10.710 -0.1457 -0.7605 -0.6366
  874MOL0     C15242   7.947   8.106  10.620 -0.1204 -1.0732  0.7351
  874MOL0     C15243   7.955   8.133  10.483 -0.7900 -0.1574  0.2697
  874MOL0     O15244   7.857   8.097  10.394 -0.0108  0.1002  0.5229
  874MOL0     C15245   7.797   8.198  10.309 -0.3863  0.4178 -0.2464
  874MOL0     C15246   7.672   8.144  10.242  1.9976  0.0997 -0.4166
  874MOL0     C15247   7.608   8.244  10.149  0.2510 -0.5875 -0.4476
  874MOL0     C15248   7.476   8.198  10.089  0.0960  0.4034  0.2665
  874MOL0     C15249   7.354   8.194  10.183  0.0052 -0.5693 -0.5632
  874MOL0     C15250   7.224   8.153  10.116  0.2939  0.5698 -0.6382
  874MOL0     C15251   7.105   8.153  10.219  0.1359 -0.5812  0.1738
  874MOL0     C15252   7.094   8.024  10.291  0.1843  0.2326 -0.8431
  874MOL0     N15253   6.990   8.019  10.391 -0.5684 -0.2633 -0.3545
  874MOL0     C15254   6.937   7.907  10.442  0.0809  0.1693 -0.6936
  874MOL0     C15255   6.856   7.943  10.542 -0.2084  1.2614 -0.3677
  874MOL0     C15256   6.798   7.849  10.639  0.0994  0.1172 -0.6317
  874MOL0     C15257   6.647   7.834  10.609  0.8479 -1.3334  0.5889
  874MOL0     C15258   6.596   7.746  10.722  0.4521  0.3230 -0.0176
  874MOL0     C15259   6.461   7.684  10.669  0.8632 -1.0964  0.2206
  874MOL0     O15260   6.395   7.588  10.758  0.2039 -0.2363 -0.0732
  874MOL0     C15261   6.307   7.631  10.857 -0.8205  1.0719 -0.6187
  874MOL0     C15262   6.225   7.535  10.920  0.3223  0.4709 -0.0776
  874MOL0     C15263   6.129   7.565  11.014  0.1711  0.4996  0.0314
  874MOL0     C15264   6.101   7.694  11.053 -1.0017 -1.2750 -0.6426
  874MOL0     C15265   5.983   7.741  11.126 -0.0242 -0.3140 -0.0299
  874MOL0     O15266   5.866   7.673  11.127 -0.3801  0.8338  0.8297
  874MOL0     C15267   5.783   7.724  11.228  0.0159  0.0908  0.2423
  874MOL0     C15268   5.672   7.799  11.192  0.5934  0.4397 -0.3387
  874MOL0     C15269   5.579   7.854  11.284  0.2288 -0.1475  0.0762
  874MOL0     C15270   5.599   7.826  11.426 -0.3109  0.2161  0.0291
  874MOL0     O15271   5.516   7.864  11.526  0.3916 -0.1066  0.5400
  874MOL0     C15272   5.392   7.936  11.511  0.5430 -0.6878  0.3083
  874MOL0     C15273   5.418   8.089  11.468  0.3397  0.3135 -0.1578
  874MOL0     C15274   5.303   8.178  11.524  0.1233 -0.6235  0.0278
  874MOL0     C15275   5.347   8.330  11.537  0.1883 -1.0215  0.2331
  874MOL0     C15276   5.229   8.409  11.579  0.5109  0.2165 -0.4190
  874MOL0     C15277   5.238   8.546  11.504 -0.3964  0.4565 -0.5305
  874MOL0     C15278   5.122   8.647  11.531  0.4038  0.9923  0.1383
  874MOL0     C15279   5.124   8.777  11.444 -0.3570 -0.8145 -0.6880
  874MOL0    Cl15280   5.080   8.757  11.272  0.0424 -0.1011  0.9642
  874MOL0     C15281   5.696   7.733  11.458 -1.1834 -0.2034  1.1877
  874MOL0     C15282   5.784   7.683  11.361  0.3684 -0.0895  1.5358
  874MOL0     O15283   6.006   7.848  11.191  0.2542 -0.2492  0.4324
  874MOL0     C15284   6.187   7.793  10.992  1.2300  0.4424  0.0588
  874MOL0     C15285   6.281   7.757  10.900 -0.3210  0.2532 -0.6181
  874MOL0     N15286   6.840   8.081  10.546 -0.1095 -0.8922  0.2363
  874MOL0     N15287   6.925   8.120  10.452 -0.1385 -0.0981 -0.5545
  874MOL0     C15288   8.084   8.186  10.442  0.8365  0.2020  1.0002
  874MOL0     C15289   8.182   8.218  10.534 -0.6887 -0.0412  0.7298
  874MOL0     C15290   8.426   8.370  10.866 -0.4540 -0.6586 -0.3913
  874MOL0     C15291   8.426   8.313  10.994 -0.7406 -0.1847 -0.0502
  874MOL0     C15292   8.518   8.360  11.086  1.0275 -0.0760 -0.5584
  874MOL0     C15293   8.624   8.439  11.056 -0.0233 -0.5163 -0.3772
  874MOL0     O15294   8.719   8.470  11.161  0.3381  0.6744 -0.0144
  874MOL0     C15295   8.674   8.586  11.232 -0.0200  0.1308  0.4341
  874MOL0     C15296   8.748   8.595  11.359  0.2965 -0.1796 -0.3032
  874MOL0     C15297   8.900   8.631  11.341  0.3955 -0.4979 -0.9591
  874MOL0     C15298   8.921   8.777  11.389  0.2828  0.8966  0.1100
  874MOL0     C15299   9.073   8.795  11.393 -0.1698  0.4098 -0.4171
  874MOL0     C15300   9.186   8.821  11.401  0.3285 -0.5858  0.2142
  874MOL0     C15301   8.631   8.494  10.931  1.0253 -0.1217  0.8008
  874MOL0     C15302   8.527   8.478  10.839  0.2106  1.2637  0.0474
  874MOL0     H15303   8.049   8.136  10.818  2.5540 -0.1320 -0.5338
  874MOL0     H15304   7.860   8.044  10.642  0.8444 -2.7340  0.0151
  874MOL0     H15305   7.871   8.233  10.236  1.1453  2.9804  2.3124
  874MOL0     H15306   7.774   8.283  10.374  2.7220  0.3619  1.1018
  874MOL0     H15307   7.595   8.126  10.317  2.0803 -2.6265 -0.9009
  874MOL0     H15308   7.683   8.048  10.192  2.2060 -0.7191  1.1382
  874MOL0     H15309   7.682   8.262  10.070  0.3774 -0.1798 -0.2408
  874MOL0     H15310   7.601   8.334  10.211  0.7879 -0.5164 -0.4831
  874MOL0     H15311   7.468   8.257   9.998  4.4861 -0.3111 -0.8227
  874MOL0     H15312   7.502   8.098  10.054  0.8533  0.6285  0.1689
  874MOL0     H15313   7.342   8.293  10.228 -2.1684 -1.5891  1.3028
  874MOL0     H15314   7.382   8.127  10.264  3.9225  2.1454  0.6031
  874MOL0     H15315   7.228   8.048  10.088  0.6332  1.0454 -2.4458
  874MOL0     H15316   7.201   8.220  10.033  0.0931  1.3288  0.0140
  874MOL0     H15317   7.114   8.233  10.293  0.4721 -2.1723  1.9385
  874MOL0     H15318   7.017   8.171  10.156 -0.4817  0.9284  1.3951
  874MOL0     H15319   7.191   8.004  10.337  0.0867  1.1958 -0.1856
  874MOL0     H15320   7.067   7.949  10.217  1.2763 -1.3130  0.2529
  874MOL0     H15321   6.960   7.805  10.415  1.1126 -0.2432  1.5034
  874MOL0     H15322   6.820   7.896  10.735  0.1440  0.8298 -0.9832
  874MOL0     H15323   6.842   7.749  10.636 -2.7169 -1.2706  0.3783
  874MOL0     H15324   6.634   7.792  10.509 -0.6778 -2.9965  1.4231
  874MOL0     H15325   6.597   7.931  10.607  1.8135 -0.7366  2.7698
  874MOL0     H15326   6.664   7.663  10.743  1.4903  1.3707  0.9383
  874MOL0     H15327   6.580   7.810  10.809  1.0152  2.2315 -1.2604
  874MOL0     H15328   6.478   7.634  10.574  0.9793 -0.5035 -0.0797
  874MOL0     H15329   6.394   7.767  10.642 -1.2459 -3.0659 -0.9913
  874MOL0     H15330   6.223   7.428  10.903 -2.1443 -0.1729  3.3298
  874MOL0     H15331   6.076   7.486  11.066  1.1483  0.6509  1.3158
  874MOL0     H15332   5.672   7.816  11.085  1.3706 -1.0380 -0.5996
  874MOL0     H15333   5.487   7.905  11.257  1.4541  1.8425 -0.5256
  874MOL0     H15334   5.345   7.926  11.609  1.8550  0.9772  1.1675
  874MOL0     H15335   5.328   7.899  11.431 -1.5985  1.4054  0.9497
  874MOL0     H15336   5.432   8.104  11.361  0.9430  0.3753 -0.0730
  874MOL0     H15337   5.516   8.099  11.514 -0.4543 -0.1473  1.7434
  874MOL0     H15338   5.262   8.147  11.620 -3.3816 -2.3971 -1.8552
  874MOL0     H15339   5.219   8.173  11.454  0.4754  0.3951 -0.4933
  874MOL0     H15340   5.437   8.351  11.595  1.0582 -0.0347 -1.4029
  874MOL0     H15341   5.385   8.354  11.437 -0.1483  0.7733  0.5123
  874MOL0     H15342   5.226   8.410  11.689 -2.7066 -0.0500 -0.4264
  874MOL0     H15343   5.141   8.351  11.550  1.9740 -0.9823 -2.7409
  874MOL0     H15344   5.241   8.523  11.397  1.9051  1.0577 -0.6399
  874MOL0     H15345   5.338   8.584  11.525 -0.3860 -0.3690  1.0526
  874MOL0     H15346   5.028   8.594  11.519  0.6799  0.7055 -0.8443
  874MOL0     H15347   5.125   8.685  11.633 -3.2932  2.0852 -0.0242
  874MOL0     H15348   5.228   8.812  11.444  0.9690 -4.1850  1.6099
  874MOL0     H15349   5.060   8.856  11.484  3.5772  2.2755  0.1494
  874MOL0     H15350   5.713   7.706  11.562  1.2554  0.4620  1.0449
  874MOL0     H15351   5.855   7.609  11.398 -1.3162 -0.3621  4.5460
  874MOL0     H15352   6.175   7.896  11.021  0.5377  0.7260 -1.1650
  874MOL0     H15353   6.352   7.828  10.860  3.8052 -1.9991  1.9076
  874MOL0     H15354   8.099   8.184  10.335  1.5434  2.5164  0.9910
  874MOL0     H15355   8.275   8.263  10.500 -1.1360  1.3568  1.2720
  874MOL0     H15356   8.351   8.239  11.022  0.2356 -0.9901  0.5028
  874MOL0     H15357   8.517   8.315  11.185 -2.2332 -0.6616 -0.7431
  874MOL0     H15358   8.567   8.572  11.248 -0.3187 -2.2201 -2.6406
  874MOL0     H15359   8.685   8.674  11.167 -0.5181  1.4649  2.0778
  874MOL0     H15360   8.690   8.659  11.426 -1.3422 -0.0886 -1.7518
  874MOL0     H15361   8.752   8.496  11.405  0.9884 -0.2686 -0.5501
  874MOL0     H15362   8.919   8.613  11.235 -1.6807  4.1261 -2.3643
  874MOL0     H15363   8.960   8.568  11.408  2.7298 -1.1561 -3.5111
  874MOL0     H15364   8.870   8.857  11.333 -2.3455 -0.5194  0.3173
  874MOL0     H15365   8.880   8.790  11.489  1.7556 -0.6891  0.9637
  874MOL0     H15366   9.284   8.863  11.410 -1.2058  3.3592  0.8037
  874MOL0     H15367   8.699   8.569  10.893  0.4314 -0.5207 -1.1769
  874MOL0     H15368   8.535   8.530  10.745 -2.6428  0.4481 -0.7356
  875MOL0     O15369   5.577   3.002  11.037  0.0681 -0.4356  0.7489
  875MOL0     C15370   5.550   3.104  11.099  0.1840 -0.6646 -0.7718
  875MOL0     O15371   5.638   3.173  11.185 -0.4188 -0.2448 -0.0378
  875MOL0     C15372   5.767   3.133  11.208  0.4385 -0.6826  0.1266
  875MOL0     C15373   5.844   3.123  11.101  0.3436  0.8083  0.8486
  875MOL0     C15374   5.975   3.064  11.111 -0.0202 -0.0429 -0.5231
  875MOL0     C15375   6.032   3.036  11.239 -0.2272  0.2792  0.1313
  875MOL0     O15376   6.155   2.975  11.246  0.3394 -0.0980  0.4830
  875MOL0     C15377   6.214   2.942  11.365  1.2453 -0.6454  0.6743
  875MOL0     C15378   6.328   2.857  11.325 -0.9106 -0.8241  0.5679
  875MOL0     C15379   6.428   2.916  11.217 -1.3004  0.7625  0.1742
  875MOL0     C15380   6.519   2.808  11.152 -0.0194 -0.2977 -0.2219
  875MOL0     C15381   6.546   2.830  11.001 -0.9540 -0.3952  0.1392
  875MOL0     C15382   6.601   2.963  10.961  0.5188  0.5395 -0.0930
  875MOL0     C15383   6.744   2.990  11.016 -0.8565  0.7760 -0.1578
  875MOL0     C15384   6.809   3.115  10.955  0.0943  0.1396 -0.1672
  875MOL0     N15385   6.941   3.127  11.011 -0.4023 -0.9688 -0.4398
  875MOL0     C15386   7.043   3.028  11.003 -0.1478  0.0911 -0.7160
  875MOL0     C15387   7.151   3.084  11.060  0.4689 -0.9821  0.7089
  875MOL0     C15388   7.291   3.036  11.047 -0.7706 -0.2609 -0.2326
  875MOL0     C15389   7.327   2.958  10.919  0.6159 -0.0237  0.0878
  875MOL0     C15390   7.383   2.825  10.962 -0.7080 -0.3972 -0.3619
  875MOL0     C15391   7.523   2.822  11.028 -0.9906 -0.0378  1.4930
  875MOL0     O15392   7.624   2.851  10.939 -0.5349 -0.6071 -0.1489
  875MOL0     C15393   7.750   2.798  10.952  0.2009 -0.1666  0.2488
  875MOL0     C15394   7.829   2.768  10.844  0.6861  0.0898 -0.7512
  875MOL0     C15395   7.954   2.715  10.863  0.8588 -0.1684  0.8053
  875MOL0     C15396   8.018   2.696  10.987  0.1220 -0.4294  0.2293
  875MOL0     C15397   8.160   2.640  10.991  0.6338  0.0535  0.0632
  875MOL0     O15398   8.220   2.593  10.872  0.3312  0.3394 -0.1440
  875MOL0     C15399   8.347   2.604  10.838 -0.4084  0.0552  0.3122
  875MOL0     C15400   8.448   2.692  10.899  0.1991  0.2282 -0.0648
  875MOL0     C15401   8.580   2.702  10.847 -1.1464 -0.8411 -0.1711
  875MOL0     C15402   8.613   2.624  10.732 -0.3863 -0.6072  0.2404
  875MOL0     O15403   8.727   2.646  10.656 -0.4388  0.7169  0.4333
  875MOL0     C15404   8.798   2.775  10.674  0.9076 -0.1722 -0.8228
  875MOL0     C15405   8.921   2.773  10.574 -0.1059 -0.6209 -0.1848
  875MOL0     C15406   8.878   2.787  10.431  0.1463  0.6940 -0.6099
  875MOL0     C15407   8.841   2.931  10.393 -0.2301 -0.2203 -0.4918
  875MOL0     C15408   8.778   2.961  10.253  0.4660  0.6126 -0.0128
  875MOL0     C15409   8.847   2.891  10.139  0.0359 -0.7367 -0.7830
  875MOL0     C15410   8.806   2.953  10.008  0.5611 -0.5012  0.3946
  875MOL0     C15411   8.858   2.882   9.883  0.1843 -0.4940  0.0356
  875MOL0    Cl15412   8.788   2.944   9.740  0.0675  0.1841  0.4170
  875MOL0     C15413   8.513   2.530  10.691  0.5280  0.0086 -0.0573
  875MOL0     C15414   8.381   2.515  10.741 -0.7627  0.0374  0.8069
  875MOL0     O15415   8.215   2.670  11.101 -0.0547 -0.5679  0.0609
  875MOL0     C15416   7.945   2.740  11.091  0.2775 -0.4390  0.3750
  875MOL0     C15417   7.815   2.794  11.079  0.7432  0.4356  0.5797
  875MOL0     N15418   7.118   3.214  11.087 -0.5168 -0.5062  0.4403
  875MOL0     N15419   6.998   3.245  11.041  0.3838  0.4778 -0.2836
  875MOL0     C15420   5.953   3.063  11.353 -0.3120  0.0404  0.3070
  875MOL0     C15421   5.822   3.114  11.336 -0.5166 -0.1442 -0.4825
  875MOL0     C15422   5.408   3.153  11.102 -0.5455 -0.4612 -0.2897
  875MOL0     C15423   5.359   3.235  11.203 -0.4623  0.7757 -0.0760
  875MOL0     C15424   5.225   3.262  11.212 -0.4905  0.2309 -0.5315
  875MOL0     C15425   5.134   3.234  11.101 -1.3493 -0.0397  0.2854
  875MOL0     O15426   5.001   3.268  11.094  0.6869  0.0221  0.1966
  875MOL0     C15427   4.956   3.370  11.196 -0.6661 -0.2613 -0.3109
  875MOL0     C15428   4.823   3.430  11.148  0.2522  1.0585 -0.1283
  875MOL0     C15429   4.763   3.538  11.227  0.0078 -0.0817 -0.4829
  875MOL0     C15430   4.635   3.584  11.161 -0.8758  0.5394  0.3104
  875MOL0     C15431   4.549   3.663  11.254  0.2436 -0.2270  0.2520
  875MOL0     C15432   4.489   3.736  11.331 -0.5453  0.2553 -0.8268
  875MOL0     C15433   5.189   3.172  10.990  0.1154  0.0024 -0.4139
  875MOL0     C15434   5.315   3.123  10.995 -0.7965  0.8948  0.0040
  875MOL0     H15435   5.805   3.147  11.003 -0.1781 -2.2400  0.1813
  875MOL0     H15436   6.003   3.037  11.010  0.1482 -3.0006  0.2204
  875MOL0     H15437   6.151   2.874  11.422  0.1178 -0.1067  0.0921
  875MOL0     H15438   6.240   3.029  11.425 -4.6257  1.0926  1.3091
  875MOL0     H15439   6.270   2.775  11.283 -0.1406 -0.3163 -1.6459
  875MOL0     H15440   6.379   2.815  11.413 -1.9305 -0.2047  1.4791
  875MOL0     H15441   6.492   2.995  11.257 -1.8972 -0.7704  4.6887
  875MOL0     H15442   6.369   2.950  11.131 -1.0385 -2.3148 -1.3878
  875MOL0     H15443   6.614   2.802  11.205  0.2625 -1.6509 -0.8226
  875MOL0     H15444   6.466   2.712  11.153  0.4902 -0.6338 -1.9484
  875MOL0     H15445   6.455   2.815  10.943 -1.8643 -1.9170  1.8513
  875MOL0     H15446   6.614   2.754  10.962  1.8624  1.2005  1.5250
  875MOL0     H15447   6.538   3.044  10.997  0.0530  1.2775 -2.4504
  875MOL0     H15448   6.608   2.974  10.852  0.2683  3.2626  0.0965
  875MOL0     H15449   6.750   3.012  11.123  1.4428  0.2466 -0.1249
  875MOL0     H15450   6.804   2.900  11.000 -1.3067  0.4335  0.0619
  875MOL0     H15451   6.754   3.206  10.983  0.2275  0.9151 -2.2068
  875MOL0     H15452   6.810   3.107  10.846 -2.7552  1.3686 -0.3903
  875MOL0     H15453   7.035   2.928  10.961  0.6789 -0.4309  0.3180
  875MOL0     H15454   7.298   2.972  11.136  1.3007  1.2729  0.7979
  875MOL0     H15455   7.368   3.111  11.066  0.7249 -1.6648 -0.5144
  875MOL0     H15456   7.397   3.024  10.867  0.1805 -0.3945 -0.9839
  875MOL0     H15457   7.240   2.953  10.853  0.2315  2.0748  0.3576
  875MOL0     H15458   7.306   2.786  11.029 -1.2808 -0.6698 -1.1527
  875MOL0     H15459   7.385   2.760  10.874  3.1297 -0.5466 -0.3129
  875MOL0     H15460   7.540   2.723  11.071  2.9583 -0.4879 -0.5655
  875MOL0     H15461   7.522   2.884  11.118 -2.4729  1.2681  0.6180
  875MOL0     H15462   7.784   2.772  10.745 -0.8037 -1.3082 -0.1838
  875MOL0     H15463   8.015   2.699  10.775 -0.0452  0.8800 -0.0437
  875MOL0     H15464   8.409   2.759  10.975  2.0466  1.8021 -0.4371
  875MOL0     H15465   8.655   2.771  10.886 -2.2209 -0.2722  0.9566
  875MOL0     H15466   8.832   2.786  10.778  1.4675 -1.9852 -0.7800
  875MOL0     H15467   8.726   2.856  10.658 -0.0120 -0.6878  0.4993
  875MOL0     H15468   8.969   2.678  10.595 -0.6615 -0.4450  2.2152
  875MOL0     H15469   8.985   2.860  10.594 -1.6897 -0.0434  3.1274
  875MOL0     H15470   8.783   2.736  10.416  0.8783 -0.1379 -2.7890
  875MOL0     H15471   8.964   2.756  10.371  0.6719 -0.1841  0.5695
  875MOL0     H15472   8.762   2.971  10.457 -0.0002  0.3896 -0.5871
  875MOL0     H15473   8.924   3.001  10.405 -0.2476 -0.2443 -0.2068
  875MOL0     H15474   8.788   3.067  10.230  0.3263  0.7627  0.6001
  875MOL0     H15475   8.671   2.938  10.263  0.7299  0.2293  2.7354
  875MOL0     H15476   8.828   2.783  10.138  0.2240 -0.9006  2.3711
  875MOL0     H15477   8.956   2.906  10.142 -0.2448  2.1898 -1.7766
  875MOL0     H15478   8.699   2.944   9.985  0.9861  0.7257 -2.5074
  875MOL0     H15479   8.830   3.060  10.004 -2.0255  0.1270 -1.0291
  875MOL0     H15480   8.819   2.780   9.888 -0.3407 -0.2245  2.5073
  875MOL0     H15481   8.968   2.880   9.885  0.1989  0.2240  1.5863
  875MOL0     H15482   8.546   2.477  10.602  1.4819  1.0237 -0.3257
  875MOL0     H15483   8.312   2.438  10.706  1.9417 -2.5196  0.6164
  875MOL0     H15484   7.967   2.731  11.197 -0.7376  2.9834  1.0260
  875MOL0     H15485   7.762   2.835  11.164 -2.8654  1.0078 -1.7295
  875MOL0     H15486   5.994   3.059  11.454 -1.4264  0.5324  0.7959
  875MOL0     H15487   5.761   3.135  11.422  2.4089  0.6061  1.5697
  875MOL0     H15488   5.420   3.272  11.284 -0.3509  4.8294 -1.7469
  875MOL0     H15489   5.202   3.317  11.302  1.6713  0.9836 -0.3704
  875MOL0     H15490   5.037   3.443  11.206  1.4794 -2.3186 -1.6072
  875MOL0     H15491   4.939   3.334  11.298  0.5842 -2.5543 -0.8405
  875MOL0     H15492   4.839   3.466  11.046 -3.0193  2.7372 -0.1758
  875MOL0     H15493   4.749   3.350  11.138  0.5328  0.8335 -0.4247
  875MOL0     H15494   4.830   3.621  11.250  3.3935 -2.4737 -1.0119
  875MOL0     H15495   4.751   3.490  11.324 -0.2139  1.1744  0.1244
  875MOL0     H15496   4.671   3.657  11.088  1.0870  0.5373  1.1954
  875MOL0     H15497   4.585   3.505  11.106 -1.3463  0.1451  1.2770
  875MOL0     H15498   4.441   3.788  11.412  2.1813  2.2274 -0.3389
  875MOL0     H15499   5.127   3.155  10.903  0.0563 -1.3779 -0.1321
  875MOL0     H15500   5.370   3.091  10.907 -0.1951  1.6163  0.1047
  876MOL0     O15501   1.699   7.317   3.678  0.2245  0.0301 -0.3917
  876MOL0     C15502   1.738   7.395   3.762  1.1035 -0.0173 -0.3460
  876MOL0     O15503   1.858   7.469   3.761  0.0406 -0.0309  0.4916
  876MOL0     C15504   1.944   7.451   3.657  0.8904  0.0289  1.0707
  876MOL0     C15505   1.957   7.551   3.569  0.7251  0.1780  0.2198
  876MOL0     C15506   2.058   7.535   3.475 -0.2682 -0.1098  0.4130
  876MOL0     C15507   2.146   7.431   3.475 -0.0674 -0.6477 -0.9177
  876MOL0     O15508   2.242   7.431   3.376 -0.1438 -0.0947 -0.0531
  876MOL0     C15509   2.335   7.325   3.339  0.0306  0.1101  0.4748
  876MOL0     C15510   2.412   7.360   3.209 -0.1495 -0.4392 -0.2032
  876MOL0     C15511   2.515   7.249   3.173 -0.4457  0.1773  0.2258
  876MOL0     C15512   2.614   7.300   3.067  0.3641  0.7694 -0.2602
  876MOL0     C15513   2.730   7.386   3.129 -1.8771  0.1905  0.8531
  876MOL0     C15514   2.838   7.422   3.025  0.0405  0.7517  0.4585
  876MOL0     C15515   2.938   7.306   3.010  0.5451  0.2103 -0.1978
  876MOL0     C15516   3.037   7.328   2.900 -0.5858 -0.1506  0.3115
  876MOL0     N15517   3.133   7.442   2.931 -0.1262  0.3525  0.1331
  876MOL0     C15518   3.245   7.422   3.005  0.1108 -0.4466 -1.4165
  876MOL0     C15519   3.299   7.552   3.018 -0.1583 -0.0862 -0.6829
  876MOL0     C15520   3.421   7.604   3.084 -0.4064  0.0778 -1.2405
  876MOL0     C15521   3.522   7.636   2.976 -0.3201 -0.6785 -0.2221
  876MOL0     C15522   3.570   7.507   2.914  0.5184  0.2077  0.7348
  876MOL0     C15523   3.727   7.490   2.930 -0.3716  0.1755 -0.3194
  876MOL0     O15524   3.782   7.592   2.848  0.2330  0.6566  0.2666
  876MOL0     C15525   3.916   7.625   2.867 -0.6480  0.8191 -0.3857
  876MOL0     C15526   3.954   7.760   2.881  0.1510  0.3499 -0.4040
  876MOL0     C15527   4.081   7.800   2.928  0.1777 -0.4277  0.3599
  876MOL0     C15528   4.174   7.698   2.955  0.1043 -0.3384 -0.1801
  876MOL0     C15529   4.310   7.734   2.998  0.2912  0.4414 -0.8164
  876MOL0     O15530   4.398   7.631   3.009 -0.3467 -0.4161 -0.2929
  876MOL0     C15531   4.526   7.672   3.041  0.8059 -0.3450  0.1043
  876MOL0     C15532   4.595   7.641   3.157 -0.7532 -0.6901 -0.9321
  876MOL0     C15533   4.722   7.691   3.190  1.0119  0.0625  0.4451
  876MOL0     C15534   4.784   7.762   3.099 -0.2602 -0.7511  0.4349
  876MOL0     O15535   4.920   7.792   3.095 -0.0300  0.3048  0.0640
  876MOL0     C15536   4.954   7.878   3.201  0.4285  0.2968 -0.5019
  876MOL0     C15537   5.097   7.919   3.172 -1.2477 -0.6148 -0.3761
  876MOL0     C15538   5.119   7.985   3.036  0.6552 -0.7270  0.7663
  876MOL0     C15539   5.049   8.123   3.023  0.2022 -0.0607  0.6700
  876MOL0     C15540   5.072   8.199   2.888  0.6548  0.5210  0.5403
  876MOL0     C15541   4.985   8.152   2.767 -0.9531 -0.3453 -0.0844
  876MOL0     C15542   4.972   8.264   2.663  0.3509 -0.5157  0.2807
  876MOL0     C15543   4.885   8.218   2.541 -0.8008 -0.1028 -0.1470
  876MOL0    Cl15544   4.741   8.142   2.607  0.0145 -0.0644 -0.1617
  876MOL0     C15545   4.725   7.795   2.975  0.3030 -0.7792  0.0444
  876MOL0     C15546   4.592   7.746   2.944 -0.0621  0.0270  0.0620
  876MOL0     O15547   4.331   7.852   3.025  0.6061 -1.0084 -0.2583
  876MOL0     C15548   4.140   7.569   2.939  0.3025  0.7375  0.3278
  876MOL0     C15549   4.018   7.527   2.895  0.5932  0.1430  0.2805
  876MOL0     N15550   3.218   7.636   2.946 -0.0004  0.6083 -0.3182
  876MOL0     N15551   3.135   7.565   2.882  0.2210  0.7297  0.3205
  876MOL0     C15552   2.128   7.333   3.563  0.5652  0.3015  0.4855
  876MOL0     C15553   2.030   7.346   3.660  0.4155 -0.2408 -0.7567
  876MOL0     C15554   1.631   7.422   3.864  1.0501  0.6412  0.2118
  876MOL0     C15555   1.649   7.521   3.960  0.2748  0.5982 -0.7895
  876MOL0     C15556   1.558   7.544   4.058  0.3577  0.2182  0.6167
  876MOL0     C15557   1.441   7.464   4.070  0.7521 -0.0182  0.4702
  876MOL0     O15558   1.360   7.484   4.169  0.6046 -0.0090  0.6608
  876MOL0     C15559   1.413   7.493   4.300  0.2781 -0.6303 -0.5704
  876MOL0     C15560   1.492   7.368   4.350  0.4474  0.0646  0.3261
  876MOL0     C15561   1.424   7.224   4.314  0.1211  0.3631  0.3698
  876MOL0     C15562   1.272   7.209   4.362 -0.0591  0.8366 -0.3460
  876MOL0     C15563   1.211   7.082   4.322  0.5553  1.1924 -0.0674
  876MOL0     C15564   1.162   6.979   4.280  1.1238 -0.2619  0.0289
  876MOL0     C15565   1.413   7.371   3.966 -0.9301 -0.2044 -0.6663
  876MOL0     C15566   1.512   7.341   3.872  0.4133 -0.1870  0.1086
  876MOL0     H15567   1.890   7.635   3.585  1.5738  0.2679  4.4962
  876MOL0     H15568   2.072   7.610   3.398 -0.6974 -0.9055 -0.4440
  876MOL0     H15569   2.280   7.233   3.316  0.9785  0.1041 -2.1209
  876MOL0     H15570   2.403   7.294   3.418  1.9945 -2.0959 -1.8902
  876MOL0     H15571   2.466   7.453   3.230  0.0271 -0.5916  0.0212
  876MOL0     H15572   2.333   7.368   3.133 -0.2297 -0.8420 -0.1620
  876MOL0     H15573   2.459   7.160   3.145 -2.5705  0.6965  2.4980
  876MOL0     H15574   2.577   7.215   3.257  2.0683  0.8831 -1.2474
  876MOL0     H15575   2.663   7.220   3.011  1.0413 -1.4828  3.2503
  876MOL0     H15576   2.553   7.351   2.992  1.6130 -0.9635 -2.5645
  876MOL0     H15577   2.770   7.328   3.212 -0.9775  3.4761  2.8921
  876MOL0     H15578   2.691   7.477   3.175  0.5479  2.4094 -1.1780
  876MOL0     H15579   2.897   7.510   3.051 -2.3568  3.5313 -2.6455
  876MOL0     H15580   2.791   7.444   2.929 -0.6633  1.1338  0.8853
  876MOL0     H15581   2.981   7.298   3.111  0.2526 -1.1420 -0.1596
  876MOL0     H15582   2.886   7.214   2.983  0.4542 -0.0993  0.9890
  876MOL0     H15583   2.984   7.359   2.810  0.2671 -3.3299 -1.4630
  876MOL0     H15584   3.095   7.235   2.896 -2.4707 -1.3506 -0.6163
  876MOL0     H15585   3.289   7.330   3.040  1.8255  1.0086  0.4737
  876MOL0     H15586   3.452   7.523   3.151  2.6311  1.3799 -0.9063
  876MOL0     H15587   3.392   7.683   3.155  0.7472  0.7112 -1.4626
  876MOL0     H15588   3.606   7.688   3.025 -3.1587  2.8757  1.3404
  876MOL0     H15589   3.473   7.708   2.909 -2.6205 -0.6159  1.4313
  876MOL0     H15590   3.523   7.416   2.953 -1.0870 -0.2554 -1.9799
  876MOL0     H15591   3.538   7.501   2.809  1.1376 -0.4011  0.5773
  876MOL0     H15592   3.748   7.389   2.894  2.0124 -0.1070  1.6448
  876MOL0     H15593   3.767   7.495   3.032  0.7495 -0.3611 -0.7172
  876MOL0     H15594   3.876   7.836   2.882  0.7940  1.0320 -0.8255
  876MOL0     H15595   4.096   7.904   2.956  1.0979  0.5891 -3.3137
  876MOL0     H15596   4.558   7.576   3.236  2.5237 -0.1941  1.2301
  876MOL0     H15597   4.763   7.685   3.290  3.0022  2.9715 -0.0724
  876MOL0     H15598   4.950   7.821   3.294  0.9328  1.1800  0.0712
  876MOL0     H15599   4.886   7.964   3.205  2.1773  1.7797 -1.1506
  876MOL0     H15600   5.163   7.833   3.187  1.0047  1.0970  0.0637
  876MOL0     H15601   5.127   7.988   3.252 -0.0957 -2.2990  0.7075
  876MOL0     H15602   5.096   7.932   2.943  2.8461  1.3053 -1.1002
  876MOL0     H15603   5.226   8.009   3.035  0.1887  1.7176 -1.2769
  876MOL0     H15604   4.942   8.124   3.042  0.0245 -0.5134 -0.2161
  876MOL0     H15605   5.082   8.178   3.111 -2.6248 -1.1392  2.5305
  876MOL0     H15606   5.176   8.207   2.855  0.3126  1.1199 -0.4231
  876MOL0     H15607   5.036   8.301   2.904 -3.5210 -0.2300 -2.4704
  876MOL0     H15608   4.887   8.128   2.810 -0.6618 -0.2121  0.6538
  876MOL0     H15609   5.036   8.066   2.721  1.1568  1.7491 -1.9712
  876MOL0     H15610   4.930   8.352   2.711  4.0601  1.7247 -0.1195
  876MOL0     H15611   5.070   8.289   2.620 -0.4047  0.2347 -1.0573
  876MOL0     H15612   4.942   8.155   2.472  0.5423  1.1787 -0.2523
  876MOL0     H15613   4.864   8.303   2.475  2.9095 -1.1101 -2.9617
  876MOL0     H15614   4.777   7.859   2.904 -2.5231 -0.0957 -1.5824
  876MOL0     H15615   4.549   7.758   2.845  1.0594 -1.1437 -0.5990
  876MOL0     H15616   4.207   7.485   2.956  1.9619  1.1138 -3.4139
  876MOL0     H15617   4.004   7.422   2.869  0.4537  0.7149 -2.2822
  876MOL0     H15618   2.206   7.258   3.560  0.4158  0.1456  0.5179
  876MOL0     H15619   2.048   7.291   3.752  2.0920  0.7887 -0.4105
  876MOL0     H15620   1.723   7.599   3.973 -1.0251  1.6943  0.4792
  876MOL0     H15621   1.568   7.616   4.139 -1.9975  0.1489  1.0392
  876MOL0     H15622   1.320   7.498   4.359  0.2913 -0.5158 -0.5596
  876MOL0     H15623   1.473   7.584   4.311  1.6155 -1.3473 -1.7258
  876MOL0     H15624   1.594   7.367   4.310  0.1114  0.6771 -0.5700
  876MOL0     H15625   1.498   7.374   4.459 -2.1172 -1.9051  0.6866
  876MOL0     H15626   1.478   7.151   4.375 -2.3647 -0.2075  2.0328
  876MOL0     H15627   1.443   7.201   4.208 -1.5086  1.8631 -0.2910
  876MOL0     H15628   1.264   7.216   4.471 -0.3102  1.3742 -0.3957
  876MOL0     H15629   1.218   7.296   4.325 -0.0884 -0.4440 -3.6612
  876MOL0     H15630   1.124   6.888   4.239  3.2638 -1.5223  0.6716
  876MOL0     H15631   1.316   7.323   3.954 -1.6136  1.0670 -0.4995
  876MOL0     H15632   1.489   7.269   3.794  0.2670  2.5529 -2.5717
  877MOL0     O15633   3.131   1.999   9.168  0.7858 -0.7856 -0.5453
  877MOL0     C15634   3.189   2.008   9.277  0.2392  0.7425  0.5846
  877MOL0     O15635   3.137   2.062   9.388 -0.0809 -0.2779 -0.7082
  877MOL0     C15636   3.021   2.132   9.381 -0.0177  0.6955  0.3266
  877MOL0     C15637   3.011   2.252   9.448  0.2866 -0.3728 -0.7970
  877MOL0     C15638   2.890   2.325   9.450 -0.4013  0.6306 -1.5222
  877MOL0     C15639   2.778   2.278   9.379  0.8014  0.5684  0.4130
  877MOL0     O15640   2.667   2.354   9.376  1.0695  0.2757  0.2297
  877MOL0     C15641   2.535   2.315   9.320  0.2086 -0.4915 -0.5725
  877MOL0     C15642   2.429   2.410   9.378  0.0215  0.8223  0.1623
  877MOL0     C15643   2.301   2.385   9.299  0.1563  0.2047 -0.5897
  877MOL0     C15644   2.184   2.453   9.362  0.7315 -0.1290 -0.6370
  877MOL0     C15645   2.081   2.447   9.263  0.2770 -0.2180 -0.1061
  877MOL0     C15646   1.958   2.533   9.299 -0.1330 -0.2454  0.1571
  877MOL0     C15647   1.856   2.517   9.183  0.0793  0.2420 -0.8185
  877MOL0     C15648   1.721   2.587   9.205  0.6782  0.2514 -0.0670
  877MOL0     N15649   1.736   2.727   9.241  0.0797  0.5340 -0.4427
  877MOL0     C15650   1.802   2.822   9.166 -0.3818  0.0714 -0.9235
  877MOL0     C15651   1.787   2.936   9.228 -0.1793 -0.2158 -0.3113
  877MOL0     C15652   1.868   3.066   9.201  0.7693 -0.1969  0.4128
  877MOL0     C15653   2.022   3.033   9.218 -0.7160  0.2205 -0.4291
  877MOL0     C15654   2.114   3.155   9.210  0.0158  0.1861  0.1356
  877MOL0     C15655   2.256   3.116   9.227 -0.7478  0.8432 -0.5074
  877MOL0     O15656   2.339   3.236   9.256 -0.1150 -0.1575  0.6421
  877MOL0     C15657   2.458   3.229   9.311 -0.2492  0.0974 -0.5136
  877MOL0     C15658   2.528   3.354   9.316 -0.7058  0.0585  0.5912
  877MOL0     C15659   2.664   3.364   9.353  0.7049 -0.1945  0.2434
  877MOL0     C15660   2.729   3.250   9.383 -0.4967  0.2783 -0.3290
  877MOL0     C15661   2.876   3.247   9.422  1.1425  0.7971 -0.0719
  877MOL0     O15662   2.942   3.121   9.438  0.5838 -0.3702 -0.2113
  877MOL0     C15663   3.069   3.113   9.496 -0.3731  0.1348  0.0204
  877MOL0     C15664   3.106   2.996   9.560  0.8233  0.1280 -0.3500
  877MOL0     C15665   3.241   2.961   9.596  0.0954  0.0746  1.2199
  877MOL0     C15666   3.338   3.057   9.576 -0.0356 -0.3715 -0.0919
  877MOL0     O15667   3.473   3.045   9.620 -0.1757 -0.4817 -0.7222
  877MOL0     C15668   3.502   2.936   9.704 -0.2299  0.8094 -0.3605
  877MOL0     C15669   3.658   2.945   9.733  0.5673  0.5081 -0.1581
  877MOL0     C15670   3.741   2.958   9.601 -0.0298 -0.0645 -0.3698
  877MOL0     C15671   3.881   2.897   9.627 -0.5500  0.3788  0.1063
  877MOL0     C15672   3.989   2.941   9.527 -0.4026  0.6651  0.1948
  877MOL0     C15673   4.113   2.857   9.535  0.4622 -0.5876 -0.4638
  877MOL0     C15674   4.217   2.912   9.436 -0.1064 -0.2502 -0.5985
  877MOL0     C15675   4.360   2.855   9.463 -0.1062  0.5710 -0.0540
  877MOL0    Cl15676   4.462   2.966   9.368 -0.4416 -0.3041 -0.6569
  877MOL0     C15677   3.302   3.176   9.505 -0.3148 -0.2547 -0.8473
  877MOL0     C15678   3.173   3.209   9.475 -0.3801 -0.1865 -0.1880
  877MOL0     O15679   2.921   3.358   9.453 -0.5741 -0.2358  0.7680
  877MOL0     C15680   2.659   3.129   9.383  0.5629  0.1090  0.2454
  877MOL0     C15681   2.521   3.121   9.353 -0.6718 -0.6702  0.3525
  877MOL0     N15682   1.705   2.917   9.340 -0.8111 -0.1554 -0.5431
  877MOL0     N15683   1.684   2.793   9.349 -0.0724  0.1665  0.2747
  877MOL0     C15684   2.789   2.163   9.303 -0.0766  0.7712  0.0791
  877MOL0     C15685   2.907   2.088   9.310 -0.1288  0.2370  0.2032
  877MOL0     C15686   3.331   1.964   9.292 -0.0426 -0.7113  0.2962
  877MOL0     C15687   3.401   1.940   9.175  0.5521  0.6395  1.5324
  877MOL0     C15688   3.537   1.913   9.181 -0.3454  0.3726 -0.1755
  877MOL0     C15689   3.598   1.894   9.315 -0.5325 -0.5253  0.9845
  877MOL0     O15690   3.727   1.849   9.328  0.5964  0.0322  0.7295
  877MOL0     C15691   3.828   1.932   9.268 -1.3228  0.3544 -0.0602
  877MOL0     C15692   3.943   1.865   9.194 -1.0908 -0.7671 -0.4608
  877MOL0     C15693   4.077   1.883   9.270 -0.8985  0.6719 -0.2128
  877MOL0     C15694   4.197   1.838   9.183 -0.4096 -0.1936 -0.2473
  877MOL0     C15695   4.205   1.706   9.126 -0.4762 -0.7462  0.2863
  877MOL0     C15696   4.204   1.593   9.088  0.6997 -0.2844  0.1337
  877MOL0     C15697   3.525   1.898   9.430  0.7056 -0.4081 -0.3656
  877MOL0     C15698   3.398   1.954   9.417 -1.0910  0.1814 -0.3354
  877MOL0     H15699   3.086   2.317   9.492 -1.5415  2.6180 -1.7874
  877MOL0     H15700   2.886   2.408   9.520 -0.2108  1.2871 -2.2767
  877MOL0     H15701   2.509   2.210   9.339  0.7376 -0.6670 -0.7788
  877MOL0     H15702   2.538   2.322   9.211 -0.6867 -0.0769 -0.5732
  877MOL0     H15703   2.463   2.514   9.380  2.4552  0.0987 -0.1964
  877MOL0     H15704   2.413   2.382   9.482 -0.0035  0.7466  0.1379
  877MOL0     H15705   2.304   2.275   9.296  2.6717  0.1836  0.2465
  877MOL0     H15706   2.321   2.421   9.198 -1.5518  0.9139 -0.7132
  877MOL0     H15707   2.155   2.396   9.451 -1.0882  0.1820 -0.9814
  877MOL0     H15708   2.226   2.550   9.392  2.1814 -0.8913 -0.1324
  877MOL0     H15709   2.054   2.343   9.242  1.8823 -0.6120 -0.3562
  877MOL0     H15710   2.114   2.494   9.170  2.1394 -0.0343  0.6075
  877MOL0     H15711   1.981   2.639   9.314  2.4407 -0.6331 -0.5804
  877MOL0     H15712   1.911   2.507   9.394 -3.3373  4.4243  0.2066
  877MOL0     H15713   1.898   2.562   9.093 -0.1964  0.7901 -0.6758
  877MOL0     H15714   1.839   2.412   9.159 -0.4185  0.3827 -1.1004
  877MOL0     H15715   1.662   2.531   9.278  1.3225  0.7218  0.8392
  877MOL0     H15716   1.657   2.599   9.117  1.2106  0.3705 -0.4411
  877MOL0     H15717   1.852   2.805   9.071 -3.2131 -2.0124 -2.1851
  877MOL0     H15718   1.828   3.146   9.264 -2.9815 -1.7870  0.3185
  877MOL0     H15719   1.848   3.102   9.100  2.0200 -1.2452 -0.2394
  877MOL0     H15720   2.060   2.959   9.146  2.1499  1.9765 -0.8729
  877MOL0     H15721   2.045   2.982   9.312  1.9048 -2.4017 -2.2983
  877MOL0     H15722   2.107   3.205   9.113 -0.9682  1.3724  0.7845
  877MOL0     H15723   2.093   3.217   9.297  0.1325 -1.2854  1.2501
  877MOL0     H15724   2.291   3.062   9.138 -0.4376  0.5534 -0.2168
  877MOL0     H15725   2.268   3.045   9.310  0.6129  1.0461 -0.5010
  877MOL0     H15726   2.475   3.444   9.288 -0.4101 -0.0060 -0.2081
  877MOL0     H15727   2.720   3.457   9.358 -2.9582  2.2650 -0.6324
  877MOL0     H15728   3.041   2.912   9.582  1.2481  0.0867  0.8133
  877MOL0     H15729   3.260   2.872   9.655  1.6331 -0.9375 -0.6855
  877MOL0     H15730   3.482   2.841   9.655  1.8069  0.7375 -1.1704
  877MOL0     H15731   3.444   2.932   9.796  1.0706  0.0761  0.4564
  877MOL0     H15732   3.680   2.859   9.798  1.9323  2.3630  2.0131
  877MOL0     H15733   3.668   3.029   9.802 -2.4502 -1.1114  2.4943
  877MOL0     H15734   3.763   3.061   9.574 -0.1522  0.2352  0.6408
  877MOL0     H15735   3.688   2.907   9.520 -1.0313  0.0811  0.1715
  877MOL0     H15736   3.913   2.932   9.726 -0.1350  1.1780 -0.3013
  877MOL0     H15737   3.878   2.788   9.638 -1.4979  0.4380  0.5706
  877MOL0     H15738   4.005   3.045   9.557  0.8254  1.0456 -1.6394
  877MOL0     H15739   3.949   2.947   9.425 -2.8853 -0.9065  0.9742
  877MOL0     H15740   4.099   2.752   9.506  2.5760 -0.2302 -3.2586
  877MOL0     H15741   4.151   2.867   9.637 -2.4249 -0.7095  0.7017
  877MOL0     H15742   4.200   2.884   9.332  2.3875  2.1117 -1.7667
  877MOL0     H15743   4.217   3.020   9.456  1.3841 -0.3902  0.3186
  877MOL0     H15744   4.359   2.752   9.426 -1.9645  0.3658  0.4645
  877MOL0     H15745   4.382   2.860   9.570 -0.6399  2.6966  0.0179
  877MOL0     H15746   3.383   3.240   9.471  0.9700 -0.0573  2.2001
  877MOL0     H15747   3.163   3.296   9.411 -1.5891 -1.3808 -1.6801
  877MOL0     H15748   2.702   3.035   9.416  3.5506  1.7117  1.3359
  877MOL0     H15749   2.476   3.025   9.333 -3.5582  0.2565  1.7969
  877MOL0     H15750   2.700   2.140   9.245 -1.0994  2.8772  0.7070
  877MOL0     H15751   2.921   1.992   9.262  5.4783  0.9448 -0.2361
  877MOL0     H15752   3.347   1.949   9.081  0.5051  0.4555  1.5417
  877MOL0     H15753   3.602   1.904   9.094 -0.6615 -1.4086 -0.2626
  877MOL0     H15754   3.868   1.997   9.346 -0.9431  0.6909 -0.5312
  877MOL0     H15755   3.784   2.010   9.204 -1.6547  0.7759  0.6683
  877MOL0     H15756   3.919   1.759   9.177 -1.0754 -0.7950 -0.3095
  877MOL0     H15757   3.950   1.913   9.095 -3.0979  0.9571  0.1769
  877MOL0     H15758   4.070   1.811   9.353  2.2012  2.2956  1.6762
  877MOL0     H15759   4.097   1.984   9.307  2.3317  0.7284 -1.7572
  877MOL0     H15760   4.218   1.911   9.104  1.0942 -1.8338 -1.4413
  877MOL0     H15761   4.282   1.844   9.251  0.1737 -0.9276 -0.8864
  877MOL0     H15762   4.193   1.489   9.062 -2.6554  0.2857 -1.3224
  877MOL0     H15763   3.575   1.861   9.520 -0.0021 -1.9267 -0.5619
  877MOL0     H15764   3.350   1.974   9.512 -0.2833 -0.8408  0.3109
  878MOL0     O15765   8.157   9.151   1.484  0.1431 -0.4188 -0.0841
  878MOL0     C15766   8.153   9.232   1.579 -0.5535  0.2831  0.0956
  878MOL0     O15767   8.203   9.358   1.580 -0.2206  0.5720  0.6405
  878MOL0     C15768   8.249   9.412   1.463  0.2548  0.7754  0.2500
  878MOL0     C15769   8.168   9.402   1.343 -0.6623  0.6760  0.4758
  878MOL0     C15770   8.219   9.457   1.228  0.6000  0.8995  0.4971
  878MOL0     C15771   8.348   9.512   1.223 -0.0670  0.2132 -0.2502
  878MOL0     O15772   8.412   9.544   1.112  0.3535 -0.3007  0.2895
  878MOL0     C15773   8.355   9.550   0.984 -0.5667 -0.3545 -0.8057
  878MOL0     C15774   8.454   9.575   0.872  0.0602 -0.3431 -0.1765
  878MOL0     C15775   8.384   9.653   0.758  0.1955 -1.7057 -0.0184
  878MOL0     C15776   8.422   9.802   0.778  0.9592  0.1442 -0.0239
  878MOL0     C15777   8.370   9.891   0.667  1.4195  0.2384 -0.2066
  878MOL0     C15778   8.385  10.041   0.698 -0.0356  0.2267  0.2166
  878MOL0     C15779   8.336  10.128   0.588 -0.0187 -1.4233  0.6119
  878MOL0     C15780   8.197  10.175   0.583 -0.3068  0.8603  0.0942
  878MOL0     N15781   8.157  10.235   0.705 -0.2705 -0.0633  0.2574
  878MOL0     C15782   8.198  10.366   0.734  0.2985  0.4805 -0.1831
  878MOL0     C15783   8.146  10.388   0.857  0.0059  1.1061  0.0011
  878MOL0     C15784   8.131  10.507   0.943  0.0164 -0.4251 -0.3696
  878MOL0     C15785   8.009  10.578   0.898  0.4369 -0.3803 -1.1876
  878MOL0     C15786   7.982  10.708   0.979  0.0867  0.2817 -1.2777
  878MOL0     C15787   8.049  10.821   0.916  0.6824  0.0401 -0.2604
  878MOL0     O15788   8.191  10.833   0.925 -0.0916 -0.6451  0.1223
  878MOL0     C15789   8.256  10.902   1.030 -0.0316  0.1160  0.1958
  878MOL0     C15790   8.401  10.926   1.024 -0.0504  0.6670 -0.3105
  878MOL0     C15791   8.464  11.014   1.114 -0.0976 -0.1518 -0.6705
  878MOL0     C15792   8.379  11.068   1.219 -0.0928  0.1662 -0.4782
  878MOL0     C15793   8.438  11.147   1.326 -0.7678 -0.9342  0.0369
  878MOL0     O15794   8.358  11.234   1.387  0.0830  0.2434  0.1108
  878MOL0     C15795   8.386  11.293   1.515 -0.1201  0.4101  0.0089
  878MOL0     C15796   8.349  11.425   1.541  0.0598  0.0637  0.0272
  878MOL0     C15797   8.367  11.475   1.667  0.0391  0.8149  0.0338
  878MOL0     C15798   8.418  11.401   1.772 -0.1885 -0.6888 -0.1262
  878MOL0     O15799   8.431  11.450   1.903 -0.9401  0.3864  0.0266
  878MOL0     C15800   8.345  11.396   2.004 -0.3285 -0.1036  0.4580
  878MOL0     C15801   8.210  11.447   1.990 -0.0057 -0.6871 -0.6467
  878MOL0     C15802   8.200  11.597   1.968  0.8403 -0.2920 -0.5089
  878MOL0     C15803   8.065  11.669   1.955  0.3293 -0.5808  0.0824
  878MOL0     C15804   8.071  11.823   1.979  1.0303  0.4234  0.3339
  878MOL0     C15805   7.925  11.874   1.956 -0.8877  0.5884 -0.2003
  878MOL0     C15806   7.927  12.017   1.977  0.1713 -0.1952 -0.9578
  878MOL0     C15807   7.780  12.080   1.966  0.5558 -0.6536 -0.5097
  878MOL0    Cl15808   7.796  12.259   1.953  0.1112  0.2012 -0.5907
  878MOL0     C15809   8.448  11.268   1.750 -0.0729 -0.6883 -0.0967
  878MOL0     C15810   8.442  11.219   1.620  0.2268 -0.0325 -0.1999
  878MOL0     O15811   8.556  11.127   1.353  0.3991 -0.6135 -0.6986
  878MOL0     C15812   8.242  11.036   1.230  0.9471  0.1961  0.7145
  878MOL0     C15813   8.182  10.947   1.142 -0.0737  1.1642  0.4055
  878MOL0     N15814   8.077  10.271   0.908  0.8691 -0.5600 -0.0910
  878MOL0     N15815   8.076  10.189   0.803  0.5236  0.1905  0.8280
  878MOL0     C15816   8.415   9.534   1.348 -0.1955 -0.2656  0.5246
  878MOL0     C15817   8.373   9.473   1.466  0.3158 -0.9276 -0.0712
  878MOL0     C15818   8.090   9.184   1.702  1.2882 -0.8357  0.3486
  878MOL0     C15819   7.982   9.089   1.686 -0.4083 -1.1479 -0.4658
  878MOL0     C15820   7.909   9.056   1.804  0.1653  0.0729 -0.4923
  878MOL0     C15821   7.955   9.101   1.929  1.0727 -0.2510 -0.1642
  878MOL0     O15822   7.882   9.068   2.039 -0.6016  0.4617  0.1606
  878MOL0     C15823   7.894   9.134   2.173 -0.0070 -0.7202  0.0538
  878MOL0     C15824   7.829   9.272   2.178  0.2570  0.0766 -0.1165
  878MOL0     C15825   7.686   9.249   2.125 -0.3814  0.1323 -0.1716
  878MOL0     C15826   7.592   9.182   2.217  0.8369  0.4531 -0.6131
  878MOL0     C15827   7.556   9.272   2.322 -0.7016  0.3733  0.0947
  878MOL0     C15828   7.520   9.334   2.418 -0.4042  0.5827 -1.4474
  878MOL0     C15829   8.069   9.192   1.946  0.4973 -1.1430 -0.0922
  878MOL0     C15830   8.126   9.241   1.832  0.6043 -0.2747  1.0205
  878MOL0     H15831   8.068   9.361   1.347  0.3857 -2.3465 -1.3705
  878MOL0     H15832   8.153   9.470   1.142 -0.6491  0.2527  1.3204
  878MOL0     H15833   8.267   9.615   0.984 -0.2525  0.1759  1.5872
  878MOL0     H15834   8.313   9.450   0.976  0.3742 -1.1598  2.7133
  878MOL0     H15835   8.488   9.479   0.833  0.5900 -0.6384  0.9870
  878MOL0     H15836   8.540   9.632   0.908  1.1438 -2.1090  0.1296
  878MOL0     H15837   8.281   9.621   0.738  0.1721 -1.2953 -0.5688
  878MOL0     H15838   8.436   9.619   0.669 -0.1210 -2.4625  0.0831
  878MOL0     H15839   8.379   9.826   0.876 -3.2650 -4.1504 -0.4882
  878MOL0     H15840   8.531   9.802   0.767  0.7762 -0.1107 -2.5710
  878MOL0     H15841   8.264   9.867   0.650  1.4470  1.6478 -2.9756
  878MOL0     H15842   8.413   9.870   0.569 -0.2429  0.4170 -1.0155
  878MOL0     H15843   8.494  10.047   0.703 -0.0964  1.4418  0.2414
  878MOL0     H15844   8.347  10.076   0.794 -0.4603  2.5421 -0.7210
  878MOL0     H15845   8.403  10.215   0.589  1.0387 -2.2183  1.9678
  878MOL0     H15846   8.349  10.078   0.492 -0.0906 -2.7126  1.2614
  878MOL0     H15847   8.131  10.089   0.569 -2.7097  2.5136  0.6509
  878MOL0     H15848   8.181  10.241   0.497  1.9112 -0.8001 -1.7125
  878MOL0     H15849   8.253  10.438   0.675 -0.3322  3.9670  3.0741
  878MOL0     H15850   8.216  10.570   0.914  0.9935 -2.1838 -1.5416
  878MOL0     H15851   8.136  10.480   1.049 -1.5692 -1.6834 -0.5796
  878MOL0     H15852   7.916  10.520   0.904  0.1599  0.0839 -1.0089
  878MOL0     H15853   8.018  10.606   0.793 -0.4513 -3.1423 -2.1106
  878MOL0     H15854   7.874  10.720   0.996  0.6507  2.5162  1.4746
  878MOL0     H15855   8.040  10.694   1.071 -0.4340 -1.3073 -1.1609
  878MOL0     H15856   7.997  10.915   0.935  1.1225  0.0423  1.0634
  878MOL0     H15857   8.026  10.801   0.811  0.3732 -1.0630  0.0017
  878MOL0     H15858   8.459  10.876   0.948  0.9391 -1.0225  1.4597
  878MOL0     H15859   8.571  11.032   1.119 -0.1848  0.0585  1.5775
  878MOL0     H15860   8.307  11.484   1.460 -0.5103  0.1161  0.3480
  878MOL0     H15861   8.345  11.581   1.675 -1.5413  0.6730 -1.7865
  878MOL0     H15862   8.378  11.439   2.099 -0.0432  0.3136  0.1758
  878MOL0     H15863   8.347  11.288   2.021  1.4799 -0.4800 -1.6210
  878MOL0     H15864   8.150  11.420   2.077 -0.7316 -1.6263 -1.4087
  878MOL0     H15865   8.178  11.400   1.896  4.9335  2.0082 -4.1140
  878MOL0     H15866   8.244  11.610   1.869  1.8266 -0.5376 -0.1141
  878MOL0     H15867   8.258  11.639   2.051 -1.0164 -2.2255  1.9478
  878MOL0     H15868   8.019  11.641   1.860 -0.7393  1.1552  0.0460
  878MOL0     H15869   8.004  11.631   2.038  2.9892 -0.0491  2.4489
  878MOL0     H15870   8.151  11.854   1.911  1.4305 -0.4435  0.3911
  878MOL0     H15871   8.105  11.858   2.076  0.2091  0.7683  0.5041
  878MOL0     H15872   7.859  11.811   2.016  1.2216 -2.2657 -0.6330
  878MOL0     H15873   7.887  11.870   1.854  0.0586 -0.1382 -0.5384
  878MOL0     H15874   7.963  12.040   2.078  1.5790 -1.3836 -1.1567
  878MOL0     H15875   7.998  12.066   1.910  0.7719  0.5234  0.1622
  878MOL0     H15876   7.738  12.065   2.066  2.0242  1.9811  0.6078
  878MOL0     H15877   7.715  12.029   1.894 -2.0955 -1.0988  1.9964
  878MOL0     H15878   8.470  11.202   1.833 -3.8238 -4.9958 -2.0336
  878MOL0     H15879   8.472  11.115   1.607 -0.9954 -0.8619  2.7947
  878MOL0     H15880   8.177  11.089   1.299  0.1858 -1.3834  1.2525
  878MOL0     H15881   8.079  10.919   1.165  1.0883 -1.3556  3.1805
  878MOL0     H15882   8.508   9.589   1.343 -1.4492  1.9079  0.2276
  878MOL0     H15883   8.430   9.492   1.557  0.1503  1.5644 -0.4178
  878MOL0     H15884   7.950   9.052   1.589 -1.6984  0.7968 -0.8230
  878MOL0     H15885   7.816   9.004   1.782  0.1755  0.0058 -0.3782
  878MOL0     H15886   7.995   9.140   2.215  0.4335  0.0498 -1.0889
  878MOL0     H15887   7.839   9.069   2.242  1.3191 -1.4142  0.4905
  878MOL0     H15888   7.821   9.312   2.280 -2.3508  0.7955 -0.5205
  878MOL0     H15889   7.878   9.344   2.112  3.2425 -0.9330  0.8159
  878MOL0     H15890   7.701   9.187   2.036  1.9410  1.8036 -1.0818
  878MOL0     H15891   7.640   9.344   2.098 -1.9663 -0.4360  0.4553
  878MOL0     H15892   7.500   9.156   2.164  1.4871  0.4121 -1.7482
  878MOL0     H15893   7.621   9.085   2.260 -2.9335 -0.5329  0.0746
  878MOL0     H15894   7.520   9.391   2.509 -2.5553  0.8754 -1.5740
  878MOL0     H15895   8.107   9.229   2.041 -2.6570  0.4435  0.6930
  878MOL0     H15896   8.205   9.315   1.822 -2.4196  3.4196  2.1304
  879MOL0     O15897   3.458   8.222  10.221 -0.5639 -0.8048  0.1914
  879MOL0     C15898   3.429   8.163  10.322  0.7600  1.1750 -0.4429
  879MOL0     O15899   3.510   8.079  10.391  0.5065 -0.5715  0.0062
  879MOL0     C15900   3.641   8.054  10.356 -0.7893  0.6054 -0.4884
  879MOL0     C15901   3.732   8.156  10.342  0.0602  0.6899  0.4689
  879MOL0     C15902   3.855   8.138  10.286  0.1620 -0.6334 -0.9066
  879MOL0     C15903   3.904   8.010  10.263  0.3029 -0.2105 -0.4942
  879MOL0     O15904   4.031   7.981  10.223  0.1943  0.7488 -0.0002
  879MOL0     C15905   4.112   8.090  10.168  0.2491  0.5149  0.1945
  879MOL0     C15906   4.249   8.042  10.112 -0.3802 -0.5261  0.1500
  879MOL0     C15907   4.252   7.971   9.983  1.1270  0.2752 -0.9609
  879MOL0     C15908   4.380   7.984   9.903 -0.3496 -0.2180  0.2411
  879MOL0     C15909   4.372   7.917   9.769  0.6309  0.2082  0.3834
  879MOL0     C15910   4.301   8.014   9.665 -0.4792  0.0601 -0.7563
  879MOL0     C15911   4.325   7.972   9.521 -0.3659  0.3109 -0.1989
  879MOL0     C15912   4.235   7.862   9.486 -0.1805 -0.1417 -0.3714
  879MOL0     N15913   4.253   7.829   9.344 -0.1776  0.0651 -0.0430
  879MOL0     C15914   4.362   7.770   9.297  0.1580 -0.2266  0.2047
  879MOL0     C15915   4.341   7.745   9.169  0.8705 -0.0795  0.0387
  879MOL0     C15916   4.425   7.662   9.087 -0.3615  0.1776  0.3626
  879MOL0     C15917   4.358   7.550   9.004 -0.1621 -0.3668 -0.0557
  879MOL0     C15918   4.463   7.456   8.942 -0.2239 -0.1857 -0.2352
  879MOL0     C15919   4.591   7.521   8.869  0.2469  0.7678 -0.1341
  879MOL0     O15920   4.677   7.411   8.835 -0.2912 -0.1574 -0.1664
  879MOL0     C15921   4.793   7.422   8.772 -0.3373 -0.5112  0.3865
  879MOL0     C15922   4.866   7.308   8.749  0.7542 -0.8656 -0.9528
  879MOL0     C15923   4.988   7.310   8.686  1.1660 -0.6320  0.3868
  879MOL0     C15924   5.048   7.433   8.653  0.5499 -0.2325  0.4268
  879MOL0     C15925   5.172   7.426   8.576 -0.2955 -0.1909 -0.4604
  879MOL0     O15926   5.197   7.539   8.504  0.7211 -0.4225  0.1899
  879MOL0     C15927   5.314   7.564   8.434  0.2750  0.3818  0.9303
  879MOL0     C15928   5.300   7.633   8.302 -0.2795  0.1169 -0.1715
  879MOL0     C15929   5.417   7.653   8.222 -0.3435  0.0399 -0.1059
  879MOL0     C15930   5.545   7.622   8.268 -0.2203 -0.9409  0.1552
  879MOL0     O15931   5.671   7.649   8.204  0.1681 -0.1505  0.2656
  879MOL0     C15932   5.675   7.718   8.084  0.1736 -0.2256  0.4917
  879MOL0     C15933   5.808   7.798   8.070 -0.3511  0.8510 -0.5303
  879MOL0     C15934   5.923   7.703   8.043  0.2976  0.3918 -0.4825
  879MOL0     C15935   5.927   7.665   7.896  0.1063 -0.2471 -0.2172
  879MOL0     C15936   6.055   7.589   7.845  0.3015 -0.0829 -0.2849
  879MOL0     C15937   6.103   7.482   7.939  0.0626 -0.1698 -0.4014
  879MOL0     C15938   6.000   7.375   7.946  0.1990  0.3803 -0.8341
  879MOL0     C15939   6.050   7.259   8.029  1.2597  0.7013 -1.2698
  879MOL0    Cl15940   6.162   7.155   7.950 -0.1709 -0.0004  0.1905
  879MOL0     C15941   5.554   7.553   8.392 -0.6074 -0.4669  0.4636
  879MOL0     C15942   5.443   7.532   8.465 -0.0414 -0.0659 -0.5813
  879MOL0     O15943   5.236   7.324   8.574  0.1087 -0.3455 -1.4417
  879MOL0     C15944   4.974   7.546   8.670 -0.1802 -0.7237 -0.7735
  879MOL0     C15945   4.847   7.544   8.735 -0.1680  0.3967  0.1435
  879MOL0     N15946   4.220   7.805   9.145  1.4967  0.2698 -0.0061
  879MOL0     N15947   4.168   7.854   9.248 -0.0854  0.2109 -0.0270
  879MOL0     C15948   3.816   7.900  10.299  0.2242 -0.0087 -0.3382
  879MOL0     C15949   3.684   7.923  10.339 -0.9012  0.4447 -0.1957
  879MOL0     C15950   3.295   8.188  10.365  0.4244 -0.1326 -0.3501
  879MOL0     C15951   3.235   8.115  10.476 -0.9125  0.2098  0.4353
  879MOL0     C15952   3.111   8.137  10.519 -0.0080  0.6093 -0.0646
  879MOL0     C15953   3.032   8.232  10.455  0.1023 -1.0048 -1.2902
  879MOL0     O15954   2.898   8.271  10.482 -0.4407 -0.3505 -0.3678
  879MOL0     C15955   2.855   8.268  10.616 -0.1710  1.2334 -1.2000
  879MOL0     C15956   2.723   8.342  10.625  0.3672 -0.3771 -0.0745
  879MOL0     C15957   2.678   8.333  10.772  0.4377  0.5699  0.0392
  879MOL0     C15958   2.542   8.399  10.773 -0.3128 -0.3762  0.2973
  879MOL0     C15959   2.524   8.441  10.911  0.6085 -0.4289  0.3109
  879MOL0     C15960   2.509   8.486  11.022 -0.3056 -0.4232 -0.7656
  879MOL0     C15961   3.095   8.316  10.359  0.1567  0.2538 -0.0469
  879MOL0     C15962   3.221   8.290  10.315 -0.4248  0.2013 -0.1116
  879MOL0     H15963   3.699   8.259  10.355 -1.3657  0.2396  0.5418
  879MOL0     H15964   3.919   8.224  10.267  0.5267 -0.6857  0.0153
  879MOL0     H15965   4.137   8.155  10.253 -3.9127  0.8708  1.3596
  879MOL0     H15966   4.061   8.145  10.089 -1.3933 -0.5789  0.4375
  879MOL0     H15967   4.299   7.984  10.190  0.3641 -2.0337 -1.3986
  879MOL0     H15968   4.301   8.134  10.081 -1.3480 -1.1233 -3.7579
  879MOL0     H15969   4.170   8.017   9.926 -1.1699 -0.3848  1.5644
  879MOL0     H15970   4.227   7.866  10.001  3.3322 -0.2937 -0.9633
  879MOL0     H15971   4.407   8.090   9.898  1.4476 -0.5804  1.4834
  879MOL0     H15972   4.459   7.929   9.954 -1.3344 -3.2136 -1.2136
  879MOL0     H15973   4.324   7.818   9.772  0.7027  0.0914 -1.2661
  879MOL0     H15974   4.475   7.896   9.738  0.3835  1.3238 -1.3365
  879MOL0     H15975   4.343   8.114   9.673 -4.4064  2.0734 -2.4104
  879MOL0     H15976   4.196   8.025   9.693 -0.3359 -0.5629  0.0739
  879MOL0     H15977   4.303   8.055   9.454  2.0426  0.3468 -1.0667
  879MOL0     H15978   4.428   7.933   9.520 -1.2604 -2.2924 -2.2424
  879MOL0     H15979   4.133   7.887   9.516  0.7953  1.4070  1.9066
  879MOL0     H15980   4.249   7.771   9.546  0.1755  2.3546  3.6852
  879MOL0     H15981   4.446   7.726   9.351  0.7882 -1.5004 -1.7101
  879MOL0     H15982   4.501   7.621   9.154 -0.9763  0.8841  1.5328
  879MOL0     H15983   4.470   7.734   9.018  1.7464  0.1935  1.6646
  879MOL0     H15984   4.296   7.578   8.918 -1.8532 -3.6523 -0.0848
  879MOL0     H15985   4.297   7.483   9.065 -0.2361 -0.6670 -0.4544
  879MOL0     H15986   4.506   7.394   9.021 -0.5838 -0.3336 -0.1520
  879MOL0     H15987   4.419   7.383   8.873 -1.1590  0.9464 -0.8808
  879MOL0     H15988   4.641   7.590   8.938 -0.7489  0.3963  0.9947
  879MOL0     H15989   4.564   7.569   8.774 -2.5737 -0.6523 -0.1667
  879MOL0     H15990   4.827   7.210   8.773  0.0747 -1.5900 -4.5113
  879MOL0     H15991   5.035   7.213   8.677  1.1597 -0.4898 -1.5917
  879MOL0     H15992   5.207   7.682   8.275  0.7693  1.0015 -2.4329
  879MOL0     H15993   5.415   7.696   8.123  2.9455 -1.4995 -1.0064
  879MOL0     H15994   5.600   7.797   8.073  1.2201  0.6385 -0.7011
  879MOL0     H15995   5.645   7.654   8.001  1.5420  1.7060 -1.5865
  879MOL0     H15996   5.822   7.842   8.169 -0.6550  2.6029 -1.2433
  879MOL0     H15997   5.807   7.884   8.003  2.6058  2.5010  1.3370
  879MOL0     H15998   5.894   7.624   8.113 -1.2616 -0.0191 -1.5396
  879MOL0     H15999   6.020   7.744   8.073  1.0550 -0.5242 -1.6031
  879MOL0     H16000   5.841   7.602   7.872  1.1464 -1.7623 -0.1655
  879MOL0     H16001   5.918   7.758   7.840 -1.0708  0.3908  0.9744
  879MOL0     H16002   6.128   7.667   7.824 -0.5550  1.3300  1.6692
  879MOL0     H16003   6.039   7.543   7.747  2.4447 -2.3209  0.3054
  879MOL0     H16004   6.139   7.527   8.032  0.0816  1.7295 -1.2905
  879MOL0     H16005   6.193   7.435   7.900  1.6875  3.4276 -1.4227
  879MOL0     H16006   5.919   7.418   8.005  0.4584  2.6793 -2.0758
  879MOL0     H16007   5.971   7.349   7.844  2.1367 -0.5324 -1.2078
  879MOL0     H16008   5.960   7.206   8.061  2.4103 -0.3131  0.4733
  879MOL0     H16009   6.102   7.285   8.122 -0.9711 -2.6866  1.1550
  879MOL0     H16010   5.645   7.515   8.438  0.2056 -1.4470 -1.8211
  879MOL0     H16011   5.449   7.479   8.560 -2.6861  0.0838 -0.2504
  879MOL0     H16012   5.001   7.645   8.634 -2.6643  0.0484 -0.6976
  879MOL0     H16013   4.801   7.639   8.761  0.1464  0.5358  0.2007
  879MOL0     H16014   3.837   7.798  10.269  0.6034 -0.8678  2.5718
  879MOL0     H16015   3.610   7.844  10.347  0.5602 -0.9400  0.2168
  879MOL0     H16016   3.290   8.031  10.517 -0.5298  0.9940  1.5628
  879MOL0     H16017   3.055   8.071  10.584  1.2815  0.5501  1.0165
  879MOL0     H16018   2.927   8.310  10.687 -1.6414  1.0378  0.4683
  879MOL0     H16019   2.843   8.163  10.641 -0.4834  1.8106  1.4093
  879MOL0     H16020   2.734   8.449  10.609 -3.3321 -0.2925 -3.6570
  879MOL0     H16021   2.649   8.310  10.551  1.2163  0.9889 -1.5640
  879MOL0     H16022   2.750   8.382  10.839  0.2811 -1.3977  1.7625
  879MOL0     H16023   2.673   8.230  10.808  1.2733  1.2787  2.3650
  879MOL0     H16024   2.548   8.482  10.701  1.4743 -0.9408 -0.2513
  879MOL0     H16025   2.466   8.326  10.742 -1.7203  0.3552  1.8808
  879MOL0     H16026   2.494   8.531  11.118 -2.4926 -1.4709 -0.5450
  879MOL0     H16027   3.042   8.396  10.308  0.8991  1.9670  1.7489
  879MOL0     H16028   3.256   8.340  10.225 -2.4028  0.9862 -0.4837
  880MOL0     O16029   0.797  10.388   9.356  0.0975  0.1200 -0.3927
  880MOL0     C16030   0.865  10.488   9.362  0.0926  0.1980  0.2215
  880MOL0     O16031   0.830  10.601   9.431 -0.9945 -0.2373 -0.4104
  880MOL0     C16032   0.735  10.582   9.525 -0.2720 -0.0823 -0.6396
  880MOL0     C16033   0.600  10.578   9.484  0.7182  0.2197 -0.2280
  880MOL0     C16034   0.495  10.568   9.575  0.1615  0.1930 -0.3981
  880MOL0     C16035   0.519  10.583   9.709  0.4960  0.9806 -0.7164
  880MOL0     O16036   0.417  10.596   9.803 -0.4242 -0.6432  0.0582
  880MOL0     C16037   0.283  10.573   9.774 -0.0288  0.1495  0.4086
  880MOL0     C16038   0.268  10.422   9.797 -0.0429 -0.2294  0.0662
  880MOL0     C16039   0.130  10.375   9.746 -0.1735 -0.3284 -0.0152
  880MOL0     C16040   0.005  10.421   9.823 -0.2719 -0.3600 -0.4884
  880MOL0     C16041  -0.123  10.359   9.762 -0.3096  0.2582 -0.4176
  880MOL0     C16042  -0.235  10.443   9.817 -0.3752 -1.1346 -0.3825
  880MOL0     C16043  -0.369  10.399   9.759  0.6795  0.1686  0.0328
  880MOL0     C16044  -0.420  10.276   9.837 -0.4137 -0.3873 -0.7498
  880MOL0     N16045  -0.565  10.260   9.821 -0.7780 -0.2909  1.0059
  880MOL0     C16046  -0.632  10.262   9.701  0.1357  0.7865 -0.2026
  880MOL0     C16047  -0.752  10.299   9.737 -0.0721 -0.4324  0.6743
  880MOL0     C16048  -0.851  10.345   9.635 -0.6623  0.2227  0.0462
  880MOL0     C16049  -0.898  10.223   9.552 -0.5389  0.8397 -0.3564
  880MOL0     C16050  -1.001  10.134   9.628  0.7967  0.0703 -0.0098
  880MOL0     C16051  -1.058  10.007   9.563 -0.0037 -1.0838 -0.3822
  880MOL0     O16052  -1.114  10.044   9.440 -0.3194  0.3014  0.6884
  880MOL0     C16053  -1.240  10.081   9.430  0.2397  0.4084 -0.3369
  880MOL0     C16054  -1.347  10.053   9.529 -0.2727 -0.9935  0.3491
  880MOL0     C16055  -1.482  10.100   9.499  0.1508 -0.8416  0.1494
  880MOL0     C16056  -1.508  10.169   9.379  0.9341 -1.1762 -0.2533
  880MOL0     C16057  -1.641  10.233   9.351 -0.4974 -0.5381  0.6806
  880MOL0     O16058  -1.686  10.240   9.221 -0.2183 -0.3174  1.0663
  880MOL0     C16059  -1.795  10.317   9.183  0.2155  0.6181 -0.4393
  880MOL0     C16060  -1.781  10.452   9.207  0.3415  0.0773 -0.6316
  880MOL0     C16061  -1.881  10.530   9.164  1.0612 -0.6396  0.0476
  880MOL0     C16062  -2.006  10.482   9.117 -0.2633 -0.6124  0.0361
  880MOL0     O16063  -2.114  10.564   9.084  0.6618 -0.6695  0.4085
  880MOL0     C16064  -2.099  10.710   9.108  1.0971 -0.2009  0.4847
  880MOL0     C16065  -2.235  10.789   9.072 -0.5803  0.5363 -0.2276
  880MOL0     C16066  -2.271  10.777   8.929 -0.1335  0.1393  0.1415
  880MOL0     C16067  -2.387  10.870   8.898  1.4009 -0.3958 -0.7104
  880MOL0     C16068  -2.452  10.831   8.766 -0.3139 -0.1250 -0.6246
  880MOL0     C16069  -2.591  10.900   8.740 -0.6960 -0.4380  0.6138
  880MOL0     C16070  -2.620  10.922   8.592  0.2741 -0.0965  0.8445
  880MOL0     C16071  -2.531  11.027   8.524 -0.2397  0.0646 -0.1464
  880MOL0    Cl16072  -2.548  11.197   8.591 -0.3364 -0.1453 -1.0405
  880MOL0     C16073  -2.023  10.344   9.099  0.6438  1.0736 -0.1160
  880MOL0     C16074  -1.913  10.258   9.128  0.5689 -0.3586  0.3942
  880MOL0     O16075  -1.696  10.292   9.448 -0.5930  0.3187 -0.5872
  880MOL0     C16076  -1.407  10.181   9.288 -0.4400  0.2993  0.2239
  880MOL0     C16077  -1.277  10.143   9.308 -0.2818  0.1336 -0.6742
  880MOL0     N16078  -0.765  10.291   9.874  0.2394 -0.2990  0.8790
  880MOL0     N16079  -0.646  10.271   9.924  0.5376  0.7206  0.1169
  880MOL0     C16080   0.656  10.606   9.742  0.7299  0.6623  0.0689
  880MOL0     C16081   0.765  10.609   9.659  0.2736 -0.1438 -0.4072
  880MOL0     C16082   1.004  10.482   9.309 -0.4690 -0.3998  0.2659
  880MOL0     C16083   1.070  10.363   9.256  0.0224  0.1627 -0.0895
  880MOL0     C16084   1.185  10.379   9.180 -0.0987  0.4148 -0.0059
  880MOL0     C16085   1.244  10.502   9.168  0.3631  0.7914  0.1260
  880MOL0     O16086   1.361  10.516   9.097  0.6165  0.0822 -0.9240
  880MOL0     C16087   1.364  10.515   8.957  0.4832 -0.9071  0.8681
  880MOL0     C16088   1.318  10.653   8.905 -0.4402 -0.6680 -0.1670
  880MOL0     C16089   1.416  10.777   8.918  0.0740  0.4908 -0.2861
  880MOL0     C16090   1.515  10.794   8.808  0.0236 -0.5968 -0.6093
  880MOL0     C16091   1.601  10.678   8.788  0.4714  0.5257 -0.0098
  880MOL0     C16092   1.680  10.586   8.776  0.1436  0.6742  1.0562
  880MOL0     C16093   1.197  10.616   9.233  0.0840 -0.1478  0.4292
  880MOL0     C16094   1.073  10.607   9.301  0.0865  0.0779  0.5016
  880MOL0     H16095   0.560  10.580   9.383 -2.2072  5.3199  0.6691
  880MOL0     H16096   0.395  10.555   9.535 -0.4120 -3.0193  1.6420
  880MOL0     H16097   0.259  10.597   9.670  3.4249  2.3144 -0.0413
  880MOL0     H16098   0.210  10.632   9.832  0.2121  0.5208  0.3397
  880MOL0     H16099   0.274  10.421   9.906 -1.4938  2.0945  0.2398
  880MOL0     H16100   0.357  10.375   9.754  1.5894 -0.3698  3.3172
  880MOL0     H16101   0.131  10.266   9.757  0.8273 -0.2052  1.3084
  880MOL0     H16102   0.108  10.411   9.645 -0.0440 -1.7265 -0.5688
  880MOL0     H16103   0.017  10.396   9.929 -1.9032  0.6204 -0.0465
  880MOL0     H16104  -0.003  10.530   9.823 -0.0627 -0.3436 -0.3796
  880MOL0     H16105  -0.139  10.254   9.787  0.6797  0.0144 -0.7553
  880MOL0     H16106  -0.113  10.373   9.654  1.4841  2.1030 -0.0716
  880MOL0     H16107  -0.218  10.547   9.788 -2.3160 -0.5802  0.3286
  880MOL0     H16108  -0.235  10.443   9.926 -1.3321  0.5968 -0.3490
  880MOL0     H16109  -0.450  10.473   9.754 -0.7196 -1.2159  1.1883
  880MOL0     H16110  -0.354  10.364   9.656 -0.5350 -3.4211  0.9094
  880MOL0     H16111  -0.407  10.311   9.940 -0.7892 -1.6983 -0.2400
  880MOL0     H16112  -0.373  10.178   9.827 -1.4800 -1.2944  1.9942
  880MOL0     H16113  -0.606  10.237   9.598 -1.6541  2.4997 -1.1440
  880MOL0     H16114  -0.808  10.432   9.584  1.8399 -1.1387 -0.3235
  880MOL0     H16115  -0.946  10.381   9.675 -0.5772  0.1160  0.3455
  880MOL0     H16116  -0.818  10.162   9.507 -2.2761 -1.2128 -0.8582
  880MOL0     H16117  -0.950  10.268   9.467 -1.5820 -0.0312 -0.1968
  880MOL0     H16118  -0.956  10.097   9.721  0.3738  0.1168  0.2130
  880MOL0     H16119  -1.075  10.204   9.667  1.3311 -0.0902  1.3348
  880MOL0     H16120  -1.133   9.968   9.632 -0.2550 -1.1948 -0.7125
  880MOL0     H16121  -0.976   9.937   9.544 -1.4287 -2.7593 -0.5767
  880MOL0     H16122  -1.320  10.014   9.626  2.2762  0.7953  0.4515
  880MOL0     H16123  -1.557  10.114   9.575 -0.4263  2.1946 -0.8435
  880MOL0     H16124  -1.689  10.494   9.247 -0.0626  0.9095 -0.5544
  880MOL0     H16125  -1.871  10.638   9.169 -0.9761 -0.4512  1.3424
  880MOL0     H16126  -2.015  10.762   9.061  1.3353 -1.2505 -0.2819
  880MOL0     H16127  -2.095  10.714   9.217  0.5905  1.9912  0.4751
  880MOL0     H16128  -2.226  10.893   9.104 -1.0535  0.6061 -0.3244
  880MOL0     H16129  -2.313  10.748   9.137  1.1136 -1.0858  0.8956
  880MOL0     H16130  -2.307  10.674   8.924 -0.5384  0.3564 -3.2246
  880MOL0     H16131  -2.193  10.787   8.854 -1.1364 -4.6215 -1.8679
  880MOL0     H16132  -2.465  10.848   8.973  0.9527 -0.4967 -1.1987
  880MOL0     H16133  -2.351  10.973   8.894 -0.3920  0.2355 -1.9248
  880MOL0     H16134  -2.480  10.726   8.777 -0.8677 -0.2958 -3.1201
  880MOL0     H16135  -2.376  10.857   8.691 -0.9970  3.6564 -0.2009
  880MOL0     H16136  -2.597  11.000   8.784 -1.6259  0.4960 -1.5160
  880MOL0     H16137  -2.673  10.833   8.764  0.3016 -1.7400  0.4924
  880MOL0     H16138  -2.606  10.833   8.530 -1.8869  2.8963 -4.6524
  880MOL0     H16139  -2.722  10.957   8.576  1.9040  4.2870 -1.4760
  880MOL0     H16140  -2.538  11.024   8.415  0.8921 -0.9018 -0.2106
  880MOL0     H16141  -2.430  10.998   8.553 -0.1303  0.4309 -0.1599
  880MOL0     H16142  -2.113  10.299   9.058 -1.7152  2.3221  3.2741
  880MOL0     H16143  -1.921  10.154   9.101 -0.4121  0.2400 -1.8364
  880MOL0     H16144  -1.438  10.231   9.197 -2.1428  2.3811  1.8431
  880MOL0     H16145  -1.205  10.161   9.229 -0.4505 -0.8210 -1.0506
  880MOL0     H16146   0.689  10.609   9.846  2.7458  2.8573 -0.5726
  880MOL0     H16147   0.866  10.632   9.692 -0.6191  1.5169  1.3586
  880MOL0     H16148   1.022  10.268   9.275  0.6319 -0.3263 -0.9529
  880MOL0     H16149   1.242  10.294   9.143  2.2372  2.7840 -2.2870
  880MOL0     H16150   1.289  10.444   8.920 -0.9310  0.7476  0.3881
  880MOL0     H16151   1.463  10.492   8.918  1.4844  2.8084  0.8066
  880MOL0     H16152   1.286  10.643   8.801  1.8885  2.6124 -1.3530
  880MOL0     H16153   1.222  10.676   8.952  0.5691 -0.3478  1.8309
  880MOL0     H16154   1.473  10.772   9.011  1.5178 -1.3284 -1.2219
  880MOL0     H16155   1.348  10.863   8.927 -3.9569 -2.5635  1.4184
  880MOL0     H16156   1.466  10.811   8.711  3.0211  0.0092 -2.1193
  880MOL0     H16157   1.565  10.890   8.818 -2.4251  1.1178 -3.1267
  880MOL0     H16158   1.748  10.504   8.774 -1.5692 -0.8007  1.0384
  880MOL0     H16159   1.263  10.701   9.243  0.7409 -0.7280  1.2317
  880MOL0     H16160   1.042  10.699   9.350 -0.8466 -0.5105  1.0377
  881MOL0     O16161   3.167   3.397   1.975  0.7397 -0.1268  0.0429
  881MOL0     C16162   3.196   3.474   1.885 -0.8104 -0.2616  0.1401
  881MOL0     O16163   3.303   3.456   1.798  0.0913  0.2916  0.0497
  881MOL0     C16164   3.360   3.327   1.795  0.8499  0.2270 -0.4781
  881MOL0     C16165   3.504   3.317   1.808  0.2459  0.2057  0.0695
  881MOL0     C16166   3.572   3.202   1.785 -0.4878  0.1359  0.1496
  881MOL0     C16167   3.501   3.083   1.756  0.3063  1.2924  0.2553
  881MOL0     O16168   3.578   2.975   1.742  0.4118  0.1364 -0.2782
  881MOL0     C16169   3.588   2.932   1.607 -0.0663 -0.4524 -0.7933
  881MOL0     C16170   3.736   2.909   1.574 -1.0583  0.4758  0.3433
  881MOL0     C16171   3.791   2.784   1.654  0.7488 -0.1774  0.2022
  881MOL0     C16172   3.931   2.756   1.608 -0.2209 -0.3370  0.1759
  881MOL0     C16173   3.947   2.707   1.458 -0.4449  0.0462  0.3225
  881MOL0     C16174   4.058   2.598   1.443 -0.0110  0.1944 -0.4468
  881MOL0     C16175   4.080   2.537   1.307 -0.3927  0.0423  0.3528
  881MOL0     C16176   4.188   2.432   1.308 -1.1978  0.1674  0.1531
  881MOL0     N16177   4.319   2.479   1.359 -0.0138  0.0206 -0.3112
  881MOL0     C16178   4.349   2.462   1.493  0.5643  0.0725  0.7088
  881MOL0     C16179   4.478   2.514   1.494  0.3554  0.0658  0.0965
  881MOL0     C16180   4.565   2.525   1.619  0.2565  0.6277 -0.3068
  881MOL0     C16181   4.602   2.391   1.684  0.3837 -0.8063 -0.1166
  881MOL0     C16182   4.722   2.416   1.767  0.5661 -0.8669  0.6396
  881MOL0     C16183   4.737   2.312   1.876  0.3666  0.3537  0.0848
  881MOL0     O16184   4.725   2.188   1.805 -0.0767  0.4391 -0.3622
  881MOL0     C16185   4.725   2.062   1.866  0.4289 -0.4781 -0.2969
  881MOL0     C16186   4.660   1.970   1.791  0.0215 -0.0184  0.4888
  881MOL0     C16187   4.653   1.837   1.838 -0.4926  0.2827 -0.1733
  881MOL0     C16188   4.718   1.804   1.964  0.4728 -0.0612 -0.1315
  881MOL0     C16189   4.737   1.668   2.010  0.0838  1.7506  0.6251
  881MOL0     O16190   4.719   1.566   1.913 -0.3578 -0.4213 -0.6737
  881MOL0     C16191   4.761   1.450   1.939  0.0250 -1.1385 -0.7717
  881MOL0     C16192   4.661   1.353   1.933  0.1422 -0.4496 -0.1765
  881MOL0     C16193   4.703   1.222   1.931  0.2020  0.0959  0.0873
  881MOL0     C16194   4.839   1.188   1.935 -0.9217 -0.4773 -0.0083
  881MOL0     O16195   4.871   1.052   1.933 -0.0908  0.4326 -0.5729
  881MOL0     C16196   5.006   1.012   1.983 -0.0761  0.3127  0.4818
  881MOL0     C16197   5.035   1.039   2.130 -0.2427  0.0538  0.0815
  881MOL0     C16198   5.179   1.004   2.170  1.0352  0.6186 -0.4434
  881MOL0     C16199   5.198   0.849   2.169  0.6445 -1.3118  0.5776
  881MOL0     C16200   5.336   0.817   2.159  0.0830 -0.7134 -0.2764
  881MOL0     C16201   5.416   0.841   2.289  0.0163  0.3363 -0.6217
  881MOL0     C16202   5.358   0.837   2.431  0.4053  0.2992 -0.2147
  881MOL0     C16203   5.306   0.693   2.450  0.6886 -0.0797  0.6612
  881MOL0    Cl16204   5.435   0.575   2.467  0.4430  0.5420  0.0767
  881MOL0     C16205   4.932   1.294   1.920  0.1533  0.0881 -0.1518
  881MOL0     C16206   4.893   1.427   1.943  0.6356 -0.8285 -0.3606
  881MOL0     O16207   4.778   1.650   2.126 -0.7363 -0.2254  0.3905
  881MOL0     C16208   4.784   1.908   2.026 -0.1642  0.1958  1.1188
  881MOL0     C16209   4.793   2.036   1.982  0.6652 -0.6599 -0.2034
  881MOL0     N16210   4.516   2.550   1.364  0.7536 -0.1830 -0.0964
  881MOL0     N16211   4.423   2.523   1.283  0.5102  0.1337  1.1178
  881MOL0     C16212   3.362   3.086   1.731 -0.4443  1.5584 -1.2942
  881MOL0     C16213   3.296   3.208   1.758 -0.0746  0.1203 -0.2328
  881MOL0     C16214   3.101   3.588   1.864  0.6145 -0.9871 -0.3240
  881MOL0     C16215   3.003   3.611   1.960  0.0158 -0.2465  0.5340
  881MOL0     C16216   2.899   3.698   1.929  0.4384  0.1343  0.1124
  881MOL0     C16217   2.901   3.786   1.822  0.4102  0.1569 -0.6777
  881MOL0     O16218   2.791   3.871   1.800 -0.0697 -0.0774  0.3939
  881MOL0     C16219   2.785   3.932   1.673 -0.0905 -0.5849  0.0781
  881MOL0     C16220   2.646   3.989   1.636  0.7102  0.5353 -0.0677
  881MOL0     C16221   2.634   4.056   1.497  0.1308 -0.2205 -0.2850
  881MOL0     C16222   2.502   4.107   1.453 -0.0377  0.6802 -0.5626
  881MOL0     C16223   2.466   4.226   1.524 -0.1409 -1.9621 -0.7190
  881MOL0     C16224   2.439   4.334   1.577 -0.2869  0.4305 -0.5810
  881MOL0     C16225   3.014   3.779   1.732  0.1219 -0.4851 -0.3378
  881MOL0     C16226   3.113   3.686   1.757  0.1747 -0.6127 -0.6288
  881MOL0     H16227   3.555   3.405   1.846  2.0243 -0.8105  0.1361
  881MOL0     H16228   3.677   3.190   1.809 -1.0448 -3.6585  1.2661
  881MOL0     H16229   3.555   3.012   1.541  3.3199 -0.7072 -3.0803
  881MOL0     H16230   3.526   2.843   1.594  0.6566 -1.4208  1.7221
  881MOL0     H16231   3.790   2.999   1.605 -0.2934 -0.5770  2.2336
  881MOL0     H16232   3.754   2.901   1.466  5.6586 -1.4150  1.1528
  881MOL0     H16233   3.719   2.705   1.631  1.2051 -1.0065  1.5281
  881MOL0     H16234   3.783   2.806   1.761 -2.4209  2.0114 -0.3130
  881MOL0     H16235   4.008   2.832   1.626  1.9828 -2.3104 -0.2507
  881MOL0     H16236   3.962   2.669   1.668 -0.2376 -1.7452 -1.7687
  881MOL0     H16237   3.971   2.797   1.400  0.2574 -0.0981  0.3784
  881MOL0     H16238   3.849   2.670   1.427 -1.4669  2.9517 -0.2088
  881MOL0     H16239   4.032   2.516   1.511  1.7650 -2.4303 -2.6926
  881MOL0     H16240   4.154   2.639   1.477  0.2473 -0.2786 -0.6001
  881MOL0     H16241   3.993   2.482   1.270  0.8056 -1.3798 -0.5143
  881MOL0     H16242   4.095   2.623   1.241  2.4136 -1.5675 -1.3294
  881MOL0     H16243   4.193   2.392   1.206 -0.3373  2.7699 -0.9205
  881MOL0     H16244   4.155   2.349   1.370  0.0194 -0.7315 -0.3603
  881MOL0     H16245   4.284   2.407   1.560  2.0650 -1.7738  0.7432
  881MOL0     H16246   4.518   2.585   1.698 -1.1587  1.0411 -1.4254
  881MOL0     H16247   4.660   2.571   1.591  1.9044 -1.7377  1.0728
  881MOL0     H16248   4.636   2.321   1.607  3.4043  0.3905 -0.0230
  881MOL0     H16249   4.510   2.362   1.736 -0.2233  4.0872  2.1116
  881MOL0     H16250   4.806   2.420   1.696 -3.0209  3.1895 -4.1329
  881MOL0     H16251   4.711   2.512   1.817  0.8452 -0.5351  0.0647
  881MOL0     H16252   4.672   2.320   1.964 -2.1854 -3.8493 -1.1254
  881MOL0     H16253   4.837   2.327   1.917  0.8209  2.4643 -1.6363
  881MOL0     H16254   4.618   1.984   1.692 -1.9749 -2.3417  0.9111
  881MOL0     H16255   4.626   1.747   1.786  1.8134 -1.7411  1.8589
  881MOL0     H16256   4.559   1.391   1.938  0.4817  0.4072  0.6787
  881MOL0     H16257   4.632   1.140   1.932  0.5965 -0.2642 -0.7029
  881MOL0     H16258   5.089   1.046   1.919  2.3788 -3.4187  1.3512
  881MOL0     H16259   5.018   0.906   1.961  3.4080  0.3592  1.6448
  881MOL0     H16260   4.972   0.973   2.190  0.5993 -0.3834  0.5045
  881MOL0     H16261   5.018   1.146   2.147 -3.1863 -0.2855 -0.2817
  881MOL0     H16262   5.195   1.033   2.274 -0.9012 -3.3751  1.2078
  881MOL0     H16263   5.250   1.047   2.099  4.0424 -1.8947  0.7892
  881MOL0     H16264   5.142   0.810   2.255 -1.0683  1.5984  0.9320
  881MOL0     H16265   5.155   0.815   2.075 -0.4535 -0.8966  0.9116
  881MOL0     H16266   5.366   0.887   2.081  0.8963  0.4446  1.0395
  881MOL0     H16267   5.351   0.715   2.123  0.8337 -0.5455 -0.4637
  881MOL0     H16268   5.459   0.940   2.269 -0.5523  0.0771 -3.6796
  881MOL0     H16269   5.501   0.772   2.288  0.6097  1.0383 -2.3766
  881MOL0     H16270   5.430   0.852   2.512  1.5692 -0.7002 -1.0292
  881MOL0     H16271   5.273   0.905   2.443  0.8005  0.5224  1.6008
  881MOL0     H16272   5.245   0.653   2.368 -3.0877  1.8504  2.2616
  881MOL0     H16273   5.237   0.696   2.535 -0.8091 -0.6520 -0.5026
  881MOL0     H16274   5.038   1.277   1.903 -0.0275  0.6477 -2.1039
  881MOL0     H16275   4.973   1.500   1.939  1.6514 -1.6130  2.5529
  881MOL0     H16276   4.835   1.898   2.121 -0.8749 -0.1919  1.4676
  881MOL0     H16277   4.854   2.107   2.037  1.3437 -0.7267 -0.8612
  881MOL0     H16278   3.310   2.994   1.706 -3.5121  3.2213 -1.5477
  881MOL0     H16279   3.190   3.215   1.734 -0.7707  1.0586  2.7132
  881MOL0     H16280   2.998   3.545   2.046 -0.9212 -2.9683 -1.4634
  881MOL0     H16281   2.811   3.709   1.991 -0.1862 -2.5429 -0.1893
  881MOL0     H16282   2.787   3.853   1.597  1.8596  0.9677 -1.5886
  881MOL0     H16283   2.866   4.005   1.664  0.4592 -1.0689  0.9597
  881MOL0     H16284   2.578   3.905   1.651  0.5195  0.7969  0.5525
  881MOL0     H16285   2.646   4.077   1.702  0.4258  0.9877 -0.6657
  881MOL0     H16286   2.658   3.974   1.429  1.0139 -1.0261  0.9369
  881MOL0     H16287   2.717   4.126   1.483  0.0716  0.1857  1.1812
  881MOL0     H16288   2.494   4.125   1.346 -1.4628  2.3709 -0.2155
  881MOL0     H16289   2.437   4.028   1.492  2.7143 -2.7136 -2.2186
  881MOL0     H16290   2.412   4.427   1.623  1.9126  2.5390 -3.1850
  881MOL0     H16291   3.026   3.855   1.656  0.9043 -1.9109 -1.6924
  881MOL0     H16292   3.197   3.700   1.689  0.7218  0.5111  0.2363
  882MOL0     O16293   8.568  10.793   5.821 -0.2639 -0.1379  0.4046
  882MOL0     C16294   8.600  10.885   5.898  0.4104 -0.3798  0.3205
  882MOL0     O16295   8.527  10.993   5.918  0.8105 -0.2046 -0.5660
  882MOL0     C16296   8.409  11.021   5.851 -0.4965 -1.1613 -0.1444
  882MOL0     C16297   8.402  10.995   5.714 -1.2227 -0.0306  0.6282
  882MOL0     C16298   8.282  11.025   5.648  0.1696  0.1161 -0.1653
  882MOL0     C16299   8.171  11.072   5.724 -0.3821 -0.3214 -0.2787
  882MOL0     O16300   8.052  11.094   5.661 -1.0586  0.5064 -0.3611
  882MOL0     C16301   7.981  10.988   5.590  0.3578 -0.8533  0.2309
  882MOL0     C16302   7.910  10.887   5.682  0.1135  0.5214  0.1386
  882MOL0     C16303   7.806  10.946   5.764  0.6741 -0.1000 -0.1911
  882MOL0     C16304   7.666  10.938   5.706  0.0671 -0.0295 -0.3165
  882MOL0     C16305   7.569  11.034   5.795  0.0179  0.1144  0.9558
  882MOL0     C16306   7.537  10.980   5.933  0.3244  0.0242  0.9141
  882MOL0     C16307   7.459  10.851   5.926 -0.1937 -0.0581  0.1083
  882MOL0     C16308   7.315  10.864   5.862  0.6688  0.7375  0.6741
  882MOL0     N16309   7.242  10.981   5.912  0.4298  0.6613  0.3334
  882MOL0     C16310   7.166  10.974   6.020  0.2240 -0.2787  0.0399
  882MOL0     C16311   7.099  11.100   6.034 -0.9995 -0.1521  0.6119
  882MOL0     C16312   7.009  11.147   6.143 -0.3093 -0.2127  0.1743
  882MOL0     C16313   6.887  11.052   6.137 -0.4003  0.8411  0.4368
  882MOL0     C16314   6.787  11.078   6.017  0.0795  1.2147 -0.1573
  882MOL0     C16315   6.680  10.973   6.001  0.4644  0.2251  0.2234
  882MOL0     O16316   6.555  11.028   6.029 -0.3417 -0.3942 -0.5330
  882MOL0     C16317   6.448  10.979   5.965  0.6266  1.1672 -0.0763
  882MOL0     C16318   6.434  10.966   5.820 -0.1696  0.1308 -0.3251
  882MOL0     C16319   6.306  10.941   5.764 -0.6871  0.5929 -0.4930
  882MOL0     C16320   6.190  10.911   5.844  0.1812 -0.1553  0.2228
  882MOL0     C16321   6.064  10.892   5.771  0.2242  0.0633  0.1615
  882MOL0     O16322   6.067  10.913   5.636 -0.7889 -0.0624  0.2564
  882MOL0     C16323   5.958  10.883   5.563  0.4359 -0.1885  0.1695
  882MOL0     C16324   5.964  10.772   5.480  0.3457 -0.1366  0.8339
  882MOL0     C16325   5.855  10.728   5.402 -0.3860 -0.0784  0.4092
  882MOL0     C16326   5.734  10.795   5.415  0.5056 -0.4920  0.7260
  882MOL0     O16327   5.624  10.769   5.344  1.0484 -0.1137 -1.0294
  882MOL0     C16328   5.629  10.718   5.210  0.3262  0.5880  0.3136
  882MOL0     C16329   5.501  10.749   5.134  0.1666  0.2043  0.9344
  882MOL0     C16330   5.492  10.904   5.102 -0.1847 -0.2358  0.6645
  882MOL0     C16331   5.384  10.968   5.194  0.3895 -0.8331 -0.6878
  882MOL0     C16332   5.372  11.117   5.185  0.5488 -1.1411 -0.2749
  882MOL0     C16333   5.497  11.200   5.210  0.7405  0.2054 -0.5032
  882MOL0     C16334   5.467  11.346   5.225 -0.4495 -0.9402  1.2848
  882MOL0     C16335   5.588  11.402   5.286  0.1494 -0.6548  0.5039
  882MOL0    Cl16336   5.568  11.582   5.316  0.3624  0.3065  0.1574
  882MOL0     C16337   5.728  10.909   5.495  0.7250  0.3997  0.8881
  882MOL0     C16338   5.840  10.958   5.564  0.0946  0.6507  0.6418
  882MOL0     O16339   5.960  10.856   5.833 -0.2283 -0.5072  0.0639
  882MOL0     C16340   6.209  10.930   5.986 -0.0716  0.0361  0.2159
  882MOL0     C16341   6.334  10.963   6.038 -0.1189 -0.5501 -0.6663
  882MOL0     N16342   7.132  11.164   5.919  0.9191  0.0078  0.3262
  882MOL0     N16343   7.214  11.103   5.847 -0.1210 -0.7012 -1.3832
  882MOL0     C16344   8.187  11.104   5.858  0.3685 -0.0265 -0.8892
  882MOL0     C16345   8.311  11.081   5.925  0.3564 -1.1768  0.0523
  882MOL0     C16346   8.735  10.898   5.942 -0.1788  0.1809 -0.5746
  882MOL0     C16347   8.841  10.807   5.894  0.1886 -0.4121 -1.2096
  882MOL0     C16348   8.962  10.815   5.963 -0.1277 -0.2469  0.7764
  882MOL0     C16349   8.999  10.918   6.051 -0.3818 -0.7217 -0.9609
  882MOL0     O16350   9.125  10.939   6.101  0.3525  0.0824  0.1070
  882MOL0     C16351   9.226  10.839   6.083  0.5968  0.0394  0.2806
  882MOL0     C16352   9.306  10.878   5.954  0.5471  0.6008 -0.1496
  882MOL0     C16353   9.438  10.804   5.931 -0.8040 -0.3303 -0.9110
  882MOL0     C16354   9.517  10.856   5.811  0.1086 -0.3867 -0.5469
  882MOL0     C16355   9.641  10.785   5.778  1.3965  0.0302 -0.1529
  882MOL0     C16356   9.746  10.739   5.766  0.9905  0.2671  0.6490
  882MOL0     C16357   8.898  11.003   6.084 -0.2454 -0.3380  0.4697
  882MOL0     C16358   8.771  11.006   6.022 -0.4250  0.2267  0.5257
  882MOL0     H16359   8.481  10.950   5.656 -0.7634  1.5050  0.0265
  882MOL0     H16360   8.275  11.012   5.540 -2.4922  0.2431 -0.0757
  882MOL0     H16361   8.052  10.930   5.532  0.8622 -0.1973  0.1764
  882MOL0     H16362   7.912  11.037   5.520 -1.0874 -1.5910  1.0951
  882MOL0     H16363   7.992  10.839   5.737  0.1105 -2.0441 -1.9004
  882MOL0     H16364   7.863  10.809   5.621 -1.1397 -0.7032  2.5228
  882MOL0     H16365   7.834  11.048   5.793  2.9513 -1.6510  3.8895
  882MOL0     H16366   7.801  10.888   5.856 -3.2081 -0.3714 -0.4144
  882MOL0     H16367   7.666  10.978   5.604  3.6175  0.7673 -0.1219
  882MOL0     H16368   7.631  10.834   5.701 -0.6726  0.1497  0.8410
  882MOL0     H16369   7.475  11.062   5.747  0.9311  2.5167  0.4063
  882MOL0     H16370   7.617  11.132   5.807 -1.0183  0.3560  4.0472
  882MOL0     H16371   7.489  11.059   5.991  0.2857 -0.8345  2.0888
  882MOL0     H16372   7.632  10.951   5.977  1.4153 -0.2088 -1.4602
  882MOL0     H16373   7.526  10.777   5.880 -1.8726 -1.3034 -0.4282
  882MOL0     H16374   7.456  10.817   6.030  3.5369  0.1735  0.4364
  882MOL0     H16375   7.264  10.772   5.890 -0.5885  0.9817 -0.6752
  882MOL0     H16376   7.322  10.871   5.753  0.1610 -2.2740  0.3644
  882MOL0     H16377   7.151  10.887   6.084 -0.1003  0.1123  0.5020
  882MOL0     H16378   6.989  11.255   6.146  2.1431  0.3871 -1.7025
  882MOL0     H16379   7.067  11.132   6.235  0.9104 -2.0465 -0.8334
  882MOL0     H16380   6.826  11.061   6.227  0.3991 -0.6577  1.1735
  882MOL0     H16381   6.923  10.949   6.144 -3.1754 -0.5925 -3.0655
  882MOL0     H16382   6.723  11.166   6.021  1.1918  2.2292 -2.4450
  882MOL0     H16383   6.856  11.083   5.932  1.1510 -0.1981  0.5731
  882MOL0     H16384   6.681  10.891   6.073  0.0418 -0.1439 -0.1821
  882MOL0     H16385   6.682  10.927   5.902 -4.0394 -1.0964  0.5365
  882MOL0     H16386   6.519  10.982   5.754  0.3472 -2.8918 -0.5240
  882MOL0     H16387   6.302  10.924   5.656  0.0418  1.0107 -0.5960
  882MOL0     H16388   6.060  10.720   5.481  1.0121  1.0527  1.7871
  882MOL0     H16389   5.866  10.641   5.338  1.1369  0.7928 -0.5777
  882MOL0     H16390   5.637  10.609   5.206 -0.6122  0.5498 -1.3512
  882MOL0     H16391   5.721  10.756   5.165 -0.9134  0.1823 -2.7476
  882MOL0     H16392   5.420  10.696   5.184  0.8164  0.4341  2.2660
  882MOL0     H16393   5.507  10.694   5.039 -0.4778  2.0151 -0.2201
  882MOL0     H16394   5.451  10.915   5.001 -0.1373  0.6041  0.7316
  882MOL0     H16395   5.590  10.952   5.106 -0.1779  0.1558 -1.9403
  882MOL0     H16396   5.294  10.913   5.167  1.1506 -2.1282 -0.6438
  882MOL0     H16397   5.407  10.942   5.298  1.1114  0.2326 -0.5639
  882MOL0     H16398   5.289  11.144   5.251 -0.1253  0.7277 -1.8007
  882MOL0     H16399   5.335  11.144   5.086 -0.8970  1.3924  0.8383
  882MOL0     H16400   5.571  11.176   5.133  0.1394 -2.3646 -0.3804
  882MOL0     H16401   5.546  11.168   5.302 -0.1449  2.1876  0.7178
  882MOL0     H16402   5.444  11.398   5.131  0.3821  0.8541  2.0283
  882MOL0     H16403   5.387  11.364   5.296 -0.4211  3.8326  0.4577
  882MOL0     H16404   5.679  11.389   5.226 -0.9013 -2.4964 -0.7843
  882MOL0     H16405   5.613  11.359   5.384  4.1267 -0.9402 -0.4490
  882MOL0     H16406   5.632  10.960   5.493  0.6346  0.2030 -0.0804
  882MOL0     H16407   5.821  11.048   5.620 -1.2040  0.3709  0.6912
  882MOL0     H16408   6.128  10.912   6.056  1.0022 -2.7678  0.8913
  882MOL0     H16409   6.334  10.984   6.145 -1.4342  0.3871 -0.8250
  882MOL0     H16410   8.108  11.146   5.919 -0.1573 -2.0150 -0.1203
  882MOL0     H16411   8.340  11.128   6.018  0.5889  3.7627 -2.2051
  882MOL0     H16412   8.824  10.743   5.808  1.1496  2.4447 -3.6832
  882MOL0     H16413   9.030  10.735   5.938  0.8126 -0.3433  3.3208
  882MOL0     H16414   9.193  10.735   6.075 -0.6663  0.3408  1.1864
  882MOL0     H16415   9.290  10.843   6.171  2.7634 -3.5844 -0.9407
  882MOL0     H16416   9.240  10.867   5.867 -0.7753  0.8928  0.7885
  882MOL0     H16417   9.328  10.984   5.973  2.3088  1.1742 -4.2412
  882MOL0     H16418   9.411  10.699   5.914  2.3042 -1.7312  1.7106
  882MOL0     H16419   9.496  10.804   6.023 -1.3430  1.0609 -0.5460
  882MOL0     H16420   9.455  10.848   5.720  0.6180 -1.9514 -0.7895
  882MOL0     H16421   9.536  10.961   5.833 -1.3248 -0.5318  1.6902
  882MOL0     H16422   9.852  10.725   5.761  1.0649  1.0895 -0.6797
  882MOL0     H16423   8.924  11.086   6.149  2.7654 -0.2288 -0.6925
  882MOL0     H16424   8.704  11.087   6.051  2.0023  2.7154 -0.3645
  883MOL0     O16425   6.697   6.121   9.873  0.2751 -0.2222 -0.5051
  883MOL0     C16426   6.771   6.155   9.776 -0.6890 -0.4190  0.1074
  883MOL0     O16427   6.733   6.205   9.651  1.2001 -0.0854 -0.1197
  883MOL0     C16428   6.604   6.232   9.629  0.6842 -0.1999 -0.1695
  883MOL0     C16429   6.518   6.114   9.612  0.6210 -0.0366  0.7918
  883MOL0     C16430   6.385   6.121   9.598  0.4868 -1.0122  0.0359
  883MOL0     C16431   6.327   6.253   9.632  0.3400  0.6800  0.4419
  883MOL0     O16432   6.194   6.276   9.601 -0.0620  0.5829 -0.2806
  883MOL0     C16433   6.108   6.179   9.561 -0.0342 -0.1725 -0.4561
  883MOL0     C16434   5.965   6.209   9.530  0.7937  0.2874  0.2499
  883MOL0     C16435   5.958   6.277   9.396  0.2348 -0.0723 -0.1076
  883MOL0     C16436   5.818   6.330   9.374  0.8621 -0.1007 -1.5264
  883MOL0     C16437   5.836   6.413   9.246  0.6410 -0.1117 -0.3890
  883MOL0     C16438   5.703   6.474   9.190 -0.5269  0.6482 -0.2071
  883MOL0     C16439   5.654   6.592   9.279 -0.4522 -0.2825  0.6572
  883MOL0     C16440   5.700   6.725   9.209  0.7354  0.3464  0.1719
  883MOL0     N16441   5.749   6.829   9.305 -0.3662  0.0841  0.1150
  883MOL0     C16442   5.659   6.899   9.381 -0.1839  0.8742 -0.2265
  883MOL0     C16443   5.746   6.970   9.460 -0.7141  1.7658  0.5104
  883MOL0     C16444   5.685   7.058   9.573  0.4763 -0.2631  0.7699
  883MOL0     C16445   5.731   7.008   9.714  0.9224 -0.3790  0.8680
  883MOL0     C16446   5.707   7.107   9.828  0.6227  0.5574 -0.9742
  883MOL0     C16447   5.781   7.240   9.811 -0.7579  0.2811 -0.6575
  883MOL0     O16448   5.755   7.311   9.934  0.3673  0.8041  0.3871
  883MOL0     C16449   5.627   7.358   9.953 -0.0792  0.1244 -0.1804
  883MOL0     C16450   5.582   7.406  10.079 -0.5088 -0.0736 -0.1389
  883MOL0     C16451   5.455   7.451  10.111  0.6790  0.5795  0.3064
  883MOL0     C16452   5.363   7.462  10.006  0.8288  0.5827 -0.8553
  883MOL0     C16453   5.222   7.502  10.043  0.0905  0.6797  0.6633
  883MOL0     O16454   5.191   7.514  10.170 -0.6699 -0.4842 -0.6245
  883MOL0     C16455   5.063   7.536  10.227  0.0669  0.2283  0.5888
  883MOL0     C16456   5.044   7.599  10.343  0.1596 -0.4173 -0.1827
  883MOL0     C16457   4.916   7.629  10.380 -0.7538  0.2498  0.0120
  883MOL0     C16458   4.802   7.588  10.310 -0.4829  0.3276 -0.2694
  883MOL0     O16459   4.676   7.614  10.348 -0.5371 -0.2729  0.4316
  883MOL0     C16460   4.630   7.637  10.485 -0.6017 -0.3185  1.0189
  883MOL0     C16461   4.488   7.588  10.501 -1.0322  0.0153 -0.3821
  883MOL0     C16462   4.479   7.426  10.510 -0.8151 -0.4568  0.5232
  883MOL0     C16463   4.336   7.384  10.549  0.5153  0.7821  0.6565
  883MOL0     C16464   4.312   7.238  10.583  0.0514  0.7045 -0.0462
  883MOL0     C16465   4.357   7.157  10.460  0.2716 -0.9953 -0.1980
  883MOL0     C16466   4.324   7.006  10.472 -0.2124 -0.9528  0.2742
  883MOL0     C16467   4.379   6.925  10.359 -0.4183 -0.2480  0.1856
  883MOL0    Cl16468   4.276   6.960  10.208 -0.1242  0.4355 -0.2173
  883MOL0     C16469   4.822   7.501  10.206 -1.3952 -0.3564  0.7098
  883MOL0     C16470   4.953   7.489  10.162  0.3454  0.2420  0.4057
  883MOL0     O16471   5.142   7.510   9.943 -0.1745  0.9493 -0.9133
  883MOL0     C16472   5.406   7.421   9.880 -0.0205  0.7876  0.0790
  883MOL0     C16473   5.532   7.362   9.851 -0.2844  0.4538  0.3797
  883MOL0     N16474   5.883   6.941   9.429  0.7123 -0.7676  0.2795
  883MOL0     N16475   5.883   6.851   9.340  0.2508  0.6364  0.6713
  883MOL0     C16476   6.406   6.363   9.662 -0.4358  0.6253 -0.1676
  883MOL0     C16477   6.542   6.358   9.657 -0.2461 -0.3975 -0.0268
  883MOL0     C16478   6.915   6.141   9.801  1.0922 -0.0470  1.2662
  883MOL0     C16479   6.975   6.092   9.921  0.2210  0.2581  0.7189
  883MOL0     C16480   7.114   6.097   9.949  0.8618  0.1889 -0.1304
  883MOL0     C16481   7.196   6.148   9.847 -0.4770  0.4791  0.3856
  883MOL0     O16482   7.331   6.151   9.868 -0.9538 -0.5654 -0.1401
  883MOL0     C16483   7.424   6.213   9.777  0.3475  0.2207  0.3278
  883MOL0     C16484   7.478   6.113   9.679 -0.6898 -0.3019 -0.5155
  883MOL0     C16485   7.585   6.163   9.587 -0.2959 -0.1195 -0.1241
  883MOL0     C16486   7.542   6.280   9.488  0.3760  0.6805  0.2632
  883MOL0     C16487   7.418   6.268   9.407 -0.3487 -0.2246 -0.7170
  883MOL0     C16488   7.315   6.269   9.332  0.0231 -0.9277  0.5458
  883MOL0     C16489   7.146   6.188   9.722 -0.6716  0.0258  0.0139
  883MOL0     C16490   7.009   6.189   9.705 -1.0267  0.1731 -0.4802
  883MOL0     H16491   6.565   6.022   9.578  1.1644  0.9155 -1.1880
  883MOL0     H16492   6.321   6.039   9.569  0.3077 -1.4424  1.5349
  883MOL0     H16493   6.114   6.113   9.648 -3.7356  2.0020  1.6691
  883MOL0     H16494   6.132   6.123   9.470  1.1082 -0.4510 -0.0003
  883MOL0     H16495   5.905   6.244   9.615 -2.0022 -1.8404 -0.6817
  883MOL0     H16496   5.917   6.112   9.514  0.7856  0.7328 -2.9382
  883MOL0     H16497   5.995   6.212   9.316 -0.9151 -1.3188  0.3447
  883MOL0     H16498   6.021   6.367   9.401  1.1501 -0.7066  0.0704
  883MOL0     H16499   5.745   6.249   9.362  0.6369 -0.1452  0.0330
  883MOL0     H16500   5.780   6.386   9.460  0.7605 -2.5034  0.0860
  883MOL0     H16501   5.862   6.354   9.157  0.7721  1.4990 -1.4575
  883MOL0     H16502   5.910   6.492   9.260  0.4867 -0.1866  1.0253
  883MOL0     H16503   5.623   6.399   9.193 -0.1544  0.1935 -1.3977
  883MOL0     H16504   5.720   6.508   9.088 -0.8908  0.8037 -0.2190
  883MOL0     H16505   5.545   6.588   9.283 -0.4125 -1.9075  0.7133
  883MOL0     H16506   5.696   6.591   9.380 -2.0920 -3.0887  1.4176
  883MOL0     H16507   5.634   6.767   9.133 -0.1125 -0.2183  0.5875
  883MOL0     H16508   5.792   6.698   9.156  1.1637  1.0983  0.5115
  883MOL0     H16509   5.552   6.914   9.369 -0.6342 -2.4356 -1.2153
  883MOL0     H16510   5.577   7.064   9.564  0.4716 -1.8480 -1.1462
  883MOL0     H16511   5.717   7.162   9.569 -0.6163  0.0627  0.2648
  883MOL0     H16512   5.840   6.996   9.708  0.8914 -0.3147  0.0173
  883MOL0     H16513   5.683   6.914   9.744 -0.0993  0.6691  2.6488
  883MOL0     H16514   5.599   7.126   9.830  0.7202  1.4221 -2.2584
  883MOL0     H16515   5.740   7.057   9.919 -0.1114 -1.1845 -1.6225
  883MOL0     H16516   5.754   7.296   9.721 -0.8886  0.1296 -0.7122
  883MOL0     H16517   5.889   7.225   9.796 -0.5929 -0.8259  1.3695
  883MOL0     H16518   5.664   7.408  10.149 -0.2916 -0.3170 -0.3824
  883MOL0     H16519   5.440   7.488  10.212  0.2491 -0.7415  0.7509
  883MOL0     H16520   5.111   7.638  10.419 -0.4027  0.0868  0.0637
  883MOL0     H16521   4.924   7.673  10.479 -2.0301 -2.1160  1.2487
  883MOL0     H16522   4.636   7.746  10.499  1.0248 -0.4928  1.8913
  883MOL0     H16523   4.689   7.587  10.562  0.8076  0.0595  0.2280
  883MOL0     H16524   4.418   7.617  10.422 -1.6236  4.6826  1.5165
  883MOL0     H16525   4.454   7.612  10.603  0.9779 -1.5096  0.7201
  883MOL0     H16526   4.556   7.388  10.577  1.2928  0.2015 -1.4008
  883MOL0     H16527   4.517   7.387  10.416  1.1465 -2.1575  1.9399
  883MOL0     H16528   4.308   7.439  10.639 -0.7734 -1.4665  1.7224
  883MOL0     H16529   4.265   7.407  10.468 -0.9428  0.3171  1.7687
  883MOL0     H16530   4.208   7.209  10.605  0.1166 -0.7124 -1.4228
  883MOL0     H16531   4.378   7.206  10.664  1.4519 -3.6938 -2.5965
  883MOL0     H16532   4.465   7.164  10.474 -0.1427  1.0997  3.2752
  883MOL0     H16533   4.319   7.205  10.370 -1.7004  1.8370  1.9517
  883MOL0     H16534   4.362   6.971  10.569  1.4794  0.7848  0.3021
  883MOL0     H16535   4.217   6.987  10.459 -0.6591  2.4708 -2.5572
  883MOL0     H16536   4.378   6.823  10.400 -1.8256  0.0329  0.9057
  883MOL0     H16537   4.481   6.947  10.327 -1.6448  1.0994 -3.3442
  883MOL0     H16538   4.737   7.452  10.160 -0.8778 -0.5509 -0.0509
  883MOL0     H16539   4.956   7.421  10.078 -5.2472 -1.6175  1.2714
  883MOL0     H16540   5.336   7.435   9.798 -3.5407  3.2371  3.1619
  883MOL0     H16541   5.556   7.318   9.755 -4.5046 -0.3959 -0.5143
  883MOL0     H16542   6.355   6.456   9.688  3.0577  2.4069  1.0542
  883MOL0     H16543   6.589   6.444   9.702 -0.3394 -0.4186  0.1133
  883MOL0     H16544   6.913   6.051  10.001 -3.5010 -0.7059 -2.3446
  883MOL0     H16545   7.161   6.076  10.044  1.7945  4.5993  0.6152
  883MOL0     H16546   7.510   6.246   9.835  0.2641 -0.3572  0.7904
  883MOL0     H16547   7.391   6.302   9.722 -1.0892  0.4998  1.5747
  883MOL0     H16548   7.517   6.034   9.743  0.5371  1.9100  1.6320
  883MOL0     H16549   7.395   6.065   9.626  1.4695 -2.3030 -2.3365
  883MOL0     H16550   7.623   6.086   9.520  0.7862  1.9555 -2.0612
  883MOL0     H16551   7.674   6.196   9.641  0.0423  0.7144 -1.1568
  883MOL0     H16552   7.546   6.373   9.546  0.5193 -0.1206  1.5901
  883MOL0     H16553   7.628   6.285   9.420  0.7358 -0.6192  0.5883
  883MOL0     H16554   7.236   6.270   9.259 -0.4898 -3.2869  0.9742
  883MOL0     H16555   7.213   6.219   9.642 -2.1403 -1.5754 -1.9396
  883MOL0     H16556   6.982   6.228   9.607 -0.5542 -1.4119 -1.2731
  884MOL0     O16557  10.211   0.103   4.380  0.3804 -0.6307  0.1036
  884MOL0     C16558  10.175   0.218   4.349 -0.1307 -0.1011  0.6826
  884MOL0     O16559  10.069   0.252   4.269 -0.2802  0.1477 -0.6260
  884MOL0     C16560   9.959   0.173   4.260  0.4458 -0.0487 -0.9077
  884MOL0     C16561   9.882   0.189   4.143  0.3828 -0.0741  0.3751
  884MOL0     C16562   9.779   0.103   4.116 -0.3110  0.3414 -0.7318
  884MOL0     C16563   9.749  -0.001   4.209 -0.7224 -0.0144  0.6720
  884MOL0     O16564   9.651  -0.088   4.184  0.0200 -0.3634  0.3516
  884MOL0     C16565   9.642  -0.168   4.064 -0.2263  0.8387  0.5893
  884MOL0     C16566   9.500  -0.214   4.055 -0.5626 -0.3803  0.8643
  884MOL0     C16567   9.433  -0.261   4.186  0.2334  0.0638 -0.4550
  884MOL0     C16568   9.305  -0.344   4.160 -0.0403 -0.4713 -0.2459
  884MOL0     C16569   9.218  -0.343   4.278  0.7496  0.4041  0.0250
  884MOL0     C16570   9.106  -0.452   4.268 -0.3142  0.2216 -0.5477
  884MOL0     C16571   9.151  -0.602   4.278  0.2013 -0.1966  0.2307
  884MOL0     C16572   9.173  -0.644   4.426  0.0776 -0.3454 -0.0396
  884MOL0     N16573   9.049  -0.648   4.507  0.5216 -0.0861 -1.1225
  884MOL0     C16574   8.931  -0.703   4.466 -0.7698  0.3353  0.6790
  884MOL0     C16575   8.837  -0.669   4.561  0.5542  0.4729 -0.0643
  884MOL0     C16576   8.690  -0.705   4.551 -0.6086  0.6058  0.5438
  884MOL0     C16577   8.627  -0.655   4.418  0.7339 -0.0503  0.6679
  884MOL0     C16578   8.634  -0.499   4.400 -0.7737 -0.2432  0.5612
  884MOL0     C16579   8.570  -0.413   4.498  0.4207  0.2556  0.2772
  884MOL0     O16580   8.585  -0.272   4.476  0.6579 -0.3269 -0.1497
  884MOL0     C16581   8.711  -0.217   4.483  0.7349 -0.5247 -0.8161
  884MOL0     C16582   8.806  -0.269   4.565  0.1363 -0.6442 -0.7759
  884MOL0     C16583   8.939  -0.208   4.579  0.4477 -0.0542 -0.3001
  884MOL0     C16584   8.968  -0.090   4.507  0.0586 -0.0837 -0.4666
  884MOL0     C16585   9.096  -0.027   4.519  0.6235  0.0617 -0.3268
  884MOL0     O16586   9.137   0.043   4.408  1.1807 -0.2726  0.1215
  884MOL0     C16587   9.250   0.114   4.411 -0.2498  0.7009  0.8580
  884MOL0     C16588   9.245   0.231   4.483 -0.0151 -0.3089 -0.8791
  884MOL0     C16589   9.356   0.317   4.479 -1.0725  0.8130  0.0305
  884MOL0     C16590   9.469   0.284   4.417 -0.1042  0.2460 -0.4441
  884MOL0     O16591   9.572   0.376   4.436 -0.7942 -0.3386  0.6012
  884MOL0     C16592   9.698   0.360   4.355 -0.1909 -0.5479 -0.2062
  884MOL0     C16593   9.805   0.477   4.382 -0.7411  0.3802 -0.2317
  884MOL0     C16594   9.863   0.460   4.525  0.0446  0.6578 -0.5983
  884MOL0     C16595   9.941   0.582   4.578 -0.0083  0.7045  0.0752
  884MOL0     C16596  10.042   0.550   4.688  0.5333 -0.1465 -0.6596
  884MOL0     C16597  10.139   0.670   4.712  0.0843 -0.5276 -0.3512
  884MOL0     C16598  10.236   0.661   4.844  0.3449 -0.5550 -0.0825
  884MOL0     C16599  10.139   0.647   4.968 -0.0758  0.0873 -0.0858
  884MOL0    Cl16600  10.237   0.636   5.126  0.1704  0.3746 -0.5034
  884MOL0     C16601   9.479   0.164   4.338  1.0406 -0.2055  0.8929
  884MOL0     C16602   9.364   0.081   4.330 -0.8032 -0.1626 -0.2925
  884MOL0     O16603   9.156  -0.043   4.631 -0.6338 -0.3426 -1.3833
  884MOL0     C16604   8.858  -0.037   4.435 -0.4432 -0.7545 -0.5059
  884MOL0     C16605   8.733  -0.095   4.422  0.1721 -0.2704  0.3725
  884MOL0     N16606   8.908  -0.581   4.650  0.2007  0.9931 -1.0018
  884MOL0     N16607   9.030  -0.571   4.618  0.2370  0.2855  0.2669
  884MOL0     C16608   9.815  -0.009   4.328 -0.8221  0.0019  1.1867
  884MOL0     C16609   9.924   0.077   4.352  0.4097  0.3623  0.6123
  884MOL0     C16610  10.267   0.333   4.379  0.9514  0.0426 -0.1532
  884MOL0     C16611  10.359   0.333   4.485  0.1530 -0.0887  0.2213
  884MOL0     C16612  10.424   0.453   4.530 -0.0321  0.3828  0.1894
  884MOL0     C16613  10.423   0.566   4.450 -0.8203 -0.6564  0.1038
  884MOL0     O16614  10.504   0.676   4.473  0.4181 -0.3212  0.1680
  884MOL0     C16615  10.631   0.661   4.540 -0.2768  0.0222 -0.2507
  884MOL0     C16616  10.625   0.683   4.693  0.0889 -0.6405 -0.1100
  884MOL0     C16617  10.596   0.829   4.726 -0.0741  0.1455  0.2468
  884MOL0     C16618  10.597   0.844   4.876 -0.0181  0.1463  0.2808
  884MOL0     C16619  10.514   0.962   4.909 -0.2693  0.4793  0.4405
  884MOL0     C16620  10.438   1.049   4.917 -1.0053 -1.1607 -0.3190
  884MOL0     C16621  10.340   0.559   4.330  0.2330 -0.3085 -1.2653
  884MOL0     C16622  10.262   0.453   4.296 -0.2619 -0.2765 -0.6937
  884MOL0     H16623   9.929   0.270   4.088  1.3899  0.8429  2.5090
  884MOL0     H16624   9.723   0.117   4.024  1.1289  1.0152 -1.5365
  884MOL0     H16625   9.698  -0.260   4.081  0.9481  1.6110  0.9878
  884MOL0     H16626   9.674  -0.121   3.970 -0.3189  3.7215  1.8979
  884MOL0     H16627   9.501  -0.300   3.987 -0.4142 -0.2205  0.6626
  884MOL0     H16628   9.453  -0.127   4.009  2.9201  1.9371  1.3313
  884MOL0     H16629   9.414  -0.173   4.248  3.0688 -1.0606  2.3301
  884MOL0     H16630   9.505  -0.321   4.243 -0.2090 -0.4313 -0.4116
  884MOL0     H16631   9.252  -0.290   4.081  1.5834 -0.6602 -1.5135
  884MOL0     H16632   9.343  -0.442   4.132  1.6316 -0.3721  1.4422
  884MOL0     H16633   9.168  -0.248   4.296 -0.8372 -0.5452  0.9149
  884MOL0     H16634   9.276  -0.370   4.366 -0.4246  0.2511  0.7711
  884MOL0     H16635   9.054  -0.451   4.172 -5.2786  0.1401  1.7691
  884MOL0     H16636   9.032  -0.433   4.348  1.3931 -1.9620  1.7035
  884MOL0     H16637   9.078  -0.660   4.221 -1.0286  2.2750 -0.8955
  884MOL0     H16638   9.242  -0.620   4.220 -1.1386 -2.2631 -1.3973
  884MOL0     H16639   9.241  -0.572   4.473  0.8403 -0.6126 -0.7241
  884MOL0     H16640   9.230  -0.738   4.420 -2.1103 -1.7099 -0.7618
  884MOL0     H16641   8.917  -0.753   4.371 -0.4613  2.0773 -0.3250
  884MOL0     H16642   8.635  -0.657   4.632 -1.4785 -0.1731  0.4303
  884MOL0     H16643   8.692  -0.814   4.560  3.0495  0.3403 -1.5225
  884MOL0     H16644   8.520  -0.677   4.404  0.7827  1.4292 -3.3573
  884MOL0     H16645   8.679  -0.704   4.336 -2.0156 -1.3084 -0.4695
  884MOL0     H16646   8.740  -0.474   4.393 -0.3457 -2.0122  0.2842
  884MOL0     H16647   8.589  -0.483   4.302  1.4007 -1.4165 -0.6964
  884MOL0     H16648   8.596  -0.452   4.597 -3.1032 -0.8210  0.9193
  884MOL0     H16649   8.461  -0.423   4.490  0.3608 -0.0030  1.2493
  884MOL0     H16650   8.793  -0.354   4.631  1.7421 -1.7641 -1.8423
  884MOL0     H16651   9.012  -0.264   4.635 -0.7792 -1.3926  0.0178
  884MOL0     H16652   9.158   0.258   4.542  1.2502  1.4265  0.2917
  884MOL0     H16653   9.347   0.407   4.538  0.6728 -0.1253  1.8513
  884MOL0     H16654   9.671   0.361   4.249  0.4723  1.3679 -0.3912
  884MOL0     H16655   9.746   0.263   4.376 -1.3577 -0.6176  2.5907
  884MOL0     H16656   9.753   0.573   4.376  0.8816  1.3007 -0.2903
  884MOL0     H16657   9.883   0.492   4.307 -1.6124  1.3902 -0.9719
  884MOL0     H16658   9.924   0.369   4.532 -1.1913 -0.2923 -1.6001
  884MOL0     H16659   9.785   0.460   4.601  2.2581 -1.8620  1.8779
  884MOL0     H16660   9.995   0.615   4.489 -1.6419  0.2796 -1.1160
  884MOL0     H16661   9.868   0.662   4.591 -0.1930  0.7126 -0.9538
  884MOL0     H16662  10.105   0.466   4.659 -1.0627 -2.0575  1.1414
  884MOL0     H16663   9.991   0.526   4.782  2.2136 -0.4318  0.2172
  884MOL0     H16664  10.072   0.755   4.729 -0.9569 -1.1264 -1.3171
  884MOL0     H16665  10.194   0.679   4.618 -0.7449  0.9207 -0.7209
  884MOL0     H16666  10.313   0.583   4.848  1.3012  0.4257  1.6937
  884MOL0     H16667  10.291   0.755   4.858 -2.3124  1.2009 -0.5296
  884MOL0     H16668  10.067   0.565   4.966 -0.7826  0.7178 -1.5705
  884MOL0     H16669  10.083   0.741   4.975  0.1905  0.3503 -1.2640
  884MOL0     H16670   9.568   0.143   4.279  1.6857  1.0870  1.3553
  884MOL0     H16671   9.374  -0.001   4.260  1.9324 -0.5741  0.4691
  884MOL0     H16672   8.877   0.060   4.391  3.1422  0.4050  2.9853
  884MOL0     H16673   8.663  -0.053   4.350  0.7908 -2.3891 -1.6019
  884MOL0     H16674   9.794  -0.087   4.400  4.5983 -2.5262  0.4818
  884MOL0     H16675   9.984   0.065   4.442 -0.7773 -0.5567  1.3056
  884MOL0     H16676  10.368   0.238   4.535 -0.5402 -1.1158 -1.5263
  884MOL0     H16677  10.483   0.455   4.621  0.3647  0.3240 -0.0633
  884MOL0     H16678  10.717   0.713   4.498  0.6766 -1.8262 -0.6977
  884MOL0     H16679  10.664   0.557   4.527  0.9448  0.1788  1.3771
  884MOL0     H16680  10.540   0.626   4.732 -2.2925  1.4795 -1.9002
  884MOL0     H16681  10.724   0.650   4.728  3.1616  2.9276 -4.3209
  884MOL0     H16682  10.499   0.863   4.690 -0.2238 -0.9620 -0.4750
  884MOL0     H16683  10.677   0.896   4.697  1.1264 -0.2064  2.5175
  884MOL0     H16684  10.555   0.758   4.928 -0.5853 -0.7060 -1.4778
  884MOL0     H16685  10.698   0.856   4.914  0.0695 -0.3276  0.2101
  884MOL0     H16686  10.367   1.128   4.929 -0.7132 -1.1780  1.9066
  884MOL0     H16687  10.358   0.651   4.274 -0.5235 -0.2048 -1.3486
  884MOL0     H16688  10.200   0.472   4.209  0.5005  2.2821 -0.7569
  885MOL0     O16689   7.967  10.799   9.408  0.0332 -0.5572 -0.4807
  885MOL0     C16690   7.889  10.726   9.359 -0.3259  0.9977  0.4018
  885MOL0     O16691   7.912  10.593   9.323  0.3102  1.3020  0.4016
  885MOL0     C16692   8.032  10.537   9.370 -0.0290 -0.4230  0.8683
  885MOL0     C16693   8.118  10.491   9.270  0.0596  0.2250 -0.5136
  885MOL0     C16694   8.240  10.447   9.313  0.4703  1.1847  1.3201
  885MOL0     C16695   8.289  10.456   9.444  0.3740 -0.2675 -0.1274
  885MOL0     O16696   8.408  10.395   9.474 -0.9187 -0.6828 -0.2824
  885MOL0     C16697   8.405  10.250   9.480  0.2756 -0.1276 -0.6872
  885MOL0     C16698   8.547  10.213   9.474  0.2427 -1.1798 -0.0165
  885MOL0     C16699   8.553  10.063   9.499  0.1073  1.1585  0.4465
  885MOL0     C16700   8.698  10.019   9.516  0.5794  0.5194 -0.4486
  885MOL0     C16701   8.730   9.864   9.500  0.1990  0.0830  0.6183
  885MOL0     C16702   8.871   9.846   9.541  0.5259  1.2786  1.0464
  885MOL0     C16703   8.889   9.820   9.697 -0.1203  0.0653 -0.1491
  885MOL0     C16704   9.034   9.795   9.742 -0.0879  0.0536  0.0548
  885MOL0     N16705   9.040   9.652   9.746  0.5099  0.5702 -0.8033
  885MOL0     C16706   9.089   9.581   9.849 -0.2164 -0.0260 -0.0626
  885MOL0     C16707   9.093   9.454   9.809  0.2003  0.1813 -0.1175
  885MOL0     C16708   9.132   9.331   9.891 -0.3210  0.0972 -0.9115
  885MOL0     C16709   9.187   9.366  10.022 -0.3256  1.3175 -0.4314
  885MOL0     C16710   9.267   9.255  10.102 -0.4596 -0.1285 -0.5612
  885MOL0     C16711   9.209   9.109  10.104 -0.2461  0.0786 -0.1691
  885MOL0     O16712   9.309   9.026  10.154  0.0491  0.3791 -0.9262
  885MOL0     C16713   9.316   8.901  10.096  0.8267  0.4404  0.0898
  885MOL0     C16714   9.206   8.829  10.049  0.3782  0.0156  0.9327
  885MOL0     C16715   9.214   8.708   9.981 -0.9752  0.8459 -0.9965
  885MOL0     C16716   9.336   8.648   9.957  1.4346  0.0079  0.6680
  885MOL0     C16717   9.347   8.527   9.866 -0.0172 -1.8188  0.5486
  885MOL0     O16718   9.440   8.439   9.902  0.1986  0.0223  0.2229
  885MOL0     C16719   9.420   8.306   9.857  0.1650 -0.1248  0.3231
  885MOL0     C16720   9.325   8.216   9.914  0.3391  0.6903 -1.0518
  885MOL0     C16721   9.330   8.077   9.879  0.8458 -0.4036 -0.4323
  885MOL0     C16722   9.420   8.030   9.789 -0.2144 -0.3592  0.7449
  885MOL0     O16723   9.420   7.895   9.750  0.5369 -0.9067 -0.0538
  885MOL0     C16724   9.545   7.821   9.732 -0.4232 -0.5351 -1.3254
  885MOL0     C16725   9.549   7.773   9.588  0.4640  0.5721  0.6316
  885MOL0     C16726   9.659   7.671   9.561 -0.5920 -0.1743  0.9883
  885MOL0     C16727   9.792   7.726   9.620  0.4329 -0.1824 -0.0615
  885MOL0     C16728   9.919   7.660   9.558  0.4620 -0.3117 -0.5216
  885MOL0     C16729  10.032   7.712   9.629 -0.6994  0.6626 -0.4664
  885MOL0     C16730  10.070   7.636   9.758  0.4661 -0.7503 -0.1853
  885MOL0     C16731  10.176   7.710   9.847 -0.0549  0.2072  0.3052
  885MOL0    Cl16732  10.323   7.700   9.748 -0.2625 -0.2324  0.5572
  885MOL0     C16733   9.506   8.121   9.728 -0.2862  0.1773  0.5275
  885MOL0     C16734   9.510   8.261   9.762  0.2716  0.2492  0.2234
  885MOL0     O16735   9.268   8.522   9.770 -0.0554 -0.0404 -0.6305
  885MOL0     C16736   9.452   8.716  10.004  0.9244 -0.5701 -0.0297
  885MOL0     C16737   9.438   8.846  10.064 -0.7657  0.0165 -0.2874
  885MOL0     N16738   9.051   9.449   9.679 -0.1306  0.3540  0.0645
  885MOL0     N16739   9.013   9.566   9.640  0.0594  0.0108 -0.2746
  885MOL0     C16740   8.197  10.492   9.543  1.6191 -1.1446  0.5008
  885MOL0     C16741   8.065  10.545   9.511  0.0363  0.3539 -0.1061
  885MOL0     C16742   7.756  10.782   9.315  0.3536 -0.8769 -1.5382
  885MOL0     C16743   7.725  10.914   9.353 -0.9028  0.1640  0.1185
  885MOL0     C16744   7.601  10.962   9.325  0.2817  0.2374 -0.1888
  885MOL0     C16745   7.505  10.880   9.261 -0.6724  0.3219 -0.0304
  885MOL0     O16746   7.386  10.938   9.234  0.6543  0.6406  0.6962
  885MOL0     C16747   7.272  10.842   9.215 -1.1635  0.1210  0.4435
  885MOL0     C16748   7.141  10.906   9.239  0.5110 -0.3353 -0.2431
  885MOL0     C16749   7.093  10.994   9.125  0.2797  0.1268  0.6527
  885MOL0     C16750   6.958  11.060   9.151 -0.3197  0.5428 -1.1133
  885MOL0     C16751   6.897  11.132   9.037 -0.5985  0.2246 -1.2588
  885MOL0     C16752   6.859  11.182   8.939  1.4534  0.0584 -0.1895
  885MOL0     C16753   7.543  10.751   9.211 -0.1372 -0.4141 -0.8719
  885MOL0     C16754   7.666  10.700   9.252  0.5746  0.0413 -0.0787
  885MOL0     H16755   8.104  10.495   9.163 -2.3605  0.9386 -0.2407
  885MOL0     H16756   8.301  10.409   9.232 -3.8029 -2.4349 -0.5755
  885MOL0     H16757   8.342  10.206   9.402 -0.7473 -0.9607  0.5484
  885MOL0     H16758   8.366  10.220   9.578  1.5237  2.1104  0.5607
  885MOL0     H16759   8.595  10.267   9.556 -4.6233  0.6320  1.9951
  885MOL0     H16760   8.600  10.238   9.382  1.5261 -1.1176  0.7000
  885MOL0     H16761   8.510  10.008   9.414  2.6017  0.1914 -0.2994
  885MOL0     H16762   8.497  10.041   9.590 -2.0090 -0.1368 -1.0888
  885MOL0     H16763   8.763  10.070   9.444  0.1918  2.7454  0.6894
  885MOL0     H16764   8.723  10.055   9.616 -2.1388  0.7154  0.2627
  885MOL0     H16765   8.721   9.838   9.394  2.5920  1.1385  0.0708
  885MOL0     H16766   8.662   9.800   9.557 -3.0055 -0.2101 -3.1165
  885MOL0     H16767   8.925   9.933   9.502 -1.6706  2.0474 -0.5209
  885MOL0     H16768   8.901   9.758   9.484 -2.8126  0.8151 -0.2429
  885MOL0     H16769   8.845   9.897   9.760  2.4055  0.7622  0.8755
  885MOL0     H16770   8.827   9.736   9.731 -1.3304  1.0142  0.0878
  885MOL0     H16771   9.062   9.846   9.835  0.7604 -0.0724 -0.1297
  885MOL0     H16772   9.107   9.825   9.667 -1.4392  2.0584 -0.5278
  885MOL0     H16773   9.119   9.620   9.945 -0.5114  1.0918 -0.4133
  885MOL0     H16774   9.211   9.290   9.828  0.8436  0.3329  0.3611
  885MOL0     H16775   9.049   9.259   9.894 -0.6938  0.5451 -0.1429
  885MOL0     H16776   9.104   9.397  10.086 -1.4291  3.3384 -2.6554
  885MOL0     H16777   9.268   9.440  10.010  1.3249 -0.3698 -0.1666
  885MOL0     H16778   9.369   9.246  10.064  1.6584  0.4424  4.2855
  885MOL0     H16779   9.280   9.282  10.207  0.0951 -1.4403 -0.2830
  885MOL0     H16780   9.190   9.082  10.000  2.5306  1.4785 -1.1464
  885MOL0     H16781   9.124   9.083  10.168  0.6146 -0.0684  0.9327
  885MOL0     H16782   9.105   8.866  10.059  0.2258 -0.8376  2.9839
  885MOL0     H16783   9.130   8.662   9.929 -0.9255  1.2561 -1.4532
  885MOL0     H16784   9.240   8.252   9.970  2.1217  0.9305  1.7037
  885MOL0     H16785   9.262   8.011   9.931  1.0711 -0.1962  0.1324
  885MOL0     H16786   9.556   7.731   9.793  1.5860  2.1071  2.5922
  885MOL0     H16787   9.623   7.890   9.764 -0.7873 -1.2321  1.3369
  885MOL0     H16788   9.560   7.855   9.516  1.0209 -0.4028 -0.4450
  885MOL0     H16789   9.455   7.718   9.588  0.0948  1.1586  2.5503
  885MOL0     H16790   9.654   7.635   9.458 -0.1666 -0.9620  1.2395
  885MOL0     H16791   9.639   7.579   9.616  1.1038 -1.2933 -0.1679
  885MOL0     H16792   9.801   7.833   9.599 -0.4876 -0.1980 -0.5869
  885MOL0     H16793   9.799   7.723   9.729  2.0408  0.2685 -0.1270
  885MOL0     H16794   9.920   7.686   9.452  2.0641 -4.3705 -1.7010
  885MOL0     H16795   9.901   7.552   9.561  0.0325 -0.3304 -2.4691
  885MOL0     H16796  10.022   7.819   9.649 -1.6355  0.3179  1.0918
  885MOL0     H16797  10.118   7.710   9.562 -1.1608 -4.9416 -1.3837
  885MOL0     H16798   9.973   7.621   9.806 -2.1307  1.1433 -4.2579
  885MOL0     H16799  10.106   7.535   9.735 -0.4248 -0.6424 -2.3117
  885MOL0     H16800  10.188   7.655   9.940 -0.1440  0.1961  0.3098
  885MOL0     H16801  10.149   7.812   9.875  0.5100 -0.1350  2.2029
  885MOL0     H16802   9.564   8.082   9.646 -0.1332  1.7959 -0.1697
  885MOL0     H16803   9.578   8.328   9.711  0.1442  2.7040  3.0298
  885MOL0     H16804   9.548   8.672   9.981 -0.1131 -3.4040  0.5728
  885MOL0     H16805   9.529   8.901  10.084  0.8894 -3.5733  3.6487
  885MOL0     H16806   8.242  10.488   9.641  1.2729 -0.0568  0.7165
  885MOL0     H16807   7.994  10.585   9.584  1.5687 -1.4803  2.5739
  885MOL0     H16808   7.796  10.973   9.409 -0.1357  1.3291 -1.9812
  885MOL0     H16809   7.569  11.060   9.357  0.2356 -0.3535  1.7063
  885MOL0     H16810   7.291  10.762   9.287  0.5274 -0.1665 -0.2891
  885MOL0     H16811   7.263  10.800   9.115  3.3788  2.7169 -1.3594
  885MOL0     H16812   7.068  10.825   9.243  2.2806 -2.1763 -2.4578
  885MOL0     H16813   7.132  10.966   9.331  0.6224  2.5124 -1.9569
  885MOL0     H16814   7.098  10.936   9.032  1.0871  0.0575  0.7305
  885MOL0     H16815   7.170  11.070   9.110 -0.5548  0.2919 -4.4918
  885MOL0     H16816   6.892  10.976   9.172  0.7500  0.0932  0.5787
  885MOL0     H16817   6.959  11.116   9.245  2.4035  0.8336 -1.2549
  885MOL0     H16818   6.835  11.217   8.840  1.1653 -1.0099 -0.5052
  885MOL0     H16819   7.468  10.705   9.148 -2.2382  3.0169 -1.1172
  885MOL0     H16820   7.705  10.600   9.231  0.5689  0.2720 -1.2425
  886MOL0     O16821   7.308   9.568   1.382 -0.1183  0.7212 -0.9817
  886MOL0     C16822   7.271   9.478   1.456  0.5486  0.4927 -1.3378
  886MOL0     O16823   7.203   9.367   1.427  0.1078  0.0773  0.0644
  886MOL0     C16824   7.119   9.349   1.318 -0.7950 -1.3164 -0.1980
  886MOL0     C16825   7.072   9.463   1.244 -0.8083  0.3891 -0.1425
  886MOL0     C16826   6.998   9.442   1.129 -0.1550 -0.1819  0.1633
  886MOL0     C16827   6.961   9.313   1.091 -0.5969  0.2870 -0.5730
  886MOL0     O16828   6.861   9.283   1.002  0.2028 -0.0067 -0.2211
  886MOL0     C16829   6.877   9.343   0.870  0.6582  0.2418 -0.3336
  886MOL0     C16830   6.957   9.254   0.774  0.1904 -0.5468  0.8314
  886MOL0     C16831   6.886   9.129   0.717 -0.0034 -0.0375 -0.4854
  886MOL0     C16832   6.933   9.104   0.576  0.1316  0.6519  0.4272
  886MOL0     C16833   6.847   8.987   0.520  0.1160  0.1311 -0.0516
  886MOL0     C16834   6.851   8.962   0.367  0.5926 -0.3957  0.6753
  886MOL0     C16835   6.792   9.090   0.304 -0.8864 -1.2731  0.2665
  886MOL0     C16836   6.798   9.064   0.154 -0.3595 -0.1962  0.6952
  886MOL0     N16837   6.754   9.178   0.078  0.3051 -0.4824 -0.5201
  886MOL0     C16838   6.622   9.219   0.055 -0.3497  0.3916  0.0215
  886MOL0     C16839   6.636   9.339  -0.007 -0.5618  0.0225 -0.2130
  886MOL0     C16840   6.519   9.428  -0.030  0.2537 -0.1880  0.0101
  886MOL0     C16841   6.426   9.396  -0.147  0.8594 -0.1073  1.2714
  886MOL0     C16842   6.309   9.498  -0.134  0.2623  0.3366  0.5164
  886MOL0     C16843   6.206   9.492  -0.250  0.0300  0.7415 -0.1940
  886MOL0     O16844   6.092   9.565  -0.208  0.6920 -0.4636  0.0640
  886MOL0     C16845   5.972   9.551  -0.284 -1.2665 -0.1608 -1.1355
  886MOL0     C16846   5.858   9.618  -0.232  0.5594  0.5900  0.1891
  886MOL0     C16847   5.737   9.603  -0.304 -0.5079 -0.7416 -0.3459
  886MOL0     C16848   5.737   9.529  -0.427  0.5640 -0.1287  0.4953
  886MOL0     C16849   5.620   9.534  -0.516  0.2186 -0.2582  0.0863
  886MOL0     O16850   5.516   9.617  -0.475  0.1583 -0.1507 -0.1553
  886MOL0     C16851   5.398   9.628  -0.538 -0.5747 -0.6067  1.0605
  886MOL0     C16852   5.302   9.526  -0.555 -0.3804  0.2898 -0.6158
  886MOL0     C16853   5.174   9.547  -0.607  0.1308 -0.1192 -0.3568
  886MOL0     C16854   5.146   9.674  -0.648  0.0305 -0.7981 -0.0193
  886MOL0     O16855   5.012   9.696  -0.678  0.6987  0.8375  0.9106
  886MOL0     C16856   4.968   9.829  -0.721  0.2446  0.3855 -0.2760
  886MOL0     C16857   4.822   9.818  -0.772 -0.3398 -0.1928  0.8701
  886MOL0     C16858   4.738   9.721  -0.691 -0.1275 -0.4212 -0.0903
  886MOL0     C16859   4.723   9.741  -0.538  0.0962 -0.1398 -0.3753
  886MOL0     C16860   4.629   9.632  -0.485  0.6985  0.1406  0.4385
  886MOL0     C16861   4.613   9.664  -0.340 -0.3395  0.4809 -0.7748
  886MOL0     C16862   4.546   9.550  -0.266  0.3258  1.0539 -0.2769
  886MOL0     C16863   4.519   9.584  -0.114  0.1944 -0.4629 -0.8715
  886MOL0    Cl16864   4.654   9.588  -0.003 -0.0122  0.2561 -0.2319
  886MOL0     C16865   5.245   9.779  -0.643 -0.5312  0.6343  0.0731
  886MOL0     C16866   5.362   9.754  -0.590  0.2061  0.0588 -1.1313
  886MOL0     O16867   5.611   9.452  -0.604  0.1930 -1.1980 -0.1808
  886MOL0     C16868   5.853   9.466  -0.477 -0.1180  0.6380 -0.4131
  886MOL0     C16869   5.968   9.481  -0.403 -0.4788  0.5562 -0.1322
  886MOL0     N16870   6.774   9.366  -0.025  0.0491 -0.1704 -0.5017
  886MOL0     N16871   6.843   9.266   0.035  0.5136 -0.4079  0.2837
  886MOL0     C16872   6.994   9.208   1.178 -0.5059 -0.0093  0.9614
  886MOL0     C16873   7.084   9.217   1.284  0.2892  0.2946  0.0999
  886MOL0     C16874   7.340   9.488   1.595  1.1604  0.4306 -0.7706
  886MOL0     C16875   7.343   9.385   1.677 -0.2044  1.4746 -0.9794
  886MOL0     C16876   7.394   9.399   1.805 -0.0407 -0.1322 -0.8614
  886MOL0     C16877   7.455   9.513   1.855  0.2194 -0.4627  0.9463
  886MOL0     O16878   7.503   9.520   1.982 -0.5259 -0.0536 -0.2889
  886MOL0     C16879   7.559   9.642   2.026 -0.4114 -1.2027 -0.0457
  886MOL0     C16880   7.588   9.624   2.168  0.2726  1.1375 -0.5491
  886MOL0     C16881   7.637   9.750   2.247  0.3739 -0.2900 -0.6377
  886MOL0     C16882   7.663   9.701   2.384 -0.1940  0.7004 -0.0158
  886MOL0     C16883   7.648   9.802   2.484 -1.0273 -0.3668  0.0374
  886MOL0     C16884   7.635   9.891   2.562 -0.3536 -0.2886  0.6333
  886MOL0     C16885   7.458   9.624   1.771  0.0671  0.6759  0.1487
  886MOL0     C16886   7.401   9.614   1.638  0.5907 -0.3682  0.1323
  886MOL0     H16887   7.116   9.562   1.253 -3.2834  1.7462 -1.8907
  886MOL0     H16888   6.963   9.522   1.064  1.1939 -0.4709 -0.9555
  886MOL0     H16889   6.927   9.439   0.886  2.7538 -1.2446  3.1484
  886MOL0     H16890   6.779   9.344   0.821  0.8850 -1.3845 -0.9106
  886MOL0     H16891   7.049   9.226   0.826  1.0440  1.8019  0.7076
  886MOL0     H16892   6.992   9.314   0.689  1.0109  0.6006  1.9414
  886MOL0     H16893   6.778   9.145   0.722 -0.3118 -2.1646  1.8953
  886MOL0     H16894   6.897   9.041   0.782 -2.3578  0.8584  1.2608
  886MOL0     H16895   6.913   9.195   0.519  2.5992  0.8964 -0.1915
  886MOL0     H16896   7.040   9.083   0.572 -0.0106 -0.3130  1.4267
  886MOL0     H16897   6.747   9.025   0.542  1.3145  3.8618 -0.3553
  886MOL0     H16898   6.864   8.897   0.580 -1.9758  1.7871  3.3742
  886MOL0     H16899   6.787   8.881   0.333  1.3252  0.2277 -2.5377
  886MOL0     H16900   6.953   8.950   0.330  0.6625 -1.0483  1.0762
  886MOL0     H16901   6.690   9.117   0.331 -0.5086  0.3662  0.1735
  886MOL0     H16902   6.861   9.175   0.316  1.5683 -3.0533 -0.3708
  886MOL0     H16903   6.735   8.978   0.130  0.3064  0.2895 -3.7268
  886MOL0     H16904   6.904   9.057   0.128 -0.1550  1.0746  1.1085
  886MOL0     H16905   6.527   9.190   0.098 -1.1280  0.8374 -1.3379
  886MOL0     H16906   6.549   9.532  -0.047  1.4360 -0.2412  1.5297
  886MOL0     H16907   6.467   9.418   0.066 -0.2067 -2.0986 -0.3905
  886MOL0     H16908   6.380   9.297  -0.140 -0.1177 -0.2897 -3.9582
  886MOL0     H16909   6.473   9.392  -0.246 -2.0228 -3.1236 -0.1711
  886MOL0     H16910   6.256   9.463  -0.045 -0.2031 -3.3062 -0.9967
  886MOL0     H16911   6.354   9.597  -0.128  1.6659 -0.1662 -0.8064
  886MOL0     H16912   6.189   9.386  -0.270 -1.7325  0.9547  0.0380
  886MOL0     H16913   6.248   9.540  -0.339  0.8087 -0.4183 -0.4739
  886MOL0     H16914   5.862   9.671  -0.138  3.4427  1.9685 -0.5884
  886MOL0     H16915   5.649   9.652  -0.264  3.1112  2.3825  5.1696
  886MOL0     H16916   5.327   9.422  -0.532  1.5888  0.6555 -0.8803
  886MOL0     H16917   5.094   9.475  -0.619 -1.3120  1.7480 -2.7925
  886MOL0     H16918   5.041   9.863  -0.795  0.8338 -0.2112  0.0161
  886MOL0     H16919   4.974   9.901  -0.639  0.5907 -0.1487  0.1728
  886MOL0     H16920   4.819   9.795  -0.879 -1.9897 -1.0616  1.0607
  886MOL0     H16921   4.766   9.913  -0.774 -4.5708 -2.3068 -3.2957
  886MOL0     H16922   4.781   9.624  -0.718  1.9897  0.9230 -1.8645
  886MOL0     H16923   4.636   9.733  -0.727 -0.1567 -1.2719 -0.3065
  886MOL0     H16924   4.821   9.718  -0.498 -1.0814 -1.6500  1.8132
  886MOL0     H16925   4.676   9.833  -0.502  0.3239 -0.7776  1.6734
  886MOL0     H16926   4.683   9.537  -0.496 -3.0749 -2.1862  0.2011
  886MOL0     H16927   4.535   9.622  -0.540 -0.5129  0.5271  2.3491
  886MOL0     H16928   4.557   9.757  -0.329 -0.1270  0.7837 -2.1241
  886MOL0     H16929   4.705   9.676  -0.282 -0.8790 -3.7777  1.3873
  886MOL0     H16930   4.450   9.538  -0.315  0.1339  1.0889  0.0900
  886MOL0     H16931   4.618   9.467  -0.271  0.4202  0.9977  1.4515
  886MOL0     H16932   4.449   9.510  -0.075  2.1187 -1.2690  1.3268
  886MOL0     H16933   4.471   9.681  -0.098  2.8951  0.7204  0.8614
  886MOL0     H16934   5.221   9.879  -0.676  1.0337  0.6331 -1.1812
  886MOL0     H16935   5.438   9.832  -0.582  0.4328 -0.1919 -0.8302
  886MOL0     H16936   5.851   9.418  -0.574  0.8929  1.1984 -0.7253
  886MOL0     H16937   6.061   9.437  -0.437  0.6551  1.5350  1.5650
  886MOL0     H16938   6.952   9.113   1.146 -1.3462  0.4549  0.6426
  886MOL0     H16939   7.121   9.129   1.336  1.9535  0.5252 -0.6154
  886MOL0     H16940   7.292   9.293   1.650 -0.1773  1.5655 -1.3470
  886MOL0     H16941   7.410   9.327   1.885  3.5614  2.7700  1.4084
  886MOL0     H16942   7.485   9.722   2.015 -1.0106 -1.8150 -0.5975
  886MOL0     H16943   7.654   9.655   1.972 -1.6384 -0.0989 -2.0558
  886MOL0     H16944   7.504   9.570   2.213  2.5152 -0.8500  1.4988
  886MOL0     H16945   7.670   9.552   2.162 -3.2946 -3.4334 -0.1059
  886MOL0     H16946   7.552   9.819   2.250 -0.4133 -1.2597  0.0595
  886MOL0     H16947   7.720   9.798   2.196  0.7625 -1.2396 -0.9162
  886MOL0     H16948   7.597   9.616   2.405  1.8917 -1.1794 -0.5661
  886MOL0     H16949   7.768   9.668   2.387 -1.3690 -4.0451 -1.6350
  886MOL0     H16950   7.611   9.972   2.627  0.1381  0.7213 -0.4032
  886MOL0     H16951   7.495   9.722   1.798 -2.0787  1.6945 -0.4280
  886MOL0     H16952   7.396   9.698   1.571 -0.7655  0.0189  0.6920
  887MOL0     O16953  10.373   3.172   5.856 -1.2644  0.0415  0.1112
  887MOL0     C16954  10.465   3.104   5.807 -0.0355  0.4270  0.2747
  887MOL0     O16955  10.439   2.999   5.715 -0.0794 -0.2564  0.8397
  887MOL0     C16956  10.316   2.946   5.687  0.2899  0.4944  0.1955
  887MOL0     C16957  10.219   3.022   5.639 -0.5898  0.5382 -0.1011
  887MOL0     C16958  10.085   2.975   5.611 -0.1136 -0.5189  0.0692
  887MOL0     C16959  10.052   2.846   5.642  0.0604 -0.3886 -1.1620
  887MOL0     O16960   9.918   2.812   5.626 -0.3106 -0.0872 -0.3215
  887MOL0     C16961   9.861   2.709   5.707  0.4741  0.0086  0.3059
  887MOL0     C16962   9.889   2.581   5.626  0.2401  0.3387 -0.2904
  887MOL0     C16963   9.829   2.459   5.700 -0.1664 -0.8659 -0.3459
  887MOL0     C16964   9.696   2.405   5.648 -1.0223 -0.0447 -0.0449
  887MOL0     C16965   9.709   2.340   5.511 -0.4309 -0.2177  0.0467
  887MOL0     C16966   9.595   2.238   5.486  0.2848 -0.2836  0.3824
  887MOL0     C16967   9.559   2.213   5.341 -0.3451  1.0418 -0.2267
  887MOL0     C16968   9.664   2.169   5.247 -0.7512 -0.0622  0.1527
  887MOL0     N16969   9.610   2.169   5.112 -0.2497 -0.1293  0.1654
  887MOL0     C16970   9.603   2.054   5.036  0.7934  0.1525 -0.2579
  887MOL0     C16971   9.575   2.096   4.911  0.1807  0.3928  0.4506
  887MOL0     C16972   9.564   2.018   4.783  0.0662  0.7721  0.1258
  887MOL0     C16973   9.705   1.989   4.717  0.3484 -0.2998  0.4732
  887MOL0     C16974   9.679   1.920   4.579  0.1687  0.3391 -0.3225
  887MOL0     C16975   9.812   1.871   4.512  0.7196  0.5673  0.2796
  887MOL0     O16976   9.911   1.978   4.496 -0.1094  0.2235 -0.3389
  887MOL0     C16977  10.034   1.960   4.562 -0.5589  0.6130  1.1877
  887MOL0     C16978  10.139   2.036   4.514 -0.4754 -0.0585 -0.9770
  887MOL0     C16979  10.262   2.032   4.571 -0.3211 -0.1826  0.2901
  887MOL0     C16980  10.301   1.947   4.673 -0.7069  0.0852  0.2927
  887MOL0     C16981  10.439   1.932   4.738  1.1282  0.0097  0.6269
  887MOL0     O16982  10.531   2.024   4.683  0.3865  0.5556  0.0896
  887MOL0     C16983  10.653   1.997   4.722 -0.5918 -0.2696  0.5549
  887MOL0     C16984  10.719   2.085   4.801  0.0894 -0.6077 -0.2553
  887MOL0     C16985  10.851   2.055   4.833 -0.6334  0.1191  0.2338
  887MOL0     C16986  10.915   1.933   4.804 -0.1496 -0.5316  0.3023
  887MOL0     O16987  11.052   1.912   4.839 -0.1341 -0.3521 -0.1158
  887MOL0     C16988  11.079   1.786   4.889  1.0277  0.3694 -0.5335
  887MOL0     C16989  11.206   1.796   4.981 -0.1962 -0.2435  0.6688
  887MOL0     C16990  11.241   1.663   5.037 -0.5787 -0.4323  0.1784
  887MOL0     C16991  11.366   1.691   5.130  0.2874 -0.0709  0.4073
  887MOL0     C16992  11.338   1.758   5.262  1.0108 -0.0912 -0.4056
  887MOL0     C16993  11.441   1.750   5.374 -0.6677 -0.1716  0.4989
  887MOL0     C16994  11.414   1.831   5.502  0.3177 -0.0431  1.3118
  887MOL0     C16995  11.523   1.809   5.609 -0.0416 -0.5644 -0.8190
  887MOL0    Cl16996  11.487   1.925   5.741 -0.5795 -0.2373  0.2842
  887MOL0     C16997  10.841   1.842   4.725 -0.3757  1.0118  0.8740
  887MOL0     C16998  10.712   1.877   4.678  0.4332  0.7125 -0.5396
  887MOL0     O16999  10.461   1.839   4.820  0.1599 -0.5251 -1.1386
  887MOL0     C17000  10.201   1.857   4.706 -0.3033  0.6879 -0.6232
  887MOL0     C17001  10.065   1.868   4.661  0.2880  0.4158 -0.0862
  887MOL0     N17002   9.564   2.234   4.910  0.6073  0.8347  1.0084
  887MOL0     N17003   9.579   2.275   5.035  0.0026  0.3673 -0.8174
  887MOL0     C17004  10.149   2.767   5.701  0.3031  1.0280  0.8032
  887MOL0     C17005  10.279   2.818   5.717 -0.4110  0.1704 -0.4411
  887MOL0     C17006  10.603   3.137   5.824  0.0052 -0.0335 -0.0682
  887MOL0     C17007  10.708   3.071   5.743  0.8091  0.8998  0.3137
  887MOL0     C17008  10.841   3.125   5.744 -0.3782  0.4405  0.2460
  887MOL0     C17009  10.870   3.239   5.810 -0.0620  0.2698 -0.0271
  887MOL0     O17010  11.001   3.279   5.796 -0.1251  0.3501  0.4977
  887MOL0     C17011  11.013   3.366   5.687 -0.4082 -0.3515 -0.3357
  887MOL0     C17012  11.125   3.466   5.718 -0.2608 -1.0330  0.0874
  887MOL0     C17013  11.098   3.546   5.851 -0.0245  0.6658 -0.5154
  887MOL0     C17014  11.190   3.666   5.884  0.1621  0.2389 -0.1902
  887MOL0     C17015  11.340   3.653   5.883  0.6511  0.2518  0.4747
  887MOL0     C17016  11.458   3.640   5.876  0.9574 -0.0656  1.7499
  887MOL0     C17017  10.778   3.304   5.892  1.8772 -0.1826 -1.1186
  887MOL0     C17018  10.642   3.260   5.892  0.3596 -0.6734 -0.4496
  887MOL0     H17019  10.251   3.118   5.600  0.5307 -0.4489 -1.7597
  887MOL0     H17020  10.015   3.048   5.572 -0.3023 -0.6747  0.1178
  887MOL0     H17021   9.753   2.729   5.714  0.5218  0.6711 -0.6171
  887MOL0     H17022   9.902   2.699   5.808  1.3316  1.0865  0.0802
  887MOL0     H17023   9.993   2.567   5.593  0.2673  0.1933 -0.1458
  887MOL0     H17024   9.841   2.596   5.529 -1.0255  0.3722  0.3179
  887MOL0     H17025   9.814   2.492   5.803 -0.8059  1.3138 -1.0921
  887MOL0     H17026   9.898   2.375   5.710  1.2407  0.4030  1.4050
  887MOL0     H17027   9.653   2.339   5.724 -3.2499  0.6343 -0.6618
  887MOL0     H17028   9.623   2.486   5.638 -1.7577 -0.9208 -2.1923
  887MOL0     H17029   9.803   2.285   5.501  0.0211  0.7440 -1.2614
  887MOL0     H17030   9.728   2.417   5.435 -0.4231  0.3817  0.6444
  887MOL0     H17031   9.508   2.281   5.536 -0.3932 -2.0726  0.8165
  887MOL0     H17032   9.607   2.144   5.541  0.6107 -1.2919 -1.3306
  887MOL0     H17033   9.485   2.133   5.331 -0.0682  0.6797  0.5441
  887MOL0     H17034   9.510   2.305   5.307 -2.4083 -0.0662 -0.3982
  887MOL0     H17035   9.702   2.072   5.281  3.2489  1.3959  0.3923
  887MOL0     H17036   9.748   2.239   5.257 -1.8577  1.2084  0.9830
  887MOL0     H17037   9.628   1.955   5.074  0.0834  0.4215  0.9737
  887MOL0     H17038   9.497   2.073   4.717  0.2406  1.5726  0.5903
  887MOL0     H17039   9.500   1.935   4.813  0.3209 -0.5137 -2.6144
  887MOL0     H17040   9.766   1.922   4.779  1.6341  0.2366 -0.1539
  887MOL0     H17041   9.760   2.082   4.695  1.7034 -0.6312  2.2570
  887MOL0     H17042   9.614   1.834   4.598  0.0031  1.0680  3.0889
  887MOL0     H17043   9.627   1.995   4.519 -1.0589  0.7193  1.1503
  887MOL0     H17044   9.791   1.844   4.408  0.6136  1.5872  0.0231
  887MOL0     H17045   9.851   1.781   4.561  0.6924 -0.6038 -1.7401
  887MOL0     H17046  10.111   2.109   4.438  1.0596 -1.0665 -2.5639
  887MOL0     H17047  10.335   2.107   4.543 -1.6534  1.3760  0.8034
  887MOL0     H17048  10.679   2.181   4.830  1.6898 -0.2043  0.7063
  887MOL0     H17049  10.894   2.136   4.893 -1.7676  0.6474  0.3471
  887MOL0     H17050  11.100   1.722   4.802 -0.3705  0.4408 -0.9524
  887MOL0     H17051  10.994   1.752   4.948  4.1082 -1.6290  3.2261
  887MOL0     H17052  11.185   1.860   5.068  0.1637  0.2866  0.3774
  887MOL0     H17053  11.290   1.840   4.925 -1.3989  2.2663  0.7163
  887MOL0     H17054  11.279   1.587   4.968 -1.5780 -1.3876  0.6495
  887MOL0     H17055  11.153   1.631   5.093 -2.8740  1.9483 -1.8354
  887MOL0     H17056  11.409   1.592   5.147 -2.7528 -1.7089 -0.6904
  887MOL0     H17057  11.435   1.752   5.071 -0.6843 -2.4696 -3.5553
  887MOL0     H17058  11.241   1.720   5.296  0.7523  0.4585 -0.5251
  887MOL0     H17059  11.324   1.865   5.246 -0.7097 -0.4161 -1.4027
  887MOL0     H17060  11.533   1.789   5.331 -1.8426  3.0388  0.5874
  887MOL0     H17061  11.461   1.647   5.406  0.1081 -0.8089 -1.8074
  887MOL0     H17062  11.415   1.936   5.472  2.3226  0.4194  2.7515
  887MOL0     H17063  11.313   1.815   5.539  0.1822 -0.9030  0.5848
  887MOL0     H17064  11.621   1.828   5.564  0.6362 -2.4526 -0.2334
  887MOL0     H17065  11.523   1.705   5.640 -0.6516 -0.7964 -1.5654
  887MOL0     H17066  10.883   1.749   4.687 -3.3155  1.2610 -3.8314
  887MOL0     H17067  10.659   1.800   4.624 -2.6599  1.0981  1.6852
  887MOL0     H17068  10.228   1.784   4.782 -2.6563  1.8383  1.4608
  887MOL0     H17069  10.001   1.793   4.707  2.4499 -1.5984 -0.1576
  887MOL0     H17070  10.133   2.661   5.713  1.5847  0.9619  2.2374
  887MOL0     H17071  10.352   2.760   5.773  0.7518  1.8651 -0.1258
  887MOL0     H17072  10.692   2.973   5.700  2.7503  1.0811 -0.9078
  887MOL0     H17073  10.917   3.079   5.681 -1.9869  0.4354 -1.7987
  887MOL0     H17074  10.926   3.430   5.675  0.3134  1.2938  2.3324
  887MOL0     H17075  11.034   3.321   5.589 -2.7983  1.7577 -1.9440
  887MOL0     H17076  11.220   3.412   5.723 -0.8674 -2.0479  0.8726
  887MOL0     H17077  11.126   3.531   5.629 -2.6988 -1.2410 -0.1774
  887MOL0     H17078  11.094   3.479   5.937  2.7134 -0.4360 -1.1423
  887MOL0     H17079  10.998   3.585   5.833  0.1050  0.8833 -0.7721
  887MOL0     H17080  11.166   3.739   5.806 -1.6731 -1.5138 -1.3546
  887MOL0     H17081  11.151   3.703   5.979  1.8304 -0.4451  0.7964
  887MOL0     H17082  11.564   3.627   5.872  0.8061 -1.1805 -0.6273
  887MOL0     H17083  10.816   3.380   5.959 -0.2835 -0.8886  1.0756
  887MOL0     H17084  10.572   3.315   5.954 -0.9433 -1.1952 -1.4114
  888MOL0     O17085  10.176   6.103   8.681  0.0768  0.0675  0.5023
  888MOL0     C17086  10.202   6.048   8.786 -0.3082 -0.6122  0.2397
  888MOL0     O17087  10.124   6.039   8.894 -0.0556 -0.4639 -0.3252
  888MOL0     C17088   9.984   6.060   8.884  0.7215 -0.5835  1.1770
  888MOL0     C17089   9.932   6.178   8.820  0.9306 -0.6923 -0.4257
  888MOL0     C17090   9.793   6.209   8.823  0.2910  0.4295 -0.0586
  888MOL0     C17091   9.709   6.139   8.901 -0.0023 -0.2134  0.3521
  888MOL0     O17092   9.580   6.175   8.932  0.3152  0.5480 -0.5302
  888MOL0     C17093   9.549   6.318   8.959 -0.0154  0.8641  0.6745
  888MOL0     C17094   9.498   6.377   8.825 -0.3661 -0.0192 -0.2121
  888MOL0     C17095   9.346   6.356   8.810  0.0629 -0.3491  0.2967
  888MOL0     C17096   9.300   6.425   8.678  0.0434 -0.5735 -0.1006
  888MOL0     C17097   9.158   6.369   8.634  0.3973  0.1482 -0.3720
  888MOL0     C17098   9.053   6.454   8.704 -0.0546 -0.2098 -0.1822
  888MOL0     C17099   8.909   6.403   8.679  1.0345  0.5303 -0.6075
  888MOL0     C17100   8.871   6.284   8.767  0.6272 -0.4593 -0.1285
  888MOL0     N17101   8.901   6.300   8.910  0.0786 -0.2550  0.4850
  888MOL0     C17102   9.021   6.278   8.969 -0.5341  0.3151 -0.3182
  888MOL0     C17103   9.002   6.317   9.102  0.3349  0.6361  0.8195
  888MOL0     C17104   9.102   6.295   9.209 -0.2427  0.5850  0.4298
  888MOL0     C17105   9.184   6.416   9.238  0.6001  0.0944 -0.4314
  888MOL0     C17106   9.282   6.408   9.356 -1.3048  0.9308 -0.5504
  888MOL0     C17107   9.428   6.339   9.344 -0.2375 -1.1282  0.2795
  888MOL0     O17108   9.401   6.197   9.313  0.0551  0.2835 -0.2403
  888MOL0     C17109   9.505   6.104   9.298  0.0634 -0.0455  0.7070
  888MOL0     C17110   9.461   5.968   9.283  0.0171  0.7519 -0.3263
  888MOL0     C17111   9.567   5.872   9.265  0.2321  0.2923 -0.6939
  888MOL0     C17112   9.703   5.901   9.274  0.4077  0.0592  0.5970
  888MOL0     C17113   9.801   5.796   9.281  0.1224  0.4123 -0.0062
  888MOL0     O17114   9.929   5.841   9.280 -0.7588  0.3347 -1.0298
  888MOL0     C17115  10.028   5.754   9.322  0.6248 -0.0411 -0.2421
  888MOL0     C17116  10.020   5.695   9.450 -0.2606  0.8641 -0.7994
  888MOL0     C17117  10.143   5.626   9.493 -0.5603  0.7219  0.2481
  888MOL0     C17118  10.259   5.616   9.409 -0.2848 -0.6638 -0.3890
  888MOL0     O17119  10.378   5.562   9.463 -0.3954  0.1342 -0.0383
  888MOL0     C17120  10.362   5.441   9.521  0.1290 -0.0580 -0.6607
  888MOL0     C17121  10.467   5.338   9.477  0.2638 -0.4551  0.2872
  888MOL0     C17122  10.450   5.331   9.318 -0.0134  0.1122  0.2135
  888MOL0     C17123  10.551   5.409   9.228  0.1873 -0.0095  0.0014
  888MOL0     C17124  10.697   5.345   9.225  0.7335  0.1840 -0.8837
  888MOL0     C17125  10.767   5.398   9.092  0.5926 -0.6356  0.3716
  888MOL0     C17126  10.740   5.295   8.980 -0.0630  0.1768  0.3742
  888MOL0     C17127  10.754   5.346   8.838 -0.1481  0.4111 -0.2542
  888MOL0    Cl17128  10.600   5.418   8.793  0.6294 -0.5154  0.2136
  888MOL0     C17129  10.263   5.676   9.286 -0.0689 -0.3165  0.1502
  888MOL0     C17130  10.150   5.743   9.245 -0.2534 -0.6996 -0.1286
  888MOL0     O17131   9.759   5.678   9.297  0.6441  1.0221 -0.1466
  888MOL0     C17132   9.738   6.032   9.291  0.0979  0.7418 -0.6015
  888MOL0     C17133   9.644   6.137   9.293  0.7696  0.1647  0.2817
  888MOL0     N17134   8.872   6.360   9.113  0.0474 -0.8054  0.0114
  888MOL0     N17135   8.809   6.350   9.001 -0.2901 -0.5473 -0.2633
  888MOL0     C17136   9.760   6.028   8.963 -0.2935 -0.8900  0.2790
  888MOL0     C17137   9.896   5.980   8.959  0.7033 -1.2201  0.1255
  888MOL0     C17138  10.339   5.987   8.795 -0.4529 -0.8712 -0.0714
  888MOL0     C17139  10.450   6.057   8.741  0.7256 -0.0838  0.0763
  888MOL0     C17140  10.581   6.008   8.759 -0.2353 -0.3490  0.7193
  888MOL0     C17141  10.593   5.886   8.823  0.3778  0.0990 -0.4061
  888MOL0     O17142  10.722   5.848   8.849 -0.2251  0.0526 -0.1867
  888MOL0     C17143  10.742   5.747   8.957  0.5729 -0.4591  0.1323
  888MOL0     C17144  10.889   5.743   9.006  0.3639 -0.0664  0.4762
  888MOL0     C17145  10.923   5.853   9.090  0.3839 -0.2183  0.8082
  888MOL0     C17146  10.950   5.822   9.234 -0.2482 -0.1608 -0.4361
  888MOL0     C17147  10.838   5.767   9.314 -0.0223 -0.5632  0.8804
  888MOL0     C17148  10.742   5.735   9.379 -0.2663 -0.0974  0.2710
  888MOL0     C17149  10.486   5.806   8.864  0.9947 -0.0641 -0.8152
  888MOL0     C17150  10.360   5.854   8.851  0.3812 -0.2163 -0.6497
  888MOL0     H17151   9.993   6.236   8.753 -0.9081  0.2707 -1.3478
  888MOL0     H17152   9.751   6.288   8.762  1.4147  0.3915 -0.8958
  888MOL0     H17153   9.637   6.371   8.998  1.0353 -0.2026 -0.1983
  888MOL0     H17154   9.473   6.328   9.038 -3.8448 -0.5323 -2.5010
  888MOL0     H17155   9.548   6.329   8.741 -3.1794 -4.0784  0.1571
  888MOL0     H17156   9.521   6.485   8.824  1.7697 -0.3650  1.7469
  888MOL0     H17157   9.287   6.398   8.893  0.9608 -0.0328  0.7814
  888MOL0     H17158   9.335   6.247   8.800  0.8871 -0.6825  2.3562
  888MOL0     H17159   9.309   6.533   8.690  1.1958 -0.5220 -1.2516
  888MOL0     H17160   9.366   6.394   8.597  0.0379 -2.7789  0.6733
  888MOL0     H17161   9.133   6.266   8.662 -3.7947  1.5969  2.0023
  888MOL0     H17162   9.163   6.376   8.525  5.5732  2.4893 -0.3147
  888MOL0     H17163   9.062   6.557   8.669 -0.2956  0.5363  1.8332
  888MOL0     H17164   9.070   6.467   8.812  0.9887 -1.0822 -0.2199
  888MOL0     H17165   8.835   6.483   8.689  0.1636 -0.4462  1.2334
  888MOL0     H17166   8.899   6.361   8.579  0.5718  4.2412 -2.2930
  888MOL0     H17167   8.932   6.201   8.731 -1.3321 -2.1568  0.2927
  888MOL0     H17168   8.764   6.267   8.754  0.1373  0.8940  1.6644
  888MOL0     H17169   9.102   6.229   8.917 -1.1531  0.0343 -1.0441
  888MOL0     H17170   9.167   6.212   9.179  0.2896  1.4539 -0.8892
  888MOL0     H17171   9.067   6.281   9.312  1.1216  2.6306  1.2502
  888MOL0     H17172   9.115   6.494   9.272  4.3250  3.4301  0.2582
  888MOL0     H17173   9.241   6.454   9.152  2.2788  0.9239  0.9913
  888MOL0     H17174   9.292   6.513   9.385 -4.3008  1.4751 -1.1347
  888MOL0     H17175   9.231   6.359   9.439 -1.4482 -0.1744 -1.2713
  888MOL0     H17176   9.486   6.357   9.435  2.1324 -0.6967 -1.2328
  888MOL0     H17177   9.491   6.388   9.270  0.6095  0.9866  2.2784
  888MOL0     H17178   9.358   5.935   9.295  0.8230 -1.1796  2.1241
  888MOL0     H17179   9.539   5.767   9.258 -4.8744  1.3419 -0.2361
  888MOL0     H17180   9.929   5.692   9.508  1.2840 -1.5836  1.7417
  888MOL0     H17181  10.151   5.590   9.595  0.0179 -0.5393 -0.2226
  888MOL0     H17182  10.266   5.395   9.496 -0.1791  0.4690 -0.4769
  888MOL0     H17183  10.365   5.460   9.629  1.9762 -1.8779 -0.3337
  888MOL0     H17184  10.457   5.238   9.521  0.3456 -0.7942 -0.4419
  888MOL0     H17185  10.566   5.384   9.488  1.5106 -2.8216 -0.1877
  888MOL0     H17186  10.350   5.368   9.289  2.1326  2.8966 -5.1510
  888MOL0     H17187  10.444   5.230   9.278  0.1915  0.5357 -0.9513
  888MOL0     H17188  10.503   5.412   9.129 -1.7133 -1.0628  0.8365
  888MOL0     H17189  10.562   5.514   9.254  1.9328  0.4314 -2.1677
  888MOL0     H17190  10.690   5.235   9.227 -3.6136  0.2106  2.9785
  888MOL0     H17191  10.759   5.382   9.307  1.9066  0.6272 -1.9533
  888MOL0     H17192  10.875   5.392   9.108  0.5490 -0.5754  0.6865
  888MOL0     H17193  10.741   5.497   9.053 -0.1040 -0.2602  1.7517
  888MOL0     H17194  10.823   5.225   8.987  0.9667  0.9234 -2.8971
  888MOL0     H17195  10.649   5.237   8.998  1.6134 -1.7485  3.4003
  888MOL0     H17196  10.769   5.255   8.778 -0.2012  1.0658 -1.2792
  888MOL0     H17197  10.839   5.411   8.820 -0.9725  1.5705 -0.0609
  888MOL0     H17198  10.344   5.649   9.218 -1.1553 -0.5922 -1.0800
  888MOL0     H17199  10.150   5.790   9.147 -3.6295 -1.2530 -0.5258
  888MOL0     H17200   9.845   6.055   9.291  0.1150  0.7177 -2.0731
  888MOL0     H17201   9.674   6.241   9.301 -2.9610  1.3470  0.4673
  888MOL0     H17202   9.691   5.971   9.025  1.1496 -1.2488  1.6209
  888MOL0     H17203   9.935   5.900   9.020  1.2925 -3.0253 -2.4645
  888MOL0     H17204  10.447   6.161   8.710  2.3845 -0.3934 -1.2697
  888MOL0     H17205  10.670   6.066   8.735 -0.8889  1.0735  1.6195
  888MOL0     H17206  10.725   5.648   8.913 -0.9730 -1.7418  3.2828
  888MOL0     H17207  10.679   5.756   9.045 -2.2022 -3.6011 -1.3393
  888MOL0     H17208  10.904   5.643   9.046  0.2324 -0.0462  0.5752
  888MOL0     H17209  10.947   5.748   8.913  1.1870 -4.2751  0.5973
  888MOL0     H17210  10.832   5.914   9.091 -1.0975 -2.2408 -1.3255
  888MOL0     H17211  11.000   5.913   9.040 -0.7231  2.0111  1.6049
  888MOL0     H17212  11.031   5.748   9.231  0.0773  0.1695 -0.0061
  888MOL0     H17213  10.997   5.901   9.293  2.2375 -0.6056 -1.6783
  888MOL0     H17214  10.686   5.702   9.464 -2.8878  1.8758 -0.5159
  888MOL0     H17215  10.500   5.715   8.921 -0.7358 -1.7807 -2.9476
  888MOL0     H17216  10.278   5.799   8.896  1.9477 -1.3426  0.9399
  889MOL0     O17217   8.660   6.287   8.474 -0.7007  0.5512 -0.1542
  889MOL0     C17218   8.547   6.243   8.449  0.7931  0.5282 -0.0322
  889MOL0     O17219   8.510   6.122   8.503  0.4716  0.1394 -0.4734
  889MOL0     C17220   8.600   6.060   8.591  0.0878  0.1373 -0.0565
  889MOL0     C17221   8.706   5.990   8.531  0.3612  0.5524 -0.1104
  889MOL0     C17222   8.789   5.911   8.611  0.6990 -0.7323 -0.2755
  889MOL0     C17223   8.764   5.906   8.755 -0.3169  0.6152  0.2244
  889MOL0     O17224   8.858   5.820   8.814  0.1796  0.2841  0.3921
  889MOL0     C17225   8.884   5.838   8.956  0.4752 -0.3443  0.5331
  889MOL0     C17226   9.031   5.822   8.978  0.0458  0.0043 -0.6400
  889MOL0     C17227   9.119   5.926   8.903  0.1557  1.0333  0.0678
  889MOL0     C17228   9.272   5.898   8.923 -0.5242  0.0964  0.1648
  889MOL0     C17229   9.315   5.787   8.825 -0.6740  0.6626  0.3295
  889MOL0     C17230   9.460   5.763   8.832 -0.2246 -0.0398  0.4709
  889MOL0     C17231   9.506   5.659   8.746  0.0129  0.2820 -0.3712
  889MOL0     C17232   9.652   5.623   8.764  0.0866  0.8262  0.6767
  889MOL0     N17233   9.685   5.495   8.688  0.0326 -0.2747 -0.4305
  889MOL0     C17234   9.741   5.390   8.741 -0.3171 -0.4567 -0.4919
  889MOL0     C17235   9.767   5.311   8.641  0.0288  0.9799 -0.8560
  889MOL0     C17236   9.853   5.192   8.660  1.2499 -0.0896 -0.5496
  889MOL0     C17237   9.770   5.065   8.644 -0.3045 -0.3950 -0.2768
  889MOL0     C17238   9.870   4.945   8.640 -0.2591 -0.6941 -0.0016
  889MOL0     C17239   9.807   4.816   8.683  1.1597  0.6397 -0.8073
  889MOL0     O17240   9.784   4.808   8.827 -0.1065 -1.0505 -0.1534
  889MOL0     C17241   9.702   4.707   8.874 -1.2067  0.1486  0.4216
  889MOL0     C17242   9.654   4.601   8.797  0.1188  0.6667  0.1542
  889MOL0     C17243   9.582   4.501   8.865  0.2350  0.1455  1.3861
  889MOL0     C17244   9.540   4.513   8.998  0.9335  0.4939  0.1484
  889MOL0     C17245   9.438   4.421   9.045 -0.5515 -1.2118 -0.0686
  889MOL0     O17246   9.410   4.423   9.174  0.2209  0.8427  0.3370
  889MOL0     C17247   9.303   4.344   9.226 -0.3425 -0.7924  0.0782
  889MOL0     C17248   9.177   4.312   9.166 -0.1129 -0.3306  0.4073
  889MOL0     C17249   9.076   4.242   9.236 -0.0503  0.3385  0.0807
  889MOL0     C17250   9.097   4.197   9.367  0.8695 -0.7380 -0.4383
  889MOL0     O17251   8.998   4.122   9.428  0.3459  0.9358 -0.1286
  889MOL0     C17252   9.036   4.021   9.525 -0.0692 -0.3698 -0.1203
  889MOL0     C17253   8.916   3.939   9.566  0.4004  0.0109 -0.0443
  889MOL0     C17254   8.843   4.003   9.690 -0.0870  0.9599 -0.1438
  889MOL0     C17255   8.747   4.114   9.643  0.1628 -0.1019  1.6241
  889MOL0     C17256   8.655   4.176   9.750 -0.2474  0.1940  0.5222
  889MOL0     C17257   8.541   4.092   9.807 -0.3938 -0.5615  0.7990
  889MOL0     C17258   8.443   4.191   9.880 -0.3018  0.4622  0.0495
  889MOL0     C17259   8.318   4.114   9.930  1.2267  0.1492 -0.0621
  889MOL0    Cl17260   8.196   4.229  10.016  0.0033  0.6312  0.2294
  889MOL0     C17261   9.222   4.224   9.425 -0.8704  0.3314  0.9833
  889MOL0     C17262   9.323   4.301   9.362 -0.0090  0.3376  0.4343
  889MOL0     O17263   9.380   4.358   8.964 -0.5014  0.0685 -0.7598
  889MOL0     C17264   9.594   4.624   9.067 -0.4232 -1.2982 -0.1797
  889MOL0     C17265   9.679   4.721   9.007 -0.2432  0.4669  0.9558
  889MOL0     N17266   9.724   5.371   8.525  0.0235 -0.3626  0.7736
  889MOL0     N17267   9.679   5.482   8.552  0.1003 -0.1968 -0.4422
  889MOL0     C17268   8.656   5.976   8.808 -0.7051 -0.4722 -0.1736
  889MOL0     C17269   8.564   6.047   8.729  0.2852  0.0812 -0.0863
  889MOL0     C17270   8.448   6.322   8.382 -0.5519  0.0603  0.8507
  889MOL0     C17271   8.489   6.443   8.330  0.7190  0.1123 -1.5571
  889MOL0     C17272   8.391   6.520   8.279 -0.0321  0.0666 -0.1458
  889MOL0     C17273   8.257   6.482   8.265 -0.5046  1.8897  1.1579
  889MOL0     O17274   8.163   6.562   8.206 -0.1911 -0.6561  0.1865
  889MOL0     C17275   8.140   6.690   8.271  0.2672  0.3242 -0.0747
  889MOL0     C17276   8.020   6.767   8.208 -0.1220  0.0705 -0.1771
  889MOL0     C17277   8.043   6.915   8.238  0.4716 -0.9289 -0.4930
  889MOL0     C17278   7.920   6.987   8.176 -0.2893 -1.1026  0.4323
  889MOL0     C17279   7.919   6.978   8.029  0.5611 -0.1437 -0.6085
  889MOL0     C17280   7.913   6.993   7.908 -0.9942 -0.1534 -0.3202
  889MOL0     C17281   8.235   6.345   8.291 -0.2889  0.1321 -0.1929
  889MOL0     C17282   8.329   6.257   8.342  0.0564  0.6983  0.4894
  889MOL0     H17283   8.723   5.982   8.425  1.0656 -0.3346  0.0637
  889MOL0     H17284   8.872   5.860   8.564  1.2806 -2.7568  2.6860
  889MOL0     H17285   8.823   5.758   9.000  0.2235 -1.7073 -2.0558
  889MOL0     H17286   8.860   5.941   8.983  0.4496  0.3440 -1.8599
  889MOL0     H17287   9.051   5.723   8.935 -0.1786  0.2295 -1.2765
  889MOL0     H17288   9.054   5.826   9.085  2.2035  1.9887 -1.1011
  889MOL0     H17289   9.101   6.026   8.944 -1.4288  0.4734  0.8259
  889MOL0     H17290   9.092   5.906   8.799  2.1927 -0.2554 -0.2696
  889MOL0     H17291   9.333   5.986   8.897  1.2922 -0.3969  2.4634
  889MOL0     H17292   9.283   5.861   9.025 -0.6988 -1.6528 -0.4188
  889MOL0     H17293   9.300   5.826   8.724 -1.0326  1.7223  0.7782
  889MOL0     H17294   9.263   5.692   8.833  0.5825 -0.2291 -1.2603
  889MOL0     H17295   9.480   5.737   8.936  0.1289  1.0651  0.6924
  889MOL0     H17296   9.522   5.851   8.811 -0.0702 -0.1376  0.5161
  889MOL0     H17297   9.451   5.569   8.773 -2.5799  1.5246 -1.1994
  889MOL0     H17298   9.488   5.682   8.640  0.8115  0.0605 -0.5653
  889MOL0     H17299   9.667   5.603   8.870 -0.1681  1.4288  0.8341
  889MOL0     H17300   9.723   5.700   8.732  2.2383 -0.2365  2.6568
  889MOL0     H17301   9.758   5.374   8.847 -0.1870  1.1308 -0.2407
  889MOL0     H17302   9.908   5.192   8.754  4.3612  0.2673 -2.2534
  889MOL0     H17303   9.920   5.202   8.574 -0.0472  2.7340 -1.3407
  889MOL0     H17304   9.714   5.061   8.550 -0.9910 -2.7823  0.1748
  889MOL0     H17305   9.707   5.047   8.732 -3.0753 -1.5406 -2.3212
  889MOL0     H17306   9.896   4.946   8.533  0.8898 -0.6599  0.2715
  889MOL0     H17307   9.960   4.953   8.701  0.4692 -1.5876 -0.9296
  889MOL0     H17308   9.882   4.747   8.644  0.9840 -0.4395  0.6804
  889MOL0     H17309   9.711   4.806   8.633 -0.9753 -1.1121  3.1172
  889MOL0     H17310   9.688   4.598   8.694  1.1169 -0.7328  0.4858
  889MOL0     H17311   9.546   4.422   8.799 -1.3907  2.4756 -0.7004
  889MOL0     H17312   9.145   4.349   9.069 -2.8545 -2.2346  0.4848
  889MOL0     H17313   8.981   4.209   9.195 -1.1861  2.9894  0.3365
  889MOL0     H17314   9.093   4.053   9.613  0.3766 -1.1285 -0.1187
  889MOL0     H17315   9.108   3.958   9.471 -0.5179 -0.2983 -0.8017
  889MOL0     H17316   8.943   3.838   9.599 -1.8081  0.1761  2.6876
  889MOL0     H17317   8.845   3.926   9.484  0.9755 -4.0778 -0.1016
  889MOL0     H17318   8.915   4.033   9.767 -1.2864  2.5945  0.3774
  889MOL0     H17319   8.790   3.918   9.734  1.2246 -1.3292 -2.6388
  889MOL0     H17320   8.806   4.192   9.594  0.3601 -2.5375 -2.3964
  889MOL0     H17321   8.683   4.078   9.563  5.6102 -1.6659 -2.6465
  889MOL0     H17322   8.620   4.269   9.705  2.5223  1.2585  0.3640
  889MOL0     H17323   8.709   4.183   9.845 -0.0783 -0.6529  0.4998
  889MOL0     H17324   8.571   4.021   9.884  1.3113 -2.2884 -1.3299
  889MOL0     H17325   8.488   4.032   9.733 -0.2348 -2.6229  2.2793
  889MOL0     H17326   8.493   4.241   9.963 -1.9745  0.0617  1.3571
  889MOL0     H17327   8.417   4.268   9.807  3.6147  2.6136  0.6413
  889MOL0     H17328   8.351   4.036   9.998  0.5582  0.3270  0.4785
  889MOL0     H17329   8.253   4.076   9.851 -0.7443  2.6760  0.1857
  889MOL0     H17330   9.261   4.178   9.515  0.8851 -3.2953 -1.4333
  889MOL0     H17331   9.418   4.315   9.413 -0.5536  0.9054  1.3233
  889MOL0     H17332   9.562   4.644   9.169 -2.5142 -1.5538 -0.7526
  889MOL0     H17333   9.714   4.806   9.064  4.7973 -1.7870  1.7341
  889MOL0     H17334   8.640   5.981   8.916 -1.4516 -2.3436 -0.1510
  889MOL0     H17335   8.477   6.108   8.748  0.4901  0.7795 -1.2732
  889MOL0     H17336   8.590   6.480   8.347  0.8462 -1.2472  1.3272
  889MOL0     H17337   8.418   6.621   8.249  0.6144  0.0339  0.3124
  889MOL0     H17338   8.232   6.750   8.270  0.6284 -0.2287 -0.8845
  889MOL0     H17339   8.108   6.663   8.372 -1.4245  0.6735 -0.4877
  889MOL0     H17340   8.005   6.727   8.107 -1.0749 -0.8825  0.3099
  889MOL0     H17341   7.936   6.735   8.271  0.3654  2.6067  1.9245
  889MOL0     H17342   8.142   6.949   8.207  0.6683 -2.5035 -1.6938
  889MOL0     H17343   8.043   6.912   8.348  1.6762  3.0789 -0.2403
  889MOL0     H17344   7.830   6.942   8.219 -0.1025 -1.7315  0.1751
  889MOL0     H17345   7.935   7.091   8.207  2.8205 -0.3665 -2.8950
  889MOL0     H17346   7.905   7.020   7.804 -2.8856 -2.4405 -0.8371
  889MOL0     H17347   8.140   6.295   8.274  0.0263 -1.0200  1.1347
  889MOL0     H17348   8.322   6.149   8.352 -2.7267  0.0893 -4.6744
  890MOL0     O17349   0.413   2.866   3.789  0.4092 -0.1984 -0.4282
  890MOL0     C17350   0.454   2.794   3.878  1.2711  0.2324 -0.7594
  890MOL0     O17351   0.371   2.712   3.946 -0.2568 -0.4661  0.9604
  890MOL0     C17352   0.240   2.767   3.952 -0.5334  0.6283  0.1435
  890MOL0     C17353   0.194   2.826   4.068  0.1752 -0.8016 -0.0806
  890MOL0     C17354   0.059   2.855   4.087  0.4720  1.0011 -0.4778
  890MOL0     C17355  -0.038   2.814   3.990  0.1313 -0.5204 -0.6450
  890MOL0     O17356  -0.176   2.834   4.017  0.4581  0.0873  0.5842
  890MOL0     C17357  -0.277   2.801   3.915  0.1311  0.3047 -0.4783
  890MOL0     C17358  -0.420   2.815   3.962  0.9221 -1.0036  0.5766
  890MOL0     C17359  -0.453   2.703   4.059  0.0037  0.6456  0.7418
  890MOL0     C17360  -0.603   2.715   4.098  0.9279  0.1689 -0.0471
  890MOL0     C17361  -0.633   2.853   4.158  0.2971  0.2901 -0.8974
  890MOL0     C17362  -0.769   2.855   4.230  0.1745  0.9966  0.0043
  890MOL0     C17363  -0.845   2.987   4.236 -0.6902 -0.2126  1.0672
  890MOL0     C17364  -0.767   3.098   4.319 -0.1689  0.1003  0.3665
  890MOL0     N17365  -0.836   3.230   4.319  0.1042 -0.3769  0.3322
  890MOL0     C17366  -0.970   3.248   4.335  0.2936 -0.1077 -0.2675
  890MOL0     C17367  -0.985   3.376   4.355 -0.4717  0.0712 -0.1845
  890MOL0     C17368  -1.115   3.446   4.377 -0.3364 -0.2013 -0.2457
  890MOL0     C17369  -1.150   3.445   4.528  0.4267 -0.7381  0.8525
  890MOL0     C17370  -1.294   3.503   4.545 -0.7217  0.5917  0.4465
  890MOL0     C17371  -1.398   3.397   4.585  0.5573 -0.1401  1.0067
  890MOL0     O17372  -1.441   3.336   4.465  0.3682  0.2307 -0.3534
  890MOL0     C17373  -1.547   3.383   4.392 -0.5067  1.2041 -0.4848
  890MOL0     C17374  -1.622   3.493   4.418  0.6691  0.4465  0.2137
  890MOL0     C17375  -1.735   3.538   4.343 -0.3623  0.5733  0.3072
  890MOL0     C17376  -1.778   3.462   4.231 -0.2837 -0.8895 -0.4513
  890MOL0     C17377  -1.887   3.500   4.138 -0.0418  0.7768  0.9087
  890MOL0     O17378  -1.911   3.633   4.120  0.2880  0.0085  0.8483
  890MOL0     C17379  -2.005   3.669   4.018 -0.5332  0.6054 -0.3618
  890MOL0     C17380  -2.124   3.706   4.047 -0.7656 -0.3114 -0.1412
  890MOL0     C17381  -2.215   3.743   3.953  0.4306  0.8842  0.0136
  890MOL0     C17382  -2.173   3.779   3.827  0.1118 -0.4573 -0.0713
  890MOL0     O17383  -2.245   3.850   3.730  0.6615  0.0316 -0.1766
  890MOL0     C17384  -2.378   3.800   3.699 -0.4728  0.7215 -0.2922
  890MOL0     C17385  -2.467   3.911   3.758  0.1848  0.4458  0.4081
  890MOL0     C17386  -2.443   4.050   3.685  0.4041 -0.6220  0.4214
  890MOL0     C17387  -2.516   4.168   3.762 -0.1273  0.2975 -0.3630
  890MOL0     C17388  -2.443   4.301   3.764  0.2582 -0.0281  0.7437
  890MOL0     C17389  -2.424   4.346   3.621 -0.5232 -0.1108 -0.4489
  890MOL0     C17390  -2.405   4.499   3.599 -0.1103  0.1166 -0.8259
  890MOL0     C17391  -2.364   4.521   3.458 -0.3697 -0.3491 -0.3004
  890MOL0    Cl17392  -2.324   4.705   3.440  0.0255  0.6702 -0.6745
  890MOL0     C17393  -2.046   3.750   3.793 -0.0628  0.5223  0.1335
  890MOL0     C17394  -1.963   3.683   3.887  0.3481 -0.2627 -1.2857
  890MOL0     O17395  -1.945   3.407   4.080 -0.5843  0.4671 -0.2342
  890MOL0     C17396  -1.709   3.344   4.214  0.3693 -0.3753  1.6164
  890MOL0     C17397  -1.597   3.312   4.291 -1.3283 -0.2021  0.3947
  890MOL0     N17398  -0.862   3.443   4.349  0.5186  0.5544 -0.2266
  890MOL0     N17399  -0.776   3.360   4.317  0.1191  0.1357 -0.1760
  890MOL0     C17400   0.011   2.754   3.878 -0.3912 -0.9474  0.4688
  890MOL0     C17401   0.147   2.735   3.854 -0.7063 -0.2335 -0.7561
  890MOL0     C17402   0.600   2.763   3.881  0.2400  0.5892 -0.4041
  890MOL0     C17403   0.683   2.823   3.782 -0.4614 -0.2855 -1.2901
  890MOL0     C17404   0.824   2.805   3.793  0.0083  0.4605 -0.2883
  890MOL0     C17405   0.886   2.728   3.898 -0.0312  0.2919 -0.3525
  890MOL0     O17406   1.023   2.716   3.909 -0.1644  0.4673 -0.0656
  890MOL0     C17407   1.080   2.665   3.791 -0.1470 -0.5278  0.2952
  890MOL0     C17408   1.184   2.561   3.857  0.4928  0.3214  0.4345
  890MOL0     C17409   1.269   2.633   3.965  0.3021 -0.1437 -0.5363
  890MOL0     C17410   1.399   2.550   3.983 -0.6221  0.0134  0.7347
  890MOL0     C17411   1.487   2.637   4.059  0.1664  0.5916  0.2566
  890MOL0     C17412   1.564   2.706   4.122  0.2906  0.0680 -0.8304
  890MOL0     C17413   0.797   2.664   3.990 -0.5652 -0.5615 -0.5130
  890MOL0     C17414   0.660   2.677   3.977  0.6008  0.1764 -0.2787
  890MOL0     H17415   0.271   2.857   4.137  0.4338 -0.2827 -0.5906
  890MOL0     H17416   0.017   2.910   4.171 -1.6454 -1.7545  0.4208
  890MOL0     H17417  -0.267   2.693   3.897  1.7328  0.2169  0.6816
  890MOL0     H17418  -0.259   2.864   3.828 -0.7936  0.1272 -0.8124
  890MOL0     H17419  -0.486   2.795   3.877  2.5763 -1.3079 -0.7156
  890MOL0     H17420  -0.432   2.919   3.992  4.5036 -0.6267  1.1360
  890MOL0     H17421  -0.387   2.706   4.147  1.2141  1.1739 -0.1521
  890MOL0     H17422  -0.443   2.608   4.008 -1.8118 -1.1201  3.4223
  890MOL0     H17423  -0.665   2.707   4.009 -0.8822  1.8807  0.9780
  890MOL0     H17424  -0.646   2.634   4.157  2.5374  0.7656  2.0862
  890MOL0     H17425  -0.626   2.936   4.087  0.0334  1.7304  0.6711
  890MOL0     H17426  -0.546   2.888   4.215  1.9403 -2.0704 -1.8256
  890MOL0     H17427  -0.747   2.813   4.328 -1.3869 -3.1155 -1.1802
  890MOL0     H17428  -0.835   2.784   4.179 -0.1456  1.5443 -0.3687
  890MOL0     H17429  -0.853   3.022   4.132  1.9225 -0.8292  0.6038
  890MOL0     H17430  -0.942   2.967   4.283 -3.0907  1.9625 -2.4559
  890MOL0     H17431  -0.672   3.105   4.266 -0.0569 -0.2970  0.5117
  890MOL0     H17432  -0.748   3.068   4.422  1.6035  0.4106  0.1655
  890MOL0     H17433  -1.047   3.171   4.332  0.7064 -0.5528  0.2243
  890MOL0     H17434  -1.193   3.403   4.314 -1.0206  0.5428  0.0701
  890MOL0     H17435  -1.093   3.549   4.345  0.3201  0.3066  1.7083
  890MOL0     H17436  -1.072   3.491   4.588  1.8291 -1.5001 -0.2988
  890MOL0     H17437  -1.158   3.343   4.566 -0.2397 -0.6155  1.0494
  890MOL0     H17438  -1.282   3.574   4.627  4.2824  2.7712 -1.7411
  890MOL0     H17439  -1.334   3.566   4.465 -2.8371  0.0879  1.0383
  890MOL0     H17440  -1.484   3.437   4.639  0.7808  1.2618  0.3738
  890MOL0     H17441  -1.352   3.321   4.650  1.7266  1.9569  2.7597
  890MOL0     H17442  -1.611   3.553   4.508 -0.2063 -2.6954  2.6065
  890MOL0     H17443  -1.797   3.626   4.358 -2.3260 -1.1140  2.7658
  890MOL0     H17444  -2.153   3.699   4.152 -0.2312 -0.9783 -0.0331
  890MOL0     H17445  -2.319   3.762   3.975  0.0985  0.3197 -0.9793
  890MOL0     H17446  -2.394   3.700   3.741  0.6804 -1.0341 -3.6311
  890MOL0     H17447  -2.392   3.790   3.591  0.1166 -3.5668 -0.1398
  890MOL0     H17448  -2.443   3.921   3.864  1.7479 -2.0065  0.3633
  890MOL0     H17449  -2.572   3.889   3.739 -0.2602  2.9389 -0.3941
  890MOL0     H17450  -2.464   4.049   3.578 -1.0171 -0.7082  0.6902
  890MOL0     H17451  -2.337   4.077   3.693  0.3860 -0.4656  0.1469
  890MOL0     H17452  -2.617   4.183   3.722 -0.6860 -0.9342  0.5354
  890MOL0     H17453  -2.518   4.143   3.868 -1.3905  2.9688  0.3214
  890MOL0     H17454  -2.349   4.285   3.818 -0.9257 -0.0276  2.9440
  890MOL0     H17455  -2.509   4.372   3.815 -0.4048 -0.3200  0.2989
  890MOL0     H17456  -2.514   4.319   3.565  0.2189  0.2070 -1.8334
  890MOL0     H17457  -2.341   4.292   3.575  1.5190  1.7825  0.7937
  890MOL0     H17458  -2.499   4.542   3.635  1.3207 -0.3807  4.2685
  890MOL0     H17459  -2.325   4.535   3.664  0.2477  0.4059 -1.4157
  890MOL0     H17460  -2.439   4.501   3.380  1.6973  1.1309 -2.8476
  890MOL0     H17461  -2.268   4.473   3.434 -0.2298  1.6992 -5.0976
  890MOL0     H17462  -2.002   3.792   3.703 -1.4708  0.9394 -0.3789
  890MOL0     H17463  -1.861   3.655   3.865  1.4191  0.9185  1.6833
  890MOL0     H17464  -1.747   3.281   4.134 -0.2681  3.5862 -1.5426
  890MOL0     H17465  -1.554   3.213   4.285  0.7332  0.6553  0.4279
  890MOL0     H17466  -0.050   2.720   3.796 -0.6406  0.3878  0.0793
  890MOL0     H17467   0.175   2.691   3.759 -2.2140  0.2749 -1.4555
  890MOL0     H17468   0.644   2.868   3.691  0.5263 -0.2945 -1.7304
  890MOL0     H17469   0.889   2.861   3.726  2.1395  0.7484  1.8974
  890MOL0     H17470   1.139   2.744   3.742 -0.3640 -1.1393 -0.9785
  890MOL0     H17471   1.020   2.615   3.715 -1.4144  0.1558  0.8284
  890MOL0     H17472   1.124   2.483   3.905  1.5703 -0.7738  0.0168
  890MOL0     H17473   1.253   2.518   3.785  1.4431  0.0056  1.5151
  890MOL0     H17474   1.202   2.644   4.050 -2.4722  0.4589 -2.6291
  890MOL0     H17475   1.298   2.732   3.928  0.2463  0.3406  0.6862
  890MOL0     H17476   1.385   2.450   4.023  0.2049 -0.1293  0.6800
  890MOL0     H17477   1.453   2.535   3.889 -3.9690  0.5794 -1.4315
  890MOL0     H17478   1.618   2.777   4.181  1.2150 -0.5647 -0.9099
  890MOL0     H17479   0.844   2.595   4.059 -1.0993  1.7824  2.3925
  890MOL0     H17480   0.609   2.634   4.062  2.0342 -0.6835  0.1770
  891MOL0     O17481   1.018   1.857   1.203  0.5690  0.1058 -0.2982
  891MOL0     C17482   1.022   1.824   1.320 -0.7798 -0.2803 -1.0072
  891MOL0     O17483   0.958   1.719   1.377 -0.2664 -0.6167 -0.2680
  891MOL0     C17484   0.850   1.681   1.306  0.4528 -0.0029 -0.2846
  891MOL0     C17485   0.853   1.564   1.228 -0.7773 -0.7127 -0.1911
  891MOL0     C17486   0.749   1.530   1.141  0.3650  0.1900 -0.1171
  891MOL0     C17487   0.624   1.602   1.152 -0.2407 -0.6313 -0.0994
  891MOL0     O17488   0.507   1.558   1.093 -0.6867 -0.5027  0.2121
  891MOL0     C17489   0.512   1.489   0.963  1.2716 -0.4157  0.3766
  891MOL0     C17490   0.403   1.383   0.980  0.0187 -0.3600  0.0839
  891MOL0     C17491   0.267   1.429   1.026  1.0351 -1.1774 -0.0476
  891MOL0     C17492   0.175   1.305   1.027  0.7786 -0.0272  0.4567
  891MOL0     C17493   0.040   1.345   1.083  1.0344 -0.1862  0.3105
  891MOL0     C17494  -0.064   1.241   1.064 -0.9521 -0.2735 -0.3681
  891MOL0     C17495  -0.191   1.249   1.150  0.7793 -0.6390 -0.2214
  891MOL0     C17496  -0.301   1.149   1.100 -0.4597 -0.1286 -0.1821
  891MOL0     N17497  -0.429   1.183   1.164  0.9677  1.2630 -0.8499
  891MOL0     C17498  -0.555   1.170   1.099 -0.0489 -0.3823  0.2220
  891MOL0     C17499  -0.649   1.172   1.198  0.4301  0.5217 -0.1148
  891MOL0     C17500  -0.803   1.184   1.193 -1.0372 -0.6911  0.9938
  891MOL0     C17501  -0.891   1.071   1.141 -0.4698  1.1177 -0.5415
  891MOL0     C17502  -0.882   0.940   1.224 -0.0342 -1.0115 -0.2738
  891MOL0     C17503  -0.949   0.828   1.147 -0.8571 -0.3959 -0.1114
  891MOL0     O17504  -0.990   0.717   1.224 -0.0351  0.2725 -1.0796
  891MOL0     C17505  -1.079   0.625   1.167 -0.1119 -0.2508  0.0148
  891MOL0     C17506  -1.129   0.638   1.037 -0.3726  0.0653  0.9473
  891MOL0     C17507  -1.221   0.538   0.987  0.1806  0.0099  0.7139
  891MOL0     C17508  -1.259   0.421   1.057  0.8772 -0.6572  0.1232
  891MOL0     C17509  -1.363   0.331   1.007 -0.4528  0.1416  0.2678
  891MOL0     O17510  -1.438   0.278   1.100  0.2883 -0.2660  0.5332
  891MOL0     C17511  -1.553   0.211   1.059 -0.1564  1.0763 -0.1204
  891MOL0     C17512  -1.645   0.265   0.967  0.5200  0.3745 -1.1068
  891MOL0     C17513  -1.764   0.202   0.946 -0.3055  0.1770  0.3188
  891MOL0     C17514  -1.790   0.070   0.997 -0.4177  0.0225  0.2232
  891MOL0     O17515  -1.896  -0.013   0.980  0.6833 -0.2309  0.6260
  891MOL0     C17516  -1.996   0.030   0.887 -1.3972  0.6927 -0.5473
  891MOL0     C17517  -2.123  -0.053   0.912  0.0080  0.1042  0.3513
  891MOL0     C17518  -2.196   0.008   1.039  0.2452 -0.1201  0.2738
  891MOL0     C17519  -2.329  -0.065   1.065 -0.7281  0.6004 -0.0969
  891MOL0     C17520  -2.306  -0.216   1.120 -0.1772 -1.2315  0.2055
  891MOL0     C17521  -2.429  -0.273   1.163 -0.1905  1.1117 -0.1497
  891MOL0     C17522  -2.417  -0.421   1.204  0.7488  0.1448 -0.3046
  891MOL0     C17523  -2.558  -0.494   1.200  0.3139 -0.3431 -1.1296
  891MOL0    Cl17524  -2.589  -0.580   1.045  0.2803 -0.2759 -0.1029
  891MOL0     C17525  -1.694   0.002   1.077  0.6978 -0.2271  1.2220
  891MOL0     C17526  -1.587   0.081   1.116 -0.6867 -0.6530 -0.1551
  891MOL0     O17527  -1.374   0.311   0.882 -0.3828 -1.1085 -0.1448
  891MOL0     C17528  -1.198   0.408   1.187  0.0829 -0.9110 -0.8985
  891MOL0     C17529  -1.107   0.510   1.240 -0.7238 -0.0085  0.0471
  891MOL0     N17530  -0.587   1.174   1.323 -0.2438 -0.3302 -0.8024
  891MOL0     N17531  -0.458   1.189   1.302  0.6944  0.0816 -0.5620
  891MOL0     C17532   0.622   1.710   1.238  0.1179  0.4110  0.7706
  891MOL0     C17533   0.733   1.752   1.306 -0.7160  0.9856 -0.3811
  891MOL0     C17534   1.109   1.915   1.405  0.8881 -1.1147 -1.1805
  891MOL0     C17535   1.107   1.889   1.549  0.2776 -0.3128 -0.1868
  891MOL0     C17536   1.174   1.982   1.637  0.7005  0.3535  0.6811
  891MOL0     C17537   1.250   2.082   1.588  0.2549 -0.0158  0.3546
  891MOL0     O17538   1.306   2.164   1.679 -0.2799 -0.0377 -0.8233
  891MOL0     C17539   1.365   2.286   1.632  0.3547 -0.1725 -0.4708
  891MOL0     C17540   1.435   2.346   1.754 -0.3875  0.0619 -0.3025
  891MOL0     C17541   1.353   2.408   1.864  0.7214  0.7922  0.6503
  891MOL0     C17542   1.436   2.494   1.954 -0.2731 -0.4775 -0.4795
  891MOL0     C17543   1.533   2.418   2.036 -0.1155  0.7728 -0.5315
  891MOL0     C17544   1.606   2.360   2.117 -0.8255 -1.3043 -0.1092
  891MOL0     C17545   1.243   2.107   1.453  0.1320 -0.1860  0.0132
  891MOL0     C17546   1.178   2.032   1.359  0.4843 -0.2766 -0.0744
  891MOL0     H17547   0.941   1.501   1.241 -0.0165  0.0657 -1.3174
  891MOL0     H17548   0.762   1.447   1.072  1.1085  2.1861 -2.5010
  891MOL0     H17549   0.602   1.435   0.932  1.8824  0.9799 -0.3643
  891MOL0     H17550   0.485   1.564   0.888  1.7400 -0.6432 -0.0298
  891MOL0     H17551   0.454   1.308   1.042  0.5697  3.1897  4.3793
  891MOL0     H17552   0.384   1.340   0.881 -1.0606 -2.3967  1.1132
  891MOL0     H17553   0.225   1.501   0.956 -2.7490 -0.1453  2.9410
  891MOL0     H17554   0.262   1.468   1.128  0.3430 -2.0238  0.2557
  891MOL0     H17555   0.169   1.278   0.921 -0.0964  1.2956  0.1369
  891MOL0     H17556   0.223   1.220   1.075  2.1919 -0.2287 -1.2175
  891MOL0     H17557   0.011   1.439   1.035  1.1339  1.1324  2.6803
  891MOL0     H17558   0.058   1.366   1.189  1.5494  0.6239  0.0702
  891MOL0     H17559  -0.023   1.141   1.081 -3.0454 -1.0176  0.6266
  891MOL0     H17560  -0.082   1.260   0.958  3.0194 -1.9475 -1.5323
  891MOL0     H17561  -0.178   1.225   1.255  1.0279  3.4627  0.8648
  891MOL0     H17562  -0.225   1.353   1.143  0.0542 -0.9379 -1.4350
  891MOL0     H17563  -0.274   1.044   1.113  3.0535  0.3906 -2.0041
  891MOL0     H17564  -0.297   1.166   0.992  1.4982  2.4046  0.1944
  891MOL0     H17565  -0.579   1.181   0.994 -0.9005 -0.9809  0.3486
  891MOL0     H17566  -0.831   1.270   1.131  0.5726 -1.4667 -0.9424
  891MOL0     H17567  -0.837   1.214   1.292 -1.4170  4.0794 -0.3287
  891MOL0     H17568  -0.862   1.049   1.037  1.3846  0.4805  0.0605
  891MOL0     H17569  -0.995   1.102   1.150  0.0701  2.3513  2.5605
  891MOL0     H17570  -0.777   0.919   1.247  0.5309  0.1204 -1.6797
  891MOL0     H17571  -0.945   0.973   1.307 -3.0099 -0.8730 -2.4438
  891MOL0     H17572  -0.887   0.789   1.066  0.3032  1.7499 -0.3272
  891MOL0     H17573  -1.031   0.884   1.100 -0.7275 -0.5576 -0.5325
  891MOL0     H17574  -1.111   0.722   0.972 -0.5158 -0.4345  0.2506
  891MOL0     H17575  -1.258   0.533   0.885 -1.8786 -3.2812  1.4959
  891MOL0     H17576  -1.631   0.366   0.931 -2.2875  0.5819 -1.8285
  891MOL0     H17577  -1.833   0.259   0.884  1.5604  0.9947 -1.1333
  891MOL0     H17578  -1.949   0.012   0.789  0.4493  2.5290 -0.0835
  891MOL0     H17579  -2.028   0.133   0.904 -1.6504  0.6647 -0.8432
  891MOL0     H17580  -2.092  -0.157   0.921 -1.8303 -0.6742 -1.4971
  891MOL0     H17581  -2.181  -0.036   0.821  1.5314  0.6822 -0.5458
  891MOL0     H17582  -2.226   0.112   1.021  2.6771  0.3369 -1.6686
  891MOL0     H17583  -2.140  -0.017   1.130  0.8588  0.1177 -0.0406
  891MOL0     H17584  -2.390  -0.014   1.140 -0.3392 -1.7417  1.9483
  891MOL0     H17585  -2.383  -0.075   0.971 -1.7384 -1.3511  0.6326
  891MOL0     H17586  -2.229  -0.212   1.197 -0.3063 -1.6984  0.3664
  891MOL0     H17587  -2.271  -0.285   1.042  0.0960  0.9668 -1.7324
  891MOL0     H17588  -2.500  -0.275   1.080  0.5033  0.4535 -0.7422
  891MOL0     H17589  -2.470  -0.213   1.245  3.1650  4.4444 -0.6320
  891MOL0     H17590  -2.340  -0.469   1.143  2.1548  1.7391  0.1474
  891MOL0     H17591  -2.385  -0.422   1.308 -0.2569 -1.4496  0.0316
  891MOL0     H17592  -2.636  -0.420   1.220  3.1921  2.5277  0.3622
  891MOL0     H17593  -2.560  -0.561   1.286  0.7534  1.8221  0.6491
  891MOL0     H17594  -1.701  -0.103   1.105  0.3451 -0.4999  0.1486
  891MOL0     H17595  -1.528   0.032   1.192 -1.9286 -2.4392 -0.2740
  891MOL0     H17596  -1.228   0.328   1.253  0.9084  1.7977  3.1642
  891MOL0     H17597  -1.051   0.492   1.332  0.4011  0.0074 -0.6206
  891MOL0     H17598   0.532   1.770   1.252  1.0983  2.0544  0.2519
  891MOL0     H17599   0.734   1.842   1.367 -3.9412  0.9865 -0.1798
  891MOL0     H17600   1.050   1.809   1.595  0.2190  0.0131  0.3070
  891MOL0     H17601   1.178   1.974   1.745 -2.6296  1.2425  0.9725
  891MOL0     H17602   1.288   2.347   1.585  1.2557  0.0518 -1.6883
  891MOL0     H17603   1.443   2.274   1.556  0.4338 -0.0598 -0.4070
  891MOL0     H17604   1.496   2.269   1.801 -0.5854  1.7084  2.9136
  891MOL0     H17605   1.502   2.428   1.725 -0.7418  0.8580  1.0526
  891MOL0     H17606   1.297   2.339   1.929 -0.3896  0.6727 -0.3845
  891MOL0     H17607   1.286   2.475   1.810  1.8350  0.3564 -1.3559
  891MOL0     H17608   1.496   2.566   1.898 -0.3858  0.5861  0.7234
  891MOL0     H17609   1.377   2.543   2.032  0.4180  2.2493 -1.5492
  891MOL0     H17610   1.666   2.307   2.188  1.9401  2.0826  0.3657
  891MOL0     H17611   1.288   2.197   1.412 -0.5358 -0.1595 -0.6971
  891MOL0     H17612   1.173   2.047   1.251 -2.4783 -0.9643 -0.1212
  892MOL0     O17613  10.034   8.757  11.146 -0.0864 -0.0739  0.0811
  892MOL0     C17614  10.009   8.870  11.184 -0.6456  0.3948  0.3280
  892MOL0     O17615   9.891   8.913  11.250  0.3564  0.4082 -0.1113
  892MOL0     C17616   9.799   8.812  11.296 -0.4318 -0.0053 -0.1046
  892MOL0     C17617   9.662   8.814  11.264  0.2781  0.0176  0.4580
  892MOL0     C17618   9.584   8.708  11.302  0.7817  0.2136  0.3563
  892MOL0     C17619   9.640   8.594  11.364  0.1091 -1.0666  1.0116
  892MOL0     O17620   9.575   8.484  11.406 -0.3934 -0.0489 -0.1407
  892MOL0     C17621   9.436   8.497  11.428  0.1331  0.8076 -0.0645
  892MOL0     C17622   9.421   8.564  11.565  0.2057  0.3281 -0.4669
  892MOL0     C17623   9.302   8.495  11.647 -0.3982 -0.8943  0.8780
  892MOL0     C17624   9.164   8.545  11.606 -0.0163  0.9625  0.0691
  892MOL0     C17625   9.048   8.451  11.658 -0.8762 -0.4253  0.4596
  892MOL0     C17626   9.055   8.311  11.601 -0.2835  0.0393 -0.2909
  892MOL0     C17627   8.933   8.229  11.656  0.1125 -0.2837  0.7390
  892MOL0     C17628   8.913   8.088  11.596 -0.2266  0.0253  0.1118
  892MOL0     N17629   8.816   8.077  11.483 -0.5658 -0.0501  0.5185
  892MOL0     C17630   8.803   7.965  11.403 -0.2676  0.3355  1.0650
  892MOL0     C17631   8.693   7.993  11.327  0.0606 -1.5014 -0.1463
  892MOL0     C17632   8.643   7.913  11.221  0.1978  0.1644  0.2458
  892MOL0     C17633   8.525   7.824  11.258  0.0617 -0.2099  0.5873
  892MOL0     C17634   8.405   7.897  11.325  0.7811  0.1088 -0.4952
  892MOL0     C17635   8.326   7.988  11.238  0.8697 -0.4683  0.2916
  892MOL0     O17636   8.267   7.913  11.130 -0.4936 -0.0383 -0.6215
  892MOL0     C17637   8.136   7.872  11.142  1.5009 -0.4365  0.4992
  892MOL0     C17638   8.071   7.867  11.024  0.5458 -1.0994  0.7547
  892MOL0     C17639   7.938   7.843  11.029 -0.0606  0.7402 -0.8032
  892MOL0     C17640   7.862   7.812  11.146 -0.2378  0.6710  0.5894
  892MOL0     C17641   7.711   7.797  11.143  0.0607  0.6241 -0.7004
  892MOL0     O17642   7.639   7.821  11.017  0.7690  0.1814  0.2051
  892MOL0     C17643   7.504   7.796  11.025  0.6909 -0.4600 -0.4508
  892MOL0     C17644   7.410   7.894  11.000  0.6444 -0.7175  0.2085
  892MOL0     C17645   7.270   7.880  11.026  1.0764 -0.5329  0.3228
  892MOL0     C17646   7.229   7.754  11.079 -0.8201 -0.6326  0.4993
  892MOL0     O17647   7.100   7.733  11.103  0.3250 -0.1788  0.1306
  892MOL0     C17648   7.038   7.600  11.076  0.1476 -0.5294 -0.3674
  892MOL0     C17649   6.918   7.628  10.984 -0.4360 -0.8581 -0.4981
  892MOL0     C17650   6.816   7.517  10.985  0.0304  0.8027 -0.1857
  892MOL0     C17651   6.715   7.526  11.095 -0.1242 -1.5269 -0.8073
  892MOL0     C17652   6.601   7.430  11.064  0.2477 -0.0245  0.3871
  892MOL0     C17653   6.530   7.415  11.210 -0.2427 -0.2566  0.0653
  892MOL0     C17654   6.400   7.320  11.206  0.1047 -0.4282 -0.8467
  892MOL0     C17655   6.404   7.199  11.110 -0.3298 -0.5486  0.4127
  892MOL0    Cl17656   6.542   7.086  11.151  0.3105  0.4500 -0.3421
  892MOL0     C17657   7.320   7.657  11.104  0.7719 -0.3192 -0.1900
  892MOL0     C17658   7.456   7.679  11.076  0.8253  0.7071  0.1875
  892MOL0     O17659   7.662   7.777  11.259  0.8701  0.4304 -0.1255
  892MOL0     C17660   7.934   7.829  11.268 -0.1598  0.5653 -0.3725
  892MOL0     C17661   8.074   7.854  11.262  0.1705  0.6386 -0.3312
  892MOL0     N17662   8.651   8.122  11.352 -0.1008 -0.2396 -0.1432
  892MOL0     N17663   8.727   8.170  11.445  0.5514  0.6457  0.5300
  892MOL0     C17664   9.777   8.602  11.396 -0.6481 -0.2841 -0.1525
  892MOL0     C17665   9.860   8.713  11.367  0.0005  0.9382 -0.7707
  892MOL0     C17666  10.110   8.977  11.159 -0.9794  1.0118 -0.4425
  892MOL0     C17667  10.096   9.109  11.212 -0.4591  0.1312  0.9022
  892MOL0     C17668  10.188   9.206  11.181  0.2216 -0.3780  1.0033
  892MOL0     C17669  10.306   9.172  11.102  0.7725 -0.3500 -0.2476
  892MOL0     O17670  10.382   9.282  11.071 -0.0872 -0.6722 -0.5598
  892MOL0     C17671  10.515   9.266  11.005 -0.2412 -0.9369 -0.4733
  892MOL0     C17672  10.594   9.390  10.986 -0.5210  0.0809  0.1873
  892MOL0     C17673  10.516   9.501  10.913  0.4847  0.6278  0.2503
  892MOL0     C17674  10.613   9.600  10.864 -0.1022 -0.7274  1.2953
  892MOL0     C17675  10.671   9.561  10.738 -0.4532  0.1979  0.2295
  892MOL0     C17676  10.712   9.541  10.629  0.6339 -0.0157  0.0448
  892MOL0     C17677  10.325   9.043  11.050  0.1414  0.5526 -1.1305
  892MOL0     C17678  10.226   8.947  11.085  0.0571 -0.1255  0.0799
  892MOL0     H17679   9.624   8.897  11.204  1.9271 -0.7145 -1.7297
  892MOL0     H17680   9.477   8.711  11.282  0.9129  2.4456 -0.2481
  892MOL0     H17681   9.399   8.394  11.422  1.8445  0.2150 -2.0127
  892MOL0     H17682   9.383   8.548  11.347 -0.1805  1.6035  0.6372
  892MOL0     H17683   9.397   8.669  11.546  0.0326  0.1188 -1.4760
  892MOL0     H17684   9.506   8.542  11.630 -0.4730 -3.2551 -0.5831
  892MOL0     H17685   9.325   8.507  11.754  0.3113 -0.6462  0.7016
  892MOL0     H17686   9.318   8.391  11.619  2.2124  0.4523 -3.6406
  892MOL0     H17687   9.148   8.641  11.656 -0.8412  1.0652 -0.3806
  892MOL0     H17688   9.163   8.567  11.499  0.5847 -2.4421 -0.7436
  892MOL0     H17689   8.952   8.499  11.637  0.5625  3.9300  2.5546
  892MOL0     H17690   9.047   8.445  11.768  1.2981 -2.8644  0.4437
  892MOL0     H17691   9.148   8.261  11.632  0.6960  2.3854  0.8653
  892MOL0     H17692   9.047   8.329  11.494 -1.6696 -2.3717 -0.6436
  892MOL0     H17693   8.941   8.211  11.764  0.5893  2.7477  1.3091
  892MOL0     H17694   8.840   8.286  11.649  0.9975  1.1261 -0.2961
  892MOL0     H17695   8.887   8.011  11.670 -2.0007 -1.6528 -2.1130
  892MOL0     H17696   9.006   8.056  11.548 -1.5719 -0.2743 -2.4457
  892MOL0     H17697   8.865   7.878  11.391  2.8555  2.7645 -3.0732
  892MOL0     H17698   8.719   7.848  11.176  0.5050  0.2120  0.6980
  892MOL0     H17699   8.604   7.981  11.145 -1.3966  0.4682  1.2793
  892MOL0     H17700   8.554   7.749  11.332 -0.3311  0.0431  0.9974
  892MOL0     H17701   8.503   7.772  11.164  3.5472  0.5929 -0.8404
  892MOL0     H17702   8.330   7.820  11.348 -1.6472  2.9154  1.8130
  892MOL0     H17703   8.437   7.943  11.419  0.3320 -0.0612 -0.2522
  892MOL0     H17704   8.384   8.068  11.191  0.2030 -1.1139 -1.7241
  892MOL0     H17705   8.244   8.029  11.298  0.0005 -1.3397 -0.2859
  892MOL0     H17706   8.122   7.896  10.932 -0.2733  0.3060  0.6989
  892MOL0     H17707   7.886   7.864  10.936 -0.3371 -2.2975 -1.4601
  892MOL0     H17708   7.460   7.983  10.965 -2.1140  1.2270  0.9125
  892MOL0     H17709   7.203   7.961  10.999  0.5793 -0.1324  2.6063
  892MOL0     H17710   7.002   7.548  11.165 -0.3298 -0.9712 -0.8209
  892MOL0     H17711   7.113   7.539  11.025 -1.1401 -1.4253 -1.2366
  892MOL0     H17712   6.961   7.623  10.884  1.4003  1.4696  0.0887
  892MOL0     H17713   6.876   7.729  10.992  2.9085  0.5769  0.9786
  892MOL0     H17714   6.867   7.420  10.991  1.6918  1.6878  0.6209
  892MOL0     H17715   6.775   7.522  10.884  0.5048 -1.5461 -0.5603
  892MOL0     H17716   6.768   7.504  11.188 -0.3912  1.3875  0.1241
  892MOL0     H17717   6.671   7.625  11.095 -1.1428 -1.9352 -2.6206
  892MOL0     H17718   6.629   7.337  11.014 -1.0851 -1.7802  2.7249
  892MOL0     H17719   6.531   7.473  10.991 -0.1299 -2.4888 -0.8130
  892MOL0     H17720   6.503   7.512  11.253 -0.6723 -1.8940  3.8726
  892MOL0     H17721   6.606   7.368  11.273  0.7142  1.2591  0.0981
  892MOL0     H17722   6.372   7.283  11.305 -0.2760  0.3734 -0.6472
  892MOL0     H17723   6.313   7.378  11.173 -1.3260 -2.9817 -1.7634
  892MOL0     H17724   6.414   7.242  11.010  1.6590 -1.0622  0.3539
  892MOL0     H17725   6.307   7.149  11.122 -0.0872 -0.7988  1.4435
  892MOL0     H17726   7.288   7.560  11.140  0.9840 -0.0449  0.7597
  892MOL0     H17727   7.525   7.598  11.098 -0.4244  0.6793  5.2088
  892MOL0     H17728   7.886   7.816  11.365  0.6801  1.2130  0.1381
  892MOL0     H17729   8.136   7.848  11.351  0.7164  1.8851 -0.6085
  892MOL0     H17730   9.832   8.524  11.447  1.3226  1.3766  0.4207
  892MOL0     H17731   9.968   8.705  11.365  0.1160  0.8458 -5.4640
  892MOL0     H17732  10.010   9.141  11.270 -2.1643 -0.2288 -1.2809
  892MOL0     H17733  10.163   9.305  11.220 -1.7455 -0.3975 -0.0979
  892MOL0     H17734  10.512   9.232  10.901 -4.0210 -0.6433 -0.5829
  892MOL0     H17735  10.570   9.194  11.067 -0.8841  0.4597  1.8433
  892MOL0     H17736  10.614   9.424  11.088 -1.7472 -0.6248  0.6761
  892MOL0     H17737  10.689   9.374  10.934 -0.3925 -3.2316  1.2490
  892MOL0     H17738  10.453   9.551  10.988 -0.0407  0.0894  0.1757
  892MOL0     H17739  10.450   9.475  10.830  0.9226  2.3831 -0.6941
  892MOL0     H17740  10.558   9.695  10.857  0.9814 -0.1256  0.4310
  892MOL0     H17741  10.695   9.625  10.932 -0.8492  2.0859  1.2971
  892MOL0     H17742  10.740   9.514  10.529 -1.0578  0.1207 -0.4998
  892MOL0     H17743  10.393   9.025  10.968  2.0447  1.4194  0.1934
  892MOL0     H17744  10.242   8.849  11.042  2.2545 -0.5606  1.7081
  893MOL0     O17745   4.303   6.140   8.457  0.0349  0.2690  0.9899
  893MOL0     C17746   4.309   6.234   8.376 -0.4268 -0.0784  0.5728
  893MOL0     O17747   4.424   6.264   8.300 -0.4370 -0.2408  0.3794
  893MOL0     C17748   4.537   6.191   8.313 -0.0343 -0.3301 -0.4582
  893MOL0     C17749   4.656   6.253   8.368  0.9535 -0.1488  0.8718
  893MOL0     C17750   4.770   6.174   8.385 -0.4076 -0.4790  0.2589
  893MOL0     C17751   4.790   6.041   8.344  0.0877  0.2026 -0.1459
  893MOL0     O17752   4.906   5.970   8.355 -0.4941 -0.0647  0.3439
  893MOL0     C17753   5.011   6.025   8.276  0.0215  0.9657 -0.2223
  893MOL0     C17754   5.121   6.069   8.370  0.0851  1.0548 -0.3692
  893MOL0     C17755   5.245   6.124   8.311 -0.4109  0.0274 -1.1034
  893MOL0     C17756   5.334   6.024   8.235 -0.0867  0.3958  0.0716
  893MOL0     C17757   5.480   6.050   8.260  0.0690  0.1744 -0.4683
  893MOL0     C17758   5.561   5.943   8.186  0.5704  0.3521  0.2132
  893MOL0     C17759   5.706   5.941   8.217 -0.5600  0.8443 -0.3722
  893MOL0     C17760   5.732   5.851   8.345 -0.4947  0.6357 -0.3964
  893MOL0     N17761   5.874   5.854   8.388  0.5064  0.3135  0.1270
  893MOL0     C17762   5.910   5.875   8.519 -0.6490  0.0621 -0.5416
  893MOL0     C17763   6.041   5.857   8.533  0.2493 -0.7962 -0.7680
  893MOL0     C17764   6.135   5.873   8.654 -0.0587 -0.6181  1.1963
  893MOL0     C17765   6.175   6.023   8.686 -0.7186  0.4882 -0.0385
  893MOL0     C17766   6.168   6.136   8.580  0.7487 -0.4498  0.0815
  893MOL0     C17767   6.199   6.274   8.638  0.3954  0.6809 -0.2509
  893MOL0     O17768   6.306   6.333   8.552  0.3546  0.3134 -0.3153
  893MOL0     C17769   6.260   6.427   8.465 -0.0870  0.9036  0.4524
  893MOL0     C17770   6.250   6.553   8.530  0.2388  0.0374 -0.1141
  893MOL0     C17771   6.190   6.656   8.453 -0.4631 -1.2640 -0.1773
  893MOL0     C17772   6.154   6.647   8.316  0.1969  0.2148 -0.2225
  893MOL0     C17773   6.066   6.743   8.243  0.0695  0.4497  0.4877
  893MOL0     O17774   6.018   6.713   8.114  0.4035 -0.4562 -0.4738
  893MOL0     C17775   5.946   6.803   8.039  0.6199 -0.3364 -0.9762
  893MOL0     C17776   5.812   6.830   8.060  0.3045  0.7780 -0.5146
  893MOL0     C17777   5.735   6.925   7.992  0.1057  0.3135 -0.3177
  893MOL0     C17778   5.805   7.005   7.898 -0.6030  0.0063 -0.2929
  893MOL0     O17779   5.737   7.110   7.833 -0.8776  0.0020 -0.3119
  893MOL0     C17780   5.729   7.104   7.690 -0.0708  0.4181  0.0803
  893MOL0     C17781   5.652   7.231   7.641  0.3652  0.0776  0.0802
  893MOL0     C17782   5.649   7.267   7.496  0.2678  0.4708  0.0746
  893MOL0     C17783   5.781   7.327   7.442 -0.2382  0.0518  0.5739
  893MOL0     C17784   5.756   7.401   7.301 -0.6651  0.3026  0.1736
  893MOL0     C17785   5.706   7.306   7.191 -0.2953 -0.0323 -0.5084
  893MOL0     C17786   5.692   7.372   7.054  0.7627  0.0417 -0.1020
  893MOL0     C17787   5.661   7.277   6.935 -0.5242  0.3868 -0.4845
  893MOL0    Cl17788   5.493   7.241   6.937  0.3845 -0.1730 -0.4742
  893MOL0     C17789   5.940   6.973   7.868  0.1080 -0.0390 -0.1537
  893MOL0     C17790   6.008   6.876   7.937 -0.2492 -0.3405  0.3883
  893MOL0     O17791   6.050   6.851   8.297  0.1329 -0.0573 -0.2106
  893MOL0     C17792   6.177   6.519   8.260  0.4754  0.3370 -0.3997
  893MOL0     C17793   6.246   6.414   8.330  0.1736  1.0115  0.2433
  893MOL0     N17794   6.090   5.823   8.406  0.2574 -0.0846 -0.0736
  893MOL0     N17795   5.982   5.814   8.318  0.6570  0.1194  0.6130
  893MOL0     C17796   4.678   5.987   8.279 -0.5651 -0.1690 -0.5347
  893MOL0     C17797   4.561   6.065   8.263  0.0688  0.4217  0.5381
  893MOL0     C17798   4.182   6.313   8.361 -0.1103 -0.5006 -0.5251
  893MOL0     C17799   4.149   6.389   8.239 -0.0512  0.5694 -0.0474
  893MOL0     C17800   4.031   6.461   8.236 -0.4509  0.6400  0.2548
  893MOL0     C17801   3.932   6.449   8.329  0.0555  0.0956 -0.2741
  893MOL0     O17802   3.819   6.527   8.308 -0.3381  0.2615 -0.8130
  893MOL0     C17803   3.694   6.486   8.368  0.9833  0.0495 -0.0642
  893MOL0     C17804   3.587   6.594   8.333  0.7284 -0.2711  0.0806
  893MOL0     C17805   3.508   6.575   8.196  0.1433 -0.5291 -0.4401
  893MOL0     C17806   3.442   6.700   8.154  0.4751  0.0938  0.1892
  893MOL0     C17807   3.373   6.669   8.026  0.1520 -0.0517 -0.5143
  893MOL0     C17808   3.295   6.655   7.927 -0.9150  0.1473  0.1420
  893MOL0     C17809   3.969   6.376   8.454  1.0211  0.1284  0.2923
  893MOL0     C17810   4.096   6.322   8.472  1.0665 -0.3317  0.6790
  893MOL0     H17811   4.659   6.361   8.385  3.2796  0.9947 -4.5904
  893MOL0     H17812   4.852   6.225   8.434  0.2935 -3.3197  2.2567
  893MOL0     H17813   4.975   6.105   8.211 -2.4106  1.0671  1.1216
  893MOL0     H17814   5.053   5.945   8.214  3.4711  1.7086  0.9677
  893MOL0     H17815   5.158   5.977   8.417 -1.0783  0.3778 -0.7392
  893MOL0     H17816   5.083   6.132   8.450 -0.5930  0.6054 -0.3267
  893MOL0     H17817   5.294   6.164   8.400 -0.7551 -2.2214  0.1637
  893MOL0     H17818   5.218   6.206   8.244  0.7316  3.3790  2.1644
  893MOL0     H17819   5.309   5.920   8.254 -1.4573  0.8385  0.8377
  893MOL0     H17820   5.316   6.036   8.128 -1.7550 -2.3151 -0.0258
  893MOL0     H17821   5.503   6.048   8.367  0.5638 -0.5322 -0.5792
  893MOL0     H17822   5.500   6.151   8.224 -0.5914 -0.8092 -3.9879
  893MOL0     H17823   5.544   5.968   8.081 -1.2908 -0.9120  0.1577
  893MOL0     H17824   5.527   5.840   8.202  1.8978  0.0720  1.4363
  893MOL0     H17825   5.762   5.892   8.137  0.6015 -0.9656  1.4463
  893MOL0     H17826   5.737   6.045   8.232 -0.6621  0.8987 -0.5285
  893MOL0     H17827   5.712   5.745   8.328  1.4734 -0.0914  1.3652
  893MOL0     H17828   5.665   5.899   8.417 -1.7367 -0.4411 -0.7933
  893MOL0     H17829   5.834   5.896   8.594 -1.0241 -0.6488 -0.7227
  893MOL0     H17830   6.225   5.813   8.635 -0.5001 -1.7554  2.5066
  893MOL0     H17831   6.083   5.838   8.744 -4.0886  1.1570 -0.2429
  893MOL0     H17832   6.276   6.020   8.729 -0.8184  1.1765  0.2655
  893MOL0     H17833   6.116   6.058   8.771  0.5849  2.1745  0.2285
  893MOL0     H17834   6.237   6.116   8.497  1.6827  0.3916  0.6303
  893MOL0     H17835   6.073   6.132   8.527  0.9522 -2.1900 -0.2224
  893MOL0     H17836   6.239   6.270   8.739  0.7950 -1.1168 -0.4511
  893MOL0     H17837   6.104   6.327   8.646  0.1630  0.0316  1.7102
  893MOL0     H17838   6.272   6.572   8.634 -1.2680  2.0011 -0.0991
  893MOL0     H17839   6.181   6.758   8.489  1.1058 -1.8581  2.0925
  893MOL0     H17840   5.769   6.780   8.146  3.1080 -5.6566 -2.2438
  893MOL0     H17841   5.635   6.957   8.021  0.4870  0.5740  0.7667
  893MOL0     H17842   5.667   7.016   7.670  0.1611  0.0295  1.0324
  893MOL0     H17843   5.831   7.087   7.653 -0.2416 -0.3420 -0.0451
  893MOL0     H17844   5.680   7.319   7.699 -2.4104  0.3827  1.0706
  893MOL0     H17845   5.552   7.198   7.671  1.1487 -3.1705 -0.4919
  893MOL0     H17846   5.572   7.345   7.485  0.3955  0.5559 -0.2162
  893MOL0     H17847   5.615   7.192   7.424  1.6823  4.3675 -5.3424
  893MOL0     H17848   5.813   7.411   7.503  2.6672  1.6264 -2.7444
  893MOL0     H17849   5.863   7.255   7.434 -0.6452 -0.3712  0.0493
  893MOL0     H17850   5.857   7.433   7.274  0.1675 -1.1601  1.4342
  893MOL0     H17851   5.693   7.488   7.324 -1.2563 -0.5916  2.0966
  893MOL0     H17852   5.612   7.255   7.215 -0.6361  1.2943  1.1843
  893MOL0     H17853   5.778   7.225   7.176 -0.7391 -0.4997 -0.2132
  893MOL0     H17854   5.610   7.444   7.053 -1.7618 -2.6023 -2.8121
  893MOL0     H17855   5.793   7.415   7.049  1.6565 -1.6283  2.0472
  893MOL0     H17856   5.722   7.188   6.952  3.7337  3.5005  2.8575
  893MOL0     H17857   5.698   7.328   6.846  3.0597 -1.7102 -0.3572
  893MOL0     H17858   6.004   7.027   7.798 -0.8290  0.5846 -0.5453
  893MOL0     H17859   6.116   6.875   7.932 -0.2793 -0.4723 -0.4715
  893MOL0     H17860   6.169   6.509   8.152  4.4528 -0.6990 -0.7397
  893MOL0     H17861   6.258   6.317   8.284 -1.3580  0.4975  0.8586
  893MOL0     H17862   4.683   5.882   8.250  1.5921  0.5334 -3.1040
  893MOL0     H17863   4.482   5.999   8.229  1.0109  0.1471 -1.2155
  893MOL0     H17864   4.218   6.380   8.155 -0.1670 -0.2060 -0.0623
  893MOL0     H17865   4.017   6.529   8.152  0.3202 -0.5468 -0.8546
  893MOL0     H17866   3.708   6.477   8.476 -0.7165  0.0644  0.1723
  893MOL0     H17867   3.648   6.392   8.336 -1.9804  1.8152 -1.2916
  893MOL0     H17868   3.503   6.601   8.402 -0.1267  1.7172 -1.0744
  893MOL0     H17869   3.628   6.694   8.318 -3.9126  1.6233 -1.7900
  893MOL0     H17870   3.428   6.500   8.205  0.7975 -1.1415  0.4718
  893MOL0     H17871   3.580   6.542   8.121  2.6293 -1.2625  2.0965
  893MOL0     H17872   3.374   6.743   8.228  1.3650  2.2407 -0.1643
  893MOL0     H17873   3.511   6.777   8.119  1.8967 -0.9136  0.6465
  893MOL0     H17874   3.215   6.648   7.857  0.5801 -1.9486 -1.4847
  893MOL0     H17875   3.894   6.375   8.533 -0.7010  2.2572 -1.1584
  893MOL0     H17876   4.116   6.270   8.565 -2.9155 -1.0487  1.2998
  894MOL0     O17877   8.703   7.283   5.550 -0.5822 -0.8372  0.0400
  894MOL0     C17878   8.800   7.242   5.480  0.1532  0.2520  0.0037
  894MOL0     O17879   8.826   7.283   5.358  0.8383  0.1729 -0.7526
  894MOL0     C17880   8.732   7.365   5.295 -0.0769 -0.2005  0.1795
  894MOL0     C17881   8.718   7.501   5.298 -0.1536  0.5317 -0.5885
  894MOL0     C17882   8.622   7.570   5.221 -0.0805  0.0136  0.1868
  894MOL0     C17883   8.536   7.502   5.140  0.7696 -0.8993  0.3670
  894MOL0     O17884   8.429   7.553   5.064 -0.2532  0.0961 -0.3785
  894MOL0     C17885   8.458   7.678   5.014 -1.2570  0.4116  0.9864
  894MOL0     C17886   8.339   7.721   4.928  0.5816 -0.3305  0.3849
  894MOL0     C17887   8.270   7.611   4.842 -1.0012 -0.6541 -0.2340
  894MOL0     C17888   8.193   7.683   4.730 -0.5836  0.2051 -0.4921
  894MOL0     C17889   8.084   7.598   4.667  0.6521  0.3781 -0.2245
  894MOL0     C17890   7.985   7.536   4.760  0.1289 -0.3396  0.9814
  894MOL0     C17891   7.854   7.491   4.687  0.1096 -0.2080 -0.0078
  894MOL0     C17892   7.785   7.368   4.753 -0.4997  0.2152  0.8976
  894MOL0     N17893   7.716   7.404   4.876 -0.4631  0.1690 -0.8566
  894MOL0     C17894   7.599   7.479   4.882  0.2828  1.0040  0.1531
  894MOL0     C17895   7.584   7.515   5.007 -0.2800 -0.0896  0.2875
  894MOL0     C17896   7.476   7.596   5.063  0.8559  0.2350  0.0662
  894MOL0     C17897   7.505   7.730   5.139  0.4334  0.9901  1.1183
  894MOL0     C17898   7.391   7.817   5.201 -0.0068  0.9219 -0.5690
  894MOL0     C17899   7.302   7.744   5.306  1.5231  0.0249 -0.6433
  894MOL0     O17900   7.195   7.838   5.348 -0.8047  0.6514 -0.0334
  894MOL0     C17901   7.088   7.785   5.415 -0.4545 -0.0780 -0.7924
  894MOL0     C17902   6.969   7.858   5.401  0.4485  0.4093  1.2017
  894MOL0     C17903   6.845   7.817   5.456 -0.9606  0.5630 -0.3169
  894MOL0     C17904   6.846   7.697   5.525  0.0228  0.1961 -0.1942
  894MOL0     C17905   6.727   7.654   5.603  0.7191  0.2290 -0.1369
  894MOL0     O17906   6.612   7.731   5.596  0.1851  0.5717 -0.6630
  894MOL0     C17907   6.506   7.704   5.674  0.7670 -0.1355 -0.7362
  894MOL0     C17908   6.435   7.827   5.706 -0.6571 -0.2384  0.6031
  894MOL0     C17909   6.339   7.825   5.801 -0.7516  0.2986 -0.3921
  894MOL0     C17910   6.296   7.703   5.865  0.4316  0.2019  0.2967
  894MOL0     O17911   6.180   7.705   5.941 -0.7192  0.2149  0.8813
  894MOL0     C17912   6.190   7.713   6.083 -0.1472  0.1845 -0.7121
  894MOL0     C17913   6.054   7.698   6.136 -0.4821 -1.4143  0.0049
  894MOL0     C17914   6.066   7.697   6.294  0.4379  0.1762 -0.2499
  894MOL0     C17915   5.930   7.724   6.373 -0.2306 -0.3918 -0.2126
  894MOL0     C17916   5.903   7.871   6.396 -0.2557 -0.2949  0.0299
  894MOL0     C17917   5.793   7.900   6.492  0.6193 -0.0322 -0.4567
  894MOL0     C17918   5.780   8.056   6.513 -0.2603 -0.7448  0.2692
  894MOL0     C17919   5.675   8.117   6.611  0.1530  0.6842 -0.1941
  894MOL0    Cl17920   5.497   8.098   6.540 -0.0834 -0.3029 -0.3715
  894MOL0     C17921   6.348   7.582   5.821 -0.0803 -0.8546  0.8158
  894MOL0     C17922   6.447   7.580   5.725  0.0586 -0.1490  0.2836
  894MOL0     O17923   6.736   7.546   5.674 -0.7215  0.1202 -0.6709
  894MOL0     C17924   6.969   7.616   5.535  0.5076  0.8213  0.1631
  894MOL0     C17925   7.092   7.662   5.483  0.1431 -0.4561 -0.6297
  894MOL0     N17926   7.692   7.465   5.072 -0.5323  0.0697  0.0449
  894MOL0     N17927   7.773   7.398   4.998  0.4960 -0.4003 -1.0597
  894MOL0     C17928   8.541   7.369   5.142  0.6529 -0.2027 -0.9705
  894MOL0     C17929   8.641   7.301   5.215  0.0628 -0.1103 -1.1716
  894MOL0     C17930   8.889   7.143   5.531  0.2727  0.3949 -0.0327
  894MOL0     C17931   8.999   7.093   5.462 -0.5197 -0.3833  0.2362
  894MOL0     C17932   9.093   7.014   5.530  0.7404  0.1563  0.2966
  894MOL0     C17933   9.086   6.983   5.666 -0.7888 -1.0621 -0.0606
  894MOL0     O17934   9.189   6.908   5.716 -0.4029 -0.5231  0.1745
  894MOL0     C17935   9.225   6.907   5.850 -0.3794  0.5826 -1.0290
  894MOL0     C17936   9.361   6.841   5.866 -0.3953 -0.7316 -0.7428
  894MOL0     C17937   9.407   6.893   6.004 -0.2776 -0.4423 -0.0040
  894MOL0     C17938   9.533   6.823   6.039  0.4374  0.4257  0.5760
  894MOL0     C17939   9.600   6.847   6.165  0.0826  0.7449  0.1044
  894MOL0     C17940   9.657   6.864   6.274 -0.8169 -0.3441  0.3723
  894MOL0     C17941   8.976   7.038   5.738 -0.3501 -1.0012  0.3384
  894MOL0     C17942   8.886   7.121   5.674  0.8559 -0.2841  0.1154
  894MOL0     H17943   8.782   7.562   5.362  0.9664  1.2764 -2.3411
  894MOL0     H17944   8.622   7.679   5.224 -1.5140  0.0130  0.5040
  894MOL0     H17945   8.549   7.688   4.954 -0.3241 -0.2054  2.2494
  894MOL0     H17946   8.458   7.746   5.099  1.4959  1.9079 -0.0816
  894MOL0     H17947   8.376   7.798   4.859 -0.9499  0.9311  0.9027
  894MOL0     H17948   8.256   7.746   4.995  0.5804 -0.0748  0.2904
  894MOL0     H17949   8.207   7.549   4.906 -1.0093 -1.0359 -0.6088
  894MOL0     H17950   8.356   7.561   4.796 -0.1649  2.5543 -2.5920
  894MOL0     H17951   8.149   7.776   4.768  1.0599  0.2176  1.5787
  894MOL0     H17952   8.257   7.725   4.652  0.5743  0.6729  0.6651
  894MOL0     H17953   8.133   7.509   4.627  0.3045  0.2342 -0.3229
  894MOL0     H17954   8.035   7.656   4.588 -1.8344 -0.9092  0.2913
  894MOL0     H17955   7.955   7.617   4.828 -3.0684  1.2028 -1.9850
  894MOL0     H17956   8.023   7.458   4.827 -0.6742  0.0438  1.9128
  894MOL0     H17957   7.785   7.575   4.680 -1.4396 -1.4917 -1.1794
  894MOL0     H17958   7.874   7.467   4.582 -3.1238 -0.3897 -0.6764
  894MOL0     H17959   7.865   7.296   4.774  0.4798  1.4872  1.6130
  894MOL0     H17960   7.712   7.324   4.684  0.2659  1.3726 -0.7267
  894MOL0     H17961   7.522   7.490   4.806  0.0174 -0.2274  0.2256
  894MOL0     H17962   7.420   7.529   5.128 -2.3833 -1.4650 -4.0672
  894MOL0     H17963   7.399   7.620   4.989  1.3540 -2.9938 -1.6653
  894MOL0     H17964   7.569   7.789   5.073  0.7452 -0.5851 -0.0464
  894MOL0     H17965   7.564   7.692   5.223  4.4939  1.6037 -1.1890
  894MOL0     H17966   7.432   7.898   5.261  0.5659 -0.5368  1.1249
  894MOL0     H17967   7.332   7.858   5.119 -0.0919  1.4618 -0.2373
  894MOL0     H17968   7.361   7.714   5.393 -0.6057 -0.6919  0.6168
  894MOL0     H17969   7.255   7.655   5.263  0.3186  0.6190 -0.5991
  894MOL0     H17970   6.962   7.953   5.349 -1.3583 -0.1319  0.3677
  894MOL0     H17971   6.761   7.886   5.448 -1.2468  0.5504  1.9800
  894MOL0     H17972   6.471   7.915   5.654 -2.8293 -0.0857 -0.7934
  894MOL0     H17973   6.292   7.918   5.833 -0.8360  0.8179 -1.9454
  894MOL0     H17974   6.229   7.805   6.126 -1.2949 -1.3745  4.3126
  894MOL0     H17975   6.259   7.636   6.119 -0.3422  0.4755  0.3211
  894MOL0     H17976   6.015   7.605   6.096  0.3968 -1.0965 -1.7054
  894MOL0     H17977   5.991   7.777   6.092  0.8027 -1.5160 -2.1505
  894MOL0     H17978   6.132   7.777   6.328 -1.6258  1.0561  1.9314
  894MOL0     H17979   6.113   7.603   6.326  1.0906  1.2255  2.0711
  894MOL0     H17980   5.848   7.677   6.319 -0.1472 -1.1299  0.2905
  894MOL0     H17981   5.925   7.672   6.470 -2.2569 -1.8032 -1.0101
  894MOL0     H17982   5.874   7.922   6.303  3.6796  1.3582 -0.4803
  894MOL0     H17983   5.996   7.921   6.424 -0.4426  0.7524 -1.1358
  894MOL0     H17984   5.817   7.859   6.591  0.9644 -1.8598 -1.2642
  894MOL0     H17985   5.698   7.855   6.464  1.6155 -3.4081  1.0758
  894MOL0     H17986   5.883   8.084   6.538 -1.2991  1.6416  2.3225
  894MOL0     H17987   5.767   8.095   6.412  2.6227  3.8649  1.3883
  894MOL0     H17988   5.694   8.222   6.633 -0.2405  0.3646  1.7914
  894MOL0     H17989   5.682   8.060   6.704  0.4264 -0.9199 -1.1527
  894MOL0     H17990   6.306   7.498   5.875 -2.2891  0.8019  1.8222
  894MOL0     H17991   6.514   7.497   5.704  1.3285  0.5213  1.4960
  894MOL0     H17992   6.969   7.518   5.581 -0.5054  0.2804 -0.9178
  894MOL0     H17993   7.176   7.598   5.510  0.5236  0.1805 -0.2986
  894MOL0     H17994   8.449   7.324   5.106 -1.5639  3.0955  0.1414
  894MOL0     H17995   8.645   7.193   5.224 -3.6396 -0.3309 -0.3639
  894MOL0     H17996   9.027   7.102   5.357  2.5457  1.4627  1.0917
  894MOL0     H17997   9.171   6.961   5.477 -0.1892 -2.8782  1.7073
  894MOL0     H17998   9.146   6.849   5.899 -1.2370  1.1688 -1.6766
  894MOL0     H17999   9.224   7.009   5.890 -0.9684 -0.3415  1.4956
  894MOL0     H18000   9.352   6.732   5.875 -0.4680 -0.8191 -1.7102
  894MOL0     H18001   9.436   6.874   5.794  2.1569 -2.5921  0.8909
  894MOL0     H18002   9.330   6.871   6.079  0.6333 -3.9340  0.0536
  894MOL0     H18003   9.425   7.001   5.999 -2.1413 -0.1758 -2.4934
  894MOL0     H18004   9.523   6.716   6.018 -0.8851  0.6769 -0.1597
  894MOL0     H18005   9.613   6.847   5.968  0.7999 -2.3712 -0.0691
  894MOL0     H18006   9.706   6.894   6.364 -0.7342 -0.3364  0.3244
  894MOL0     H18007   8.969   7.006   5.842 -0.8188 -3.5373 -0.3999
  894MOL0     H18008   8.808   7.164   5.736  0.5219  0.4348 -0.7642
  895MOL0     O18009   0.053   6.299   0.096  0.3215  0.1535  0.5353
  895MOL0     C18010  -0.006   6.388   0.153  0.2073 -0.0757  0.0038
  895MOL0     O18011   0.021   6.522   0.138 -0.0491 -0.5149 -0.1954
  895MOL0     C18012   0.113   6.580   0.054  0.0079  0.4258  1.2003
  895MOL0     C18013   0.172   6.530  -0.063 -0.6007 -0.4240  0.4015
  895MOL0     C18014   0.284   6.589  -0.127  0.5732 -0.6457  0.3955
  895MOL0     C18015   0.333   6.713  -0.077  0.6544  0.0996 -0.1107
  895MOL0     O18016   0.421   6.791  -0.153 -0.3555  0.3428  0.7267
  895MOL0     C18017   0.530   6.729  -0.218 -0.5291 -0.4360  0.0256
  895MOL0     C18018   0.641   6.833  -0.246  1.0154  0.0726 -0.0427
  895MOL0     C18019   0.692   6.899  -0.108  1.3944 -0.3814 -0.0095
  895MOL0     C18020   0.798   6.814  -0.028 -0.1239 -0.3544 -0.1505
  895MOL0     C18021   0.843   6.881   0.098 -0.9442 -0.4399  0.4022
  895MOL0     C18022   0.746   6.849   0.208  0.1247 -0.8072  0.0833
  895MOL0     C18023   0.781   6.915   0.339 -0.1504 -0.4705 -1.0360
  895MOL0     C18024   0.803   7.068   0.345  0.6444 -1.0025  0.5864
  895MOL0     N18025   0.775   7.117   0.477  0.2088  0.2508  0.1524
  895MOL0     C18026   0.842   7.096   0.602  0.7405  0.5103  0.6118
  895MOL0     C18027   0.777   7.174   0.694 -0.3136 -0.2082  0.6218
  895MOL0     C18028   0.800   7.197   0.842  0.0872 -0.0395 -0.1298
  895MOL0     C18029   0.707   7.115   0.920  0.1255  0.3519 -0.4539
  895MOL0     C18030   0.743   7.139   1.072 -1.3205 -0.7695  0.2868
  895MOL0     C18031   0.659   7.043   1.156 -0.1629  0.0588 -0.2084
  895MOL0     O18032   0.518   7.093   1.159 -0.9052 -0.0259 -0.0205
  895MOL0     C18033   0.432   7.034   1.249 -0.2168  0.7863  0.1092
  895MOL0     C18034   0.464   6.924   1.335 -0.2736 -0.2543 -0.3011
  895MOL0     C18035   0.372   6.876   1.436  0.0890  0.1949  0.7746
  895MOL0     C18036   0.248   6.945   1.455 -0.7406 -0.1891 -0.3650
  895MOL0     C18037   0.152   6.916   1.563  0.3903 -0.2093 -0.0176
  895MOL0     O18038   0.159   6.783   1.610  0.1633 -0.0708  0.2704
  895MOL0     C18039   0.055   6.738   1.694 -1.0363  0.8252 -1.0204
  895MOL0     C18040  -0.040   6.652   1.645 -0.2689 -0.4142  0.4690
  895MOL0     C18041  -0.138   6.604   1.727 -0.0315  0.4689 -1.0038
  895MOL0     C18042  -0.160   6.652   1.862  0.3830  0.1508  0.1588
  895MOL0     O18043  -0.252   6.599   1.946  0.6724 -0.0965  0.2635
  895MOL0     C18044  -0.370   6.551   1.886  0.0441 -0.1687 -0.3377
  895MOL0     C18045  -0.450   6.483   1.998  0.0088 -0.6935  1.2546
  895MOL0     C18046  -0.549   6.577   2.062  0.1249 -0.4814 -0.2230
  895MOL0     C18047  -0.482   6.702   2.117  0.3861  1.2543  0.6124
  895MOL0     C18048  -0.589   6.765   2.210 -0.1705  1.0342  0.8145
  895MOL0     C18049  -0.537   6.900   2.264  0.3568  0.2861 -0.0260
  895MOL0     C18050  -0.624   6.966   2.371 -0.7675  0.7463  0.4807
  895MOL0     C18051  -0.587   7.113   2.382 -0.3468  0.0717  0.0578
  895MOL0    Cl18052  -0.663   7.187   2.531  0.2229  0.1471  0.5276
  895MOL0     C18053  -0.054   6.745   1.911  0.8132 -0.1586 -0.2269
  895MOL0     C18054   0.054   6.773   1.828  0.0980 -0.4530  0.3012
  895MOL0     O18055   0.073   7.002   1.605 -0.8134  0.3847  0.0632
  895MOL0     C18056   0.217   7.051   1.366  0.5978  0.5332  0.9734
  895MOL0     C18057   0.301   7.089   1.259 -0.0510  0.8782 -0.1166
  895MOL0     N18058   0.677   7.244   0.625 -0.4910 -0.5544 -0.5986
  895MOL0     N18059   0.671   7.199   0.504 -0.2935 -0.5989  0.4692
  895MOL0     C18060   0.266   6.770   0.030 -0.5869 -0.7080 -1.1026
  895MOL0     C18061   0.158   6.701   0.096  0.0306 -0.2561  0.5118
  895MOL0     C18062  -0.119   6.344   0.242  0.1826  0.0368 -0.7147
  895MOL0     C18063  -0.149   6.416   0.353 -0.2174  0.6313 -0.2234
  895MOL0     C18064  -0.246   6.387   0.449 -0.2143  0.0270  0.4047
  895MOL0     C18065  -0.311   6.266   0.429  0.2436 -0.0465  0.6602
  895MOL0     O18066  -0.413   6.221   0.502  0.6418 -0.3522 -0.4509
  895MOL0     C18067  -0.462   6.297   0.608 -0.0991  0.2065  0.7645
  895MOL0     C18068  -0.615   6.284   0.611  0.7276  0.1245  0.1949
  895MOL0     C18069  -0.678   6.353   0.483  0.0394  0.1860 -0.3201
  895MOL0     C18070  -0.689   6.513   0.499  0.0380  1.1043 -0.1905
  895MOL0     C18071  -0.755   6.549   0.626  0.0908 -0.8014 -0.8289
  895MOL0     C18072  -0.810   6.568   0.739 -0.2930 -0.4672 -1.0271
  895MOL0     C18073  -0.286   6.181   0.315  0.5167 -0.4876  0.9597
  895MOL0     C18074  -0.193   6.228   0.221  0.3132  0.0180  0.1386
  895MOL0     H18075   0.141   6.431  -0.097  0.2349 -1.3446  2.1521
  895MOL0     H18076   0.328   6.546  -0.216  0.0410 -1.8986  0.7149
  895MOL0     H18077   0.489   6.677  -0.305  0.8333 -0.4262 -0.6460
  895MOL0     H18078   0.572   6.650  -0.155  0.2879  0.5700  0.7736
  895MOL0     H18079   0.596   6.915  -0.303  0.3682  0.9498  1.6493
  895MOL0     H18080   0.729   6.794  -0.299  1.8670  1.3181  0.4049
  895MOL0     H18081   0.605   6.917  -0.044  0.3853  0.2435 -1.4908
  895MOL0     H18082   0.744   6.993  -0.129 -1.2471  1.4092  0.9241
  895MOL0     H18083   0.762   6.711  -0.014  1.4026 -1.0322 -0.8900
  895MOL0     H18084   0.882   6.796  -0.096 -0.9542 -1.0877 -1.0312
  895MOL0     H18085   0.847   6.990   0.085  3.9469 -0.5573 -0.9779
  895MOL0     H18086   0.942   6.856   0.136 -0.5085 -1.5993 -1.3910
  895MOL0     H18087   0.746   6.740   0.225  1.0002 -0.7237  0.6670
  895MOL0     H18088   0.645   6.879   0.179  0.2331  0.7427  1.2146
  895MOL0     H18089   0.692   6.889   0.397  0.2980 -0.5549 -0.3851
  895MOL0     H18090   0.875   6.880   0.381  0.5555  0.1013 -2.0940
  895MOL0     H18091   0.739   7.121   0.273 -1.5880  0.0781  3.2008
  895MOL0     H18092   0.911   7.085   0.330  0.4076  2.5235  1.7749
  895MOL0     H18093   0.906   7.011   0.627  0.7610  0.0962 -0.7699
  895MOL0     H18094   0.787   7.303   0.864 -1.7123  0.2149 -2.0853
  895MOL0     H18095   0.902   7.172   0.871  0.5450  2.4668  0.5954
  895MOL0     H18096   0.721   7.009   0.895 -1.5920  0.3474 -1.5379
  895MOL0     H18097   0.605   7.147   0.896 -0.2793 -0.9397 -0.5446
  895MOL0     H18098   0.848   7.124   1.102 -1.2075  1.4170  1.1676
  895MOL0     H18099   0.702   7.237   1.100 -3.0913 -0.4480 -2.9466
  895MOL0     H18100   0.696   7.038   1.259  0.7087  1.4689 -0.4313
  895MOL0     H18101   0.665   6.942   1.114  2.6483  0.1942 -0.3001
  895MOL0     H18102   0.553   6.864   1.317 -0.6501 -1.1161  0.5704
  895MOL0     H18103   0.394   6.800   1.510 -0.6714 -0.3485  0.4498
  895MOL0     H18104  -0.032   6.614   1.544 -0.2671  3.5777 -1.2368
  895MOL0     H18105  -0.193   6.520   1.686 -1.1101  1.2615 -1.2372
  895MOL0     H18106  -0.343   6.471   1.816  0.2827 -1.1012  0.7892
  895MOL0     H18107  -0.419   6.637   1.840 -1.0263  0.2681  1.5286
  895MOL0     H18108  -0.383   6.431   2.067  2.3224 -2.4447 -2.0146
  895MOL0     H18109  -0.496   6.394   1.953 -1.8842  0.6203  0.4402
  895MOL0     H18110  -0.614   6.535   2.140 -1.8665  0.8321 -1.0953
  895MOL0     H18111  -0.616   6.598   1.979 -0.3891 -3.8735 -0.7957
  895MOL0     H18112  -0.386   6.675   2.161 -2.1107 -2.1088  4.7847
  895MOL0     H18113  -0.461   6.757   2.025 -1.5821 -0.4800 -0.9931
  895MOL0     H18114  -0.625   6.697   2.287 -1.6026  2.6292  1.6383
  895MOL0     H18115  -0.676   6.782   2.145  1.7721 -1.1668 -2.6881
  895MOL0     H18116  -0.525   6.973   2.183 -0.0732 -1.8638 -2.1085
  895MOL0     H18117  -0.431   6.902   2.292  0.4410  0.2801 -0.3407
  895MOL0     H18118  -0.730   6.953   2.345 -0.5314  1.6807 -1.0886
  895MOL0     H18119  -0.605   6.915   2.466  0.5732  1.6023  0.6956
  895MOL0     H18120  -0.628   7.164   2.294 -0.4502 -2.1519 -1.2455
  895MOL0     H18121  -0.479   7.124   2.382 -0.3961  1.2615  3.0569
  895MOL0     H18122  -0.053   6.795   2.007  0.7670 -6.0424  3.3112
  895MOL0     H18123   0.127   6.843   1.866 -2.3959  1.5513  1.7548
  895MOL0     H18124   0.125   7.109   1.378  0.1734 -0.3544  2.2956
  895MOL0     H18125   0.280   7.166   1.186  0.2369  2.0287  0.9678
  895MOL0     H18126   0.286   6.874   0.053 -0.7283 -0.8685 -0.2063
  895MOL0     H18127   0.114   6.742   0.187 -1.5005 -1.8932  0.5600
  895MOL0     H18128  -0.095   6.508   0.372 -0.7936  1.2720 -1.5401
  895MOL0     H18129  -0.266   6.463   0.524  2.5930  0.9919  0.2606
  895MOL0     H18130  -0.433   6.402   0.607  1.6958 -0.1331  3.6617
  895MOL0     H18131  -0.421   6.254   0.700 -2.5192 -1.6303  1.0832
  895MOL0     H18132  -0.641   6.178   0.618 -0.0515  0.3480  0.8267
  895MOL0     H18133  -0.654   6.323   0.706 -2.7155  2.5254 -2.0112
  895MOL0     H18134  -0.781   6.318   0.471  0.5454 -0.4462 -3.8972
  895MOL0     H18135  -0.620   6.319   0.397  0.8932  0.1318  0.2645
  895MOL0     H18136  -0.587   6.551   0.495  0.4270  0.7860  3.3596
  895MOL0     H18137  -0.727   6.556   0.406 -2.6039 -1.3482 -0.4029
  895MOL0     H18138  -0.866   6.600   0.825 -1.4799 -0.0866 -1.9106
  895MOL0     H18139  -0.312   6.077   0.328 -1.1435  0.0339  2.1223
  895MOL0     H18140  -0.175   6.157   0.141 -1.6544 -0.1074 -0.2268
  896MOL0     O18141   8.305   0.359  11.236  0.2161 -0.6205  0.5038
  896MOL0     C18142   8.284   0.358  11.359  0.3882  0.2448 -0.5243
  896MOL0     O18143   8.296   0.249  11.443 -0.1509 -0.1246 -0.2977
  896MOL0     C18144   8.313   0.117  11.413  0.3107 -0.2289  0.3342
  896MOL0     C18145   8.324   0.023  11.527  0.0909  0.5378 -0.2539
  896MOL0     C18146   8.327  -0.115  11.506 -0.5900  0.8215  0.0175
  896MOL0     C18147   8.298  -0.166  11.377 -0.7875  0.0671 -0.0350
  896MOL0     O18148   8.262  -0.300  11.363 -0.2521 -0.4602  0.2385
  896MOL0     C18149   8.183  -0.335  11.245  0.2728 -1.3535 -0.7639
  896MOL0     C18150   8.118  -0.470  11.255  0.3399  0.0532  0.6604
  896MOL0     C18151   7.983  -0.460  11.322  0.6139  0.1327 -0.2300
  896MOL0     C18152   7.883  -0.369  11.256  0.3223  0.1892 -0.2573
  896MOL0     C18153   7.843  -0.392  11.108 -0.0502 -1.2255  0.7435
  896MOL0     C18154   7.739  -0.294  11.064  0.4936  0.6601  0.5855
  896MOL0     C18155   7.796  -0.152  11.046 -1.1238  0.1383  0.6639
  896MOL0     C18156   7.670  -0.076  10.999  0.0665 -0.2160  0.1197
  896MOL0     N18157   7.680   0.068  10.972  0.1942  0.3000 -0.8034
  896MOL0     C18158   7.741   0.132  10.871 -0.3610  0.7248  0.8790
  896MOL0     C18159   7.705   0.259  10.869 -0.6600  0.9460  0.4999
  896MOL0     C18160   7.748   0.366  10.768 -0.2039  0.3907 -0.7879
  896MOL0     C18161   7.785   0.500  10.820  0.7811  0.4140  0.4073
  896MOL0     C18162   7.683   0.611  10.782  0.0995 -0.1474  0.0995
  896MOL0     C18163   7.544   0.571  10.841  0.3039  0.7565  0.5462
  896MOL0     O18164   7.472   0.698  10.860 -0.1824  0.4753 -0.1901
  896MOL0     C18165   7.356   0.688  10.928 -0.0745 -1.1184  0.4050
  896MOL0     C18166   7.324   0.797  11.007 -0.6113  0.0675 -0.7569
  896MOL0     C18167   7.203   0.781  11.081 -0.3384  0.3712  0.4384
  896MOL0     C18168   7.119   0.668  11.064  0.8635 -0.0892  0.8093
  896MOL0     C18169   6.984   0.656  11.133  0.1085  1.1077  0.6380
  896MOL0     O18170   6.925   0.536  11.096  0.1211 -0.4246  0.7380
  896MOL0     C18171   6.801   0.507  11.130  1.2906 -0.7749 -0.8590
  896MOL0     C18172   6.761   0.378  11.077  0.1515 -1.2725 -0.1424
  896MOL0     C18173   6.634   0.326  11.099  0.4228  0.1044  0.8609
  896MOL0     C18174   6.533   0.400  11.167  0.7501  0.7689 -0.3054
  896MOL0     O18175   6.412   0.336  11.171  0.0695  0.0858  0.4257
  896MOL0     C18176   6.313   0.395  11.262  0.2058 -0.3788 -0.9601
  896MOL0     C18177   6.241   0.516  11.217 -0.4113  0.5113 -0.0245
  896MOL0     C18178   6.106   0.494  11.147  0.3475  0.5682  0.0710
  896MOL0     C18179   6.047   0.615  11.098  0.2488  0.1749 -0.0980
  896MOL0     C18180   6.130   0.705  11.000  0.6638 -0.0398  0.5134
  896MOL0     C18181   6.198   0.624  10.888  0.2423 -0.4790 -0.2346
  896MOL0     C18182   6.296   0.708  10.807  0.0396  0.2015 -0.2881
  896MOL0     C18183   6.376   0.647  10.699  0.0272 -0.7575 -0.8100
  896MOL0    Cl18184   6.483   0.529  10.789  0.4257  0.0503  0.0579
  896MOL0     C18185   6.574   0.518  11.221  0.4236  0.0366 -0.6529
  896MOL0     C18186   6.703   0.575  11.208 -0.1824  0.4499  0.1721
  896MOL0     O18187   6.937   0.753  11.191  0.3962  0.5193  1.0119
  896MOL0     C18188   7.151   0.571  10.966 -0.1991  0.1642  0.0762
  896MOL0     C18189   7.273   0.580  10.911  1.1094  0.7277  0.2969
  896MOL0     N18190   7.633   0.285  10.984 -0.0837 -0.0925 -0.7113
  896MOL0     N18191   7.625   0.172  11.049  0.0346  0.3810 -0.5165
  896MOL0     C18192   8.312  -0.072  11.265  0.1892  0.6736 -0.1042
  896MOL0     C18193   8.322   0.064  11.285  0.9791  0.0538 -0.4142
  896MOL0     C18194   8.255   0.490  11.417 -0.1883  0.1300 -0.5408
  896MOL0     C18195   8.264   0.612  11.349 -0.6045 -0.0146  0.5264
  896MOL0     C18196   8.241   0.731  11.412 -0.2498  0.1546 -0.4069
  896MOL0     C18197   8.195   0.736  11.547 -0.1562  0.0748  0.6179
  896MOL0     O18198   8.158   0.851  11.606 -0.4358 -0.0683 -1.3840
  896MOL0     C18199   8.244   0.933  11.681 -0.2063  0.8222 -0.0528
  896MOL0     C18200   8.180   1.075  11.689 -0.0227 -0.5621  0.0250
  896MOL0     C18201   8.135   1.136  11.556 -0.2389  0.0583  0.1235
  896MOL0     C18202   8.243   1.229  11.498 -0.1523 -0.1549  0.4552
  896MOL0     C18203   8.340   1.156  11.412 -0.2232  0.0088 -0.1876
  896MOL0     C18204   8.420   1.082  11.356  0.1910 -0.8318 -0.5137
  896MOL0     C18205   8.191   0.627  11.622  0.4184 -0.5688 -0.9340
  896MOL0     C18206   8.216   0.504  11.560  0.2493  0.3963 -0.0707
  896MOL0     H18207   8.323   0.054  11.632  1.3556 -2.4173  0.7320
  896MOL0     H18208   8.317  -0.190  11.584 -3.3817 -0.9200 -1.8144
  896MOL0     H18209   8.253  -0.338  11.161 -0.2915 -0.6015 -1.2783
  896MOL0     H18210   8.113  -0.252  11.233  2.6344  0.7831 -0.6687
  896MOL0     H18211   8.186  -0.542  11.301  0.4097  0.4343  1.1642
  896MOL0     H18212   8.092  -0.504  11.154 -3.3868  1.8156  0.8426
  896MOL0     H18213   7.994  -0.419  11.423  2.3584 -1.8144  0.4491
  896MOL0     H18214   7.947  -0.564  11.330  1.6770 -0.2239  0.1059
  896MOL0     H18215   7.791  -0.377  11.315  1.0116 -1.3150  0.6725
  896MOL0     H18216   7.914  -0.266  11.277  0.1093  0.0899  0.5772
  896MOL0     H18217   7.803  -0.493  11.097  1.0965 -1.6284  0.1245
  896MOL0     H18218   7.928  -0.375  11.042 -1.2179  1.8802 -0.1344
  896MOL0     H18219   7.653  -0.293  11.132  0.4686  1.9672  0.5710
  896MOL0     H18220   7.696  -0.327  10.968 -1.1372 -3.3419  2.4733
  896MOL0     H18221   7.823  -0.108  11.142 -0.9741  0.7315  0.3492
  896MOL0     H18222   7.873  -0.143  10.969  0.3301 -1.1070  1.9046
  896MOL0     H18223   7.591  -0.089  11.075  1.4617  1.0048  1.8737
  896MOL0     H18224   7.640  -0.125  10.906 -0.6376  1.9410 -0.8441
  896MOL0     H18225   7.819   0.087  10.811  2.3220  1.4288  3.5933
  896MOL0     H18226   7.675   0.360  10.687  1.2572 -2.1046 -2.0553
  896MOL0     H18227   7.833   0.317  10.718 -1.5622 -1.3040 -1.5385
  896MOL0     H18228   7.883   0.528  10.782  0.2965  2.3205  0.4659
  896MOL0     H18229   7.789   0.492  10.929 -1.4041 -2.1440  0.4091
  896MOL0     H18230   7.717   0.693  10.845  0.9034  0.3120 -0.9028
  896MOL0     H18231   7.689   0.650  10.680 -2.4683  3.7684  1.2505
  896MOL0     H18232   7.560   0.537  10.943 -0.4074  0.0112  0.4254
  896MOL0     H18233   7.497   0.490  10.784 -0.7656  1.3245  0.5848
  896MOL0     H18234   7.388   0.879  11.038 -1.8780  0.6729  0.3638
  896MOL0     H18235   7.177   0.864  11.146 -0.9318  1.9937 -1.7494
  896MOL0     H18236   6.832   0.332  11.009  1.9170  2.9350 -1.5273
  896MOL0     H18237   6.626   0.221  11.071 -1.0763 -0.5885  3.5288
  896MOL0     H18238   6.366   0.415  11.356 -0.0605  0.6425 -1.0172
  896MOL0     H18239   6.239   0.316  11.281  0.1434 -0.0182  0.4410
  896MOL0     H18240   6.303   0.577  11.150 -0.9631  2.3393  1.0358
  896MOL0     H18241   6.244   0.585  11.302  2.2546  0.5278 -0.0556
  896MOL0     H18242   6.037   0.462  11.226  2.1708 -0.4186  1.3390
  896MOL0     H18243   6.099   0.424  11.063 -2.2231  0.6084  0.1611
  896MOL0     H18244   5.948   0.596  11.056  0.3049  0.6386 -0.4444
  896MOL0     H18245   6.023   0.673  11.187  3.5893  0.7492  0.5575
  896MOL0     H18246   6.205   0.755  11.061 -0.0084  2.9559 -0.9387
  896MOL0     H18247   6.066   0.785  10.960  0.0618  0.7628  2.8819
  896MOL0     H18248   6.116   0.583  10.827  0.1957 -1.1170  0.2452
  896MOL0     H18249   6.256   0.544  10.934  1.5282  0.0211 -0.9549
  896MOL0     H18250   6.236   0.790  10.766 -1.5478 -1.0750 -0.5859
  896MOL0     H18251   6.361   0.764  10.876  2.3618 -1.0247 -1.3568
  896MOL0     H18252   6.434   0.716  10.637 -0.4522  2.5103  2.0664
  896MOL0     H18253   6.304   0.593  10.637 -0.6175 -0.0740 -0.6617
  896MOL0     H18254   6.502   0.564  11.288  0.4189 -1.8823  0.7558
  896MOL0     H18255   6.722   0.668  11.262  1.6117 -0.9928  2.1628
  896MOL0     H18256   7.080   0.492  10.943 -1.4776  0.5495  2.3148
  896MOL0     H18257   7.291   0.495  10.845  0.3844  1.0543 -0.3296
  896MOL0     H18258   8.311  -0.115  11.165 -0.0726 -1.8042  0.8762
  896MOL0     H18259   8.322   0.130  11.199  0.1893 -1.7287 -1.8489
  896MOL0     H18260   8.300   0.608  11.247  0.6771  2.4894  0.7898
  896MOL0     H18261   8.266   0.823  11.359  1.1158  0.8212  1.2796
  896MOL0     H18262   8.333   0.941  11.618  1.5794 -1.5523  2.0218
  896MOL0     H18263   8.262   0.895  11.781  0.5767 -1.2343 -0.9235
  896MOL0     H18264   8.085   1.075  11.741 -0.0215  0.2836  0.0504
  896MOL0     H18265   8.241   1.143  11.750  0.0933 -0.2307 -0.4477
  896MOL0     H18266   8.041   1.189  11.575  0.8043  1.7539  0.7162
  896MOL0     H18267   8.099   1.056  11.490  0.5526 -0.0099 -0.2337
  896MOL0     H18268   8.192   1.295  11.426  0.7443 -1.2750 -1.2703
  896MOL0     H18269   8.277   1.304  11.569 -1.0420  1.2893 -0.5894
  896MOL0     H18270   8.488   1.017  11.305 -0.6427 -2.9077  0.8849
  896MOL0     H18271   8.170   0.624  11.728 -1.3474 -1.1317 -1.2603
  896MOL0     H18272   8.202   0.408  11.607 -1.6385  0.5542 -0.2484
  897MOL0     O18273   7.480   0.836   9.877  0.5912 -1.4964 -0.8479
  897MOL0     C18274   7.477   0.769   9.772  0.6471 -0.1377  1.1022
  897MOL0     O18275   7.581   0.704   9.719  0.0324 -0.3176 -0.1346
  897MOL0     C18276   7.701   0.687   9.792  0.1396 -0.4239 -0.6320
  897MOL0     C18277   7.695   0.637   9.933  0.1753 -1.0852 -0.5169
  897MOL0     C18278   7.814   0.614  10.006 -0.4442 -0.3237 -0.1374
  897MOL0     C18279   7.939   0.623   9.933  0.9078 -0.7866  0.5854
  897MOL0     O18280   8.060   0.609   9.988  0.7225  0.0284 -0.1047
  897MOL0     C18281   8.077   0.565  10.126 -0.0092 -0.1853 -0.3344
  897MOL0     C18282   8.049   0.418  10.144  0.0776  0.9528 -0.3583
  897MOL0     C18283   8.182   0.332  10.146 -0.5173 -0.3559 -0.2225
  897MOL0     C18284   8.143   0.182  10.127  0.3810  0.3865 -0.2032
  897MOL0     C18285   8.268   0.099  10.156 -0.4995 -0.2482  0.2157
  897MOL0     C18286   8.388   0.119  10.057  0.0424 -0.0821  0.0169
  897MOL0     C18287   8.371   0.062   9.911  0.4374  0.9795  0.5365
  897MOL0     C18288   8.378  -0.093   9.917  0.1005  0.1462 -0.0081
  897MOL0     N18289   8.511  -0.151   9.892 -0.1261  0.5073  0.6751
  897MOL0     C18290   8.559  -0.181   9.767  0.7476 -0.5750 -0.1701
  897MOL0     C18291   8.673  -0.257   9.793 -0.5087  0.3098  0.3693
  897MOL0     C18292   8.771  -0.295   9.689  0.4855 -0.1993 -0.7977
  897MOL0     C18293   8.828  -0.168   9.626  0.1806 -0.7017 -0.2333
  897MOL0     C18294   8.955  -0.186   9.559  0.8876 -0.3397 -0.2665
  897MOL0     C18295   8.971  -0.067   9.461 -0.2933  0.8058  0.4568
  897MOL0     O18296   8.966   0.072   9.516  0.0475  0.5527 -0.1546
  897MOL0     C18297   8.992   0.164   9.417 -0.4829  0.5822 -0.1193
  897MOL0     C18298   9.001   0.298   9.452  0.8833  0.0070 -0.4779
  897MOL0     C18299   9.027   0.389   9.354  0.4835 -0.7506  0.2023
  897MOL0     C18300   9.047   0.370   9.222 -0.5351  0.8501  0.5717
  897MOL0     C18301   9.085   0.480   9.125  0.5357 -0.1348 -0.7588
  897MOL0     O18302   9.111   0.597   9.179  0.2666  0.4951  0.5227
  897MOL0     C18303   9.150   0.699   9.099  0.0372  1.0412 -0.5233
  897MOL0     C18304   9.076   0.745   8.984  0.7089 -0.1516 -0.1434
  897MOL0     C18305   9.117   0.851   8.912  0.8078  0.2300  0.3486
  897MOL0     C18306   9.231   0.928   8.949 -0.1578 -0.5168  0.1485
  897MOL0     O18307   9.257   1.039   8.869  0.3607  0.2691  0.6588
  897MOL0     C18308   9.383   1.106   8.879  0.7308 -0.2967 -0.1648
  897MOL0     C18309   9.392   1.227   8.782  0.1626 -0.1738  0.7093
  897MOL0     C18310   9.298   1.342   8.827 -0.5811  1.0871 -0.7366
  897MOL0     C18311   9.284   1.451   8.721  0.1296 -0.0708 -0.9485
  897MOL0     C18312   9.145   1.515   8.742  0.5343  0.6181 -0.3192
  897MOL0     C18313   9.149   1.662   8.700 -0.4372  0.1930 -0.0354
  897MOL0     C18314   9.027   1.711   8.636 -0.3424 -0.5262 -1.3516
  897MOL0     C18315   9.056   1.853   8.589 -0.4718  0.9198  0.3509
  897MOL0    Cl18316   9.109   1.969   8.710  0.2862 -0.5734 -0.1893
  897MOL0     C18317   9.300   0.894   9.066  0.7961 -0.3917  0.1971
  897MOL0     C18318   9.263   0.777   9.140  0.0926  0.3034  0.4714
  897MOL0     O18319   9.068   0.452   9.006  0.4430 -0.4137  1.0833
  897MOL0     C18320   9.038   0.234   9.183  0.3788  0.8416  0.3965
  897MOL0     C18321   9.003   0.139   9.280  0.3670  1.0944  0.3549
  897MOL0     N18322   8.691  -0.271   9.930  0.2320  0.0421  0.5477
  897MOL0     N18323   8.596  -0.199   9.988  0.2987  0.2102 -0.1650
  897MOL0     C18324   7.949   0.664   9.797  1.1832 -1.1128 -0.4703
  897MOL0     C18325   7.827   0.697   9.738  0.3258 -0.4628  0.3457
  897MOL0     C18326   7.359   0.769   9.686  0.0536 -0.4292  1.0887
  897MOL0     C18327   7.344   0.689   9.576  0.2133 -0.1578 -0.0051
  897MOL0     C18328   7.227   0.709   9.497 -0.2593  0.1817 -1.0551
  897MOL0     C18329   7.147   0.815   9.516  0.7394 -0.0863 -0.0399
  897MOL0     O18330   7.070   0.843   9.409  0.2294  1.2307 -0.2817
  897MOL0     C18331   6.937   0.846   9.441  0.4924  0.1899 -0.0598
  897MOL0     C18332   6.842   0.874   9.318  0.1596  0.3995  0.4694
  897MOL0     C18333   6.855   0.806   9.174  0.0636  0.4776 -0.3512
  897MOL0     C18334   6.741   0.833   9.083 -0.6326  1.2250  0.7603
  897MOL0     C18335   6.621   0.783   9.149  0.3088 -0.4174  0.4429
  897MOL0     C18336   6.520   0.748   9.194  0.6050  0.8260  0.8492
  897MOL0     C18337   7.155   0.898   9.626 -0.6299 -0.1791 -0.2819
  897MOL0     C18338   7.264   0.875   9.706  0.3134 -0.3674  0.9201
  897MOL0     H18339   7.592   0.625   9.965 -0.6085  1.5712 -1.7918
  897MOL0     H18340   7.810   0.598  10.113 -0.7057 -1.2608 -0.2750
  897MOL0     H18341   8.003   0.625  10.180 -0.4201 -2.5894  1.9570
  897MOL0     H18342   8.182   0.573  10.157 -0.2247  2.1124  0.0034
  897MOL0     H18343   7.984   0.384  10.063  1.8095  0.7044 -1.7132
  897MOL0     H18344   8.009   0.403  10.245  3.8634 -1.0659  1.0390
  897MOL0     H18345   8.224   0.346  10.246  0.6857 -0.5487 -0.6945
  897MOL0     H18346   8.246   0.367  10.065  0.1585  3.1603  1.6441
  897MOL0     H18347   8.058   0.155  10.191  0.8222  1.2616  0.7903
  897MOL0     H18348   8.115   0.180  10.022 -2.4423  2.2741  0.4028
  897MOL0     H18349   8.235  -0.003  10.135 -0.2462  0.1687 -2.5598
  897MOL0     H18350   8.312   0.124  10.253 -2.0740 -1.4423  1.2923
  897MOL0     H18351   8.475   0.069  10.099  0.8244  0.8360 -0.4762
  897MOL0     H18352   8.426   0.221  10.061 -1.0391  0.2865  2.3133
  897MOL0     H18353   8.272   0.091   9.875 -0.4904 -2.0250  0.4253
  897MOL0     H18354   8.450   0.104   9.848 -0.1455  0.1914 -0.7606
  897MOL0     H18355   8.308  -0.139   9.846  1.2792  1.2329 -1.9312
  897MOL0     H18356   8.342  -0.126  10.015 -0.6751  0.3126 -0.2315
  897MOL0     H18357   8.537  -0.146   9.666  1.0409  1.5218  0.4488
  897MOL0     H18358   8.728  -0.363   9.615  0.2092 -2.6453  1.4675
  897MOL0     H18359   8.857  -0.348   9.732 -1.9673 -3.6147  0.2925
  897MOL0     H18360   8.846  -0.083   9.693 -1.1867  0.4149 -1.2244
  897MOL0     H18361   8.754  -0.124   9.559  3.7809  2.5421 -2.4695
  897MOL0     H18362   9.037  -0.182   9.631 -0.8411  2.3273  1.7769
  897MOL0     H18363   8.952  -0.277   9.499  1.2330  1.9755 -4.1783
  897MOL0     H18364   8.897  -0.074   9.381  1.2383  0.1667 -0.9719
  897MOL0     H18365   9.074  -0.074   9.424  0.4725  1.8444  2.2408
  897MOL0     H18366   8.979   0.337   9.551 -3.6988  1.8931 -1.9941
  897MOL0     H18367   9.025   0.490   9.393  2.2694  0.8865 -3.3909
  897MOL0     H18368   8.990   0.684   8.956  2.2146 -2.4801  0.0196
  897MOL0     H18369   9.060   0.871   8.822  0.7400 -0.6617  0.1865
  897MOL0     H18370   9.455   1.034   8.838  0.7157 -0.3184 -0.1502
  897MOL0     H18371   9.391   1.124   8.987 -1.5612  0.1086 -0.0109
  897MOL0     H18372   9.370   1.194   8.680  2.6819  0.9702 -0.2839
  897MOL0     H18373   9.487   1.282   8.788 -0.5055  1.0252  0.6788
  897MOL0     H18374   9.333   1.388   8.920  0.2913 -1.9225  0.5350
  897MOL0     H18375   9.204   1.289   8.845  0.3967 -0.2170  0.8460
  897MOL0     H18376   9.365   1.522   8.741 -0.0855  0.3800 -1.6535
  897MOL0     H18377   9.287   1.423   8.615  0.5415 -3.2301 -0.2200
  897MOL0     H18378   9.114   1.506   8.847 -0.1958  1.8169 -0.4151
  897MOL0     H18379   9.072   1.456   8.685  0.1501  0.4960  0.2899
  897MOL0     H18380   9.232   1.668   8.630 -0.1974 -1.6672  0.0496
  897MOL0     H18381   9.164   1.729   8.785 -3.1836  2.5935 -1.2577
  897MOL0     H18382   8.988   1.638   8.565 -2.1456 -2.9175  1.8283
  897MOL0     H18383   8.947   1.705   8.711  1.5907  1.9216  1.1567
  897MOL0     H18384   8.960   1.895   8.559 -0.7409 -0.1314 -0.3501
  897MOL0     H18385   9.135   1.858   8.514  0.0720  3.0560  1.0286
  897MOL0     H18386   9.389   0.951   9.092  1.0790 -0.4099 -0.6823
  897MOL0     H18387   9.303   0.755   9.239 -1.6832  2.0503  1.6613
  897MOL0     H18388   9.056   0.194   9.083 -1.3492 -2.9374  1.4016
  897MOL0     H18389   9.002   0.040   9.237 -1.7996 -0.3199  3.3105
  897MOL0     H18390   8.046   0.667   9.749  1.5336  1.3777  0.2493
  897MOL0     H18391   7.833   0.737   9.638 -0.9920 -0.3789  0.2823
  897MOL0     H18392   7.404   0.600   9.560  1.1546 -0.5319  4.2480
  897MOL0     H18393   7.204   0.632   9.424  1.8358 -2.7009  1.0845
  897MOL0     H18394   6.919   0.915   9.523  0.6903 -0.6456  0.7028
  897MOL0     H18395   6.924   0.740   9.467 -0.2899  0.6220  1.4219
  897MOL0     H18396   6.743   0.878   9.363 -0.6428  3.1966 -1.2859
  897MOL0     H18397   6.858   0.979   9.291 -2.1030  1.3933  2.5617
  897MOL0     H18398   6.862   0.700   9.200  2.0869  1.4823  4.3935
  897MOL0     H18399   6.945   0.841   9.124  0.0942  0.3542 -0.3836
  897MOL0     H18400   6.727   0.939   9.059 -1.8669  1.3550  1.9336
  897MOL0     H18401   6.749   0.779   8.989  1.0138 -0.8554  2.0020
  897MOL0     H18402   6.419   0.729   9.225 -1.6392 -0.8316 -5.6836
  897MOL0     H18403   7.089   0.984   9.632 -0.8737 -0.4495  1.1717
  897MOL0     H18404   7.280   0.946   9.787 -1.7080  0.4527  0.6692
  898MOL0     O18405  10.504   8.717  11.218  0.5591 -0.5173  0.4894
  898MOL0     C18406  10.424   8.663  11.147 -0.0686  0.2477 -0.0520
  898MOL0     O18407  10.424   8.656  11.011  0.9150 -0.1140  1.3789
  898MOL0     C18408  10.529   8.689  10.928  0.5890  0.2120 -0.5500
  898MOL0     C18409  10.641   8.750  10.964  0.2906 -0.4853 -0.1634
  898MOL0     C18410  10.742   8.774  10.872 -0.4484 -0.5781  0.2020
  898MOL0     C18411  10.722   8.742  10.738  1.1740  0.1670  1.2770
  898MOL0     O18412  10.812   8.761  10.636 -0.7895 -0.4750  0.3721
  898MOL0     C18413  10.914   8.865  10.663  0.8473  0.5053  0.1754
  898MOL0     C18414  11.037   8.785  10.688 -0.0116 -0.2406  1.2100
  898MOL0     C18415  11.165   8.869  10.694 -0.0494 -0.1543 -0.3767
  898MOL0     C18416  11.210   8.902  10.543 -0.4003  1.6395 -0.5469
  898MOL0     C18417  11.350   8.969  10.554  1.2571 -0.1055  0.4221
  898MOL0     C18418  11.389   9.015  10.407  0.3207  0.3018  0.1227
  898MOL0     C18419  11.515   9.100  10.407  0.2517  0.3515 -0.2748
  898MOL0     C18420  11.555   9.139  10.261 -1.1740 -0.5383 -0.2771
  898MOL0     N18421  11.593   9.281  10.256  0.0993 -0.4430  0.0512
  898MOL0     C18422  11.512   9.389  10.211 -0.3771  0.3274 -0.6965
  898MOL0     C18423  11.582   9.497  10.254  0.4574 -0.4376 -0.0854
  898MOL0     C18424  11.531   9.643  10.250  0.7906 -0.4815  0.9765
  898MOL0     C18425  11.404   9.664  10.330  0.1387  0.6452  0.5342
  898MOL0     C18426  11.429   9.653  10.478 -0.1261  0.1412 -0.7888
  898MOL0     C18427  11.295   9.633  10.549 -0.4762  0.5915  0.5415
  898MOL0     O18428  11.233   9.508  10.506 -0.2839 -0.2958  0.4415
  898MOL0     C18429  11.181   9.440  10.616 -0.3928  0.5637  0.8846
  898MOL0     C18430  11.242   9.322  10.658 -0.1616  0.8870 -0.0601
  898MOL0     C18431  11.202   9.251  10.779 -0.6582 -0.4714 -0.5742
  898MOL0     C18432  11.087   9.297  10.848 -0.1879  0.2438  0.1969
  898MOL0     C18433  11.045   9.231  10.975 -0.1927 -0.8268 -0.1412
  898MOL0     O18434  11.134   9.135  11.022 -0.0758  0.0345  0.7748
  898MOL0     C18435  11.105   9.032  11.112  0.0738  0.3709  0.4067
  898MOL0     C18436  11.199   8.930  11.129 -0.9350  0.1927  0.7570
  898MOL0     C18437  11.177   8.818  11.208  2.4126  0.6439 -0.0957
  898MOL0     C18438  11.054   8.810  11.289  0.1976 -0.1252 -0.8508
  898MOL0     O18439  11.040   8.696  11.363 -0.4200  0.5884 -0.3703
  898MOL0     C18440  10.950   8.715  11.469  0.8705 -0.7178 -0.4209
  898MOL0     C18441  10.951   8.601  11.561  0.9156 -0.6096  0.6397
  898MOL0     C18442  10.933   8.472  11.472 -0.5366 -0.5054 -0.5411
  898MOL0     C18443  10.885   8.357  11.563  0.5072 -0.3003 -0.1994
  898MOL0     C18444  10.946   8.234  11.506 -0.1976  0.5505  0.9999
  898MOL0     C18445  10.907   8.098  11.590  0.3436  0.1627  0.5181
  898MOL0     C18446  11.017   7.992  11.580 -0.4405 -0.3291  0.2388
  898MOL0     C18447  11.030   7.921  11.442 -0.0632 -0.7894 -0.7096
  898MOL0    Cl18448  11.113   7.772  11.455 -0.0048 -0.4863  0.1460
  898MOL0     C18449  10.961   8.919  11.281  0.1688  0.4370  0.6744
  898MOL0     C18450  10.986   9.030  11.199 -0.2245 -0.1117  0.9824
  898MOL0     O18451  10.934   9.256  11.017 -0.3076 -0.2101 -0.4344
  898MOL0     C18452  11.018   9.406  10.799 -0.3450  1.5059  0.0401
  898MOL0     C18453  11.072   9.477  10.690  0.0062 -0.0772  0.0441
  898MOL0     N18454  11.695   9.451  10.327 -0.4208  0.3149  0.5261
  898MOL0     N18455  11.709   9.321  10.311 -0.2974  0.0260  0.4412
  898MOL0     C18456  10.605   8.673  10.697 -0.6590 -0.0447 -1.2183
  898MOL0     C18457  10.507   8.647  10.792 -0.4295  0.0180 -0.8835
  898MOL0     C18458  10.323   8.578  11.208  0.9914  0.6973  0.0111
  898MOL0     C18459  10.215   8.527  11.140  0.3607  0.4687  0.2503
  898MOL0     C18460  10.115   8.447  11.206 -0.7158  0.3583  0.8894
  898MOL0     C18461  10.127   8.418  11.343 -0.9058  0.1612  0.5749
  898MOL0     O18462  10.031   8.356  11.414  0.1007 -0.6059  0.1551
  898MOL0     C18463  10.044   8.203  11.419  0.3782 -1.0125  0.0100
  898MOL0     C18464   9.996   8.128  11.294 -0.8832  0.1031  0.2148
  898MOL0     C18465   9.861   8.188  11.249 -0.0220  1.1050 -0.4405
  898MOL0     C18466   9.807   8.118  11.137 -0.6103 -0.2861  0.1428
  898MOL0     C18467   9.795   7.974  11.157  0.2928  0.1482 -0.4180
  898MOL0     C18468   9.812   7.857  11.176  0.2450 -0.1644  0.2913
  898MOL0     C18469  10.238   8.472  11.410  0.0261  0.4399 -0.2367
  898MOL0     C18470  10.342   8.544  11.346  0.3048 -0.6252 -0.4858
  898MOL0     H18471  10.662   8.782  11.065  1.5000 -1.2934 -0.1361
  898MOL0     H18472  10.830   8.829  10.903  0.4350  0.3014 -3.4388
  898MOL0     H18473  10.890   8.929  10.749  0.3180 -0.2779  0.6160
  898MOL0     H18474  10.928   8.930  10.576  1.3489  0.3295  0.1256
  898MOL0     H18475  11.058   8.711  10.611  1.8912  1.0519  0.3950
  898MOL0     H18476  11.037   8.741  10.788 -3.8124  0.0947  1.4931
  898MOL0     H18477  11.241   8.807  10.743  2.1802  1.6076 -1.4398
  898MOL0     H18478  11.148   8.957  10.757  0.9443 -1.4644  1.8541
  898MOL0     H18479  11.216   8.804  10.495  1.1185  2.0250 -1.1855
  898MOL0     H18480  11.136   8.962  10.489 -1.4384 -0.9578 -2.2692
  898MOL0     H18481  11.417   8.897  10.602 -0.4802 -1.8479  0.3737
  898MOL0     H18482  11.347   9.059  10.615 -3.5661  0.2838 -0.0539
  898MOL0     H18483  11.314   9.072  10.351 -2.2403 -1.9858  1.0086
  898MOL0     H18484  11.412   8.925  10.349  2.7268 -0.3584  1.9316
  898MOL0     H18485  11.496   9.190  10.466 -1.2519  1.8435 -2.8806
  898MOL0     H18486  11.601   9.044  10.444  0.5016  1.6369  1.2027
  898MOL0     H18487  11.476   9.134  10.185 -1.0588  0.0901 -0.4496
  898MOL0     H18488  11.637   9.080  10.221  2.0908  1.7475  2.4855
  898MOL0     H18489  11.413   9.369  10.171 -0.7066  1.0854 -0.2783
  898MOL0     H18490  11.521   9.667  10.143  1.1202 -3.8245  0.0845
  898MOL0     H18491  11.614   9.704  10.286  2.7942 -3.3976  1.6632
  898MOL0     H18492  11.332   9.589  10.297  2.7645 -0.9441 -2.1281
  898MOL0     H18493  11.356   9.759  10.306 -1.3299 -0.5510 -1.6025
  898MOL0     H18494  11.496   9.570  10.503 -2.7994 -2.1052 -0.6705
  898MOL0     H18495  11.477   9.746  10.510 -0.3049 -0.4664  1.4919
  898MOL0     H18496  11.224   9.706  10.511 -1.7605 -2.7076 -4.2966
  898MOL0     H18497  11.307   9.650  10.656  2.4398 -0.0496  0.4031
  898MOL0     H18498  11.316   9.282  10.589  2.7845  1.6312  2.4479
  898MOL0     H18499  11.268   9.170  10.808  3.6597  2.1831 -1.9674
  898MOL0     H18500  11.279   8.939  11.057 -0.6746 -1.4879  0.7827
  898MOL0     H18501  11.233   8.725  11.219 -0.3182 -1.1878 -0.4091
  898MOL0     H18502  10.846   8.727  11.435  0.8463 -0.4731 -0.2616
  898MOL0     H18503  10.971   8.805  11.528 -4.4781  0.2579  0.5070
  898MOL0     H18504  10.876   8.603  11.640  0.3243 -0.8235  0.0869
  898MOL0     H18505  11.054   8.611  11.597  1.8195  0.7929 -2.0611
  898MOL0     H18506  11.032   8.450  11.431  1.3210  2.1327  2.0441
  898MOL0     H18507  10.865   8.481  11.387 -1.0010  1.5879 -0.0018
  898MOL0     H18508  10.939   8.366  11.658  2.8266  2.6669 -1.6172
  898MOL0     H18509  10.778   8.340  11.575  0.1027  0.6940 -2.0388
  898MOL0     H18510  11.055   8.244  11.506 -0.1946  0.7148 -0.6338
  898MOL0     H18511  10.925   8.226  11.399  0.4636  4.4067  0.4436
  898MOL0     H18512  10.809   8.067  11.550 -0.1051  1.8609  0.2129
  898MOL0     H18513  10.887   8.125  11.694 -1.2956  0.2059  0.2327
  898MOL0     H18514  11.110   8.042  11.605 -2.5925  5.5457 -1.9420
  898MOL0     H18515  11.013   7.906  11.649  4.4547 -0.1007  1.1801
  898MOL0     H18516  11.079   7.983  11.367  3.0538 -5.4380 -3.0210
  898MOL0     H18517  10.925   7.900  11.416 -1.5198  3.4463  0.9949
  898MOL0     H18518  10.867   8.920  11.335  1.1344  1.4651  2.4340
  898MOL0     H18519  10.907   9.104  11.201 -0.3860 -0.0117 -2.6550
  898MOL0     H18520  10.923   9.433  10.843 -0.7193 -1.7615  1.5225
  898MOL0     H18521  11.024   9.569  10.658  2.4307  0.8304 -1.2715
  898MOL0     H18522  10.600   8.641  10.593 -0.6558 -2.1671 -0.5952
  898MOL0     H18523  10.415   8.599  10.759 -0.5493  0.3171 -0.9864
  898MOL0     H18524  10.199   8.561  11.039 -1.9627 -0.5673  0.2019
  898MOL0     H18525  10.023   8.430  11.151 -0.5380  1.5946  0.1717
  898MOL0     H18526   9.993   8.172  11.510 -0.0906 -0.2723  0.0063
  898MOL0     H18527  10.150   8.185  11.440  0.6347  1.3840  1.1647
  898MOL0     H18528  10.076   8.136  11.219 -2.4536  3.2317 -1.3214
  898MOL0     H18529   9.999   8.024  11.328  1.1363  0.4860  1.3978
  898MOL0     H18530   9.879   8.292  11.220  2.0727  0.7538 -0.5879
  898MOL0     H18531   9.783   8.177  11.324 -1.6150 -2.6588 -2.3740
  898MOL0     H18532   9.718   8.168  11.097  1.7686  3.4740 -0.9641
  898MOL0     H18533   9.881   8.135  11.059 -1.1081  2.6416  0.1927
  898MOL0     H18534   9.825   7.755  11.203 -1.7414 -0.0291  2.0175
  898MOL0     H18535  10.238   8.456  11.518 -0.4763 -0.8005 -0.3997
  898MOL0     H18536  10.433   8.568  11.399 -0.5050 -2.3385  1.8427
  899MOL0     O18537   7.694   0.225   0.661 -0.3644  0.9307  0.0227
  899MOL0     C18538   7.647   0.204   0.548  0.5717  0.0019  0.0051
  899MOL0     O18539   7.723   0.182   0.427 -0.6747  0.1597 -0.2615
  899MOL0     C18540   7.864   0.167   0.450  0.4534  0.9433 -0.8911
  899MOL0     C18541   7.937   0.283   0.474  0.4658  0.7879 -0.5057
  899MOL0     C18542   8.078   0.281   0.485  0.2130 -0.2160  0.5580
  899MOL0     C18543   8.140   0.157   0.477 -0.9077 -0.7207 -0.5142
  899MOL0     O18544   8.274   0.129   0.490  0.2855 -0.1578 -0.1373
  899MOL0     C18545   8.343   0.225   0.568 -0.9312 -0.5370 -0.8901
  899MOL0     C18546   8.423   0.318   0.480  1.1063  0.4568 -0.3711
  899MOL0     C18547   8.523   0.250   0.384 -0.3722  0.4134 -0.1948
  899MOL0     C18548   8.621   0.346   0.306 -0.8108 -0.4997  0.9918
  899MOL0     C18549   8.566   0.492   0.275 -0.2278 -0.1180 -0.1370
  899MOL0     C18550   8.670   0.597   0.197  0.0295  1.0992 -0.0137
  899MOL0     C18551   8.746   0.528   0.076 -0.0198  0.0911  0.6051
  899MOL0     C18552   8.676   0.554  -0.059  0.1951  0.1060  0.0656
  899MOL0     N18553   8.740   0.658  -0.142  0.1115  0.0093 -0.4622
  899MOL0     C18554   8.839   0.647  -0.229  0.5939  0.1125 -0.3643
  899MOL0     C18555   8.904   0.770  -0.224 -0.1297  0.1212  0.4638
  899MOL0     C18556   9.035   0.807  -0.293 -0.3284 -0.0501 -0.7217
  899MOL0     C18557   9.035   0.821  -0.450 -0.2661 -0.2081 -0.4977
  899MOL0     C18558   9.135   0.913  -0.495 -0.1265  0.6880  0.6205
  899MOL0     C18559   9.096   0.980  -0.632 -0.8801 -0.6380 -0.6908
  899MOL0     O18560   9.207   0.998  -0.724  0.0277 -0.7800 -0.3627
  899MOL0     C18561   9.171   1.055  -0.847 -0.2553 -0.3804 -0.5513
  899MOL0     C18562   9.058   1.028  -0.919 -0.1033  0.2981 -0.2816
  899MOL0     C18563   9.031   1.092  -1.038 -0.3244  0.1516 -0.2042
  899MOL0     C18564   9.121   1.176  -1.099 -0.0626 -0.2142  0.4863
  899MOL0     C18565   9.075   1.260  -1.216 -0.7664  0.0514  0.4847
  899MOL0     O18566   8.962   1.217  -1.279  0.0140 -1.3947  0.3140
  899MOL0     C18567   8.946   1.266  -1.404  0.1270  0.7366 -0.3788
  899MOL0     C18568   9.011   1.207  -1.514 -0.2007 -0.7620  0.4941
  899MOL0     C18569   8.976   1.250  -1.645 -0.6446 -0.1404  0.2693
  899MOL0     C18570   8.873   1.343  -1.659 -0.3744 -0.2539 -0.6001
  899MOL0     O18571   8.843   1.366  -1.785  0.5713  0.1127 -0.3933
  899MOL0     C18572   8.853   1.505  -1.818  0.0914 -0.6018  0.4922
  899MOL0     C18573   8.758   1.536  -1.935 -0.1032 -0.0915 -0.1060
  899MOL0     C18574   8.751   1.681  -1.986 -0.0375 -0.3477  0.5742
  899MOL0     C18575   8.621   1.701  -2.080 -0.7932  0.4470  0.2555
  899MOL0     C18576   8.652   1.699  -2.234  1.0972  0.3231 -0.0028
  899MOL0     C18577   8.767   1.800  -2.265 -0.0325  0.3186  0.1750
  899MOL0     C18578   8.780   1.832  -2.418 -0.7964  0.0539  0.2485
  899MOL0     C18579   8.845   1.968  -2.449 -0.1363  0.2516  0.6040
  899MOL0    Cl18580   9.003   1.970  -2.364 -0.1002 -0.2710 -0.2589
  899MOL0     C18581   8.806   1.405  -1.550  0.3214  0.2778 -0.9734
  899MOL0     C18582   8.844   1.362  -1.414  0.2276 -0.7529 -0.3046
  899MOL0     O18583   9.151   1.347  -1.250 -0.6156  0.3217  0.0307
  899MOL0     C18584   9.235   1.197  -1.028  0.0000 -0.5693  0.4664
  899MOL0     C18585   9.263   1.130  -0.911  0.2368 -0.3712  0.2256
  899MOL0     N18586   8.841   0.855  -0.132  0.2598 -0.9578  0.9153
  899MOL0     N18587   8.745   0.787  -0.081  0.3261  0.5358 -0.1369
  899MOL0     C18588   8.070   0.043   0.448  0.3009  0.1284 -0.4978
  899MOL0     C18589   7.932   0.041   0.442  0.4675 -0.2602 -0.0259
  899MOL0     C18590   7.502   0.225   0.527 -0.3931  0.6625 -0.4893
  899MOL0     C18591   7.434   0.222   0.399  0.3026 -0.1394  0.4281
  899MOL0     C18592   7.295   0.228   0.394 -0.3991  0.4652  0.7548
  899MOL0     C18593   7.218   0.238   0.508 -0.1849 -0.9250  0.5636
  899MOL0     O18594   7.084   0.253   0.489  0.3056 -0.3292  0.1959
  899MOL0     C18595   6.995   0.185   0.571  0.0997 -0.7360  0.5214
  899MOL0     C18596   6.996   0.032   0.544 -0.3575 -0.5640 -0.1843
  899MOL0     C18597   6.892  -0.054   0.629 -0.3137  0.4023  0.5514
  899MOL0     C18598   6.745  -0.031   0.612  0.0645  0.2349  0.5230
  899MOL0     C18599   6.670  -0.137   0.688 -0.5853  0.2506  0.5187
  899MOL0     C18600   6.628  -0.236   0.747 -1.0836 -0.1767 -0.2101
  899MOL0     C18601   7.282   0.228   0.631  0.2836  0.0747  0.0314
  899MOL0     C18602   7.424   0.232   0.649  0.4262 -0.1023  0.3928
  899MOL0     H18603   7.892   0.382   0.477 -0.8058  0.2138  0.8535
  899MOL0     H18604   8.143   0.367   0.489  0.2056 -0.1639 -0.1965
  899MOL0     H18605   8.408   0.153   0.618 -2.6110 -0.4458  1.5677
  899MOL0     H18606   8.281   0.271   0.646 -0.2588 -2.2203  0.7055
  899MOL0     H18607   8.485   0.382   0.544  1.1272 -0.8525  0.9472
  899MOL0     H18608   8.367   0.388   0.417  3.6784  1.3070 -1.8601
  899MOL0     H18609   8.465   0.185   0.319 -0.7071 -1.1722  1.5896
  899MOL0     H18610   8.591   0.194   0.449 -0.7300  2.2919  1.9289
  899MOL0     H18611   8.715   0.356   0.360 -1.4557 -0.8777  2.2221
  899MOL0     H18612   8.652   0.298   0.212  0.2393  1.2268  0.4074
  899MOL0     H18613   8.552   0.535   0.375  1.3412  0.6536 -0.2229
  899MOL0     H18614   8.469   0.492   0.226  0.1315 -2.4007 -0.9854
  899MOL0     H18615   8.749   0.636   0.262  2.0291 -2.2642 -0.1932
  899MOL0     H18616   8.613   0.686   0.169  0.1385  1.6535  1.4156
  899MOL0     H18617   8.850   0.561   0.071  0.7445 -1.9799  1.5489
  899MOL0     H18618   8.751   0.419   0.081 -1.6159 -0.3943 -3.8774
  899MOL0     H18619   8.575   0.592  -0.043  0.8071  2.3171 -0.8858
  899MOL0     H18620   8.662   0.456  -0.105  1.0774  0.6263 -1.3798
  899MOL0     H18621   8.874   0.553  -0.272 -2.0101 -1.8292  1.4104
  899MOL0     H18622   9.101   0.727  -0.260 -3.1496 -1.3739  2.3073
  899MOL0     H18623   9.063   0.900  -0.243 -1.2503 -1.1621  2.0284
  899MOL0     H18624   8.932   0.848  -0.472 -0.2782  0.6410  0.5173
  899MOL0     H18625   9.043   0.724  -0.501  0.9212  0.7137 -2.1500
  899MOL0     H18626   9.150   0.995  -0.424  2.4721  1.8469 -1.1061
  899MOL0     H18627   9.234   0.867  -0.503  0.5322  2.2813 -0.9784
  899MOL0     H18628   9.050   1.076  -0.608 -0.1087 -0.8012  1.7383
  899MOL0     H18629   9.017   0.918  -0.675  1.3738 -1.6465 -3.7689
  899MOL0     H18630   8.971   0.973  -0.886 -0.4606  1.0564  0.0683
  899MOL0     H18631   8.931   1.081  -1.078 -0.3607 -2.4005  0.3602
  899MOL0     H18632   9.080   1.123  -1.519  1.0903  0.3298 -1.5038
  899MOL0     H18633   9.035   1.201  -1.722 -1.0212 -2.6086  1.4205
  899MOL0     H18634   8.952   1.528  -1.860  0.2224 -0.3993  0.9049
  899MOL0     H18635   8.836   1.583  -1.743 -3.4719 -0.4875 -0.2755
  899MOL0     H18636   8.661   1.496  -1.905 -0.4348  0.1328 -0.8625
  899MOL0     H18637   8.794   1.469  -2.014  0.4410  0.1547 -0.0730
  899MOL0     H18638   8.847   1.714  -2.028 -0.4218  2.4930  1.7083
  899MOL0     H18639   8.731   1.742  -1.898 -1.2481  0.2940 -0.1353
  899MOL0     H18640   8.542   1.631  -2.052  0.3610 -0.8733  0.3198
  899MOL0     H18641   8.574   1.797  -2.057 -0.1629  0.5580  1.1219
  899MOL0     H18642   8.570   1.733  -2.298  0.6918 -2.1863 -0.9253
  899MOL0     H18643   8.671   1.600  -2.276  0.4475  0.8373 -1.5916
  899MOL0     H18644   8.863   1.766  -2.226 -0.5268  1.6074  2.6992
  899MOL0     H18645   8.755   1.900  -2.222  0.2927  0.8727 -0.9635
  899MOL0     H18646   8.834   1.747  -2.460  1.0307  0.7166  1.1683
  899MOL0     H18647   8.687   1.844  -2.475  1.0614  3.3144 -2.5076
  899MOL0     H18648   8.791   2.051  -2.403  1.4174  1.5983  0.0581
  899MOL0     H18649   8.854   1.984  -2.556 -0.1452  0.4511  0.6331
  899MOL0     H18650   8.721   1.468  -1.576  0.6864  0.9738 -0.5154
  899MOL0     H18651   8.794   1.409  -1.330  1.0079  2.8577 -1.6856
  899MOL0     H18652   9.319   1.250  -1.072  0.0813 -2.5218 -1.9638
  899MOL0     H18653   9.353   1.138  -0.850 -0.0503 -2.3788  0.9949
  899MOL0     H18654   8.128  -0.049   0.455 -0.0416  0.0064  4.1747
  899MOL0     H18655   7.876  -0.051   0.426  0.9407 -0.0767 -3.7763
  899MOL0     H18656   7.494   0.211   0.309 -0.5234 -0.6181 -0.0711
  899MOL0     H18657   7.230   0.221   0.307 -1.2617 -0.8707  1.4780
  899MOL0     H18658   6.895   0.224   0.552 -0.7351 -3.0252 -0.1796
  899MOL0     H18659   7.003   0.199   0.679  0.9233  2.2913  0.1567
  899MOL0     H18660   6.975   0.014   0.438  1.5004  1.2438 -0.9284
  899MOL0     H18661   7.097  -0.007   0.563 -1.5357 -3.5994  0.3883
  899MOL0     H18662   6.919  -0.045   0.734 -1.6772  0.1975  0.9452
  899MOL0     H18663   6.900  -0.157   0.594  0.3089 -0.5542  3.2980
  899MOL0     H18664   6.709   0.065   0.650  1.1325 -0.1314  2.5724
  899MOL0     H18665   6.707  -0.047   0.510  0.8164  1.2628  0.0713
  899MOL0     H18666   6.593  -0.314   0.811 -1.3480 -1.1510 -1.5000
  899MOL0     H18667   7.215   0.219   0.716 -2.0325  1.8742 -1.4853
  899MOL0     H18668   7.456   0.229   0.753 -1.8681  0.7274  1.1758
  900MOL0     O18669   7.039   4.245   8.779 -0.2804 -0.5003 -0.0651
  900MOL0     C18670   7.018   4.196   8.672  1.2641  0.2814  0.1392
  900MOL0     O18671   6.888   4.188   8.627  0.1490  0.0418 -0.5104
  900MOL0     C18672   6.784   4.258   8.683 -0.0622  0.2438  0.5240
  900MOL0     C18673   6.686   4.190   8.745 -0.1719  1.1932  0.9318
  900MOL0     C18674   6.573   4.252   8.808 -0.1156  0.6235  0.7787
  900MOL0     C18675   6.564   4.393   8.812 -0.0456 -0.4340  0.7408
  900MOL0     O18676   6.476   4.482   8.878 -0.1278  0.2746  0.3855
  900MOL0     C18677   6.345   4.425   8.916 -0.2621 -0.8184 -0.3190
  900MOL0     C18678   6.335   4.354   9.050  0.2876 -0.2858 -0.6123
  900MOL0     C18679   6.367   4.448   9.166 -0.3027  0.2995 -0.5199
  900MOL0     C18680   6.343   4.383   9.306 -0.1813  0.5664  0.5883
  900MOL0     C18681   6.440   4.263   9.322  0.5652  0.2899 -0.6655
  900MOL0     C18682   6.430   4.207   9.464  0.2342 -0.0868  0.4963
  900MOL0     C18683   6.534   4.095   9.474 -0.0382  0.3995 -1.0684
  900MOL0     C18684   6.517   4.021   9.611 -0.2416 -0.0547  0.2063
  900MOL0     N18685   6.394   3.946   9.633 -0.8515 -0.0580 -0.0710
  900MOL0     C18686   6.321   3.959   9.747  0.2746 -0.5881 -0.4834
  900MOL0     C18687   6.221   3.869   9.733 -0.0126 -0.0314 -0.1771
  900MOL0     C18688   6.123   3.838   9.838 -0.5679  0.1888  0.1622
  900MOL0     C18689   5.999   3.916   9.810 -0.0579  0.4959  0.0369
  900MOL0     C18690   5.936   3.904   9.667 -0.5203 -0.5137  0.9652
  900MOL0     C18691   5.785   3.936   9.674 -0.5559  0.6305  0.3004
  900MOL0     O18692   5.756   4.057   9.745 -0.5523  0.2062  0.0528
  900MOL0     C18693   5.629   4.104   9.727 -0.6339 -0.0951  0.1449
  900MOL0     C18694   5.513   4.037   9.764  0.9765  0.0497  0.4205
  900MOL0     C18695   5.382   4.092   9.745  0.8448  1.1536  1.4061
  900MOL0     C18696   5.374   4.209   9.665 -0.7651 -0.3496  0.1262
  900MOL0     C18697   5.242   4.272   9.652 -0.0885 -1.2283  0.3897
  900MOL0     O18698   5.123   4.201   9.703 -0.3434 -0.0963  0.0279
  900MOL0     C18699   5.000   4.259   9.679  0.9641 -0.3001 -0.7165
  900MOL0     C18700   4.918   4.300   9.785  0.6292  0.0394 -0.2780
  900MOL0     C18701   4.793   4.350   9.760  0.5940 -0.3001  0.0696
  900MOL0     C18702   4.740   4.345   9.629 -0.1206  0.5052  0.5525
  900MOL0     O18703   4.616   4.399   9.605 -0.5199  0.5047  1.2142
  900MOL0     C18704   4.519   4.380   9.705  0.5940  0.0510  0.1864
  900MOL0     C18705   4.389   4.438   9.664 -0.7322 -1.6758  0.6081
  900MOL0     C18706   4.336   4.366   9.538 -1.3902  0.3306 -0.0802
  900MOL0     C18707   4.208   4.445   9.485  0.0902  0.4584 -0.5528
  900MOL0     C18708   4.121   4.352   9.407 -0.0412 -0.0620  0.3095
  900MOL0     C18709   3.979   4.408   9.373 -0.5157 -0.9411 -0.0124
  900MOL0     C18710   3.885   4.300   9.317 -0.6473 -0.4528  1.0581
  900MOL0     C18711   3.926   4.265   9.175  0.5103  0.5256 -0.0111
  900MOL0    Cl18712   3.902   4.403   9.066 -0.0061  0.3718 -0.6022
  900MOL0     C18713   4.815   4.296   9.525 -0.4264  0.5798 -0.1354
  900MOL0     C18714   4.948   4.240   9.553  0.7700  0.7533 -0.0225
  900MOL0     O18715   5.234   4.378   9.598 -0.6158  0.2273 -0.2536
  900MOL0     C18716   5.492   4.284   9.631 -0.5230 -0.0256  0.3417
  900MOL0     C18717   5.616   4.225   9.658  0.4845  0.5516  0.2713
  900MOL0     N18718   6.217   3.816   9.601 -0.6315  0.4611 -0.6144
  900MOL0     N18719   6.323   3.878   9.541 -0.8544  0.2461 -0.3221
  900MOL0     C18720   6.666   4.455   8.733  0.1552 -1.3387 -0.7921
  900MOL0     C18721   6.768   4.390   8.674 -0.5677 -0.0113 -0.5323
  900MOL0     C18722   7.119   4.125   8.587 -0.0307 -0.2749  0.5766
  900MOL0     C18723   7.237   4.088   8.643  0.9733  0.0334 -0.0797
  900MOL0     C18724   7.337   4.020   8.568  0.2533  0.0232  0.0540
  900MOL0     C18725   7.325   3.991   8.437 -0.3443 -0.6981 -0.4801
  900MOL0     O18726   7.421   3.935   8.355 -0.7330  0.5368  0.5564
  900MOL0     C18727   7.450   3.791   8.358  1.2039 -0.1843  0.5114
  900MOL0     C18728   7.344   3.719   8.289  0.5280 -0.3817 -0.1438
  900MOL0     C18729   7.331   3.778   8.138  0.9525  0.0874  0.1156
  900MOL0     C18730   7.423   3.690   8.048 -0.0439 -0.1274  0.4227
  900MOL0     C18731   7.419   3.741   7.910 -0.6075  0.4318  0.2722
  900MOL0     C18732   7.395   3.791   7.806  0.0208 -0.3299  0.0608
  900MOL0     C18733   7.202   4.020   8.382  0.5536  0.8958 -0.4043
  900MOL0     C18734   7.095   4.081   8.452 -0.0612 -0.2257  1.2499
  900MOL0     H18735   6.696   4.082   8.738  1.6108  1.2169  2.2917
  900MOL0     H18736   6.501   4.191   8.861  0.1382 -3.2214 -2.8187
  900MOL0     H18737   6.314   4.373   8.825  0.7280  0.9438 -1.7358
  900MOL0     H18738   6.281   4.514   8.918  1.2863  0.5704 -4.1104
  900MOL0     H18739   6.397   4.264   9.040 -1.5197 -1.5854 -0.5115
  900MOL0     H18740   6.236   4.314   9.072  1.4808 -1.8812  2.6730
  900MOL0     H18741   6.302   4.534   9.144 -2.9167 -1.6985 -1.1695
  900MOL0     H18742   6.468   4.487   9.153  0.7843 -2.0557  0.3608
  900MOL0     H18743   6.370   4.457   9.381  2.4837 -0.6686  0.9659
  900MOL0     H18744   6.242   4.340   9.313 -0.6801  0.8203 -3.0005
  900MOL0     H18745   6.544   4.283   9.295  0.8609 -2.8428 -2.3409
  900MOL0     H18746   6.402   4.191   9.249  0.6002  1.0400 -1.4457
  900MOL0     H18747   6.329   4.166   9.467 -0.0656  0.4713 -1.2015
  900MOL0     H18748   6.447   4.295   9.527 -2.4020  0.6189  0.3331
  900MOL0     H18749   6.531   4.037   9.381  2.1617 -3.9573  1.2824
  900MOL0     H18750   6.633   4.142   9.475  0.4071 -0.5243 -0.9844
  900MOL0     H18751   6.521   4.088   9.697 -0.2420  0.4256 -0.1599
  900MOL0     H18752   6.602   3.952   9.619 -0.2556 -0.1631 -0.4916
  900MOL0     H18753   6.328   4.021   9.837  1.1815  0.3435 -1.1678
  900MOL0     H18754   6.174   3.855   9.933  0.3366 -3.3472  0.4259
  900MOL0     H18755   6.094   3.733   9.833 -3.9662  1.0500 -2.4727
  900MOL0     H18756   6.020   4.021   9.834 -4.1478  1.2817  1.0296
  900MOL0     H18757   5.937   3.881   9.893  1.6623 -1.6037  0.5178
  900MOL0     H18758   5.976   3.986   9.607 -1.4975  0.2907  1.3720
  900MOL0     H18759   5.949   3.811   9.611 -0.3703 -1.7602  2.9847
  900MOL0     H18760   5.738   3.844   9.710 -0.1688 -0.2815 -1.4295
  900MOL0     H18761   5.744   3.948   9.573  0.5656 -2.0396 -0.5685
  900MOL0     H18762   5.541   3.952   9.825 -0.7927  0.9647  2.6489
  900MOL0     H18763   5.295   4.033   9.773 -1.1959  3.9618  1.3754
  900MOL0     H18764   4.949   4.284   9.888 -2.0001  1.0859  0.7554
  900MOL0     H18765   4.733   4.392   9.840  0.3356  2.9719 -1.6794
  900MOL0     H18766   4.558   4.431   9.794  2.8034 -1.1068 -0.0309
  900MOL0     H18767   4.515   4.274   9.733 -0.8180 -0.3077 -1.2247
  900MOL0     H18768   4.414   4.544   9.651 -0.6075 -1.7197  0.4955
  900MOL0     H18769   4.314   4.418   9.742 -1.4040  1.1365  0.8274
  900MOL0     H18770   4.321   4.259   9.556 -1.4987  0.3689  0.0523
  900MOL0     H18771   4.411   4.381   9.459  0.2225 -3.3609  0.4983
  900MOL0     H18772   4.155   4.504   9.560 -0.5515 -0.6937 -0.0832
  900MOL0     H18773   4.254   4.521   9.420  1.2174  1.5771  1.4656
  900MOL0     H18774   4.119   4.254   9.455  2.1189 -0.2120  0.1896
  900MOL0     H18775   4.180   4.355   9.315  1.3392  1.0393  1.1786
  900MOL0     H18776   3.997   4.497   9.313 -0.1763  0.0398  1.4750
  900MOL0     H18777   3.927   4.456   9.457  2.3300  0.8953  0.8462
  900MOL0     H18778   3.896   4.212   9.381 -0.5335  1.8531  4.4706
  900MOL0     H18779   3.780   4.330   9.312 -0.1541  1.0918 -1.5200
  900MOL0     H18780   3.876   4.177   9.133  0.8963 -0.7128  1.9676
  900MOL0     H18781   4.027   4.224   9.183  0.9713  1.7264  0.5618
  900MOL0     H18782   4.777   4.268   9.428  1.1534 -4.4263  0.4285
  900MOL0     H18783   5.006   4.182   9.482  2.7712  1.6216  0.8374
  900MOL0     H18784   5.477   4.385   9.594  3.3476  0.2668 -0.8179
  900MOL0     H18785   5.707   4.271   9.622 -0.1943 -0.0596 -2.4298
  900MOL0     H18786   6.665   4.562   8.720 -0.4967 -1.2620 -0.1814
  900MOL0     H18787   6.854   4.441   8.630  0.1490  0.3845  1.2509
  900MOL0     H18788   7.252   4.099   8.750 -0.3499 -0.1293  0.1437
  900MOL0     H18789   7.430   4.006   8.624 -0.0604  1.1612  0.9030
  900MOL0     H18790   7.448   3.771   8.466  3.1033  0.1233  0.6237
  900MOL0     H18791   7.545   3.759   8.316  0.7032  1.5433 -2.1433
  900MOL0     H18792   7.355   3.610   8.299 -1.4688 -0.9355 -2.7195
  900MOL0     H18793   7.246   3.734   8.336  1.3766  0.0710  1.5401
  900MOL0     H18794   7.357   3.884   8.132 -1.4824  1.1443  4.2401
  900MOL0     H18795   7.229   3.763   8.102  1.1914 -1.8960  0.1236
  900MOL0     H18796   7.528   3.681   8.080  0.5982 -2.0374 -1.8857
  900MOL0     H18797   7.382   3.589   8.047  0.1081 -0.2386  2.1606
  900MOL0     H18798   7.375   3.849   7.718 -1.2375  0.4678  0.8253
  900MOL0     H18799   7.196   4.008   8.275  1.7464  2.1161 -0.6279
  900MOL0     H18800   7.008   4.109   8.394  1.6162  1.7637 -0.4489
  901MOL0     O18801   5.765   2.515   7.582 -0.4619 -0.1047 -0.2062
  901MOL0     C18802   5.705   2.495   7.683  0.6197 -0.2091 -0.8084
  901MOL0     O18803   5.745   2.532   7.805 -0.0492 -0.1797 -0.2328
  901MOL0     C18804   5.867   2.595   7.808  0.4421 -0.2380 -0.2434
  901MOL0     C18805   5.982   2.512   7.831 -0.5020 -0.1642 -0.1683
  901MOL0     C18806   6.109   2.576   7.859 -0.2815  0.6274  0.5036
  901MOL0     C18807   6.123   2.719   7.856  0.8092  0.4838 -0.7635
  901MOL0     O18808   6.231   2.796   7.891  0.2221  0.2367  0.2448
  901MOL0     C18809   6.361   2.736   7.865 -0.4159 -0.2599 -0.8794
  901MOL0     C18810   6.459   2.851   7.853 -0.3137 -0.2198  0.9526
  901MOL0     C18811   6.490   2.910   7.989 -0.1705 -0.7337  0.6296
  901MOL0     C18812   6.569   3.036   7.979 -0.5969 -1.4318  0.0449
  901MOL0     C18813   6.488   3.151   7.903 -1.2700  1.0981 -0.4057
  901MOL0     C18814   6.343   3.171   7.950  0.7680 -0.0891 -0.0001
  901MOL0     C18815   6.279   3.301   7.908 -0.4265 -0.4719  0.6894
  901MOL0     C18816   6.133   3.307   7.939  0.6769  0.4929  0.7315
  901MOL0     N18817   6.080   3.441   7.915 -0.0027 -0.8879  0.6872
  901MOL0     C18818   5.949   3.482   7.944 -0.6751  0.8130  1.0886
  901MOL0     C18819   5.945   3.616   7.925 -0.9556 -0.9204 -0.0881
  901MOL0     C18820   5.834   3.701   7.951 -0.1341  0.2899 -0.7370
  901MOL0     C18821   5.791   3.785   7.833  0.2379 -0.1594  0.9814
  901MOL0     C18822   5.749   3.688   7.722  0.8523  0.2319 -0.0503
  901MOL0     C18823   5.664   3.753   7.615  0.8543  0.2193  0.6150
  901MOL0     O18824   5.729   3.865   7.553  0.1646 -0.1085 -0.1541
  901MOL0     C18825   5.834   3.839   7.464  0.4257 -0.3875 -0.4569
  901MOL0     C18826   5.852   3.726   7.384 -0.4101 -0.3515  0.5196
  901MOL0     C18827   5.969   3.721   7.304  0.6602 -0.6086 -0.7502
  901MOL0     C18828   6.051   3.834   7.287 -0.1139 -0.4259  0.1065
  901MOL0     C18829   6.170   3.825   7.207 -0.5413 -0.1830  0.0064
  901MOL0     O18830   6.257   3.937   7.217 -0.4987  0.0610 -0.1398
  901MOL0     C18831   6.368   3.939   7.131  0.8483  0.1242 -0.0807
  901MOL0     C18832   6.484   3.959   7.202  0.2580  0.9447  0.1432
  901MOL0     C18833   6.605   3.976   7.125 -0.1008 -0.2922 -0.6586
  901MOL0     C18834   6.605   3.958   6.984  0.4174  0.1809 -0.1845
  901MOL0     O18835   6.730   3.968   6.924  0.3356 -0.9655  0.1312
  901MOL0     C18836   6.750   3.880   6.817  0.5360  0.1169 -0.4033
  901MOL0     C18837   6.887   3.899   6.751 -1.0744  1.2190 -0.1119
  901MOL0     C18838   6.898   3.985   6.619  0.7642  0.2937  0.4840
  901MOL0     C18839   6.877   4.132   6.650 -0.4100  0.2428  0.9867
  901MOL0     C18840   6.915   4.230   6.526  0.6474  0.2599  0.1606
  901MOL0     C18841   6.915   4.383   6.569  0.4379  0.2605  0.4526
  901MOL0     C18842   6.948   4.479   6.453  0.1956 -0.3492  0.3661
  901MOL0     C18843   6.847   4.469   6.341  0.8122  0.5205  0.1506
  901MOL0    Cl18844   6.861   4.608   6.242 -0.2698 -0.0385  0.6257
  901MOL0     C18845   6.485   3.942   6.914  0.3638  0.5565 -0.6059
  901MOL0     C18846   6.366   3.933   6.991  0.3259 -0.0573  0.8033
  901MOL0     O18847   6.183   3.726   7.132  0.7734 -0.1858 -0.4037
  901MOL0     C18848   6.018   3.952   7.351 -0.1161  0.4073 -0.0891
  901MOL0     C18849   5.912   3.953   7.438  0.5007 -0.0195  1.1249
  901MOL0     N18850   6.079   3.655   7.897  0.0057  0.8022  0.3812
  901MOL0     N18851   6.158   3.553   7.898  0.0342  0.4954  0.0099
  901MOL0     C18852   6.003   2.795   7.825 -1.4494 -0.3154  1.9184
  901MOL0     C18853   5.877   2.733   7.796 -1.7169 -0.3217  0.6485
  901MOL0     C18854   5.587   2.424   7.688 -0.0090 -0.2783  0.1696
  901MOL0     C18855   5.520   2.357   7.801 -1.0154 -0.6663 -0.6371
  901MOL0     C18856   5.395   2.290   7.789 -0.4054 -0.3636 -0.1735
  901MOL0     C18857   5.326   2.288   7.663  0.2417  0.3495  0.6776
  901MOL0     O18858   5.209   2.215   7.641 -0.0050  0.0611 -0.2597
  901MOL0     C18859   5.104   2.274   7.555  0.9754  0.1948  0.0958
  901MOL0     C18860   4.967   2.208   7.585  0.0136  0.3222  0.2261
  901MOL0     C18861   4.957   2.077   7.506 -0.9997 -0.0444  0.2492
  901MOL0     C18862   4.824   2.007   7.529 -1.1522 -0.1985 -0.7771
  901MOL0     C18863   4.817   1.976   7.677 -0.1220 -0.1580 -0.2441
  901MOL0     C18864   4.803   1.951   7.796  0.1684 -0.0856  0.7237
  901MOL0     C18865   5.386   2.358   7.552 -0.2076 -0.3766  0.2445
  901MOL0     C18866   5.505   2.426   7.572 -0.5007 -0.2412 -0.5007
  901MOL0     H18867   5.985   2.403   7.839  2.5272 -0.0316  2.5450
  901MOL0     H18868   6.199   2.519   7.878 -0.8240 -1.3010 -2.1599
  901MOL0     H18869   6.368   2.673   7.775  0.5295 -1.1072 -0.2353
  901MOL0     H18870   6.398   2.667   7.941 -2.3960  1.0481  1.4159
  901MOL0     H18871   6.417   2.926   7.785 -2.6469 -1.7442  0.5991
  901MOL0     H18872   6.548   2.812   7.804 -0.4171  2.0017 -1.2013
  901MOL0     H18873   6.548   2.842   8.053  0.4644 -0.7183  0.0902
  901MOL0     H18874   6.394   2.923   8.039 -1.1978 -4.0636 -0.2393
  901MOL0     H18875   6.601   3.079   8.075 -0.6344  1.7932 -1.2385
  901MOL0     H18876   6.673   3.030   7.947 -0.9489 -0.2570 -1.4402
  901MOL0     H18877   6.496   3.140   7.794 -0.1313  3.4078 -0.6078
  901MOL0     H18878   6.546   3.244   7.910 -0.8305  0.7540  0.6186
  901MOL0     H18879   6.341   3.170   8.060  4.7715 -3.0370  0.2973
  901MOL0     H18880   6.286   3.084   7.920  0.5032 -0.4907  1.5673
  901MOL0     H18881   6.339   3.382   7.951 -0.6592 -0.3064  0.7049
  901MOL0     H18882   6.288   3.301   7.800 -0.2347 -2.9988  0.6422
  901MOL0     H18883   6.112   3.274   8.041 -3.5402 -0.3105 -0.2042
  901MOL0     H18884   6.084   3.229   7.880 -1.1572  1.0860  1.3880
  901MOL0     H18885   5.867   3.420   7.975  1.1561 -1.9102  0.8270
  901MOL0     H18886   5.878   3.764   8.029 -0.2648 -1.9768  1.2634
  901MOL0     H18887   5.757   3.635   7.991  3.1373 -1.8221  2.7499
  901MOL0     H18888   5.879   3.843   7.801  0.0697 -0.5494 -0.2241
  901MOL0     H18889   5.709   3.853   7.859 -0.7039 -0.8946  0.0289
  901MOL0     H18890   5.840   3.658   7.669  1.5729  2.6999 -0.3166
  901MOL0     H18891   5.712   3.596   7.768  1.5222  1.0018  2.2008
  901MOL0     H18892   5.580   3.796   7.671  0.3683  0.1850 -0.0703
  901MOL0     H18893   5.622   3.680   7.545 -1.0928 -1.0495  2.9493
  901MOL0     H18894   5.779   3.645   7.378  2.1559 -2.8309  0.8273
  901MOL0     H18895   5.987   3.636   7.239 -1.9653 -0.7176 -1.4578
  901MOL0     H18896   6.488   3.959   7.311 -1.7044 -2.1796  0.3230
  901MOL0     H18897   6.703   3.992   7.168 -1.1100  1.2681  1.2421
  901MOL0     H18898   6.675   3.906   6.740 -1.4441  0.6542  1.5927
  901MOL0     H18899   6.730   3.779   6.852 -1.0941  0.1975 -0.9659
  901MOL0     H18900   6.919   3.798   6.722 -1.5543  0.5714  1.5168
  901MOL0     H18901   6.957   3.944   6.822 -2.7254 -0.7348  3.0155
  901MOL0     H18902   6.828   3.944   6.546  2.4037 -1.9569  0.0889
  901MOL0     H18903   6.994   3.965   6.570 -1.0987 -1.6167 -2.7158
  901MOL0     H18904   6.781   4.156   6.697  1.1367  2.7768  3.1729
  901MOL0     H18905   6.956   4.153   6.723  1.5439 -1.5073 -0.5071
  901MOL0     H18906   6.844   4.211   6.444  1.6303  2.7992 -1.3849
  901MOL0     H18907   7.012   4.205   6.482 -0.1266 -2.8719 -0.0059
  901MOL0     H18908   6.991   4.382   6.647 -1.4217 -0.3633  2.3483
  901MOL0     H18909   6.828   4.416   6.626  1.8353  3.3461  0.9844
  901MOL0     H18910   6.939   4.579   6.496 -0.4901  1.1166 -2.8607
  901MOL0     H18911   7.047   4.468   6.408  0.2981  2.8425 -0.4368
  901MOL0     H18912   6.746   4.461   6.382 -0.5783 -0.3653 -3.1817
  901MOL0     H18913   6.876   4.378   6.289  2.0196  0.6058  0.6277
  901MOL0     H18914   6.484   3.925   6.807 -0.7344 -2.1772 -0.2351
  901MOL0     H18915   6.266   3.925   6.950  1.0706  0.6378 -1.3434
  901MOL0     H18916   6.080   4.040   7.340 -0.9919  1.4951  2.8783
  901MOL0     H18917   5.885   4.040   7.497 -0.1987  0.1335  0.5940
  901MOL0     H18918   6.013   2.902   7.838  0.9145 -0.4123  1.4048
  901MOL0     H18919   5.794   2.803   7.794 -3.9857 -2.8314  1.0326
  901MOL0     H18920   5.575   2.371   7.894 -0.0464  1.2308 -1.4336
  901MOL0     H18921   5.353   2.234   7.871  2.3858  0.1518  1.7072
  901MOL0     H18922   5.127   2.284   7.448 -0.9395  2.4702 -0.1964
  901MOL0     H18923   5.088   2.374   7.597  1.4723  1.8104 -3.1987
  901MOL0     H18924   4.955   2.189   7.692  1.0443  2.5665  0.7914
  901MOL0     H18925   4.888   2.277   7.554  1.4124  3.4118  2.9654
  901MOL0     H18926   5.043   2.014   7.531 -1.3783 -0.0556  1.6128
  901MOL0     H18927   4.957   2.099   7.399  2.5385  3.9399  0.8113
  901MOL0     H18928   4.738   2.064   7.494 -0.1444 -0.1640 -3.4329
  901MOL0     H18929   4.825   1.912   7.474 -0.3694 -2.7162  3.1141
  901MOL0     H18930   4.793   1.934   7.901  0.1473  1.1751  0.9420
  901MOL0     H18931   5.349   2.343   7.451  3.4647 -0.6080 -1.2316
  901MOL0     H18932   5.533   2.493   7.491  0.2225  0.1582  0.0646
  902MOL0     O18933  10.999   8.208   8.066 -0.2042 -0.1610  0.6379
  902MOL0     C18934  10.971   8.280   8.165 -0.6407  0.2123  0.1590
  902MOL0     O18935  10.843   8.317   8.211 -0.3457 -0.5276  0.1501
  902MOL0     C18936  10.746   8.262   8.130 -0.4009  0.0135  0.0250
  902MOL0     C18937  10.725   8.313   7.997 -0.5010  1.1594  0.2202
  902MOL0     C18938  10.617   8.261   7.921 -0.1937 -0.8950 -0.4402
  902MOL0     C18939  10.532   8.162   7.980 -0.5566  0.3828 -0.0396
  902MOL0     O18940  10.428   8.118   7.912  0.2291  0.0329  0.3214
  902MOL0     C18941  10.366   7.994   7.957  0.8740  0.2594 -0.0025
  902MOL0     C18942  10.248   7.959   7.867  0.8116  0.7226  0.3520
  902MOL0     C18943  10.284   7.919   7.725 -0.3724  0.3016 -0.0413
  902MOL0     C18944  10.160   7.938   7.639  0.8537 -0.3114  0.2419
  902MOL0     C18945  10.169   7.889   7.494 -0.0046 -0.0334  0.1477
  902MOL0     C18946  10.251   7.975   7.392 -0.4015  0.5148 -0.1483
  902MOL0     C18947  10.289   7.886   7.270 -0.4960  0.0671  0.4712
  902MOL0     C18948  10.375   7.948   7.161 -0.5913 -0.3861  0.1945
  902MOL0     N18949  10.518   7.901   7.156 -0.3719  0.0226 -1.0681
  902MOL0     C18950  10.600   7.916   7.268  0.0981 -0.7083 -0.0466
  902MOL0     C18951  10.721   7.881   7.223 -0.2265  0.4389 -0.5060
  902MOL0     C18952  10.845   7.882   7.305 -0.2431 -0.1977 -0.9219
  902MOL0     C18953  10.876   7.744   7.378  0.4808 -0.5392 -0.5166
  902MOL0     C18954  10.899   7.616   7.295  0.4693  0.0371  0.1073
  902MOL0     C18955  11.003   7.634   7.187  1.4512  0.2162 -0.4367
  902MOL0     O18956  11.122   7.661   7.253  0.4677  0.1874  0.5379
  902MOL0     C18957  11.238   7.661   7.182 -0.2500 -0.2436 -0.3973
  902MOL0     C18958  11.254   7.626   7.045  0.0553 -0.3628  0.3020
  902MOL0     C18959  11.369   7.629   6.974  0.2470  0.2722 -0.4413
  902MOL0     C18960  11.483   7.700   7.038  0.4410  0.6633 -0.3646
  902MOL0     C18961  11.620   7.719   6.977  0.3879  0.1113 -1.0693
  902MOL0     O18962  11.724   7.791   7.048  0.0057  0.0959  0.0529
  902MOL0     C18963  11.851   7.778   6.996 -0.5314  0.0043  0.5763
  902MOL0     C18964  11.906   7.663   6.935 -0.2321 -0.9816  0.2569
  902MOL0     C18965  12.037   7.653   6.886 -0.4598 -0.4474 -0.4917
  902MOL0     C18966  12.122   7.758   6.910 -0.6079 -0.0616  0.7690
  902MOL0     O18967  12.245   7.744   6.880 -0.2172 -0.8056  0.4295
  902MOL0     C18968  12.279   7.809   6.759 -0.3399  0.0447 -0.7145
  902MOL0     C18969  12.413   7.760   6.699 -0.3308  0.0918 -0.1138
  902MOL0     C18970  12.543   7.774   6.784 -0.8800  0.4166  0.5833
  902MOL0     C18971  12.666   7.742   6.689  1.3791  0.1460 -0.7642
  902MOL0     C18972  12.794   7.736   6.772  0.4290 -0.5708  0.4557
  902MOL0     C18973  12.805   7.583   6.827 -0.3136 -0.7034  0.8912
  902MOL0     C18974  12.948   7.558   6.886  0.2686 -0.4173 -0.6689
  902MOL0     C18975  12.934   7.467   7.008 -0.2878 -0.1058  0.2453
  902MOL0    Cl18976  12.803   7.340   6.987  0.3981 -0.1003 -0.0144
  902MOL0     C18977  12.081   7.869   6.988 -0.2942  0.1985  0.2180
  902MOL0     C18978  11.946   7.881   7.024 -0.4818  0.8019 -0.6400
  902MOL0     O18979  11.628   7.679   6.862 -0.1894 -0.0988  0.3121
  902MOL0     C18980  11.467   7.748   7.173  1.2024  0.4796 -0.7347
  902MOL0     C18981  11.350   7.724   7.240 -0.1270 -0.9866 -0.9317
  902MOL0     N18982  10.716   7.841   7.096  0.8549  1.1945  0.3364
  902MOL0     N18983  10.591   7.849   7.056  1.0015  0.0904 -0.2289
  902MOL0     C18984  10.561   8.126   8.121 -0.3810 -0.4672  1.0255
  902MOL0     C18985  10.661   8.179   8.190  0.9732 -0.1187 -0.4439
  902MOL0     C18986  11.088   8.320   8.245  0.8469 -0.6711 -0.2337
  902MOL0     C18987  11.212   8.309   8.186  0.8393  0.2961  0.0774
  902MOL0     C18988  11.325   8.346   8.256 -0.1723 -0.4342 -0.0907
  902MOL0     C18989  11.315   8.408   8.384 -0.6780 -1.3258 -0.7869
  902MOL0     O18990  11.439   8.437   8.434  0.1223 -0.0325 -0.2427
  902MOL0     C18991  11.468   8.453   8.576 -0.6560 -0.4826  0.1909
  902MOL0     C18992  11.579   8.352   8.623 -0.0837 -0.5698 -0.7989
  902MOL0     C18993  11.694   8.339   8.524 -0.3502  0.5063 -0.5361
  902MOL0     C18994  11.763   8.466   8.497  0.1628 -0.4521  0.1410
  902MOL0     C18995  11.893   8.436   8.441  0.7275 -0.0793  0.9446
  902MOL0     C18996  11.995   8.401   8.386 -0.3907 -0.5474 -0.6426
  902MOL0     C18997  11.188   8.425   8.440  0.1072  0.3175 -0.0705
  902MOL0     C18998  11.076   8.377   8.374 -0.8458  0.2842 -0.5367
  902MOL0     H18999  10.796   8.384   7.955 -3.4219  3.5273 -1.0358
  902MOL0     H19000  10.594   8.295   7.820 -1.1009 -2.5120 -0.8231
  902MOL0     H19001  10.321   7.997   8.057  0.6794 -2.6954  0.0910
  902MOL0     H19002  10.440   7.913   7.958  0.5836 -0.0618 -1.8618
  902MOL0     H19003  10.177   8.042   7.865 -0.0950  0.0133 -2.7701
  902MOL0     H19004  10.185   7.877   7.902  0.4802 -0.1490 -2.0925
  902MOL0     H19005  10.316   7.815   7.718  0.2490  0.1721  3.1669
  902MOL0     H19006  10.363   7.983   7.685 -0.8104  1.8730  1.4753
  902MOL0     H19007  10.082   7.869   7.675  1.0068 -3.0190 -3.8812
  902MOL0     H19008  10.121   8.039   7.624  0.7902 -0.5592 -1.4386
  902MOL0     H19009  10.064   7.885   7.462 -0.6237 -2.0988  2.1876
  902MOL0     H19010  10.194   7.783   7.495 -3.2647 -0.9110 -0.3593
  902MOL0     H19011  10.342   8.013   7.439  0.4170  0.6917 -1.8003
  902MOL0     H19012  10.193   8.067   7.377 -2.8532 -0.8335  0.5023
  902MOL0     H19013  10.343   7.803   7.315 -3.0773 -0.4003  3.0951
  902MOL0     H19014  10.197   7.842   7.230 -1.1361 -0.0106  1.9576
  902MOL0     H19015  10.372   8.054   7.184 -0.7942 -0.4483  0.4547
  902MOL0     H19016  10.345   7.925   7.058  1.2881 -0.8853 -0.2925
  902MOL0     H19017  10.576   7.952   7.368 -0.2173  1.4524 -0.8472
  902MOL0     H19018  10.834   7.966   7.373  1.6415 -1.7226  1.4353
  902MOL0     H19019  10.923   7.894   7.229 -0.3006 -1.1396 -1.1454
  902MOL0     H19020  10.797   7.740   7.453  0.5706  3.0479 -0.0892
  902MOL0     H19021  10.962   7.759   7.444  0.6579 -0.2502 -0.8101
  902MOL0     H19022  10.935   7.536   7.360  1.8630 -1.8804 -2.7724
  902MOL0     H19023  10.801   7.581   7.261 -0.6377  2.8821  0.0830
  902MOL0     H19024  10.968   7.690   7.101  0.0830 -2.3710 -1.6985
  902MOL0     H19025  11.003   7.534   7.142 -4.7066 -0.2582 -0.3325
  902MOL0     H19026  11.169   7.576   7.000 -0.5895  0.4088  0.6286
  902MOL0     H19027  11.367   7.590   6.872 -3.4884 -2.4044  0.4530
  902MOL0     H19028  11.853   7.569   6.927 -0.5005 -0.8604  0.5964
  902MOL0     H19029  12.085   7.565   6.843 -0.0174  0.8816 -2.8734
  902MOL0     H19030  12.305   7.913   6.780 -1.0615 -0.1277  1.1651
  902MOL0     H19031  12.206   7.802   6.678 -0.8421 -2.1360 -0.1518
  902MOL0     H19032  12.417   7.816   6.605 -3.0606 -0.7989 -0.8585
  902MOL0     H19033  12.402   7.654   6.671  2.0162  0.2996 -2.2243
  902MOL0     H19034  12.546   7.704   6.868  0.4635  1.2149  1.2270
  902MOL0     H19035  12.554   7.876   6.822  2.1406 -0.2467  1.7161
  902MOL0     H19036  12.637   7.649   6.639  2.3466 -0.0554 -0.9675
  902MOL0     H19037  12.684   7.810   6.606 -0.3371 -0.9314 -2.0900
  902MOL0     H19038  12.803   7.817   6.845 -2.0269 -0.6388  0.9177
  902MOL0     H19039  12.879   7.733   6.703 -0.1481 -0.9031 -0.2510
  902MOL0     H19040  12.787   7.511   6.747  0.6738 -1.8112  1.6285
  902MOL0     H19041  12.736   7.570   6.911 -0.5235  3.7564  1.6651
  902MOL0     H19042  13.019   7.512   6.816  1.2018  0.5603 -0.3864
  902MOL0     H19043  12.982   7.656   6.919 -2.0270 -0.6961  3.1487
  902MOL0     H19044  12.927   7.534   7.095  2.8284  2.3313 -1.1574
  902MOL0     H19045  13.033   7.427   7.034  0.1001  1.5828  1.5470
  902MOL0     H19046  12.158   7.941   7.013  1.8646 -2.3759  1.5084
  902MOL0     H19047  11.918   7.963   7.090  0.8548 -0.0429  1.0682
  902MOL0     H19048  11.544   7.802   7.227  2.2481 -2.6813  1.1435
  902MOL0     H19049  11.340   7.740   7.347  0.1645 -0.3304 -1.0001
  902MOL0     H19050  10.490   8.068   8.178  1.7532 -1.4693  2.8106
  902MOL0     H19051  10.683   8.155   8.293 -0.1784  0.7560  0.0319
  902MOL0     H19052  11.213   8.244   8.099 -0.1858 -0.8284  0.8548
  902MOL0     H19053  11.424   8.320   8.220 -0.4749 -1.0241 -0.5119
  902MOL0     H19054  11.380   8.431   8.638 -0.2331 -0.0638  0.9583
  902MOL0     H19055  11.493   8.558   8.598 -0.5946  0.0081 -2.0507
  902MOL0     H19056  11.618   8.382   8.721  1.6225  1.5839 -2.0511
  902MOL0     H19057  11.526   8.257   8.622 -1.2868  0.0778 -0.7134
  902MOL0     H19058  11.663   8.305   8.425  1.3337 -2.2776 -0.2193
  902MOL0     H19059  11.768   8.266   8.559 -0.0042  1.1291  0.0359
  902MOL0     H19060  11.696   8.525   8.434  1.1412  1.9743  1.2378
  902MOL0     H19061  11.766   8.529   8.586 -0.6125  2.1432 -1.5641
  902MOL0     H19062  12.080   8.379   8.325 -1.2388  0.2014 -2.1655
  902MOL0     H19063  11.174   8.471   8.537 -1.5646  0.2463 -0.2508
  902MOL0     H19064  10.979   8.405   8.415  0.5543  1.7622  2.0594
  903MOL0     O19065   6.434   0.327   9.336  0.4755  0.5279 -0.4948
  903MOL0     C19066   6.437   0.209   9.294  0.9196  0.1477 -1.1792
  903MOL0     O19067   6.530   0.149   9.209 -0.2530  0.1639  0.0526
  903MOL0     C19068   6.637   0.216   9.148  0.0546 -0.2669 -0.5471
  903MOL0     C19069   6.747   0.130   9.122  0.3312 -0.3258 -0.5563
  903MOL0     C19070   6.869   0.184   9.072  0.7082  1.0066 -0.1042
  903MOL0     C19071   6.882   0.321   9.056  0.4219  1.2313  0.3948
  903MOL0     O19072   7.003   0.368   9.015 -0.5181 -0.2828 -0.8848
  903MOL0     C19073   7.020   0.509   8.984  0.4409 -0.6594 -0.0991
  903MOL0     C19074   7.160   0.525   8.927 -0.6051  0.1375 -0.8668
  903MOL0     C19075   7.193   0.675   8.921 -0.6191 -1.2491  0.1867
  903MOL0     C19076   7.084   0.766   8.855  0.2628 -0.9662  0.6590
  903MOL0     C19077   7.142   0.902   8.811 -0.6235 -0.0592 -0.1650
  903MOL0     C19078   7.029   0.988   8.745 -0.6166  0.1046 -0.6836
  903MOL0     C19079   7.084   1.097   8.647  0.2078  0.1517  0.5793
  903MOL0     C19080   7.140   1.046   8.514  0.5098 -0.3066 -0.2548
  903MOL0     N19081   7.051   0.960   8.435  1.0827 -0.1465  0.7214
  903MOL0     C19082   6.927   0.981   8.378  0.7982 -0.7755 -0.4081
  903MOL0     C19083   6.890   0.860   8.326  0.4789 -0.0378  0.1340
  903MOL0     C19084   6.768   0.841   8.238 -0.2607 -0.4457 -0.3542
  903MOL0     C19085   6.675   0.955   8.238 -0.8383  0.4295 -0.1164
  903MOL0     C19086   6.555   0.914   8.158  1.0222 -0.1696  0.0811
  903MOL0     C19087   6.431   1.002   8.193 -0.1406 -0.4007 -0.6482
  903MOL0     O19088   6.312   0.937   8.143  0.3365  0.4094 -0.5261
  903MOL0     C19089   6.206   0.982   8.216 -0.0025  1.5017 -0.4499
  903MOL0     C19090   6.119   0.887   8.271  0.3846 -0.0367 -0.6879
  903MOL0     C19091   6.005   0.923   8.344 -0.8364 -0.2960 -0.2313
  903MOL0     C19092   5.966   1.052   8.345  0.3074  1.1527 -0.0105
  903MOL0     C19093   5.835   1.087   8.411 -0.0397  0.8416  0.9508
  903MOL0     O19094   5.797   1.214   8.419 -0.2809 -0.4532 -0.5614
  903MOL0     C19095   5.672   1.242   8.478  0.0584  0.3287  0.1387
  903MOL0     C19096   5.585   1.330   8.413 -0.4648  1.2338 -1.3066
  903MOL0     C19097   5.478   1.385   8.480 -0.3853 -0.0100 -0.3897
  903MOL0     C19098   5.442   1.343   8.605 -0.3891  0.2704 -0.4007
  903MOL0     O19099   5.352   1.400   8.689  0.1374 -0.2823  0.3110
  903MOL0     C19100   5.226   1.426   8.624  0.3453  1.0742  0.7359
  903MOL0     C19101   5.127   1.509   8.705 -0.3069 -0.1980  0.6165
  903MOL0     C19102   5.030   1.431   8.789  0.6172  0.8007  0.1284
  903MOL0     C19103   4.941   1.537   8.861 -0.9350  0.3301  0.0227
  903MOL0     C19104   4.829   1.480   8.938 -0.0020  0.8078 -0.2440
  903MOL0     C19105   4.697   1.571   8.907 -0.1226  0.3554 -0.0318
  903MOL0     C19106   4.572   1.545   8.999 -0.0284 -0.2859 -0.6422
  903MOL0     C19107   4.603   1.567   9.153  0.4642  0.2514  1.0459
  903MOL0    Cl19108   4.467   1.511   9.253 -0.3859 -0.4913 -0.4858
  903MOL0     C19109   5.527   1.257   8.667  0.5164  0.1962 -0.6011
  903MOL0     C19110   5.644   1.200   8.605  0.1562  0.3733  0.7419
  903MOL0     O19111   5.785   0.988   8.468  0.1729 -0.3111 -0.7010
  903MOL0     C19112   6.056   1.151   8.288 -0.4214 -0.1811  0.4301
  903MOL0     C19113   6.172   1.118   8.229 -0.7686  0.1387  0.0828
  903MOL0     N19114   6.999   0.771   8.351 -0.0703 -0.2201 -0.2275
  903MOL0     N19115   7.084   0.832   8.416 -0.6333  0.0141 -0.0412
  903MOL0     C19116   6.766   0.401   9.070 -0.2137  0.7359  0.4287
  903MOL0     C19117   6.643   0.347   9.115  0.5052 -0.1821 -0.5927
  903MOL0     C19118   6.323   0.125   9.347 -0.5121 -1.0447 -0.0321
  903MOL0     C19119   6.213   0.186   9.412 -0.3012 -0.4308  0.5310
  903MOL0     C19120   6.104   0.107   9.461  0.0011 -0.3836 -0.4609
  903MOL0     C19121   6.101  -0.034   9.452  0.0142  0.4883 -0.8012
  903MOL0     O19122   6.000  -0.111   9.508  0.2368 -0.2799 -0.2069
  903MOL0     C19123   6.005  -0.253   9.500 -0.0670  0.4399  0.4311
  903MOL0     C19124   5.877  -0.334   9.542 -0.6563  1.1121 -0.2466
  903MOL0     C19125   5.756  -0.301   9.452  0.7406  0.5840  0.3009
  903MOL0     C19126   5.767  -0.348   9.305 -0.3009 -0.2991 -0.1732
  903MOL0     C19127   5.775  -0.492   9.287  0.8696  0.5692  0.0777
  903MOL0     C19128   5.772  -0.610   9.263  0.4982  0.2312  1.2981
  903MOL0     C19129   6.216  -0.090   9.392  0.4249  1.1190  0.0180
  903MOL0     C19130   6.318  -0.019   9.331  0.3555 -0.3799 -0.2895
  903MOL0     H19131   6.742   0.023   9.140 -2.4418 -0.5732 -2.1979
  903MOL0     H19132   6.955   0.118   9.074 -1.1303 -1.6264  2.6197
  903MOL0     H19133   7.016   0.570   9.075  2.3553  2.5019 -1.9214
  903MOL0     H19134   6.942   0.544   8.916  0.7262 -2.1106 -1.2149
  903MOL0     H19135   7.154   0.482   8.827 -0.6220 -1.1138 -0.3372
  903MOL0     H19136   7.237   0.473   8.983 -0.6241  0.2147 -0.7684
  903MOL0     H19137   7.293   0.688   8.879 -0.4130 -1.9173  0.4648
  903MOL0     H19138   7.209   0.704   9.025 -1.4667 -0.9627  0.2451
  903MOL0     H19139   7.047   0.719   8.764  0.7801  2.1836 -1.3040
  903MOL0     H19140   7.002   0.791   8.923  0.5732 -1.0520  1.0690
  903MOL0     H19141   7.221   0.892   8.736 -2.9806 -0.0801 -2.8595
  903MOL0     H19142   7.175   0.969   8.891 -2.5615 -0.1042  0.7310
  903MOL0     H19143   6.972   1.033   8.827 -0.8671  1.0636 -1.3706
  903MOL0     H19144   6.958   0.918   8.701 -1.3882  1.5604 -1.8503
  903MOL0     H19145   7.009   1.175   8.630 -0.7749 -1.1061 -1.1844
  903MOL0     H19146   7.163   1.151   8.700  2.7558 -0.6854 -2.1133
  903MOL0     H19147   7.243   1.010   8.526  1.0240  0.9954 -0.6035
  903MOL0     H19148   7.147   1.141   8.460  1.5283 -1.6076 -2.5656
  903MOL0     H19149   6.879   1.078   8.378  1.2792 -0.4899  1.5507
  903MOL0     H19150   6.716   0.755   8.280 -1.0662  0.5419  0.7341
  903MOL0     H19151   6.814   0.814   8.143  2.6100  0.6610  0.6037
  903MOL0     H19152   6.728   1.043   8.200 -1.1024  1.6250  2.1266
  903MOL0     H19153   6.649   0.973   8.343 -2.3603 -1.7874 -0.0417
  903MOL0     H19154   6.561   0.923   8.049 -1.9127  0.3003 -0.1340
  903MOL0     H19155   6.524   0.812   8.181 -0.9535 -1.5060 -6.3662
  903MOL0     H19156   6.437   1.104   8.153  0.6478 -1.1634 -2.6406
  903MOL0     H19157   6.437   1.008   8.302  2.7870 -0.6539 -0.7069
  903MOL0     H19158   6.127   0.779   8.266 -1.5457 -0.4291  2.1007
  903MOL0     H19159   5.951   0.836   8.381 -1.3304  0.0272 -0.1854
  903MOL0     H19160   5.619   1.373   8.320  3.0948 -1.5862 -1.5488
  903MOL0     H19161   5.419   1.465   8.435  2.4220  1.6211 -1.4292
  903MOL0     H19162   5.171   1.333   8.602  0.9433  0.7382  0.6383
  903MOL0     H19163   5.249   1.493   8.541  2.8425  1.6102  1.7597
  903MOL0     H19164   5.076   1.557   8.621  2.5847  0.9483 -0.6212
  903MOL0     H19165   5.182   1.588   8.756 -0.6589  1.5319 -1.5223
  903MOL0     H19166   5.081   1.370   8.864  3.1324  3.7667  1.0468
  903MOL0     H19167   4.971   1.368   8.721  2.5336 -1.6083  0.5562
  903MOL0     H19168   5.008   1.600   8.920  1.7174  0.6055 -2.9879
  903MOL0     H19169   4.900   1.595   8.778  1.1519 -1.5297 -2.4897
  903MOL0     H19170   4.858   1.465   9.042  1.3152 -2.3050 -0.9470
  903MOL0     H19171   4.799   1.381   8.901 -5.9556  1.3113  2.1785
  903MOL0     H19172   4.668   1.559   8.802 -2.3498 -0.0958  0.5796
  903MOL0     H19173   4.716   1.679   8.918  1.0642  0.0240  1.3719
  903MOL0     H19174   4.498   1.621   8.970 -0.5156 -0.6487 -0.3430
  903MOL0     H19175   4.533   1.446   8.976  0.6294  0.0113 -3.3449
  903MOL0     H19176   4.628   1.673   9.166 -1.4635  1.0013 -0.7867
  903MOL0     H19177   4.688   1.508   9.187  2.0527  2.6555  1.5617
  903MOL0     H19178   5.510   1.232   8.772 -0.3178 -2.5057 -1.2859
  903MOL0     H19179   5.700   1.122   8.655 -0.5566 -1.4800 -1.1544
  903MOL0     H19180   6.018   1.253   8.285  3.1689  1.3024  0.7278
  903MOL0     H19181   6.227   1.199   8.182 -3.7859  1.9799 -0.5581
  903MOL0     H19182   6.776   0.509   9.062  0.1943  0.5599 -2.1112
  903MOL0     H19183   6.566   0.419   9.143 -0.2209 -1.1270 -0.0877
  903MOL0     H19184   6.211   0.294   9.414  1.4261 -0.3856  1.5922
  903MOL0     H19185   6.025   0.160   9.514 -1.9318 -0.7271 -2.8040
  903MOL0     H19186   6.094  -0.288   9.554  1.3515 -0.7373 -2.4096
  903MOL0     H19187   6.031  -0.288   9.399 -0.2764 -0.4494  0.6769
  903MOL0     H19188   5.897  -0.440   9.522 -2.5579  0.8237 -0.9299
  903MOL0     H19189   5.853  -0.326   9.648 -2.9759 -3.4916 -0.1792
  903MOL0     H19190   5.740  -0.193   9.462 -3.0066 -0.0350  3.4551
  903MOL0     H19191   5.658  -0.331   9.491  0.4640  3.3371  1.9949
  903MOL0     H19192   5.697  -0.298   9.237 -0.4214  0.1592  0.2826
  903MOL0     H19193   5.851  -0.297   9.257 -0.9270  0.0581 -0.9097
  903MOL0     H19194   5.778  -0.716   9.248 -2.0103  0.2590 -0.5351
  903MOL0     H19195   6.248  -0.194   9.386  1.3323  1.4836 -3.5650
  903MOL0     H19196   6.404  -0.061   9.279  1.4313  0.7368  0.5155
  904MOL0     O19197   0.950   6.973   6.091 -0.1417 -0.2489 -0.3799
  904MOL0     C19198   0.978   7.093   6.116 -0.4067 -0.6454  0.1040
  904MOL0     O19199   1.096   7.158   6.074 -0.6291 -0.1507  0.0533
  904MOL0     C19200   1.187   7.079   6.009  0.4283  0.2879  0.3030
  904MOL0     C19201   1.291   7.025   6.075 -0.7906  0.6151 -0.1884
  904MOL0     C19202   1.372   6.933   6.006 -0.3418  0.5138  0.2867
  904MOL0     C19203   1.353   6.906   5.866 -0.5969 -0.1208  0.0724
  904MOL0     O19204   1.422   6.803   5.809  0.8687 -0.1786  0.2818
  904MOL0     C19205   1.563   6.827   5.822 -0.1731 -0.5467 -0.1387
  904MOL0     C19206   1.627   6.729   5.722 -0.2938  0.5647  0.5836
  904MOL0     C19207   1.635   6.587   5.788  0.7476  0.6463  0.2410
  904MOL0     C19208   1.634   6.477   5.683 -0.0453 -0.3316  0.1985
  904MOL0     C19209   1.770   6.480   5.605  1.1162 -0.3099 -0.2573
  904MOL0     C19210   1.892   6.482   5.680 -0.3454  0.0366  0.5238
  904MOL0     C19211   2.012   6.489   5.576 -0.0866  0.2359 -0.1520
  904MOL0     C19212   2.135   6.528   5.642 -0.5661  0.1615 -0.5483
  904MOL0     N19213   2.179   6.439   5.753 -0.7859 -0.1540  0.0720
  904MOL0     C19214   2.220   6.312   5.729  1.2862  0.0837  0.2679
  904MOL0     C19215   2.249   6.264   5.850  1.0620 -0.0179 -0.6845
  904MOL0     C19216   2.306   6.128   5.895 -0.5964  0.2905  0.5519
  904MOL0     C19217   2.443   6.151   5.952  0.2454 -0.3570 -0.5323
  904MOL0     C19218   2.554   6.220   5.870 -0.4435 -0.4931  0.8554
  904MOL0     C19219   2.685   6.247   5.944 -0.2404  0.0916 -0.0061
  904MOL0     O19220   2.783   6.295   5.858  0.1239  0.5446  0.1264
  904MOL0     C19221   2.885   6.363   5.919 -0.1097 -0.2417  0.8382
  904MOL0     C19222   2.947   6.337   6.042 -0.3670 -0.1375  0.5387
  904MOL0     C19223   3.070   6.397   6.076 -0.8438  0.9295  0.3591
  904MOL0     C19224   3.137   6.492   5.997  0.6844  0.3374  0.0503
  904MOL0     C19225   3.265   6.556   6.038  0.0996 -0.1421 -0.0100
  904MOL0     O19226   3.325   6.532   6.156 -0.1005 -0.6800  0.8447
  904MOL0     C19227   3.455   6.556   6.184  0.0031 -0.3512 -0.3872
  904MOL0     C19228   3.482   6.570   6.323  0.5164  0.4645 -0.3347
  904MOL0     C19229   3.602   6.611   6.370  0.4592  0.8028 -0.0580
  904MOL0     C19230   3.713   6.647   6.283 -0.8980 -0.4406  0.2336
  904MOL0     O19231   3.833   6.685   6.335  1.1846 -1.2106  0.3418
  904MOL0     C19232   3.922   6.770   6.251  0.2024  0.6649 -0.3975
  904MOL0     C19233   4.045   6.798   6.331  0.4512 -0.1264 -0.1118
  904MOL0     C19234   4.146   6.882   6.250 -0.1639  0.5562  0.0392
  904MOL0     C19235   4.257   6.918   6.339 -0.4498  0.4147  0.2290
  904MOL0     C19236   4.380   6.966   6.259 -0.2139 -0.6521 -0.2224
  904MOL0     C19237   4.348   7.089   6.169  0.1413 -0.7779 -1.0378
  904MOL0     C19238   4.480   7.160   6.135 -0.6015 -0.5442 -0.1197
  904MOL0     C19239   4.439   7.281   6.057  0.4332 -1.1987 -0.0534
  904MOL0    Cl19240   4.364   7.230   5.893 -0.0027 -0.2198  0.3082
  904MOL0     C19241   3.698   6.626   6.144 -0.6740 -0.4190  0.1473
  904MOL0     C19242   3.569   6.577   6.097 -0.4323 -0.5627  0.7391
  904MOL0     O19243   3.296   6.640   5.953  0.4805  0.2260  0.3711
  904MOL0     C19244   3.065   6.538   5.878 -0.4301  0.6886  0.4152
  904MOL0     C19245   2.945   6.463   5.835 -0.4439 -0.4791  0.1097
  904MOL0     N19246   2.211   6.356   5.946  0.1897 -0.0162  0.1919
  904MOL0     N19247   2.161   6.455   5.883 -0.2394  0.1651  0.1023
  904MOL0     C19248   1.248   6.972   5.805  0.3892 -0.3889 -0.5491
  904MOL0     C19249   1.168   7.058   5.874  0.6070 -0.3696 -1.6822
  904MOL0     C19250   0.878   7.174   6.188 -0.3115 -0.9646  0.5071
  904MOL0     C19251   0.778   7.115   6.264  0.2499  0.4010 -0.7877
  904MOL0     C19252   0.697   7.191   6.344  0.0451 -0.1192  0.0952
  904MOL0     C19253   0.706   7.330   6.348 -0.0129 -0.9003 -0.3178
  904MOL0     O19254   0.626   7.417   6.416  0.3435  0.2658 -0.3154
  904MOL0     C19255   0.642   7.403   6.560  0.3661  0.6476  0.3099
  904MOL0     C19256   0.518   7.355   6.618  1.0673  0.2505 -1.1008
  904MOL0     C19257   0.393   7.429   6.568 -0.4083  0.7889  0.1047
  904MOL0     C19258   0.272   7.381   6.640 -0.3792  0.4723 -1.0735
  904MOL0     C19259   0.143   7.438   6.600 -0.5624 -0.4865  0.4295
  904MOL0     C19260   0.045   7.506   6.596 -0.6125  0.3341  0.1893
  904MOL0     C19261   0.804   7.392   6.274 -0.3804 -0.0071  0.3620
  904MOL0     C19262   0.893   7.316   6.193 -1.1359  0.7077 -0.6516
  904MOL0     H19263   1.318   7.047   6.178  2.1541  1.0251 -0.9757
  904MOL0     H19264   1.451   6.882   6.061 -1.2423  0.5284  1.6232
  904MOL0     H19265   1.609   6.800   5.917 -0.2965  0.2519  0.1608
  904MOL0     H19266   1.590   6.932   5.804 -0.8106 -0.4428 -0.5267
  904MOL0     H19267   1.725   6.761   5.686  0.1498 -2.8989 -1.7536
  904MOL0     H19268   1.566   6.731   5.631  1.8415 -0.0575 -0.9482
  904MOL0     H19269   1.542   6.579   5.846 -0.2517  1.2241 -1.2269
  904MOL0     H19270   1.711   6.572   5.865 -1.4922  3.1602  3.1738
  904MOL0     H19271   1.613   6.379   5.725  1.4224 -1.6727 -1.9794
  904MOL0     H19272   1.547   6.484   5.617  0.9661 -0.1944 -1.1568
  904MOL0     H19273   1.767   6.571   5.543 -3.3703  1.4469  2.0586
  904MOL0     H19274   1.759   6.389   5.545 -3.8714  0.9701 -1.7678
  904MOL0     H19275   1.899   6.382   5.724 -1.2507 -0.3449 -0.1734
  904MOL0     H19276   1.891   6.561   5.756  1.0856 -0.7797  1.4491
  904MOL0     H19277   2.015   6.393   5.524 -1.6442  0.2429 -0.3023
  904MOL0     H19278   1.975   6.561   5.501 -5.6402 -0.5834  1.3380
  904MOL0     H19279   2.119   6.628   5.682 -0.5668 -0.0153 -0.0908
  904MOL0     H19280   2.213   6.529   5.565 -1.5077 -3.5320 -1.7510
  904MOL0     H19281   2.221   6.264   5.632  0.1192  3.3825 -1.5512
  904MOL0     H19282   2.320   6.074   5.801 -1.0652  0.7372  0.2181
  904MOL0     H19283   2.236   6.068   5.954 -1.3492 -3.6051 -3.7414
  904MOL0     H19284   2.476   6.062   6.007 -2.1648 -0.1813  1.4155
  904MOL0     H19285   2.415   6.213   6.038 -0.4635  1.4129 -2.0025
  904MOL0     H19286   2.577   6.169   5.776 -0.5010  1.9509 -0.5696
  904MOL0     H19287   2.520   6.318   5.836 -2.2784 -1.3949 -0.0796
  904MOL0     H19288   2.726   6.155   5.988 -0.6671 -1.0323 -1.8750
  904MOL0     H19289   2.665   6.311   6.031  0.1624 -1.9887  1.7061
  904MOL0     H19290   2.907   6.259   6.105 -0.2275  0.1188  0.9447
  904MOL0     H19291   3.102   6.353   6.170 -0.8857 -2.5720 -1.1152
  904MOL0     H19292   3.399   6.547   6.389  0.7944  2.1887  0.6845
  904MOL0     H19293   3.616   6.613   6.478 -0.0300  0.0338  0.0317
  904MOL0     H19294   3.866   6.861   6.226 -0.9081  0.9590  2.7109
  904MOL0     H19295   3.960   6.726   6.159  2.7124  3.4391 -0.8577
  904MOL0     H19296   4.073   6.697   6.363 -0.0916  0.2601  1.7483
  904MOL0     H19297   4.001   6.854   6.414 -1.2548 -0.7839 -0.5242
  904MOL0     H19298   4.097   6.970   6.209  2.6314  0.9079 -2.9788
  904MOL0     H19299   4.181   6.821   6.165 -0.7909  2.3631 -1.5815
  904MOL0     H19300   4.216   6.982   6.418 -0.6066  1.0664 -0.3636
  904MOL0     H19301   4.286   6.824   6.386 -2.3980  0.0302  0.7695
  904MOL0     H19302   4.431   6.899   6.189 -0.4189 -0.2283 -0.7877
  904MOL0     H19303   4.462   6.990   6.327 -1.6551 -0.9975  1.7145
  904MOL0     H19304   4.278   7.157   6.218 -0.7453 -3.4607  1.6828
  904MOL0     H19305   4.321   7.040   6.075 -0.8964 -2.1568 -0.0471
  904MOL0     H19306   4.539   7.202   6.217 -0.5592  0.8765 -0.8626
  904MOL0     H19307   4.551   7.104   6.073  1.8545  0.0338  1.9892
  904MOL0     H19308   4.522   7.350   6.037  0.2130  0.8147  4.5605
  904MOL0     H19309   4.367   7.345   6.109 -0.4114 -2.1726  0.0176
  904MOL0     H19310   3.776   6.653   6.073  0.6046  2.0390  2.2970
  904MOL0     H19311   3.571   6.558   5.990 -0.8914  0.2743  0.5760
  904MOL0     H19312   3.093   6.612   5.804  1.1327 -3.1027 -3.1907
  904MOL0     H19313   2.890   6.482   5.743  2.5175 -1.4226 -1.9863
  904MOL0     H19314   1.241   6.946   5.699 -1.5300 -2.7422  0.0656
  904MOL0     H19315   1.090   7.112   5.821 -1.6735  1.1554  2.7938
  904MOL0     H19316   0.764   7.008   6.264  2.2537  0.0451 -2.7918
  904MOL0     H19317   0.612   7.158   6.403  0.0023  1.4303  0.9599
  904MOL0     H19318   0.675   7.501   6.597 -1.8327  0.6524  2.5171
  904MOL0     H19319   0.719   7.335   6.596  1.0576  0.9120 -0.6212
  904MOL0     H19320   0.509   7.249   6.596  1.4694 -0.2297  0.8899
  904MOL0     H19321   0.518   7.371   6.726  0.2883  0.0230 -1.0635
  904MOL0     H19322   0.378   7.409   6.462 -1.3532  0.8725  0.2130
  904MOL0     H19323   0.398   7.538   6.573  1.5288  0.7912 -0.9328
  904MOL0     H19324   0.272   7.271   6.633 -1.9305  0.5164 -2.3623
  904MOL0     H19325   0.293   7.414   6.742  2.8691 -0.4640 -1.3216
  904MOL0     H19326  -0.035   7.577   6.596 -0.1894  0.8173 -0.5150
  904MOL0     H19327   0.817   7.500   6.270 -0.3484 -0.0002  0.6019
  904MOL0     H19328   0.965   7.380   6.143 -1.1897  1.8527  0.6621
  905MOL0     O19329   9.900   1.022   8.889  0.0489  1.4314 -0.5470
  905MOL0     C19330   9.905   0.997   8.766  0.3679 -0.1323 -0.5821
  905MOL0     O19331   9.958   0.883   8.713 -0.0322  1.0659 -0.0541
  905MOL0     C19332  10.006   0.772   8.781  0.6643 -0.0438 -0.1816
  905MOL0     C19333   9.942   0.721   8.896 -0.0043 -0.4148 -1.1083
  905MOL0     C19334  10.016   0.617   8.968 -0.7324 -0.2362  0.5376
  905MOL0     C19335  10.126   0.554   8.928 -0.3452 -0.8677 -0.6802
  905MOL0     O19336  10.164   0.457   9.014 -0.1595  0.5421 -0.0760
  905MOL0     C19337  10.290   0.389   8.998 -0.4772 -0.8121 -0.1028
  905MOL0     C19338  10.317   0.288   9.111  0.3235 -0.3021  0.4343
  905MOL0     C19339  10.438   0.204   9.095 -0.2229  0.1295 -0.5205
  905MOL0     C19340  10.567   0.284   9.067  0.1316  0.3866  0.5789
  905MOL0     C19341  10.705   0.221   9.127  0.0416 -0.3340  0.4638
  905MOL0     C19342  10.702   0.198   9.275 -0.6042  0.4487  0.1564
  905MOL0     C19343  10.833   0.138   9.331  0.9774 -1.0496  0.0077
  905MOL0     C19344  10.843   0.131   9.485 -0.1194 -0.0116 -1.3214
  905MOL0     N19345  10.753   0.027   9.542  0.6571 -0.3805 -0.5221
  905MOL0     C19346  10.769  -0.115   9.520 -0.4341 -0.3698 -0.0066
  905MOL0     C19347  10.657  -0.168   9.568 -0.0713  0.4934  0.1995
  905MOL0     C19348  10.614  -0.314   9.587  0.4139 -0.3712 -0.1153
  905MOL0     C19349  10.659  -0.394   9.709  0.8405 -0.7529 -0.3766
  905MOL0     C19350  10.783  -0.479   9.684 -0.1948  0.0987 -0.3365
  905MOL0     C19351  10.754  -0.619   9.630 -0.4386 -0.4649 -0.8081
  905MOL0     O19352  10.755  -0.618   9.483  0.2853 -0.7346  0.6650
  905MOL0     C19353  10.645  -0.621   9.408 -0.1569  1.0704 -0.3065
  905MOL0     C19354  10.669  -0.668   9.277 -0.2528  0.4180 -0.1947
  905MOL0     C19355  10.569  -0.681   9.179  0.4881  0.6771  0.2826
  905MOL0     C19356  10.436  -0.635   9.205  0.1589  0.1004  0.1500
  905MOL0     C19357  10.325  -0.653   9.102 -0.0457 -0.6232 -0.3514
  905MOL0     O19358  10.223  -0.732   9.146 -0.0777  0.3446 -0.2790
  905MOL0     C19359  10.128  -0.777   9.054 -2.0626  0.1676  0.4178
  905MOL0     C19360  10.074  -0.705   8.952  0.2750  0.1287 -0.4109
  905MOL0     C19361   9.970  -0.760   8.871  0.4110 -0.3787  0.0779
  905MOL0     C19362   9.932  -0.892   8.889 -0.4954 -0.1101 -0.4166
  905MOL0     O19363   9.837  -0.940   8.806  0.5968  0.5355  0.0888
  905MOL0     C19364   9.699  -0.954   8.842 -0.2376 -0.2088 -0.4834
  905MOL0     C19365   9.598  -0.877   8.756  0.5616 -0.6455 -0.1584
  905MOL0     C19366   9.622  -0.735   8.735  0.6651 -0.8113  0.4063
  905MOL0     C19367   9.521  -0.684   8.633 -0.3967  0.2995  0.2510
  905MOL0     C19368   9.576  -0.551   8.570 -0.3818 -0.1670 -0.0577
  905MOL0     C19369   9.582  -0.447   8.678  0.1014 -0.1572 -0.4479
  905MOL0     C19370   9.615  -0.305   8.634  0.1052 -0.0455 -0.4307
  905MOL0     C19371   9.489  -0.240   8.588  0.3970 -1.1977 -0.8838
  905MOL0    Cl19372   9.499  -0.065   8.543  0.0526 -0.4074 -0.3701
  905MOL0     C19373   9.995  -0.971   8.984  0.3671 -0.1616  0.2506
  905MOL0     C19374  10.099  -0.914   9.060  0.1123 -0.3541  0.4300
  905MOL0     O19375  10.344  -0.611   8.993 -0.7187 -0.0919  0.2640
  905MOL0     C19376  10.410  -0.608   9.338  0.5547  0.1855 -0.3679
  905MOL0     C19377  10.512  -0.599   9.443 -0.2873  0.2081 -0.4682
  905MOL0     N19378  10.594  -0.067   9.631 -0.2151 -0.2718 -0.0064
  905MOL0     N19379  10.638   0.058   9.607 -0.4736 -0.3030 -0.4564
  905MOL0     C19380  10.189   0.601   8.810 -0.3594 -0.0061  0.2711
  905MOL0     C19381  10.132   0.722   8.740 -0.1869 -0.0303 -0.4165
  905MOL0     C19382   9.832   1.099   8.686  0.1251 -0.4653  0.3541
  905MOL0     C19383   9.800   1.064   8.557  0.1104 -0.1053 -0.6302
  905MOL0     C19384   9.741   1.158   8.465  0.0160  0.2421 -0.0086
  905MOL0     C19385   9.707   1.288   8.507  0.1786  0.1753 -0.1613
  905MOL0     O19386   9.643   1.385   8.426  0.1361  0.2047 -0.1380
  905MOL0     C19387   9.562   1.360   8.308 -0.3880  0.3328 -0.3735
  905MOL0     C19388   9.616   1.367   8.161 -1.4136 -0.0095  0.2301
  905MOL0     C19389   9.620   1.504   8.123  0.3786  0.3922  0.2611
  905MOL0     C19390   9.689   1.525   7.989  0.9204 -0.7274  0.3764
  905MOL0     C19391   9.671   1.665   7.950 -0.9071  0.2295 -0.3285
  905MOL0     C19392   9.658   1.784   7.959  0.9167 -0.4222 -0.0972
  905MOL0     C19393   9.751   1.326   8.633  0.9873  0.5825 -0.8917
  905MOL0     C19394   9.808   1.237   8.726  0.8492 -0.2257  0.1762
  905MOL0     H19395   9.850   0.759   8.940  1.1424  0.9739  0.1878
  905MOL0     H19396   9.968   0.580   9.058  0.9937 -2.8227  0.4911
  905MOL0     H19397  10.358   0.474   8.993 -3.0200  1.4037  0.5842
  905MOL0     H19398  10.287   0.333   8.904 -2.3321 -0.9557  0.0044
  905MOL0     H19399  10.237   0.214   9.109 -0.2817  0.2082 -3.7584
  905MOL0     H19400  10.322   0.345   9.204  3.4773  0.2035  0.0690
  905MOL0     H19401  10.414   0.136   9.014  2.4318 -1.7097  0.1104
  905MOL0     H19402  10.448   0.141   9.184 -0.2269 -1.1701 -1.4213
  905MOL0     H19403  10.583   0.299   8.960  0.3827 -0.5164  0.4829
  905MOL0     H19404  10.560   0.382   9.114  1.4929 -0.3471  2.4238
  905MOL0     H19405  10.784   0.291   9.099  0.0628 -0.8309 -0.7453
  905MOL0     H19406  10.720   0.126   9.076  1.3534  1.9309 -3.7928
  905MOL0     H19407  10.626   0.125   9.305 -1.1988 -0.1688 -2.5765
  905MOL0     H19408  10.680   0.288   9.332  1.2769  0.9483  0.1637
  905MOL0     H19409  10.845   0.038   9.288 -0.7307 -0.7882 -1.1668
  905MOL0     H19410  10.911   0.203   9.291  0.0226  0.2776  0.2191
  905MOL0     H19411  10.842   0.231   9.531  4.3534  0.8976 -2.6962
  905MOL0     H19412  10.947   0.104   9.507  1.2212  1.8957 -4.4701
  905MOL0     H19413  10.852  -0.168   9.475 -1.7950 -0.9462 -1.9765
  905MOL0     H19414  10.648  -0.376   9.504  0.6660 -1.3554  0.6936
  905MOL0     H19415  10.505  -0.312   9.585  0.3312 -0.7697  1.8893
  905MOL0     H19416  10.574  -0.459   9.732 -0.1005 -1.4547 -4.8261
  905MOL0     H19417  10.684  -0.323   9.787  0.3785  1.3062 -2.0188
  905MOL0     H19418  10.859  -0.438   9.617  0.4710 -0.1566  0.2536
  905MOL0     H19419  10.818  -0.507   9.784 -1.6492  0.7142  0.3754
  905MOL0     H19420  10.662  -0.662   9.668  1.0345 -4.1692 -1.0037
  905MOL0     H19421  10.835  -0.681   9.669  0.1645  1.5728  1.4187
  905MOL0     H19422  10.769  -0.690   9.240 -0.4488  2.0660 -1.8221
  905MOL0     H19423  10.593  -0.722   9.082  0.3166  2.2226 -0.4477
  905MOL0     H19424  10.095  -0.599   8.950  1.0341 -0.0005 -3.0515
  905MOL0     H19425   9.915  -0.695   8.803  0.4034 -1.3760 -0.9090
  905MOL0     H19426   9.691  -0.915   8.944 -0.1046 -0.8964 -0.2097
  905MOL0     H19427   9.654  -1.053   8.850 -1.9292  0.2559 -3.1715
  905MOL0     H19428   9.495  -0.888   8.792  0.5021 -2.2861 -0.7513
  905MOL0     H19429   9.598  -0.931   8.661 -0.9535 -0.8007 -0.0895
  905MOL0     H19430   9.719  -0.725   8.684 -0.4107 -1.4650 -1.9103
  905MOL0     H19431   9.622  -0.681   8.830  2.1566  1.3788 -0.7471
  905MOL0     H19432   9.511  -0.762   8.557  2.6157 -1.5898  1.6122
  905MOL0     H19433   9.426  -0.675   8.687  0.8384  0.2955  2.5221
  905MOL0     H19434   9.508  -0.520   8.491 -2.2478  2.4042  2.3179
  905MOL0     H19435   9.673  -0.567   8.522 -0.5910 -0.2677 -0.4517
  905MOL0     H19436   9.649  -0.474   8.760 -0.1968  0.8660  0.1700
  905MOL0     H19437   9.485  -0.445   8.729  0.1183 -1.4599 -0.3378
  905MOL0     H19438   9.662  -0.245   8.713  3.8473 -3.1085 -0.0177
  905MOL0     H19439   9.693  -0.302   8.558  2.7301  4.1674  1.9958
  905MOL0     H19440   9.414  -0.240   8.667  1.2447  0.0660 -0.0495
  905MOL0     H19441   9.447  -0.291   8.501 -0.4174 -0.1928 -1.1053
  905MOL0     H19442   9.970  -1.075   9.000 -1.4792 -0.3192 -2.7455
  905MOL0     H19443  10.144  -0.967   9.144 -0.7478 -0.8862  0.5697
  905MOL0     H19444  10.308  -0.605   9.375  1.1947 -0.0054  1.5427
  905MOL0     H19445  10.487  -0.573   9.545  1.0397  2.2991 -0.6138
  905MOL0     H19446  10.271   0.537   8.777 -1.9355 -2.7858  1.3557
  905MOL0     H19447  10.182   0.758   8.650  0.6300 -0.1663 -0.0261
  905MOL0     H19448   9.822   0.968   8.511 -1.3819  0.4701 -2.6760
  905MOL0     H19449   9.707   1.123   8.369 -2.0457 -0.5540  0.9457
  905MOL0     H19450   9.479   1.431   8.319  0.4868  1.0483  2.2490
  905MOL0     H19451   9.518   1.261   8.324 -2.2108  1.3171  1.1541
  905MOL0     H19452   9.722   1.338   8.163 -1.0520  1.3126  1.2672
  905MOL0     H19453   9.562   1.301   8.092 -0.9993  0.4923 -0.5893
  905MOL0     H19454   9.680   1.558   8.197 -0.8909  2.4883 -0.1607
  905MOL0     H19455   9.521   1.548   8.109 -0.3443 -1.1427  0.4333
  905MOL0     H19456   9.796   1.506   7.989  0.9391 -0.9541 -2.1381
  905MOL0     H19457   9.647   1.460   7.911  0.0033 -2.0701  1.9137
  905MOL0     H19458   9.662   1.891   7.953 -1.2049 -0.3049 -0.1125
  905MOL0     H19459   9.735   1.427   8.668 -0.4990  1.1329 -2.9702
  905MOL0     H19460   9.841   1.268   8.825 -1.5336  3.2443  0.0497
  906MOL0     O19461   8.604   5.432  10.960  0.5976  0.2174 -0.1206
  906MOL0     C19462   8.618   5.508  10.862  0.1832  0.3157 -0.5480
  906MOL0     O19463   8.517   5.560  10.780 -0.0688 -0.2634  1.2417
  906MOL0     C19464   8.396   5.503  10.804 -0.2122  0.2031  0.3103
  906MOL0     C19465   8.333   5.500  10.933  0.6022 -0.9648  0.2341
  906MOL0     C19466   8.211   5.437  10.956  0.6367  0.1333 -0.5935
  906MOL0     C19467   8.150   5.375  10.844  0.5071 -0.2897 -0.6997
  906MOL0     O19468   8.046   5.287  10.855  0.0575  0.1816  0.6044
  906MOL0     C19469   7.944   5.307  10.954  0.5568 -1.0666 -0.7546
  906MOL0     C19470   7.815   5.234  10.907  0.6606 -0.5966  0.0988
  906MOL0     C19471   7.692   5.264  10.994  0.4342  0.5427  0.4036
  906MOL0     C19472   7.553   5.222  10.934  0.4638  0.0053 -0.1630
  906MOL0     C19473   7.439   5.270  11.028 -0.3126  0.3856 -0.1402
  906MOL0     C19474   7.307   5.215  10.989 -0.1733 -0.3402 -0.1767
  906MOL0     C19475   7.201   5.268  11.076 -0.0544  0.4288 -0.4036
  906MOL0     C19476   7.202   5.194  11.207  0.7663  0.0841 -0.0183
  906MOL0     N19477   7.076   5.227  11.270  1.1432  0.4177  0.2267
  906MOL0     C19478   6.974   5.132  11.296 -0.4195  0.2719 -0.5429
  906MOL0     C19479   6.888   5.206  11.358 -0.3896  0.2989  0.1164
  906MOL0     C19480   6.774   5.139  11.433 -0.3567 -0.1668 -0.8222
  906MOL0     C19481   6.667   5.237  11.504  0.4164  0.5927  0.1315
  906MOL0     C19482   6.584   5.161  11.618 -0.5455  1.0017  0.5675
  906MOL0     C19483   6.484   5.261  11.677  0.5709  1.2346 -0.5088
  906MOL0     O19484   6.387   5.315  11.594  0.0311 -0.5535  0.0535
  906MOL0     C19485   6.322   5.421  11.646  0.0117  0.0061  0.5065
  906MOL0     C19486   6.382   5.538  11.650 -0.5818  0.1720  0.0636
  906MOL0     C19487   6.320   5.645  11.721  0.9555 -1.1421 -0.3858
  906MOL0     C19488   6.195   5.622  11.783  0.1697  0.2567 -0.1844
  906MOL0     C19489   6.115   5.738  11.844 -0.6319  0.4798 -0.5663
  906MOL0     O19490   5.991   5.714  11.897  0.2025  1.0630  0.1290
  906MOL0     C19491   5.950   5.797  11.995  0.6331  0.6868 -0.4275
  906MOL0     C19492   6.036   5.816  12.104 -0.6288  0.6669 -1.2780
  906MOL0     C19493   5.987   5.895  12.209 -0.4282  0.4299  0.6593
  906MOL0     C19494   5.867   5.958  12.205  0.9783 -0.5442  0.1463
  906MOL0     O19495   5.834   6.051  12.301  0.4552  0.4097  0.2247
  906MOL0     C19496   5.744   6.152  12.266 -0.4798  0.7283  1.0808
  906MOL0     C19497   5.761   6.263  12.370  0.0672 -0.3976 -0.4896
  906MOL0     C19498   5.888   6.342  12.342 -0.1783 -0.2729 -0.0691
  906MOL0     C19499   5.876   6.479  12.416 -0.3409 -0.5542  0.2697
  906MOL0     C19500   5.871   6.465  12.569 -0.6618 -0.0536  0.4420
  906MOL0     C19501   5.925   6.587  12.642 -0.0468  1.2279 -0.0705
  906MOL0     C19502   5.860   6.731  12.620  0.0483 -0.5402 -0.0408
  906MOL0     C19503   5.900   6.819  12.729 -0.6017 -0.0399  0.4289
  906MOL0    Cl19504   6.077   6.830  12.742  0.0867 -0.5626  0.0904
  906MOL0     C19505   5.775   5.934  12.095  0.0758 -0.1313 -0.2659
  906MOL0     C19506   5.821   5.839  12.004  0.0882  0.3570  0.1514
  906MOL0     O19507   6.173   5.847  11.842  0.3028 -0.0455  0.3752
  906MOL0     C19508   6.145   5.492  11.775  0.3760  0.0055  0.6292
  906MOL0     C19509   6.200   5.398  11.696  0.3087 -0.4688 -0.3640
  906MOL0     N19510   6.935   5.334  11.380  0.2435  0.5603  0.3595
  906MOL0     N19511   7.050   5.346  11.328 -0.2788 -0.1824 -0.2978
  906MOL0     C19512   8.197   5.398  10.710  1.5442  0.7118 -0.1465
  906MOL0     C19513   8.329   5.448  10.695 -0.1852  0.9632  0.7237
  906MOL0     C19514   8.744   5.589  10.864 -0.3979  0.0441 -0.2335
  906MOL0     C19515   8.760   5.694  10.772 -0.6498  0.3811  0.1707
  906MOL0     C19516   8.877   5.776  10.774  0.0001  0.0683  0.0920
  906MOL0     C19517   8.989   5.745  10.861  0.8590  0.1869 -0.2170
  906MOL0     O19518   9.104   5.819  10.833 -0.7138  0.4478 -0.1421
  906MOL0     C19519   9.218   5.780  10.913  0.2031 -0.6685  0.5218
  906MOL0     C19520   9.322   5.879  10.904  0.2867  0.3701 -0.5910
  906MOL0     C19521   9.462   5.812  10.891  0.1197  0.0545  0.4600
  906MOL0     C19522   9.578   5.917  10.865  1.0377  0.2389  0.3808
  906MOL0     C19523   9.568   5.981  10.733  0.7303 -0.4180 -1.1282
  906MOL0     C19524   9.573   6.036  10.623  0.1439 -0.4559 -0.2000
  906MOL0     C19525   8.974   5.632  10.945  0.2816  0.6807  1.3670
  906MOL0     C19526   8.854   5.557  10.944  0.4063 -1.4365 -1.7925
  906MOL0     H19527   8.373   5.556  11.017 -1.8264 -0.7628  1.3543
  906MOL0     H19528   8.156   5.432  11.050 -3.8948 -2.7091 -3.0658
  906MOL0     H19529   7.925   5.410  10.983 -2.2726 -2.0965  1.4434
  906MOL0     H19530   7.990   5.258  11.041 -0.6191  1.2093  1.2600
  906MOL0     H19531   7.833   5.128  10.888  0.0068  0.0093 -5.7067
  906MOL0     H19532   7.777   5.274  10.812  0.8297 -0.8235 -0.0626
  906MOL0     H19533   7.700   5.373  11.001  0.4650  0.6616 -1.2692
  906MOL0     H19534   7.696   5.212  11.091 -0.4728  1.1870  0.8013
  906MOL0     H19535   7.546   5.255  10.830 -2.3664 -4.5355 -1.7479
  906MOL0     H19536   7.551   5.112  10.927  0.6439  0.0805 -2.1454
  906MOL0     H19537   7.440   5.379  11.033  2.1481  0.6439 -3.2604
  906MOL0     H19538   7.466   5.240  11.130 -0.6661 -1.1170 -0.4712
  906MOL0     H19539   7.305   5.106  10.992 -2.4742 -0.4967 -3.1258
  906MOL0     H19540   7.287   5.253  10.888 -1.5048 -0.1800  0.1295
  906MOL0     H19541   7.219   5.375  11.090  1.3923  0.4714 -2.3402
  906MOL0     H19542   7.104   5.247  11.030 -0.6891  0.6647  0.7638
  906MOL0     H19543   7.288   5.216  11.271  1.1947  2.6490 -1.3332
  906MOL0     H19544   7.213   5.089  11.182 -0.1156  0.0174 -0.1695
  906MOL0     H19545   6.974   5.025  11.278 -0.9978  0.2256 -0.2931
  906MOL0     H19546   6.820   5.076  11.510 -1.4899 -2.6406 -2.0291
  906MOL0     H19547   6.726   5.067  11.366 -4.1780  0.3158  1.1202
  906MOL0     H19548   6.596   5.266  11.426 -0.4464 -4.4601 -1.3072
  906MOL0     H19549   6.708   5.328  11.550 -2.5924  1.1427  2.0492
  906MOL0     H19550   6.547   5.063  11.585 -2.0995  1.8746 -0.3863
  906MOL0     H19551   6.655   5.127  11.694 -0.6331  1.5278  0.8862
  906MOL0     H19552   6.525   5.339  11.742  0.3752  0.1793  0.9290
  906MOL0     H19553   6.429   5.212  11.758 -1.1105  0.1034 -2.2380
  906MOL0     H19554   6.465   5.547  11.581 -1.1803 -2.9911 -1.2377
  906MOL0     H19555   6.357   5.747  11.717  0.0119 -0.7004  1.3801
  906MOL0     H19556   6.134   5.770  12.107 -0.6497  0.6415 -0.7079
  906MOL0     H19557   6.059   5.905  12.289  2.2109  0.0586 -1.5012
  906MOL0     H19558   5.646   6.103  12.273 -0.2082 -0.1240 -0.6049
  906MOL0     H19559   5.759   6.196  12.167  0.2180 -1.7504  0.0012
  906MOL0     H19560   5.768   6.225  12.473 -0.8495  1.8095  0.4639
  906MOL0     H19561   5.667   6.316  12.355 -0.9357 -2.0698 -0.3861
  906MOL0     H19562   5.902   6.375  12.239  0.8225 -0.7613 -0.0997
  906MOL0     H19563   5.966   6.271  12.373  0.5361  0.7191  0.4813
  906MOL0     H19564   5.958   6.539  12.376  0.9814 -2.2363  0.3786
  906MOL0     H19565   5.787   6.537  12.389  1.1108  1.7464  0.1519
  906MOL0     H19566   5.940   6.384  12.591 -0.6063 -0.3140 -0.6269
  906MOL0     H19567   5.770   6.438  12.599 -0.5274  0.6136  1.5376
  906MOL0     H19568   6.030   6.588  12.614  0.8247 -1.6531  2.5871
  906MOL0     H19569   5.908   6.561  12.747  1.3999 -3.4699 -0.7840
  906MOL0     H19570   5.890   6.775  12.524 -3.9264 -0.9268 -1.6556
  906MOL0     H19571   5.751   6.725  12.613 -0.0107  1.9015 -3.0054
  906MOL0     H19572   5.868   6.770  12.821  0.4673 -2.3903 -0.4004
  906MOL0     H19573   5.852   6.916  12.709  1.8996  0.7550 -2.4897
  906MOL0     H19574   5.674   5.974  12.095 -0.0020  0.1948  4.3586
  906MOL0     H19575   5.752   5.800  11.929 -1.1137  3.6296 -0.6163
  906MOL0     H19576   6.047   5.465  11.815  1.1070 -1.1476  1.7152
  906MOL0     H19577   6.148   5.303  11.691 -1.7947  0.6338 -0.6500
  906MOL0     H19578   8.143   5.351  10.628 -2.0010  0.1595  2.2880
  906MOL0     H19579   8.364   5.455  10.593  1.8868  0.4969  1.3507
  906MOL0     H19580   8.677   5.728  10.711 -1.5075 -3.3331 -0.9872
  906MOL0     H19581   8.876   5.864  10.709 -2.3721  1.1468  1.4522
  906MOL0     H19582   9.252   5.690  10.861 -0.9702  0.0324 -1.5561
  906MOL0     H19583   9.200   5.748  11.016  0.2103  1.0953  1.0950
  906MOL0     H19584   9.300   5.955  10.829  0.5160 -1.5547 -2.7036
  906MOL0     H19585   9.327   5.933  10.999  0.5130 -2.2571  1.0115
  906MOL0     H19586   9.458   5.734  10.814 -1.2023  0.1396  0.4320
  906MOL0     H19587   9.468   5.757  10.985 -2.1362  0.5544  0.9534
  906MOL0     H19588   9.580   5.996  10.940 -0.5802  0.5331  0.1504
  906MOL0     H19589   9.674   5.864  10.870 -0.2230 -2.2528  0.0835
  906MOL0     H19590   9.572   6.056  10.518  1.9650 -0.8333 -0.3312
  906MOL0     H19591   9.058   5.595  11.002  0.3183 -2.6026 -0.5416
  906MOL0     H19592   8.866   5.473  11.012 -0.8150 -0.1139  0.1405
  907MOL0     O19593   8.762   6.560   2.528  0.4289 -0.3337  0.3599
  907MOL0     C19594   8.819   6.639   2.600  0.0176 -0.7347  0.3644
  907MOL0     O19595   8.791   6.774   2.620 -0.2851 -0.4230  0.4115
  907MOL0     C19596   8.690   6.830   2.547  0.4964  0.2781  0.0902
  907MOL0     C19597   8.564   6.774   2.536 -0.9124 -0.2301  0.3705
  907MOL0     C19598   8.475   6.821   2.439  1.2466 -0.6392  0.1555
  907MOL0     C19599   8.502   6.935   2.365  0.1926  0.5068  0.2507
  907MOL0     O19600   8.419   7.001   2.271  0.6013 -0.2280 -0.1196
  907MOL0     C19601   8.296   6.935   2.237 -0.5923 -0.6616  0.2407
  907MOL0     C19602   8.230   7.016   2.126  0.2468 -0.1269 -1.1744
  907MOL0     C19603   8.107   7.101   2.169  0.0905 -0.2798 -0.4044
  907MOL0     C19604   8.033   7.157   2.047 -0.7282  0.1536 -0.5748
  907MOL0     C19605   7.893   7.209   2.100 -0.8959  0.2499 -0.1182
  907MOL0     C19606   7.811   7.259   1.977 -0.6002 -0.7751  0.2507
  907MOL0     C19607   7.692   7.337   2.017  0.1171  0.0432  0.0062
  907MOL0     C19608   7.609   7.395   1.905 -0.0352 -0.2494 -0.2746
  907MOL0     N19609   7.504   7.494   1.955 -0.3674  0.6953  0.3921
  907MOL0     C19610   7.525   7.625   1.983 -0.8714 -0.2986 -0.5148
  907MOL0     C19611   7.412   7.669   2.034 -0.2110 -0.1210 -0.9748
  907MOL0     C19612   7.387   7.802   2.098  0.7444 -0.0767  0.1349
  907MOL0     C19613   7.502   7.902   2.097 -0.0386 -0.2345  0.1760
  907MOL0     C19614   7.457   8.054   2.088 -0.5786  1.3403 -0.3256
  907MOL0     C19615   7.352   8.084   2.188  0.6474 -0.4881  0.0588
  907MOL0     O19616   7.379   8.040   2.320  0.3685 -0.1328 -0.9873
  907MOL0     C19617   7.295   8.093   2.422 -0.1741 -0.4354  0.2014
  907MOL0     C19618   7.325   8.053   2.548  0.0409  0.0600  0.0311
  907MOL0     C19619   7.247   8.083   2.657 -0.1447  1.1959  0.0042
  907MOL0     C19620   7.134   8.175   2.650 -0.7995  0.6200 -0.6387
  907MOL0     C19621   7.067   8.231   2.771  0.5189  0.7915 -0.9265
  907MOL0     O19622   7.099   8.178   2.893  0.0836 -0.9250 -0.6704
  907MOL0     C19623   7.016   8.196   2.996  1.3247 -1.6341 -0.6714
  907MOL0     C19624   6.874   8.213   2.996 -0.4059  0.6330 -0.0447
  907MOL0     C19625   6.799   8.207   3.121  1.1272  0.2593  0.3672
  907MOL0     C19626   6.865   8.174   3.236 -0.5778  0.1933  0.2357
  907MOL0     O19627   6.782   8.151   3.342  0.2515 -0.2314 -0.3982
  907MOL0     C19628   6.832   8.179   3.474 -0.0816  0.1000 -0.3480
  907MOL0     C19629   6.713   8.176   3.579  1.2880  0.7533  0.0750
  907MOL0     C19630   6.611   8.287   3.552  1.4925 -0.6596  0.3389
  907MOL0     C19631   6.663   8.433   3.559  0.0872  0.0473 -0.3857
  907MOL0     C19632   6.552   8.543   3.556 -0.6685  0.5038  0.5077
  907MOL0     C19633   6.612   8.689   3.539  0.4050  0.3614 -0.9517
  907MOL0     C19634   6.624   8.722   3.396 -0.4172 -0.4396  0.2600
  907MOL0     C19635   6.689   8.865   3.374 -0.3140 -0.3634 -0.4947
  907MOL0    Cl19636   6.582   8.990   3.429  0.1210 -0.6437  0.1961
  907MOL0     C19637   6.998   8.128   3.232  0.1244 -0.3204  0.2823
  907MOL0     C19638   7.077   8.147   3.116  0.0820 -0.4365  1.0008
  907MOL0     O19639   6.991   8.328   2.748  0.5142  0.4238 -1.0852
  907MOL0     C19640   7.110   8.219   2.518 -0.1765 -0.1250 -0.7304
  907MOL0     C19641   7.193   8.187   2.413  0.0684 -0.3676  0.2782
  907MOL0     N19642   7.313   7.570   2.008  0.0818 -0.1171  0.0446
  907MOL0     N19643   7.369   7.465   1.963 -0.5952  0.2055 -0.4257
  907MOL0     C19644   8.627   6.993   2.392  0.0761  0.6349  0.1791
  907MOL0     C19645   8.722   6.942   2.479 -0.7104 -0.7243 -0.3405
  907MOL0     C19646   8.927   6.582   2.685  0.4407  0.8713  0.0209
  907MOL0     C19647   8.982   6.454   2.678  0.6347  0.3236 -0.0895
  907MOL0     C19648   9.071   6.409   2.769 -0.0915  0.5236  0.1074
  907MOL0     C19649   9.118   6.486   2.876  0.8816 -0.2289  0.0457
  907MOL0     O19650   9.187   6.430   2.976  0.2771 -0.0393 -0.7974
  907MOL0     C19651   9.220   6.500   3.101 -0.1772 -0.3906 -0.1410
  907MOL0     C19652   9.359   6.560   3.086 -0.4115 -0.1057  0.4738
  907MOL0     C19653   9.378   6.661   3.197 -0.7012  0.1902 -0.2374
  907MOL0     C19654   9.525   6.696   3.204  0.7132  0.4237 -0.5158
  907MOL0     C19655   9.547   6.819   3.139  0.1174  0.1742 -0.5798
  907MOL0     C19656   9.591   6.925   3.090 -0.4314 -0.4703  1.0902
  907MOL0     C19657   9.052   6.608   2.884 -0.0959 -0.7609 -0.3496
  907MOL0     C19658   8.962   6.657   2.788 -0.4225 -0.1952 -0.6607
  907MOL0     H19659   8.538   6.685   2.594 -3.0284 -0.1680 -0.3875
  907MOL0     H19660   8.385   6.762   2.431 -0.3657  1.7684 -0.4562
  907MOL0     H19661   8.224   6.909   2.315 -2.5927  1.4839 -0.7548
  907MOL0     H19662   8.330   6.835   2.206  0.7601 -1.2958  3.3299
  907MOL0     H19663   8.185   6.946   2.054  2.1897 -0.4804 -2.1088
  907MOL0     H19664   8.306   7.082   2.084  0.8224  1.7911  2.5221
  907MOL0     H19665   8.139   7.186   2.230  1.9818  1.6179 -3.7287
  907MOL0     H19666   8.043   7.030   2.222  2.1632 -1.5550  0.5205
  907MOL0     H19667   8.088   7.238   1.999 -0.6965  0.3145 -0.2716
  907MOL0     H19668   8.011   7.080   1.973 -3.5403 -1.1196  1.3931
  907MOL0     H19669   7.907   7.280   2.181 -1.1303  0.7648 -0.5173
  907MOL0     H19670   7.842   7.118   2.133  1.6590 -1.3614 -0.3488
  907MOL0     H19671   7.771   7.168   1.931 -1.1546 -0.6178  0.4211
  907MOL0     H19672   7.879   7.311   1.909 -0.0990 -0.0413  1.2742
  907MOL0     H19673   7.620   7.282   2.078  0.7912  1.0196  1.7403
  907MOL0     H19674   7.717   7.423   2.079  0.4174 -1.3907  1.9820
  907MOL0     H19675   7.545   7.326   1.850  0.0913  0.7878 -1.7593
  907MOL0     H19676   7.678   7.443   1.835 -0.7168 -0.9469 -1.4477
  907MOL0     H19677   7.616   7.681   1.967 -0.3117  0.1834  3.4068
  907MOL0     H19678   7.359   7.781   2.201 -0.2887 -0.0416 -0.1197
  907MOL0     H19679   7.298   7.838   2.044  0.4458  1.9532  1.8241
  907MOL0     H19680   7.569   7.884   2.012 -0.6625 -1.4713 -0.0886
  907MOL0     H19681   7.560   7.891   2.188 -1.6774  0.0857  1.3147
  907MOL0     H19682   7.545   8.115   2.107 -0.8334  2.3131 -2.0394
  907MOL0     H19683   7.419   8.070   1.986  1.6569  2.6135 -1.0252
  907MOL0     H19684   7.256   8.037   2.165  0.7275 -2.0506  2.5170
  907MOL0     H19685   7.336   8.192   2.182  1.3551 -0.4456 -1.4123
  907MOL0     H19686   7.416   7.994   2.548 -0.6057 -0.9946  1.0464
  907MOL0     H19687   7.276   8.038   2.752 -0.1226  0.9605 -0.1154
  907MOL0     H19688   6.816   8.230   2.906 -2.0572  1.4299  1.1006
  907MOL0     H19689   6.691   8.216   3.112  1.0561 -1.2757 -0.7751
  907MOL0     H19690   6.890   8.271   3.475 -1.0310  0.7821  2.6057
  907MOL0     H19691   6.908   8.106   3.502  0.0094  0.2994 -0.0694
  907MOL0     H19692   6.744   8.183   3.683  0.8017  2.6149  0.1414
  907MOL0     H19693   6.658   8.083   3.564 -2.0578  2.8462 -1.9665
  907MOL0     H19694   6.521   8.282   3.614  1.0601 -0.2664 -0.2373
  907MOL0     H19695   6.579   8.267   3.449  2.3991  1.4155 -0.3983
  907MOL0     H19696   6.726   8.449   3.647 -1.0921  2.0067  0.1578
  907MOL0     H19697   6.723   8.437   3.467 -1.5816 -0.5675 -1.5618
  907MOL0     H19698   6.493   8.527   3.646 -4.0037  1.2676 -1.3871
  907MOL0     H19699   6.482   8.525   3.475 -1.6189 -0.3981  1.5033
  907MOL0     H19700   6.712   8.693   3.584  0.5513 -4.1723 -0.4300
  907MOL0     H19701   6.549   8.756   3.599 -0.5576 -3.3588  2.6763
  907MOL0     H19702   6.686   8.646   3.349  0.8309  0.6866  0.0341
  907MOL0     H19703   6.526   8.712   3.348 -0.9267 -0.1828  1.2102
  907MOL0     H19704   6.698   8.880   3.266 -0.9533  3.5914 -0.1421
  907MOL0     H19705   6.789   8.869   3.419  1.1367  0.7862 -3.5770
  907MOL0     H19706   7.039   8.075   3.318 -2.4689 -3.0111  0.0325
  907MOL0     H19707   7.184   8.129   3.113  0.5247  1.7407 -2.6060
  907MOL0     H19708   7.028   8.289   2.501 -0.1566  0.6265  1.7873
  907MOL0     H19709   7.170   8.226   2.315  1.5600 -1.5439 -0.5815
  907MOL0     H19710   8.655   7.087   2.346 -2.4991  1.3062 -0.1798
  907MOL0     H19711   8.807   7.002   2.513 -0.7170 -1.0159  0.2016
  907MOL0     H19712   8.942   6.390   2.600 -1.0333  1.3345 -0.1146
  907MOL0     H19713   9.091   6.303   2.757 -0.5158  0.5176 -0.5398
  907MOL0     H19714   9.213   6.433   3.187  2.4635 -0.5006  0.0679
  907MOL0     H19715   9.148   6.582   3.113 -2.4283 -1.1883 -5.4221
  907MOL0     H19716   9.436   6.482   3.088 -0.3164 -0.0292 -0.0600
  907MOL0     H19717   9.368   6.612   2.990  0.0233 -0.8420  0.1018
  907MOL0     H19718   9.354   6.609   3.291  2.0851  0.2936  0.6247
  907MOL0     H19719   9.309   6.746   3.193  0.7269  1.4098  0.2306
  907MOL0     H19720   9.557   6.710   3.307  2.3522 -1.1910 -0.7538
  907MOL0     H19721   9.589   6.619   3.160  1.2922  0.9878 -0.6878
  907MOL0     H19722   9.629   7.015   3.045  0.8987 -1.3526  0.3658
  907MOL0     H19723   9.070   6.678   2.964 -0.5250 -2.2582  1.1156
  907MOL0     H19724   8.921   6.757   2.796  2.1096  1.0151 -1.8922
  908MOL0     O19725   5.732   5.424   1.771  0.5190  0.7142  0.4949
  908MOL0     C19726   5.766   5.450   1.886  0.5247  0.0603  0.1666
  908MOL0     O19727   5.727   5.553   1.966 -0.0843 -0.3678 -0.5878
  908MOL0     C19728   5.605   5.609   1.955 -0.8293  0.1534  0.2843
  908MOL0     C19729   5.501   5.575   1.863 -1.2863  1.2133  0.4652
  908MOL0     C19730   5.376   5.635   1.870 -0.1887  0.7071 -0.4798
  908MOL0     C19731   5.352   5.723   1.980 -0.3363  0.8973  0.8363
  908MOL0     O19732   5.230   5.770   2.000  0.5876  0.2611  0.3409
  908MOL0     C19733   5.125   5.753   1.896  0.2625  0.3016  0.3288
  908MOL0     C19734   4.991   5.776   1.964  0.7453 -0.1878  0.0465
  908MOL0     C19735   4.938   5.675   2.061 -0.0016 -0.9533  0.9323
  908MOL0     C19736   4.802   5.732   2.119 -0.2787 -0.2759  0.4023
  908MOL0     C19737   4.742   5.660   2.237  0.2083 -0.7322 -0.0242
  908MOL0     C19738   4.617   5.731   2.305 -0.0636  0.2588  0.8817
  908MOL0     C19739   4.559   5.631   2.406  0.1050 -0.6373 -0.1985
  908MOL0     C19740   4.431   5.673   2.459  0.0417  0.1539  0.4544
  908MOL0     N19741   4.357   5.560   2.510  0.7431 -0.3115  0.2134
  908MOL0     C19742   4.351   5.531   2.641 -1.0285  0.7002 -0.0803
  908MOL0     C19743   4.247   5.453   2.650  0.6425  0.3580 -0.7851
  908MOL0     C19744   4.171   5.411   2.777  0.3352 -1.1442 -0.2543
  908MOL0     C19745   4.045   5.496   2.797 -0.3604  0.0869 -0.4615
  908MOL0     C19746   3.962   5.454   2.916  0.2159 -0.3959 -0.0982
  908MOL0     C19747   3.913   5.308   2.918  0.8941 -0.0443 -0.8111
  908MOL0     O19748   3.778   5.313   2.971 -0.0578 -0.2330 -0.4121
  908MOL0     C19749   3.682   5.331   2.883  0.2650  0.0633 -0.1710
  908MOL0     C19750   3.615   5.450   2.888  0.0208  0.3687  0.5206
  908MOL0     C19751   3.526   5.480   2.786  0.0206  0.0820  0.2945
  908MOL0     C19752   3.505   5.384   2.681  1.1052  0.4860 -0.1268
  908MOL0     C19753   3.413   5.419   2.567  0.0248  1.1330  0.4236
  908MOL0     O19754   3.441   5.358   2.447 -0.3347 -0.2325 -0.0608
  908MOL0     C19755   3.358   5.366   2.340  1.0466  0.1807  0.1584
  908MOL0     C19756   3.226   5.414   2.337  0.2247 -0.1363  0.2014
  908MOL0     C19757   3.138   5.413   2.223  0.5799  0.6452 -0.7394
  908MOL0     C19758   3.197   5.371   2.108  0.2648 -1.1130 -0.8358
  908MOL0     O19759   3.133   5.378   1.989  0.8394 -0.2929  0.2979
  908MOL0     C19760   3.178   5.471   1.895  0.1192  0.4362 -0.0634
  908MOL0     C19761   3.143   5.611   1.942 -0.3725 -0.1006  0.7113
  908MOL0     C19762   3.140   5.715   1.829 -0.1927  0.2364 -0.3194
  908MOL0     C19763   3.006   5.699   1.749  0.5898  0.0855 -0.4275
  908MOL0     C19764   2.981   5.819   1.656 -0.0898  0.4592 -0.3813
  908MOL0     C19765   2.853   5.807   1.571  0.1845 -0.3692 -0.7970
  908MOL0     C19766   2.832   5.939   1.493  0.0494 -0.0193  0.2876
  908MOL0     C19767   2.696   5.929   1.427 -0.0379  0.3773 -0.4795
  908MOL0    Cl19768   2.562   5.903   1.538  0.1645  0.6459  0.0944
  908MOL0     C19769   3.337   5.330   2.107  1.0899  0.6036  0.1288
  908MOL0     C19770   3.418   5.318   2.221 -0.1670 -0.7526  0.0425
  908MOL0     O19771   3.316   5.491   2.595 -0.3328 -0.7889 -0.0331
  908MOL0     C19772   3.568   5.261   2.687 -0.3624  0.7672 -0.6181
  908MOL0     C19773   3.651   5.223   2.793 -0.0959  0.2985  0.0309
  908MOL0     N19774   4.190   5.428   2.525 -0.3091 -0.2835 -0.4163
  908MOL0     N19775   4.264   5.493   2.435 -0.1706 -0.4720 -0.4387
  908MOL0     C19776   5.458   5.770   2.053  1.2518  0.9944 -1.3508
  908MOL0     C19777   5.582   5.716   2.045 -0.1070 -0.1885  0.4504
  908MOL0     C19778   5.870   5.367   1.950 -0.0093 -0.1756  0.3222
  908MOL0     C19779   5.945   5.397   2.069  0.4112  0.8414 -0.3164
  908MOL0     C19780   6.041   5.311   2.125 -0.1281 -0.3348  0.1531
  908MOL0     C19781   6.082   5.195   2.057  0.1101  0.6920 -0.0736
  908MOL0     O19782   6.175   5.110   2.108  0.0715  0.3218 -0.4623
  908MOL0     C19783   6.183   5.099   2.248  0.2070  1.0485 -0.0454
  908MOL0     C19784   6.212   4.954   2.286  0.4297  0.1236  0.3812
  908MOL0     C19785   6.233   4.938   2.441  0.1879 -0.7709  0.6299
  908MOL0     C19786   6.124   4.852   2.495 -0.9066  0.1883 -0.7229
  908MOL0     C19787   6.125   4.862   2.642 -1.0972  0.9436  0.7773
  908MOL0     C19788   6.117   4.848   2.767 -0.2837 -0.9722  0.0640
  908MOL0     C19789   6.013   5.169   1.941 -0.0313  0.0771  0.8168
  908MOL0     C19790   5.914   5.250   1.887  0.1042  0.3867  0.5684
  908MOL0     H19791   5.510   5.485   1.803 -2.3602  0.2866  1.6313
  908MOL0     H19792   5.307   5.608   1.791 -0.4397  1.3473 -0.4826
  908MOL0     H19793   5.118   5.664   1.832 -0.9454  1.5783 -1.3925
  908MOL0     H19794   5.147   5.831   1.823 -2.2315 -0.3057 -1.1853
  908MOL0     H19795   4.922   5.793   1.881  1.4033 -0.5618 -0.5903
  908MOL0     H19796   4.997   5.868   2.023 -0.0493 -0.0736 -0.0370
  908MOL0     H19797   5.011   5.669   2.143  0.9740 -1.9499  0.0305
  908MOL0     H19798   4.932   5.577   2.013  0.7160 -0.4263 -0.2899
  908MOL0     H19799   4.802   5.833   2.162  0.2487 -0.6803  1.4001
  908MOL0     H19800   4.720   5.737   2.047  0.6966  0.9466 -0.6631
  908MOL0     H19801   4.823   5.654   2.311  0.8397  2.9041 -0.2368
  908MOL0     H19802   4.718   5.560   2.202  0.6670 -0.8590  0.0171
  908MOL0     H19803   4.541   5.742   2.227 -1.3241 -2.2281  1.6766
  908MOL0     H19804   4.635   5.830   2.349 -0.3524  0.3155  0.8753
  908MOL0     H19805   4.548   5.530   2.364 -1.9138 -0.1018 -1.0972
  908MOL0     H19806   4.607   5.618   2.503 -0.8558 -1.8748  0.1406
  908MOL0     H19807   4.377   5.705   2.369 -0.2359  0.3880  0.7028
  908MOL0     H19808   4.436   5.747   2.539 -1.8912  1.1480 -0.2772
  908MOL0     H19809   4.390   5.570   2.734 -0.3235 -0.1469 -0.0013
  908MOL0     H19810   4.228   5.425   2.869  0.0397  0.0368 -0.2319
  908MOL0     H19811   4.137   5.307   2.770 -0.2213 -1.2666  2.9907
  908MOL0     H19812   3.984   5.487   2.707  1.4620  1.5332 -1.9335
  908MOL0     H19813   4.083   5.599   2.804  0.0687 -0.1325  0.7405
  908MOL0     H19814   4.018   5.462   3.010  1.0913  0.7504 -0.6978
  908MOL0     H19815   3.871   5.514   2.925 -1.2621 -2.2476 -1.9194
  908MOL0     H19816   3.985   5.251   2.977  1.6877  2.1139  0.4236
  908MOL0     H19817   3.914   5.269   2.815  1.8853 -2.3242 -0.0181
  908MOL0     H19818   3.615   5.511   2.978 -1.2069 -1.0857  1.5526
  908MOL0     H19819   3.478   5.577   2.799 -0.8440 -0.3145  0.1168
  908MOL0     H19820   3.169   5.445   2.425  2.3100 -1.3275  2.0703
  908MOL0     H19821   3.037   5.453   2.225  1.2460  2.5141 -2.0822
  908MOL0     H19822   3.126   5.449   1.801  0.9345  1.0691 -0.6830
  908MOL0     H19823   3.285   5.465   1.872  0.8313  4.3684  1.3882
  908MOL0     H19824   3.208   5.645   2.022 -0.3319  0.5834  0.3962
  908MOL0     H19825   3.038   5.599   1.972 -1.0881 -2.2855 -2.1230
  908MOL0     H19826   3.228   5.702   1.765  1.8452  3.7400  1.5217
  908MOL0     H19827   3.139   5.814   1.874  0.1717 -0.0805  0.3990
  908MOL0     H19828   3.006   5.602   1.698 -3.1928 -0.7090  0.7988
  908MOL0     H19829   2.926   5.706   1.823  1.5790 -1.4904  0.8635
  908MOL0     H19830   3.060   5.815   1.581  0.2582  1.6414 -0.0879
  908MOL0     H19831   2.975   5.914   1.709 -2.4522 -0.2598  0.8040
  908MOL0     H19832   2.765   5.776   1.630 -0.0808  1.7596  0.0221
  908MOL0     H19833   2.870   5.733   1.493  0.1740 -0.1975 -0.9629
  908MOL0     H19834   2.852   6.024   1.558 -0.2943  1.0917 -1.0031
  908MOL0     H19835   2.903   5.948   1.411 -0.7993  0.4158 -0.4193
  908MOL0     H19836   2.696   5.844   1.359  1.1195 -1.7062  1.9754
  908MOL0     H19837   2.666   6.014   1.364 -3.0057 -0.7338 -0.7033
  908MOL0     H19838   3.369   5.297   2.008  3.4781 -1.4582  1.4833
  908MOL0     H19839   3.521   5.287   2.210  0.8751  2.0606  1.0645
  908MOL0     H19840   3.560   5.188   2.607 -2.3129  1.1676 -0.8390
  908MOL0     H19841   3.691   5.122   2.790  0.8383  0.6926 -1.5989
  908MOL0     H19842   5.422   5.846   2.122  1.4499 -0.0472 -0.0615
  908MOL0     H19843   5.663   5.751   2.109  1.3209 -2.7933  0.1870
  908MOL0     H19844   5.902   5.480   2.124 -0.3638  0.5063 -0.3908
  908MOL0     H19845   6.089   5.351   2.214 -1.0051  1.0570  0.0383
  908MOL0     H19846   6.090   5.129   2.297  1.3062 -1.3237  3.9931
  908MOL0     H19847   6.258   5.168   2.286  1.4530  2.1537 -4.0497
  908MOL0     H19848   6.128   4.892   2.255 -0.3148  0.2208  2.0889
  908MOL0     H19849   6.295   4.917   2.226 -2.4754  0.5489 -4.4549
  908MOL0     H19850   6.227   5.040   2.481  3.2250  0.1591 -0.9898
  908MOL0     H19851   6.334   4.902   2.465  0.8675  1.9932  2.2733
  908MOL0     H19852   6.022   4.873   2.461  0.1782  1.9037 -3.2592
  908MOL0     H19853   6.145   4.748   2.467 -0.6377  0.3846 -1.2730
  908MOL0     H19854   6.102   4.843   2.873 -4.6613  0.7532 -0.2343
  908MOL0     H19855   6.049   5.092   1.873  1.3933  3.3783 -2.4951
  908MOL0     H19856   5.861   5.226   1.795  1.1874 -5.2663  1.0869
  909MOL0     O19857  11.166   9.404   9.445 -0.3832 -0.1581 -0.6295
  909MOL0     C19858  11.257   9.489   9.436  0.8331  0.2323  0.0326
  909MOL0     O19859  11.327   9.539   9.536  0.5431  0.0514  0.0032
  909MOL0     C19860  11.328   9.481   9.660 -0.3656  0.5584  0.3836
  909MOL0     C19861  11.350   9.349   9.688 -0.3046  0.1396  0.0238
  909MOL0     C19862  11.311   9.294   9.816 -0.4657  0.4094 -0.0786
  909MOL0     C19863  11.266   9.381   9.909  0.9448  0.7235 -0.2464
  909MOL0     O19864  11.221   9.330  10.024  0.1114  0.6239 -0.6602
  909MOL0     C19865  11.088   9.361  10.054  0.4733  0.2674  0.5915
  909MOL0     C19866  11.034   9.250  10.160  0.1876  1.4466  0.6568
  909MOL0     C19867  11.062   9.104  10.106 -0.3860 -0.1983 -0.8955
  909MOL0     C19868  11.013   9.001  10.214  0.7589  1.7488  0.2338
  909MOL0     C19869  11.064   8.860  10.180  1.5132 -0.4770 -0.3580
  909MOL0     C19870  10.976   8.752  10.246  0.0273 -0.0600 -0.4906
  909MOL0     C19871  11.047   8.617  10.249 -0.5217 -0.1193 -0.6195
  909MOL0     C19872  10.973   8.501  10.314  0.2066 -0.1357  0.1874
  909MOL0     N19873  11.066   8.395  10.344 -0.4829  0.4382  0.2370
  909MOL0     C19874  11.140   8.365  10.462  1.3175 -0.2866 -0.1107
  909MOL0     C19875  11.224   8.269  10.427 -0.0200  0.0172  0.9386
  909MOL0     C19876  11.340   8.211  10.501  0.6406 -0.5271  0.5515
  909MOL0     C19877  11.301   8.116  10.610  0.3963  1.1883  0.4165
  909MOL0     C19878  11.424   8.065  10.680 -0.2177 -0.6922  0.3197
  909MOL0     C19879  11.386   7.962  10.790 -1.0853  0.1952  0.5347
  909MOL0     O19880  11.453   7.834  10.766  0.2887 -0.1711 -0.2844
  909MOL0     C19881  11.473   7.752  10.880 -0.0784 -0.1017  0.8675
  909MOL0     C19882  11.398   7.767  10.995 -0.9522 -0.4079 -0.7822
  909MOL0     C19883  11.404   7.664  11.093 -0.7237  0.3168 -0.1501
  909MOL0     C19884  11.469   7.535  11.079 -0.4791 -0.2642  0.6085
  909MOL0     C19885  11.473   7.442  11.193  0.4780 -0.0440 -0.3990
  909MOL0     O19886  11.562   7.342  11.179 -0.8143 -0.1356  0.6629
  909MOL0     C19887  11.602   7.285  11.299 -0.0244  1.0597  0.2638
  909MOL0     C19888  11.737   7.269  11.325 -0.1062 -0.0837  0.1839
  909MOL0     C19889  11.774   7.212  11.446  1.2133 -0.0997  0.8437
  909MOL0     C19890  11.684   7.169  11.540  0.2399  0.3105 -0.4702
  909MOL0     O19891  11.739   7.126  11.661 -0.0056 -0.2432 -0.1328
  909MOL0     C19892  11.654   7.063  11.756 -0.3149  0.2648  0.8282
  909MOL0     C19893  11.581   7.168  11.843  0.3119  0.8418  0.1003
  909MOL0     C19894  11.684   7.228  11.947  0.4204  0.1660 -0.2530
  909MOL0     C19895  11.619   7.352  12.024  0.7877 -0.1090 -0.0259
  909MOL0     C19896  11.718   7.412  12.131  0.3775 -0.2012 -0.0642
  909MOL0     C19897  11.837   7.485  12.062  0.3813  0.3854 -1.5270
  909MOL0     C19898  11.927   7.543  12.180 -0.0849 -0.4149 -0.4999
  909MOL0     C19899  12.052   7.599  12.131 -0.9460 -0.8060 -0.0656
  909MOL0    Cl19900  12.147   7.666  12.265 -0.0746 -0.6206 -0.1218
  909MOL0     C19901  11.545   7.167  11.504  0.0305 -0.2156  0.0740
  909MOL0     C19902  11.507   7.225  11.380  0.1060  0.3053  0.2019
  909MOL0     O19903  11.398   7.465  11.286  0.1811 -0.1506  0.2624
  909MOL0     C19904  11.540   7.523  10.953  0.4056  0.4955  0.5402
  909MOL0     C19905  11.543   7.630  10.851  1.5264 -0.3334 -0.7947
  909MOL0     N19906  11.192   8.227  10.294  0.1533 -0.1385 -0.7520
  909MOL0     N19907  11.101   8.298  10.247  0.3709 -0.7603 -1.2342
  909MOL0     C19908  11.264   9.516   9.883 -1.2445  1.3458  0.5703
  909MOL0     C19909  11.299   9.561   9.757  0.0291  0.3600 -0.9840
  909MOL0     C19910  11.270   9.549   9.299 -0.5704 -0.2499 -0.0998
  909MOL0     C19911  11.345   9.662   9.267  0.5088  0.0597  0.1283
  909MOL0     C19912  11.344   9.715   9.138  0.0995 -0.3942 -0.3134
  909MOL0     C19913  11.276   9.666   9.025 -0.3804  0.0194 -0.2473
  909MOL0     O19914  11.277   9.729   8.906  0.4571 -0.2360 -0.9077
  909MOL0     C19915  11.296   9.641   8.792 -0.0361  2.0378  0.2773
  909MOL0     C19916  11.296   9.717   8.658 -0.2202 -0.3606 -0.0375
  909MOL0     C19917  11.212   9.835   8.661  0.3838 -0.8942 -0.0189
  909MOL0     C19918  11.128   9.854   8.528 -0.0203 -0.4098  0.0848
  909MOL0     C19919  11.032   9.745   8.511  0.1568  0.0663 -0.2805
  909MOL0     C19920  10.947   9.664   8.506 -0.0397  0.4301 -0.7060
  909MOL0     C19921  11.209   9.543   9.051 -0.4424 -0.7184 -0.0517
  909MOL0     C19922  11.217   9.486   9.183  0.4588 -0.9248 -0.0269
  909MOL0     H19923  11.396   9.283   9.615  1.5715 -0.0241  1.2740
  909MOL0     H19924  11.321   9.188   9.838 -3.4223  0.4412  2.1056
  909MOL0     H19925  11.026   9.346   9.965  2.7277  0.1041 -1.0419
  909MOL0     H19926  11.075   9.459  10.101 -0.7467  1.2840 -1.7011
  909MOL0     H19927  10.925   9.257  10.167  0.0892  2.0737 -0.9327
  909MOL0     H19928  11.081   9.266  10.258  2.9619  2.1200 -0.6678
  909MOL0     H19929  11.170   9.090  10.093  0.2351  1.6250  1.4665
  909MOL0     H19930  11.010   9.083  10.012  1.6675 -0.7844 -1.9857
  909MOL0     H19931  11.060   9.031  10.308  0.5010 -0.2983  1.0755
  909MOL0     H19932  10.906   9.007  10.234 -0.3304 -2.6405 -2.8538
  909MOL0     H19933  11.166   8.846  10.218  0.8705 -0.5505  1.4435
  909MOL0     H19934  11.053   8.832  10.075 -0.1231 -2.5097  0.2771
  909MOL0     H19935  10.883   8.746  10.189  2.5265 -0.4061 -4.9831
  909MOL0     H19936  10.945   8.785  10.346  0.3682 -1.3470  0.0681
  909MOL0     H19937  11.078   8.579  10.152 -1.1888  0.5228 -1.0972
  909MOL0     H19938  11.143   8.643  10.295 -0.4243  0.1740 -0.9900
  909MOL0     H19939  10.885   8.464  10.259  0.1147 -2.7575  1.8876
  909MOL0     H19940  10.945   8.549  10.408 -0.5458 -0.8757  0.3579
  909MOL0     H19941  11.112   8.411  10.557 -4.7557 -0.2000 -1.5128
  909MOL0     H19942  11.407   8.288  10.541 -1.1359  0.4816  1.7184
  909MOL0     H19943  11.410   8.159  10.435  1.3295  0.5908  0.3724
  909MOL0     H19944  11.243   8.035  10.565 -0.3074  2.0402 -0.2480
  909MOL0     H19945  11.241   8.167  10.686  2.6348 -0.0188  3.1959
  909MOL0     H19946  11.499   8.030  10.608  0.2258  1.0100 -0.0992
  909MOL0     H19947  11.487   8.139  10.730  2.5241 -1.5096 -1.6890
  909MOL0     H19948  11.277   7.952  10.796 -1.6041  3.9083 -0.3341
  909MOL0     H19949  11.427   8.014  10.878  3.1589 -1.0307 -0.4629
  909MOL0     H19950  11.332   7.852  11.012  0.2529  0.5597 -0.8087
  909MOL0     H19951  11.352   7.671  11.189  0.1786 -1.0929  0.4917
  909MOL0     H19952  11.812   7.308  11.257 -0.4790  0.5876  0.1467
  909MOL0     H19953  11.880   7.200  11.465  1.4802 -1.0196 -0.9303
  909MOL0     H19954  11.715   6.993  11.814  3.7792 -1.2426 -4.5007
  909MOL0     H19955  11.586   6.995  11.705  0.6450 -2.1966  2.6547
  909MOL0     H19956  11.505   7.111  11.898 -0.8333 -0.2888 -2.4708
  909MOL0     H19957  11.533   7.249  11.787 -1.8919 -0.0671  0.5881
  909MOL0     H19958  11.767   7.261  11.884 -0.0312  0.9236 -0.4602
  909MOL0     H19959  11.718   7.142  12.007 -0.9158 -1.2229 -1.3937
  909MOL0     H19960  11.589   7.416  11.941 -0.4579 -3.4189 -2.3602
  909MOL0     H19961  11.525   7.313  12.063  1.0514 -3.2044 -2.1115
  909MOL0     H19962  11.762   7.334  12.192  2.8029  3.1325  2.8468
  909MOL0     H19963  11.665   7.486  12.192 -1.2478  0.1604 -1.7888
  909MOL0     H19964  11.797   7.571  12.008 -1.9782  1.9284  2.2922
  909MOL0     H19965  11.901   7.423  11.997  2.4612  0.2409  0.5194
  909MOL0     H19966  11.876   7.621  12.237  3.6085  1.9611 -0.1304
  909MOL0     H19967  11.962   7.462  12.245 -0.7428 -0.0038  0.3665
  909MOL0     H19968  12.024   7.674  12.057  1.3221 -1.2250 -1.4643
  909MOL0     H19969  12.108   7.521  12.079 -2.7913 -1.9706 -0.3555
  909MOL0     H19970  11.462   7.125  11.560 -0.6356  2.3936  1.2178
  909MOL0     H19971  11.400   7.237  11.368 -0.4942 -1.9714  2.3892
  909MOL0     H19972  11.579   7.425  10.925 -0.1956  0.7386 -1.2521
  909MOL0     H19973  11.557   7.602  10.747  0.7595 -2.3341 -0.4072
  909MOL0     H19974  11.223   9.585   9.956 -2.9123 -1.0506  2.0783
  909MOL0     H19975  11.277   9.665   9.737  1.0068  1.3967  2.5600
  909MOL0     H19976  11.419   9.711   9.331  1.7232  4.2310 -3.8841
  909MOL0     H19977  11.411   9.799   9.123  1.6342 -1.0629  2.1428
  909MOL0     H19978  11.221   9.562   8.784 -0.6815  2.5253  1.2546
  909MOL0     H19979  11.389   9.586   8.807 -0.7388  1.0473  1.0786
  909MOL0     H19980  11.399   9.745   8.633  0.0582 -1.6485 -0.4138
  909MOL0     H19981  11.270   9.650   8.575  3.8137 -3.6375  0.9604
  909MOL0     H19982  11.264   9.926   8.694 -2.8920  0.4298  2.0345
  909MOL0     H19983  11.132   9.827   8.736  1.2020  0.7985  1.1148
  909MOL0     H19984  11.062   9.941   8.535 -1.6687 -1.7269  1.6486
  909MOL0     H19985  11.184   9.864   8.434 -1.5054  1.4531 -0.6795
  909MOL0     H19986  10.862   9.599   8.504  0.2171  0.0513  0.3969
  909MOL0     H19987  11.156   9.485   8.976 -2.3867 -3.5563  3.2262
  909MOL0     H19988  11.172   9.388   9.193  1.0936 -1.0057  3.1306
  910MOL0     O19989   8.327   4.570   7.590 -0.4365  0.5072 -0.8944
  910MOL0     C19990   8.400   4.635   7.665 -1.2935  0.7617 -0.8092
  910MOL0     O19991   8.483   4.592   7.770  0.5901 -0.1739  0.2148
  910MOL0     C19992   8.471   4.470   7.825  0.8539 -0.3449  0.5341
  910MOL0     C19993   8.590   4.400   7.858 -0.4181  0.5005  0.1904
  910MOL0     C19994   8.586   4.272   7.902 -0.2190 -0.8491  0.8471
  910MOL0     C19995   8.464   4.202   7.918 -0.8238 -0.3198  0.2646
  910MOL0     O19996   8.461   4.078   7.964 -0.3280 -0.4450  0.1872
  910MOL0     C19997   8.540   3.976   7.896 -0.2672  0.6824  0.4569
  910MOL0     C19998   8.471   3.841   7.922 -0.8394 -0.4723 -0.5173
  910MOL0     C19999   8.502   3.781   8.061  0.5050 -0.3097 -0.0259
  910MOL0     C20000   8.466   3.638   8.083  0.3142 -0.1771  0.2632
  910MOL0     C20001   8.480   3.577   8.228  0.0666 -1.0815  0.0474
  910MOL0     C20002   8.374   3.639   8.327 -0.2275 -0.6145  0.1155
  910MOL0     C20003   8.372   3.552   8.448  0.4271 -1.0302  0.9347
  910MOL0     C20004   8.279   3.608   8.554 -0.0823  0.0358  0.3543
  910MOL0     N20005   8.300   3.535   8.678  0.6435 -0.0342  0.0533
  910MOL0     C20006   8.331   3.404   8.699  0.4903  0.0323 -0.0654
  910MOL0     C20007   8.331   3.399   8.842 -0.0655  0.0994  0.3280
  910MOL0     C20008   8.338   3.273   8.921 -0.3591 -0.2400  0.1665
  910MOL0     C20009   8.206   3.204   8.954  0.0126 -0.9029  0.5263
  910MOL0     C20010   8.144   3.264   9.082  0.1311  0.5463 -0.2526
  910MOL0     C20011   8.220   3.217   9.207  0.8859 -0.3788 -0.0064
  910MOL0     O20012   8.151   3.128   9.297 -0.3435 -0.0803  0.2636
  910MOL0     C20013   8.044   3.164   9.377  0.3837 -0.9287 -0.0777
  910MOL0     C20014   8.010   3.077   9.474 -1.2673  0.4574 -0.3762
  910MOL0     C20015   7.927   3.111   9.578  0.1031 -0.2862  0.3019
  910MOL0     C20016   7.863   3.240   9.580 -0.1474 -0.3775 -0.3001
  910MOL0     C20017   7.764   3.278   9.680  0.6725  0.0159 -0.1123
  910MOL0     O20018   7.742   3.407   9.701  0.4645 -0.1200  0.1790
  910MOL0     C20019   7.627   3.456   9.764 -0.8917  0.5504 -0.6210
  910MOL0     C20020   7.610   3.594   9.750  0.4324 -0.2063 -0.7394
  910MOL0     C20021   7.476   3.644   9.774 -0.0027  0.4988  0.1248
  910MOL0     C20022   7.364   3.562   9.818 -0.8127 -0.4098 -0.6674
  910MOL0     O20023   7.244   3.626   9.843 -0.1673  0.8455 -0.2765
  910MOL0     C20024   7.136   3.553   9.905  0.4220 -0.7406 -0.2395
  910MOL0     C20025   7.033   3.664   9.936 -0.1974 -0.0506 -0.5733
  910MOL0     C20026   6.951   3.708   9.816  0.2641  0.2750  0.7731
  910MOL0     C20027   6.823   3.624   9.782 -0.8490 -0.0032 -0.2207
  910MOL0     C20028   6.722   3.700   9.692  0.0032  0.0412 -0.5308
  910MOL0     C20029   6.577   3.633   9.684 -0.3764 -0.4471 -0.1569
  910MOL0     C20030   6.591   3.480   9.686  0.4932 -1.3670 -0.7718
  910MOL0     C20031   6.447   3.409   9.677 -0.2050 -1.0646  0.5585
  910MOL0    Cl20032   6.341   3.420   9.820  0.4151  0.2457 -0.1225
  910MOL0     C20033   7.387   3.428   9.828  0.3717  0.9920  0.5747
  910MOL0     C20034   7.512   3.381   9.810 -0.6301  0.3676 -0.4615
  910MOL0     O20035   7.696   3.186   9.721  0.3222 -0.1901  0.3224
  910MOL0     C20036   7.896   3.329   9.477 -0.9675 -0.0094  0.4854
  910MOL0     C20037   7.989   3.292   9.382  0.4048  0.2270 -0.3660
  910MOL0     N20038   8.307   3.522   8.897  0.1878  0.1393 -0.1914
  910MOL0     N20039   8.277   3.599   8.802 -0.3063 -0.8715 -0.1732
  910MOL0     C20040   8.346   4.269   7.899  0.1254 -0.4114 -0.2560
  910MOL0     C20041   8.347   4.402   7.847 -0.1704  1.0875  0.2279
  910MOL0     C20042   8.396   4.774   7.642 -0.6111  1.3047  0.2310
  910MOL0     C20043   8.497   4.863   7.674 -0.0438 -0.5798 -1.5598
  910MOL0     C20044   8.503   4.997   7.631  0.5960 -0.2107 -0.3029
  910MOL0     C20045   8.399   5.051   7.559 -0.0742  0.6692 -0.4507
  910MOL0     O20046   8.397   5.181   7.526 -1.0642 -0.1341  0.0673
  910MOL0     C20047   8.486   5.279   7.591 -0.1612 -0.4062 -0.5537
  910MOL0     C20048   8.440   5.420   7.564  0.2303  0.6050 -0.1701
  910MOL0     C20049   8.495   5.529   7.652  1.2104  0.0455  0.2017
  910MOL0     C20050   8.615   5.608   7.583 -0.6955 -0.2456  0.1502
  910MOL0     C20051   8.580   5.727   7.504  0.0111  0.0670 -0.3396
  910MOL0     C20052   8.547   5.823   7.438  0.2350  0.0226  0.2766
  910MOL0     C20053   8.286   4.971   7.541 -0.2363  0.1789  0.4365
  910MOL0     C20054   8.291   4.832   7.571 -0.0322 -0.6329 -0.4155
  910MOL0     H20055   8.685   4.453   7.852 -0.1144  0.5621  3.6385
  910MOL0     H20056   8.681   4.224   7.921  0.1508 -0.9838 -1.1049
  910MOL0     H20057   8.640   3.970   7.941  0.2849 -0.2730 -0.8088
  910MOL0     H20058   8.560   3.989   7.789  0.0792 -0.5258  0.3607
  910MOL0     H20059   8.519   3.776   7.848  0.7751 -1.8818  1.6339
  910MOL0     H20060   8.362   3.839   7.918 -0.8621 -1.4131  0.0998
  910MOL0     H20061   8.434   3.834   8.129 -1.4066 -2.7460  0.1153
  910MOL0     H20062   8.610   3.787   8.077  0.2935 -1.9497  2.6543
  910MOL0     H20063   8.367   3.615   8.041  0.1537 -0.3697  0.7417
  910MOL0     H20064   8.538   3.580   8.024 -0.5653  1.2585 -2.3909
  910MOL0     H20065   8.578   3.600   8.270 -0.7027  0.8181  0.9197
  910MOL0     H20066   8.475   3.468   8.228  0.9803 -1.1412  0.9976
  910MOL0     H20067   8.273   3.644   8.286 -0.8803 -3.1081  1.2276
  910MOL0     H20068   8.401   3.741   8.354 -0.0208 -0.7284  0.3473
  910MOL0     H20069   8.339   3.449   8.432 -0.3334 -0.6178 -0.2156
  910MOL0     H20070   8.472   3.537   8.490 -1.0152 -2.2280  4.3330
  910MOL0     H20071   8.171   3.616   8.537 -0.6359  0.9488  3.5925
  910MOL0     H20072   8.317   3.710   8.569  3.2200 -0.9820 -0.3054
  910MOL0     H20073   8.338   3.320   8.631  1.8135 -0.3249  0.4786
  910MOL0     H20074   8.410   3.287   9.002  1.5295 -3.1988 -0.8476
  910MOL0     H20075   8.388   3.206   8.851  0.9526  0.3321  0.5310
  910MOL0     H20076   8.211   3.095   8.962  1.6069 -0.7793  1.5576
  910MOL0     H20077   8.134   3.220   8.873  1.8009 -1.3487 -1.2397
  910MOL0     H20078   8.149   3.373   9.075 -1.9646  0.7033  0.0768
  910MOL0     H20079   8.038   3.249   9.102  0.8320 -2.2902  2.0213
  910MOL0     H20080   8.251   3.305   9.264 -0.7146 -0.7328  1.4798
  910MOL0     H20081   8.308   3.162   9.171  0.9225  1.4108 -3.0713
  910MOL0     H20082   8.035   2.972   9.477 -2.8098  0.0553 -0.7441
  910MOL0     H20083   7.894   3.029   9.641  0.4385 -1.7057 -1.2968
  910MOL0     H20084   7.677   3.666   9.705  0.4005  2.2252  2.6918
  910MOL0     H20085   7.447   3.745   9.749 -0.1121  0.5542  0.4684
  910MOL0     H20086   7.161   3.496   9.995 -0.6874 -1.3103 -0.2674
  910MOL0     H20087   7.089   3.479   9.840  0.4868 -2.0489  1.1349
  910MOL0     H20088   7.096   3.748   9.966  2.5010 -2.5933  1.5548
  910MOL0     H20089   6.971   3.649  10.025  2.4432  1.6420  1.7478
  910MOL0     H20090   7.006   3.727   9.723 -0.0167  4.5577  1.2545
  910MOL0     H20091   6.916   3.809   9.843  2.1436  1.5540 -1.2100
  910MOL0     H20092   6.846   3.525   9.741  0.2919  1.3061 -2.9574
  910MOL0     H20093   6.780   3.590   9.877 -2.9241 -2.7829 -1.9755
  910MOL0     H20094   6.763   3.714   9.592 -1.0664  2.6160 -0.6814
  910MOL0     H20095   6.713   3.799   9.736 -0.4578 -0.7019  1.1134
  910MOL0     H20096   6.530   3.681   9.598 -1.2167  0.7960  0.9528
  910MOL0     H20097   6.517   3.668   9.769  1.4899  0.5062  0.8313
  910MOL0     H20098   6.644   3.449   9.596  1.8790  0.8100 -0.7953
  910MOL0     H20099   6.643   3.451   9.777  0.1030  1.9974  0.6520
  910MOL0     H20100   6.466   3.304   9.656 -0.8122 -0.7287 -2.1066
  910MOL0     H20101   6.401   3.460   9.592 -1.6549  1.5537  2.7619
  910MOL0     H20102   7.304   3.361   9.846  4.3640 -3.9094  3.7268
  910MOL0     H20103   7.517   3.279   9.846  1.1049 -0.1050 -1.8696
  910MOL0     H20104   7.854   3.429   9.468  0.9880  0.9891  1.6341
  910MOL0     H20105   8.022   3.373   9.319  0.7367 -0.1404 -0.6769
  910MOL0     H20106   8.253   4.218   7.924  1.5760 -1.7067  3.0616
  910MOL0     H20107   8.254   4.453   7.824  0.0445  1.7900  0.8757
  910MOL0     H20108   8.570   4.808   7.733 -2.4189 -1.8538  0.3614
  910MOL0     H20109   8.593   5.055   7.650  0.6640  0.7287 -3.0716
  910MOL0     H20110   8.587   5.262   7.552 -0.5530 -2.0401 -0.9622
  910MOL0     H20111   8.488   5.267   7.700  2.6788 -0.8884 -0.5744
  910MOL0     H20112   8.456   5.449   7.460  0.7925 -0.4535 -0.3889
  910MOL0     H20113   8.333   5.424   7.587  0.1319 -0.6015 -0.3301
  910MOL0     H20114   8.524   5.490   7.750  1.7403  0.3874  0.1850
  910MOL0     H20115   8.413   5.600   7.661 -1.4884 -2.5567 -1.8185
  910MOL0     H20116   8.677   5.659   7.657 -0.7338  0.8980 -0.5681
  910MOL0     H20117   8.679   5.535   7.533 -0.4463 -1.4521  2.1208
  910MOL0     H20118   8.527   5.907   7.375 -0.1649  0.1586  0.5788
  910MOL0     H20119   8.200   5.011   7.488  0.5680  0.3407 -0.7671
  910MOL0     H20120   8.205   4.773   7.538 -0.1665 -0.8454  0.2851
  911MOL0     O20121   2.568   6.696   6.168  0.5668  0.1857 -0.0219
  911MOL0     C20122   2.687   6.675   6.202 -0.3176 -0.2028 -0.4190
  911MOL0     O20123   2.723   6.579   6.286 -0.3002 -0.5694 -0.0464
  911MOL0     C20124   2.648   6.486   6.357  0.1203  0.0212  1.3910
  911MOL0     C20125   2.705   6.434   6.473  0.4796 -0.1144 -0.7089
  911MOL0     C20126   2.631   6.336   6.546 -0.2792 -0.8659  0.4289
  911MOL0     C20127   2.514   6.282   6.492 -0.6770  0.3560 -1.0090
  911MOL0     O20128   2.449   6.183   6.566  0.2795 -0.5548 -0.1037
  911MOL0     C20129   2.529   6.063   6.604 -0.1640 -2.3062  0.0018
  911MOL0     C20130   2.456   5.993   6.720  0.3402  0.5552  0.3340
  911MOL0     C20131   2.301   5.950   6.679 -0.2944 -0.3227 -0.8186
  911MOL0     C20132   2.294   5.839   6.565  0.4754  0.1702 -0.3151
  911MOL0     C20133   2.152   5.770   6.552  0.4780  0.5768  0.1601
  911MOL0     C20134   2.134   5.683   6.425 -0.2634 -0.0876 -0.1919
  911MOL0     C20135   1.987   5.644   6.406 -0.2386  0.1412  0.3749
  911MOL0     C20136   1.966   5.620   6.255  0.5091  0.3651 -0.4063
  911MOL0     N20137   1.842   5.544   6.233 -0.4223  0.3302 -0.7192
  911MOL0     C20138   1.823   5.410   6.271 -0.6412 -0.2012  0.7804
  911MOL0     C20139   1.708   5.380   6.206  0.3706  0.3575 -0.0604
  911MOL0     C20140   1.641   5.244   6.217 -0.2571  0.3689 -0.1888
  911MOL0     C20141   1.499   5.238   6.183  0.1292  0.4056  0.3390
  911MOL0     C20142   1.456   5.096   6.205  0.2102  0.7998  0.0649
  911MOL0     C20143   1.297   5.075   6.233 -0.5281 -0.5109  0.1214
  911MOL0     O20144   1.268   5.089   6.368  0.2585 -0.7218  0.0890
  911MOL0     C20145   1.142   5.054   6.406  0.5834 -0.7144  0.8656
  911MOL0     C20146   1.030   5.066   6.322  0.4952 -0.2690  0.3370
  911MOL0     C20147   0.902   5.024   6.362  0.6627 -0.3022 -0.2384
  911MOL0     C20148   0.885   4.967   6.490  1.0738  0.4336  0.0735
  911MOL0     C20149   0.738   4.933   6.530  0.1707 -0.1319  0.9766
  911MOL0     O20150   0.632   4.945   6.438 -0.3333 -0.2565 -0.1495
  911MOL0     C20151   0.505   4.931   6.487  0.1361 -0.2056  0.6088
  911MOL0     C20152   0.455   4.804   6.516 -0.6402  0.7314  1.2311
  911MOL0     C20153   0.327   4.788   6.571 -0.3618  1.1276 -0.2602
  911MOL0     C20154   0.242   4.888   6.592  0.2992  0.4322  1.4134
  911MOL0     O20155   0.109   4.856   6.630 -0.4564 -0.5413 -0.2754
  911MOL0     C20156   0.066   4.941   6.735  0.4411 -0.7422  0.7591
  911MOL0     C20157  -0.054   5.022   6.684  0.0690 -0.4068 -0.0186
  911MOL0     C20158  -0.147   4.930   6.603  0.4389  0.4019 -0.0108
  911MOL0     C20159  -0.290   4.986   6.573 -0.1090 -0.2428  0.3491
  911MOL0     C20160  -0.351   4.891   6.476 -0.3430  0.2015  0.0556
  911MOL0     C20161  -0.508   4.899   6.471 -0.4372  0.1372 -0.4161
  911MOL0     C20162  -0.555   5.037   6.411 -0.6880  0.3096 -0.1958
  911MOL0     C20163  -0.701   5.048   6.378 -0.7464 -0.8546  0.0503
  911MOL0    Cl20164  -0.733   5.208   6.305  0.2176  0.3364  0.1489
  911MOL0     C20165   0.284   5.016   6.556  0.2470 -0.3855  0.0900
  911MOL0     C20166   0.415   5.040   6.511  0.0362  0.3360  1.1986
  911MOL0     O20167   0.718   4.918   6.653  0.4137  0.6491  0.1247
  911MOL0     C20168   0.988   4.957   6.574 -0.2067 -0.2609 -0.5100
  911MOL0     C20169   1.116   5.019   6.538  0.5199  0.5987 -1.0235
  911MOL0     N20170   1.652   5.496   6.166 -0.6958  0.0203  0.5224
  911MOL0     N20171   1.734   5.592   6.167 -0.5658 -0.3710 -0.8627
  911MOL0     C20172   2.455   6.339   6.376 -0.2349 -0.5326 -0.0126
  911MOL0     C20173   2.526   6.436   6.308 -0.3265 -0.1855 -0.4919
  911MOL0     C20174   2.790   6.759   6.121  0.4791 -0.4227 -1.1480
  911MOL0     C20175   2.773   6.830   6.002 -0.2800  0.0459  0.2541
  911MOL0     C20176   2.870   6.919   5.955  0.2240  0.8804 -0.2388
  911MOL0     C20177   2.993   6.939   6.021  0.7882 -0.1519  0.6363
  911MOL0     O20178   3.076   7.041   5.969  0.0200  0.3744  0.1077
  911MOL0     C20179   3.179   7.094   6.045  0.1259 -0.0231 -0.2932
  911MOL0     C20180   3.305   7.022   6.003  0.1441 -0.3962 -0.5844
  911MOL0     C20181   3.332   7.035   5.845  0.6780  0.0347 -0.7954
  911MOL0     C20182   3.465   6.972   5.813 -0.5772 -0.1614  0.5346
  911MOL0     C20183   3.578   7.048   5.867  0.0657  0.2285 -0.0528
  911MOL0     C20184   3.671   7.120   5.898 -0.5028  0.2046 -0.3258
  911MOL0     C20185   3.017   6.860   6.135 -0.2180  0.7747  0.6016
  911MOL0     C20186   2.919   6.780   6.193  0.0238  0.1581 -0.9256
  911MOL0     H20187   2.795   6.476   6.517  0.2371  1.5399 -1.7420
  911MOL0     H20188   2.663   6.284   6.636 -2.3225 -0.3442  1.5363
  911MOL0     H20189   2.630   6.092   6.636 -0.3817  0.2048 -1.3710
  911MOL0     H20190   2.553   5.999   6.519  3.4281  0.5593 -1.3628
  911MOL0     H20191   2.420   6.059   6.800  0.7071 -0.8654  1.7084
  911MOL0     H20192   2.520   5.923   6.774 -1.3201  0.1954  1.8900
  911MOL0     H20193   2.237   6.036   6.658 -0.0291 -0.0621 -0.5730
  911MOL0     H20194   2.265   5.905   6.772 -0.4627  3.1054  0.9036
  911MOL0     H20195   2.331   5.889   6.475  0.2211  3.5078  1.2812
  911MOL0     H20196   2.371   5.768   6.598 -0.7868 -0.3824  1.5866
  911MOL0     H20197   2.073   5.845   6.542  0.7751  0.6496 -2.0363
  911MOL0     H20198   2.136   5.704   6.638  2.6666 -0.0802  0.1119
  911MOL0     H20199   2.196   5.594   6.436  2.2283  1.1932 -2.6470
  911MOL0     H20200   2.177   5.731   6.337  1.2793 -2.6590 -0.9309
  911MOL0     H20201   1.955   5.556   6.463 -2.2234  0.0525 -0.7771
  911MOL0     H20202   1.922   5.726   6.438 -0.0112  0.4779 -0.0198
  911MOL0     H20203   2.049   5.572   6.205  0.1475 -0.0628 -0.5979
  911MOL0     H20204   1.960   5.717   6.203 -1.5443 -0.2215 -1.3617
  911MOL0     H20205   1.891   5.336   6.314 -1.3900 -1.7058 -0.5228
  911MOL0     H20206   1.637   5.236   6.326 -0.1194  1.1651 -0.1143
  911MOL0     H20207   1.697   5.160   6.174 -1.9211  1.1822 -4.3694
  911MOL0     H20208   1.484   5.275   6.081  0.8702 -0.7559 -0.2096
  911MOL0     H20209   1.443   5.292   6.260  0.5076 -2.0740  2.5072
  911MOL0     H20210   1.466   5.041   6.111 -1.4780 -0.7529  0.7336
  911MOL0     H20211   1.509   5.041   6.284 -1.8839 -0.9303  0.3588
  911MOL0     H20212   1.268   4.975   6.198  0.4817 -1.1375  1.0105
  911MOL0     H20213   1.245   5.153   6.178  1.1505 -0.4696 -1.4863
  911MOL0     H20214   1.043   5.094   6.218  1.2125  0.5096  0.6235
  911MOL0     H20215   0.813   5.043   6.304 -1.4677 -2.9388  1.8613
  911MOL0     H20216   0.521   4.720   6.496  0.5239 -0.3700  7.6175
  911MOL0     H20217   0.295   4.687   6.593  0.3870  0.9100 -0.1509
  911MOL0     H20218   0.146   5.004   6.773  1.1538  0.9348 -3.1220
  911MOL0     H20219   0.035   4.866   6.808 -0.2736 -0.2280  0.9953
  911MOL0     H20220  -0.031   5.106   6.617  2.7242  0.6960  2.1075
  911MOL0     H20221  -0.101   5.068   6.771  2.0491  0.8942  0.4256
  911MOL0     H20222  -0.151   4.828   6.642  1.2457  1.5440  3.3208
  911MOL0     H20223  -0.101   4.929   6.504  1.3340  0.8527  0.3937
  911MOL0     H20224  -0.343   4.997   6.668 -0.2395 -0.9325  0.3678
  911MOL0     H20225  -0.288   5.085   6.527 -1.1258 -1.5147 -2.7427
  911MOL0     H20226  -0.325   4.790   6.511  0.8868 -0.1036 -1.6512
  911MOL0     H20227  -0.304   4.908   6.380  4.0326 -2.3762  1.4585
  911MOL0     H20228  -0.538   4.899   6.576  3.3409 -1.4116  0.8634
  911MOL0     H20229  -0.554   4.815   6.419 -2.3506  0.1163  1.1942
  911MOL0     H20230  -0.528   5.113   6.485 -2.0019 -0.0238  0.6592
  911MOL0     H20231  -0.503   5.062   6.318 -0.8562 -1.2043 -0.7276
  911MOL0     H20232  -0.765   5.042   6.466 -1.2038  1.3818 -0.0741
  911MOL0     H20233  -0.732   4.972   6.306 -0.1418 -0.4568 -0.6522
  911MOL0     H20234   0.226   5.103   6.584  0.4774  0.1370 -0.9985
  911MOL0     H20235   0.450   5.142   6.501  3.9435 -1.0483 -3.2322
  911MOL0     H20236   0.986   4.926   6.678  0.9363  4.8378  1.3437
  911MOL0     H20237   1.199   5.005   6.607  0.3384 -0.9526 -1.0720
  911MOL0     H20238   2.356   6.321   6.335  0.2305 -0.2599 -1.2889
  911MOL0     H20239   2.478   6.474   6.218 -0.2275 -1.8903 -1.2938
  911MOL0     H20240   2.686   6.806   5.941  1.9889 -1.8095 -2.4805
  911MOL0     H20241   2.851   6.978   5.866 -1.9559  3.1043  1.5723
  911MOL0     H20242   3.157   7.083   6.151  1.9383  1.5940  0.2933
  911MOL0     H20243   3.197   7.200   6.026  1.4087 -0.0756  0.5542
  911MOL0     H20244   3.386   7.065   6.062 -0.3262  0.4904 -0.5600
  911MOL0     H20245   3.296   6.915   6.021  1.5011 -0.5676 -0.8225
  911MOL0     H20246   3.319   7.135   5.802  0.1346  0.4898  0.3533
  911MOL0     H20247   3.251   6.982   5.795 -1.4766  2.4250 -0.0460
  911MOL0     H20248   3.471   6.868   5.847 -0.7280  0.2928  2.0230
  911MOL0     H20249   3.480   6.962   5.705 -0.1525 -2.0183  0.7320
  911MOL0     H20250   3.742   7.199   5.914  0.8472 -0.6792 -1.6906
  911MOL0     H20251   3.115   6.854   6.182 -0.8024  0.2434  1.8162
  911MOL0     H20252   2.951   6.719   6.277  0.1123 -0.5498 -1.4598
  912MOL0     O20253   0.008   7.326   7.259 -0.5036 -0.3243  0.0443
  912MOL0     C20254  -0.048   7.303   7.152  0.3450 -0.1022 -0.3497
  912MOL0     O20255   0.012   7.309   7.028  0.2180 -0.4172  0.3005
  912MOL0     C20256   0.142   7.276   7.013  0.5935  0.5099 -0.0035
  912MOL0     C20257   0.239   7.358   7.064  0.4118  0.5974  1.1247
  912MOL0     C20258   0.377   7.327   7.043  0.2939  0.5117  0.3496
  912MOL0     C20259   0.408   7.221   6.967 -0.7732 -0.3722 -0.2391
  912MOL0     O20260   0.540   7.185   6.946  0.1077  0.6554  0.4847
  912MOL0     C20261   0.619   7.164   7.060  0.2060 -0.3515 -0.7413
  912MOL0     C20262   0.746   7.102   7.013  0.0092 -0.3281 -0.1288
  912MOL0     C20263   0.820   7.160   6.893 -0.4292 -0.2503 -0.2106
  912MOL0     C20264   0.913   7.282   6.925 -0.2546 -0.2895 -1.0555
  912MOL0     C20265   0.933   7.376   6.802  0.7444  0.0928  0.5210
  912MOL0     C20266   1.002   7.311   6.684  0.0956  0.5879 -0.1175
  912MOL0     C20267   1.155   7.268   6.709 -0.6658  0.0403  0.0412
  912MOL0     C20268   1.210   7.204   6.579  0.1911  0.4078 -0.5096
  912MOL0     N20269   1.357   7.237   6.546 -0.2402 -0.7562  0.3530
  912MOL0     C20270   1.418   7.358   6.532 -0.2020 -0.4450  0.3453
  912MOL0     C20271   1.545   7.323   6.483 -1.0389  0.4127 -0.7004
  912MOL0     C20272   1.661   7.416   6.447 -0.0670 -0.0121 -0.3384
  912MOL0     C20273   1.708   7.509   6.565  0.3393  0.6277  1.8016
  912MOL0     C20274   1.850   7.568   6.545 -0.0909 -0.2195 -0.9663
  912MOL0     C20275   1.906   7.628   6.675 -0.1299 -0.3201 -0.6894
  912MOL0     O20276   1.800   7.724   6.719  0.2441  0.7749  0.3647
  912MOL0     C20277   1.832   7.840   6.784  0.2841  0.2625 -0.5021
  912MOL0     C20278   1.963   7.889   6.801 -0.5101  0.2370  0.5404
  912MOL0     C20279   1.988   7.985   6.894 -0.4217 -1.0111 -0.0345
  912MOL0     C20280   1.885   8.053   6.954  0.8498  0.4651  0.2065
  912MOL0     C20281   1.922   8.146   7.057  0.3485  0.0916 -0.2556
  912MOL0     O20282   2.059   8.143   7.086 -0.6504  0.1228 -0.1937
  912MOL0     C20283   2.112   8.184   7.202 -0.8606  0.5031  0.2041
  912MOL0     C20284   2.062   8.248   7.312  0.2858 -0.1725 -0.3819
  912MOL0     C20285   2.134   8.274   7.430  0.3491 -0.4305  0.7520
  912MOL0     C20286   2.269   8.250   7.433 -0.8082 -0.5576 -0.3391
  912MOL0     O20287   2.362   8.301   7.519  0.8261 -0.0601 -0.1574
  912MOL0     C20288   2.319   8.379   7.632 -0.4415  0.4223 -0.5265
  912MOL0     C20289   2.420   8.385   7.745 -0.5817  0.3602 -0.2034
  912MOL0     C20290   2.558   8.440   7.702  0.6856 -0.4382  0.6638
  912MOL0     C20291   2.641   8.459   7.830  0.4538  1.2867  0.2996
  912MOL0     C20292   2.776   8.533   7.807 -0.1516  0.1209  0.7181
  912MOL0     C20293   2.812   8.600   7.943 -0.2023  0.5298 -0.5170
  912MOL0     C20294   2.934   8.690   7.909 -0.8615  0.0960 -0.3504
  912MOL0     C20295   2.965   8.788   8.025 -0.5593 -0.1556  0.0847
  912MOL0    Cl20296   3.088   8.905   7.974 -0.1568  0.0402 -0.4706
  912MOL0     C20297   2.325   8.185   7.326  0.4808 -0.2395 -1.0768
  912MOL0     C20298   2.250   8.144   7.216 -0.1357 -0.6358  0.8471
  912MOL0     O20299   1.827   8.203   7.117 -0.6841 -0.3084  0.4572
  912MOL0     C20300   1.753   8.025   6.917  0.1385 -0.5561  0.1483
  912MOL0     C20301   1.722   7.909   6.827 -0.5575 -0.3278 -0.3234
  912MOL0     N20302   1.564   7.187   6.499  0.2610  0.4448  0.7535
  912MOL0     N20303   1.445   7.134   6.533 -0.1647  0.8430 -0.6300
  912MOL0     C20304   0.316   7.140   6.914  0.1147  0.0175  0.1850
  912MOL0     C20305   0.180   7.163   6.930  0.8835 -0.6591 -0.5842
  912MOL0     C20306  -0.189   7.253   7.169 -0.9119 -0.3009 -0.4502
  912MOL0     C20307  -0.269   7.279   7.287 -1.0809  0.3495  0.4304
  912MOL0     C20308  -0.399   7.239   7.302 -0.1146  0.5403 -1.3281
  912MOL0     C20309  -0.460   7.165   7.201 -1.4637  0.5024  0.1914
  912MOL0     O20310  -0.586   7.127   7.220 -0.2999 -0.6243  0.5762
  912MOL0     C20311  -0.655   7.064   7.118  0.1148  0.1027 -0.1965
  912MOL0     C20312  -0.796   7.043   7.163  0.1627  0.4506  0.2677
  912MOL0     C20313  -0.875   6.959   7.063 -1.3036 -0.2748 -0.1950
  912MOL0     C20314  -1.020   6.951   7.105  0.5284 -0.1190  0.2635
  912MOL0     C20315  -1.054   6.921   7.245 -0.2093  0.0671 -0.8522
  912MOL0     C20316  -1.088   6.907   7.362  0.0790  0.2755  0.2910
  912MOL0     C20317  -0.379   7.133   7.088  0.3559 -0.2474 -0.7990
  912MOL0     C20318  -0.247   7.173   7.074 -0.1375 -0.3970 -0.5591
  912MOL0     H20319   0.207   7.446   7.119 -0.7645  1.3300 -0.6264
  912MOL0     H20320   0.455   7.392   7.082  0.6473  0.3257 -0.0322
  912MOL0     H20321   0.567   7.102   7.134  0.7738  1.4239  1.2564
  912MOL0     H20322   0.638   7.259   7.111 -1.8051  0.2898 -1.1304
  912MOL0     H20323   0.716   7.001   6.984  0.0164 -0.3224 -0.1550
  912MOL0     H20324   0.822   7.110   7.091 -1.1200  4.3689  0.8232
  912MOL0     H20325   0.737   7.175   6.823 -0.9947 -1.8634  0.0670
  912MOL0     H20326   0.888   7.084   6.854 -0.9908 -1.3298  0.8213
  912MOL0     H20327   0.873   7.337   7.010 -2.0005  3.2338 -3.8807
  912MOL0     H20328   1.010   7.242   6.954 -0.2440  0.8644  0.6148
  912MOL0     H20329   0.980   7.468   6.839  0.4868  0.1060  0.8268
  912MOL0     H20330   0.839   7.411   6.759  0.8605  0.0088  0.1993
  912MOL0     H20331   0.995   7.388   6.607 -2.4997  2.0923  1.4964
  912MOL0     H20332   0.948   7.220   6.653 -3.5325  2.5012  0.1000
  912MOL0     H20333   1.205   7.356   6.749 -2.1063  0.1939  1.6241
  912MOL0     H20334   1.154   7.191   6.787 -3.0713  0.8545  0.9047
  912MOL0     H20335   1.138   7.236   6.503 -4.4383 -0.6236  3.0204
  912MOL0     H20336   1.204   7.096   6.596  0.7888  0.4124 -0.2518
  912MOL0     H20337   1.385   7.461   6.543 -0.0792  0.0574 -2.9024
  912MOL0     H20338   1.634   7.474   6.359 -3.3084  1.5490  1.4914
  912MOL0     H20339   1.738   7.339   6.430  0.5427  0.2335  1.1669
  912MOL0     H20340   1.709   7.449   6.656 -1.3333 -3.4503 -0.5559
  912MOL0     H20341   1.629   7.584   6.572 -1.5185 -1.0779  0.5234
  912MOL0     H20342   1.918   7.496   6.500  0.9550  1.2616 -1.8423
  912MOL0     H20343   1.832   7.645   6.469 -0.4481  2.8082  1.9768
  912MOL0     H20344   2.008   7.664   6.663 -0.4489  1.1029  0.5443
  912MOL0     H20345   1.909   7.546   6.747  2.5891  1.5358  1.4842
  912MOL0     H20346   2.045   7.835   6.755 -1.9178 -0.0782 -1.7401
  912MOL0     H20347   2.091   8.017   6.908 -0.7937 -0.8636  3.1905
  912MOL0     H20348   1.955   8.270   7.320  0.8536  2.3609  3.8744
  912MOL0     H20349   2.088   8.317   7.519 -1.5249 -2.9451  1.0990
  912MOL0     H20350   2.225   8.344   7.676 -1.5210  1.8662 -1.5986
  912MOL0     H20351   2.306   8.483   7.600 -3.8841 -0.3733 -2.1144
  912MOL0     H20352   2.423   8.287   7.795  1.7920  1.4059  1.9371
  912MOL0     H20353   2.386   8.438   7.834 -0.1433 -1.3159  1.0128
  912MOL0     H20354   2.545   8.536   7.651 -0.0908 -1.1164 -0.4495
  912MOL0     H20355   2.611   8.373   7.633  0.0787 -0.6528  0.4014
  912MOL0     H20356   2.590   8.520   7.905 -1.0725  0.1130  0.2703
  912MOL0     H20357   2.654   8.357   7.866  0.9388  1.1329 -0.2938
  912MOL0     H20358   2.772   8.607   7.727  0.1413 -1.4211 -0.7883
  912MOL0     H20359   2.850   8.458   7.776 -1.4710 -0.5352 -1.0243
  912MOL0     H20360   2.842   8.529   8.021 -1.1990  1.4526  0.7561
  912MOL0     H20361   2.739   8.668   7.988 -1.7322 -1.0416 -0.4662
  912MOL0     H20362   3.021   8.628   7.885 -0.4356  0.5822 -0.0999
  912MOL0     H20363   2.907   8.746   7.820 -1.5867 -2.3598 -1.7589
  912MOL0     H20364   3.006   8.737   8.113 -1.9206 -1.6197 -0.0941
  912MOL0     H20365   2.874   8.841   8.057  0.3612  0.7925  1.2289
  912MOL0     H20366   2.430   8.157   7.330 -0.2659 -3.2292  0.7621
  912MOL0     H20367   2.294   8.094   7.131 -0.3372 -0.2255  0.4940
  912MOL0     H20368   1.670   8.072   6.969 -0.8363 -2.2662  0.2003
  912MOL0     H20369   1.621   7.878   6.801 -0.3626 -0.6066 -0.7500
  912MOL0     H20370   0.348   7.048   6.868 -1.8788 -0.1995 -0.8506
  912MOL0     H20371   0.102   7.097   6.892  0.3006 -0.3798  0.1024
  912MOL0     H20372  -0.235   7.343   7.369 -3.8702  0.4384  1.6056
  912MOL0     H20373  -0.461   7.261   7.388  1.6247  2.1326 -0.4103
  912MOL0     H20374  -0.604   6.971   7.089  1.6610  1.3312 -1.5925
  912MOL0     H20375  -0.658   7.122   7.025  0.2283  0.5022  0.0471
  912MOL0     H20376  -0.793   6.989   7.259 -2.8548  2.0899  1.4195
  912MOL0     H20377  -0.854   7.132   7.186 -1.9277 -0.4222 -1.3070
  912MOL0     H20378  -0.832   6.859   7.069  1.5481  0.9212  0.9553
  912MOL0     H20379  -0.854   6.989   6.960  0.8273  2.7415  0.9672
  912MOL0     H20380  -1.069   7.048   7.087  1.3102 -0.1229 -2.2587
  912MOL0     H20381  -1.073   6.879   7.042 -0.6918  0.8784  0.0952
  912MOL0     H20382  -1.130   6.906   7.461 -0.6433 -1.6211  0.0011
  912MOL0     H20383  -0.424   7.071   7.011  0.1128 -2.1112  0.7482
  912MOL0     H20384  -0.199   7.152   6.979 -1.2342 -1.5513 -0.8928
  913MOL0     O20385   8.503   8.095   6.450  0.0524 -0.2978 -0.0078
  913MOL0     C20386   8.569   8.191   6.472  0.0180  1.4910  0.0735
  913MOL0     O20387   8.523   8.312   6.507  0.1331  0.5466 -0.0129
  913MOL0     C20388   8.402   8.340   6.562  0.7531 -0.0963  0.9677
  913MOL0     C20389   8.356   8.292   6.683 -0.5036 -0.3130 -0.2745
  913MOL0     C20390   8.235   8.338   6.743  0.9821  0.3801  0.1013
  913MOL0     C20391   8.154   8.429   6.675 -0.1525 -0.3144  0.1771
  913MOL0     O20392   8.029   8.457   6.723 -0.6951  0.2017  0.0501
  913MOL0     C20393   7.952   8.565   6.672  0.0308  0.1010 -0.6567
  913MOL0     C20394   7.850   8.614   6.772  0.1933  0.0111 -1.0025
  913MOL0     C20395   7.765   8.722   6.705  1.2886  0.1996 -0.1277
  913MOL0     C20396   7.652   8.752   6.794  1.1010 -0.2818 -0.4862
  913MOL0     C20397   7.584   8.883   6.743 -0.0849  0.5523 -0.8494
  913MOL0     C20398   7.454   8.908   6.819 -1.0824  0.4432  0.1138
  913MOL0     C20399   7.371   9.014   6.755  0.8427 -0.5495 -0.1104
  913MOL0     C20400   7.229   9.020   6.814  0.2687 -1.4111  0.1559
  913MOL0     N20401   7.136   9.061   6.715  0.1490 -0.8370  0.2705
  913MOL0     C20402   7.034   9.153   6.730 -0.8348 -0.2618  0.6804
  913MOL0     C20403   6.976   9.176   6.602  0.2355  0.4389 -0.7486
  913MOL0     C20404   6.858   9.267   6.564 -0.2255  0.9028  0.3899
  913MOL0     C20405   6.718   9.203   6.581 -1.0031 -0.4124  0.6050
  913MOL0     C20406   6.621   9.314   6.569  0.3591 -0.3606  0.6417
  913MOL0     C20407   6.480   9.248   6.555 -0.3138  0.0498 -0.2781
  913MOL0     O20408   6.389   9.342   6.619  0.2085 -0.1157  0.6303
  913MOL0     C20409   6.260   9.321   6.590 -0.4210 -0.0493  0.5543
  913MOL0     C20410   6.171   9.424   6.554 -1.2367  0.0548 -0.1900
  913MOL0     C20411   6.043   9.399   6.527  0.9843  0.0717  0.0623
  913MOL0     C20412   5.982   9.270   6.540  0.7269  0.2153  0.2377
  913MOL0     C20413   5.827   9.261   6.518  0.0554 -0.3474  0.0265
  913MOL0     O20414   5.775   9.312   6.408 -0.5295 -0.2333 -0.2366
  913MOL0     C20415   5.646   9.279   6.376 -0.2212  0.2327  0.7909
  913MOL0     C20416   5.610   9.175   6.286 -0.1702 -0.9467  0.6237
  913MOL0     C20417   5.477   9.150   6.256  0.2548  0.1733  0.5292
  913MOL0     C20418   5.383   9.198   6.339 -0.0102 -0.2919  0.2206
  913MOL0     O20419   5.251   9.155   6.330 -0.0032  0.1278  0.1446
  913MOL0     C20420   5.167   9.226   6.232 -0.0834 -0.1940 -0.2140
  913MOL0     C20421   5.086   9.320   6.317  0.8446  0.5955 -0.1206
  913MOL0     C20422   5.010   9.247   6.435  0.4753 -0.4371 -1.0215
  913MOL0     C20423   4.953   9.342   6.536 -0.1144 -0.5081 -0.1677
  913MOL0     C20424   4.870   9.264   6.639 -0.0267  0.6644 -0.1759
  913MOL0     C20425   4.836   9.341   6.775 -0.5750 -0.0671  0.0023
  913MOL0     C20426   4.734   9.452   6.740 -0.5145  0.9577  0.0688
  913MOL0     C20427   4.641   9.462   6.846 -0.8002  0.2208  0.5675
  913MOL0    Cl20428   4.529   9.323   6.842 -0.0284 -0.0771 -0.5409
  913MOL0     C20429   5.417   9.289   6.442 -0.2851  0.9909 -0.2909
  913MOL0     C20430   5.548   9.336   6.452 -0.9244  0.0564 -0.0963
  913MOL0     O20431   5.766   9.196   6.607 -0.3121  0.1108 -0.5499
  913MOL0     C20432   6.071   9.165   6.581  0.1891  0.6849  0.5461
  913MOL0     C20433   6.209   9.193   6.598  0.0083  0.2769 -0.7016
  913MOL0     N20434   7.038   9.095   6.516 -0.6042  0.5677 -0.4482
  913MOL0     N20435   7.132   9.023   6.585  0.1422 -0.3499  0.4270
  913MOL0     C20436   8.194   8.470   6.550 -0.0740 -1.0784 -0.0895
  913MOL0     C20437   8.323   8.430   6.487  0.3094 -0.2703 -0.3292
  913MOL0     C20438   8.717   8.183   6.456 -1.5668  0.1998  0.0744
  913MOL0     C20439   8.800   8.286   6.500 -0.0188 -0.0484 -0.3617
  913MOL0     C20440   8.937   8.282   6.508 -0.0992  0.2841  0.1417
  913MOL0     C20441   9.000   8.169   6.443  0.5579  0.4375  0.2159
  913MOL0     O20442   9.136   8.152   6.451  0.2097  0.9268 -0.5350
  913MOL0     C20443   9.182   8.047   6.535 -0.5931  0.4297 -0.5915
  913MOL0     C20444   9.325   8.066   6.593  0.2788 -0.3935 -0.7306
  913MOL0     C20445   9.446   8.034   6.505  0.3920 -0.0318  0.5955
  913MOL0     C20446   9.462   8.132   6.385 -0.2373 -0.1304 -0.2856
  913MOL0     C20447   9.585   8.099   6.313  0.3825 -0.6313 -0.5925
  913MOL0     C20448   9.694   8.097   6.256 -0.6423  0.0302  0.0795
  913MOL0     C20449   8.919   8.054   6.410  0.0851 -0.6777 -0.3838
  913MOL0     C20450   8.780   8.071   6.404  0.1250  0.3610  0.3308
  913MOL0     H20451   8.414   8.230   6.750 -1.7464  0.2817  1.4092
  913MOL0     H20452   8.196   8.302   6.838 -3.8653  1.4620 -1.1787
  913MOL0     H20453   7.901   8.534   6.580  0.6698 -1.7910 -0.4252
  913MOL0     H20454   8.021   8.647   6.652 -1.6276  2.9465  3.6814
  913MOL0     H20455   7.912   8.655   6.853  0.9842  0.1640 -1.6744
  913MOL0     H20456   7.790   8.532   6.814 -1.3118  1.5690  0.0182
  913MOL0     H20457   7.726   8.695   6.606 -2.3574 -0.1994  1.2661
  913MOL0     H20458   7.824   8.813   6.689  0.0095  1.0926  0.0891
  913MOL0     H20459   7.586   8.665   6.784  1.7807 -0.8445 -0.1917
  913MOL0     H20460   7.677   8.759   6.900  0.2739  1.0557 -0.3667
  913MOL0     H20461   7.551   8.862   6.641 -1.6654 -3.5437  0.3078
  913MOL0     H20462   7.645   8.973   6.752  0.0278  0.4667 -0.7565
  913MOL0     H20463   7.482   8.934   6.921  0.6748 -4.6138  1.2252
  913MOL0     H20464   7.405   8.810   6.825  3.2038 -1.8901  1.1493
  913MOL0     H20465   7.410   9.113   6.780  0.6806 -0.1087 -1.4971
  913MOL0     H20466   7.378   8.996   6.647  1.1059  2.3599 -0.6582
  913MOL0     H20467   7.222   9.090   6.898 -3.4836 -0.8582 -0.4277
  913MOL0     H20468   7.184   8.924   6.842 -2.2635 -0.9341 -1.9706
  913MOL0     H20469   7.001   9.205   6.819 -1.4517  1.8643 -0.7029
  913MOL0     H20470   6.870   9.279   6.456  3.4822 -0.0824  0.5353
  913MOL0     H20471   6.876   9.357   6.624  2.9472 -0.3640  1.5840
  913MOL0     H20472   6.717   9.151   6.677  1.6597 -0.3057  0.7379
  913MOL0     H20473   6.710   9.126   6.504 -0.7489 -0.9318  1.0979
  913MOL0     H20474   6.623   9.372   6.662 -1.1355  0.0903  0.4243
  913MOL0     H20475   6.641   9.379   6.483 -0.4968 -2.2032 -1.0323
  913MOL0     H20476   6.467   9.151   6.603 -3.1418  0.2082 -0.5630
  913MOL0     H20477   6.472   9.235   6.446  0.5658  0.0957 -0.3582
  913MOL0     H20478   6.195   9.529   6.563 -2.8992  0.3096  2.0791
  913MOL0     H20479   5.971   9.480   6.516  1.9147  1.0108  0.6957
  913MOL0     H20480   5.687   9.139   6.218 -0.1719 -1.5908  0.9568
  913MOL0     H20481   5.447   9.088   6.173 -1.5647 -0.3390  1.5285
  913MOL0     H20482   5.094   9.154   6.194 -0.9007  0.6928 -0.3447
  913MOL0     H20483   5.220   9.269   6.147  2.3087 -0.6399  0.9543
  913MOL0     H20484   5.006   9.372   6.263 -0.0656 -2.5348 -2.0746
  913MOL0     H20485   5.158   9.385   6.367  1.0586  0.4305 -0.2117
  913MOL0     H20486   5.070   9.173   6.489 -0.6515  0.1069  1.0842
  913MOL0     H20487   4.931   9.182   6.395 -2.6707  0.2794  3.2944
  913MOL0     H20488   5.042   9.385   6.584  1.9327 -4.3723 -0.0631
  913MOL0     H20489   4.890   9.415   6.484 -2.0928 -1.5502  0.6497
  913MOL0     H20490   4.916   9.169   6.665 -1.5996  0.3956  1.9116
  913MOL0     H20491   4.782   9.219   6.592  0.3864  1.2828 -1.5961
  913MOL0     H20492   4.923   9.374   6.833 -1.3376 -0.6149  1.4908
  913MOL0     H20493   4.783   9.269   6.837 -2.0442  0.7656 -0.2405
  913MOL0     H20494   4.783   9.546   6.714  1.6436 -0.1047 -0.0134
  913MOL0     H20495   4.675   9.425   6.652 -1.5943 -0.0679  1.0643
  913MOL0     H20496   4.584   9.555   6.844 -0.2934  0.5372  0.4587
  913MOL0     H20497   4.698   9.459   6.939 -0.1716 -2.6133  0.1961
  913MOL0     H20498   5.338   9.326   6.506  1.0010  0.3923  1.7499
  913MOL0     H20499   5.586   9.401   6.530  0.3804  1.5595 -1.9006
  913MOL0     H20500   6.031   9.065   6.591  1.2393  0.0492 -1.2174
  913MOL0     H20501   6.277   9.114   6.627  0.3275  0.6140 -0.5304
  913MOL0     H20502   8.127   8.532   6.490 -0.7038 -0.4618  1.2213
  913MOL0     H20503   8.353   8.475   6.393 -0.2607  4.4838  1.5078
  913MOL0     H20504   8.751   8.371   6.547 -0.3364 -0.7141  0.5299
  913MOL0     H20505   8.984   8.366   6.559 -0.1258  0.3807  0.0055
  913MOL0     H20506   9.188   7.951   6.484  3.1405 -0.6836  1.5755
  913MOL0     H20507   9.111   8.026   6.616  0.0926  1.2694  0.2535
  913MOL0     H20508   9.325   8.173   6.617  1.1619 -0.5870  0.1970
  913MOL0     H20509   9.340   8.001   6.680 -3.8258 -2.1554 -1.1385
  913MOL0     H20510   9.435   7.932   6.468 -1.2487 -0.1917  1.4103
  913MOL0     H20511   9.544   8.053   6.548  0.5779  0.1445  0.1061
  913MOL0     H20512   9.377   8.118   6.317  1.4071 -2.3242 -2.0118
  913MOL0     H20513   9.462   8.235   6.422 -2.3896  1.0176 -3.0984
  913MOL0     H20514   9.792   8.093   6.213 -0.1277 -1.7227  1.3135
  913MOL0     H20515   8.964   7.961   6.378 -2.8205 -2.0033 -0.9239
  913MOL0     H20516   8.725   7.985   6.366  0.8557  0.9552 -2.2251
  914MOL0     O20517   3.440   5.750   7.839  0.3655 -0.7304  0.2861
  914MOL0     C20518   3.546   5.809   7.821  0.2329  0.2278  0.1462
  914MOL0     O20519   3.574   5.944   7.831  0.1873  0.1953 -0.2574
  914MOL0     C20520   3.472   6.038   7.832 -0.6136  0.4965 -0.7938
  914MOL0     C20521   3.347   6.018   7.786 -0.3617  0.2270 -0.4924
  914MOL0     C20522   3.251   6.119   7.784 -0.4647  0.4324  0.1634
  914MOL0     C20523   3.272   6.247   7.841 -1.1417  0.8682 -0.3616
  914MOL0     O20524   3.186   6.349   7.852 -0.5912  0.7575 -0.0910
  914MOL0     C20525   3.052   6.322   7.804 -0.3113  0.4335  0.8232
  914MOL0     C20526   2.964   6.431   7.844 -0.7327  0.1839  0.3844
  914MOL0     C20527   2.857   6.442   7.735 -0.5315 -0.3558 -0.0934
  914MOL0     C20528   2.771   6.570   7.773  0.3939  0.2440 -0.7019
  914MOL0     C20529   2.661   6.591   7.680  0.0881 -0.3838  0.8664
  914MOL0     C20530   2.705   6.603   7.531 -0.0037 -0.4482  0.3274
  914MOL0     C20531   2.587   6.652   7.444  0.3775 -0.1487  0.6484
  914MOL0     C20532   2.646   6.690   7.311  0.0902 -0.2887 -0.1256
  914MOL0     N20533   2.550   6.716   7.205  0.6326 -0.4201 -0.8936
  914MOL0     C20534   2.428   6.772   7.236 -0.5973 -0.4612 -0.2532
  914MOL0     C20535   2.384   6.784   7.114  0.5437 -1.3316  0.9910
  914MOL0     C20536   2.253   6.862   7.090  0.8285  0.0504  0.6792
  914MOL0     C20537   2.120   6.796   7.076 -0.3027 -0.5078  0.0022
  914MOL0     C20538   2.104   6.675   7.177 -0.0935  0.4943  0.0193
  914MOL0     C20539   1.992   6.575   7.138 -0.2511  0.1258 -0.3107
  914MOL0     O20540   1.860   6.635   7.154 -0.5138  0.4770  0.3987
  914MOL0     C20541   1.748   6.553   7.140 -0.3238 -0.3240  0.4321
  914MOL0     C20542   1.620   6.602   7.174  0.4536 -0.0284  0.8147
  914MOL0     C20543   1.512   6.515   7.165 -0.0386 -0.8006 -0.0935
  914MOL0     C20544   1.519   6.393   7.097 -0.4625 -0.0652 -0.2257
  914MOL0     C20545   1.399   6.317   7.069 -0.6912 -0.4660 -0.8208
  914MOL0     O20546   1.281   6.383   7.105 -0.3528  0.7744  0.7755
  914MOL0     C20547   1.170   6.310   7.121  0.7970 -0.1375 -0.1462
  914MOL0     C20548   1.156   6.223   7.228  0.1969  0.5142 -0.3620
  914MOL0     C20549   1.047   6.135   7.236  0.4987 -0.0354 -0.8526
  914MOL0     C20550   0.935   6.147   7.156 -0.5657 -0.5577 -0.1040
  914MOL0     O20551   0.820   6.080   7.170  0.4250 -0.3728  0.5138
  914MOL0     C20552   0.828   5.950   7.222 -0.4761  0.9428 -0.9045
  914MOL0     C20553   0.766   5.942   7.361 -0.0522  0.7072 -1.1016
  914MOL0     C20554   0.616   5.942   7.346  0.1294 -0.5078 -0.6629
  914MOL0     C20555   0.535   5.935   7.478 -0.0150 -0.1342 -0.1217
  914MOL0     C20556   0.384   5.925   7.457  0.3362 -0.5442 -0.3738
  914MOL0     C20557   0.286   5.954   7.584  0.2369  0.3696 -0.4616
  914MOL0     C20558   0.139   5.975   7.524 -1.1997 -1.1175 -0.2405
  914MOL0     C20559   0.046   6.038   7.635  1.0493  0.3806 -0.4588
  914MOL0    Cl20560   0.054   5.925   7.778 -0.0900  0.1278 -0.4253
  914MOL0     C20561   0.951   6.243   7.051  0.3360  0.6872 -0.5659
  914MOL0     C20562   1.058   6.328   7.035  0.5049 -0.1554 -0.4495
  914MOL0     O20563   1.412   6.199   7.040 -0.2532  0.3377 -0.3906
  914MOL0     C20564   1.642   6.358   7.046  0.7215  0.8891 -0.7700
  914MOL0     C20565   1.754   6.437   7.066  0.7157 -0.5310  1.1178
  914MOL0     N20566   2.449   6.717   7.018  0.1988  0.6757  0.4757
  914MOL0     N20567   2.552   6.672   7.080  0.7301  0.7688  0.6895
  914MOL0     C20568   3.406   6.262   7.890  0.0216  0.3131 -0.8295
  914MOL0     C20569   3.501   6.160   7.890  0.2027  0.5062  0.1943
  914MOL0     C20570   3.645   5.723   7.757  0.1570  0.4399  0.4443
  914MOL0     C20571   3.652   5.584   7.782 -0.3096 -0.0938 -0.5088
  914MOL0     C20572   3.757   5.502   7.734 -0.1569 -0.1980  0.4050
  914MOL0     C20573   3.857   5.549   7.654  0.1069  0.0388  0.0452
  914MOL0     O20574   3.955   5.476   7.593  0.2144 -0.8480 -0.5972
  914MOL0     C20575   3.932   5.343   7.597 -0.5929  0.2594  0.3205
  914MOL0     C20576   4.066   5.268   7.574  0.6231  0.3530  0.4128
  914MOL0     C20577   4.175   5.328   7.662  0.0866  0.7491  0.3187
  914MOL0     C20578   4.303   5.242   7.681  0.1906 -0.3964  0.8236
  914MOL0     C20579   4.361   5.198   7.554 -0.9748  0.2817 -0.5758
  914MOL0     C20580   4.405   5.170   7.448  0.5626  0.7825 -0.0967
  914MOL0     C20581   3.856   5.682   7.626  0.0611  0.1039 -0.2841
  914MOL0     C20582   3.756   5.764   7.683 -0.3606  0.0584  0.8344
  914MOL0     H20583   3.328   5.925   7.733  0.6493 -1.1207  1.3916
  914MOL0     H20584   3.152   6.087   7.754 -0.5067  0.4238  0.3099
  914MOL0     H20585   3.018   6.228   7.848  0.5948 -0.1261  0.3681
  914MOL0     H20586   3.063   6.312   7.696  2.2349 -0.2469  1.0796
  914MOL0     H20587   3.026   6.519   7.863  0.1731 -0.0544 -1.2890
  914MOL0     H20588   2.917   6.420   7.943  0.0005 -1.7077  0.5638
  914MOL0     H20589   2.782   6.364   7.727 -2.1640  0.9972  1.2688
  914MOL0     H20590   2.901   6.452   7.635 -0.8470 -3.9855 -0.7106
  914MOL0     H20591   2.730   6.566   7.874 -1.9659  0.8319 -1.5815
  914MOL0     H20592   2.833   6.659   7.758  1.4532 -0.4549 -0.5864
  914MOL0     H20593   2.605   6.677   7.717  0.6011 -0.1301  1.0564
  914MOL0     H20594   2.592   6.506   7.688 -0.3373 -0.5006 -2.5013
  914MOL0     H20595   2.742   6.510   7.487 -0.4304  0.3389 -1.8444
  914MOL0     H20596   2.776   6.686   7.523 -3.0447  2.3806  0.2903
  914MOL0     H20597   2.506   6.582   7.422  1.7083 -1.2186 -1.1251
  914MOL0     H20598   2.530   6.736   7.484  2.1920  2.6786 -2.2858
  914MOL0     H20599   2.708   6.604   7.282 -0.8154 -1.7580  1.9925
  914MOL0     H20600   2.705   6.781   7.321  1.4654 -0.7945 -2.7488
  914MOL0     H20601   2.375   6.815   7.320 -0.7104  0.0294 -0.5723
  914MOL0     H20602   2.272   6.917   6.998 -0.6854 -0.9411 -0.2538
  914MOL0     H20603   2.229   6.937   7.167 -0.9401 -0.9019  1.0887
  914MOL0     H20604   2.117   6.766   6.971 -2.3921  1.3669 -0.5403
  914MOL0     H20605   2.043   6.873   7.082  1.4275  1.6016 -2.5436
  914MOL0     H20606   2.196   6.615   7.180  0.2099  0.9850  2.9604
  914MOL0     H20607   2.076   6.712   7.276 -2.8113  0.0737 -0.4962
  914MOL0     H20608   2.012   6.487   7.199 -1.6527  0.0532  0.0593
  914MOL0     H20609   2.003   6.551   7.031  0.4179 -1.9320  0.1880
  914MOL0     H20610   1.621   6.702   7.217 -3.3145  0.7741 -0.6106
  914MOL0     H20611   1.424   6.553   7.215  0.9654  2.4485 -0.5640
  914MOL0     H20612   1.248   6.214   7.285 -1.2466  0.2226  2.0523
  914MOL0     H20613   1.053   6.057   7.310 -1.5346 -1.0127 -1.6565
  914MOL0     H20614   0.930   5.912   7.227 -0.0990  2.0406  0.5557
  914MOL0     H20615   0.783   5.876   7.156  2.1306 -1.7424  0.1176
  914MOL0     H20616   0.810   6.019   7.424  0.9665 -2.3647  2.2661
  914MOL0     H20617   0.805   5.851   7.408 -0.8418 -0.3930 -2.5042
  914MOL0     H20618   0.596   5.854   7.284 -0.2458 -1.8428  1.2933
  914MOL0     H20619   0.591   6.031   7.288  0.9086 -0.8910 -1.6143
  914MOL0     H20620   0.566   5.844   7.529  0.3950  0.0901  0.0328
  914MOL0     H20621   0.556   6.029   7.530  2.5904 -2.1806  2.8967
  914MOL0     H20622   0.362   5.828   7.413 -0.7792  0.0409 -1.1580
  914MOL0     H20623   0.360   5.998   7.379 -2.4173 -2.5683 -1.5757
  914MOL0     H20624   0.330   6.040   7.635  1.6478 -1.7672  2.1574
  914MOL0     H20625   0.299   5.868   7.650  3.6255 -0.0833 -1.5003
  914MOL0     H20626   0.150   6.047   7.442 -0.9323  0.3990  1.0597
  914MOL0     H20627   0.101   5.875   7.502 -3.7485 -0.4268  0.6575
  914MOL0     H20628  -0.057   6.047   7.598 -0.6535 -1.9428  3.1283
  914MOL0     H20629   0.081   6.138   7.665  1.7314  0.4539 -1.4491
  914MOL0     H20630   0.870   6.234   6.980  0.2345  1.5728 -0.5692
  914MOL0     H20631   1.050   6.405   6.959 -0.6616 -1.8959 -2.1948
  914MOL0     H20632   1.646   6.270   6.981 -1.1429  1.2637 -1.4381
  914MOL0     H20633   1.843   6.392   7.024  0.8612  1.5211 -1.0094
  914MOL0     H20634   3.425   6.350   7.949 -3.6555 -0.9627  2.7136
  914MOL0     H20635   3.597   6.193   7.927  1.2485  1.4633 -3.0962
  914MOL0     H20636   3.576   5.545   7.849 -0.3618 -0.1586 -0.6051
  914MOL0     H20637   3.730   5.401   7.763 -4.1550 -0.4098 -2.9464
  914MOL0     H20638   3.854   5.320   7.523 -0.4511 -3.0765  1.0602
  914MOL0     H20639   3.892   5.296   7.688  0.5276 -2.6824 -0.5840
  914MOL0     H20640   4.068   5.161   7.595 -1.2828  0.1438 -0.2847
  914MOL0     H20641   4.093   5.291   7.470 -0.3992 -1.2265 -0.2400
  914MOL0     H20642   4.136   5.340   7.763 -0.8677  2.8947 -0.2433
  914MOL0     H20643   4.197   5.433   7.638 -0.9283  1.6073  2.7891
  914MOL0     H20644   4.375   5.296   7.743  1.6271 -3.5673  2.1617
  914MOL0     H20645   4.274   5.150   7.733 -1.5919 -0.3339  0.0197
  914MOL0     H20646   4.442   5.151   7.349 -0.2571 -0.7891 -0.1388
  914MOL0     H20647   3.933   5.715   7.557  0.9688 -0.1574  0.5642
  914MOL0     H20648   3.763   5.871   7.666 -0.1437  0.0805  1.0469
  915MOL0     O20649   3.391   6.157   4.975  0.2176 -0.8062 -0.0319
  915MOL0     C20650   3.354   6.253   4.897 -0.0304 -0.6092 -0.8526
  915MOL0     O20651   3.231   6.297   4.894 -0.4370 -0.9279 -0.2567
  915MOL0     C20652   3.128   6.219   4.951  1.0307 -0.2632  0.1385
  915MOL0     C20653   3.114   6.082   4.928  0.4137 -0.3525  0.5541
  915MOL0     C20654   3.001   6.006   4.977  0.0406  0.5306  0.9576
  915MOL0     C20655   2.901   6.076   5.039  0.6340 -0.0956 -0.2690
  915MOL0     O20656   2.799   6.010   5.113 -0.5785 -0.0634  0.3638
  915MOL0     C20657   2.680   5.980   5.041 -0.4332 -0.2020  0.4156
  915MOL0     C20658   2.604   6.113   5.019 -0.1713  0.5468  0.1765
  915MOL0     C20659   2.471   6.091   4.962  0.9673  0.5414 -0.3380
  915MOL0     C20660   2.384   6.208   4.991  0.5086  0.4911 -0.2472
  915MOL0     C20661   2.245   6.200   4.922 -0.3806 -0.5526 -0.9208
  915MOL0     C20662   2.131   6.294   4.976 -1.2654 -0.6660  0.3384
  915MOL0     C20663   2.139   6.435   4.901 -0.3478 -0.0198  0.9279
  915MOL0     C20664   2.054   6.553   4.955 -0.8663  0.6788 -1.6411
  915MOL0     N20665   1.915   6.524   4.923 -0.7841  0.1385 -0.3891
  915MOL0     C20666   1.816   6.466   4.993 -0.3444  1.2485  0.9637
  915MOL0     C20667   1.707   6.473   4.911 -0.6005 -0.3167 -0.7376
  915MOL0     C20668   1.569   6.438   4.952  1.2018  0.0571 -0.4093
  915MOL0     C20669   1.510   6.551   5.045 -0.4639 -0.9665  0.1643
  915MOL0     C20670   1.465   6.489   5.180 -0.5090  0.3000  0.3086
  915MOL0     C20671   1.452   6.593   5.286  0.0984 -0.1016  0.4753
  915MOL0     O20672   1.368   6.704   5.231 -0.1957  1.2117 -0.4242
  915MOL0     C20673   1.362   6.818   5.302 -0.3435 -0.6043  0.4224
  915MOL0     C20674   1.387   6.929   5.229  0.6540  0.8371 -0.7239
  915MOL0     C20675   1.414   7.057   5.284  0.0551 -0.0482  0.2751
  915MOL0     C20676   1.427   7.063   5.420 -0.3336 -1.0157 -0.1347
  915MOL0     C20677   1.456   7.200   5.485  0.4000  0.5757  0.6198
  915MOL0     O20678   1.472   7.316   5.417  0.2787  0.1037  0.6930
  915MOL0     C20679   1.457   7.439   5.477 -0.9179 -0.5392 -0.4480
  915MOL0     C20680   1.362   7.479   5.573  0.2395 -0.2297 -0.4185
  915MOL0     C20681   1.351   7.603   5.622  0.5559 -0.1451 -0.1378
  915MOL0     C20682   1.437   7.705   5.587 -0.0968  0.2466 -0.3234
  915MOL0     O20683   1.443   7.832   5.636  0.2772 -0.4812 -0.5074
  915MOL0     C20684   1.566   7.867   5.699  0.3195  0.4097  0.1421
  915MOL0     C20685   1.545   7.987   5.779  0.9854 -0.9108  0.6803
  915MOL0     C20686   1.475   7.975   5.914 -1.2509  0.1754 -0.8357
  915MOL0     C20687   1.588   7.936   6.013  0.6054 -0.7978 -1.2210
  915MOL0     C20688   1.523   7.914   6.150 -0.3305  0.9586  0.0370
  915MOL0     C20689   1.595   7.843   6.270  0.1527 -0.7006 -0.2677
  915MOL0     C20690   1.685   7.945   6.341  0.6443  0.3693 -0.5609
  915MOL0     C20691   1.622   8.081   6.383  0.2685  0.2176  0.2118
  915MOL0    Cl20692   1.477   8.059   6.486 -0.0561 -0.4372 -0.5107
  915MOL0     C20693   1.530   7.671   5.480 -0.6160 -0.9091  0.1910
  915MOL0     C20694   1.541   7.543   5.419  0.2039 -0.2777 -0.8509
  915MOL0     O20695   1.456   7.191   5.608  0.5636 -0.1987 -0.0137
  915MOL0     C20696   1.406   6.948   5.500  0.0247 -0.1922  0.4177
  915MOL0     C20697   1.369   6.826   5.440 -0.0107 -0.4257 -0.2117
  915MOL0     N20698   1.742   6.528   4.796  0.5247 -0.9772 -0.7487
  915MOL0     N20699   1.869   6.559   4.804 -0.0070  0.0012 -0.0364
  915MOL0     C20700   2.911   6.207   5.067 -0.2040 -0.7395  0.2162
  915MOL0     C20701   3.020   6.284   5.021 -0.8114  0.6826  0.0125
  915MOL0     C20702   3.453   6.314   4.802  0.0054  0.6163 -0.0137
  915MOL0     C20703   3.410   6.393   4.697  0.1016  1.2400 -0.6425
  915MOL0     C20704   3.501   6.439   4.602 -0.2427 -0.1448 -0.7611
  915MOL0     C20705   3.638   6.410   4.609  0.4001  0.5376  0.1621
  915MOL0     O20706   3.733   6.449   4.516 -0.8665  0.0204 -0.1046
  915MOL0     C20707   3.695   6.456   4.372 -0.0669 -0.0591 -0.6708
  915MOL0     C20708   3.829   6.451   4.292 -0.4665 -0.0023  0.3021
  915MOL0     C20709   3.907   6.578   4.328 -0.6364 -0.9342  0.7032
  915MOL0     C20710   4.042   6.567   4.258  0.0566 -0.0355 -0.3661
  915MOL0     C20711   4.096   6.707   4.260  0.3299 -1.0097 -0.1032
  915MOL0     C20712   4.135   6.824   4.249 -0.0328  0.7005 -0.0380
  915MOL0     C20713   3.682   6.338   4.722  0.8459  0.5984 -0.2355
  915MOL0     C20714   3.594   6.290   4.815 -0.3143 -0.4176  0.3019
  915MOL0     H20715   3.188   6.027   4.869  0.7972  0.9740 -0.2420
  915MOL0     H20716   2.996   5.898   4.965  0.7100  0.6770 -0.8787
  915MOL0     H20717   2.635   5.912   5.114  1.5317  0.0762  1.9651
  915MOL0     H20718   2.696   5.932   4.944 -0.1811 -0.3404  0.5272
  915MOL0     H20719   2.657   6.166   4.940 -0.4145 -1.3681 -1.3451
  915MOL0     H20720   2.603   6.174   5.110  0.8451  0.7757  0.0459
  915MOL0     H20721   2.425   6.005   5.011  1.1703  2.5893  3.9014
  915MOL0     H20722   2.468   6.067   4.855  0.7741 -1.6227  0.1069
  915MOL0     H20723   2.369   6.213   5.100 -0.7364  1.4829 -0.4318
  915MOL0     H20724   2.439   6.298   4.963 -0.0733  1.2949  1.0612
  915MOL0     H20725   2.219   6.094   4.933  2.7608 -1.2052  1.5172
  915MOL0     H20726   2.260   6.221   4.816  1.4386 -2.6093 -1.1537
  915MOL0     H20727   2.144   6.301   5.085  0.8873 -2.0102  0.2193
  915MOL0     H20728   2.032   6.249   4.959 -1.7687  0.2234  0.8475
  915MOL0     H20729   2.240   6.478   4.906 -0.6213  0.8086 -0.1292
  915MOL0     H20730   2.115   6.406   4.798  0.1443  0.2671  0.7245
  915MOL0     H20731   2.081   6.653   4.921  0.8314  1.0726  0.6375
  915MOL0     H20732   2.054   6.558   5.064 -0.1960 -0.7591 -1.5483
  915MOL0     H20733   1.822   6.421   5.092 -2.0906 -2.0391 -0.2606
  915MOL0     H20734   1.563   6.338   4.994 -0.4037 -0.5210 -1.9127
  915MOL0     H20735   1.512   6.430   4.859 -1.5199 -2.4012  1.2742
  915MOL0     H20736   1.424   6.605   5.005  0.0846 -0.2691 -0.0967
  915MOL0     H20737   1.580   6.635   5.053  0.4613 -1.8240  1.4478
  915MOL0     H20738   1.366   6.445   5.166  0.0913 -1.6954  1.8048
  915MOL0     H20739   1.537   6.412   5.209  0.5059  0.1320 -2.3390
  915MOL0     H20740   1.550   6.619   5.329  0.6150  2.8611 -2.0971
  915MOL0     H20741   1.396   6.542   5.364 -0.2935  0.3152  0.4674
  915MOL0     H20742   1.385   6.912   5.122 -1.0561 -1.1661 -0.4237
  915MOL0     H20743   1.437   7.149   5.231  0.1898 -0.5572 -0.5579
  915MOL0     H20744   1.294   7.402   5.608  1.5611 -3.5277 -4.1640
  915MOL0     H20745   1.279   7.610   5.704 -0.3408 -1.0249 -0.8207
  915MOL0     H20746   1.640   7.888   5.621 -0.4281 -1.1096 -1.0411
  915MOL0     H20747   1.595   7.784   5.765 -0.3437  0.3809  0.4069
  915MOL0     H20748   1.479   8.051   5.719 -0.4591 -2.2657  0.7811
  915MOL0     H20749   1.633   8.052   5.779  0.4160 -0.1281  0.5169
  915MOL0     H20750   1.407   7.889   5.911  3.3028 -3.8226 -1.9685
  915MOL0     H20751   1.430   8.072   5.934 -0.4846  1.1932 -3.5367
  915MOL0     H20752   1.657   7.855   5.989 -0.4691 -3.1198  2.6529
  915MOL0     H20753   1.662   8.015   6.030  0.2442 -1.1230  2.9923
  915MOL0     H20754   1.448   7.835   6.142  2.1023 -1.9597  2.8370
  915MOL0     H20755   1.458   7.997   6.177 -0.3676  1.3666 -1.2530
  915MOL0     H20756   1.646   7.756   6.229 -2.6042 -3.5802  1.9499
  915MOL0     H20757   1.525   7.805   6.345  0.3013 -0.0577  0.2022
  915MOL0     H20758   1.737   7.898   6.425  0.8503  0.7135 -0.4900
  915MOL0     H20759   1.771   7.966   6.276  3.0039  1.6021  2.6372
  915MOL0     H20760   1.582   8.130   6.294 -3.4717 -0.4092  1.3892
  915MOL0     H20761   1.690   8.143   6.444 -0.1208  0.3469  0.5202
  915MOL0     H20762   1.595   7.740   5.427 -0.7510  0.4549  1.7289
  915MOL0     H20763   1.606   7.534   5.333 -0.9702  0.1184 -1.8052
  915MOL0     H20764   1.437   6.952   5.604  2.9503 -0.7329 -0.3269
  915MOL0     H20765   1.369   6.745   5.512 -0.3728  1.4288  1.9890
  915MOL0     H20766   2.829   6.263   5.111 -2.2535 -2.8439 -0.7026
  915MOL0     H20767   3.023   6.392   5.033 -0.4773  0.6347  0.3850
  915MOL0     H20768   3.307   6.417   4.674 -0.3646 -1.6915 -2.1992
  915MOL0     H20769   3.466   6.505   4.524 -1.6240  0.5787  0.4197
  915MOL0     H20770   3.653   6.555   4.351  1.3201  0.5600 -0.7082
  915MOL0     H20771   3.632   6.368   4.358 -0.3856 -0.2728  1.6759
  915MOL0     H20772   3.884   6.362   4.322 -1.7254 -0.3524  1.7428
  915MOL0     H20773   3.811   6.439   4.185  1.1516 -0.2620  0.0393
  915MOL0     H20774   3.925   6.599   4.434 -0.3931  0.2577  0.4392
  915MOL0     H20775   3.848   6.658   4.283  0.4785  1.0940  2.6487
  915MOL0     H20776   4.106   6.501   4.317  0.4577 -0.5074 -1.3208
  915MOL0     H20777   4.019   6.521   4.162  0.0370 -4.1508  1.4157
  915MOL0     H20778   4.154   6.930   4.248 -2.6198  1.2462 -0.5268
  915MOL0     H20779   3.785   6.315   4.744  0.1139  0.6311  4.0362
  915MOL0     H20780   3.633   6.228   4.895  0.3693  2.6116  2.4948
  916MOL0     O20781   2.813   7.128   0.243  0.4314  0.4117 -0.0665
  916MOL0     C20782   2.846   7.230   0.183  0.3651 -0.3351 -0.6467
  916MOL0     O20783   2.837   7.362   0.224 -0.2687 -0.1380  0.3244
  916MOL0     C20784   2.787   7.387   0.343  0.1434 -0.3896 -0.6124
  916MOL0     C20785   2.692   7.476   0.341  0.4630  0.3464 -0.1771
  916MOL0     C20786   2.627   7.513   0.461  0.4966  0.0498  0.3516
  916MOL0     C20787   2.644   7.446   0.578  0.6326 -0.6372  0.4238
  916MOL0     O20788   2.577   7.485   0.690  0.7405  0.3067 -0.1377
  916MOL0     C20789   2.561   7.382   0.788  0.7019 -0.2358 -0.4865
  916MOL0     C20790   2.431   7.395   0.875 -0.7352 -0.4737  0.1837
  916MOL0     C20791   2.391   7.282   0.964 -0.8194  0.6700  0.4172
  916MOL0     C20792   2.263   7.316   1.042  0.2528  0.1103 -0.3400
  916MOL0     C20793   2.171   7.200   1.034 -0.8393  0.8107 -0.3886
  916MOL0     C20794   2.236   7.066   1.093 -0.9524 -0.5494 -0.3503
  916MOL0     C20795   2.137   6.956   1.129  0.8409  0.0669  0.3413
  916MOL0     C20796   2.082   6.874   1.009 -0.6304  0.1184 -0.0070
  916MOL0     N20797   1.974   6.790   1.055  0.5962  0.4216  0.0459
  916MOL0     C20798   1.834   6.812   1.031 -1.1583  0.0566  0.5347
  916MOL0     C20799   1.769   6.724   1.109 -0.1377 -0.4368  0.7664
  916MOL0     C20800   1.618   6.731   1.126 -0.6694 -0.2577  0.0062
  916MOL0     C20801   1.566   6.798   1.259  0.2362  0.6194  0.3119
  916MOL0     C20802   1.431   6.851   1.251  0.1120 -0.3718  0.0905
  916MOL0     C20803   1.337   6.744   1.304 -0.5107 -0.1198  0.2806
  916MOL0     O20804   1.214   6.802   1.326  0.6789  0.1492 -0.2624
  916MOL0     C20805   1.103   6.728   1.334 -0.7458 -0.3678  0.6861
  916MOL0     C20806   1.002   6.793   1.390  0.5550 -0.3107  0.4329
  916MOL0     C20807   0.876   6.736   1.385 -0.2093 -1.4368  0.2548
  916MOL0     C20808   0.853   6.599   1.337  0.9278  0.2303 -0.1518
  916MOL0     C20809   0.714   6.529   1.343 -0.0701 -0.4233 -0.2334
  916MOL0     O20810   0.708   6.400   1.287  0.6858  0.1268 -0.5394
  916MOL0     C20811   0.602   6.310   1.314  0.3626 -0.4486  0.3343
  916MOL0     C20812   0.521   6.303   1.429 -0.2560  0.2188  0.5433
  916MOL0     C20813   0.429   6.200   1.446  0.4539  0.4406 -0.4111
  916MOL0     C20814   0.419   6.100   1.348 -0.2792  0.0992 -0.2939
  916MOL0     O20815   0.331   5.989   1.350 -0.1486 -0.1737  0.4311
  916MOL0     C20816   0.319   5.930   1.476 -0.9240 -0.5941 -0.8530
  916MOL0     C20817   0.172   5.931   1.534 -0.0656 -0.2502 -1.3485
  916MOL0     C20818   0.151   5.834   1.659 -0.0769 -0.0360 -0.3735
  916MOL0     C20819   0.004   5.853   1.694  0.4691  0.3257 -0.8427
  916MOL0     C20820  -0.023   5.767   1.817 -0.4251  0.1591  0.1763
  916MOL0     C20821  -0.172   5.764   1.862 -0.5206 -0.1098 -0.1063
  916MOL0     C20822  -0.240   5.634   1.802 -0.5339  0.4487 -0.3696
  916MOL0     C20823  -0.373   5.597   1.861 -0.0348  0.1835 -0.3822
  916MOL0    Cl20824  -0.486   5.745   1.842 -0.0878 -0.2134  0.2823
  916MOL0     C20825   0.502   6.109   1.236  0.7826  0.3353  0.5536
  916MOL0     C20826   0.586   6.219   1.215 -0.4048 -0.3448  0.7201
  916MOL0     O20827   0.621   6.603   1.368  0.2084 -0.3352  0.1294
  916MOL0     C20828   0.968   6.530   1.289 -0.4502  0.0910  0.0170
  916MOL0     C20829   1.091   6.596   1.285 -0.4570  0.5018 -0.1717
  916MOL0     N20830   1.871   6.658   1.188  1.5294  0.3638 -0.2832
  916MOL0     N20831   1.990   6.699   1.148 -0.0496 -0.4362  0.4443
  916MOL0     C20832   2.751   7.358   0.572  1.4170  0.1713 -0.7483
  916MOL0     C20833   2.821   7.329   0.459  0.2504  0.1824 -0.4906
  916MOL0     C20834   2.880   7.218   0.040 -0.4512 -0.2916  0.5272
  916MOL0     C20835   2.873   7.088  -0.026 -1.0367  0.5651 -1.0143
  916MOL0     C20836   2.894   7.097  -0.164  0.7988 -0.1061  0.1085
  916MOL0     C20837   2.933   7.213  -0.239 -0.4339  0.2609  0.2258
  916MOL0     O20838   2.937   7.204  -0.378  0.4152  0.9052 -0.4708
  916MOL0     C20839   2.932   7.316  -0.459  0.4112  0.1980  0.8335
  916MOL0     C20840   2.898   7.287  -0.604 -0.0342  0.0307  0.3851
  916MOL0     C20841   2.933   7.411  -0.697 -0.3469 -0.3409  0.1336
  916MOL0     C20842   2.843   7.415  -0.821 -0.0166  0.3558  0.1210
  916MOL0     C20843   2.915   7.365  -0.940  0.4059 -0.0288 -0.0248
  916MOL0     C20844   2.952   7.334  -1.052 -0.4197  0.3754  0.6809
  916MOL0     C20845   2.966   7.331  -0.169  0.0727  0.1842 -0.2471
  916MOL0     C20846   2.946   7.326  -0.027 -0.0215  0.3728  0.7879
  916MOL0     H20847   2.662   7.529   0.251 -3.1269  1.5481  1.5568
  916MOL0     H20848   2.555   7.593   0.468  1.6512  1.1677 -0.2218
  916MOL0     H20849   2.645   7.395   0.856  0.8108  2.7207 -1.0505
  916MOL0     H20850   2.560   7.280   0.747  0.6627 -0.0266 -1.0172
  916MOL0     H20851   2.344   7.408   0.810 -1.2666 -0.5321  0.8783
  916MOL0     H20852   2.439   7.487   0.933  0.9084  0.6933 -1.7305
  916MOL0     H20853   2.466   7.261   1.041  0.1226 -2.0964 -1.1423
  916MOL0     H20854   2.376   7.193   0.903  2.5209 -1.1415  1.9512
  916MOL0     H20855   2.279   7.336   1.148  0.8847  2.4198 -0.8252
  916MOL0     H20856   2.207   7.404   1.010  0.5901  0.1655 -0.7991
  916MOL0     H20857   2.127   7.183   0.935  0.5986  1.5906 -1.1941
  916MOL0     H20858   2.078   7.222   1.087 -2.2490  1.4135 -2.9459
  916MOL0     H20859   2.291   7.099   1.181 -0.1465  0.9404 -1.3601
  916MOL0     H20860   2.319   7.042   1.026 -0.3909 -1.1129  0.5291
  916MOL0     H20861   2.191   6.878   1.183 -2.0599 -3.1278 -1.0132
  916MOL0     H20862   2.061   6.988   1.201  1.4194  1.1509  0.4963
  916MOL0     H20863   2.169   6.821   0.971 -1.3397 -2.9283  2.2611
  916MOL0     H20864   2.042   6.954   0.946 -0.0153  1.4277  1.1886
  916MOL0     H20865   1.793   6.897   0.977  0.8278  0.9790  0.3759
  916MOL0     H20866   1.582   6.628   1.123 -4.1825  0.6576  3.0714
  916MOL0     H20867   1.579   6.795   1.046 -0.0178  1.9727  1.3573
  916MOL0     H20868   1.641   6.874   1.282 -0.2020  1.5635 -1.2171
  916MOL0     H20869   1.564   6.722   1.337 -1.7034  1.2351  0.9167
  916MOL0     H20870   1.425   6.940   1.313 -4.3866 -1.9974  2.4866
  916MOL0     H20871   1.397   6.866   1.148 -1.7021  1.9774  0.9511
  916MOL0     H20872   1.370   6.708   1.402  2.3768 -1.2007 -0.9699
  916MOL0     H20873   1.347   6.663   1.231  0.0651 -1.9176  2.2359
  916MOL0     H20874   1.029   6.882   1.446  0.4990 -0.1058  0.1350
  916MOL0     H20875   0.790   6.787   1.426  1.8738  2.5232  0.1287
  916MOL0     H20876   0.545   6.376   1.506 -2.0063  1.0930  0.3099
  916MOL0     H20877   0.383   6.199   1.545  0.2859 -1.4170 -0.4776
  916MOL0     H20878   0.388   5.970   1.552 -1.4963  2.0606 -1.6107
  916MOL0     H20879   0.342   5.827   1.450 -3.3191 -0.5759 -3.6487
  916MOL0     H20880   0.098   5.913   1.456 -0.6493 -1.0073 -0.6478
  916MOL0     H20881   0.170   6.031   1.579 -0.2058 -1.2888  1.1306
  916MOL0     H20882   0.217   5.860   1.743 -0.6980  3.3538 -0.7754
  916MOL0     H20883   0.169   5.728   1.641 -1.1644 -0.7627  2.2482
  916MOL0     H20884  -0.028   5.957   1.705 -0.1547  0.1298 -0.7496
  916MOL0     H20885  -0.055   5.807   1.615 -0.5278  0.1379 -0.0056
  916MOL0     H20886   0.036   5.800   1.903 -1.9299 -1.0334  1.7394
  916MOL0     H20887   0.009   5.663   1.805  1.6708  0.3624  2.9037
  916MOL0     H20888  -0.227   5.857   1.841 -1.5824 -0.6687  0.1283
  916MOL0     H20889  -0.173   5.747   1.970 -0.2932 -2.4477 -0.4155
  916MOL0     H20890  -0.248   5.638   1.693 -1.8285  1.7854 -0.2596
  916MOL0     H20891  -0.174   5.549   1.822  0.0505  0.8545 -0.5466
  916MOL0     H20892  -0.364   5.581   1.969 -0.2683  0.2776 -0.3476
  916MOL0     H20893  -0.419   5.513   1.807  0.6922 -1.4806  1.4568
  916MOL0     H20894   0.480   6.027   1.167 -1.6144  0.6632  0.8379
  916MOL0     H20895   0.641   6.229   1.122 -1.4906 -1.8107 -0.1281
  916MOL0     H20896   0.962   6.427   1.255 -1.7818  0.7412 -1.8948
  916MOL0     H20897   1.178   6.539   1.252 -1.5043 -0.7206 -0.8905
  916MOL0     H20898   2.786   7.306   0.660  0.6770  1.3211  0.2652
  916MOL0     H20899   2.904   7.261   0.445  0.7524  0.9957 -1.5398
  916MOL0     H20900   2.838   6.999   0.025 -1.2080  0.6659 -0.9573
  916MOL0     H20901   2.866   7.011  -0.224 -1.0284  0.0746  0.6250
  916MOL0     H20902   3.031   7.361  -0.448  1.1532 -1.7908  3.5855
  916MOL0     H20903   2.864   7.393  -0.423  0.2548 -0.0234  1.0155
  916MOL0     H20904   2.957   7.206  -0.648 -0.8726 -0.6177  0.4030
  916MOL0     H20905   2.793   7.255  -0.610  0.3428 -1.0108 -3.4597
  916MOL0     H20906   3.037   7.395  -0.728 -0.9049 -2.9987 -0.6565
  916MOL0     H20907   2.921   7.507  -0.647 -0.9522  0.4803 -1.5113
  916MOL0     H20908   2.749   7.360  -0.815  0.0769  0.1915  0.1024
  916MOL0     H20909   2.812   7.516  -0.848 -1.4387 -0.0236  0.2414
  916MOL0     H20910   2.960   7.293  -1.151 -2.9814  2.9641 -0.7293
  916MOL0     H20911   3.015   7.416  -0.215 -0.1393  0.9676  0.9328
  916MOL0     H20912   2.971   7.419   0.022 -2.9842  1.8786 -0.2839
  917MOL0     O20913   1.066   7.197   0.073  0.2478  0.4612  0.0607
  917MOL0     C20914   0.969   7.264   0.034  0.1318  0.5878  0.0444
  917MOL0     O20915   0.908   7.373   0.098 -0.5147 -0.3690 -1.1643
  917MOL0     C20916   0.968   7.417   0.221 -0.1228  0.0009  0.0669
  917MOL0     C20917   0.894   7.412   0.340 -0.1930 -0.1623  0.1246
  917MOL0     C20918   0.955   7.466   0.454  0.2900  0.4601 -0.3442
  917MOL0     C20919   1.092   7.504   0.463  0.1752 -0.8627 -0.0813
  917MOL0     O20920   1.145   7.547   0.575 -0.0103  0.1434 -0.6268
  917MOL0     C20921   1.087   7.522   0.703  0.1225  0.2803 -0.3895
  917MOL0     C20922   1.188   7.519   0.810 -0.6535 -0.0834 -0.0838
  917MOL0     C20923   1.157   7.443   0.935  0.6041  0.4949 -0.0956
  917MOL0     C20924   1.012   7.489   0.998  0.4808 -0.3552 -0.2833
  917MOL0     C20925   0.987   7.395   1.119  0.3914 -0.7859 -0.5578
  917MOL0     C20926   0.848   7.430   1.179 -1.0182  0.2064  1.1749
  917MOL0     C20927   0.850   7.577   1.231  0.5713  0.3718  0.1042
  917MOL0     C20928   0.751   7.618   1.327 -0.2633  0.1679  0.0544
  917MOL0     N20929   0.614   7.628   1.275 -0.4121 -0.1079  0.0165
  917MOL0     C20930   0.551   7.519   1.225  0.0939  0.8839 -0.3266
  917MOL0     C20931   0.432   7.569   1.184 -0.5354  0.0907 -0.0527
  917MOL0     C20932   0.326   7.483   1.116 -1.2139 -0.4477 -1.0994
  917MOL0     C20933   0.184   7.497   1.164  0.4051 -0.1900 -0.8593
  917MOL0     C20934   0.083   7.387   1.115 -0.6940  0.6297  0.4616
  917MOL0     C20935  -0.056   7.403   1.171  0.5950 -0.0446  0.1816
  917MOL0     O20936  -0.051   7.365   1.307  0.2718 -0.7342  0.1786
  917MOL0     C20937  -0.138   7.434   1.388  0.1706 -0.5530  0.5833
  917MOL0     C20938  -0.130   7.396   1.524 -0.1658 -0.5748 -0.1452
  917MOL0     C20939  -0.213   7.460   1.614  0.1102  0.1493  0.2087
  917MOL0     C20940  -0.318   7.549   1.575 -0.0308  0.2059  0.3725
  917MOL0     C20941  -0.422   7.587   1.666 -0.0252 -0.1109 -0.0624
  917MOL0     O20942  -0.435   7.508   1.784 -0.1851 -0.0661  0.2286
  917MOL0     C20943  -0.552   7.506   1.858 -0.1875  0.7583 -1.1351
  917MOL0     C20944  -0.680   7.536   1.811  0.0102  0.1906  0.0925
  917MOL0     C20945  -0.784   7.538   1.897 -0.1907  0.8252 -0.5202
  917MOL0     C20946  -0.772   7.500   2.034 -0.9709 -0.8838  0.1694
  917MOL0     O20947  -0.882   7.474   2.105  0.0752  0.3133  0.2017
  917MOL0     C20948  -0.860   7.404   2.226 -0.6284 -0.4699  0.6073
  917MOL0     C20949  -0.998   7.349   2.259 -1.2490 -0.5991  1.3513
  917MOL0     C20950  -0.994   7.259   2.386 -0.1294  1.1401 -0.4107
  917MOL0     C20951  -1.133   7.213   2.424  0.0338 -0.1436  0.2959
  917MOL0     C20952  -1.139   7.162   2.571  0.2739 -0.0564  0.0365
  917MOL0     C20953  -1.238   7.043   2.581  0.0943  0.0630  0.5900
  917MOL0     C20954  -1.321   7.049   2.706  0.3982 -0.9882 -0.0326
  917MOL0     C20955  -1.250   6.990   2.821 -0.2556 -0.2485  0.1888
  917MOL0    Cl20956  -1.383   6.931   2.931 -0.3755 -0.6118  0.3516
  917MOL0     C20957  -0.639   7.483   2.080 -0.3190 -0.0360 -0.9022
  917MOL0     C20958  -0.532   7.484   1.998 -0.8378 -0.1930  0.7671
  917MOL0     O20959  -0.492   7.686   1.636  0.3736 -0.2404  0.0250
  917MOL0     C20960  -0.320   7.590   1.444 -0.5593  0.1109  0.6162
  917MOL0     C20961  -0.236   7.533   1.347  0.4102 -0.6346  0.1188
  917MOL0     N20962   0.430   7.703   1.194  0.5946  0.0502  0.3704
  917MOL0     N20963   0.542   7.737   1.251  0.9147 -0.2050 -0.5426
  917MOL0     C20964   1.160   7.512   0.347  0.0687  0.0719 -0.4939
  917MOL0     C20965   1.101   7.469   0.227 -0.3061 -0.8679  0.3059
  917MOL0     C20966   0.915   7.229  -0.096  0.6150  0.7570 -0.2046
  917MOL0     C20967   0.976   7.129  -0.179 -0.4917 -0.4665  0.1664
  917MOL0     C20968   0.923   7.081  -0.303 -0.0761  0.1624 -0.4959
  917MOL0     C20969   0.801   7.124  -0.349  0.2927  0.2010 -1.3220
  917MOL0     O20970   0.759   7.062  -0.472 -0.9442 -0.3886  0.0978
  917MOL0     C20971   0.644   7.095  -0.532  0.1156  0.3906 -0.3312
  917MOL0     C20972   0.633   7.025  -0.671  1.1729 -0.6692 -0.7190
  917MOL0     C20973   0.691   6.881  -0.682  0.3522 -0.4805 -1.2141
  917MOL0     C20974   0.652   6.817  -0.814  0.3723 -0.3363  0.2064
  917MOL0     C20975   0.717   6.890  -0.926 -0.5091 -0.9518 -1.4820
  917MOL0     C20976   0.772   6.963  -1.006 -0.6763  0.5168 -0.6268
  917MOL0     C20977   0.742   7.214  -0.269  0.4378 -0.1741  0.3470
  917MOL0     C20978   0.792   7.261  -0.146 -0.0831  0.6689 -0.3781
  917MOL0     H20979   0.789   7.384   0.343  0.0878 -1.5285 -1.5541
  917MOL0     H20980   0.887   7.480   0.538 -0.5876  1.7337 -1.2407
  917MOL0     H20981   1.023   7.433   0.703  0.5143 -0.0149  0.4940
  917MOL0     H20982   1.027   7.612   0.718  3.5757  2.4856  1.7109
  917MOL0     H20983   1.213   7.624   0.829  0.5611 -0.6201  1.5021
  917MOL0     H20984   1.281   7.480   0.768 -0.2180  0.1735  0.6216
  917MOL0     H20985   1.247   7.455   0.996  0.1608 -1.9637  1.1885
  917MOL0     H20986   1.151   7.339   0.902 -2.3187  0.7875 -0.6970
  917MOL0     H20987   1.027   7.592   1.031 -0.9518  0.3771 -1.7973
  917MOL0     H20988   0.932   7.478   0.924 -0.8427  1.5955  0.7735
  917MOL0     H20989   1.062   7.406   1.198 -1.1615 -2.2430  1.1945
  917MOL0     H20990   0.993   7.295   1.074  2.0009 -1.6958  1.4901
  917MOL0     H20991   0.819   7.365   1.262 -0.0344 -0.9120  0.6740
  917MOL0     H20992   0.778   7.428   1.095 -0.3029  1.6170  0.5113
  917MOL0     H20993   0.947   7.601   1.275  1.8567 -0.9487 -1.8564
  917MOL0     H20994   0.844   7.634   1.138 -1.3717 -0.9877 -0.6642
  917MOL0     H20995   0.772   7.714   1.374  2.8396 -0.4830  0.2271
  917MOL0     H20996   0.757   7.539   1.402 -2.3092 -1.1456 -1.0898
  917MOL0     H20997   0.583   7.416   1.209  1.9556  1.3494  0.2382
  917MOL0     H20998   0.357   7.381   1.139  3.0727  1.1182  1.0935
  917MOL0     H20999   0.346   7.505   1.011  4.9197  3.3633  0.3544
  917MOL0     H21000   0.153   7.596   1.129  1.2744  1.1043  1.7917
  917MOL0     H21001   0.195   7.513   1.271 -1.2041 -0.0161 -0.7034
  917MOL0     H21002   0.087   7.381   1.005 -0.3588  1.9859  0.3812
  917MOL0     H21003   0.127   7.291   1.140  1.6282  0.2601 -4.0163
  917MOL0     H21004  -0.120   7.336   1.114  1.3224 -1.8128  1.3596
  917MOL0     H21005  -0.079   7.508   1.148 -4.0315 -0.8971  0.0089
  917MOL0     H21006  -0.058   7.320   1.552 -0.7474 -1.1399 -0.1641
  917MOL0     H21007  -0.206   7.438   1.720  3.1144  0.9438  0.2786
  917MOL0     H21008  -0.704   7.565   1.710  2.9507 -1.5934 -1.2385
  917MOL0     H21009  -0.889   7.543   1.867 -1.1107 -3.3413  1.2712
  917MOL0     H21010  -0.818   7.470   2.303 -1.6480 -0.3409  1.0716
  917MOL0     H21011  -0.798   7.315   2.215 -0.9390 -0.6821  0.5711
  917MOL0     H21012  -1.035   7.301   2.168 -0.0137  0.8082  0.0482
  917MOL0     H21013  -1.060   7.439   2.269 -1.8249 -0.8363  0.0406
  917MOL0     H21014  -0.956   7.319   2.469 -1.1460  2.5587 -0.9229
  917MOL0     H21015  -0.928   7.175   2.367  0.6272  0.9875  2.5481
  917MOL0     H21016  -1.186   7.309   2.421  2.0622  1.0556  0.5688
  917MOL0     H21017  -1.183   7.146   2.353 -2.0805  1.3441  0.3082
  917MOL0     H21018  -1.164   7.246   2.636 -0.5086  1.3671 -1.9962
  917MOL0     H21019  -1.042   7.124   2.603  1.0337  0.9697 -0.9666
  917MOL0     H21020  -1.181   6.950   2.572 -0.2696 -0.0073 -1.5592
  917MOL0     H21021  -1.308   7.050   2.497  0.0655  1.2114  0.6943
  917MOL0     H21022  -1.350   7.151   2.734 -0.3304 -1.5387  1.2674
  917MOL0     H21023  -1.407   6.984   2.690 -0.3912  0.0607 -0.1950
  917MOL0     H21024  -1.181   7.061   2.869 -1.2649 -0.0535  1.3771
  917MOL0     H21025  -1.195   6.900   2.792 -1.0389 -0.4986 -0.5490
  917MOL0     H21026  -0.633   7.443   2.181 -0.1747  1.1537 -0.4262
  917MOL0     H21027  -0.436   7.439   2.021  0.4567  0.6692 -2.4645
  917MOL0     H21028  -0.391   7.661   1.403  0.7968  1.6519  0.8672
  917MOL0     H21029  -0.250   7.559   1.243  0.5032  0.5628  0.3849
  917MOL0     H21030   1.261   7.551   0.341  0.0768  0.7836  2.6446
  917MOL0     H21031   1.164   7.464   0.140 -0.6325 -1.4441  0.1012
  917MOL0     H21032   1.073   7.098  -0.140  0.2494  1.6539  0.1748
  917MOL0     H21033   0.976   7.013  -0.369 -0.3875 -2.4192  1.7296
  917MOL0     H21034   0.648   7.203  -0.547 -0.0135  0.3779 -0.4527
  917MOL0     H21035   0.555   7.074  -0.472  0.5015  0.5161  0.2836
  917MOL0     H21036   0.528   7.019  -0.703  0.4761  0.0527  1.2695
  917MOL0     H21037   0.683   7.090  -0.742  1.2796  0.0193 -0.0355
  917MOL0     H21038   0.647   6.816  -0.606  1.1616  0.4284  0.0750
  917MOL0     H21039   0.798   6.884  -0.664  0.1170 -1.0769  0.4422
  917MOL0     H21040   0.672   6.711  -0.800 -2.3092 -0.9911 -0.3387
  917MOL0     H21041   0.544   6.826  -0.827  0.3995  3.0681  1.4682
  917MOL0     H21042   0.823   7.037  -1.063 -1.7443  2.2669  0.6090
  917MOL0     H21043   0.643   7.250  -0.293 -0.7230 -3.5949 -0.4319
  917MOL0     H21044   0.739   7.346  -0.103 -0.8297  1.1230 -2.0945
  918MOL0     O21045   7.416  10.845   7.860  0.2526 -0.5925  0.0283
  918MOL0     C21046   7.334  10.769   7.795  0.0930  0.2538  1.1095
  918MOL0     O21047   7.365  10.644   7.751  0.1738 -0.6093  0.0481
  918MOL0     C21048   7.489  10.601   7.725 -0.3292 -0.2278 -0.9875
  918MOL0     C21049   7.601  10.680   7.695 -0.2494 -0.1096  1.4534
  918MOL0     C21050   7.725  10.621   7.663 -0.5292  0.4888 -0.5686
  918MOL0     C21051   7.736  10.484   7.666  0.4695 -0.6177  0.5692
  918MOL0     O21052   7.852  10.433   7.623  0.3325 -0.7917 -0.8737
  918MOL0     C21053   7.945  10.401   7.726  0.4357  0.1454 -1.3641
  918MOL0     C21054   8.052  10.300   7.687 -0.6436  0.4617 -0.2225
  918MOL0     C21055   8.141  10.351   7.571  0.7512  0.1897  0.0523
  918MOL0     C21056   8.279  10.282   7.570 -0.0255 -0.6177 -0.7502
  918MOL0     C21057   8.363  10.338   7.465 -0.6907 -0.1772  0.8414
  918MOL0     C21058   8.480  10.244   7.431  0.1176 -0.8220 -0.2020
  918MOL0     C21059   8.587  10.231   7.542 -0.4233 -0.9092  0.3737
  918MOL0     C21060   8.677  10.360   7.529  0.3926  0.2008  0.0727
  918MOL0     N21061   8.796  10.351   7.610  0.3336  0.3335  0.8801
  918MOL0     C21062   8.920  10.307   7.578 -0.2344 -0.3646  0.2275
  918MOL0     C21063   9.000  10.326   7.688  0.1341  0.2264  0.5570
  918MOL0     C21064   9.147  10.286   7.706  0.4798 -0.0193 -0.2956
  918MOL0     C21065   9.204  10.290   7.844  0.0991 -0.8380 -0.5115
  918MOL0     C21066   9.240  10.434   7.872 -0.1052  0.4526 -0.2674
  918MOL0     C21067   9.335  10.445   7.991  0.1030  0.8917  0.9661
  918MOL0     O21068   9.458  10.373   7.974  0.1965 -0.1195 -0.0353
  918MOL0     C21069   9.557  10.436   7.906 -1.0066 -0.7039 -0.1412
  918MOL0     C21070   9.562  10.556   7.833  0.2941 -0.0497 -0.3583
  918MOL0     C21071   9.682  10.593   7.772 -0.2687  0.7717 -0.1770
  918MOL0     C21072   9.801  10.513   7.773  0.4948 -0.1495 -0.3714
  918MOL0     C21073   9.923  10.554   7.707  0.1952 -0.3733  0.0309
  918MOL0     O21074  10.032  10.476   7.700 -0.9179  0.9009 -0.5173
  918MOL0     C21075  10.156  10.539   7.679  0.4161  0.7536 -0.8268
  918MOL0     C21076  10.250  10.474   7.592 -0.6160 -0.2440 -0.2748
  918MOL0     C21077  10.378  10.525   7.566  0.8120  0.3054 -0.2046
  918MOL0     C21078  10.422  10.641   7.627  1.0755 -0.7842  0.3432
  918MOL0     O21079  10.550  10.702   7.593  0.0293  0.1214 -0.0019
  918MOL0     C21080  10.642  10.728   7.706 -0.4853  0.3240  0.6885
  918MOL0     C21081  10.679  10.595   7.775  0.5139  0.6530  0.6514
  918MOL0     C21082  10.763  10.492   7.687 -0.3278 -0.1737 -0.0549
  918MOL0     C21083  10.909  10.544   7.657  0.8270 -0.3981  0.2489
  918MOL0     C21084  10.992  10.569   7.794 -0.5484  0.5632  0.3070
  918MOL0     C21085  11.123  10.644   7.771  0.2935  0.6089 -0.1620
  918MOL0     C21086  11.188  10.603   7.638  0.1931 -0.1441  0.0518
  918MOL0     C21087  11.321  10.673   7.616  0.1021 -0.2182  0.0853
  918MOL0    Cl21088  11.468  10.609   7.691  0.1129 -0.0815 -0.2173
  918MOL0     C21089  10.329  10.711   7.708 -1.2262  0.4877  0.3261
  918MOL0     C21090  10.204  10.653   7.733  0.0682 -2.2743 -0.1803
  918MOL0     O21091   9.904  10.653   7.641  0.9149 -0.0667  0.5879
  918MOL0     C21092   9.792  10.388   7.833 -0.1248  0.1659 -0.8562
  918MOL0     C21093   9.673  10.355   7.906  0.3174  0.6384  0.0384
  918MOL0     N21094   8.913  10.360   7.792 -0.9610 -0.0484  0.1169
  918MOL0     N21095   8.798  10.373   7.741  0.3648  0.4501  0.1933
  918MOL0     C21096   7.630  10.399   7.707  0.6208 -0.3612 -0.4835
  918MOL0     C21097   7.505  10.464   7.731 -0.2476  0.2310 -0.1815
  918MOL0     C21098   7.189  10.818   7.778  0.2440  0.2450  0.5974
  918MOL0     C21099   7.091  10.728   7.722 -0.0958  0.1770 -0.4228
  918MOL0     C21100   6.960  10.777   7.695 -0.3272  0.1315 -0.2868
  918MOL0     C21101   6.932  10.914   7.709  0.6637  0.4311  0.0012
  918MOL0     O21102   6.807  10.950   7.667  0.6140 -0.3017  0.1020
  918MOL0     C21103   6.783  11.089   7.658 -0.7679  0.1779 -0.3649
  918MOL0     C21104   6.641  11.092   7.595 -0.3266  0.2409 -0.5230
  918MOL0     C21105   6.653  11.134   7.442  0.3418 -0.2818  0.4988
  918MOL0     C21106   6.515  11.119   7.387  0.6239  0.0602 -0.2341
  918MOL0     C21107   6.509  11.162   7.254 -0.0080 -0.4664 -0.7325
  918MOL0     C21108   6.486  11.198   7.139  0.6557 -0.0195 -0.0794
  918MOL0     C21109   7.034  10.993   7.764  0.3512 -0.3279  0.7307
  918MOL0     C21110   7.155  10.953   7.795 -0.2443  0.5241 -0.5490
  918MOL0     H21111   7.592  10.788   7.689 -0.5691 -0.0279  2.9948
  918MOL0     H21112   7.810  10.678   7.625  0.5658  0.3601  1.5209
  918MOL0     H21113   7.877  10.361   7.802  1.1200  3.2851  1.0967
  918MOL0     H21114   7.999  10.486   7.766 -0.3685  1.5658 -3.1481
  918MOL0     H21115   8.023  10.197   7.662  2.0159 -0.1255 -1.2440
  918MOL0     H21116   8.112  10.301   7.778  0.1416 -2.2107 -0.6139
  918MOL0     H21117   8.152  10.460   7.578 -0.7788  0.4346 -0.9213
  918MOL0     H21118   8.093  10.327   7.477 -1.1466 -3.0526  1.6932
  918MOL0     H21119   8.328  10.292   7.668 -2.1530  3.1657  0.1676
  918MOL0     H21120   8.252  10.177   7.557 -6.6237  0.6495 -0.6584
  918MOL0     H21121   8.418  10.430   7.486 -0.3067  0.8985 -3.8053
  918MOL0     H21122   8.297  10.368   7.384  2.4111  0.9664 -1.4703
  918MOL0     H21123   8.521  10.285   7.339 -1.8505  2.7605  0.3222
  918MOL0     H21124   8.443  10.146   7.398 -3.9316  0.5868 -0.4990
  918MOL0     H21125   8.544  10.225   7.643  0.3151 -1.0135  0.6891
  918MOL0     H21126   8.639  10.135   7.537  0.2343 -0.5172 -0.4709
  918MOL0     H21127   8.609  10.442   7.553 -1.8754 -1.2313 -1.0345
  918MOL0     H21128   8.707  10.354   7.424 -0.3505 -0.7046 -0.1013
  918MOL0     H21129   8.956  10.274   7.481 -0.8984 -1.7626  0.4433
  918MOL0     H21130   9.215  10.341   7.641  1.6156  0.6506  1.4055
  918MOL0     H21131   9.144  10.180   7.678  0.5902 -0.3029  0.7196
  918MOL0     H21132   9.292  10.224   7.852 -0.5487 -1.5030  1.8679
  918MOL0     H21133   9.125  10.251   7.908  0.5971 -2.7408 -0.9751
  918MOL0     H21134   9.293  10.493   7.796 -2.6604  1.5656 -1.2871
  918MOL0     H21135   9.151  10.494   7.892 -2.4204 -1.9217 -2.6870
  918MOL0     H21136   9.276  10.394   8.067 -3.3184  0.6842 -1.6003
  918MOL0     H21137   9.349  10.550   8.018  0.6905  1.2687 -0.6679
  918MOL0     H21138   9.479  10.624   7.815  0.5366  0.5852  0.8356
  918MOL0     H21139   9.675  10.686   7.716  0.7693  1.4157  0.7192
  918MOL0     H21140  10.209  10.376   7.567 -2.6030  0.7236 -1.0706
  918MOL0     H21141  10.450  10.461   7.515  2.3368 -0.4451  2.6647
  918MOL0     H21142  10.593  10.792   7.780  0.5331  1.1801  0.6451
  918MOL0     H21143  10.735  10.770   7.668 -0.5420 -1.1412 -1.1907
  918MOL0     H21144  10.587  10.546   7.809  0.5649 -1.0878 -1.4731
  918MOL0     H21145  10.732  10.607   7.870 -1.9765 -0.6630  2.3364
  918MOL0     H21146  10.716  10.464   7.593 -1.1083 -1.6143  0.7309
  918MOL0     H21147  10.764  10.397   7.742  1.7079 -0.9807 -1.3801
  918MOL0     H21148  10.948  10.462   7.597  0.5975  0.2192 -0.7604
  918MOL0     H21149  10.902  10.627   7.587  0.4727 -0.1995  0.5171
  918MOL0     H21150  11.015  10.470   7.834  0.5289  0.9273  0.6448
  918MOL0     H21151  10.945  10.619   7.879  0.8751  0.5205  1.1596
  918MOL0     H21152  11.192  10.612   7.849  6.0140  0.0966 -4.7356
  918MOL0     H21153  11.099  10.750   7.781  0.5475  0.6203  0.3308
  918MOL0     H21154  11.198  10.494   7.636 -0.4011 -0.2022 -0.1429
  918MOL0     H21155  11.134  10.630   7.547 -0.4345 -0.4733  0.3129
  918MOL0     H21156  11.309  10.775   7.654 -1.9245 -0.5063  0.3267
  918MOL0     H21157  11.330  10.654   7.509 -1.9816 -0.0501 -0.1624
  918MOL0     H21158  10.359  10.803   7.756 -0.2418 -0.8541  2.4029
  918MOL0     H21159  10.141  10.703   7.807  1.2027 -1.8585  0.5202
  918MOL0     H21160   9.882  10.330   7.845  0.6394  1.5151  0.2000
  918MOL0     H21161   9.662  10.265   7.966  2.5470 -0.8952 -1.6698
  918MOL0     H21162   7.643  10.292   7.695  0.7472 -0.0773 -4.0161
  918MOL0     H21163   7.419  10.407   7.764 -0.4388  0.6425  0.0315
  918MOL0     H21164   7.113  10.622   7.708 -1.1946  0.0126 -1.0478
  918MOL0     H21165   6.890  10.704   7.656  0.0332 -0.1981 -0.3231
  918MOL0     H21166   6.860  11.137   7.597 -0.6959  0.9485  0.3110
  918MOL0     H21167   6.790  11.144   7.752  2.2609 -2.1428  0.9024
  918MOL0     H21168   6.580  11.002   7.601  0.8554 -0.7087 -1.9947
  918MOL0     H21169   6.575  11.158   7.653 -1.4756  0.1209 -1.6520
  918MOL0     H21170   6.712  11.055   7.395 -1.5655 -0.2870 -2.1246
  918MOL0     H21171   6.700  11.231   7.424 -0.4500 -0.1119 -0.7608
  918MOL0     H21172   6.479  11.016   7.394  0.1087  0.2816  0.4815
  918MOL0     H21173   6.451  11.184   7.447 -1.1420 -0.9062 -0.9767
  918MOL0     H21174   6.457  11.235   7.042  0.7900 -0.1467 -0.1698
  918MOL0     H21175   7.015  11.096   7.795  0.2521 -0.0049 -0.3806
  918MOL0     H21176   7.225  11.018   7.846  1.4867 -1.4616 -0.2526
  919MOL0     O21177   0.916  11.092   6.727 -0.5845 -0.0878  0.3429
  919MOL0     C21178   0.973  11.172   6.651  0.6462  0.2589  0.1382
  919MOL0     O21179   1.048  11.143   6.543 -0.4057  0.0019 -0.2963
  919MOL0     C21180   1.089  11.015   6.510  0.5651  0.3949 -0.1242
  919MOL0     C21181   1.228  10.995   6.486  0.1043  0.5044 -1.3656
  919MOL0     C21182   1.269  10.875   6.424  0.0000 -0.7940 -0.2121
  919MOL0     C21183   1.176  10.778   6.388 -0.2112  0.5484 -0.4379
  919MOL0     O21184   1.222  10.655   6.345 -0.2974  0.1861  0.6170
  919MOL0     C21185   1.357  10.606   6.369 -0.2618 -0.1182  0.3324
  919MOL0     C21186   1.368  10.454   6.325  0.1101 -0.1570 -0.2239
  919MOL0     C21187   1.504  10.389   6.371 -0.3932  0.3874  1.1805
  919MOL0     C21188   1.604  10.402   6.262 -0.0624 -0.3460  0.4163
  919MOL0     C21189   1.739  10.362   6.310 -0.0490  0.8963 -0.2613
  919MOL0     C21190   1.844  10.385   6.204 -0.2338 -0.5334  0.4313
  919MOL0     C21191   1.984  10.333   6.241 -0.0381 -0.4742 -0.6102
  919MOL0     C21192   2.049  10.405   6.353 -0.4091 -0.2635 -1.0128
  919MOL0     N21193   2.194  10.385   6.360  0.1126  0.2564 -0.2708
  919MOL0     C21194   2.284  10.423   6.257  0.0868  0.5208 -0.1580
  919MOL0     C21195   2.408  10.401   6.311  0.1867 -1.6344  0.1737
  919MOL0     C21196   2.532  10.409   6.224  0.5020 -0.1570 -0.2755
  919MOL0     C21197   2.652  10.455   6.303  0.7159 -0.0587 -0.2460
  919MOL0     C21198   2.639  10.605   6.331  0.5077  0.5181 -0.7765
  919MOL0     C21199   2.717  10.685   6.217  0.7504  0.2824  0.1045
  919MOL0     O21200   2.712  10.831   6.222 -0.5549  0.2043 -0.0234
  919MOL0     C21201   2.793  10.889   6.311 -0.6783 -0.2944  0.3464
  919MOL0     C21202   2.761  10.892   6.439  0.0527 -0.1670 -1.0342
  919MOL0     C21203   2.837  10.958   6.537  0.0566  0.0663  0.0762
  919MOL0     C21204   2.956  11.022   6.497  0.8431  0.2907 -0.3622
  919MOL0     C21205   3.035  11.092   6.598  0.6496 -0.9453 -0.7007
  919MOL0     O21206   2.964  11.138   6.703  0.4882  0.2422 -1.0900
  919MOL0     C21207   3.024  11.190   6.815  0.0122  0.0190 -0.3960
  919MOL0     C21208   3.155  11.219   6.837  0.0404  0.2580  0.8331
  919MOL0     C21209   3.194  11.284   6.957  0.3142  0.1843 -0.0881
  919MOL0     C21210   3.092  11.311   7.054 -0.3890 -0.0147  0.4569
  919MOL0     O21211   3.107  11.355   7.180 -0.7724  0.0086 -0.3036
  919MOL0     C21212   3.198  11.458   7.197  0.0958 -1.1647 -0.4222
  919MOL0     C21213   3.221  11.499   7.340 -0.1799  0.0776  0.4271
  919MOL0     C21214   3.125  11.595   7.406 -0.4487 -1.0736 -0.2673
  919MOL0     C21215   3.001  11.517   7.459  0.5137  0.1391  0.4906
  919MOL0     C21216   2.893  11.614   7.521 -0.1946 -0.4196 -0.9402
  919MOL0     C21217   2.777  11.533   7.567  0.0860  0.0052  0.8445
  919MOL0     C21218   2.694  11.623   7.656 -0.3268  0.0235 -0.6350
  919MOL0     C21219   2.617  11.533   7.750 -0.2544  0.0314  0.0097
  919MOL0    Cl21220   2.706  11.456   7.882  0.2000  0.5106 -0.5106
  919MOL0     C21221   2.965  11.267   7.033  0.0464  0.0114  0.4774
  919MOL0     C21222   2.928  11.214   6.916 -0.9848  0.1275  0.7016
  919MOL0     O21223   3.156  11.105   6.584  0.0789  0.4110 -0.8954
  919MOL0     C21224   2.992  11.016   6.366 -0.4953 -0.2087  0.1231
  919MOL0     C21225   2.912  10.957   6.268  0.3609  0.1142 -0.5455
  919MOL0     N21226   2.395  10.368   6.446 -0.0939 -0.2583 -0.4313
  919MOL0     N21227   2.266  10.362   6.474 -0.9915 -0.8439  0.3638
  919MOL0     C21228   1.036  10.802   6.413  0.4201 -0.1234 -0.2531
  919MOL0     C21229   1.001  10.919   6.471  1.0988  0.6084 -0.0398
  919MOL0     C21230   0.937  11.316   6.656  0.5304 -0.2970  0.1610
  919MOL0     C21231   0.833  11.361   6.741  0.3224 -0.0963  0.1970
  919MOL0     C21232   0.810  11.506   6.763  0.0540  0.1216  0.6115
  919MOL0     C21233   0.888  11.597   6.689  0.4745  0.7134 -0.3628
  919MOL0     O21234   0.877  11.732   6.712  0.0068 -0.2903  0.4164
  919MOL0     C21235   0.747  11.794   6.735 -0.2611 -0.0872 -0.7178
  919MOL0     C21236   0.746  11.856   6.877  0.9632 -0.1220  0.5722
  919MOL0     C21237   0.882  11.932   6.914 -0.3110  0.3591  0.5260
  919MOL0     C21238   0.866  12.033   7.021  0.0883  0.4564 -0.5967
  919MOL0     C21239   0.830  11.957   7.147  0.1247  0.4608  0.2826
  919MOL0     C21240   0.807  11.913   7.253  0.0122  0.2093 -0.5416
  919MOL0     C21241   0.985  11.548   6.606  0.2981 -0.3978  0.2784
  919MOL0     C21242   0.998  11.417   6.581 -0.3942  0.9002  0.5658
  919MOL0     H21243   1.301  11.071   6.514 -1.7149  1.1319  2.1927
  919MOL0     H21244   1.374  10.875   6.396  0.1955  0.1888  0.4560
  919MOL0     H21245   1.383  10.616   6.474 -0.0680  0.5652  0.2200
  919MOL0     H21246   1.428  10.663   6.308 -0.5319  0.9221  0.9680
  919MOL0     H21247   1.343  10.443   6.219  0.3100 -0.2573 -0.2613
  919MOL0     H21248   1.287  10.404   6.379 -0.0059 -0.2837 -0.5107
  919MOL0     H21249   1.493  10.287   6.409  0.4114 -0.0408  0.3073
  919MOL0     H21250   1.534  10.437   6.465 -3.4999  1.1031  1.8951
  919MOL0     H21251   1.573  10.339   6.178  0.0646  0.4766 -0.2567
  919MOL0     H21252   1.606  10.505   6.225  1.7726 -0.3313  0.4648
  919MOL0     H21253   1.735  10.254   6.327  0.1939  0.7216 -1.2055
  919MOL0     H21254   1.773  10.425   6.393 -0.2792  1.0317 -0.2690
  919MOL0     H21255   1.857  10.490   6.174  0.9747 -1.1694 -1.4217
  919MOL0     H21256   1.818  10.328   6.114 -1.4750 -1.0988  1.1267
  919MOL0     H21257   1.971  10.230   6.277 -1.5554 -0.2490 -0.4252
  919MOL0     H21258   2.057  10.340   6.160  1.3283  0.8425  0.6838
  919MOL0     H21259   1.998  10.363   6.440 -4.0503 -0.4573 -3.0711
  919MOL0     H21260   2.028  10.512   6.343  0.7575  0.2025  0.8864
  919MOL0     H21261   2.266  10.449   6.153  2.0911 -0.4165 -0.7981
  919MOL0     H21262   2.522  10.483   6.144  1.6441 -0.0474 -0.3283
  919MOL0     H21263   2.551  10.308   6.184 -2.7621 -2.3796  3.1054
  919MOL0     H21264   2.744  10.440   6.246  0.2534  0.9968 -1.2999
  919MOL0     H21265   2.661  10.395   6.394 -0.9849  0.1489  0.1051
  919MOL0     H21266   2.535  10.636   6.336  0.0660 -0.7817 -1.5053
  919MOL0     H21267   2.687  10.631   6.426  2.4171  1.4350 -1.9242
  919MOL0     H21268   2.683  10.649   6.119 -1.6211  1.5632  0.3719
  919MOL0     H21269   2.819  10.648   6.213  0.4537 -0.4890 -1.2031
  919MOL0     H21270   2.665  10.850   6.469 -1.3017  2.4671 -1.4368
  919MOL0     H21271   2.795  10.955   6.637  1.2929  0.4068  0.6372
  919MOL0     H21272   3.226  11.203   6.756  0.8653 -2.0139  1.9173
  919MOL0     H21273   3.296  11.318   6.974 -0.1111  0.7828  1.4653
  919MOL0     H21274   3.158  11.538   7.135 -0.4971 -1.1626 -0.0432
  919MOL0     H21275   3.297  11.437   7.155  0.5170 -0.1457  0.0196
  919MOL0     H21276   3.317  11.548   7.355 -0.7995  1.2722  0.6070
  919MOL0     H21277   3.241  11.416   7.409  2.1568 -0.0588 -0.3302
  919MOL0     H21278   3.089  11.670   7.336 -0.2053 -0.1180  0.6123
  919MOL0     H21279   3.163  11.634   7.501  0.0470 -2.6420  0.2130
  919MOL0     H21280   2.960  11.453   7.381 -1.4480  3.9467 -1.8894
  919MOL0     H21281   3.030  11.453   7.543  1.7718  2.1782  1.7102
  919MOL0     H21282   2.865  11.698   7.456 -3.6895 -0.1151  0.7326
  919MOL0     H21283   2.930  11.648   7.618  0.2548 -0.9702 -0.9191
  919MOL0     H21284   2.817  11.447   7.623 -0.2016 -0.6236  0.1097
  919MOL0     H21285   2.721  11.494   7.482  1.0964  0.9496 -0.2924
  919MOL0     H21286   2.752  11.688   7.723  1.6396 -0.9009 -1.3690
  919MOL0     H21287   2.623  11.681   7.596 -0.2380  0.3919 -0.3873
  919MOL0     H21288   2.556  11.459   7.696 -1.0330  1.4874 -1.1920
  919MOL0     H21289   2.542  11.597   7.797 -0.6340 -1.0686  0.9440
  919MOL0     H21290   2.888  11.286   7.107 -0.6713 -0.2801 -0.1879
  919MOL0     H21291   2.825  11.185   6.898 -0.5652 -0.6745 -0.5113
  919MOL0     H21292   3.085  11.046   6.319 -1.6319  0.1278 -2.0621
  919MOL0     H21293   2.933  10.952   6.162 -0.7369  2.4424 -0.9351
  919MOL0     H21294   0.958  10.727   6.406 -1.4952  1.8703 -2.5197
  919MOL0     H21295   0.896  10.935   6.493  0.6149 -1.5955 -0.4844
  919MOL0     H21296   0.781  11.302   6.815  1.8451 -0.6133  0.8886
  919MOL0     H21297   0.747  11.533   6.846 -0.7248 -0.4374  0.2108
  919MOL0     H21298   0.665  11.723   6.746 -1.8903  1.6611 -1.0792
  919MOL0     H21299   0.723  11.859   6.651  1.3442  1.0825 -0.3156
  919MOL0     H21300   0.667  11.932   6.886  0.5400 -0.7411  2.3537
  919MOL0     H21301   0.731  11.776   6.949 -1.3067 -1.2266 -0.9884
  919MOL0     H21302   0.903  11.989   6.823 -2.8206 -0.8166 -0.9052
  919MOL0     H21303   0.957  11.855   6.934 -2.2607 -1.9453 -0.4169
  919MOL0     H21304   0.962  12.084   7.020  0.7373 -0.7389 -1.0773
  919MOL0     H21305   0.784  12.099   6.990 -1.2568 -1.2549 -0.9088
  919MOL0     H21306   0.814  11.865   7.348  1.6953  2.9001  0.8376
  919MOL0     H21307   1.048  11.620   6.555 -1.1140  2.3596  2.1713
  919MOL0     H21308   1.064  11.390   6.499  2.2642  1.7616  2.2930
  920MOL0     O21309   5.774   7.846   4.537 -0.9897 -0.7028 -0.9210
  920MOL0     C21310   5.699   7.933   4.575 -0.1383  0.5552  0.9655
  920MOL0     O21311   5.573   7.938   4.535  0.9519 -0.7154  0.3476
  920MOL0     C21312   5.508   7.833   4.472  0.2550  0.0967  0.2724
  920MOL0     C21313   5.378   7.859   4.442  0.4143  0.8216 -0.2638
  920MOL0     C21314   5.299   7.773   4.356  0.5816 -0.5961 -0.4426
  920MOL0     C21315   5.352   7.654   4.311  0.2145  0.3329 -1.1722
  920MOL0     O21316   5.287   7.581   4.221 -0.2963 -0.6877 -0.1372
  920MOL0     C21317   5.281   7.444   4.248  0.3703 -0.5978  0.2887
  920MOL0     C21318   5.150   7.377   4.224  0.3143 -0.4061  0.6883
  920MOL0     C21319   5.092   7.387   4.089  0.5634  0.1983  0.4346
  920MOL0     C21320   4.950   7.350   4.112 -0.5526  0.4017 -1.1294
  920MOL0     C21321   4.867   7.331   3.977 -0.2263 -0.1028  0.5186
  920MOL0     C21322   4.748   7.244   3.996  0.6452  0.2387 -0.2664
  920MOL0     C21323   4.724   7.165   3.865 -0.6118 -0.8248 -0.1681
  920MOL0     C21324   4.611   7.067   3.884 -0.1188 -0.4805 -0.1922
  920MOL0     N21325   4.586   7.004   3.751  0.7510 -0.0160  0.4100
  920MOL0     C21326   4.597   7.060   3.622 -0.2004  0.3508  0.5920
  920MOL0     C21327   4.546   6.974   3.533 -0.6142  0.1449 -0.0033
  920MOL0     C21328   4.540   6.985   3.382  0.2801 -0.4668 -0.1588
  920MOL0     C21329   4.584   6.844   3.308 -0.3118 -0.2541  0.6579
  920MOL0     C21330   4.472   6.733   3.329 -0.3062 -0.7446 -0.7852
  920MOL0     C21331   4.334   6.775   3.286 -0.5712 -0.2899 -0.4085
  920MOL0     O21332   4.232   6.683   3.312  0.2917 -0.2548 -0.3177
  920MOL0     C21333   4.104   6.712   3.268  0.6931 -0.2867  0.3615
  920MOL0     C21334   4.027   6.596   3.279 -0.4165 -0.0670 -0.9586
  920MOL0     C21335   3.895   6.587   3.226 -0.5747 -0.5458 -0.6614
  920MOL0     C21336   3.821   6.710   3.189 -0.7293 -0.1750  0.6167
  920MOL0     C21337   3.688   6.703   3.135  0.6795  0.3904  0.3800
  920MOL0     O21338   3.603   6.611   3.191 -0.3422  0.3255 -0.1576
  920MOL0     C21339   3.468   6.618   3.152 -0.5313  0.0009 -0.1881
  920MOL0     C21340   3.371   6.683   3.229 -0.3578  0.8284  0.3020
  920MOL0     C21341   3.241   6.683   3.178  0.3060 -0.0809 -0.8523
  920MOL0     C21342   3.205   6.611   3.062  0.7002 -0.2817 -0.4578
  920MOL0     O21343   3.072   6.581   3.052 -1.0516  0.5500  0.0329
  920MOL0     C21344   3.019   6.538   2.920 -0.6845  0.2165 -0.0801
  920MOL0     C21345   2.863   6.503   2.940  0.0172 -1.2158 -0.0679
  920MOL0     C21346   2.789   6.473   2.814 -0.6873 -0.3519  0.4914
  920MOL0     C21347   2.642   6.427   2.850 -0.8346 -0.4289 -0.6994
  920MOL0     C21348   2.546   6.387   2.741 -0.5807  0.2266  0.3834
  920MOL0     C21349   2.571   6.239   2.682  0.2402 -0.4937  0.3334
  920MOL0     C21350   2.456   6.184   2.596  0.4666 -0.3288 -1.0904
  920MOL0     C21351   2.331   6.158   2.682 -0.3465 -0.0777 -0.9236
  920MOL0    Cl21352   2.371   6.016   2.794 -0.1092 -0.0349  0.6488
  920MOL0     C21353   3.302   6.547   2.989  0.1208 -0.2331 -0.4701
  920MOL0     C21354   3.436   6.553   3.033 -0.2304  0.0066 -0.9852
  920MOL0     O21355   3.655   6.779   3.045 -0.3674 -0.0001  0.3890
  920MOL0     C21356   3.903   6.824   3.183 -0.6883 -1.2173 -0.3440
  920MOL0     C21357   4.043   6.830   3.217  0.0956  1.0485 -0.0663
  920MOL0     N21358   4.503   6.870   3.604  0.3835  0.5469  0.1167
  920MOL0     N21359   4.517   6.888   3.732 -0.7943 -0.1160 -0.4591
  920MOL0     C21360   5.486   7.620   4.349 -0.5326 -0.5260  0.2688
  920MOL0     C21361   5.558   7.708   4.430 -0.4163 -0.9427  0.0359
  920MOL0     C21362   5.749   8.052   4.643 -0.9593 -0.3316 -0.0388
  920MOL0     C21363   5.881   8.109   4.606 -0.2921  0.1788  0.8683
  920MOL0     C21364   5.915   8.235   4.666 -0.3214  0.1468  0.2582
  920MOL0     C21365   5.831   8.308   4.744 -0.3541 -0.3911 -0.3920
  920MOL0     O21366   5.881   8.426   4.786 -0.5925 -1.2982 -0.0847
  920MOL0     C21367   5.808   8.498   4.887 -0.2013  0.3460  0.0531
  920MOL0     C21368   5.703   8.595   4.830 -0.3453  0.2391  0.7706
  920MOL0     C21369   5.771   8.696   4.733 -0.1419  0.7476 -1.0311
  920MOL0     C21370   5.878   8.791   4.807  0.1413  0.8709  0.2939
  920MOL0     C21371   5.824   8.844   4.934 -0.0198 -1.3276 -0.2755
  920MOL0     C21372   5.800   8.906   5.035 -0.0444 -0.5110 -0.5594
  920MOL0     C21373   5.704   8.248   4.774  0.4930  0.3885 -1.3377
  920MOL0     C21374   5.669   8.123   4.728 -0.2158 -0.6718  0.1019
  920MOL0     H21375   5.338   7.957   4.466 -0.0322  0.5221  0.2551
  920MOL0     H21376   5.196   7.799   4.333  0.8856 -1.0219 -2.4565
  920MOL0     H21377   5.322   7.422   4.347 -0.9201 -2.7365  0.4156
  920MOL0     H21378   5.364   7.401   4.190  2.3241 -0.1950  2.6092
  920MOL0     H21379   5.089   7.427   4.301 -1.7832 -3.0946  0.9356
  920MOL0     H21380   5.157   7.270   4.248 -0.2496 -0.8893 -1.1597
  920MOL0     H21381   5.143   7.330   4.012  1.8846  5.5091 -3.1931
  920MOL0     H21382   5.100   7.492   4.058  5.0701  0.1228  0.7624
  920MOL0     H21383   4.950   7.258   4.172 -2.9956  1.0604  0.0126
  920MOL0     H21384   4.900   7.429   4.170  0.5541  0.3394 -0.0603
  920MOL0     H21385   4.929   7.303   3.892 -2.3643 -0.7596 -0.9019
  920MOL0     H21386   4.833   7.433   3.958  1.8189  0.7050  0.8892
  920MOL0     H21387   4.658   7.300   4.026 -1.8510 -2.9944 -1.1724
  920MOL0     H21388   4.758   7.171   4.077 -0.9681 -0.9594 -1.0805
  920MOL0     H21389   4.711   7.238   3.785  2.8629 -0.2251 -0.3123
  920MOL0     H21390   4.802   7.094   3.839 -2.9391 -3.9303  0.6915
  920MOL0     H21391   4.527   7.132   3.910  1.6251  0.7942  2.7174
  920MOL0     H21392   4.633   6.996   3.963 -0.9802  0.1062  0.6015
  920MOL0     H21393   4.643   7.156   3.604  2.4227 -0.9311 -0.0473
  920MOL0     H21394   4.611   7.063   3.353 -0.3573  1.1207  2.2472
  920MOL0     H21395   4.440   7.025   3.368 -0.2641 -1.3318  1.0410
  920MOL0     H21396   4.677   6.807   3.351  0.3292  1.6773  1.0269
  920MOL0     H21397   4.602   6.869   3.203 -0.4922  2.2826  1.1699
  920MOL0     H21398   4.505   6.637   3.288  1.3817 -0.3625 -0.4002
  920MOL0     H21399   4.464   6.700   3.433  1.0991 -0.0290 -0.4222
  920MOL0     H21400   4.349   6.785   3.178  1.1091 -1.3861 -0.3088
  920MOL0     H21401   4.293   6.863   3.336 -3.2264 -2.1191  0.8642
  920MOL0     H21402   4.083   6.513   3.321  2.8142  1.9714 -0.9819
  920MOL0     H21403   3.855   6.486   3.231  2.8488 -1.9793  1.2613
  920MOL0     H21404   3.391   6.725   3.327 -1.6745 -0.4103  1.1344
  920MOL0     H21405   3.159   6.731   3.230  0.0557  0.6750 -1.9211
  920MOL0     H21406   3.061   6.450   2.871 -0.8600 -0.2578  0.6175
  920MOL0     H21407   3.045   6.621   2.853  1.5776 -0.7886 -0.5341
  920MOL0     H21408   2.813   6.583   2.996  2.9761  1.7235 -1.2761
  920MOL0     H21409   2.868   6.412   3.001  1.4398 -1.3269 -0.3175
  920MOL0     H21410   2.846   6.396   2.762  3.0797  1.7880  1.0637
  920MOL0     H21411   2.779   6.558   2.746  0.6646 -0.7622 -0.2601
  920MOL0     H21412   2.647   6.337   2.912 -0.9626 -0.7045 -1.0830
  920MOL0     H21413   2.601   6.507   2.912  2.7278 -1.1512  3.0489
  920MOL0     H21414   2.545   6.463   2.663 -1.9241 -1.6850 -1.6147
  920MOL0     H21415   2.452   6.395   2.798  0.9685  1.4458  2.9396
  920MOL0     H21416   2.596   6.172   2.764 -0.8356  1.4620  2.3868
  920MOL0     H21417   2.662   6.233   2.621  1.6622 -2.8436  2.5130
  920MOL0     H21418   2.433   6.253   2.514  1.8284  0.3800 -0.8993
  920MOL0     H21419   2.484   6.087   2.553  2.0655 -1.1041  1.4729
  920MOL0     H21420   2.255   6.110   2.620  0.2504  0.2220 -1.8918
  920MOL0     H21421   2.290   6.225   2.759 -1.4592 -0.9611 -0.7076
  920MOL0     H21422   3.286   6.499   2.893  3.2606 -0.5867 -0.8946
  920MOL0     H21423   3.518   6.512   2.975  2.3235  1.6950  1.2308
  920MOL0     H21424   3.870   6.920   3.145  3.6975  0.8522  0.4850
  920MOL0     H21425   4.109   6.916   3.219  1.8904 -0.2648  0.0194
  920MOL0     H21426   5.554   7.539   4.326  0.3920 -0.0857  1.4032
  920MOL0     H21427   5.654   7.664   4.454 -1.4256 -3.0773  0.4488
  920MOL0     H21428   5.952   8.058   4.542 -0.2347 -1.5773  2.2383
  920MOL0     H21429   6.003   8.288   4.631 -0.7701  1.7277  1.4046
  920MOL0     H21430   5.877   8.557   4.948  0.0053 -0.2544  0.4000
  920MOL0     H21431   5.765   8.429   4.960 -0.7061  2.3580  1.7830
  920MOL0     H21432   5.641   8.525   4.774  1.6103 -1.2113  0.2715
  920MOL0     H21433   5.637   8.636   4.907  0.2460 -0.7153  1.8155
  920MOL0     H21434   5.687   8.761   4.707 -1.2228 -0.8220 -1.5930
  920MOL0     H21435   5.815   8.649   4.644  1.5936 -0.3424  0.3430
  920MOL0     H21436   5.968   8.734   4.831 -1.7368 -1.7810  1.5317
  920MOL0     H21437   5.916   8.871   4.743  2.0573  1.7805  2.4167
  920MOL0     H21438   5.794   8.967   5.123  0.5553  2.9531 -2.7284
  920MOL0     H21439   5.627   8.303   4.828  0.2216 -1.0838 -0.1535
  920MOL0     H21440   5.574   8.078   4.754 -1.2236  0.8642 -0.8214
  921MOL0     O21441   6.182   4.522   0.134 -0.0728  0.2026  0.3993
  921MOL0     C21442   6.188   4.509   0.010 -1.1793  0.2684 -0.8271
  921MOL0     O21443   6.084   4.490  -0.069 -0.4188 -0.0378 -0.5828
  921MOL0     C21444   5.956   4.497  -0.012 -0.1028 -1.0437  0.5456
  921MOL0     C21445   5.880   4.378   0.012 -0.4701  0.2556  0.2251
  921MOL0     C21446   5.748   4.382   0.053  0.6854 -0.3960  0.4640
  921MOL0     C21447   5.676   4.499   0.063  0.0736  0.1378 -0.6686
  921MOL0     O21448   5.548   4.475   0.105 -0.0652 -0.6230  0.2032
  921MOL0     C21449   5.471   4.596   0.096  0.1478  0.0659  0.1052
  921MOL0     C21450   5.334   4.553   0.130 -0.6336  0.0248 -0.3106
  921MOL0     C21451   5.247   4.683   0.140  0.4016 -0.2021  0.8428
  921MOL0     C21452   5.105   4.656   0.184 -0.9052 -0.7520  0.2253
  921MOL0     C21453   5.014   4.767   0.231  0.1908  1.1769 -0.7104
  921MOL0     C21454   4.989   4.873   0.121  0.0424  0.0503  0.2316
  921MOL0     C21455   4.933   4.814  -0.016  0.1443  0.2950 -0.5422
  921MOL0     C21456   4.810   4.735   0.002  0.3321 -0.5245 -0.3177
  921MOL0     N21457   4.696   4.828   0.042  0.4329  0.0448 -0.5315
  921MOL0     C21458   4.651   4.932  -0.027 -0.1785 -1.1846 -0.4238
  921MOL0     C21459   4.534   4.967   0.035 -0.6064 -0.2579  0.2707
  921MOL0     C21460   4.444   5.078  -0.002  0.8345  0.2710  0.3649
  921MOL0     C21461   4.335   5.061  -0.118 -0.3563  0.1711  0.4026
  921MOL0     C21462   4.374   4.992  -0.250 -0.4037 -0.7019  0.3215
  921MOL0     C21463   4.252   4.952  -0.336  0.0387  0.5616 -0.2679
  921MOL0     O21464   4.214   5.064  -0.422  0.4898 -0.7708  0.0841
  921MOL0     C21465   4.106   5.045  -0.509 -0.0719 -0.5425  0.0593
  921MOL0     C21466   4.043   5.159  -0.545 -0.3435  0.7079  0.2432
  921MOL0     C21467   3.915   5.150  -0.602 -0.4757  1.4509  0.3990
  921MOL0     C21468   3.867   5.016  -0.651 -0.2021  0.3218 -0.1364
  921MOL0     C21469   3.740   5.000  -0.717 -0.7852  0.0090  1.3112
  921MOL0     O21470   3.726   4.879  -0.792  0.5951  0.2823 -0.2428
  921MOL0     C21471   3.594   4.847  -0.824  0.2746  1.0330 -0.8128
  921MOL0     C21472   3.509   4.930  -0.877  0.6004 -0.1056  0.6009
  921MOL0     C21473   3.385   4.882  -0.920 -0.4296 -0.1621  0.3199
  921MOL0     C21474   3.334   4.755  -0.894 -0.3583 -0.1175 -0.4244
  921MOL0     O21475   3.208   4.706  -0.916 -0.5143  0.1547 -0.0504
  921MOL0     C21476   3.123   4.753  -1.023 -0.1293  0.3991  0.0019
  921MOL0     C21477   2.999   4.801  -0.975 -0.0348 -0.2283  0.7875
  921MOL0     C21478   2.899   4.831  -1.086  0.8075 -1.1956 -0.4551
  921MOL0     C21479   2.758   4.854  -1.027 -0.2321 -0.3952 -0.5128
  921MOL0     C21480   2.651   4.815  -1.130 -0.7529 -0.3115 -0.3600
  921MOL0     C21481   2.511   4.857  -1.065  0.1903 -0.3004  0.0821
  921MOL0     C21482   2.450   4.986  -1.111 -0.0288  1.0288  0.1576
  921MOL0     C21483   2.398   4.961  -1.256 -0.7730 -0.2656  0.1528
  921MOL0    Cl21484   2.518   5.048  -1.359 -0.1633 -0.3428 -0.4313
  921MOL0     C21485   3.432   4.665  -0.834 -0.3561 -0.0846 -0.1618
  921MOL0     C21486   3.557   4.707  -0.807 -0.8973 -0.7198 -0.7840
  921MOL0     O21487   3.656   5.088  -0.700  0.3247 -0.5052  0.0212
  921MOL0     C21488   3.953   4.905  -0.626 -0.4247  0.1309 -0.2442
  921MOL0     C21489   4.068   4.921  -0.549 -0.2507  0.0643 -0.1248
  921MOL0     N21490   4.528   4.889   0.153  0.2010 -0.3058 -0.0761
  921MOL0     N21491   4.633   4.812   0.161  1.0308  0.7896  0.6516
  921MOL0     C21492   5.753   4.613   0.037  0.5303 -0.2829  1.0630
  921MOL0     C21493   5.888   4.613  -0.002 -0.2800 -0.4897 -0.6234
  921MOL0     C21494   6.324   4.503  -0.055 -0.6030  0.1845  0.5178
  921MOL0     C21495   6.445   4.510   0.016  1.2167  0.2252 -0.1833
  921MOL0     C21496   6.564   4.492  -0.052 -0.3464 -0.5263 -0.0410
  921MOL0     C21497   6.567   4.484  -0.196  0.3062 -0.3888 -0.1613
  921MOL0     O21498   6.684   4.449  -0.254  0.3104 -0.2904  0.0175
  921MOL0     C21499   6.684   4.390  -0.390  0.5399  0.6722  0.3762
  921MOL0     C21500   6.819   4.329  -0.432 -0.3517  0.9249  0.0198
  921MOL0     C21501   6.932   4.430  -0.417 -0.0890  0.1530  0.3129
  921MOL0     C21502   7.053   4.379  -0.489 -0.8413 -0.0850  0.7591
  921MOL0     C21503   7.119   4.268  -0.418 -1.0951  0.6485  0.0985
  921MOL0     C21504   7.171   4.171  -0.360 -0.1091  0.0035 -0.5625
  921MOL0     C21505   6.453   4.494  -0.269  0.1966  0.8142  0.0286
  921MOL0     C21506   6.324   4.506  -0.201 -0.2624  0.6770  0.0234
  921MOL0     H21507   5.927   4.280   0.010 -0.6966  0.1631 -1.2368
  921MOL0     H21508   5.695   4.293   0.083 -1.1579  0.4252 -0.1947
  921MOL0     H21509   5.462   4.632  -0.007  0.2775  0.4408  0.2245
  921MOL0     H21510   5.505   4.685   0.150  1.9257  0.1060 -0.9984
  921MOL0     H21511   5.343   4.502   0.226  0.1760 -2.1853 -1.4784
  921MOL0     H21512   5.297   4.476   0.062  1.2351  0.5921 -2.0851
  921MOL0     H21513   5.262   4.731   0.043 -0.7011 -1.4476  0.0159
  921MOL0     H21514   5.296   4.752   0.209 -0.7978  1.9879 -0.3785
  921MOL0     H21515   5.056   4.586   0.116  0.2369 -1.6199  0.2627
  921MOL0     H21516   5.113   4.607   0.282 -1.7092  0.7790  1.1038
  921MOL0     H21517   5.068   4.831   0.301  1.3888 -0.8507  0.2980
  921MOL0     H21518   4.915   4.735   0.266 -0.7432  2.8791 -1.6498
  921MOL0     H21519   5.085   4.920   0.098  0.1047 -0.3277 -0.2988
  921MOL0     H21520   4.914   4.948   0.148  0.2910 -0.5797  2.9258
  921MOL0     H21521   4.911   4.890  -0.091 -2.1569 -2.0517 -2.4106
  921MOL0     H21522   5.014   4.758  -0.062  0.3819  0.0988  0.1042
  921MOL0     H21523   4.810   4.646   0.066  0.3169 -0.5145 -0.3033
  921MOL0     H21524   4.801   4.704  -0.102  0.3779  1.3896 -0.9342
  921MOL0     H21525   4.703   4.956  -0.120 -0.0388  1.8967  0.3435
  921MOL0     H21526   4.512   5.152  -0.046 -2.7122  3.9465  0.4530
  921MOL0     H21527   4.401   5.127   0.086  0.7084 -0.1994  0.5650
  921MOL0     H21528   4.291   5.160  -0.138 -2.0284 -0.9594 -1.9535
  921MOL0     H21529   4.260   4.997  -0.070 -0.5502  0.3072  0.2827
  921MOL0     H21530   4.429   5.067  -0.308 -0.1042  0.5017  2.0655
  921MOL0     H21531   4.432   4.900  -0.236  0.6183  0.2149  2.8240
  921MOL0     H21532   4.169   4.932  -0.267  0.7866 -1.1613  0.1831
  921MOL0     H21533   4.267   4.855  -0.384  2.6199  0.5291  0.4519
  921MOL0     H21534   4.082   5.258  -0.526 -2.0018  1.3948  0.2536
  921MOL0     H21535   3.849   5.235  -0.618 -2.3062 -0.3528 -2.8508
  921MOL0     H21536   3.541   5.032  -0.898  0.8682 -0.3989 -0.4767
  921MOL0     H21537   3.320   4.948  -0.976  0.3881  0.9363  0.6464
  921MOL0     H21538   3.111   4.667  -1.089 -0.9424  1.3496 -1.1312
  921MOL0     H21539   3.177   4.834  -1.073  3.8077 -0.6450  2.1243
  921MOL0     H21540   3.024   4.895  -0.924 -2.2779  0.8283  0.0514
  921MOL0     H21541   2.960   4.731  -0.901 -2.2494 -1.8365 -1.7288
  921MOL0     H21542   2.888   4.755  -1.164  0.2274 -0.6373 -0.9221
  921MOL0     H21543   2.940   4.919  -1.136 -0.3613 -0.6760 -0.5276
  921MOL0     H21544   2.744   4.788  -0.941 -0.0831  0.0215 -0.1622
  921MOL0     H21545   2.749   4.956  -0.989 -0.5385  0.5977 -3.0602
  921MOL0     H21546   2.649   4.706  -1.140  0.7167 -0.6128  1.9399
  921MOL0     H21547   2.661   4.859  -1.230  0.9407  0.2490  0.0289
  921MOL0     H21548   2.519   4.852  -0.956  1.8306 -0.0030  0.0042
  921MOL0     H21549   2.445   4.771  -1.081  0.4773 -1.1438  2.8794
  921MOL0     H21550   2.363   5.013  -1.050  0.5991  2.7400  0.3384
  921MOL0     H21551   2.522   5.068  -1.104  1.1563 -0.1471  3.5781
  921MOL0     H21552   2.303   5.015  -1.267 -1.2041 -0.5345  2.1755
  921MOL0     H21553   2.373   4.861  -1.290 -0.9840 -0.4887  0.9393
  921MOL0     H21554   3.395   4.565  -0.813 -0.2820  0.1444  1.1558
  921MOL0     H21555   3.638   4.653  -0.758  0.3360  2.0545  0.4649
  921MOL0     H21556   3.946   4.805  -0.666 -0.0237  0.0182 -0.0306
  921MOL0     H21557   4.140   4.841  -0.537  1.2026  0.9204 -2.3958
  921MOL0     H21558   5.691   4.702   0.030  0.8697 -0.0513  0.9458
  921MOL0     H21559   5.936   4.708  -0.021 -0.1444 -0.6253 -0.9514
  921MOL0     H21560   6.444   4.521   0.124 -0.4336  0.8713 -0.2464
  921MOL0     H21561   6.640   4.484   0.024 -2.8765  1.5274  2.9791
  921MOL0     H21562   6.677   4.475  -0.458  0.3155  1.0260  0.8399
  921MOL0     H21563   6.605   4.315  -0.393  2.3461 -1.3412  0.2811
  921MOL0     H21564   6.843   4.246  -0.366  2.3996 -1.0043 -3.0913
  921MOL0     H21565   6.813   4.304  -0.538  0.9744 -0.7368  0.3044
  921MOL0     H21566   6.951   4.434  -0.310 -2.5776 -0.4287  0.8615
  921MOL0     H21567   6.901   4.528  -0.453 -1.5398  0.3729  2.0427
  921MOL0     H21568   7.016   4.338  -0.583 -3.6726  4.4728 -0.4257
  921MOL0     H21569   7.107   4.472  -0.505 -2.0976  0.3901 -0.9726
  921MOL0     H21570   7.206   4.083  -0.309  0.3308  1.4423  1.7363
  921MOL0     H21571   6.445   4.467  -0.374  0.7798  1.2016 -0.1216
  921MOL0     H21572   6.237   4.497  -0.265  0.4413 -2.5597 -0.6399
  922MOL0     O21573   0.022   2.803   1.300  0.3763 -0.0972 -0.2127
  922MOL0     C21574   0.105   2.710   1.294  0.0727 -0.7916  0.0880
  922MOL0     O21575   0.086   2.586   1.340 -0.0869  0.2340 -0.6805
  922MOL0     C21576  -0.029   2.552   1.400  0.2482  0.4065  0.7909
  922MOL0     C21577  -0.045   2.562   1.533  1.0107  0.5543  0.8063
  922MOL0     C21578  -0.164   2.511   1.596 -0.3228  0.7354  0.2140
  922MOL0     C21579  -0.259   2.443   1.510 -0.4453 -1.0435 -1.4702
  922MOL0     O21580  -0.364   2.372   1.556 -0.0112 -0.6989 -0.0681
  922MOL0     C21581  -0.412   2.398   1.686  0.8466  0.1836  0.2290
  922MOL0     C21582  -0.526   2.302   1.716  1.1812  0.3878 -0.1668
  922MOL0     C21583  -0.650   2.327   1.637 -0.7406 -0.7486  0.3334
  922MOL0     C21584  -0.781   2.274   1.706 -0.0445 -0.5077  0.5272
  922MOL0     C21585  -0.904   2.306   1.624 -0.5711  0.0098  0.2175
  922MOL0     C21586  -0.960   2.442   1.653  1.0361 -0.6898  0.0184
  922MOL0     C21587  -1.093   2.486   1.587  0.1954 -0.5235  0.6758
  922MOL0     C21588  -1.182   2.371   1.554 -0.1630  0.1552 -0.0493
  922MOL0     N21589  -1.322   2.410   1.528 -0.1622  0.0183 -0.3260
  922MOL0     C21590  -1.433   2.323   1.499 -0.2146 -0.8111 -0.2764
  922MOL0     C21591  -1.539   2.409   1.502 -0.1037  0.8249 -0.9219
  922MOL0     C21592  -1.679   2.360   1.490 -0.3191  0.3033 -0.5821
  922MOL0     C21593  -1.781   2.473   1.513 -0.4136 -0.3251  0.1953
  922MOL0     C21594  -1.921   2.425   1.473 -0.5270  0.6661  1.0052
  922MOL0     C21595  -2.011   2.549   1.489  0.7413  0.3901 -0.5212
  922MOL0     O21596  -2.140   2.488   1.460  0.1099 -0.4469  0.0734
  922MOL0     C21597  -2.255   2.568   1.461  0.1371  0.0159  0.9217
  922MOL0     C21598  -2.267   2.702   1.467  0.1366 -0.7215  0.4699
  922MOL0     C21599  -2.391   2.765   1.457 -0.1023  0.2158 -0.0979
  922MOL0     C21600  -2.507   2.689   1.441  0.1343  0.2853 -0.5861
  922MOL0     C21601  -2.630   2.770   1.428  0.4436  0.4623 -0.8184
  922MOL0     O21602  -2.628   2.906   1.465  1.0019 -0.9033 -0.4025
  922MOL0     C21603  -2.749   2.979   1.473 -0.4594  0.8998 -1.0033
  922MOL0     C21604  -2.836   2.983   1.356 -0.0866  0.4068 -0.2132
  922MOL0     C21605  -2.949   3.064   1.365  0.2255  0.6525  1.1505
  922MOL0     C21606  -2.980   3.140   1.472  0.2293 -0.0099 -0.0737
  922MOL0     O21607  -3.105   3.209   1.487  0.7149  0.2206 -0.2305
  922MOL0     C21608  -3.225   3.142   1.434 -0.7608 -0.1298 -0.8078
  922MOL0     C21609  -3.341   3.198   1.511 -0.1730  0.0253  1.4328
  922MOL0     C21610  -3.355   3.131   1.643 -0.6751 -0.6797 -1.3402
  922MOL0     C21611  -3.477   3.181   1.717  0.0331  0.1465  0.9911
  922MOL0     C21612  -3.469   3.114   1.859 -0.1022  0.1525  0.9307
  922MOL0     C21613  -3.562   3.164   1.958  0.4995 -0.1297 -0.4854
  922MOL0     C21614  -3.512   3.138   2.104  0.6062  0.2832  0.7449
  922MOL0     C21615  -3.571   3.242   2.197  0.9568 -0.0441 -0.2938
  922MOL0    Cl21616  -3.507   3.247   2.366 -0.1661 -0.4405  0.3021
  922MOL0     C21617  -2.894   3.152   1.577 -0.0878 -0.1065 -0.8328
  922MOL0     C21618  -2.780   3.066   1.581  0.5170  0.7945  0.2098
  922MOL0     O21619  -2.725   2.709   1.378 -0.3498  0.7762 -0.7981
  922MOL0     C21620  -2.497   2.546   1.448  0.4728 -1.2947 -0.3742
  922MOL0     C21621  -2.375   2.488   1.451 -0.4687  0.5262  0.1239
  922MOL0     N21622  -1.494   2.538   1.532  0.7702  0.3159  0.3536
  922MOL0     N21623  -1.372   2.539   1.541  0.3873  0.1116  0.2598
  922MOL0     C21624  -0.244   2.434   1.375  0.4863 -0.7745 -0.2816
  922MOL0     C21625  -0.128   2.491   1.320  0.5114  0.9335  0.0926
  922MOL0     C21626   0.237   2.739   1.222  0.1125 -1.6141  0.2415
  922MOL0     C21627   0.262   2.863   1.162 -0.6564 -0.4690  0.7315
  922MOL0     C21628   0.382   2.886   1.095 -0.0741  0.1993  0.1455
  922MOL0     C21629   0.482   2.775   1.077  0.7726 -0.7245  0.8922
  922MOL0     O21630   0.596   2.806   1.003 -0.1218  0.1272 -0.2977
  922MOL0     C21631   0.594   2.752   0.872  0.0609 -0.0396  0.5004
  922MOL0     C21632   0.720   2.788   0.799 -0.1480 -1.0480  0.7463
  922MOL0     C21633   0.843   2.720   0.851 -0.3962  1.1601 -0.4338
  922MOL0     C21634   0.961   2.747   0.760 -0.1541  0.6896  0.0822
  922MOL0     C21635   1.064   2.651   0.809  1.1748 -0.8651 -0.3207
  922MOL0     C21636   1.141   2.595   0.877  0.1256  1.2446 -0.1871
  922MOL0     C21637   0.460   2.661   1.149  0.0717 -0.3360 -0.2793
  922MOL0     C21638   0.340   2.644   1.221 -0.6470 -0.7287  0.1459
  922MOL0     H21639   0.029   2.616   1.591  0.6281 -0.6779  2.5450
  922MOL0     H21640  -0.178   2.543   1.699 -4.2898  6.7013 -1.5924
  922MOL0     H21641  -0.436   2.505   1.685  0.8552  0.1866  0.3407
  922MOL0     H21642  -0.328   2.370   1.750 -0.8197 -0.1602  2.3753
  922MOL0     H21643  -0.562   2.313   1.818  0.7425 -0.4106 -0.2310
  922MOL0     H21644  -0.489   2.200   1.701  2.3219  0.8681 -0.7636
  922MOL0     H21645  -0.635   2.292   1.535  0.8574 -0.6831  0.5153
  922MOL0     H21646  -0.664   2.435   1.624 -0.0954 -0.8586 -1.5579
  922MOL0     H21647  -0.777   2.167   1.730 -1.5616 -1.5762 -3.1831
  922MOL0     H21648  -0.787   2.334   1.797 -0.1046 -1.2286  1.0075
  922MOL0     H21649  -0.971   2.222   1.645  0.8477 -1.7027 -1.7927
  922MOL0     H21650  -0.875   2.303   1.519  2.7511  1.8633  0.9545
  922MOL0     H21651  -0.887   2.523   1.641  0.0816  0.1653 -0.1266
  922MOL0     H21652  -0.993   2.439   1.757 -0.9248  2.6278 -0.3531
  922MOL0     H21653  -1.140   2.564   1.647  0.1524  0.5932 -0.7304
  922MOL0     H21654  -1.065   2.535   1.492  1.3764  3.6420  2.9163
  922MOL0     H21655  -1.179   2.298   1.636  2.3038 -3.2157 -2.7936
  922MOL0     H21656  -1.139   2.316   1.469  2.5935  0.9299  0.7477
  922MOL0     H21657  -1.426   2.215   1.499 -0.6037 -0.8420  0.2414
  922MOL0     H21658  -1.708   2.285   1.564 -0.7607 -1.1359 -2.1527
  922MOL0     H21659  -1.688   2.324   1.387  0.5440 -1.4075 -0.0925
  922MOL0     H21660  -1.764   2.560   1.449 -0.6521  0.4855  1.2049
  922MOL0     H21661  -1.765   2.508   1.615 -4.0526  1.4520  0.3227
  922MOL0     H21662  -1.929   2.390   1.370  2.8391 -1.7282  1.3958
  922MOL0     H21663  -1.958   2.354   1.547  0.5846  0.6810  1.6057
  922MOL0     H21664  -1.976   2.621   1.416 -2.0532  1.9345 -0.4708
  922MOL0     H21665  -2.007   2.593   1.589 -0.7389  2.3108 -1.2502
  922MOL0     H21666  -2.175   2.759   1.478  0.8539 -1.1754 -2.3433
  922MOL0     H21667  -2.395   2.873   1.462  0.9511  0.2074  2.7160
  922MOL0     H21668  -2.833   2.915   1.272 -1.2508 -0.7802  0.6720
  922MOL0     H21669  -3.024   3.042   1.290  0.1783 -2.5441  1.9766
  922MOL0     H21670  -3.221   3.033   1.431  2.7911 -0.2048  1.2839
  922MOL0     H21671  -3.238   3.172   1.329  1.7945 -1.7165 -1.6583
  922MOL0     H21672  -3.429   3.196   1.447 -0.1751  3.1164  1.1946
  922MOL0     H21673  -3.316   3.305   1.505  0.7310 -0.2467 -0.5399
  922MOL0     H21674  -3.263   3.139   1.701 -0.8636  4.1112 -1.3287
  922MOL0     H21675  -3.364   3.022   1.633  0.7345 -1.2266  2.1080
  922MOL0     H21676  -3.473   3.290   1.727  0.2876  0.5832 -2.5170
  922MOL0     H21677  -3.564   3.164   1.654  0.3595  4.1127 -0.8333
  922MOL0     H21678  -3.367   3.123   1.898  1.3400 -0.1338 -2.4278
  922MOL0     H21679  -3.482   3.006   1.845  3.5085 -0.3799  0.7876
  922MOL0     H21680  -3.661   3.118   1.948  0.6649 -0.5126 -0.4103
  922MOL0     H21681  -3.569   3.272   1.942  3.8992  0.2922  0.0500
  922MOL0     H21682  -3.544   3.040   2.141  2.1056  0.0000  1.3622
  922MOL0     H21683  -3.402   3.139   2.103  0.6898 -1.7082  2.0937
  922MOL0     H21684  -3.679   3.253   2.184  0.6429 -1.8085  0.5510
  922MOL0     H21685  -3.554   3.344   2.161 -3.9856  1.5785  1.1785
  922MOL0     H21686  -2.929   3.222   1.652  2.9509 -1.9342  2.6761
  922MOL0     H21687  -2.724   3.058   1.673 -1.3261  2.8198  1.6387
  922MOL0     H21688  -2.583   2.488   1.416  0.0867 -0.3234 -1.1584
  922MOL0     H21689  -2.366   2.380   1.447 -0.1234  0.5343  0.5765
  922MOL0     H21690  -0.318   2.379   1.318 -1.8639  3.3720 -1.6759
  922MOL0     H21691  -0.096   2.464   1.220  2.9506  1.4090  0.6855
  922MOL0     H21692   0.186   2.940   1.175  0.3000  0.6916 -0.3339
  922MOL0     H21693   0.410   2.983   1.054  1.3982  1.2952  3.4665
  922MOL0     H21694   0.513   2.806   0.821 -2.0873 -2.6076  0.9482
  922MOL0     H21695   0.568   2.645   0.869  0.4831 -0.1205 -1.8408
  922MOL0     H21696   0.714   2.754   0.695 -0.5656  0.1631  0.3593
  922MOL0     H21697   0.729   2.897   0.802 -2.5138 -0.7309 -0.7785
  922MOL0     H21698   0.814   2.615   0.864  0.8881  0.9658  1.2976
  922MOL0     H21699   0.873   2.738   0.955  1.3670 -0.9725 -0.4909
  922MOL0     H21700   0.934   2.727   0.656  1.4117 -0.6241 -0.1090
  922MOL0     H21701   1.002   2.844   0.789 -0.0445  0.6825 -0.0505
  922MOL0     H21702   1.219   2.543   0.929  1.5993  3.1712 -0.3540
  922MOL0     H21703   0.538   2.586   1.148 -1.1171 -1.7010 -2.9933
  922MOL0     H21704   0.330   2.551   1.275 -0.3379 -1.1421 -0.4885
  923MOL0     O21705   1.967  10.863   9.779 -0.0294 -0.8172 -0.0351
  923MOL0     C21706   2.014  10.898   9.674  0.0538 -0.9164  0.2479
  923MOL0     O21707   1.941  10.916   9.555 -0.1241  0.5369  0.1057
  923MOL0     C21708   1.810  10.875   9.566 -0.6332  0.1571  0.5663
  923MOL0     C21709   1.778  10.740   9.568  0.4267 -0.3025  0.4665
  923MOL0     C21710   1.647  10.696   9.605  0.3573 -0.8910  0.1977
  923MOL0     C21711   1.546  10.789   9.623 -0.7126  0.6997 -0.8620
  923MOL0     O21712   1.418  10.762   9.680 -0.5057  0.1678  0.7217
  923MOL0     C21713   1.363  10.636   9.636  0.3352  0.2013  0.0651
  923MOL0     C21714   1.213  10.619   9.684 -0.2718  0.5604 -0.7922
  923MOL0     C21715   1.152  10.490   9.625 -0.1818  0.8173  0.4942
  923MOL0     C21716   1.175  10.364   9.713 -0.2765  0.0194 -0.1890
  923MOL0     C21717   1.171  10.240   9.638 -1.2659  0.1251 -0.3937
  923MOL0     C21718   1.156  10.111   9.724 -0.9589  0.1689  0.3262
  923MOL0     C21719   1.176   9.985   9.632  0.3093  0.8489  0.1453
  923MOL0     C21720   1.219   9.860   9.711  0.1717 -0.6768 -0.5382
  923MOL0     N21721   1.097   9.812   9.787 -0.0674 -0.0059 -0.1048
  923MOL0     C21722   1.060   9.866   9.910  0.0182  0.0169 -0.5756
  923MOL0     C21723   0.959   9.782   9.947  0.3991 -0.0712  0.3246
  923MOL0     C21724   0.872   9.806  10.066  0.1733 -0.1332 -0.7461
  923MOL0     C21725   0.732   9.846  10.011 -0.1622 -0.6786 -0.3045
  923MOL0     C21726   0.637   9.903  10.123  0.4558 -0.7462 -0.3480
  923MOL0     C21727   0.605   9.812  10.247 -0.8839 -0.2092 -0.0429
  923MOL0     O21728   0.558   9.903  10.348  0.3922  1.2753 -1.1422
  923MOL0     C21729   0.504   9.846  10.462  0.1435  0.1221  0.1967
  923MOL0     C21730   0.459   9.720  10.477  0.0460 -0.2650  0.0253
  923MOL0     C21731   0.401   9.681  10.599  0.9369  0.1614  0.0355
  923MOL0     C21732   0.387   9.771  10.706 -0.7256 -0.6096  0.0645
  923MOL0     C21733   0.299   9.741  10.822  0.1471 -0.1483 -0.9988
  923MOL0     O21734   0.239   9.617  10.823  0.7169  0.6875 -0.2171
  923MOL0     C21735   0.163   9.564  10.926 -0.6145  0.6188 -0.5417
  923MOL0     C21736   0.135   9.625  11.045 -0.2022  1.0233  0.3690
  923MOL0     C21737   0.073   9.542  11.139  0.4582  0.4736  0.0469
  923MOL0     C21738   0.033   9.405  11.116  0.4093  0.2223 -0.4662
  923MOL0     O21739  -0.055   9.344  11.210 -0.3884 -0.5804 -0.2988
  923MOL0     C21740  -0.041   9.386  11.348 -0.2066 -0.4633  0.0904
  923MOL0     C21741  -0.094   9.272  11.441 -0.0772  0.7088 -1.0073
  923MOL0     C21742  -0.037   9.133  11.411 -0.5529 -0.2905 -0.1937
  923MOL0     C21743  -0.110   9.025  11.486 -0.6795 -1.0746  1.4674
  923MOL0     C21744  -0.082   9.023  11.639  0.0172  0.7848  0.3781
  923MOL0     C21745   0.065   9.012  11.675 -0.9752 -0.4384  0.5888
  923MOL0     C21746   0.090   8.964  11.819 -0.0587  0.6451  0.8105
  923MOL0     C21747   0.233   8.908  11.825  0.4918 -0.3917 -0.8361
  923MOL0    Cl21748   0.254   8.833  11.984  0.0008  0.6283  0.1151
  923MOL0     C21749   0.062   9.349  10.991 -0.7554  0.1889  0.2870
  923MOL0     C21750   0.124   9.434  10.897  0.0605 -0.5630 -0.0917
  923MOL0     O21751   0.284   9.827  10.908 -0.0921 -0.6042 -1.0594
  923MOL0     C21752   0.453   9.900  10.693 -0.1998  0.5114 -1.4540
  923MOL0     C21753   0.508   9.936  10.571 -0.4472 -0.4130  0.4412
  923MOL0     N21754   0.950   9.681   9.862  0.0606  0.2922 -0.4334
  923MOL0     N21755   1.030   9.696   9.759  0.1120  0.4001 -0.3971
  923MOL0     C21756   1.583  10.931   9.618  0.3286 -0.5949 -0.5858
  923MOL0     C21757   1.712  10.975   9.588  0.7116  0.1699  0.0332
  923MOL0     C21758   2.162  10.914   9.687 -0.0985 -0.1669 -0.2176
  923MOL0     C21759   2.239  10.936   9.573  0.0856  0.0664  0.8383
  923MOL0     C21760   2.378  10.939   9.581 -0.4839 -0.6965  0.2159
  923MOL0     C21761   2.452  10.922   9.702  0.1863 -0.3649  0.4227
  923MOL0     O21762   2.587  10.917   9.719 -0.0760 -0.1324  0.4128
  923MOL0     C21763   2.663  11.019   9.654  0.7039 -0.2609  0.7066
  923MOL0     C21764   2.659  11.142   9.744  0.2867 -0.6280  0.3974
  923MOL0     C21765   2.743  11.266   9.684 -0.6520 -0.6810 -0.7199
  923MOL0     C21766   2.675  11.346   9.566  0.3799 -0.3678  0.3486
  923MOL0     C21767   2.755  11.454   9.506 -0.8124  0.5382  0.4205
  923MOL0     C21768   2.818  11.548   9.467 -0.2285  0.1297 -1.2562
  923MOL0     C21769   2.365  10.871   9.805  0.4471  0.6662 -0.1263
  923MOL0     C21770   2.223  10.877   9.804 -0.2978 -1.6809 -0.6989
  923MOL0     H21771   1.865  10.675   9.565 -0.4955 -1.6053  1.3775
  923MOL0     H21772   1.620  10.596   9.637 -0.8401  0.2185  3.0401
  923MOL0     H21773   1.419  10.551   9.674 -3.6935 -3.0313 -0.4846
  923MOL0     H21774   1.351  10.631   9.527  0.4131  1.4380 -0.0220
  923MOL0     H21775   1.161  10.700   9.633  0.0461  0.6244 -1.0186
  923MOL0     H21776   1.208  10.600   9.792  1.4099 -1.6186 -1.0296
  923MOL0     H21777   1.198  10.471   9.528  2.6997  0.2615  1.8481
  923MOL0     H21778   1.043  10.497   9.620 -0.6638 -3.0406  2.0635
  923MOL0     H21779   1.271  10.374   9.765 -0.6177 -1.8977  0.9115
  923MOL0     H21780   1.094  10.372   9.786 -0.0866  0.3022 -0.0049
  923MOL0     H21781   1.261  10.236   9.577  1.1566  0.8078  2.8844
  923MOL0     H21782   1.085  10.237   9.570 -1.1043 -2.0416 -0.5717
  923MOL0     H21783   1.061  10.118   9.776 -0.8544 -0.0452  0.5491
  923MOL0     H21784   1.234  10.107   9.801 -0.1871 -1.7366 -0.4904
  923MOL0     H21785   1.087   9.973   9.569  1.5983  2.2664 -2.0912
  923MOL0     H21786   1.256  10.006   9.559 -2.3096  2.1107 -2.5692
  923MOL0     H21787   1.298   9.870   9.786 -0.5458 -0.0374  0.1535
  923MOL0     H21788   1.259   9.790   9.637 -0.4607  0.6340 -2.1997
  923MOL0     H21789   1.091   9.951   9.969  1.0770 -0.4282 -0.4623
  923MOL0     H21790   0.912   9.876  10.140 -0.5799 -1.0123  0.5563
  923MOL0     H21791   0.874   9.711  10.121 -0.8790 -0.3487 -1.0623
  923MOL0     H21792   0.683   9.761   9.965  1.2721 -2.0626  0.6177
  923MOL0     H21793   0.745   9.922   9.934 -0.4642  0.1120  0.3963
  923MOL0     H21794   0.696   9.987  10.162  0.3514 -0.1031 -1.5407
  923MOL0     H21795   0.546   9.943  10.079  0.3892 -1.7164 -1.1224
  923MOL0     H21796   0.688   9.758  10.295 -1.2650 -1.0604 -0.3207
  923MOL0     H21797   0.528   9.739  10.220 -1.2115  0.5788 -1.2991
  923MOL0     H21798   0.468   9.654  10.392  0.0205 -3.5442  2.3794
  923MOL0     H21799   0.362   9.580  10.605  0.9486  0.2167  1.2489
  923MOL0     H21800   0.155   9.728  11.073  0.1852  1.1363 -0.2969
  923MOL0     H21801   0.042   9.586  11.233 -1.9053  4.5370 -2.3259
  923MOL0     H21802  -0.101   9.477  11.359  3.9647  2.7194 -0.7652
  923MOL0     H21803   0.060   9.416  11.378  0.1591 -0.3811 -1.1628
  923MOL0     H21804  -0.202   9.270  11.422  0.2406  0.6536 -2.9755
  923MOL0     H21805  -0.074   9.307  11.542  2.7993  0.2405 -1.3386
  923MOL0     H21806   0.069   9.139  11.436 -0.5559 -0.2644 -0.1875
  923MOL0     H21807  -0.035   9.108  11.305  4.7861 -1.1874 -0.1503
  923MOL0     H21808  -0.219   9.028  11.474 -0.5242  0.5537  0.1303
  923MOL0     H21809  -0.078   8.927  11.447  4.4921  1.1328 -0.7026
  923MOL0     H21810  -0.135   8.933  11.674 -0.0352  1.0535  1.0144
  923MOL0     H21811  -0.122   9.109  11.693  0.0574 -0.2867  2.2125
  923MOL0     H21812   0.104   9.115  11.674 -0.2938 -0.5858  3.4931
  923MOL0     H21813   0.122   8.955  11.601 -1.1526 -0.2340  0.2910
  923MOL0     H21814   0.066   9.049  11.884 -1.3250  1.2977 -0.4597
  923MOL0     H21815   0.019   8.883  11.842  0.0823  0.4131  0.4405
  923MOL0     H21816   0.300   8.994  11.827 -1.9567  1.6782  1.5560
  923MOL0     H21817   0.245   8.826  11.754 -0.4051  0.1929 -1.6808
  923MOL0     H21818   0.045   9.243  10.976  2.7417 -0.7408  1.8301
  923MOL0     H21819   0.142   9.412  10.792 -0.8518 -1.1800 -0.1305
  923MOL0     H21820   0.457   9.966  10.778  1.1246 -0.3291 -0.8303
  923MOL0     H21821   0.533  10.039  10.546  0.3043 -0.7956 -0.4381
  923MOL0     H21822   1.513  11.007   9.652  2.1440  1.6726 -1.6303
  923MOL0     H21823   1.741  11.079   9.589 -0.5473  0.5752  2.4330
  923MOL0     H21824   2.195  10.938   9.474  0.7076 -1.0731  0.5168
  923MOL0     H21825   2.439  10.973   9.498  0.6291 -0.8912  0.9298
  923MOL0     H21826   2.638  11.038   9.549  1.8845 -1.3261  0.1960
  923MOL0     H21827   2.768  10.988   9.644  0.6150  0.2115 -3.2896
  923MOL0     H21828   2.557  11.176   9.763 -0.6535 -1.6189 -2.4319
  923MOL0     H21829   2.711  11.112   9.836 -1.8698 -2.1631  1.1971
  923MOL0     H21830   2.836  11.219   9.650  0.2127 -0.6290  1.4265
  923MOL0     H21831   2.775  11.337   9.761  1.5327  0.8850 -2.9383
  923MOL0     H21832   2.646  11.265   9.499  0.1699 -0.4304  0.5122
  923MOL0     H21833   2.580  11.383   9.608 -0.3829 -2.7192  0.8547
  923MOL0     H21834   2.874  11.635   9.438 -0.3203  1.0399  1.0821
  923MOL0     H21835   2.409  10.849   9.901 -0.2773 -0.4667 -0.0362
  923MOL0     H21836   2.173  10.842   9.893  3.6505 -4.4432  0.6895
  924MOL0     O21837   8.529   8.558   9.783 -0.0461 -0.8154  0.0673
  924MOL0     C21838   8.525   8.446   9.830 -1.6206 -0.6674  0.0515
  924MOL0     O21839   8.585   8.412   9.949 -0.7674  0.2594  0.7144
  924MOL0     C21840   8.623   8.521  10.021 -0.8219 -0.5611 -0.2331
  924MOL0     C21841   8.755   8.550  10.039  0.0169 -0.5001  1.2793
  924MOL0     C21842   8.803   8.650  10.127  0.2491 -0.5935  0.6758
  924MOL0     C21843   8.716   8.728  10.205 -0.4378 -0.5836  0.6580
  924MOL0     O21844   8.757   8.832  10.282  0.3628  0.1921 -0.8880
  924MOL0     C21845   8.903   8.847  10.325  0.6857  0.0861 -0.3031
  924MOL0     C21846   8.919   8.960  10.429  0.0101 -0.0520 -0.5938
  924MOL0     C21847   9.063   8.984  10.479  0.0364  1.0921  0.1121
  924MOL0     C21848   9.103   9.129  10.489  0.1801  0.0118 -0.7129
  924MOL0     C21849   9.253   9.133  10.539  0.5951  0.5420  0.0059
  924MOL0     C21850   9.247   9.111  10.698 -0.5376  0.6360  0.0120
  924MOL0     C21851   9.376   9.163  10.764 -0.4512  0.5861 -0.5200
  924MOL0     C21852   9.351   9.276  10.864  0.4619  0.7043 -0.8750
  924MOL0     N21853   9.286   9.398  10.809  1.7323 -0.3616 -0.7848
  924MOL0     C21854   9.165   9.460  10.852  0.4382  0.0741  0.5571
  924MOL0     C21855   9.171   9.584  10.786  0.3913 -0.4526 -0.4398
  924MOL0     C21856   9.076   9.702  10.810 -0.3210 -0.1928 -0.0537
  924MOL0     C21857   9.049   9.774  10.691  0.2643  0.0578  0.3743
  924MOL0     C21858   8.971   9.885  10.732 -0.0623  0.0074  1.6457
  924MOL0     C21859   8.903   9.953  10.619  0.6730 -0.9327  1.2466
  924MOL0     O21860   8.779   9.897  10.580  0.4034  0.1817 -0.6278
  924MOL0     C21861   8.675   9.897  10.661  0.5145 -0.2183 -0.2018
  924MOL0     C21862   8.649   9.995  10.761  0.4332  0.4608  0.6521
  924MOL0     C21863   8.558   9.971  10.868 -0.1137  0.4447  0.3926
  924MOL0     C21864   8.463   9.869  10.860 -0.2003 -0.0893 -0.1212
  924MOL0     C21865   8.358   9.841  10.967  0.0515 -0.6792 -0.2206
  924MOL0     O21866   8.286   9.730  10.962  0.2041 -0.9400  0.4727
  924MOL0     C21867   8.193   9.730  10.856  0.9045  0.3474  0.5944
  924MOL0     C21868   8.112   9.839  10.812  0.0893  0.3255  0.3292
  924MOL0     C21869   8.018   9.823  10.717  0.7419  0.2812 -0.4363
  924MOL0     C21870   7.985   9.699  10.656 -0.5341  0.5147 -0.0081
  924MOL0     O21871   7.882   9.690  10.569  0.0192 -0.8189  0.1789
  924MOL0     C21872   7.822   9.566  10.541  0.6686  0.8416 -0.5095
  924MOL0     C21873   7.712   9.572  10.433  0.0573 -0.6834  0.1517
  924MOL0     C21874   7.621   9.444  10.415 -0.3040  0.5045  0.3060
  924MOL0     C21875   7.517   9.433  10.522 -0.1352  0.1292  0.7324
  924MOL0     C21876   7.403   9.337  10.492 -0.3486  0.5532 -0.7427
  924MOL0     C21877   7.315   9.361  10.376  0.7055  0.2528  0.5420
  924MOL0     C21878   7.199   9.248  10.381 -0.8320  0.3383  0.0143
  924MOL0     C21879   7.062   9.288  10.320 -0.4826 -0.6526 -0.1847
  924MOL0    Cl21880   7.072   9.412  10.186 -0.0262  0.0790  0.3060
  924MOL0     C21881   8.068   9.593  10.691  0.2375  0.4970  0.5209
  924MOL0     C21882   8.170   9.614  10.789  0.3738  0.1809 -0.6764
  924MOL0     O21883   8.367   9.912  11.071  0.2534  0.1450 -0.3164
  924MOL0     C21884   8.497   9.778  10.752 -0.0325  0.0285  0.7319
  924MOL0     C21885   8.592   9.797  10.657 -0.3784 -0.1596  0.1251
  924MOL0     N21886   9.291   9.589  10.719 -0.6998  0.7345 -0.3365
  924MOL0     N21887   9.355   9.485  10.741 -0.6834 -0.2722 -0.4158
  924MOL0     C21888   8.580   8.691  10.194  0.3571 -0.3369 -1.5636
  924MOL0     C21889   8.531   8.588  10.104 -0.5316  0.2411 -0.0178
  924MOL0     C21890   8.455   8.341   9.757  0.6063 -0.7861 -0.3884
  924MOL0     C21891   8.471   8.197   9.784  0.7415  0.0882 -0.4497
  924MOL0     C21892   8.380   8.099   9.743  0.2136 -0.2979 -0.1378
  924MOL0     C21893   8.286   8.130   9.641  0.1058 -0.3495  0.8430
  924MOL0     O21894   8.197   8.032   9.612  0.3503  0.3431  0.4190
  924MOL0     C21895   8.095   8.039   9.506  0.0614 -0.2929  0.6231
  924MOL0     C21896   8.028   7.906   9.492  0.1767 -1.0258 -0.4682
  924MOL0     C21897   8.134   7.798   9.453 -0.0944 -0.2058 -0.6703
  924MOL0     C21898   8.080   7.663   9.508 -0.5271  0.6656 -0.5136
  924MOL0     C21899   8.157   7.560   9.448 -0.5414 -0.3787 -0.2005
  924MOL0     C21900   8.233   7.484   9.389  0.0932 -0.6345  0.0557
  924MOL0     C21901   8.280   8.262   9.593 -0.3359  0.4278 -0.9201
  924MOL0     C21902   8.355   8.371   9.654  0.3333  0.1676 -0.3030
  924MOL0     H21903   8.828   8.494   9.981  1.4823  0.0742  2.5121
  924MOL0     H21904   8.909   8.667  10.139 -0.0367  1.6293  0.6026
  924MOL0     H21905   8.958   8.872  10.234 -0.5996 -0.1634 -1.1579
  924MOL0     H21906   8.928   8.752  10.374  0.7543  0.5246  0.5452
  924MOL0     H21907   8.853   8.956  10.516  1.2587  2.1025  0.5126
  924MOL0     H21908   8.877   9.044  10.374 -0.8200  1.9477  2.8017
  924MOL0     H21909   9.132   8.937  10.408 -0.9337  0.9372 -0.7437
  924MOL0     H21910   9.077   8.921  10.567 -0.1434  0.4197 -0.3290
  924MOL0     H21911   9.105   9.173  10.389 -0.3562 -0.6898 -1.0427
  924MOL0     H21912   9.031   9.193  10.540  0.0368 -1.6488  1.3337
  924MOL0     H21913   9.302   9.229  10.517  2.7607 -0.6946 -0.9052
  924MOL0     H21914   9.313   9.072  10.471 -0.6675 -0.8891  0.1241
  924MOL0     H21915   9.235   9.004  10.712 -1.4808  0.4107 -2.0456
  924MOL0     H21916   9.163   9.160  10.748  0.4129  2.2015  0.1574
  924MOL0     H21917   9.411   9.077  10.821 -0.7780  0.1206 -1.0125
  924MOL0     H21918   9.457   9.184  10.693 -0.2915 -1.5916 -1.0391
  924MOL0     H21919   9.447   9.304  10.907  0.9938 -0.4932 -1.2446
  924MOL0     H21920   9.290   9.242  10.948  2.6255  0.5817  0.7367
  924MOL0     H21921   9.086   9.428  10.920 -0.5144  2.3594  0.6072
  924MOL0     H21922   9.111   9.764  10.893  1.0288 -1.7275  0.5648
  924MOL0     H21923   8.987   9.652  10.846  0.6877 -0.2364  2.5766
  924MOL0     H21924   9.003   9.707  10.618 -0.1429 -0.7468  1.3324
  924MOL0     H21925   9.145   9.808  10.651 -0.1217 -0.3478 -0.9500
  924MOL0     H21926   8.903   9.872  10.817 -1.1702 -1.7358  0.5694
  924MOL0     H21927   9.050   9.955  10.761  0.8702  0.5195 -1.7352
  924MOL0     H21928   8.969   9.954  10.532 -0.9546 -0.0757 -0.0455
  924MOL0     H21929   8.878  10.056  10.647 -2.8354 -1.2851 -0.0485
  924MOL0     H21930   8.713  10.080  10.781  0.5218  0.0721  2.1178
  924MOL0     H21931   8.565  10.047  10.945  0.8536  0.0204  0.7434
  924MOL0     H21932   8.107   9.940  10.852 -0.7673  0.2747  0.3749
  924MOL0     H21933   7.951   9.900  10.681  0.0173 -0.4630 -0.7113
  924MOL0     H21934   7.786   9.522  10.634  0.3142  0.5687 -0.7720
  924MOL0     H21935   7.898   9.498  10.502  0.5519  0.5600 -0.2513
  924MOL0     H21936   7.761   9.609  10.342  0.7743 -2.3655 -0.1833
  924MOL0     H21937   7.643   9.653  10.459 -0.7224 -0.4244 -2.4300
  924MOL0     H21938   7.689   9.359  10.416 -1.7273 -0.8642 -2.7428
  924MOL0     H21939   7.580   9.458  10.314  1.2616 -0.5725 -0.5159
  924MOL0     H21940   7.574   9.389  10.604  1.1692 -1.8833 -1.1513
  924MOL0     H21941   7.474   9.532  10.541  2.2092  1.2582  0.4997
  924MOL0     H21942   7.333   9.340  10.576  0.9795  0.9466  0.3945
  924MOL0     H21943   7.446   9.237  10.486 -2.8128 -0.7593  1.5820
  924MOL0     H21944   7.361   9.356  10.277 -4.5917 -0.4933 -2.2902
  924MOL0     H21945   7.271   9.460  10.391  2.6747  1.4394 -0.9728
  924MOL0     H21946   7.232   9.160  10.327 -0.3739  1.2178 -1.1707
  924MOL0     H21947   7.181   9.211  10.483  0.7074 -1.9095 -0.4821
  924MOL0     H21948   7.000   9.337  10.395  0.7431  2.4879 -1.0623
  924MOL0     H21949   7.003   9.198  10.296 -2.5964 -0.0406  2.2086
  924MOL0     H21950   8.063   9.500  10.636  1.1693  0.7938 -0.0973
  924MOL0     H21951   8.227   9.526  10.814 -1.4521 -0.1039  3.2705
  924MOL0     H21952   8.433   9.691  10.756  1.0807 -0.8615 -0.1420
  924MOL0     H21953   8.615   9.723  10.580  1.5240  0.3068  0.2165
  924MOL0     H21954   8.501   8.742  10.247  2.1908  0.3488  0.7072
  924MOL0     H21955   8.425   8.567  10.095 -0.9770  2.4445 -0.4875
  924MOL0     H21956   8.548   8.158   9.849  1.9298  2.4331 -0.3505
  924MOL0     H21957   8.391   8.002   9.789  2.5945 -0.7643 -1.5030
  924MOL0     H21958   8.153   8.054   9.415  0.7456 -1.4637  0.8382
  924MOL0     H21959   8.017   8.114   9.523 -1.1624 -1.8579  2.4916
  924MOL0     H21960   7.987   7.872   9.588  1.7217 -1.4953  0.0660
  924MOL0     H21961   7.955   7.918   9.412  0.3842  1.0254 -0.4117
  924MOL0     H21962   8.236   7.821   9.485 -0.5726  1.6577 -0.3312
  924MOL0     H21963   8.118   7.793   9.345  0.1705 -0.8225 -0.6855
  924MOL0     H21964   8.085   7.659   9.617  0.8703  0.1604 -0.5806
  924MOL0     H21965   7.975   7.650   9.481 -0.7247  1.2262 -0.0227
  924MOL0     H21966   8.299   7.425   9.328  2.6672  1.4208  0.6938
  924MOL0     H21967   8.207   8.273   9.513 -1.2305  3.8519  0.1599
  924MOL0     H21968   8.339   8.474   9.622  0.4974 -0.2961 -1.9667
  925MOL0     O21969  10.564   5.035   1.188  0.2893  0.3668  0.0254
  925MOL0     C21970  10.494   5.132   1.161  0.5610  0.4556  0.3146
  925MOL0     O21971  10.532   5.269   1.167  0.0218 -0.3176  0.0257
  925MOL0     C21972  10.638   5.313   1.242  0.0670  0.1678  0.6196
  925MOL0     C21973  10.621   5.405   1.338  1.2928  0.7201 -0.4985
  925MOL0     C21974  10.733   5.438   1.425 -0.3548  0.1717  0.6609
  925MOL0     C21975  10.869   5.387   1.394 -0.4578 -1.1136  0.5562
  925MOL0     O21976  10.979   5.423   1.477  0.1832 -0.5891  0.0911
  925MOL0     C21977  11.082   5.323   1.487  0.4554  0.3060 -1.5580
  925MOL0     C21978  11.177   5.369   1.592 -0.1608 -1.1110  0.2522
  925MOL0     C21979  11.300   5.286   1.609 -0.2122 -0.0850  0.4428
  925MOL0     C21980  11.388   5.334   1.726 -0.6376 -0.2670 -0.3234
  925MOL0     C21981  11.527   5.275   1.763  1.4738 -1.1390  0.2152
  925MOL0     C21982  11.620   5.282   1.648  0.4326  0.5954 -0.4218
  925MOL0     C21983  11.771   5.259   1.689  1.4277  0.1538 -0.1090
  925MOL0     C21984  11.799   5.130   1.763 -0.8238  0.1093  0.2338
  925MOL0     N21985  11.936   5.078   1.718 -0.4998 -0.7079  0.5666
  925MOL0     C21986  11.961   5.023   1.598 -0.6293  0.3312 -0.5990
  925MOL0     C21987  12.103   5.031   1.588  1.1977  0.3764 -0.2970
  925MOL0     C21988  12.181   4.972   1.474 -0.5330  0.9319  0.4845
  925MOL0     C21989  12.264   5.075   1.401  0.9905 -0.6403  1.5567
  925MOL0     C21990  12.397   5.127   1.457  0.2921 -0.4674 -0.4429
  925MOL0     C21991  12.482   5.019   1.527 -1.1176  0.9416 -0.4172
  925MOL0     O21992  12.606   5.052   1.598  0.2174  0.2550  0.0025
  925MOL0     C21993  12.683   4.942   1.627 -1.1928  0.6739  0.5132
  925MOL0     C21994  12.628   4.820   1.668  0.7460  0.1954  0.0566
  925MOL0     C21995  12.711   4.704   1.676 -0.7244  0.4257  0.5772
  925MOL0     C21996  12.846   4.722   1.646  0.8833 -0.6474  0.8960
  925MOL0     C21997  12.926   4.602   1.625  0.0959 -0.4138 -0.7502
  925MOL0     O21998  12.866   4.482   1.627 -0.3041  0.5393 -0.5925
  925MOL0     C21999  12.955   4.375   1.617  0.5028  0.7536 -0.0382
  925MOL0     C22000  13.039   4.352   1.500  0.3257 -0.1916 -0.9180
  925MOL0     C22001  13.142   4.257   1.498 -0.2118 -0.1134  0.7987
  925MOL0     C22002  13.148   4.158   1.597  0.1611  0.0842 -0.1751
  925MOL0     O22003  13.249   4.064   1.581  0.8995 -1.1336 -0.3986
  925MOL0     C22004  13.262   3.954   1.681  0.0249 -0.0048  0.6957
  925MOL0     C22005  13.413   3.912   1.685  0.1563 -0.3114 -0.2345
  925MOL0     C22006  13.433   3.853   1.551  0.0357  0.0860  1.1317
  925MOL0     C22007  13.581   3.808   1.555  0.3906 -0.0443 -0.3724
  925MOL0     C22008  13.631   3.748   1.419 -0.5011 -0.0398  0.7910
  925MOL0     C22009  13.727   3.629   1.437 -0.6378 -1.1192 -0.4722
  925MOL0     C22010  13.832   3.604   1.316 -0.0500  0.3234  0.4644
  925MOL0     C22011  13.931   3.724   1.282  0.1913  0.0279  0.0598
  925MOL0    Cl22012  13.847   3.846   1.182  0.1376 -0.3130  0.0971
  925MOL0     C22013  13.052   4.167   1.704  0.5394  2.3129  0.7868
  925MOL0     C22014  12.965   4.272   1.717  0.1234 -0.2905  0.8621
  925MOL0     O22015  13.047   4.627   1.623 -0.2974  0.2382  0.3417
  925MOL0     C22016  12.901   4.850   1.622 -0.4065  0.5878 -0.3829
  925MOL0     C22017  12.817   4.960   1.611  0.2444 -1.1410 -0.1099
  925MOL0     N22018  12.157   5.076   1.711 -0.5467  0.0444  0.3253
  925MOL0     N22019  12.054   5.091   1.791 -0.0729  0.6712 -0.4852
  925MOL0     C22020  10.881   5.298   1.284  0.0852 -0.9601 -0.3922
  925MOL0     C22021  10.767   5.256   1.214  0.4537  1.3440  0.3060
  925MOL0     C22022  10.362   5.102   1.104 -0.1352 -0.3822  0.4143
  925MOL0     C22023  10.270   5.207   1.075 -0.0059  1.3225  1.0366
  925MOL0     C22024  10.150   5.191   0.995  0.6178  0.1122 -0.5104
  925MOL0     C22025  10.112   5.064   0.963  0.3448 -0.9087 -0.2379
  925MOL0     O22026   9.990   5.026   0.906  0.1738  0.4300 -0.2114
  925MOL0     C22027   9.887   5.124   0.902  1.1114 -0.6423  0.4499
  925MOL0     C22028   9.748   5.046   0.895 -0.3677 -0.0128  0.2870
  925MOL0     C22029   9.702   5.024   0.748 -0.2865  0.2531  0.4021
  925MOL0     C22030   9.783   4.926   0.674  0.0755 -0.4882  0.6984
  925MOL0     C22031   9.762   4.783   0.706 -0.3793  0.4218 -0.1460
  925MOL0     C22032   9.737   4.675   0.749  0.0850 -0.4059 -0.4653
  925MOL0     C22033  10.202   4.962   1.002 -0.0696  0.3954  0.4032
  925MOL0     C22034  10.319   4.977   1.067 -0.4048  0.6507  0.1015
  925MOL0     H22035  10.521   5.444   1.354 -0.2298 -1.8528 -2.6592
  925MOL0     H22036  10.728   5.504   1.511  2.6688  0.6787  0.5675
  925MOL0     H22037  11.127   5.322   1.387 -0.9176  1.2609 -2.2178
  925MOL0     H22038  11.038   5.227   1.516  2.4608 -0.4083 -0.7229
  925MOL0     H22039  11.117   5.374   1.684  0.0473 -4.4232  0.7240
  925MOL0     H22040  11.219   5.468   1.578  1.3425 -1.6804  0.5915
  925MOL0     H22041  11.363   5.290   1.520  1.5013  0.6185  1.6136
  925MOL0     H22042  11.273   5.181   1.619  0.0390  0.0081  2.8767
  925MOL0     H22043  11.388   5.443   1.716 -1.1630 -0.2637 -0.2936
  925MOL0     H22044  11.337   5.310   1.820  1.0034  0.0995  0.7145
  925MOL0     H22045  11.526   5.169   1.789  3.4200 -1.1056  0.6073
  925MOL0     H22046  11.565   5.326   1.852  0.7232 -2.0690  1.0850
  925MOL0     H22047  11.618   5.379   1.597 -0.3465  0.0393 -1.4766
  925MOL0     H22048  11.587   5.207   1.575 -1.4340  0.6660  0.2974
  925MOL0     H22049  11.830   5.265   1.597 -0.8510  1.2483 -1.5833
  925MOL0     H22050  11.807   5.343   1.748 -0.6689 -0.1835  1.7863
  925MOL0     H22051  11.727   5.047   1.769  0.5419 -1.0125  2.7180
  925MOL0     H22052  11.818   5.158   1.867  0.6612 -0.4170  0.1295
  925MOL0     H22053  11.898   4.989   1.516  1.0594  0.0541 -1.8602
  925MOL0     H22054  12.110   4.940   1.397 -0.3564  0.3376  0.5645
  925MOL0     H22055  12.235   4.881   1.501 -1.6216  0.4966  1.2736
  925MOL0     H22056  12.204   5.165   1.384  0.9706 -0.6674  1.4840
  925MOL0     H22057  12.291   5.033   1.304 -1.0994 -1.3136  1.2158
  925MOL0     H22058  12.460   5.174   1.381 -0.6236  1.5599 -0.0186
  925MOL0     H22059  12.390   5.213   1.524  1.3915  1.2639 -2.4361
  925MOL0     H22060  12.505   4.937   1.459  0.1776  0.2985  0.7517
  925MOL0     H22061  12.416   4.983   1.607  0.4056  2.7616  1.7866
  925MOL0     H22062  12.520   4.815   1.679  0.4872  3.4670  0.1548
  925MOL0     H22063  12.661   4.608   1.685 -0.3559  0.2357  0.6281
  925MOL0     H22064  13.038   4.425   1.420  0.9708 -0.1168 -0.8657
  925MOL0     H22065  13.216   4.241   1.420  0.1508  1.0380  0.8868
  925MOL0     H22066  13.199   3.868   1.660 -1.5178  1.5645 -1.6306
  925MOL0     H22067  13.229   3.984   1.781  1.6975 -2.1946  2.0015
  925MOL0     H22068  13.432   3.834   1.759  0.1280 -0.1144 -0.0204
  925MOL0     H22069  13.476   3.993   1.722 -0.3477 -0.9367  2.1933
  925MOL0     H22070  13.412   3.919   1.466 -3.4235 -2.6769 -0.3947
  925MOL0     H22071  13.371   3.764   1.538 -2.3288  1.6544  1.2703
  925MOL0     H22072  13.647   3.894   1.574  0.0472 -0.1806  1.6414
  925MOL0     H22073  13.600   3.739   1.637 -0.1367  1.1691  0.8132
  925MOL0     H22074  13.684   3.834   1.377  0.7981 -0.7411  0.9401
  925MOL0     H22075  13.544   3.722   1.359 -1.1101 -3.4270  2.8645
  925MOL0     H22076  13.669   3.541   1.466  1.6597 -3.1195 -1.5467
  925MOL0     H22077  13.786   3.652   1.526  0.2405 -0.1504 -1.2761
  925MOL0     H22078  13.886   3.514   1.347 -0.7471 -0.0392  0.6560
  925MOL0     H22079  13.792   3.568   1.221  0.9824 -0.0084  0.1485
  925MOL0     H22080  14.002   3.668   1.220 -1.0946  0.5503 -1.9696
  925MOL0     H22081  13.980   3.756   1.374  1.5526 -1.8000  0.0371
  925MOL0     H22082  13.041   4.087   1.776  0.1001  1.5008 -0.1552
  925MOL0     H22083  12.897   4.280   1.802 -1.5788  1.8308 -0.5830
  925MOL0     H22084  13.004   4.873   1.596  0.6664 -3.4448 -0.2718
  925MOL0     H22085  12.865   5.052   1.578  1.0531 -1.2019  0.8427
  925MOL0     H22086  10.978   5.270   1.245 -0.5799  0.8790 -3.7631
  925MOL0     H22087  10.795   5.185   1.136  2.1999 -1.8393  3.5198
  925MOL0     H22088  10.275   5.298   1.134  2.5652  1.4640  0.6995
  925MOL0     H22089  10.084   5.276   0.985 -1.6587 -1.7128 -2.0391
  925MOL0     H22090   9.904   5.182   0.811 -1.0511  2.1400  1.6978
  925MOL0     H22091   9.883   5.190   0.989 -3.3410  1.1646 -0.8548
  925MOL0     H22092   9.756   4.952   0.952 -1.4197  1.2146  2.5946
  925MOL0     H22093   9.674   5.103   0.951  0.5807 -0.5381  2.1520
  925MOL0     H22094   9.705   5.122   0.699  1.7851 -0.3575 -0.8138
  925MOL0     H22095   9.595   5.001   0.745  0.3687 -3.3986  0.7605
  925MOL0     H22096   9.767   4.943   0.567  0.2669  3.2087  1.1265
  925MOL0     H22097   9.890   4.945   0.688  0.1125  0.6165 -0.8679
  925MOL0     H22098   9.703   4.578   0.779 -1.4626 -0.7306 -2.9954
  925MOL0     H22099  10.173   4.869   0.955  0.3634  0.3564  0.1997
  925MOL0     H22100  10.384   4.892   1.087  0.1527  0.6877 -1.3968
  926MOL0     O22101   4.568   0.951   4.529  0.0224  0.0934  0.0028
  926MOL0     C22102   4.562   1.076   4.524 -0.4804 -0.4524 -0.2759
  926MOL0     O22103   4.455   1.156   4.566  0.2250 -0.5569  0.0190
  926MOL0     C22104   4.330   1.105   4.591 -0.6704 -0.2040  1.0265
  926MOL0     C22105   4.256   1.183   4.685  0.5604  0.7671  0.2517
  926MOL0     C22106   4.131   1.132   4.742 -1.1063 -0.4162  0.3036
  926MOL0     C22107   4.075   1.007   4.694  0.4425 -0.8914 -0.2554
  926MOL0     O22108   3.962   0.961   4.748  0.3948 -0.1746  0.5061
  926MOL0     C22109   3.866   0.894   4.659 -0.3861  0.0733 -0.7213
  926MOL0     C22110   3.724   0.875   4.719 -0.7999  0.3789 -0.8422
  926MOL0     C22111   3.669   0.999   4.771 -0.6584 -0.3015 -0.1897
  926MOL0     C22112   3.528   0.983   4.821 -0.0683  0.9685  0.5291
  926MOL0     C22113   3.502   0.873   4.926 -0.2914  0.9321 -0.1316
  926MOL0     C22114   3.354   0.840   4.916  0.6445 -0.5653  0.5205
  926MOL0     C22115   3.272   0.942   4.995 -0.2846 -0.2715  0.4885
  926MOL0     C22116   3.109   0.932   4.995 -0.0276  0.1084  0.9563
  926MOL0     N22117   3.050   1.005   5.100  0.4530 -0.4299 -0.1877
  926MOL0     C22118   3.061   1.140   5.116 -0.6627 -0.9195 -0.4011
  926MOL0     C22119   3.010   1.160   5.237  0.2409 -0.1209  0.1974
  926MOL0     C22120   2.995   1.288   5.311  0.6928 -0.5039  0.4336
  926MOL0     C22121   3.127   1.360   5.335 -0.4554 -0.9084  0.2651
  926MOL0     C22122   3.088   1.511   5.373 -1.1177  0.2483 -0.6652
  926MOL0     C22123   3.195   1.583   5.445  0.5214 -0.3086 -1.1799
  926MOL0     O22124   3.168   1.723   5.454 -0.2528  0.0284  0.3663
  926MOL0     C22125   3.088   1.778   5.550 -0.0185  0.5992  0.3953
  926MOL0     C22126   3.009   1.707   5.639 -0.4880 -1.2944 -0.5239
  926MOL0     C22127   2.915   1.768   5.713  0.1005 -0.1150 -0.2110
  926MOL0     C22128   2.904   1.909   5.715  0.5005 -0.2432  0.1391
  926MOL0     C22129   2.795   1.982   5.790  0.4362  0.0151 -1.8118
  926MOL0     O22130   2.758   2.104   5.758 -0.2191 -0.3018  0.0470
  926MOL0     C22131   2.675   2.172   5.844 -0.1876  0.3226 -0.0603
  926MOL0     C22132   2.533   2.143   5.830  0.7067 -0.6275 -0.3332
  926MOL0     C22133   2.439   2.218   5.903  0.1175 -0.0710  0.0007
  926MOL0     C22134   2.492   2.327   5.967 -0.4344  0.0370  0.7689
  926MOL0     O22135   2.401   2.424   5.995 -0.2996  0.1336 -0.2842
  926MOL0     C22136   2.338   2.406   6.123  0.4972 -0.4986  0.4427
  926MOL0     C22137   2.242   2.527   6.152  0.2181  0.2262 -0.8502
  926MOL0     C22138   2.107   2.482   6.120  0.8989 -0.4442 -0.9563
  926MOL0     C22139   2.001   2.603   6.136  0.0561 -0.1551  0.2068
  926MOL0     C22140   1.849   2.555   6.131 -1.9468 -0.4113  0.1522
  926MOL0     C22141   1.764   2.657   6.204 -0.8557 -0.6163  0.6900
  926MOL0     C22142   1.620   2.609   6.224 -0.8944  0.0219  0.2041
  926MOL0     C22143   1.541   2.688   6.320 -0.0552 -0.3806 -0.0277
  926MOL0    Cl22144   1.608   2.699   6.479  0.3152 -0.7435  0.1107
  926MOL0     C22145   2.636   2.362   5.970  0.5874 -0.1405 -0.4378
  926MOL0     C22146   2.731   2.284   5.919  0.1144  0.2279 -0.3193
  926MOL0     O22147   2.747   1.914   5.883  0.6777 -0.0009  0.3006
  926MOL0     C22148   2.977   1.984   5.623 -0.5072  0.4007  0.0786
  926MOL0     C22149   3.073   1.922   5.549  0.4901  0.4673  0.4279
  926MOL0     N22150   2.978   1.039   5.294 -0.5107  0.6461  1.1390
  926MOL0     N22151   2.991   0.943   5.211  0.1459  0.7120  0.7555
  926MOL0     C22152   4.146   0.941   4.597 -0.6745  0.1608 -0.2567
  926MOL0     C22153   4.275   0.983   4.552 -0.2440 -0.3566  0.0458
  926MOL0     C22154   4.678   1.137   4.461  0.1133  0.6619 -0.1026
  926MOL0     C22155   4.679   1.271   4.433 -0.3451 -0.6015  0.7774
  926MOL0     C22156   4.791   1.339   4.388  0.2286 -0.8206 -0.4242
  926MOL0     C22157   4.907   1.266   4.351  0.4091 -0.6082 -0.3902
  926MOL0     O22158   5.018   1.338   4.299  0.1196  0.0825 -0.1953
  926MOL0     C22159   5.146   1.268   4.279  0.2998 -0.7311 -0.6202
  926MOL0     C22160   5.251   1.357   4.228  0.1175 -0.0395 -0.1099
  926MOL0     C22161   5.212   1.425   4.095  0.0507 -0.0175 -0.4635
  926MOL0     C22162   5.221   1.333   3.975 -0.2975 -0.2493  0.0143
  926MOL0     C22163   5.301   1.378   3.863 -0.5776 -0.0128  0.9906
  926MOL0     C22164   5.359   1.412   3.763 -0.4485 -0.2004 -0.2351
  926MOL0     C22165   4.904   1.135   4.373  0.5112  0.1347  0.0827
  926MOL0     C22166   4.795   1.066   4.430 -0.5707  0.5514  0.3646
  926MOL0     H22167   4.287   1.279   4.724 -0.1636  0.9209  0.4687
  926MOL0     H22168   4.079   1.183   4.822  0.8843  1.5234  0.4592
  926MOL0     H22169   3.893   0.791   4.634  1.3765 -0.0680  1.4364
  926MOL0     H22170   3.871   0.948   4.564  2.1619  0.5918 -0.3827
  926MOL0     H22171   3.740   0.803   4.800  1.0869  0.9006 -0.7021
  926MOL0     H22172   3.674   0.820   4.639 -3.8747  0.6470  0.7459
  926MOL0     H22173   3.680   1.074   4.693 -0.8418 -0.1556 -0.0755
  926MOL0     H22174   3.730   1.026   4.858  0.3110 -1.4999 -0.4779
  926MOL0     H22175   3.502   1.079   4.866  1.5518  2.2484 -1.1064
  926MOL0     H22176   3.462   0.962   4.736 -1.8747  2.8466  1.3790
  926MOL0     H22177   3.530   0.899   5.028 -0.5542 -0.5506  0.3479
  926MOL0     H22178   3.559   0.784   4.896 -0.9276  0.3378  0.3788
  926MOL0     H22179   3.342   0.740   4.958  2.2170 -0.9607  0.1119
  926MOL0     H22180   3.316   0.837   4.814 -1.3176  1.1165  1.1419
  926MOL0     H22181   3.300   0.931   5.100  3.6477 -2.4488 -0.5888
  926MOL0     H22182   3.297   1.039   4.950  2.3672 -1.6318 -1.2667
  926MOL0     H22183   3.076   0.828   4.993 -0.3723  0.1302 -2.7409
  926MOL0     H22184   3.067   0.975   4.903  4.4919 -1.1771 -2.0452
  926MOL0     H22185   3.110   1.215   5.055  2.1478 -1.3890  1.1002
  926MOL0     H22186   2.947   1.269   5.408 -2.0797  1.2855 -0.4773
  926MOL0     H22187   2.939   1.359   5.248  1.2143  1.9912  2.5921
  926MOL0     H22188   3.194   1.371   5.249  1.8451 -0.9775  1.9425
  926MOL0     H22189   3.183   1.309   5.414 -1.3445 -1.4119  0.5810
  926MOL0     H22190   3.073   1.572   5.284 -1.8989 -0.5539 -1.0969
  926MOL0     H22191   2.999   1.511   5.435  0.7439 -1.3342  2.2520
  926MOL0     H22192   3.294   1.574   5.399  0.1534  1.8560 -2.5349
  926MOL0     H22193   3.198   1.537   5.544 -2.5014 -0.1814 -0.9400
  926MOL0     H22194   3.006   1.598   5.640  4.8188 -1.7104  2.0583
  926MOL0     H22195   2.847   1.703   5.768 -1.0028  0.4510 -0.8927
  926MOL0     H22196   2.502   2.068   5.756  0.5505  0.0922 -1.0121
  926MOL0     H22197   2.332   2.211   5.887  0.4638  1.0098 -3.6586
  926MOL0     H22198   2.409   2.406   6.206 -1.0216 -0.2353  1.8020
  926MOL0     H22199   2.291   2.307   6.126  1.2871 -0.9287 -0.5977
  926MOL0     H22200   2.262   2.606   6.078 -1.7266  0.1054 -1.5736
  926MOL0     H22201   2.245   2.556   6.257 -0.2192 -0.4332 -0.6545
  926MOL0     H22202   2.088   2.401   6.191  2.6633  0.7976  1.0331
  926MOL0     H22203   2.107   2.454   6.014  3.3996 -0.3056 -1.0488
  926MOL0     H22204   2.019   2.657   6.229 -1.0229  4.1002 -1.8181
  926MOL0     H22205   2.018   2.677   6.057 -1.7274  0.1594  0.0827
  926MOL0     H22206   1.843   2.461   6.185 -1.5053 -1.1353 -1.0318
  926MOL0     H22207   1.815   2.545   6.028  1.9296  0.8455 -1.4458
  926MOL0     H22208   1.768   2.747   6.142  3.0419 -1.7615 -1.0319
  926MOL0     H22209   1.806   2.691   6.300  0.2872 -0.0422  0.0084
  926MOL0     H22210   1.577   2.607   6.124 -0.5765 -2.0610  0.0659
  926MOL0     H22211   1.622   2.504   6.255  0.9767  0.0717  0.3717
  926MOL0     H22212   1.445   2.635   6.326 -1.0382  1.3721  0.3245
  926MOL0     H22213   1.513   2.787   6.283  1.4642  0.7044  1.6053
  926MOL0     H22214   2.654   2.460   6.013  2.3059 -0.8366  0.4762
  926MOL0     H22215   2.836   2.309   5.917  0.8924 -2.6476 -0.3689
  926MOL0     H22216   2.969   2.092   5.612 -1.4028  0.7486  3.2636
  926MOL0     H22217   3.141   1.979   5.486  1.6733  0.4947  1.6959
  926MOL0     H22218   4.111   0.848   4.554  0.6068  0.5693 -2.3535
  926MOL0     H22219   4.323   0.911   4.486 -2.8179 -1.2428 -1.0230
  926MOL0     H22220   4.587   1.328   4.439  1.4889  2.4856  1.6322
  926MOL0     H22221   4.793   1.448   4.391  1.9256 -0.8184 -0.6249
  926MOL0     H22222   5.133   1.187   4.207 -2.4212 -1.2657  0.3189
  926MOL0     H22223   5.184   1.219   4.369  1.5319 -0.7434 -1.1411
  926MOL0     H22224   5.264   1.446   4.291 -1.8970 -0.8634  1.5947
  926MOL0     H22225   5.345   1.301   4.232 -0.0149 -0.2925 -0.4838
  926MOL0     H22226   5.277   1.513   4.089 -0.1998  0.2606  0.5872
  926MOL0     H22227   5.110   1.465   4.096  0.4445  1.0758 -1.6619
  926MOL0     H22228   5.276   1.244   4.005 -0.8252 -1.3847 -2.2130
  926MOL0     H22229   5.131   1.282   3.939  0.7689 -2.5584  0.4670
  926MOL0     H22230   5.415   1.438   3.675  0.3109 -3.7371 -0.9416
  926MOL0     H22231   4.990   1.074   4.349  2.0547  2.3185 -0.2384
  926MOL0     H22232   4.800   0.958   4.442 -1.2887  0.4049 -0.5597
  927MOL0     O22233   1.692   1.622  11.276 -0.1766  0.1501 -0.0798
  927MOL0     C22234   1.773   1.575  11.358 -0.1750 -0.7613 -0.6935
  927MOL0     O22235   1.804   1.444  11.381 -0.4608 -0.8334 -0.2255
  927MOL0     C22236   1.730   1.338  11.332 -0.1524  0.4257 -0.0535
  927MOL0     C22237   1.589   1.342  11.329 -0.2969 -0.0900  0.1814
  927MOL0     C22238   1.516   1.225  11.301 -0.3143 -0.2928  0.2147
  927MOL0     C22239   1.587   1.106  11.272 -0.3787  0.3417  0.1850
  927MOL0     O22240   1.513   1.001  11.230  0.3520 -0.1963  0.2332
  927MOL0     C22241   1.583   0.878  11.213 -0.3457  0.3127  0.2737
  927MOL0     C22242   1.485   0.766  11.217  0.4202  0.0427 -0.3634
  927MOL0     C22243   1.376   0.774  11.108 -0.2392  0.3585  0.3283
  927MOL0     C22244   1.417   0.751  10.967 -0.1064  0.3364  0.4464
  927MOL0     C22245   1.328   0.819  10.864  0.4156  0.7121 -0.2942
  927MOL0     C22246   1.349   0.738  10.736  0.4393 -0.3224  0.5461
  927MOL0     C22247   1.277   0.804  10.606 -0.0485 -0.6510  0.3218
  927MOL0     C22248   1.120   0.800  10.615  0.0694  0.0773 -0.6922
  927MOL0     N22249   1.061   0.890  10.519  0.2374 -1.0042  0.9164
  927MOL0     C22250   1.089   0.889  10.385  0.0879  1.0013  0.5934
  927MOL0     C22251   1.021   0.998  10.341  0.0935 -0.0960  1.0466
  927MOL0     C22252   1.036   1.030  10.189  0.2990  0.2231  0.2523
  927MOL0     C22253   1.003   1.175  10.146  0.1032  0.6919 -0.2573
  927MOL0     C22254   1.115   1.272  10.177 -0.6793 -0.4546 -0.6197
  927MOL0     C22255   1.082   1.416  10.155 -0.2692  0.1454 -0.6519
  927MOL0     O22256   1.004   1.423  10.038  0.8001 -0.5199 -0.1674
  927MOL0     C22257   0.939   1.538   9.988 -0.3870  0.9530 -0.4361
  927MOL0     C22258   0.981   1.667  10.028  0.1348 -0.0516  0.1370
  927MOL0     C22259   0.929   1.776   9.958  0.3016  0.0234  0.4779
  927MOL0     C22260   0.829   1.763   9.857  1.0806 -0.9853 -0.7122
  927MOL0     C22261   0.782   1.872   9.780  0.0005  0.2097  0.6864
  927MOL0     O22262   0.714   1.842   9.658  0.8148  0.7082  0.0914
  927MOL0     C22263   0.688   1.953   9.586  0.3232  0.1447 -0.9772
  927MOL0     C22264   0.787   2.049   9.541 -0.1464  0.2952  0.0596
  927MOL0     C22265   0.755   2.161   9.468  0.7972  0.2912  0.0870
  927MOL0     C22266   0.622   2.176   9.414 -0.4868 -0.0797 -0.4094
  927MOL0     O22267   0.597   2.283   9.334 -0.6867 -0.1134 -0.9574
  927MOL0     C22268   0.499   2.258   9.233 -0.5895 -0.0965  0.1788
  927MOL0     C22269   0.510   2.378   9.139 -1.0568 -0.1195 -0.8979
  927MOL0     C22270   0.378   2.390   9.050 -0.6397  0.5307 -0.3917
  927MOL0     C22271   0.256   2.453   9.118 -0.3265  0.5983 -0.6632
  927MOL0     C22272   0.137   2.477   9.025 -0.0166  0.5378 -1.3035
  927MOL0     C22273   0.004   2.465   9.106  0.3290  1.1444  0.1371
  927MOL0     C22274  -0.123   2.474   9.014 -0.1294  0.0710 -1.2524
  927MOL0     C22275  -0.249   2.504   9.101  0.2636  0.3477 -0.1357
  927MOL0    Cl22276  -0.311   2.356   9.192 -0.2808  0.1310 -0.0331
  927MOL0     C22277   0.526   2.087   9.455  0.2761  0.5371  0.1445
  927MOL0     C22278   0.555   1.981   9.539 -0.2987 -0.7426 -0.3345
  927MOL0     O22279   0.773   1.985   9.835 -0.3035 -0.3267 -0.0310
  927MOL0     C22280   0.787   1.636   9.824 -0.5477  0.2793  0.5188
  927MOL0     C22281   0.850   1.525   9.881 -0.1897  0.3353  0.0055
  927MOL0     N22282   0.958   1.053  10.446  0.0233  0.1745  0.6739
  927MOL0     N22283   0.981   0.993  10.555 -0.0497  0.2491 -0.2664
  927MOL0     C22284   1.728   1.121  11.258  1.2036 -0.1875 -0.1994
  927MOL0     C22285   1.799   1.223  11.301  0.6701 -0.2459 -0.3588
  927MOL0     C22286   1.843   1.668  11.448 -0.4803  0.4664  0.4836
  927MOL0     C22287   1.820   1.804  11.435 -0.6123  0.1039 -0.7723
  927MOL0     C22288   1.877   1.889  11.518  0.3427  0.1993  0.5868
  927MOL0     C22289   1.978   1.854  11.606 -0.3592 -0.7646 -0.4266
  927MOL0     O22290   2.039   1.935  11.702 -0.0678 -0.2021  0.6563
  927MOL0     C22291   2.035   2.081  11.683  0.8912 -0.6905  1.0222
  927MOL0     C22292   2.148   2.154  11.757  0.5901 -0.0484 -0.6974
  927MOL0     C22293   2.108   2.296  11.795 -0.1988  0.1129  0.8500
  927MOL0     C22294   2.213   2.337  11.896 -0.4432 -0.3830  0.6111
  927MOL0     C22295   2.176   2.464  11.954 -1.5862  0.5998  0.5621
  927MOL0     C22296   2.141   2.554  12.023 -0.2252 -0.9368 -1.2205
  927MOL0     C22297   2.010   1.718  11.607 -0.1612  0.8594  0.0523
  927MOL0     C22298   1.940   1.623  11.535 -1.3279 -0.3354 -0.3029
  927MOL0     H22299   1.535   1.431  11.356 -0.8453 -0.1385 -0.7260
  927MOL0     H22300   1.408   1.228  11.317 -0.7598  4.4426 -2.0046
  927MOL0     H22301   1.659   0.863  11.290 -0.3332  0.9882  0.3972
  927MOL0     H22302   1.635   0.886  11.117 -1.3115  0.9367 -0.2037
  927MOL0     H22303   1.431   0.767  11.313 -3.5286 -1.0796 -2.3494
  927MOL0     H22304   1.529   0.666  11.208  3.0240  1.3004 -3.4067
  927MOL0     H22305   1.342   0.877  11.117 -1.1551  0.1265 -0.3204
  927MOL0     H22306   1.296   0.701  11.125  1.1813 -1.5196 -0.6061
  927MOL0     H22307   1.519   0.789  10.955 -0.1045  1.2855  2.9717
  927MOL0     H22308   1.420   0.643  10.947  1.5229  0.0477  1.9823
  927MOL0     H22309   1.376   0.915  10.842 -0.1825  1.1307  0.1568
  927MOL0     H22310   1.224   0.831  10.898  0.8749  0.1646  1.4162
  927MOL0     H22311   1.300   0.643  10.757 -1.7636  1.2798  3.4923
  927MOL0     H22312   1.456   0.739  10.712  0.0379  1.6113 -1.4895
  927MOL0     H22313   1.311   0.908  10.610 -1.0843 -0.3117  3.2027
  927MOL0     H22314   1.312   0.748  10.519 -0.3037 -0.0726 -0.1591
  927MOL0     H22315   1.079   0.843  10.707 -0.5196  0.1197 -0.9689
  927MOL0     H22316   1.076   0.700  10.607  1.2642 -0.5797  0.6012
  927MOL0     H22317   1.145   0.817  10.327 -1.5410  1.7332 -2.0577
  927MOL0     H22318   0.971   0.970  10.125  1.7450 -1.0807 -0.0437
  927MOL0     H22319   1.131   1.008  10.140 -0.6610 -2.1177 -0.6839
  927MOL0     H22320   0.913   1.208  10.199  0.0770 -0.8857  0.7504
  927MOL0     H22321   0.989   1.171  10.038  1.1880  1.8076 -0.4598
  927MOL0     H22322   1.155   1.271  10.279  2.5643 -2.3712 -1.7666
  927MOL0     H22323   1.201   1.243  10.116  0.3834  1.8777 -0.2977
  927MOL0     H22324   1.176   1.471  10.145  0.4244 -0.7941  0.4753
  927MOL0     H22325   1.034   1.465  10.240 -0.3789 -0.0358 -0.6106
  927MOL0     H22326   1.059   1.700  10.096  2.4867  1.5926 -3.1157
  927MOL0     H22327   0.957   1.879   9.978  0.6261  0.4251 -1.7291
  927MOL0     H22328   0.893   2.030   9.552  0.2497  0.5231 -2.7803
  927MOL0     H22329   0.837   2.221   9.429  0.6258  0.1247 -0.5484
  927MOL0     H22330   0.398   2.261   9.275 -0.6625 -0.2168  0.0097
  927MOL0     H22331   0.506   2.160   9.185 -0.6024 -0.7605  1.4708
  927MOL0     H22332   0.600   2.366   9.078  2.6613 -1.3893  4.1176
  927MOL0     H22333   0.521   2.474   9.190 -5.6614  3.0364 -5.0045
  927MOL0     H22334   0.367   2.285   9.020 -0.4792 -0.5826  2.9969
  927MOL0     H22335   0.404   2.453   8.964 -1.4534  2.4771  0.7229
  927MOL0     H22336   0.228   2.371   9.185  0.2519  3.9375  4.1937
  927MOL0     H22337   0.281   2.528   9.193 -1.5225  3.2802 -2.8039
  927MOL0     H22338   0.134   2.391   8.956  1.7884 -1.8537  1.3451
  927MOL0     H22339   0.149   2.570   8.968  1.5397  1.4119  0.3586
  927MOL0     H22340   0.001   2.535   9.189  1.9453  1.6105 -0.1719
  927MOL0     H22341  -0.002   2.363   9.145 -1.7385  1.6258  1.1695
  927MOL0     H22342  -0.103   2.558   8.947  0.2107  2.6606  1.8459
  927MOL0     H22343  -0.143   2.385   8.953 -2.3019 -0.5656  0.2653
  927MOL0     H22344  -0.324   2.539   9.029  2.4345 -0.8385 -3.1655
  927MOL0     H22345  -0.222   2.583   9.172  1.4574  0.5802 -0.8250
  927MOL0     H22346   0.424   2.094   9.419  0.9268 -1.9394 -2.5908
  927MOL0     H22347   0.471   1.918   9.565 -0.5627 -0.3633 -0.2574
  927MOL0     H22348   0.720   1.612   9.742 -0.0440 -0.7515  0.3885
  927MOL0     H22349   0.816   1.430   9.841 -2.5470  0.8465  0.6324
  927MOL0     H22350   1.790   1.043  11.216  1.4093  0.2264 -0.6753
  927MOL0     H22351   1.904   1.210  11.323  0.9236  0.2579 -1.2154
  927MOL0     H22352   1.748   1.837  11.361 -1.7762 -0.4088  0.1142
  927MOL0     H22353   1.834   1.988  11.513  1.3428  0.6388  0.3306
  927MOL0     H22354   1.936   2.120  11.706  0.8472 -1.4672  2.2368
  927MOL0     H22355   2.057   2.112  11.581 -3.8986 -0.8591 -0.3115
  927MOL0     H22356   2.175   2.096  11.846  0.8704  1.1941  0.0557
  927MOL0     H22357   2.235   2.157  11.691 -0.7614  1.2897 -2.5192
  927MOL0     H22358   2.008   2.297  11.840 -1.8381 -0.2573 -2.4879
  927MOL0     H22359   2.113   2.350  11.700 -0.3265 -0.3970  0.5541
  927MOL0     H22360   2.237   2.266  11.976  0.3209  1.5070  2.1387
  927MOL0     H22361   2.305   2.350  11.837  1.9012  2.6821  4.4422
  927MOL0     H22362   2.128   2.636  12.089  0.4154 -1.9784  0.2486
  927MOL0     H22363   2.078   1.685  11.685 -0.0454 -0.8051 -0.7078
  927MOL0     H22364   1.962   1.520  11.562  2.2831  0.4671  0.3178
  928MOL0     O22365   2.091   1.727   5.396  0.4624  0.5267 -0.4837
  928MOL0     C22366   2.026   1.829   5.389 -0.1015 -0.8433  0.3144
  928MOL0     O22367   2.043   1.923   5.299 -0.1622  0.9216  0.7515
  928MOL0     C22368   2.114   1.893   5.186  0.8537  0.6553  0.0973
  928MOL0     C22369   2.079   1.797   5.087  0.3419  0.4266 -0.4058
  928MOL0     C22370   2.165   1.754   4.989 -0.0055  0.2471  0.0979
  928MOL0     C22371   2.294   1.801   4.979  0.2189  0.0120 -0.3940
  928MOL0     O22372   2.380   1.770   4.872  0.3888 -0.5745 -0.0578
  928MOL0     C22373   2.353   1.664   4.779 -0.4083 -0.5568 -1.0719
  928MOL0     C22374   2.457   1.649   4.680 -0.4652 -0.3161  0.8213
  928MOL0     C22375   2.482   1.798   4.612 -0.0793 -0.5194  0.5220
  928MOL0     C22376   2.560   1.798   4.482  0.0034 -0.2651 -0.1900
  928MOL0     C22377   2.492   1.763   4.348  1.0614 -0.1584  0.2925
  928MOL0     C22378   2.434   1.618   4.332 -0.4684 -0.6565 -0.1455
  928MOL0     C22379   2.442   1.582   4.178 -0.5172  0.4775  0.6075
  928MOL0     C22380   2.343   1.470   4.144 -0.1919 -0.0044  0.4353
  928MOL0     N22381   2.343   1.446   3.997 -0.3670  0.4526 -1.3278
  928MOL0     C22382   2.233   1.449   3.910 -0.0963  0.3933  0.2771
  928MOL0     C22383   2.282   1.408   3.795 -0.8949  0.8187  0.3330
  928MOL0     C22384   2.211   1.403   3.666  0.1798  0.1359  0.0255
  928MOL0     C22385   2.148   1.527   3.617 -0.2154  0.2092 -0.6131
  928MOL0     C22386   2.081   1.517   3.469 -0.6431  1.0341 -0.3222
  928MOL0     C22387   2.034   1.647   3.420  0.2701  0.2921 -0.2741
  928MOL0     O22388   1.939   1.695   3.517  0.2490 -0.2124 -0.2250
  928MOL0     C22389   1.865   1.806   3.480  0.3813  0.6592  0.6932
  928MOL0     C22390   1.807   1.875   3.582 -0.1321 -0.1355  0.5212
  928MOL0     C22391   1.734   1.991   3.553  0.3497  0.0604 -0.8491
  928MOL0     C22392   1.713   2.034   3.421 -0.6124 -0.4487 -0.4280
  928MOL0     C22393   1.646   2.159   3.394  0.2346 -0.2454  0.4159
  928MOL0     O22394   1.548   2.205   3.480  0.0528 -0.4213 -0.3146
  928MOL0     C22395   1.439   2.278   3.434  1.2507 -0.9657 -0.2920
  928MOL0     C22396   1.391   2.258   3.306  0.2977  0.7870  0.4057
  928MOL0     C22397   1.281   2.336   3.265  0.8504 -0.2598 -0.2284
  928MOL0     C22398   1.208   2.418   3.359  0.1748  0.0695 -0.0670
  928MOL0     O22399   1.085   2.476   3.342 -0.4442  0.4222  0.3606
  928MOL0     C22400   1.074   2.550   3.220 -0.8086  0.4333 -0.8498
  928MOL0     C22401   0.934   2.591   3.191  0.7047  0.2427 -0.7223
  928MOL0     C22402   0.884   2.721   3.258 -0.3549  0.1181  0.1923
  928MOL0     C22403   0.734   2.746   3.241 -0.0475  0.0481  0.0120
  928MOL0     C22404   0.700   2.862   3.337  1.0713 -0.5618  0.0798
  928MOL0     C22405   0.694   2.989   3.260  0.2357 -0.2244  0.8624
  928MOL0     C22406   0.668   3.119   3.344 -0.2287 -0.3277 -0.5037
  928MOL0     C22407   0.778   3.133   3.445 -0.7892  0.1838  0.1070
  928MOL0    Cl22408   0.738   3.269   3.549 -0.0993  0.1103  0.2162
  928MOL0     C22409   1.255   2.424   3.489  0.2108  0.4518 -0.2781
  928MOL0     C22410   1.368   2.347   3.525  0.5460 -0.2255  0.1049
  928MOL0     O22411   1.687   2.218   3.289 -0.2606  0.7700 -0.1406
  928MOL0     C22412   1.762   1.954   3.316  0.2783  0.1994  0.0701
  928MOL0     C22413   1.840   1.837   3.343  0.5172 -0.1080 -0.0748
  928MOL0     N22414   2.423   1.383   3.811  0.1510 -0.1108  0.1916
  928MOL0     N22415   2.452   1.398   3.933  0.2917 -0.5551  0.1276
  928MOL0     C22416   2.332   1.897   5.071  0.1156  0.4443 -0.1936
  928MOL0     C22417   2.243   1.942   5.164  0.1838  0.0349  0.4997
  928MOL0     C22418   1.942   1.867   5.507  1.0085 -0.1917  0.6867
  928MOL0     C22419   1.864   1.984   5.503  0.2881 -0.1167  0.1855
  928MOL0     C22420   1.783   2.013   5.608  0.4307  0.6766 -0.9821
  928MOL0     C22421   1.765   1.918   5.722  0.2354 -0.3371  0.1973
  928MOL0     O22422   1.671   1.951   5.814 -0.0177 -0.2462  0.4725
  928MOL0     C22423   1.646   1.858   5.927  0.4693  0.2827  0.7922
  928MOL0     C22424   1.537   1.935   6.005  0.7411 -0.5789  0.0541
  928MOL0     C22425   1.520   1.885   6.146  0.2023 -0.4913  0.2010
  928MOL0     C22426   1.370   1.844   6.167  0.5577 -0.1632 -0.1355
  928MOL0     C22427   1.338   1.734   6.074 -0.3500 -0.4241  0.2648
  928MOL0     C22428   1.327   1.640   6.000 -0.1375 -0.1251 -0.4179
  928MOL0     C22429   1.846   1.803   5.727 -0.0310  0.8272  0.9038
  928MOL0     C22430   1.924   1.781   5.614 -0.3674 -0.0051  1.2073
  928MOL0     H22431   1.979   1.757   5.098  0.4040  0.0050 -1.2757
  928MOL0     H22432   2.138   1.678   4.916 -0.1802  0.5506 -0.1555
  928MOL0     H22433   2.258   1.689   4.730 -0.5907  1.2212  0.1233
  928MOL0     H22434   2.350   1.570   4.836 -3.6651  0.2165  0.2706
  928MOL0     H22435   2.433   1.582   4.597  0.2692  0.3995  0.0055
  928MOL0     H22436   2.555   1.630   4.724 -0.8049  0.6731  2.0811
  928MOL0     H22437   2.533   1.859   4.686 -0.4880  1.2701 -0.6090
  928MOL0     H22438   2.386   1.847   4.596  1.9638  3.4599 -0.8154
  928MOL0     H22439   2.599   1.900   4.476 -2.3648  0.6351 -2.2282
  928MOL0     H22440   2.637   1.721   4.492 -0.8201 -1.3799 -2.0062
  928MOL0     H22441   2.561   1.766   4.263  1.5194 -0.0211  0.6589
  928MOL0     H22442   2.413   1.833   4.323 -0.8887 -3.1762 -2.8067
  928MOL0     H22443   2.333   1.630   4.372 -0.7217  0.2593 -1.0025
  928MOL0     H22444   2.496   1.547   4.388 -0.2251 -0.2548  0.1018
  928MOL0     H22445   2.434   1.665   4.107  0.3127 -1.2067 -1.5784
  928MOL0     H22446   2.542   1.541   4.160 -0.4729  1.4668 -1.8179
  928MOL0     H22447   2.250   1.499   4.195 -1.8257  0.5392 -2.6199
  928MOL0     H22448   2.388   1.387   4.200 -0.9324 -2.7768 -2.7521
  928MOL0     H22449   2.131   1.480   3.930 -0.9665 -1.3556 -1.1278
  928MOL0     H22450   2.128   1.334   3.687 -1.2061  1.5412 -0.5934
  928MOL0     H22451   2.270   1.356   3.587  3.0049 -3.3598  3.7822
  928MOL0     H22452   2.219   1.610   3.611 -0.4240  0.5963  1.5639
  928MOL0     H22453   2.063   1.554   3.680 -0.5158  0.4261 -1.0989
  928MOL0     H22454   2.157   1.475   3.403  0.9475  0.6246  1.6668
  928MOL0     H22455   1.988   1.460   3.477 -0.6993  1.3958  3.0426
  928MOL0     H22456   1.983   1.631   3.325 -0.7559  1.0995  0.1243
  928MOL0     H22457   2.109   1.725   3.401  1.2299 -1.2907 -3.8723
  928MOL0     H22458   1.824   1.827   3.678  0.9203 -2.5709 -0.7861
  928MOL0     H22459   1.687   2.046   3.635 -2.4734 -1.7507 -1.1097
  928MOL0     H22460   1.431   2.192   3.230 -5.4276  1.6858 -4.0172
  928MOL0     H22461   1.237   2.328   3.166 -0.3132  1.9073  0.0502
  928MOL0     H22462   1.110   2.487   3.138  2.4045 -0.2668  0.9187
  928MOL0     H22463   1.131   2.643   3.227 -0.1381 -0.0223  0.0053
  928MOL0     H22464   0.869   2.504   3.210 -0.9386  1.8957  2.0249
  928MOL0     H22465   0.927   2.609   3.084  0.3751  1.1638 -0.5513
  928MOL0     H22466   0.949   2.806   3.237  1.1472 -1.5782 -2.7133
  928MOL0     H22467   0.906   2.695   3.362  0.6074 -0.9731 -0.2598
  928MOL0     H22468   0.691   2.755   3.141 -1.3131  0.1883  0.5462
  928MOL0     H22469   0.682   2.661   3.287 -1.2481 -0.0511 -1.4697
  928MOL0     H22470   0.768   2.856   3.423 -0.1662 -0.3518  1.0964
  928MOL0     H22471   0.603   2.844   3.383  0.0319  0.9374 -1.4074
  928MOL0     H22472   0.605   2.976   3.198  0.6372 -4.0761  0.8443
  928MOL0     H22473   0.777   3.011   3.193  1.0398 -3.5135  0.6203
  928MOL0     H22474   0.658   3.210   3.285 -0.1772  0.8975  1.2933
  928MOL0     H22475   0.576   3.100   3.401 -2.0094 -1.1613 -3.4441
  928MOL0     H22476   0.876   3.162   3.404  0.3136  1.4481  3.3477
  928MOL0     H22477   0.790   3.044   3.508  0.9320  2.4615  3.3020
  928MOL0     H22478   1.199   2.476   3.566  2.0951 -1.6404  2.7599
  928MOL0     H22479   1.399   2.351   3.629 -0.2723  2.0044  0.3268
  928MOL0     H22480   1.746   1.991   3.215  3.3561 -0.1731 -0.6555
  928MOL0     H22481   1.868   1.774   3.259 -1.5852 -0.2043 -0.7692
  928MOL0     H22482   2.434   1.936   5.069  0.5368 -0.6254 -0.6836
  928MOL0     H22483   2.261   2.017   5.241  1.6538 -0.7695  0.9848
  928MOL0     H22484   1.870   2.052   5.419  1.9629 -2.8865 -2.1342
  928MOL0     H22485   1.735   2.110   5.594 -0.9985  0.3249  1.0378
  928MOL0     H22486   1.730   1.838   5.994  0.2986 -0.5896  0.7655
  928MOL0     H22487   1.613   1.762   5.886  1.6484 -1.0895  2.8368
  928MOL0     H22488   1.568   2.040   6.004  0.0828 -0.1982  3.9369
  928MOL0     H22489   1.440   1.929   5.955  0.4242 -0.8618  0.6926
  928MOL0     H22490   1.538   1.969   6.214 -1.3291  1.8351 -2.0522
  928MOL0     H22491   1.579   1.795   6.165 -0.9195 -1.2676  0.0886
  928MOL0     H22492   1.355   1.812   6.271 -0.0209 -0.5126 -0.3229
  928MOL0     H22493   1.300   1.923   6.139  0.0170  0.1815  1.9642
  928MOL0     H22494   1.297   1.566   5.928  1.9239  0.8965 -2.4552
  928MOL0     H22495   1.859   1.734   5.810  0.1688 -2.5632 -1.7356
  928MOL0     H22496   1.986   1.692   5.624 -0.8031 -0.2633  1.6848
  929MOL0     O22497   9.410   1.993   0.214 -0.1313  0.0840  0.2402
  929MOL0     C22498   9.491   2.058   0.143 -0.6336  0.3270  0.2010
  929MOL0     O22499   9.464   2.123   0.022  0.9729 -0.6859 -0.3797
  929MOL0     C22500   9.333   2.129  -0.024  0.5721  0.7316 -1.0395
  929MOL0     C22501   9.256   2.231   0.009 -0.1977  0.4864 -0.2885
  929MOL0     C22502   9.127   2.237  -0.041 -0.2517  0.0174 -0.2969
  929MOL0     C22503   9.067   2.135  -0.114  0.3740  1.0869  0.2676
  929MOL0     O22504   8.940   2.155  -0.161  0.3752  0.3881  0.5764
  929MOL0     C22505   8.834   2.082  -0.084  0.5494 -0.5630 -0.8752
  929MOL0     C22506   8.694   2.157  -0.070 -0.7171 -0.7268 -0.9425
  929MOL0     C22507   8.629   2.194  -0.209 -1.4194 -0.1489 -0.2040
  929MOL0     C22508   8.488   2.257  -0.186 -1.2057  0.5360 -0.1779
  929MOL0     C22509   8.483   2.389  -0.105  0.2059 -0.2044 -0.3230
  929MOL0     C22510   8.503   2.510  -0.191  0.6278  0.3948 -0.5191
  929MOL0     C22511   8.557   2.624  -0.097  0.3927 -0.0817  0.5382
  929MOL0     C22512   8.706   2.609  -0.068 -0.2119  0.8558  0.4585
  929MOL0     N22513   8.799   2.611  -0.183  0.3002 -0.5226 -0.1823
  929MOL0     C22514   8.864   2.512  -0.246 -0.1680  0.0768 -0.7402
  929MOL0     C22515   8.920   2.571  -0.356 -0.5546  0.0207 -0.1048
  929MOL0     C22516   9.023   2.506  -0.446 -0.8156 -0.5227 -0.5590
  929MOL0     C22517   8.980   2.371  -0.509  0.1615 -0.1941 -0.3600
  929MOL0     C22518   9.062   2.349  -0.639 -0.4427  0.3013 -0.3117
  929MOL0     C22519   9.210   2.300  -0.629  0.6127 -0.7738  0.0693
  929MOL0     O22520   9.266   2.306  -0.761  0.1918 -0.3915  0.5408
  929MOL0     C22521   9.399   2.333  -0.778 -0.4301 -0.1209  0.8619
  929MOL0     C22522   9.494   2.299  -0.682 -0.0381 -0.2026 -0.0295
  929MOL0     C22523   9.621   2.338  -0.702 -0.2709 -0.1678 -0.0069
  929MOL0     C22524   9.661   2.400  -0.820 -0.9172 -1.5198  0.5353
  929MOL0     C22525   9.807   2.442  -0.844 -0.0397  1.1901 -0.3484
  929MOL0     O22526   9.890   2.393  -0.749 -0.0095 -0.0674 -0.3000
  929MOL0     C22527  10.022   2.423  -0.740 -1.1768 -0.3041 -0.5814
  929MOL0     C22528  10.110   2.441  -0.853  0.8212 -0.3877 -0.8779
  929MOL0     C22529  10.243   2.484  -0.838  0.5566 -0.6186  0.8162
  929MOL0     C22530  10.302   2.495  -0.715  0.4116  0.4019 -0.4958
  929MOL0     O22531  10.435   2.525  -0.717 -0.4058 -0.4397 -0.4736
  929MOL0     C22532  10.519   2.530  -0.605 -0.1091 -0.1715 -0.8681
  929MOL0     C22533  10.575   2.665  -0.586  0.4708  0.0667 -0.1781
  929MOL0     C22534  10.683   2.656  -0.472 -0.5702  0.0354  0.1385
  929MOL0     C22535  10.700   2.789  -0.426  0.4910 -0.1027 -0.2364
  929MOL0     C22536  10.632   2.813  -0.277  0.3585  0.1567  0.1396
  929MOL0     C22537  10.480   2.813  -0.289 -0.3694  0.0913  0.7256
  929MOL0     C22538  10.417   2.819  -0.148 -0.0085  0.8489  0.0870
  929MOL0     C22539  10.392   2.677  -0.087 -0.0705 -0.1026  0.0338
  929MOL0    Cl22540  10.271   2.607  -0.190 -0.3201 -0.2343  0.2024
  929MOL0     C22541  10.223   2.482  -0.597 -0.6419  0.3751  0.4074
  929MOL0     C22542  10.082   2.447  -0.616  0.4340  0.8375  0.3785
  929MOL0     O22543   9.834   2.496  -0.947 -0.1833  0.3555 -0.3493
  929MOL0     C22544   9.568   2.430  -0.922  0.0247 -0.4504 -0.3046
  929MOL0     C22545   9.440   2.390  -0.901  0.3783  0.4703  0.2082
  929MOL0     N22546   8.868   2.697  -0.375 -0.3287  0.0213  0.0615
  929MOL0     N22547   8.793   2.720  -0.275  0.9790  1.1533 -0.4183
  929MOL0     C22548   9.152   2.025  -0.152  0.7469 -0.9131  0.2706
  929MOL0     C22549   9.286   2.025  -0.108  0.0438 -0.3185  0.0382
  929MOL0     C22550   9.629   2.045   0.187 -0.0034  0.0294  0.2325
  929MOL0     C22551   9.648   1.988   0.310  0.2308  0.1437 -0.1583
  929MOL0     C22552   9.782   1.980   0.362  0.4691  0.0974 -0.3189
  929MOL0     C22553   9.883   2.033   0.293 -0.8929 -0.4295 -0.4892
  929MOL0     O22554  10.009   2.022   0.353  0.5595 -1.0204  0.1985
  929MOL0     C22555  10.095   2.137   0.355 -0.0712  0.5550 -0.3414
  929MOL0     C22556  10.040   2.258   0.430 -0.2485  0.0736 -0.2528
  929MOL0     C22557  10.045   2.219   0.579  0.1270  0.0521  0.2675
  929MOL0     C22558   9.996   2.335   0.666 -0.4413  0.2064  0.0308
  929MOL0     C22559   9.888   2.421   0.604  0.2745  0.3867 -0.3941
  929MOL0     C22560   9.808   2.499   0.545 -0.8495  0.1613  0.1873
  929MOL0     C22561   9.866   2.092   0.174 -0.5058  0.3129  0.2055
  929MOL0     C22562   9.740   2.106   0.122  0.2005  0.4064 -0.0205
  929MOL0     H22563   9.307   2.310   0.063  2.0707 -1.0890 -0.0084
  929MOL0     H22564   9.065   2.325  -0.031 -1.4891 -1.0147  1.7207
  929MOL0     H22565   8.861   2.055   0.019 -0.8302 -1.1795 -0.6392
  929MOL0     H22566   8.807   1.990  -0.137  1.2541 -3.1422  2.8299
  929MOL0     H22567   8.712   2.243  -0.005 -1.0872 -2.0059  0.9728
  929MOL0     H22568   8.623   2.097  -0.011 -1.1380  1.5825  1.0400
  929MOL0     H22569   8.636   2.112  -0.281  5.5252 -1.3532  1.0655
  929MOL0     H22570   8.699   2.267  -0.249  1.1658 -3.5651 -2.4471
  929MOL0     H22571   8.457   2.279  -0.289  0.3258  1.6051 -0.4450
  929MOL0     H22572   8.432   2.178  -0.135  1.2960 -0.1806  1.6687
  929MOL0     H22573   8.557   2.386  -0.025 -3.1194 -1.4755  3.0059
  929MOL0     H22574   8.381   2.400  -0.067  0.1837  3.3595 -1.0417
  929MOL0     H22575   8.407   2.532  -0.238  0.2930  0.1638  0.0536
  929MOL0     H22576   8.564   2.490  -0.280  1.4708  0.5885  0.0006
  929MOL0     H22577   8.533   2.721  -0.141 -0.5668 -1.0231 -1.1044
  929MOL0     H22578   8.511   2.616   0.003  0.4864  2.3939  0.8321
  929MOL0     H22579   8.727   2.522  -0.004  0.3560  2.0190  1.9165
  929MOL0     H22580   8.745   2.694  -0.011  2.3871  1.3243 -1.8490
  929MOL0     H22581   8.892   2.413  -0.209 -0.6009  1.1771  2.9784
  929MOL0     H22582   9.117   2.509  -0.391 -1.0263  0.0344 -0.2147
  929MOL0     H22583   9.036   2.578  -0.528 -1.6700 -0.4671 -0.6640
  929MOL0     H22584   8.877   2.380  -0.545 -0.0396 -1.7921 -0.2508
  929MOL0     H22585   8.997   2.290  -0.438  4.7431 -0.7155 -1.6992
  929MOL0     H22586   8.998   2.273  -0.684 -2.5278  0.0745  2.7326
  929MOL0     H22587   9.069   2.434  -0.707 -1.9060 -0.0387 -0.9059
  929MOL0     H22588   9.209   2.195  -0.600 -3.6010 -0.9594 -0.1419
  929MOL0     H22589   9.260   2.358  -0.551  0.8357  1.6021 -1.7239
  929MOL0     H22590   9.456   2.253  -0.592 -2.1727 -0.9828 -1.2575
  929MOL0     H22591   9.690   2.329  -0.618 -1.1412  1.1036  0.8875
  929MOL0     H22592  10.073   2.412  -0.951 -3.4975 -2.8485  1.1997
  929MOL0     H22593  10.308   2.484  -0.925  0.4190 -3.2012  0.6466
  929MOL0     H22594  10.597   2.462  -0.640  1.3334  2.3443 -2.9797
  929MOL0     H22595  10.474   2.502  -0.510 -2.3722  0.8536 -1.5834
  929MOL0     H22596  10.495   2.738  -0.573  0.0832 -0.3045 -0.4551
  929MOL0     H22597  10.632   2.702  -0.671  1.1646  3.3295  1.5719
  929MOL0     H22598  10.776   2.611  -0.506  1.0953  4.3758 -1.8599
  929MOL0     H22599  10.638   2.596  -0.392 -2.6216  1.8515  0.4502
  929MOL0     H22600  10.807   2.810  -0.419  0.5847  0.6770 -2.8994
  929MOL0     H22601  10.664   2.870  -0.491  2.4295 -0.8935 -2.4483
  929MOL0     H22602  10.671   2.903  -0.229  0.0196 -0.0197  0.7468
  929MOL0     H22603  10.669   2.743  -0.202 -0.5582  0.1462  0.5863
  929MOL0     H22604  10.431   2.737  -0.351 -1.3323  0.5561  0.8966
  929MOL0     H22605  10.456   2.901  -0.349  3.1309 -0.2248 -1.4415
  929MOL0     H22606  10.471   2.884  -0.079 -0.5214  1.7330 -0.3283
  929MOL0     H22607  10.322   2.871  -0.161 -1.6714 -2.2263 -0.8520
  929MOL0     H22608  10.354   2.684   0.015 -0.8046 -0.6198 -0.1907
  929MOL0     H22609  10.478   2.611  -0.078 -1.8763 -2.4321  1.4774
  929MOL0     H22610  10.257   2.506  -0.497  1.4026 -5.4160  1.4833
  929MOL0     H22611   9.995   2.439  -0.552 -3.5999 -0.4232 -4.6351
  929MOL0     H22612   9.601   2.467  -1.018  0.1501  0.1133 -0.0538
  929MOL0     H22613   9.363   2.426  -0.969 -0.2785  0.6851  1.0470
  929MOL0     H22614   9.111   1.944  -0.213 -0.5724 -0.6163  0.7157
  929MOL0     H22615   9.354   1.946  -0.139  2.9655  1.2035  2.0089
  929MOL0     H22616   9.565   1.960   0.373  0.5709 -0.5782 -0.0256
  929MOL0     H22617   9.797   1.951   0.465  1.3004  1.5262 -0.0007
  929MOL0     H22618  10.132   2.169   0.257 -0.3759  1.6393 -0.1149
  929MOL0     H22619  10.181   2.106   0.414 -1.8674 -1.2695  1.4495
  929MOL0     H22620  10.100   2.348   0.417 -1.0663  0.6132 -0.3725
  929MOL0     H22621   9.938   2.275   0.393  0.4017  1.0353 -1.6749
  929MOL0     H22622  10.144   2.181   0.606 -0.2737 -4.0519 -3.0415
  929MOL0     H22623   9.988   2.128   0.601  2.3057 -1.5160 -0.3139
  929MOL0     H22624   9.967   2.284   0.758 -2.4636  3.2621  1.2631
  929MOL0     H22625  10.089   2.393   0.676 -0.3325 -0.0267  0.3970
  929MOL0     H22626   9.755   2.574   0.489  0.0336  0.9821  0.4257
  929MOL0     H22627   9.957   2.126   0.124 -0.6596 -0.0745 -0.3438
  929MOL0     H22628   9.710   2.170   0.041 -1.9616 -2.8350 -2.0283
  930MOL0     O22629   1.787   7.966   4.592 -0.4707  0.0294  0.9819
  930MOL0     C22630   1.733   7.855   4.580 -0.3433 -0.4898  0.2429
  930MOL0     O22631   1.610   7.815   4.608  0.8722 -0.1900  0.6264
  930MOL0     C22632   1.505   7.905   4.627 -0.9470  0.6467 -0.6040
  930MOL0     C22633   1.380   7.882   4.585  0.9142 -0.0118  0.2117
  930MOL0     C22634   1.262   7.944   4.621 -0.3896 -0.6448 -1.1938
  930MOL0     C22635   1.274   8.062   4.708 -0.1342  1.1568 -1.3686
  930MOL0     O22636   1.160   8.122   4.752  0.5919 -0.1399 -0.0012
  930MOL0     C22637   1.171   8.249   4.828  1.3674 -1.0973 -0.3383
  930MOL0     C22638   1.033   8.279   4.900  0.2035  0.4256 -0.1377
  930MOL0     C22639   1.004   8.423   4.949  0.0349  1.2799 -0.0505
  930MOL0     C22640   0.864   8.429   5.014 -0.6343 -0.1750 -0.4003
  930MOL0     C22641   0.828   8.573   5.046 -0.2620 -0.2466 -0.1892
  930MOL0     C22642   0.689   8.576   5.098  1.0239 -0.9593 -0.2258
  930MOL0     C22643   0.645   8.713   5.138  0.2190 -0.0786  0.9921
  930MOL0     C22644   0.553   8.790   5.024  0.6056 -0.3929  0.0413
  930MOL0     N22645   0.611   8.924   5.024 -0.0187 -0.1373  0.9490
  930MOL0     C22646   0.694   8.966   4.909 -0.0920 -0.2860  1.5180
  930MOL0     C22647   0.708   9.097   4.942 -0.1916 -0.6079 -0.0231
  930MOL0     C22648   0.780   9.208   4.869 -0.3507 -0.0550 -0.5202
  930MOL0     C22649   0.678   9.287   4.788  0.8060  0.4492  0.7108
  930MOL0     C22650   0.695   9.429   4.781 -0.3530 -1.0779 -0.4662
  930MOL0     C22651   0.624   9.485   4.666  0.0702 -0.5340 -0.4992
  930MOL0     O22652   0.688   9.440   4.546 -0.5253 -0.2028  0.2051
  930MOL0     C22653   0.625   9.482   4.426  0.0509 -0.4681  0.4614
  930MOL0     C22654   0.677   9.448   4.298 -0.2056 -0.5738 -0.9198
  930MOL0     C22655   0.624   9.499   4.179  0.1909  0.4158 -0.0968
  930MOL0     C22656   0.507   9.573   4.178 -0.6274  0.0752  0.4592
  930MOL0     C22657   0.449   9.609   4.048 -0.3011  0.5124  0.2974
  930MOL0     O22658   0.332   9.669   4.052  0.3491 -0.6049 -0.2036
  930MOL0     C22659   0.283   9.712   3.934  0.2546 -0.2177  0.0613
  930MOL0     C22660   0.238   9.626   3.827  0.7419 -1.1378 -0.0440
  930MOL0     C22661   0.189   9.676   3.705 -1.0867 -0.5392 -1.6247
  930MOL0     C22662   0.192   9.809   3.676  0.6758  0.3858 -0.0873
  930MOL0     O22663   0.138   9.854   3.553 -0.7786 -0.5426 -0.6284
  930MOL0     C22664   0.156   9.988   3.508  0.1902 -0.4664  0.6816
  930MOL0     C22665   0.070  10.012   3.374 -0.3403 -0.3659 -1.0431
  930MOL0     C22666   0.075  10.149   3.331 -0.1602 -0.4538  0.6789
  930MOL0     C22667  -0.018  10.161   3.216  0.6776 -0.6078  0.1869
  930MOL0     C22668  -0.024  10.305   3.170 -1.0788 -0.5133  0.2346
  930MOL0     C22669  -0.109  10.327   3.039  0.0111  0.0235  0.6508
  930MOL0     C22670  -0.130  10.471   3.008  0.4084 -0.4043 -0.3579
  930MOL0     C22671  -0.213  10.542   3.112 -0.9207  0.5211  1.0266
  930MOL0    Cl22672  -0.377  10.594   3.030 -0.0663 -0.8796 -0.2152
  930MOL0     C22673   0.241   9.896   3.776  0.4496  0.4385 -0.1326
  930MOL0     C22674   0.291   9.847   3.900 -0.2890  0.0148 -0.0339
  930MOL0     O22675   0.521   9.592   3.952  0.6168 -0.0806  1.1282
  930MOL0     C22676   0.453   9.606   4.304 -0.1017 -0.6951  0.3264
  930MOL0     C22677   0.507   9.561   4.423  1.0289 -0.7134  1.3100
  930MOL0     N22678   0.654   9.123   5.062 -0.5524 -0.4376 -0.3206
  930MOL0     N22679   0.588   9.021   5.112  0.2917 -0.0067 -0.1439
  930MOL0     C22680   1.404   8.098   4.746  0.2960 -0.6478 -0.4759
  930MOL0     C22681   1.514   8.021   4.707 -0.0276  0.1167  0.1592
  930MOL0     C22682   1.807   7.735   4.518  0.5748 -0.5669  0.0584
  930MOL0     C22683   1.749   7.610   4.500 -0.2567  0.6770 -0.8124
  930MOL0     C22684   1.830   7.504   4.457  0.0469  0.1249 -0.5108
  930MOL0     C22685   1.965   7.521   4.431 -0.0215  1.2596  0.3196
  930MOL0     O22686   2.026   7.409   4.380 -0.0362 -0.2478  0.5509
  930MOL0     C22687   2.144   7.430   4.297 -0.8967  0.1682  0.7543
  930MOL0     C22688   2.184   7.295   4.231  0.3994 -0.5377  0.0819
  930MOL0     C22689   2.130   7.260   4.091 -0.6573  0.4418  0.8263
  930MOL0     C22690   1.983   7.298   4.070  0.0054 -1.1471  0.6838
  930MOL0     C22691   1.898   7.207   3.989 -0.3214  0.4314  0.0596
  930MOL0     C22692   1.839   7.117   3.930 -1.0053 -1.1716 -1.1410
  930MOL0     C22693   2.021   7.646   4.448 -0.2953  0.2412 -0.4650
  930MOL0     C22694   1.951   7.748   4.506  1.3761 -0.0816  0.3385
  930MOL0     H22695   1.383   7.812   4.501 -3.3153 -0.2975  0.0953
  930MOL0     H22696   1.168   7.914   4.578  0.0011 -1.3403 -1.5800
  930MOL0     H22697   1.198   8.336   4.768 -3.4822  1.7715  1.0624
  930MOL0     H22698   1.247   8.237   4.907  1.6822  1.9691 -0.0680
  930MOL0     H22699   1.017   8.219   4.990 -2.4533  1.9686  0.5212
  930MOL0     H22700   0.957   8.245   4.830  0.6535 -2.6592  0.7155
  930MOL0     H22701   0.999   8.482   4.857  1.6059 -1.4058 -2.0108
  930MOL0     H22702   1.090   8.457   5.008  2.1000 -2.3795 -0.6094
  930MOL0     H22703   0.802   8.379   4.939  0.6633 -0.5326 -1.2686
  930MOL0     H22704   0.865   8.368   5.105 -0.6915 -0.0369 -0.3065
  930MOL0     H22705   0.830   8.634   4.956 -0.7774  0.1835  0.0839
  930MOL0     H22706   0.897   8.615   5.119 -2.6910 -0.8374  2.6537
  930MOL0     H22707   0.677   8.506   5.181 -0.4752 -2.4733 -1.6384
  930MOL0     H22708   0.624   8.535   5.020 -3.5736  1.9032  1.6973
  930MOL0     H22709   0.571   8.705   5.218 -0.6452 -1.5632  0.0754
  930MOL0     H22710   0.736   8.768   5.166  1.2864 -1.7896  1.0025
  930MOL0     H22711   0.444   8.790   5.035  0.1462 -3.8634 -2.7714
  930MOL0     H22712   0.563   8.745   4.925  0.7090 -1.9691  0.7355
  930MOL0     H22713   0.735   8.915   4.823 -3.4119 -2.9582  1.3163
  930MOL0     H22714   0.855   9.161   4.804 -0.0707  0.4419 -0.5614
  930MOL0     H22715   0.833   9.260   4.949 -0.9994  2.2529 -1.5139
  930MOL0     H22716   0.577   9.262   4.820  0.0589 -0.8135 -2.3130
  930MOL0     H22717   0.680   9.242   4.689 -2.3199 -0.1856  0.8324
  930MOL0     H22718   0.665   9.484   4.871  3.3613  3.2079 -1.5096
  930MOL0     H22719   0.800   9.446   4.757 -1.3032  1.8380 -3.1196
  930MOL0     H22720   0.623   9.594   4.671 -2.4419 -0.5062  0.3090
  930MOL0     H22721   0.516   9.465   4.671  0.0350 -1.2671 -2.8442
  930MOL0     H22722   0.769   9.390   4.301  1.1145  1.1787 -3.6448
  930MOL0     H22723   0.670   9.471   4.085 -0.2055  1.0166 -0.4766
  930MOL0     H22724   0.234   9.520   3.853 -2.0621 -0.6908  1.8384
  930MOL0     H22725   0.152   9.601   3.636 -1.9527 -1.1255 -0.5505
  930MOL0     H22726   0.261  10.001   3.480 -1.0898  0.4633 -4.6855
  930MOL0     H22727   0.130  10.055   3.590 -1.5163  1.3444 -1.2303
  930MOL0     H22728  -0.036   9.994   3.396  0.0871 -0.8273  0.8612
  930MOL0     H22729   0.106   9.944   3.296  1.3286 -0.5038 -0.2036
  930MOL0     H22730   0.179  10.170   3.306  0.2524  0.8399  3.1708
  930MOL0     H22731   0.056  10.215   3.417  2.6266  0.5814  0.6092
  930MOL0     H22732   0.011  10.086   3.142  2.1848 -1.1490  1.2575
  930MOL0     H22733  -0.117  10.133   3.251  0.3508 -2.6586 -2.1067
  930MOL0     H22734   0.078  10.338   3.147 -0.8309 -0.3956  1.4273
  930MOL0     H22735  -0.057  10.371   3.251 -1.9019 -0.7545  0.1113
  930MOL0     H22736  -0.202  10.271   3.056  0.0907  0.3597  2.3218
  930MOL0     H22737  -0.063  10.279   2.952 -3.9583  0.3907 -1.9334
  930MOL0     H22738  -0.032  10.516   2.988 -0.3245  0.8935 -1.2135
  930MOL0     H22739  -0.170  10.482   2.906  2.4339 -0.0559 -1.1688
  930MOL0     H22740  -0.151  10.630   3.126 -0.1445 -0.2757  2.8812
  930MOL0     H22741  -0.216  10.478   3.201 -1.7426 -0.6366  0.2016
  930MOL0     H22742   0.247  10.003   3.762 -2.5735  0.8265  0.6229
  930MOL0     H22743   0.341   9.905   3.977 -0.1434 -1.2783  0.8934
  930MOL0     H22744   0.371   9.677   4.310  0.5136  0.0194  0.3943
  930MOL0     H22745   0.452   9.599   4.509 -0.1612 -1.1505  0.7641
  930MOL0     H22746   1.433   8.186   4.802  3.0204 -0.6765 -1.6975
  930MOL0     H22747   1.609   8.054   4.747  1.4879 -3.3053 -0.2327
  930MOL0     H22748   1.647   7.594   4.531 -0.1341 -2.5128 -1.7026
  930MOL0     H22749   1.775   7.412   4.441 -0.2002 -0.8310  4.3224
  930MOL0     H22750   2.229   7.459   4.360 -0.8304  3.9484 -0.8158
  930MOL0     H22751   2.134   7.507   4.220  0.4733 -0.2914  0.1020
  930MOL0     H22752   2.293   7.301   4.222  0.3537 -0.4064 -0.4300
  930MOL0     H22753   2.183   7.213   4.304  2.7396  1.7011  2.8843
  930MOL0     H22754   2.148   7.152   4.080 -0.6437  0.6789 -2.6411
  930MOL0     H22755   2.191   7.313   4.016 -2.0888 -0.3227 -0.9697
  930MOL0     H22756   1.936   7.300   4.169  1.5979 -0.7366  1.4546
  930MOL0     H22757   1.986   7.402   4.038 -1.4891 -0.9037  1.2221
  930MOL0     H22758   1.783   7.034   3.893  0.2966 -2.3061 -0.6440
  930MOL0     H22759   2.126   7.668   4.435 -0.0977  2.5518  3.3207
  930MOL0     H22760   2.001   7.828   4.559  1.4692 -1.3203  2.2153
  931MOL0     O22761   8.438   7.147   7.253 -0.5164  0.5353 -0.0723
  931MOL0     C22762   8.509   7.208   7.186 -0.8908 -0.0114  0.1386
  931MOL0     O22763   8.478   7.327   7.132 -0.5300  0.6748 -0.5212
  931MOL0     C22764   8.348   7.372   7.132  0.0223  0.0825 -1.1041
  931MOL0     C22765   8.320   7.498   7.170  0.0780  0.2756 -0.2534
  931MOL0     C22766   8.190   7.544   7.183 -0.1160  1.4048  0.3534
  931MOL0     C22767   8.082   7.458   7.161 -0.8434  0.0896  0.5008
  931MOL0     O22768   7.949   7.493   7.166 -0.4526 -0.3212 -0.5106
  931MOL0     C22769   7.909   7.612   7.225 -0.3999 -0.0922  0.8464
  931MOL0     C22770   7.761   7.595   7.245 -0.3263  0.3379 -0.3510
  931MOL0     C22771   7.710   7.697   7.351 -0.0217  0.5011  0.3388
  931MOL0     C22772   7.563   7.645   7.380 -1.2590 -0.4740  0.0364
  931MOL0     C22773   7.510   7.737   7.486  0.2020 -0.6298  0.3159
  931MOL0     C22774   7.365   7.688   7.514 -0.2229 -0.2196  0.2790
  931MOL0     C22775   7.254   7.704   7.411  0.7402 -0.1169  0.6356
  931MOL0     C22776   7.125   7.751   7.474 -0.1437 -0.0182  0.2293
  931MOL0     N22777   7.136   7.889   7.524  0.7899  0.3457 -0.1268
  931MOL0     C22778   7.187   7.986   7.446  0.6351 -0.8325 -0.3188
  931MOL0     C22779   7.204   8.089   7.531 -0.1811 -1.3802 -0.0702
  931MOL0     C22780   7.258   8.230   7.499 -0.3282  0.3015 -0.3710
  931MOL0     C22781   7.406   8.250   7.541  0.2512  0.6948  0.0546
  931MOL0     C22782   7.506   8.195   7.436 -0.4340 -1.1163  0.7467
  931MOL0     C22783   7.645   8.180   7.498  0.4580  0.4540 -0.1247
  931MOL0     O22784   7.749   8.171   7.404 -0.2122  0.2466 -0.2490
  931MOL0     C22785   7.871   8.183   7.453 -1.0800 -0.2104 -0.0977
  931MOL0     C22786   7.955   8.298   7.429  0.2021 -0.0184  0.2900
  931MOL0     C22787   8.083   8.294   7.486 -0.2592  0.2915 -0.9838
  931MOL0     C22788   8.138   8.180   7.557 -0.4673  0.6933  0.6059
  931MOL0     C22789   8.276   8.189   7.604  0.8015 -0.0441  0.3778
  931MOL0     O22790   8.351   8.275   7.540  0.4698 -0.5586 -0.1253
  931MOL0     C22791   8.488   8.259   7.550 -0.2319  0.4728  0.6856
  931MOL0     C22792   8.564   8.374   7.519  0.0368  0.4382  0.1216
  931MOL0     C22793   8.702   8.377   7.519  0.1394  1.3937 -1.1620
  931MOL0     C22794   8.766   8.257   7.545  0.0234  0.8605 -0.5735
  931MOL0     O22795   8.902   8.249   7.551 -0.3929  0.6516  0.5143
  931MOL0     C22796   8.971   8.164   7.645 -0.3826  0.0052  0.9319
  931MOL0     C22797   9.117   8.160   7.599  0.0403  0.3569  0.7812
  931MOL0     C22798   9.212   8.101   7.703 -0.6824  0.0367 -0.2379
  931MOL0     C22799   9.354   8.093   7.658 -0.2035  0.4590 -0.3010
  931MOL0     C22800   9.445   8.063   7.781 -0.1964 -0.8454  0.0771
  931MOL0     C22801   9.598   8.097   7.748  0.1613  0.4840 -0.3455
  931MOL0     C22802   9.672   8.062   7.875 -0.6965  0.2042 -0.0906
  931MOL0     C22803   9.827   8.070   7.855  0.2651 -0.0084 -0.4479
  931MOL0    Cl22804   9.885   8.059   8.024  0.5480 -0.1602  0.0651
  931MOL0     C22805   8.697   8.132   7.560  0.0726  0.1795  0.1161
  931MOL0     C22806   8.553   8.139   7.559 -0.9223 -0.5544  1.1089
  931MOL0     O22807   8.306   8.117   7.696 -0.4795  0.4191  0.0402
  931MOL0     C22808   8.055   8.068   7.581  0.5630 -0.2579  0.8563
  931MOL0     C22809   7.926   8.077   7.526  0.1294 -0.6362  0.3223
  931MOL0     N22810   7.151   8.060   7.662 -0.5713 -0.3564  0.9983
  931MOL0     N22811   7.108   7.938   7.650  0.5101  0.0972 -0.1744
  931MOL0     C22812   8.103   7.329   7.126  0.1790 -0.1032  0.4978
  931MOL0     C22813   8.236   7.284   7.105 -0.1646 -0.6528 -0.3173
  931MOL0     C22814   8.645   7.155   7.170  1.4855 -0.1293 -0.1441
  931MOL0     C22815   8.674   7.025   7.223  0.4781 -0.1879  0.1326
  931MOL0     C22816   8.804   6.974   7.214  0.1523  0.2532 -0.1062
  931MOL0     C22817   8.900   7.043   7.130 -1.3807  0.2682  0.3080
  931MOL0     O22818   9.035   6.991   7.117  1.2735 -1.1776 -0.4874
  931MOL0     C22819   9.041   6.844   7.105 -0.3559  0.5901 -0.6978
  931MOL0     C22820   9.088   6.785   7.242  0.5196  0.5099  0.2105
  931MOL0     C22821   9.236   6.841   7.264  0.1040  0.1515 -0.5833
  931MOL0     C22822   9.299   6.754   7.375  1.0266  0.2160  0.3234
  931MOL0     C22823   9.442   6.783   7.405  0.1246  0.3602 -0.2513
  931MOL0     C22824   9.560   6.800   7.439 -0.1130 -0.2120  0.4984
  931MOL0     C22825   8.860   7.157   7.064 -0.3217  0.4933 -0.1725
  931MOL0     C22826   8.740   7.221   7.093 -0.1147  0.1985  1.3417
  931MOL0     H22827   8.404   7.566   7.183  1.2293 -0.7720 -1.8928
  931MOL0     H22828   8.162   7.646   7.207 -3.4533  1.0164 -1.3966
  931MOL0     H22829   7.920   7.693   7.152 -4.1547  1.2149  1.4948
  931MOL0     H22830   7.969   7.617   7.317  3.2499 -1.1107 -1.2539
  931MOL0     H22831   7.743   7.495   7.284  0.1370  0.7866  1.0649
  931MOL0     H22832   7.708   7.613   7.151 -3.5106  1.9041  1.6044
  931MOL0     H22833   7.701   7.796   7.306  1.2758  0.4701 -0.0003
  931MOL0     H22834   7.766   7.702   7.445  1.9929 -0.9742 -0.7028
  931MOL0     H22835   7.497   7.647   7.293 -2.6731  2.4242  1.0265
  931MOL0     H22836   7.566   7.543   7.420 -2.0642  0.5205  2.8818
  931MOL0     H22837   7.512   7.835   7.436 -2.7290 -1.1049 -0.9386
  931MOL0     H22838   7.572   7.738   7.576 -1.0215  0.6874  1.1852
  931MOL0     H22839   7.343   7.756   7.597  0.9683  0.9134 -0.2886
  931MOL0     H22840   7.362   7.586   7.552  0.4604 -0.0406  0.8379
  931MOL0     H22841   7.279   7.770   7.328  2.4787 -0.5935  0.7363
  931MOL0     H22842   7.240   7.608   7.360 -2.8049  1.0467 -0.8936
  931MOL0     H22843   7.110   7.690   7.564  0.0245  0.9973  0.9760
  931MOL0     H22844   7.047   7.725   7.403 -0.2326 -0.1310  0.3668
  931MOL0     H22845   7.204   8.000   7.340 -0.1329 -1.4427 -0.5297
  931MOL0     H22846   7.198   8.302   7.557 -1.2863 -0.8783  0.1576
  931MOL0     H22847   7.240   8.259   7.395  0.3466 -0.6540 -0.7691
  931MOL0     H22848   7.431   8.198   7.634  2.3544 -0.4263 -1.0471
  931MOL0     H22849   7.416   8.355   7.572  0.0661  0.7680 -0.1323
  931MOL0     H22850   7.482   8.104   7.380  1.6757 -0.4269 -1.4722
  931MOL0     H22851   7.519   8.267   7.355 -0.1219 -1.8363  0.1386
  931MOL0     H22852   7.641   8.082   7.546 -0.5211  0.3212 -0.4478
  931MOL0     H22853   7.649   8.270   7.560 -1.9084  0.7890 -0.3369
  931MOL0     H22854   7.928   8.383   7.367  0.0335 -1.1818 -1.3048
  931MOL0     H22855   8.138   8.384   7.464 -1.9105  1.4919 -0.4410
  931MOL0     H22856   8.508   8.467   7.520 -0.6117  0.0532  0.2175
  931MOL0     H22857   8.768   8.461   7.496  1.6169  0.8240  0.7203
  931MOL0     H22858   8.929   8.064   7.629 -0.2102  0.1321 -0.4604
  931MOL0     H22859   8.962   8.187   7.751  0.7863  0.0833  1.0208
  931MOL0     H22860   9.157   8.257   7.568  0.9519 -0.6627 -1.4807
  931MOL0     H22861   9.117   8.106   7.504  0.0425 -0.4692  1.2432
  931MOL0     H22862   9.182   7.998   7.721  2.2825 -1.2523 -1.9750
  931MOL0     H22863   9.206   8.139   7.806  0.6634  0.5055 -0.3169
  931MOL0     H22864   9.364   8.005   7.594  0.1380 -0.0204  0.3968
  931MOL0     H22865   9.384   8.175   7.593 -1.2296  1.0395 -0.0535
  931MOL0     H22866   9.423   7.959   7.805 -0.5443 -0.8649 -0.3199
  931MOL0     H22867   9.419   8.132   7.862 -0.2291 -0.7093 -0.0485
  931MOL0     H22868   9.616   8.194   7.700  2.3567  0.0206 -0.5984
  931MOL0     H22869   9.626   8.026   7.670 -1.9464 -0.5583 -0.2002
  931MOL0     H22870   9.642   8.143   7.942 -1.4152  0.7364 -1.0355
  931MOL0     H22871   9.658   7.956   7.899 -1.4644  0.3072 -0.0640
  931MOL0     H22872   9.867   8.164   7.818  2.4874 -0.9144 -0.4697
  931MOL0     H22873   9.872   7.993   7.791 -0.4462  1.0017 -2.2291
  931MOL0     H22874   8.733   8.033   7.583  2.5609  1.6311  3.1812
  931MOL0     H22875   8.494   8.049   7.571 -0.7547 -0.4795  2.8096
  931MOL0     H22876   8.074   7.985   7.647 -1.3431  0.6778  2.7334
  931MOL0     H22877   7.857   7.999   7.557 -1.0494 -1.0821 -3.0412
  931MOL0     H22878   8.022   7.259   7.111 -0.9589  1.2192  0.3305
  931MOL0     H22879   8.256   7.179   7.087  2.2675 -0.0459 -1.5949
  931MOL0     H22880   8.607   6.968   7.287  0.8449 -1.4466 -0.5592
  931MOL0     H22881   8.838   6.885   7.264  1.4554  1.2748  0.9158
  931MOL0     H22882   9.116   6.827   7.028 -0.5027 -0.8563 -0.5567
  931MOL0     H22883   8.940   6.808   7.080 -2.1828  3.9326  1.1058
  931MOL0     H22884   9.024   6.810   7.328  2.0024 -3.0400  2.5719
  931MOL0     H22885   9.094   6.676   7.253 -1.9812  0.5533  3.7090
  931MOL0     H22886   9.228   6.947   7.290  1.3952 -0.3294  2.0539
  931MOL0     H22887   9.300   6.829   7.177  1.8213 -1.0740  0.7951
  931MOL0     H22888   9.247   6.764   7.471  2.4462 -1.6014  1.3614
  931MOL0     H22889   9.288   6.649   7.346 -0.9193  0.7832 -1.1884
  931MOL0     H22890   9.663   6.820   7.463  0.1763 -1.6554  0.5619
  931MOL0     H22891   8.923   7.194   6.984  2.0463  2.3079  2.3533
  931MOL0     H22892   8.715   7.302   7.024 -0.1579 -1.9087 -1.2818
  932MOL0     O22893   8.880  10.622   1.743  0.2715 -0.1134  0.0641
  932MOL0     C22894   8.823  10.712   1.800  1.0965 -0.9077 -0.6073
  932MOL0     O22895   8.734  10.688   1.908  0.1088  0.0850  0.6643
  932MOL0     C22896   8.686  10.555   1.948  0.2933  0.0463 -1.1472
  932MOL0     C22897   8.629  10.527   2.077  0.5269 -0.3095  0.2251
  932MOL0     C22898   8.572  10.397   2.108  0.8956  0.1096 -0.9002
  932MOL0     C22899   8.551  10.308   2.009  0.2105 -0.6346 -0.2147
  932MOL0     O22900   8.475  10.197   2.034  0.5491  0.2043 -0.1533
  932MOL0     C22901   8.521  10.075   1.974 -0.5414  0.0204  0.6729
  932MOL0     C22902   8.471   9.956   2.067  0.4786  0.5487  0.3104
  932MOL0     C22903   8.584   9.921   2.170 -0.3073 -0.3500  0.2612
  932MOL0     C22904   8.689   9.833   2.115 -0.3821  0.3706 -0.7839
  932MOL0     C22905   8.763   9.741   2.210  0.4366 -0.5907 -0.9691
  932MOL0     C22906   8.835   9.832   2.317 -0.3655  0.3737  0.6672
  932MOL0     C22907   8.888   9.746   2.433  0.7753 -0.1267 -0.5579
  932MOL0     C22908   8.974   9.821   2.547 -0.1701  0.4573 -0.1935
  932MOL0     N22909   9.044   9.729   2.635  0.6828 -0.6321  0.8055
  932MOL0     C22910   9.144   9.648   2.592  0.0099 -0.4952  0.5188
  932MOL0     C22911   9.147   9.546   2.687  0.2383 -1.2900 -0.4964
  932MOL0     C22912   9.266   9.463   2.697 -0.3302  0.0332 -0.3997
  932MOL0     C22913   9.316   9.454   2.841 -0.6054 -0.7193 -0.0448
  932MOL0     C22914   9.446   9.535   2.883 -0.3893  0.5063 -0.0930
  932MOL0     C22915   9.571   9.449   2.850 -0.0395  0.3127 -0.2190
  932MOL0     O22916   9.696   9.514   2.885  0.4012 -1.2378  0.4440
  932MOL0     C22917   9.717   9.529   3.018 -0.8324  0.3456  0.5616
  932MOL0     C22918   9.793   9.428   3.080  0.1961  0.4248  1.0490
  932MOL0     C22919   9.839   9.445   3.211  1.1776  0.3862 -0.2845
  932MOL0     C22920   9.801   9.558   3.285  0.3924  0.4045 -0.0845
  932MOL0     C22921   9.856   9.578   3.418  0.8668 -0.0053  0.1054
  932MOL0     O22922   9.866   9.709   3.469 -0.2074 -0.2434  0.2050
  932MOL0     C22923   9.969   9.759   3.546 -0.2205  0.2179 -0.3885
  932MOL0     C22924   9.975   9.889   3.598 -0.4728 -0.1472  0.6016
  932MOL0     C22925  10.073   9.946   3.680  0.6447 -0.3124 -0.4072
  932MOL0     C22926  10.182   9.869   3.706  1.0768 -0.2250  0.6146
  932MOL0     O22927  10.290   9.938   3.754  0.5681  0.5663  0.3040
  932MOL0     C22928  10.282   9.981   3.892 -0.0847  1.0372 -0.5342
  932MOL0     C22929  10.400  10.070   3.910  0.6216 -0.3913 -0.2270
  932MOL0     C22930  10.537   9.997   3.942 -0.3365  0.4491  0.8683
  932MOL0     C22931  10.596   9.936   3.814  0.7163 -0.0427  0.5091
  932MOL0     C22932  10.747   9.900   3.829  0.3415 -0.2511  0.3810
  932MOL0     C22933  10.763   9.782   3.932  1.0700  0.0790 -0.1499
  932MOL0     C22934  10.920   9.767   3.981  0.6223 -0.7253  0.4878
  932MOL0     C22935  10.930   9.651   4.081 -0.3634 -0.2555 -0.6526
  932MOL0    Cl22936  11.092   9.597   4.139 -0.3870 -0.2341 -0.4287
  932MOL0     C22937  10.185   9.741   3.649 -0.2803  0.3119 -0.5142
  932MOL0     C22938  10.087   9.684   3.573  0.3136  0.5174 -0.3900
  932MOL0     O22939   9.896   9.475   3.473  0.0530  0.7796  0.7172
  932MOL0     C22940   9.740   9.662   3.216  0.3470  0.2216 -0.0364
  932MOL0     C22941   9.691   9.642   3.087 -0.6746 -0.0397  1.2085
  932MOL0     N22942   9.036   9.564   2.765 -0.1601  0.3582 -1.3375
  932MOL0     N22943   8.975   9.671   2.730  0.1903  0.3041 -1.3179
  932MOL0     C22944   8.613  10.333   1.880 -0.1904 -0.2256  0.2516
  932MOL0     C22945   8.672  10.456   1.857  0.1316 -0.0306  0.7037
  932MOL0     C22946   8.860  10.851   1.752 -0.5701 -0.7988 -0.1090
  932MOL0     C22947   8.791  10.969   1.784 -0.1371 -0.3989 -0.5046
  932MOL0     C22948   8.798  11.094   1.723  0.5852  0.5212 -0.1186
  932MOL0     C22949   8.898  11.105   1.618 -0.6057 -0.2017 -0.6870
  932MOL0     O22950   8.910  11.211   1.530  0.4281 -1.1041 -0.3493
  932MOL0     C22951   8.802  11.310   1.538 -0.0088  1.3222  0.1319
  932MOL0     C22952   8.844  11.418   1.438 -0.6827 -0.2089 -0.0163
  932MOL0     C22953   8.766  11.547   1.471 -0.6551  0.2891 -0.0203
  932MOL0     C22954   8.828  11.658   1.376 -0.0808 -0.0560  0.0908
  932MOL0     C22955   8.763  11.785   1.377  0.4996  0.1434  0.0203
  932MOL0     C22956   8.702  11.893   1.374  0.8549 -0.3412 -0.0170
  932MOL0     C22957   8.979  10.998   1.590  0.2997  0.0696  0.5044
  932MOL0     C22958   8.958  10.866   1.648  0.4988 -1.1399 -0.9119
  932MOL0     H22959   8.627  10.608   2.150  1.2666 -0.0380 -0.0505
  932MOL0     H22960   8.540  10.377   2.210 -1.9604 -0.4649 -1.8304
  932MOL0     H22961   8.629  10.072   1.961 -0.7817 -0.9052 -1.3711
  932MOL0     H22962   8.464  10.058   1.882 -1.3951 -1.1009  1.3734
  932MOL0     H22963   8.453   9.864   2.011  1.0280 -0.2490  1.3944
  932MOL0     H22964   8.383   9.995   2.120 -0.3663  1.0874 -1.4214
  932MOL0     H22965   8.543   9.859   2.251 -0.9838 -1.4840 -0.8962
  932MOL0     H22966   8.623  10.017   2.204 -1.4332 -0.5926  2.4462
  932MOL0     H22967   8.643   9.777   2.033  2.7465 -1.3983 -1.5073
  932MOL0     H22968   8.768   9.899   2.077 -0.9195  0.6487 -1.4341
  932MOL0     H22969   8.833   9.677   2.155 -3.4326 -2.9940 -3.6332
  932MOL0     H22970   8.683   9.685   2.259  0.8878  1.4843  2.4946
  932MOL0     H22971   8.767   9.905   2.362 -0.2911  0.6453  0.3436
  932MOL0     H22972   8.919   9.884   2.269  2.4695 -2.5232  2.0910
  932MOL0     H22973   8.808   9.704   2.495 -0.3669  2.4406 -0.1367
  932MOL0     H22974   8.931   9.653   2.395  2.7839  0.8760 -0.8542
  932MOL0     H22975   8.917   9.889   2.610  0.7211  0.5439  0.5503
  932MOL0     H22976   9.051   9.884   2.501  1.5009  1.1802  3.2079
  932MOL0     H22977   9.199   9.657   2.499 -1.9144  3.0645 -0.4695
  932MOL0     H22978   9.341   9.495   2.624 -1.9016  2.5993 -1.0227
  932MOL0     H22979   9.240   9.365   2.656 -0.0960  0.9030 -2.7931
  932MOL0     H22980   9.315   9.346   2.857 -1.8576 -1.5727 -4.3992
  932MOL0     H22981   9.241   9.499   2.907 -0.6279  0.9597 -1.1338
  932MOL0     H22982   9.459   9.627   2.826 -0.2338  0.6138  0.1173
  932MOL0     H22983   9.440   9.548   2.992  3.4446 -0.9424  0.4287
  932MOL0     H22984   9.563   9.417   2.746  0.8724 -0.4040 -0.0787
  932MOL0     H22985   9.570   9.350   2.896 -1.0002 -0.3254 -1.5605
  932MOL0     H22986   9.822   9.336   3.029  0.3958 -0.7353  3.1514
  932MOL0     H22987   9.887   9.357   3.253 -0.9211 -1.4773 -1.5422
  932MOL0     H22988   9.914   9.965   3.550 -0.4104  0.2928  1.2041
  932MOL0     H22989  10.080  10.051   3.705 -3.2192 -0.1567  0.5734
  932MOL0     H22990  10.290   9.900   3.965  0.5625  2.0941  0.5964
  932MOL0     H22991  10.195  10.045   3.909 -0.6380  0.1564  0.0018
  932MOL0     H22992  10.380  10.133   3.997 -2.6358 -0.7851 -0.5591
  932MOL0     H22993  10.413  10.143   3.830 -0.5742  1.3353  1.0826
  932MOL0     H22994  10.523   9.922   4.022 -0.1174  0.0818  0.5673
  932MOL0     H22995  10.600  10.080   3.974 -1.8420  1.6623  0.7967
  932MOL0     H22996  10.545   9.840   3.803 -0.1748  0.2166  2.1442
  932MOL0     H22997  10.589  10.008   3.732  0.8747 -1.9107 -1.2484
  932MOL0     H22998  10.798   9.988   3.867  0.1029 -1.0831  2.7963
  932MOL0     H22999  10.791   9.860   3.737  0.2506 -0.6933  0.5260
  932MOL0     H23000  10.722   9.692   3.884 -2.1039  0.9400  0.7030
  932MOL0     H23001  10.694   9.809   4.012 -1.8024  0.8332 -2.6917
  932MOL0     H23002  10.978   9.757   3.888 -0.0085 -2.2291  0.2215
  932MOL0     H23003  10.951   9.854   4.039  0.5207 -2.5002  3.3765
  932MOL0     H23004  10.882   9.569   4.028 -0.6003 -0.2202 -0.4952
  932MOL0     H23005  10.869   9.683   4.167  1.2430  1.9117 -0.2186
  932MOL0     H23006  10.281   9.696   3.672 -0.6910 -1.3215 -1.7946
  932MOL0     H23007  10.096   9.582   3.540 -0.4055  0.1579  0.4849
  932MOL0     H23008   9.728   9.755   3.272  5.0671  0.4982  0.8718
  932MOL0     H23009   9.646   9.727   3.037  1.9202 -1.2727 -3.8342
  932MOL0     H23010   8.596  10.270   1.793  1.5355 -3.6252  2.1762
  932MOL0     H23011   8.701  10.470   1.753  0.2709 -2.2368  0.3924
  932MOL0     H23012   8.732  10.954   1.874  0.1130 -0.2704 -0.3165
  932MOL0     H23013   8.754  11.182   1.770 -0.5642 -1.1422  2.1260
  932MOL0     H23014   8.808  11.347   1.640 -1.0886 -0.8452  1.0535
  932MOL0     H23015   8.705  11.267   1.510 -0.0990  2.2868 -1.1218
  932MOL0     H23016   8.950  11.437   1.457 -0.7344 -1.4586  1.7510
  932MOL0     H23017   8.839  11.390   1.332  0.5908 -3.1442  0.5903
  932MOL0     H23018   8.777  11.560   1.579 -0.3106 -0.7135  0.0741
  932MOL0     H23019   8.657  11.538   1.463 -0.5228  0.2622 -2.7377
  932MOL0     H23020   8.933  11.674   1.402 -0.9961  0.9409  3.7217
  932MOL0     H23021   8.808  11.625   1.274 -3.6505 -0.6183  0.8549
  932MOL0     H23022   8.653  11.987   1.386  0.2172 -0.7392  0.5723
  932MOL0     H23023   9.056  11.003   1.513 -0.1639  2.3398  0.1174
  932MOL0     H23024   9.026  10.788   1.616  1.1289 -0.0540 -2.3797
  933MOL0     O23025   2.698   4.314   0.518  0.2991  0.0286 -0.4421
  933MOL0     C23026   2.798   4.385   0.523  0.0166  0.2263 -0.2552
  933MOL0     O23027   2.871   4.410   0.406  0.5987 -0.2400  0.4163
  933MOL0     C23028   2.817   4.364   0.290 -0.4024  1.1887 -0.7890
  933MOL0     C23029   2.870   4.258   0.217 -0.0162 -0.1282 -0.1644
  933MOL0     C23030   2.818   4.235   0.097  0.9946 -0.7074 -0.3618
  933MOL0     C23031   2.728   4.325   0.034  0.2394  0.6177  0.5098
  933MOL0     O23032   2.672   4.284  -0.078 -0.4739 -0.1192 -0.3875
  933MOL0     C23033   2.536   4.318  -0.105  0.5371  0.5553 -0.0500
  933MOL0     C23034   2.491   4.257  -0.234 -0.7277  0.1024 -0.2159
  933MOL0     C23035   2.337   4.228  -0.251 -0.0427 -1.1768  0.2250
  933MOL0     C23036   2.286   4.154  -0.377 -0.5124 -0.1589 -0.2230
  933MOL0     C23037   2.134   4.123  -0.387  0.5251 -0.8280  0.8070
  933MOL0     C23038   2.058   4.252  -0.401 -0.6244 -0.6266 -0.6245
  933MOL0     C23039   1.904   4.236  -0.373 -0.1146 -0.0220  0.7594
  933MOL0     C23040   1.854   4.374  -0.398  1.0141  0.6126 -0.4625
  933MOL0     N23041   1.701   4.379  -0.383 -0.4613  0.1091 -0.5152
  933MOL0     C23042   1.642   4.381  -0.255  0.0468 -0.7906 -1.2686
  933MOL0     C23043   1.512   4.401  -0.277  0.6327  0.6788 -0.2439
  933MOL0     C23044   1.405   4.395  -0.168 -0.3853  0.5365  0.1656
  933MOL0     C23045   1.295   4.486  -0.192  0.4403 -0.8349 -0.2162
  933MOL0     C23046   1.167   4.460  -0.112  1.3097  0.0885  0.0677
  933MOL0     C23047   1.055   4.567  -0.155 -1.1324  0.0789  0.5411
  933MOL0     O23048   0.940   4.556  -0.060  0.5045  0.0936 -0.6674
  933MOL0     C23049   0.821   4.611  -0.110 -0.5029  0.9108 -0.1899
  933MOL0     C23050   0.724   4.601  -0.019  0.3019 -0.2663 -0.0117
  933MOL0     C23051   0.593   4.642  -0.044 -0.2057  0.7894 -0.3951
  933MOL0     C23052   0.560   4.707  -0.166  1.6598 -0.3954 -0.2425
  933MOL0     C23053   0.419   4.752  -0.203 -0.6291  0.3275  0.4970
  933MOL0     O23054   0.412   4.828  -0.320 -0.6888  0.5600 -0.3531
  933MOL0     C23055   0.286   4.854  -0.380  0.2291 -0.3122 -0.5260
  933MOL0     C23056   0.197   4.759  -0.418  0.1014  0.2499 -0.1865
  933MOL0     C23057   0.086   4.789  -0.499  1.5009 -0.4107  0.4601
  933MOL0     C23058   0.064   4.922  -0.542 -0.3954  0.4315 -0.5003
  933MOL0     O23059  -0.030   4.961  -0.628  0.1552 -1.0248 -0.2475
  933MOL0     C23060  -0.127   4.868  -0.674  0.9136 -0.3731  0.0482
  933MOL0     C23061  -0.203   4.893  -0.812 -0.3170  0.1481 -0.4660
  933MOL0     C23062  -0.255   5.033  -0.822  0.2941  1.2150  0.7338
  933MOL0     C23063  -0.284   5.046  -0.970  1.1726  0.2715 -0.2925
  933MOL0     C23064  -0.308   5.183  -1.012 -0.3484 -0.4253  0.1709
  933MOL0     C23065  -0.444   5.236  -0.975  0.0536 -0.3830 -0.4567
  933MOL0     C23066  -0.441   5.387  -0.971  0.1687 -0.1752 -0.0243
  933MOL0     C23067  -0.573   5.448  -0.919  0.1086  0.5071 -0.4150
  933MOL0    Cl23068  -0.709   5.400  -1.014 -0.0279 -0.0897  0.0915
  933MOL0     C23069   0.159   5.022  -0.524  0.4836  0.1304 -0.0323
  933MOL0     C23070   0.265   4.979  -0.440 -0.5586 -0.4574  0.1073
  933MOL0     O23071   0.324   4.703  -0.139  0.6740 -0.2496  0.4331
  933MOL0     C23072   0.665   4.722  -0.263 -0.3037 -0.6183  0.2808
  933MOL0     C23073   0.798   4.674  -0.235 -0.2685 -0.1611 -0.5348
  933MOL0     N23074   1.493   4.412  -0.409  0.8153  0.2934  0.0979
  933MOL0     N23075   1.603   4.410  -0.469  0.2443  0.3734  0.0775
  933MOL0     C23076   2.683   4.435   0.112  0.6451 -0.1363  0.8219
  933MOL0     C23077   2.714   4.450   0.248  0.1121 -0.1607  0.8674
  933MOL0     C23078   2.842   4.443   0.655  0.8476 -0.5072 -0.8842
  933MOL0     C23079   2.953   4.525   0.658 -1.4413  0.1356 -0.1235
  933MOL0     C23080   2.997   4.595   0.765 -0.0874 -0.3303 -0.5397
  933MOL0     C23081   2.933   4.586   0.890  0.8227  1.3650 -0.1416
  933MOL0     O23082   2.998   4.641   0.993 -0.4199 -0.4928 -0.2230
  933MOL0     C23083   2.927   4.652   1.108 -0.6761 -0.7780 -0.3035
  933MOL0     C23084   3.011   4.720   1.221  0.7014 -0.6813  0.5033
  933MOL0     C23085   3.022   4.868   1.196  0.8324 -0.8093 -0.1456
  933MOL0     C23086   3.115   4.937   1.287 -0.5789 -0.3446  0.0741
  933MOL0     C23087   3.254   4.917   1.241  0.4186 -0.0897 -0.3941
  933MOL0     C23088   3.367   4.888   1.219  0.0067 -1.0531  0.2642
  933MOL0     C23089   2.812   4.503   0.891  0.5591 -0.3192 -0.7172
  933MOL0     C23090   2.772   4.440   0.773  0.3425 -0.3794  0.5489
  933MOL0     H23091   2.938   4.186   0.261 -0.8123 -1.0168 -0.3467
  933MOL0     H23092   2.845   4.142   0.047 -3.1546 -1.5008 -1.5376
  933MOL0     H23093   2.531   4.427  -0.119 -1.7424  0.5257  0.1414
  933MOL0     H23094   2.478   4.295  -0.015  2.8280  0.0878  1.3670
  933MOL0     H23095   2.541   4.160  -0.245 -0.5121  0.2891 -0.8772
  933MOL0     H23096   2.530   4.317  -0.316 -2.8500  0.5370 -0.9636
  933MOL0     H23097   2.282   4.322  -0.238 -0.7022 -1.7408  1.7219
  933MOL0     H23098   2.318   4.163  -0.164  2.0187 -1.4011  0.5506
  933MOL0     H23099   2.321   4.211  -0.464  2.3012  1.3730  1.7601
  933MOL0     H23100   2.332   4.054  -0.374 -1.1716 -0.4915 -0.7967
  933MOL0     H23101   2.090   4.077  -0.298 -0.4954 -0.1622  0.6588
  933MOL0     H23102   2.109   4.064  -0.475  0.2640  1.5173 -0.7839
  933MOL0     H23103   2.074   4.289  -0.502  0.7626 -2.2333 -1.0459
  933MOL0     H23104   2.087   4.322  -0.322 -1.0752  2.1165 -2.7515
  933MOL0     H23105   1.869   4.164  -0.448 -0.7130 -0.5108  1.4988
  933MOL0     H23106   1.890   4.201  -0.270  1.0812 -0.9376  0.6398
  933MOL0     H23107   1.880   4.415  -0.496  2.4416  0.4574 -0.1670
  933MOL0     H23108   1.885   4.448  -0.323 -1.4071  2.2065 -0.8939
  933MOL0     H23109   1.700   4.372  -0.164 -0.1852  1.1808 -0.8762
  933MOL0     H23110   1.451   4.398  -0.069  1.3053  0.4673 -0.5804
  933MOL0     H23111   1.363   4.295  -0.157 -0.7877  0.9813  4.5690
  933MOL0     H23112   1.271   4.483  -0.299 -2.3593  1.5554  0.1967
  933MOL0     H23113   1.340   4.584  -0.173  0.9189 -0.8841 -1.0465
  933MOL0     H23114   1.128   4.359  -0.128  3.3931 -0.3991 -2.8493
  933MOL0     H23115   1.191   4.486  -0.009  3.3227  0.0746 -0.3535
  933MOL0     H23116   1.025   4.563  -0.260  1.4692  0.3301 -0.2941
  933MOL0     H23117   1.104   4.664  -0.146  0.2633 -0.6685  1.4293
  933MOL0     H23118   0.748   4.553   0.076 -1.4968  1.1430  1.2285
  933MOL0     H23119   0.520   4.620   0.032  0.3385  0.7797  0.1345
  933MOL0     H23120   0.210   4.658  -0.382 -1.1258  0.8868  2.2752
  933MOL0     H23121   0.015   4.710  -0.523  2.0410 -0.9753  0.6795
  933MOL0     H23122  -0.209   4.838  -0.608  1.3691 -1.4431  0.1398
  933MOL0     H23123  -0.073   4.774  -0.690  0.0501 -1.4768  3.0275
  933MOL0     H23124  -0.286   4.822  -0.820  1.0344 -1.7083  0.8934
  933MOL0     H23125  -0.124   4.866  -0.883  1.1953 -2.4273  1.9925
  933MOL0     H23126  -0.185   5.102  -0.773  0.6248 -0.3749  2.6199
  933MOL0     H23127  -0.350   5.035  -0.766  0.1273 -0.3165  0.5429
  933MOL0     H23128  -0.197   5.007  -1.024  3.2666 -0.9660  3.5127
  933MOL0     H23129  -0.368   4.983  -0.997  0.3672  2.1548 -2.4368
  933MOL0     H23130  -0.308   5.197  -1.120 -0.8244  0.8121  0.3203
  933MOL0     H23131  -0.228   5.246  -0.972 -0.1375 -1.3399  1.2458
  933MOL0     H23132  -0.475   5.186  -0.883 -0.8194 -0.5113 -0.8065
  933MOL0     H23133  -0.526   5.210  -1.044 -2.3493  0.3469  1.9331
  933MOL0     H23134  -0.350   5.425  -0.924  1.9590  0.0063 -3.3038
  933MOL0     H23135  -0.458   5.432  -1.069 -0.0623  2.3218  1.1037
  933MOL0     H23136  -0.561   5.556  -0.934  0.9678  0.4152 -0.4219
  933MOL0     H23137  -0.583   5.417  -0.815 -1.0970 -3.1633 -1.4610
  933MOL0     H23138   0.148   5.124  -0.558  2.3732 -0.6577 -3.5094
  933MOL0     H23139   0.344   5.051  -0.421 -0.6920 -0.8852  2.7754
  933MOL0     H23140   0.644   4.766  -0.360 -3.3297 -0.7045  0.7843
  933MOL0     H23141   0.873   4.684  -0.312 -0.8291 -4.5820 -1.9094
  933MOL0     H23142   2.614   4.507   0.068  1.9874 -1.0026 -3.0776
  933MOL0     H23143   2.690   4.547   0.289 -0.1942 -0.6226  1.8223
  933MOL0     H23144   3.004   4.540   0.564  0.9041 -0.6926  0.9416
  933MOL0     H23145   3.090   4.650   0.753  0.8062 -1.8199 -0.7911
  933MOL0     H23146   2.890   4.556   1.144 -2.2600 -1.0422 -2.4725
  933MOL0     H23147   2.841   4.717   1.089 -0.5478 -0.5615 -0.1484
  933MOL0     H23148   2.957   4.705   1.315 -1.9389 -1.0152 -0.9672
  933MOL0     H23149   3.109   4.673   1.211  0.6399 -0.7489  0.1861
  933MOL0     H23150   2.931   4.920   1.226  0.1171 -1.9170 -0.3520
  933MOL0     H23151   3.054   4.893   1.094  3.1604  3.5645  1.3933
  933MOL0     H23152   3.089   5.042   1.298 -1.6706 -0.0999 -3.4149
  933MOL0     H23153   3.110   4.901   1.390 -1.5170  3.3581  1.4921
  933MOL0     H23154   3.471   4.875   1.201 -0.0473  1.3293 -2.5801
  933MOL0     H23155   2.752   4.488   0.979 -1.6976 -1.3510 -2.3356
  933MOL0     H23156   2.681   4.382   0.776 -1.0043  1.6280  3.6485
  934MOL0     O23157   4.814   5.967   7.602 -0.3944 -0.1772  0.9764
  934MOL0     C23158   4.771   5.948   7.714  0.1200  0.7321  0.3540
  934MOL0     O23159   4.848   5.890   7.817  0.6566  0.1395 -0.4443
  934MOL0     C23160   4.970   5.832   7.788  0.6005 -0.0288 -0.7793
  934MOL0     C23161   5.053   5.836   7.893  0.1957  0.6206 -1.0946
  934MOL0     C23162   5.180   5.777   7.893  1.5151  0.4261  0.8180
  934MOL0     C23163   5.238   5.750   7.766 -0.3129 -0.0269 -0.2388
  934MOL0     O23164   5.374   5.722   7.754 -0.6563 -0.3745  0.2363
  934MOL0     C23165   5.401   5.593   7.814 -0.5103 -0.0787  0.2862
  934MOL0     C23166   5.545   5.554   7.787 -1.2471 -0.7000  1.0731
  934MOL0     C23167   5.580   5.419   7.850 -1.1735  0.0119 -0.5021
  934MOL0     C23168   5.725   5.375   7.823  0.3709 -0.0400  0.3704
  934MOL0     C23169   5.755   5.239   7.879  0.2320  0.8490  1.3786
  934MOL0     C23170   5.890   5.193   7.836 -0.0454 -0.7260 -0.1167
  934MOL0     C23171   5.913   5.047   7.874 -0.8338  0.2548  0.5109
  934MOL0     C23172   6.059   5.005   7.857  0.0213  0.2072  0.3972
  934MOL0     N23173   6.085   4.948   7.728 -0.8130  0.4106  0.7133
  934MOL0     C23174   6.074   5.011   7.604 -0.6052 -0.2144  0.3619
  934MOL0     C23175   6.085   4.918   7.507  0.4067  0.8858  0.3053
  934MOL0     C23176   6.049   4.949   7.374 -0.7935  0.2983  0.2700
  934MOL0     C23177   6.176   4.969   7.291 -0.1241  0.4079  0.1632
  934MOL0     C23178   6.128   5.001   7.149 -0.1685 -0.5234  0.6253
  934MOL0     C23179   6.243   5.065   7.067 -0.3880  0.5922 -0.5961
  934MOL0     O23180   6.287   5.190   7.121 -0.2566  0.3430  0.1329
  934MOL0     C23181   6.409   5.231   7.086 -0.0303 -0.2572 -0.6555
  934MOL0     C23182   6.448   5.242   6.950 -0.0983 -0.7140 -0.1985
  934MOL0     C23183   6.576   5.297   6.921 -0.0426  0.2448 -0.5892
  934MOL0     C23184   6.660   5.331   7.024 -1.1108  0.4539  0.4135
  934MOL0     C23185   6.803   5.367   6.991  0.2951 -0.0038  0.0766
  934MOL0     O23186   6.854   5.362   6.864  0.1380 -0.3942  0.0682
  934MOL0     C23187   6.989   5.353   6.846  0.8024  0.9331 -0.2267
  934MOL0     C23188   7.084   5.314   6.938 -0.4229 -0.2089  0.2901
  934MOL0     C23189   7.219   5.304   6.901  1.5699  0.5542  0.3039
  934MOL0     C23190   7.260   5.335   6.775 -0.8393  0.5970 -0.3668
  934MOL0     O23191   7.385   5.334   6.734 -0.9145 -0.6137 -0.1396
  934MOL0     C23192   7.486   5.269   6.818 -0.0212  0.7512 -0.3219
  934MOL0     C23193   7.629   5.273   6.761 -0.4685  0.0902  0.4900
  934MOL0     C23194   7.657   5.172   6.655 -0.4625 -0.1896  0.1448
  934MOL0     C23195   7.802   5.186   6.586  0.2558 -0.7198 -0.8856
  934MOL0     C23196   7.817   5.077   6.496 -0.0848  0.5052 -0.4354
  934MOL0     C23197   7.923   5.105   6.400  0.1371 -0.4597  0.3970
  934MOL0     C23198   7.927   5.008   6.281  0.2286 -1.1770  0.3935
  934MOL0     C23199   8.037   5.046   6.190 -0.4850  0.0302  0.0597
  934MOL0    Cl23200   8.197   5.029   6.251 -0.0534 -0.3472  0.5580
  934MOL0     C23201   7.167   5.358   6.675 -0.5618  0.8592  0.3076
  934MOL0     C23202   7.035   5.367   6.715  0.5608 -0.8110  0.5615
  934MOL0     O23203   6.853   5.423   7.082  0.2208  0.0178 -0.5434
  934MOL0     C23204   6.614   5.317   7.156  0.6168  0.3497  0.3062
  934MOL0     C23205   6.491   5.258   7.189 -0.6038 -0.1661 -0.0860
  934MOL0     N23206   6.105   4.799   7.571 -0.4193 -0.0423 -1.1488
  934MOL0     N23207   6.117   4.815   7.706  0.1434 -0.5125 -0.1485
  934MOL0     C23208   5.152   5.732   7.649 -0.0241 -0.1560  0.7237
  934MOL0     C23209   5.019   5.771   7.663  0.2181 -0.0885 -0.6661
  934MOL0     C23210   4.640   6.014   7.744  0.0206  0.8669 -0.7832
  934MOL0     C23211   4.592   6.025   7.877  0.5262 -0.1318 -0.1767
  934MOL0     C23212   4.463   6.072   7.906  0.0482 -0.5994  0.5196
  934MOL0     C23213   4.388   6.120   7.799  0.2388  0.2492 -0.2246
  934MOL0     O23214   4.272   6.190   7.830 -0.0822  1.2427  0.6881
  934MOL0     C23215   4.213   6.282   7.740 -0.4300  0.6373 -0.2633
  934MOL0     C23216   4.076   6.334   7.800 -0.3760 -1.3707  0.2595
  934MOL0     C23217   3.967   6.223   7.821  0.3281 -0.0904 -0.6806
  934MOL0     C23218   3.839   6.271   7.746 -0.6365 -0.4182 -0.0590
  934MOL0     C23219   3.783   6.394   7.787 -0.0076 -0.0257 -0.9102
  934MOL0     C23220   3.733   6.500   7.812  0.0101 -0.3622  0.0552
  934MOL0     C23221   4.431   6.109   7.668 -0.2165 -0.0631  0.6380
  934MOL0     C23222   4.552   6.054   7.638 -0.2977  0.5214 -0.5521
  934MOL0     H23223   5.012   5.880   7.984 -0.5671 -3.4968  0.7899
  934MOL0     H23224   5.236   5.765   7.986  0.7467  1.3678  1.4257
  934MOL0     H23225   5.333   5.521   7.767  0.1363 -1.0896  0.8471
  934MOL0     H23226   5.383   5.588   7.922  1.5846 -3.1561  0.6227
  934MOL0     H23227   5.615   5.628   7.827  1.3687 -0.3815 -3.3941
  934MOL0     H23228   5.564   5.542   7.680 -0.0484  1.3647  1.0143
  934MOL0     H23229   5.511   5.346   7.807 -0.6205 -2.1987  2.0813
  934MOL0     H23230   5.552   5.424   7.956 -2.2032 -1.4177 -0.6874
  934MOL0     H23231   5.742   5.365   7.716  0.7039 -1.1982  0.5276
  934MOL0     H23232   5.802   5.442   7.861  0.4452 -0.4581  0.9642
  934MOL0     H23233   5.682   5.166   7.841  1.1693  0.6381 -0.1061
  934MOL0     H23234   5.747   5.234   7.988 -0.1264  0.2726  1.3310
  934MOL0     H23235   5.956   5.256   7.897 -1.3956 -0.3694  1.0258
  934MOL0     H23236   5.904   5.210   7.729 -3.3322  2.1562 -0.2436
  934MOL0     H23237   5.890   5.025   7.978 -1.7552  0.1868  0.2981
  934MOL0     H23238   5.848   4.977   7.821  1.7668 -1.2433 -0.9484
  934MOL0     H23239   6.067   4.918   7.923 -1.9803 -0.6457 -0.4016
  934MOL0     H23240   6.132   5.083   7.877  0.9632 -0.4734 -0.3333
  934MOL0     H23241   6.043   5.109   7.569 -0.8844 -0.5273 -0.2790
  934MOL0     H23242   5.986   5.038   7.372  1.4370  2.0144  1.6589
  934MOL0     H23243   5.995   4.870   7.320  0.8094  0.4850 -1.7028
  934MOL0     H23244   6.239   4.880   7.290 -0.0360  0.3665 -3.1932
  934MOL0     H23245   6.221   5.063   7.324 -1.4568  0.3991  2.1309
  934MOL0     H23246   6.114   4.904   7.100  0.2127 -0.3455  0.1549
  934MOL0     H23247   6.039   5.064   7.145 -1.1283 -1.5014  3.5677
  934MOL0     H23248   6.229   5.082   6.960 -0.4108  0.5857 -0.5942
  934MOL0     H23249   6.320   4.987   7.074 -2.1332 -1.7338 -4.1857
  934MOL0     H23250   6.381   5.224   6.867 -2.5058  1.2636  1.1726
  934MOL0     H23251   6.611   5.300   6.819 -0.6254  1.4020 -0.7637
  934MOL0     H23252   7.057   5.284   7.039 -3.6127  0.8187 -0.1320
  934MOL0     H23253   7.295   5.289   6.977  1.2067  2.3657  1.0688
  934MOL0     H23254   7.457   5.166   6.840 -1.2347  1.1240 -0.1083
  934MOL0     H23255   7.491   5.328   6.911 -1.8736  0.8166 -0.2233
  934MOL0     H23256   7.709   5.254   6.833 -0.1908 -0.0080  0.1584
  934MOL0     H23257   7.639   5.377   6.727 -0.9302  0.1310  0.4699
  934MOL0     H23258   7.579   5.189   6.579  0.5128 -0.9809 -1.0774
  934MOL0     H23259   7.649   5.070   6.692  2.1814 -0.6347 -0.3339
  934MOL0     H23260   7.812   5.278   6.528  1.5462  1.3475  2.3416
  934MOL0     H23261   7.886   5.197   6.655  2.0112  1.9536 -3.1960
  934MOL0     H23262   7.729   5.072   6.432  0.8576  2.0223 -1.9127
  934MOL0     H23263   7.830   4.990   6.562 -3.6534 -0.5548 -0.8747
  934MOL0     H23264   8.017   5.101   6.456 -0.3853 -1.5699  1.2445
  934MOL0     H23265   7.914   5.207   6.362  0.1668 -0.5470  0.1547
  934MOL0     H23266   7.932   4.904   6.313 -2.8290 -1.0621  1.6094
  934MOL0     H23267   7.828   5.014   6.234 -0.3788  0.0317  1.7685
  934MOL0     H23268   8.022   5.145   6.146  2.3187  0.0981 -0.9339
  934MOL0     H23269   8.023   4.964   6.118 -1.6363 -1.8467  2.2851
  934MOL0     H23270   7.202   5.352   6.573  0.9994 -3.5226  0.8742
  934MOL0     H23271   6.965   5.395   6.636  2.6694  3.3483 -0.1035
  934MOL0     H23272   6.676   5.349   7.240 -0.0815  3.2120 -0.1741
  934MOL0     H23273   6.462   5.240   7.292 -4.2118 -0.7026 -1.0390
  934MOL0     H23274   5.188   5.691   7.555 -0.3281  2.6743 -0.7385
  934MOL0     H23275   4.960   5.780   7.572 -1.4446 -0.7097  0.2972
  934MOL0     H23276   4.646   5.992   7.965 -1.7122 -0.4949  1.1462
  934MOL0     H23277   4.417   6.067   8.004  3.9935  0.7870  2.6316
  934MOL0     H23278   4.178   6.240   7.645 -0.0813 -0.9698  0.2852
  934MOL0     H23279   4.280   6.365   7.713  0.0045  1.1244  2.1443
  934MOL0     H23280   4.079   6.388   7.895 -1.4039  1.3319 -1.1562
  934MOL0     H23281   4.036   6.395   7.719 -0.0000 -2.5848 -0.8732
  934MOL0     H23282   3.942   6.215   7.927 -0.7977  2.5551 -0.6478
  934MOL0     H23283   4.000   6.130   7.775 -1.3516  0.0637 -2.3330
  934MOL0     H23284   3.863   6.289   7.641  3.3229  0.2218  0.8101
  934MOL0     H23285   3.759   6.199   7.763  0.0733 -0.7084  2.5219
  934MOL0     H23286   3.684   6.594   7.800 -0.1770 -0.6337 -1.4846
  934MOL0     H23287   4.380   6.160   7.587 -1.1319  0.5354  1.5660
  934MOL0     H23288   4.573   6.014   7.539 -1.1730  0.0344 -0.5550
  935MOL0     O23289   1.600   2.643   1.585 -0.2446 -0.5183  0.9624
  935MOL0     C23290   1.504   2.711   1.611  0.4035 -0.7866  0.2956
  935MOL0     O23291   1.382   2.706   1.555 -0.0915 -0.3881  1.4459
  935MOL0     C23292   1.361   2.623   1.446 -0.1898  0.1971 -1.1736
  935MOL0     C23293   1.450   2.606   1.335  0.4176 -0.5601 -0.4965
  935MOL0     C23294   1.423   2.520   1.231 -0.6065  0.6152  0.2785
  935MOL0     C23295   1.299   2.443   1.222  0.3898 -0.2655  0.4687
  935MOL0     O23296   1.284   2.361   1.112 -0.5320  0.6357  0.2087
  935MOL0     C23297   1.153   2.305   1.084 -0.2642 -0.3995 -1.0543
  935MOL0     C23298   1.156   2.211   0.965  0.4590  0.3573  0.6102
  935MOL0     C23299   1.018   2.154   0.918  0.3972  0.0336 -0.8932
  935MOL0     C23300   0.898   2.243   0.936  0.1471  0.0689 -0.0988
  935MOL0     C23301   0.770   2.168   0.917 -0.5510 -0.2492  0.5204
  935MOL0     C23302   0.755   2.074   0.792  0.0416 -0.2178  0.3746
  935MOL0     C23303   0.615   2.018   0.780  0.1425 -0.6265  0.5524
  935MOL0     C23304   0.596   1.887   0.872 -0.0805 -0.1674 -0.8924
  935MOL0     N23305   0.458   1.844   0.864  0.5033  0.5021 -0.3612
  935MOL0     C23306   0.402   1.805   0.745  0.1376  0.8233  1.1253
  935MOL0     C23307   0.281   1.755   0.780  0.2601  0.5998  0.0828
  935MOL0     C23308   0.173   1.712   0.681 -0.0283 -0.3640  0.0305
  935MOL0     C23309   0.188   1.575   0.630  0.4031 -0.2902  0.0369
  935MOL0     C23310   0.050   1.516   0.582  0.4623  0.4859  0.7691
  935MOL0     C23311   0.010   1.538   0.440  0.1284  0.1817  0.1646
  935MOL0     O23312  -0.066   1.428   0.382  0.3088 -0.6852  0.2065
  935MOL0     C23313  -0.201   1.436   0.363 -0.6059  0.9758  0.2461
  935MOL0     C23314  -0.253   1.333   0.277  0.2803  0.0907  0.5413
  935MOL0     C23315  -0.391   1.331   0.252  0.4370  0.0558  0.4886
  935MOL0     C23316  -0.480   1.418   0.318  0.4747  0.0527  0.9843
  935MOL0     C23317  -0.623   1.398   0.311 -0.2340 -0.4847 -0.9978
  935MOL0     O23318  -0.653   1.279   0.255  0.3984 -0.1651 -0.5860
  935MOL0     C23319  -0.781   1.255   0.209  0.5192  0.2249 -0.2879
  935MOL0     C23320  -0.875   1.356   0.186  0.2734  0.2930 -0.4931
  935MOL0     C23321  -0.994   1.341   0.113 -0.4209  1.1075 -0.4870
  935MOL0     C23322  -1.026   1.215   0.064  0.3182  0.5748 -0.6216
  935MOL0     O23323  -1.143   1.199  -0.007 -0.1273 -0.2949  0.6600
  935MOL0     C23324  -1.185   1.059  -0.031 -0.1514 -0.6242 -0.3541
  935MOL0     C23325  -1.324   1.039  -0.087 -0.9344 -0.7227  0.1755
  935MOL0     C23326  -1.360   0.891  -0.089 -0.0919 -0.0953  0.5941
  935MOL0     C23327  -1.371   0.815   0.046  0.3599 -0.7734 -0.6374
  935MOL0     C23328  -1.411   0.675   0.023 -0.3046  0.0991  0.4150
  935MOL0     C23329  -1.512   0.649  -0.094  0.2947  0.4893 -0.5434
  935MOL0     C23330  -1.595   0.517  -0.076 -0.2316 -0.2472 -0.2295
  935MOL0     C23331  -1.521   0.397  -0.136 -0.0374  0.1149 -0.5801
  935MOL0    Cl23332  -1.542   0.389  -0.314  0.2786  0.3442  0.0840
  935MOL0     C23333  -0.929   1.114   0.080  1.1204  0.5997  0.3020
  935MOL0     C23334  -0.808   1.129   0.155 -0.1666  0.5084  0.6819
  935MOL0     O23335  -0.693   1.462   0.379  0.0621  0.0493  0.3691
  935MOL0     C23336  -0.430   1.521   0.399 -0.2882  0.3913 -1.0665
  935MOL0     C23337  -0.285   1.529   0.420  0.2232  0.2103 -0.0051
  935MOL0     N23338   0.268   1.749   0.913 -0.7085  0.8296 -0.0300
  935MOL0     N23339   0.378   1.803   0.964  0.3729  0.8126 -0.3734
  935MOL0     C23340   1.215   2.456   1.334 -0.7290 -0.0292  0.0628
  935MOL0     C23341   1.238   2.550   1.435  0.4683 -0.7910  0.5913
  935MOL0     C23342   1.524   2.804   1.727 -0.8425 -0.0906 -0.6284
  935MOL0     C23343   1.627   2.889   1.760  0.3803 -0.3366  0.6710
  935MOL0     C23344   1.620   2.988   1.852 -0.4256  0.1748 -0.7460
  935MOL0     C23345   1.512   2.989   1.938 -0.4817 -0.1898  0.3347
  935MOL0     O23346   1.519   3.085   2.038  0.5335  0.2230  0.1323
  935MOL0     C23347   1.407   3.105   2.131  0.0178 -0.2166 -1.0920
  935MOL0     C23348   1.295   3.182   2.053  1.0378 -0.1792  0.3710
  935MOL0     C23349   1.202   3.282   2.143 -0.3139 -0.1976  0.3067
  935MOL0     C23350   1.120   3.228   2.263 -0.4753 -0.5137  0.0454
  935MOL0     C23351   1.034   3.338   2.315 -0.9950 -0.2329  0.8717
  935MOL0     C23352   0.973   3.439   2.349  0.2976  0.7131 -0.4249
  935MOL0     C23353   1.413   2.897   1.923  0.2456  0.2860  0.7466
  935MOL0     C23354   1.412   2.802   1.816  0.6243 -0.6618  0.4099
  935MOL0     H23355   1.541   2.664   1.329  0.6608 -0.8655  0.1248
  935MOL0     H23356   1.496   2.515   1.150 -1.6328  2.6897 -0.8614
  935MOL0     H23357   1.083   2.386   1.058 -0.5754 -0.0561  0.7275
  935MOL0     H23358   1.118   2.249   1.171  0.6502  2.0539  1.0132
  935MOL0     H23359   1.228   2.130   0.971  0.9305  0.7672  0.5403
  935MOL0     H23360   1.190   2.268   0.878 -0.5717 -1.3527 -0.9776
  935MOL0     H23361   0.993   2.067   0.978 -0.6530 -0.4224 -1.9708
  935MOL0     H23362   1.014   2.112   0.817  2.1315  0.9758 -1.4072
  935MOL0     H23363   0.897   2.290   1.034 -1.2425 -0.6558  0.2580
  935MOL0     H23364   0.901   2.315   0.853  1.1239 -0.4103 -0.5060
  935MOL0     H23365   0.706   2.257   0.912 -2.0088 -1.2834 -0.0298
  935MOL0     H23366   0.759   2.104   1.005 -2.2539  1.7590  1.8815
  935MOL0     H23367   0.826   1.991   0.800 -0.5325 -0.7879 -0.3084
  935MOL0     H23368   0.786   2.133   0.705  1.0781 -2.0403 -0.5482
  935MOL0     H23369   0.539   2.094   0.797  1.6884  1.0688  0.1851
  935MOL0     H23370   0.585   1.993   0.677 -0.6266 -0.4216  0.7190
  935MOL0     H23371   0.616   1.910   0.978 -3.0123 -0.0945 -0.2623
  935MOL0     H23372   0.670   1.814   0.839  1.9473  0.2653  2.1824
  935MOL0     H23373   0.444   1.829   0.647 -1.4243  2.5665  0.8266
  935MOL0     H23374   0.181   1.785   0.600  0.0918  0.4910  0.7927
  935MOL0     H23375   0.080   1.723   0.737  0.0325 -0.5591  0.1685
  935MOL0     H23376   0.224   1.513   0.713  2.6120  1.8968  0.8335
  935MOL0     H23377   0.262   1.577   0.550  0.9434 -2.1032  0.4371
  935MOL0     H23378   0.069   1.409   0.592 -0.5804  0.3444  1.3951
  935MOL0     H23379  -0.026   1.540   0.657 -0.1517  4.1676 -0.8287
  935MOL0     H23380   0.107   1.539   0.389  2.2287 -0.3264  3.7944
  935MOL0     H23381  -0.038   1.635   0.422  3.0775  1.5290 -1.0971
  935MOL0     H23382  -0.194   1.258   0.226  1.2410  1.7643 -0.9207
  935MOL0     H23383  -0.433   1.259   0.183 -0.8490  1.0352  0.2061
  935MOL0     H23384  -0.849   1.458   0.210 -0.6440  0.1217  1.4127
  935MOL0     H23385  -1.067   1.422   0.110  0.5836  2.1273  0.8475
  935MOL0     H23386  -1.185   1.011   0.067 -1.4358  2.0950  1.1074
  935MOL0     H23387  -1.118   1.010  -0.103 -0.2952 -0.7857 -0.3787
  935MOL0     H23388  -1.323   1.074  -0.190  1.8960 -2.1107 -0.3679
  935MOL0     H23389  -1.399   1.095  -0.030  1.9564  0.4262  3.1713
  935MOL0     H23390  -1.295   0.828  -0.151 -2.3075  0.0089 -2.0421
  935MOL0     H23391  -1.455   0.880  -0.142 -0.8146  1.3944  1.5250
  935MOL0     H23392  -1.274   0.816   0.096  1.4706 -1.4363 -2.6426
  935MOL0     H23393  -1.437   0.867   0.115  2.5359 -0.2077  1.1397
  935MOL0     H23394  -1.467   0.650   0.114 -0.0645 -0.8879  0.2930
  935MOL0     H23395  -1.321   0.616   0.011 -1.3874 -1.5690  0.2443
  935MOL0     H23396  -1.448   0.648  -0.182  1.1147 -0.2643  0.0554
  935MOL0     H23397  -1.584   0.731  -0.102 -1.1415 -0.6415  0.2568
  935MOL0     H23398  -1.612   0.501   0.031 -3.1957 -1.0516 -0.7130
  935MOL0     H23399  -1.694   0.525  -0.121 -0.8818 -1.4677  0.9112
  935MOL0     H23400  -1.561   0.311  -0.082  1.7251  1.6402  3.6058
  935MOL0     H23401  -1.415   0.391  -0.109  0.5361  2.2922 -2.0030
  935MOL0     H23402  -0.931   1.020   0.026  1.6287  1.7123 -1.7774
  935MOL0     H23403  -0.746   1.047   0.188 -2.8116 -1.2423  1.5820
  935MOL0     H23404  -0.491   1.589   0.457  0.7553  0.3255  0.1472
  935MOL0     H23405  -0.232   1.602   0.481  0.7900 -2.1040  2.4538
  935MOL0     H23406   1.121   2.401   1.336 -0.3332 -0.6923  0.6982
  935MOL0     H23407   1.168   2.561   1.517 -0.9556  2.6139 -0.8436
  935MOL0     H23408   1.714   2.865   1.699 -0.3883 -3.6223  0.6661
  935MOL0     H23409   1.698   3.057   1.882 -3.8842  2.5221  4.3446
  935MOL0     H23410   1.445   3.171   2.211  2.1087 -2.1303 -0.3900
  935MOL0     H23411   1.364   3.009   2.160 -2.3166  0.1917 -2.8885
  935MOL0     H23412   1.353   3.235   1.977 -0.8708  0.2535 -0.8471
  935MOL0     H23413   1.230   3.116   1.996  0.4390 -1.1415  2.0988
  935MOL0     H23414   1.134   3.323   2.067  0.1439  0.5024  0.2624
  935MOL0     H23415   1.268   3.366   2.169 -0.6036 -0.0302  0.5141
  935MOL0     H23416   1.061   3.139   2.242  1.4405 -2.0783  0.9709
  935MOL0     H23417   1.189   3.207   2.345  0.4605  1.2746 -0.2320
  935MOL0     H23418   0.935   3.531   2.389  3.9942  2.8331 -1.2970
  935MOL0     H23419   1.325   2.885   1.984 -0.0036 -1.8985  0.0356
  935MOL0     H23420   1.326   2.739   1.795 -0.1411  1.2380 -2.9161
  936MOL0     O23421  11.044   0.360   4.454 -0.7923 -0.1435 -1.0414
  936MOL0     C23422  11.067   0.446   4.367  0.2300  0.5071 -0.0841
  936MOL0     O23423  11.184   0.508   4.337  0.3663  0.1486  0.1480
  936MOL0     C23424  11.288   0.445   4.405  1.0197  0.3010 -0.5713
  936MOL0     C23425  11.360   0.514   4.492 -0.9865 -0.0478 -0.3257
  936MOL0     C23426  11.471   0.465   4.563 -0.1078 -0.5874  0.5246
  936MOL0     C23427  11.498   0.329   4.547 -0.2332  0.3080 -1.3855
  936MOL0     O23428  11.601   0.277   4.629 -0.4777  0.1469 -0.5695
  936MOL0     C23429  11.604   0.133   4.644  0.6257 -0.8905  0.0720
  936MOL0     C23430  11.721   0.103   4.735 -0.1733  0.2118  0.0323
  936MOL0     C23431  11.871   0.124   4.684  0.4632  0.0985  0.5365
  936MOL0     C23432  11.962   0.084   4.801 -0.0320  0.3424  0.2544
  936MOL0     C23433  12.117   0.069   4.761 -0.9815  0.0993  0.4205
  936MOL0     C23434  12.184  -0.040   4.850  0.2502 -0.4777 -0.5613
  936MOL0     C23435  12.338  -0.041   4.852  0.2141 -0.3413 -0.6015
  936MOL0     C23436  12.406  -0.162   4.930 -0.1908 -0.2340 -0.7132
  936MOL0     N23437  12.401  -0.294   4.863  0.1511 -0.6537 -0.4715
  936MOL0     C23438  12.422  -0.326   4.730 -0.8225 -0.5638 -0.1152
  936MOL0     C23439  12.400  -0.464   4.725 -0.0551 -0.3094  0.2545
  936MOL0     C23440  12.408  -0.549   4.608  0.4308 -0.9489 -1.0077
  936MOL0     C23441  12.298  -0.514   4.499 -0.4292 -0.4473 -0.0044
  936MOL0     C23442  12.160  -0.579   4.528 -0.7665 -0.0475 -1.0824
  936MOL0     C23443  12.068  -0.541   4.407  0.2855 -0.2218 -0.3523
  936MOL0     O23444  12.022  -0.648   4.324 -1.1870  0.5440 -0.4053
  936MOL0     C23445  11.930  -0.616   4.232  0.5659 -0.3944  0.2553
  936MOL0     C23446  11.876  -0.718   4.149 -0.1981  0.3151  0.4562
  936MOL0     C23447  11.776  -0.694   4.056  0.1461 -0.1838 -1.0692
  936MOL0     C23448  11.732  -0.559   4.034 -0.7570  0.1773 -0.8389
  936MOL0     C23449  11.618  -0.527   3.945  0.5996 -0.4195 -0.1384
  936MOL0     O23450  11.605  -0.396   3.928 -0.1599  0.5625 -0.5642
  936MOL0     C23451  11.514  -0.354   3.832 -0.3678  0.2149  0.0101
  936MOL0     C23452  11.370  -0.366   3.842 -0.6464 -0.5832 -0.5654
  936MOL0     C23453  11.288  -0.301   3.749 -0.1184 -0.2187 -0.5563
  936MOL0     C23454  11.344  -0.230   3.644 -0.4233 -0.9156  1.2687
  936MOL0     O23455  11.266  -0.164   3.542  0.3855 -0.2088 -0.7527
  936MOL0     C23456  11.124  -0.204   3.520 -0.1587  0.3065 -0.1026
  936MOL0     C23457  11.082  -0.157   3.385  0.7490  0.1696 -0.5055
  936MOL0     C23458  11.029  -0.018   3.378 -0.1814 -0.7321  0.0557
  936MOL0     C23459  11.002   0.029   3.225  0.1321  0.9071 -0.4975
  936MOL0     C23460  10.898  -0.062   3.167  0.2625  0.2836 -0.1203
  936MOL0     C23461  10.779   0.012   3.101 -0.3571  0.5765 -0.0153
  936MOL0     C23462  10.815   0.097   2.974  0.5054 -1.1245  0.0283
  936MOL0     C23463  10.701   0.171   2.911  0.6520  0.0621 -0.2182
  936MOL0    Cl23464  10.622   0.066   2.798  0.0385 -0.1617 -0.5046
  936MOL0     C23465  11.479  -0.223   3.627  1.6858 -0.7739 -0.2124
  936MOL0     C23466  11.565  -0.283   3.718 -0.0893  0.7248  0.2541
  936MOL0     O23467  11.554  -0.620   3.895  0.4844  0.1293 -0.3910
  936MOL0     C23468  11.799  -0.454   4.102  0.1425 -0.0911  0.8582
  936MOL0     C23469  11.887  -0.486   4.205 -0.4965 -0.0317  0.0407
  936MOL0     N23470  12.373  -0.507   4.850  0.0585 -0.4008 -0.1126
  936MOL0     N23471  12.383  -0.414   4.933  0.4627 -0.2567  0.1948
  936MOL0     C23472  11.423   0.254   4.458  0.7916  0.5647 -0.5416
  936MOL0     C23473  11.317   0.312   4.386 -0.8775  0.2547  0.1685
  936MOL0     C23474  10.948   0.489   4.287 -0.6880  0.1790 -0.8477
  936MOL0     C23475  10.827   0.432   4.308  0.2621 -0.7618 -0.2887
  936MOL0     C23476  10.715   0.474   4.243 -0.4675 -0.7226  0.0152
  936MOL0     C23477  10.726   0.567   4.135  0.1037  0.3026 -0.3013
  936MOL0     O23478  10.623   0.596   4.048 -0.4438  0.2365 -0.0814
  936MOL0     C23479  10.551   0.480   3.988 -0.5289 -0.2781 -0.6392
  936MOL0     C23480  10.459   0.517   3.874  0.1873  0.0292 -0.0596
  936MOL0     C23481  10.401   0.383   3.811 -0.5266  0.4396 -0.3237
  936MOL0     C23482  10.340   0.413   3.675 -0.7183  0.5006  0.5112
  936MOL0     C23483  10.254   0.310   3.631 -0.1462  0.0263  0.7051
  936MOL0     C23484  10.170   0.233   3.584 -0.2904  0.0673 -0.4099
  936MOL0     C23485  10.848   0.636   4.124 -0.3906 -0.5240 -0.2024
  936MOL0     C23486  10.956   0.612   4.213 -0.0398 -0.1215  0.1619
  936MOL0     H23487  11.336   0.619   4.484  0.4625  0.9170  4.6137
  936MOL0     H23488  11.521   0.531   4.633  1.2182 -0.9630 -0.0444
  936MOL0     H23489  11.612   0.083   4.547 -0.0831 -1.4426  0.2855
  936MOL0     H23490  11.506   0.097   4.677  0.9073 -2.3407 -0.6110
  936MOL0     H23491  11.724  -0.000   4.772  0.8114 -0.8676 -2.7812
  936MOL0     H23492  11.690   0.168   4.817 -1.5343 -0.2204 -0.1056
  936MOL0     H23493  11.898   0.225   4.655  3.6284 -1.1891 -1.4535
  936MOL0     H23494  11.876   0.062   4.594 -1.6404 -3.4413  2.5654
  936MOL0     H23495  11.928   0.144   4.886 -3.5487 -0.7698 -0.1947
  936MOL0     H23496  11.927  -0.017   4.820 -0.1862  0.7719  2.4815
  936MOL0     H23497  12.169   0.164   4.779 -0.3766  0.0533 -0.9844
  936MOL0     H23498  12.129   0.046   4.655 -1.7850 -1.8820  0.7057
  936MOL0     H23499  12.145  -0.134   4.809  0.2584 -0.4561 -0.6202
  936MOL0     H23500  12.141  -0.040   4.950 -2.8554 -1.8010 -1.7464
  936MOL0     H23501  12.370  -0.033   4.748 -0.6130  1.1666 -0.7658
  936MOL0     H23502  12.368   0.053   4.899 -1.3306 -0.1370  0.0308
  936MOL0     H23503  12.364  -0.165   5.032  2.2850 -2.4511  0.3480
  936MOL0     H23504  12.512  -0.149   4.952 -0.2851 -2.4441  1.5488
  936MOL0     H23505  12.453  -0.260   4.650 -1.6845 -0.4308 -0.3489
  936MOL0     H23506  12.409  -0.652   4.645  1.9638  0.1477  2.4178
  936MOL0     H23507  12.501  -0.535   4.553  0.3664  0.1089 -0.8591
  936MOL0     H23508  12.334  -0.555   4.404 -0.2278 -1.0544  0.3327
  936MOL0     H23509  12.294  -0.405   4.487 -0.7769 -0.4225  0.3287
  936MOL0     H23510  12.186  -0.683   4.548  0.9048  0.8574  1.9551
  936MOL0     H23511  12.109  -0.543   4.618  0.7417  3.1785 -1.3700
  936MOL0     H23512  12.121  -0.472   4.340  0.1930 -0.1477 -0.3502
  936MOL0     H23513  11.988  -0.481   4.451 -1.3937 -2.8212  0.3753
  936MOL0     H23514  11.916  -0.817   4.166 -2.2476 -1.0722 -2.1708
  936MOL0     H23515  11.726  -0.782   4.017  1.3895 -0.9989 -0.8894
  936MOL0     H23516  11.332  -0.413   3.932  1.7554 -0.7616  0.4381
  936MOL0     H23517  11.184  -0.327   3.767  1.0738 -5.1502  0.6922
  936MOL0     H23518  11.053  -0.165   3.593 -0.5812 -2.5636  1.1406
  936MOL0     H23519  11.113  -0.313   3.516 -4.0742  0.4968  1.0242
  936MOL0     H23520  11.011  -0.229   3.345 -0.3921  1.5721 -1.1059
  936MOL0     H23521  11.169  -0.168   3.320  1.1059 -1.4542  0.2005
  936MOL0     H23522  11.098   0.049   3.431  1.1073 -2.4174  0.6461
  936MOL0     H23523  10.936  -0.010   3.434 -0.1666  1.0067 -0.1162
  936MOL0     H23524  10.960   0.130   3.229 -0.0056  0.8063  1.0451
  936MOL0     H23525  11.090   0.031   3.159 -1.2713  2.0388 -2.4380
  936MOL0     H23526  10.851  -0.123   3.244  0.7335 -0.3367 -0.3200
  936MOL0     H23527  10.928  -0.140   3.097 -1.8832 -0.1044 -0.6619
  936MOL0     H23528  10.739   0.074   3.183  0.1707  1.9410 -0.7504
  936MOL0     H23529  10.704  -0.066   3.087  0.3549 -0.3514  1.1019
  936MOL0     H23530  10.872   0.188   2.997 -1.1252  0.1216 -0.6566
  936MOL0     H23531  10.868   0.034   2.902  1.0617  1.0675 -1.6089
  936MOL0     H23532  10.742   0.255   2.855  2.1470 -0.1970  0.4293
  936MOL0     H23533  10.637   0.214   2.988  0.7348  2.1642 -1.2553
  936MOL0     H23534  11.509  -0.159   3.546 -2.5587  1.6300 -0.1711
  936MOL0     H23535  11.671  -0.286   3.696 -0.1505  2.7122 -0.4823
  936MOL0     H23536  11.767  -0.350   4.104 -3.5405 -0.8681 -2.7621
  936MOL0     H23537  11.917  -0.403   4.268  0.6904 -0.9194  0.7043
  936MOL0     H23538  11.445   0.148   4.453 -0.5532  0.3344 -4.4497
  936MOL0     H23539  11.257   0.246   4.324  2.0849 -0.7677 -1.8438
  936MOL0     H23540  10.819   0.359   4.388 -1.9815  0.7617  0.9729
  936MOL0     H23541  10.618   0.430   4.262 -1.4172  1.2604  0.0540
  936MOL0     H23542  10.492   0.436   4.069 -1.8741  4.5490  1.3712
  936MOL0     H23543  10.616   0.402   3.948  1.1704  0.8562 -0.1921
  936MOL0     H23544  10.378   0.584   3.906  1.4294  3.0703 -2.7368
  936MOL0     H23545  10.515   0.570   3.797  0.5500 -2.2261 -1.4433
  936MOL0     H23546  10.330   0.329   3.874  0.0120 -1.3076 -1.1423
  936MOL0     H23547  10.484   0.314   3.790 -0.0280  0.7505  0.5643
  936MOL0     H23548  10.265   0.492   3.681  0.7912  1.9696  0.7313
  936MOL0     H23549  10.421   0.434   3.605  1.0511 -3.3077  1.1529
  936MOL0     H23550  10.099   0.171   3.534 -0.0150 -1.2061  0.7272
  936MOL0     H23551  10.857   0.731   4.073 -0.1125  1.7245  3.5969
  936MOL0     H23552  11.049   0.667   4.217  1.5321 -2.4010 -1.9337
  937MOL0     O23553   9.214   1.424   6.890  0.0347 -0.2497 -0.1302
  937MOL0     C23554   9.225   1.551   6.887 -0.2932 -0.3767 -0.2121
  937MOL0     O23555   9.199   1.624   6.767 -0.0810 -0.6030  1.0957
  937MOL0     C23556   9.115   1.569   6.671 -0.4293  0.0971 -0.2177
  937MOL0     C23557   9.174   1.540   6.546  1.2475 -0.8265 -0.4548
  937MOL0     C23558   9.105   1.486   6.444 -0.0391  0.2897 -0.3297
  937MOL0     C23559   8.969   1.459   6.479 -0.9836 -0.0243 -0.0818
  937MOL0     O23560   8.897   1.387   6.393 -0.1271  0.0125 -0.9622
  937MOL0     C23561   8.836   1.263   6.447  0.0295 -0.5235 -0.1578
  937MOL0     C23562   8.812   1.173   6.327 -0.0085  0.8374  0.0319
  937MOL0     C23563   8.745   1.041   6.385 -0.3490  0.0427  0.4285
  937MOL0     C23564   8.753   0.920   6.290  0.2415 -0.1867  0.2885
  937MOL0     C23565   8.772   0.793   6.370  0.5036 -0.7179 -1.1731
  937MOL0     C23566   8.660   0.778   6.479  0.6963 -0.3878  0.8041
  937MOL0     C23567   8.686   0.661   6.558 -0.6153 -0.4373 -0.6413
  937MOL0     C23568   8.589   0.634   6.672 -0.3369  0.0472 -0.4111
  937MOL0     N23569   8.619   0.507   6.734 -0.2327  0.3631  0.3285
  937MOL0     C23570   8.567   0.475   6.855 -0.5367  0.0147 -0.2020
  937MOL0     C23571   8.634   0.361   6.887 -0.3664  0.3566 -0.4191
  937MOL0     C23572   8.603   0.281   7.004 -0.4852 -0.2343 -0.4694
  937MOL0     C23573   8.728   0.232   7.080  0.5632  0.7390 -0.1266
  937MOL0     C23574   8.772   0.339   7.191 -0.3250  0.2336 -0.9243
  937MOL0     C23575   8.896   0.293   7.261 -0.6810 -0.1768 -0.4864
  937MOL0     O23576   8.876   0.179   7.350  0.0848 -0.0251 -0.1048
  937MOL0     C23577   8.846   0.199   7.474  0.2826  0.1726 -0.0585
  937MOL0     C23578   8.713   0.204   7.530 -0.1824  0.1303  0.4979
  937MOL0     C23579   8.690   0.217   7.671 -0.8981 -0.4827  0.3272
  937MOL0     C23580   8.801   0.245   7.746 -0.2128  0.5845 -0.2825
  937MOL0     C23581   8.787   0.252   7.884 -0.1569 -1.1337  0.1064
  937MOL0     O23582   8.663   0.235   7.936 -0.4319  0.4412 -0.5058
  937MOL0     C23583   8.642   0.238   8.072  0.9476 -0.6429 -0.1428
  937MOL0     C23584   8.681   0.353   8.152  0.4218  0.2102 -0.2939
  937MOL0     C23585   8.620   0.358   8.282  0.2189  0.0169  0.3133
  937MOL0     C23586   8.533   0.250   8.331 -0.1230 -0.1424 -0.1301
  937MOL0     O23587   8.487   0.260   8.460  0.6763  0.9096 -0.2134
  937MOL0     C23588   8.440   0.150   8.548  0.0746  0.0224  0.3576
  937MOL0     C23589   8.552   0.127   8.652 -0.4648 -0.5513 -0.4785
  937MOL0     C23590   8.598   0.250   8.734 -0.0081  0.6831  1.1384
  937MOL0     C23591   8.751   0.229   8.770  0.5659  1.1441  0.1778
  937MOL0     C23592   8.804   0.316   8.879  0.6952  1.4404  0.9852
  937MOL0     C23593   8.765   0.463   8.851 -0.5948  0.6315 -0.1246
  937MOL0     C23594   8.807   0.523   8.716  0.9106 -0.2185 -0.2389
  937MOL0     C23595   8.947   0.511   8.681 -0.1028  0.1902 -0.9741
  937MOL0    Cl23596   8.954   0.580   8.523  0.3058 -0.2767 -0.4874
  937MOL0     C23597   8.495   0.147   8.252  0.9058 -0.1320 -0.1839
  937MOL0     C23598   8.547   0.144   8.124 -0.4583 -0.3168  0.4467
  937MOL0     O23599   8.885   0.263   7.953 -0.2358  0.3608  0.4654
  937MOL0     C23600   8.926   0.239   7.687  0.7614  0.1431 -0.4193
  937MOL0     C23601   8.949   0.215   7.557  0.5326  1.4698 -0.5681
  937MOL0     N23602   8.701   0.319   6.781  0.3198 -0.2407  0.6285
  937MOL0     N23603   8.688   0.394   6.683 -0.4815 -0.1312  0.1761
  937MOL0     C23604   8.912   1.496   6.602 -0.1773 -0.0019  0.0661
  937MOL0     C23605   8.985   1.551   6.699  0.7162 -0.2369  0.4936
  937MOL0     C23606   9.286   1.602   7.006  0.4962 -0.0951  0.3610
  937MOL0     C23607   9.362   1.720   6.998 -0.8237 -0.2330 -0.5591
  937MOL0     C23608   9.437   1.764   7.111  0.4587 -0.5040  0.5398
  937MOL0     C23609   9.425   1.693   7.234 -0.6972 -0.3514  0.5045
  937MOL0     O23610   9.494   1.729   7.343  0.5464 -0.5819  0.0111
  937MOL0     C23611   9.613   1.812   7.332  0.2047  0.0239  0.1592
  937MOL0     C23612   9.682   1.841   7.462  0.2618  0.4162  1.4306
  937MOL0     C23613   9.764   1.709   7.505  0.1084  0.8441 -0.4743
  937MOL0     C23614   9.853   1.727   7.634 -0.6285  0.3632  0.4729
  937MOL0     C23615   9.911   1.599   7.672  0.0178 -0.2736 -0.4249
  937MOL0     C23616   9.939   1.503   7.736  0.9870 -0.0186  0.7142
  937MOL0     C23617   9.358   1.577   7.246  0.4267 -0.3876 -0.0794
  937MOL0     C23618   9.289   1.534   7.130  0.5235  0.0897 -0.7304
  937MOL0     H23619   9.271   1.584   6.523  0.9264 -1.0455 -2.3909
  937MOL0     H23620   9.144   1.465   6.345 -0.9701  0.4729 -0.7491
  937MOL0     H23621   8.739   1.293   6.486  1.0192  0.9673  1.2839
  937MOL0     H23622   8.909   1.224   6.518  1.5725 -0.6142 -1.7089
  937MOL0     H23623   8.906   1.148   6.278 -0.2225 -0.2151  0.1358
  937MOL0     H23624   8.741   1.220   6.259  0.8811  2.2126  0.0152
  937MOL0     H23625   8.647   1.071   6.423 -0.2820 -0.5014  1.0528
  937MOL0     H23626   8.806   1.015   6.472 -3.2133 -0.6090  2.3768
  937MOL0     H23627   8.661   0.900   6.234  0.8145  0.7281 -1.0173
  937MOL0     H23628   8.838   0.928   6.222  1.7539 -1.0234  1.9973
  937MOL0     H23629   8.869   0.794   6.420  0.5679  0.5065 -1.2926
  937MOL0     H23630   8.761   0.700   6.313 -0.4789  0.0339 -2.2567
  937MOL0     H23631   8.562   0.773   6.430  0.0026 -0.3809  2.1586
  937MOL0     H23632   8.660   0.859   6.553  1.1558  0.8400 -0.4855
  937MOL0     H23633   8.694   0.579   6.486  1.0072 -2.4837  1.6900
  937MOL0     H23634   8.782   0.668   6.610 -0.6849  3.2748 -0.7428
  937MOL0     H23635   8.491   0.639   6.623  0.7899 -1.1968 -3.0175
  937MOL0     H23636   8.592   0.714   6.746 -0.2429 -0.4801  0.1559
  937MOL0     H23637   8.494   0.538   6.906 -0.8232 -0.1519 -0.4025
  937MOL0     H23638   8.540   0.200   6.966 -2.4849  1.0344  0.0512
  937MOL0     H23639   8.543   0.346   7.068  0.3957  0.8954 -0.7600
  937MOL0     H23640   8.808   0.216   7.008 -0.7336 -3.1188 -0.9500
  937MOL0     H23641   8.711   0.135   7.129  0.9632  1.2947  1.1741
  937MOL0     H23642   8.791   0.436   7.144  1.1378 -0.2035 -1.2832
  937MOL0     H23643   8.690   0.342   7.263 -1.9799  2.2570 -2.7540
  937MOL0     H23644   8.939   0.383   7.306 -1.4779  1.3107 -2.5553
  937MOL0     H23645   8.976   0.271   7.189  1.3653 -2.2044  2.1831
  937MOL0     H23646   8.633   0.171   7.463  2.1082 -0.5762 -2.0887
  937MOL0     H23647   8.588   0.200   7.702 -1.2022  0.6243 -0.0240
  937MOL0     H23648   8.762   0.422   8.128  3.1978 -3.1972 -1.5884
  937MOL0     H23649   8.647   0.442   8.345 -0.6669  0.3935  0.2085
  937MOL0     H23650   8.420   0.061   8.488  4.7095  1.0409 -3.2986
  937MOL0     H23651   8.344   0.178   8.592  0.2812 -0.7361  1.3004
  937MOL0     H23652   8.640   0.096   8.595  0.9055  2.2651 -0.0760
  937MOL0     H23653   8.529   0.042   8.717  1.1282 -1.0314 -0.4918
  937MOL0     H23654   8.540   0.266   8.825  0.4555  1.1280  1.3641
  937MOL0     H23655   8.589   0.339   8.670  0.1479 -0.6752 -0.8714
  937MOL0     H23656   8.771   0.127   8.806  1.0443  1.6971  1.5370
  937MOL0     H23657   8.817   0.221   8.684  1.9835 -2.4654  1.4163
  937MOL0     H23658   8.911   0.292   8.883  0.2132 -1.4143 -0.9973
  937MOL0     H23659   8.757   0.289   8.974 -1.3771  1.2273 -0.0590
  937MOL0     H23660   8.798   0.517   8.940  2.1162 -1.0727  0.0227
  937MOL0     H23661   8.657   0.475   8.851 -0.6796  0.1101 -1.5204
  937MOL0     H23662   8.742   0.485   8.636  1.2149 -1.5788  0.1255
  937MOL0     H23663   8.790   0.630   8.725  0.2795 -0.1362 -1.9379
  937MOL0     H23664   8.978   0.406   8.677  0.5547  0.3180  0.2608
  937MOL0     H23665   9.019   0.570   8.739 -0.7914  1.9916 -1.8741
  937MOL0     H23666   8.426   0.069   8.283  2.0926 -1.0807  0.1902
  937MOL0     H23667   8.518   0.063   8.057 -3.6452 -0.0976  1.4053
  937MOL0     H23668   9.011   0.245   7.754  0.5101 -2.0491  0.1760
  937MOL0     H23669   9.052   0.208   7.521  0.5790  0.7961 -0.3193
  937MOL0     H23670   8.809   1.465   6.620  0.0083 -0.4574  0.3676
  937MOL0     H23671   8.942   1.578   6.795 -1.2878 -0.3776 -0.3073
  937MOL0     H23672   9.361   1.776   6.905  2.0155  2.4605  0.8493
  937MOL0     H23673   9.494   1.856   7.106 -0.4995  0.1237  1.0622
  937MOL0     H23674   9.574   1.910   7.304 -0.8995 -0.8162 -1.4780
  937MOL0     H23675   9.681   1.774   7.255  1.5358  0.0409  1.3129
  937MOL0     H23676   9.754   1.921   7.439  1.0972 -0.5745  0.4736
  937MOL0     H23677   9.609   1.879   7.534  0.4383 -0.7368  2.2455
  937MOL0     H23678   9.826   1.678   7.420 -1.5075  1.0529 -1.7906
  937MOL0     H23679   9.700   1.621   7.515  2.0779 -0.5888  0.2257
  937MOL0     H23680   9.936   1.789   7.600 -1.9655  0.3219 -3.3599
  937MOL0     H23681   9.799   1.775   7.717  0.9524  1.3378  0.9792
  937MOL0     H23682   9.946   1.422   7.805  0.1423  0.7468  1.7342
  937MOL0     H23683   9.340   1.522   7.337  0.6547  1.5401  1.1914
  937MOL0     H23684   9.222   1.450   7.143  0.3483  0.0873 -1.5905
  938MOL0     O23685   0.047   5.713  10.593  0.4942 -0.1863  0.4900
  938MOL0     C23686  -0.042   5.686  10.675 -0.1541  0.1524 -0.0216
  938MOL0     O23687  -0.032   5.599  10.774 -0.1581 -0.2329  0.2105
  938MOL0     C23688   0.081   5.537  10.810 -0.0449  0.0566  0.0441
  938MOL0     C23689   0.143   5.434  10.733  0.1997  0.3080  0.0120
  938MOL0     C23690   0.260   5.375  10.766 -0.2402  0.0796 -0.4154
  938MOL0     C23691   0.320   5.407  10.887 -0.4140  0.8165  0.0865
  938MOL0     O23692   0.425   5.317  10.923 -0.0812 -0.9170  0.1679
  938MOL0     C23693   0.516   5.372  11.019  0.3304  0.4505 -0.8137
  938MOL0     C23694   0.651   5.286  11.048  0.7386 -0.1657  0.4816
  938MOL0     C23695   0.601   5.162  11.129 -0.0775  0.4176  1.0387
  938MOL0     C23696   0.715   5.072  11.182  0.5537 -0.2585  0.3744
  938MOL0     C23697   0.831   5.138  11.261 -1.2872  0.4568 -0.3769
  938MOL0     C23698   0.908   5.034  11.328  0.2185 -0.6336 -1.2209
  938MOL0     C23699   1.026   5.084  11.408  0.2948 -0.8599  0.4908
  938MOL0     C23700   1.111   4.962  11.460 -1.9573  0.7202 -0.7053
  938MOL0     N23701   1.222   5.007  11.534 -0.2021 -0.5688 -0.2196
  938MOL0     C23702   1.269   5.130  11.564 -0.2540 -0.3647 -0.0887
  938MOL0     C23703   1.352   5.117  11.670 -0.8582  0.3712 -0.2206
  938MOL0     C23704   1.406   5.230  11.752 -0.4035  0.5434  1.1885
  938MOL0     C23705   1.533   5.297  11.696 -0.4670  0.4736  0.0948
  938MOL0     C23706   1.581   5.424  11.775 -0.5501  0.3156 -0.6014
  938MOL0     C23707   1.625   5.396  11.923 -0.5772 -0.7661  0.8287
  938MOL0     O23708   1.758   5.334  11.911 -0.0096  0.2681  0.3364
  938MOL0     C23709   1.839   5.366  12.019  0.2575 -1.4877 -0.9155
  938MOL0     C23710   1.958   5.444  11.998  0.3629 -0.7698 -0.2910
  938MOL0     C23711   2.044   5.474  12.106  1.2463 -0.0824  0.6179
  938MOL0     C23712   2.019   5.418  12.236 -0.0385  0.8863  0.2017
  938MOL0     C23713   2.109   5.437  12.348  0.4948  0.8776  0.1103
  938MOL0     O23714   2.085   5.358  12.452 -0.3468 -0.3567 -0.4440
  938MOL0     C23715   2.126   5.401  12.578  0.8116 -0.7054 -0.9852
  938MOL0     C23716   2.108   5.315  12.684 -0.0576  0.2299 -0.0655
  938MOL0     C23717   2.136   5.352  12.813  0.3376  0.0855  0.7985
  938MOL0     C23718   2.183   5.478  12.844  0.2193  0.2389  0.6822
  938MOL0     O23719   2.193   5.523  12.970 -0.5251  0.0296 -0.1307
  938MOL0     C23720   2.078   5.542  13.049  0.8519  0.6070  0.4879
  938MOL0     C23721   2.102   5.630  13.163 -0.1164 -0.1485 -0.7090
  938MOL0     C23722   1.985   5.653  13.261  0.3545  0.2597  0.0194
  938MOL0     C23723   1.929   5.526  13.328 -0.3919 -0.1032 -0.3846
  938MOL0     C23724   1.817   5.565  13.423 -0.0063 -0.0125  0.9695
  938MOL0     C23725   1.851   5.647  13.549  0.2135 -0.1505 -0.1280
  938MOL0     C23726   1.716   5.689  13.612 -0.1660  0.0816 -0.0736
  938MOL0     C23727   1.737   5.768  13.738 -0.9724  1.0729 -0.7555
  938MOL0    Cl23728   1.769   5.656  13.879  0.4572 -0.2360 -0.1289
  938MOL0     C23729   2.205   5.565  12.741 -0.5450  0.2248  0.1644
  938MOL0     C23730   2.175   5.531  12.609  0.1546  0.5119 -0.5646
  938MOL0     O23731   2.187   5.523  12.334 -0.6245 -0.2054  0.1659
  938MOL0     C23732   1.902   5.337  12.260  0.3924  0.0694  0.0032
  938MOL0     C23733   1.813   5.318  12.152 -0.0596  0.5990  0.6602
  938MOL0     N23734   1.358   4.986  11.709  0.6971 -0.1167  0.5109
  938MOL0     N23735   1.285   4.921  11.624 -0.2399  0.0496 -0.2958
  938MOL0     C23736   0.256   5.502  10.974 -0.5847  1.0036 -0.2458
  938MOL0     C23737   0.136   5.571  10.938 -1.1712 -1.1333  1.7578
  938MOL0     C23738  -0.182   5.719  10.630  0.3585  0.5082  0.2359
  938MOL0     C23739  -0.295   5.676  10.694  0.6671  0.3103 -1.1556
  938MOL0     C23740  -0.419   5.712  10.650  0.5513 -0.5881 -0.4537
  938MOL0     C23741  -0.444   5.785  10.535  0.4762 -0.0648  0.6457
  938MOL0     O23742  -0.576   5.801  10.491 -0.3128  0.4202 -0.7960
  938MOL0     C23743  -0.623   5.923  10.456  0.0483  0.0921  0.5447
  938MOL0     C23744  -0.774   5.924  10.441 -0.9721  0.1681  0.1553
  938MOL0     C23745  -0.826   5.816  10.329 -0.3264 -0.6915  0.0250
  938MOL0     C23746  -0.976   5.826  10.309 -0.7325 -0.2427 -1.4850
  938MOL0     C23747  -1.048   5.779  10.429 -0.1301 -0.1305  0.0343
  938MOL0     C23748  -1.087   5.730  10.537 -0.3688 -0.1719  0.3561
  938MOL0     C23749  -0.335   5.838  10.475  0.1090  0.4558  0.2972
  938MOL0     C23750  -0.202   5.804  10.523  0.3265 -0.1549 -0.4677
  938MOL0     H23751   0.098   5.410  10.637  1.6061 -0.2765 -0.5161
  938MOL0     H23752   0.307   5.297  10.707 -2.6226 -0.0754 -2.2646
  938MOL0     H23753   0.460   5.389  11.111 -3.7806  2.9478 -3.4404
  938MOL0     H23754   0.537   5.474  10.988  1.3576  0.0725 -1.4060
  938MOL0     H23755   0.719   5.349  11.106 -0.2767 -2.2145  4.1761
  938MOL0     H23756   0.685   5.245  10.952 -2.9722 -1.7969 -0.3196
  938MOL0     H23757   0.549   5.111  11.047  2.5449  1.0506 -1.1957
  938MOL0     H23758   0.541   5.184  11.217 -0.3377 -0.2807  1.0366
  938MOL0     H23759   0.674   4.993  11.246  0.2408 -0.7718 -0.4448
  938MOL0     H23760   0.755   5.029  11.090 -1.6849 -1.8296  0.0413
  938MOL0     H23761   0.796   5.215  11.330 -1.2934  0.5054 -0.4339
  938MOL0     H23762   0.897   5.196  11.196  0.8268 -0.1926  1.1073
  938MOL0     H23763   0.947   4.968  11.249  0.3260 -1.0002 -0.8678
  938MOL0     H23764   0.851   4.979  11.403  1.1576 -0.2006 -0.1540
  938MOL0     H23765   1.086   5.137  11.334 -0.0966 -0.4946  0.4312
  938MOL0     H23766   0.997   5.153  11.488  0.8011  1.0707 -0.9160
  938MOL0     H23767   1.148   4.906  11.374  1.2979  2.6886 -0.7606
  938MOL0     H23768   1.060   4.886  11.521  0.1571  1.8850  2.8076
  938MOL0     H23769   1.246   5.225  11.517  0.3108 -0.3479 -0.3461
  938MOL0     H23770   1.413   5.191  11.854 -3.9485 -2.0539  0.6274
  938MOL0     H23771   1.322   5.299  11.746  0.1451  1.1206 -0.2502
  938MOL0     H23772   1.522   5.316  11.588  2.2795  0.6357 -0.2440
  938MOL0     H23773   1.612   5.222  11.704  1.2372  2.1661 -0.0365
  938MOL0     H23774   1.666   5.472  11.726  0.6371 -2.3503 -1.3240
  938MOL0     H23775   1.504   5.501  11.784  0.6929  1.3200  3.8753
  938MOL0     H23776   1.550   5.346  11.984 -0.5759  0.4611  1.8809
  938MOL0     H23777   1.625   5.494  11.972 -0.8222  0.6257 -1.7706
  938MOL0     H23778   1.979   5.486  11.900 -1.0002  0.3638 -0.1368
  938MOL0     H23779   2.133   5.530  12.079  1.7924 -2.1717 -2.4685
  938MOL0     H23780   2.041   5.230  12.685  0.0130  0.0990  3.0687
  938MOL0     H23781   2.126   5.280  12.894  2.4098 -0.5663  0.5352
  938MOL0     H23782   2.053   5.439  13.077  0.0703  0.0598 -1.9802
  938MOL0     H23783   1.995   5.581  12.990  2.1293  1.8692 -0.5484
  938MOL0     H23784   2.158   5.717  13.126 -1.9496 -0.2952 -4.1902
  938MOL0     H23785   2.173   5.564  13.214 -0.9649 -1.3015 -0.9761
  938MOL0     H23786   1.904   5.703  13.208  2.4722 -0.1422 -4.0193
  938MOL0     H23787   2.027   5.718  13.339 -1.1768 -0.7992  1.8275
  938MOL0     H23788   1.890   5.460  13.250  0.5768  1.1937 -2.0287
  938MOL0     H23789   2.010   5.473  13.378 -0.5637  0.6633  0.7454
  938MOL0     H23790   1.752   5.481  13.448 -1.7803  0.1445 -2.4524
  938MOL0     H23791   1.760   5.635  13.360 -1.6194 -1.0336  1.2396
  938MOL0     H23792   1.920   5.731  13.540  0.6110  0.4019  4.8268
  938MOL0     H23793   1.902   5.578  13.617  0.6358 -1.2588 -1.5400
  938MOL0     H23794   1.655   5.747  13.541 -0.9275 -0.6614 -0.0410
  938MOL0     H23795   1.650   5.602  13.624 -1.3530  0.2088 -3.9848
  938MOL0     H23796   1.640   5.817  13.746 -1.5110 -0.0170 -0.4102
  938MOL0     H23797   1.813   5.847  13.727 -1.4172  1.3358 -2.2243
  938MOL0     H23798   2.233   5.668  12.763  1.5047  0.2749 -2.1926
  938MOL0     H23799   2.204   5.611  12.542 -0.5016  1.2555  0.0198
  938MOL0     H23800   1.875   5.283  12.350  1.8258 -2.8925 -1.1845
  938MOL0     H23801   1.720   5.263  12.154 -0.1313  0.5321 -1.6458
  938MOL0     H23802   0.304   5.530  11.068  2.0004  1.7892 -1.7063
  938MOL0     H23803   0.087   5.648  10.998 -2.4569 -1.8942  1.7233
  938MOL0     H23804  -0.303   5.624  10.789 -1.0952 -1.3412 -2.1452
  938MOL0     H23805  -0.506   5.673  10.701  1.4115  1.0891  2.5066
  938MOL0     H23806  -0.577   5.967  10.366 -0.1783  2.5034  1.5243
  938MOL0     H23807  -0.593   5.993  10.535  3.3378 -4.1020  3.4813
  938MOL0     H23808  -0.829   5.903  10.533 -1.6539  2.1507  0.2399
  938MOL0     H23809  -0.810   6.023  10.411  0.8231 -0.1066 -3.3855
  938MOL0     H23810  -0.808   5.711  10.353 -0.2886 -0.9819 -1.2530
  938MOL0     H23811  -0.786   5.833  10.229 -3.3241 -0.9614 -1.3139
  938MOL0     H23812  -1.009   5.925  10.276  1.3742  0.3748 -1.8488
  938MOL0     H23813  -1.005   5.748  10.238 -0.7212 -0.2179 -1.5161
  938MOL0     H23814  -1.139   5.704  10.627 -1.6250 -0.5731 -0.4496
  938MOL0     H23815  -0.345   5.900  10.386 -0.3203  0.6137  0.4566
  938MOL0     H23816  -0.123   5.837  10.456  0.5618  0.0032 -0.1122
  939MOL0     O23817   0.656   3.778   8.215  0.5031  0.5035  1.0638
  939MOL0     C23818   0.760   3.744   8.160 -0.3345  0.4438 -1.2838
  939MOL0     O23819   0.777   3.711   8.029  0.7744  0.2535  0.5409
  939MOL0     C23820   0.668   3.718   7.940  0.2800  0.5845 -0.0192
  939MOL0     C23821   0.621   3.610   7.875 -0.8046  0.6739 -1.0729
  939MOL0     C23822   0.526   3.628   7.776  0.6941  0.2059 -0.0625
  939MOL0     C23823   0.472   3.744   7.734 -0.3489 -0.5526 -0.1122
  939MOL0     O23824   0.368   3.750   7.652  1.0921 -0.4824 -0.5703
  939MOL0     C23825   0.324   3.632   7.581  0.8642  0.4135 -0.2868
  939MOL0     C23826   0.236   3.679   7.462 -0.4600  0.9748  0.7158
  939MOL0     C23827   0.169   3.561   7.398 -0.0048 -0.1532 -0.4741
  939MOL0     C23828   0.080   3.603   7.281 -0.3189 -0.2656  0.1143
  939MOL0     C23829   0.067   3.478   7.191 -0.0603 -0.1213 -0.4022
  939MOL0     C23830  -0.022   3.499   7.072 -0.0549  0.3723 -0.3735
  939MOL0     C23831  -0.030   3.392   6.968 -0.3432  0.6653 -0.0841
  939MOL0     C23832  -0.069   3.447   6.832 -0.0865  0.0994  0.0373
  939MOL0     N23833  -0.205   3.507   6.836 -0.1423  0.3182  0.3893
  939MOL0     C23834  -0.247   3.608   6.747  1.1980  0.3122 -1.2994
  939MOL0     C23835  -0.378   3.600   6.768  0.1305 -0.4363 -0.7328
  939MOL0     C23836  -0.487   3.675   6.685  0.1592  0.4473  0.4622
  939MOL0     C23837  -0.469   3.651   6.536  0.2734 -0.1252  0.1105
  939MOL0     C23838  -0.464   3.500   6.488 -0.6479 -0.8169  1.0869
  939MOL0     C23839  -0.596   3.428   6.491 -0.2321 -0.0627 -0.3695
  939MOL0     O23840  -0.673   3.446   6.375  0.0134  0.0028 -0.0308
  939MOL0     C23841  -0.718   3.335   6.307  0.0092  0.0711 -0.6859
  939MOL0     C23842  -0.856   3.297   6.318 -0.5732  0.8819  0.9874
  939MOL0     C23843  -0.900   3.171   6.276  0.5979 -0.1118  0.7264
  939MOL0     C23844  -0.822   3.075   6.218 -0.8361 -0.3000  0.5195
  939MOL0     C23845  -0.875   2.939   6.193  1.8365 -0.0611  0.3688
  939MOL0     O23846  -0.825   2.862   6.087 -0.4484  1.1889  0.1571
  939MOL0     C23847  -0.885   2.741   6.053  0.2091  0.9490 -0.6690
  939MOL0     C23848  -1.026   2.725   6.042 -0.2023 -0.5320  0.1345
  939MOL0     C23849  -1.080   2.603   6.007 -0.3042 -0.8763  1.1788
  939MOL0     C23850  -0.996   2.481   6.020 -0.9224 -1.0760 -0.2174
  939MOL0     O23851  -1.053   2.361   6.008  0.4922  0.0936 -0.3371
  939MOL0     C23852  -1.001   2.276   5.915 -0.4952  0.4035  0.5895
  939MOL0     C23853  -1.078   2.150   5.908 -0.1912 -0.9311 -0.7535
  939MOL0     C23854  -1.207   2.188   5.824  0.3573 -0.2465 -0.2075
  939MOL0     C23855  -1.259   2.049   5.777 -0.0044  0.1496  0.2438
  939MOL0     C23856  -1.376   2.069   5.681 -0.2179  0.5188 -0.7054
  939MOL0     C23857  -1.406   1.947   5.599  0.2527  0.4737 -0.1275
  939MOL0     C23858  -1.510   1.960   5.487  0.4937 -0.3323 -0.2377
  939MOL0     C23859  -1.630   1.894   5.548 -0.2828  0.2851  0.0472
  939MOL0    Cl23860  -1.771   1.895   5.437  0.3297  0.0172  0.2061
  939MOL0     C23861  -0.857   2.509   6.037  0.6641  0.5224 -0.6380
  939MOL0     C23862  -0.802   2.634   6.043 -0.0250 -0.0360 -0.0136
  939MOL0     O23863  -0.968   2.906   6.267  0.6620  0.4117  0.3175
  939MOL0     C23864  -0.682   3.113   6.208  0.4190  0.7822 -1.2815
  939MOL0     C23865  -0.630   3.237   6.255  0.1575 -0.0751  0.6105
  939MOL0     N23866  -0.414   3.517   6.865 -0.1651  0.8840  0.6922
  939MOL0     N23867  -0.309   3.460   6.911 -1.1741  0.4627 -1.0973
  939MOL0     C23868   0.522   3.862   7.796  0.4875  0.8926  0.7498
  939MOL0     C23869   0.610   3.838   7.901 -0.4073 -0.4510  0.0482
  939MOL0     C23870   0.872   3.727   8.252 -0.2770  0.0254  0.6099
  939MOL0     C23871   0.977   3.655   8.201  0.9216 -0.0187  0.0963
  939MOL0     C23872   1.089   3.641   8.282 -0.4712  0.6084  0.6056
  939MOL0     C23873   1.100   3.698   8.402 -0.3037  0.4844 -1.4137
  939MOL0     O23874   1.218   3.663   8.480  0.4175 -0.7189  0.2898
  939MOL0     C23875   1.283   3.777   8.537  0.1243  0.1943 -0.0868
  939MOL0     C23876   1.280   3.777   8.687 -0.1679  0.1689  0.8044
  939MOL0     C23877   1.362   3.888   8.747  0.1961 -0.0501 -0.9938
  939MOL0     C23878   1.349   3.888   8.905  0.4810  0.0937  1.3974
  939MOL0     C23879   1.354   3.757   8.975  0.4128  0.8245  0.3630
  939MOL0     C23880   1.353   3.653   9.040  0.5767  0.5674 -0.6979
  939MOL0     C23881   0.998   3.773   8.458 -0.6481  0.0904 -0.8070
  939MOL0     C23882   0.883   3.791   8.382 -0.1221  0.3057  0.6271
  939MOL0     H23883   0.660   3.513   7.904  2.0051  1.5663 -1.5746
  939MOL0     H23884   0.498   3.531   7.734  2.0554 -0.3862  0.3254
  939MOL0     H23885   0.261   3.575   7.650 -1.0973  1.2371 -1.3079
  939MOL0     H23886   0.412   3.580   7.541  0.6672 -0.5096  0.4476
  939MOL0     H23887   0.299   3.728   7.387 -1.3214  0.8858 -0.0868
  939MOL0     H23888   0.168   3.761   7.488  0.6293  2.5951 -1.2339
  939MOL0     H23889   0.104   3.503   7.464 -2.6340 -0.8579 -3.4514
  939MOL0     H23890   0.251   3.495   7.368  0.2286 -0.5440  0.9514
  939MOL0     H23891  -0.015   3.653   7.305 -0.6955  0.4264 -2.4983
  939MOL0     H23892   0.124   3.679   7.216 -1.7438 -0.8242 -1.6177
  939MOL0     H23893   0.029   3.392   7.246 -0.9918  0.2005 -0.5159
  939MOL0     H23894   0.161   3.437   7.153 -0.2269  0.1099 -1.0872
  939MOL0     H23895  -0.007   3.593   7.018 -5.8201  1.5952 -0.4663
  939MOL0     H23896  -0.118   3.512   7.122  0.3273 -0.4503  0.5971
  939MOL0     H23897   0.064   3.336   6.969 -0.5883  0.2186 -0.9893
  939MOL0     H23898  -0.095   3.308   6.996  0.3206 -1.2030 -3.5600
  939MOL0     H23899  -0.059   3.366   6.759  0.6913  0.3505 -0.1439
  939MOL0     H23900  -0.005   3.530   6.800  0.7367  0.5985  2.7462
  939MOL0     H23901  -0.198   3.674   6.677  2.0183  1.7394  0.5419
  939MOL0     H23902  -0.486   3.781   6.710  0.0476  0.8964 -1.2823
  939MOL0     H23903  -0.582   3.629   6.714  0.3041 -0.4016 -0.3340
  939MOL0     H23904  -0.379   3.701   6.498  1.7984 -1.5911  1.6325
  939MOL0     H23905  -0.554   3.703   6.492  0.2091  1.2368  1.7543
  939MOL0     H23906  -0.436   3.519   6.383 -0.2013  0.1054  1.3546
  939MOL0     H23907  -0.381   3.440   6.526 -0.5840 -1.3925  0.0663
  939MOL0     H23908  -0.661   3.473   6.567  1.4920  0.5477  0.8054
  939MOL0     H23909  -0.581   3.322   6.513 -0.9615 -0.2337 -0.6704
  939MOL0     H23910  -0.930   3.359   6.368 -0.6810  0.7908  0.9421
  939MOL0     H23911  -1.006   3.152   6.292  0.7047  0.0614  1.7215
  939MOL0     H23912  -1.089   2.812   6.053  0.1094 -0.4544  1.4723
  939MOL0     H23913  -1.184   2.588   5.979 -0.3746  0.3567  0.7132
  939MOL0     H23914  -0.898   2.245   5.937 -1.2123 -1.6963  1.1224
  939MOL0     H23915  -0.994   2.334   5.822  0.9257  0.2502  0.5744
  939MOL0     H23916  -1.096   2.121   6.012  1.4460  1.4350  0.2856
  939MOL0     H23917  -1.026   2.061   5.871 -0.6699 -1.4071 -0.3051
  939MOL0     H23918  -1.196   2.263   5.744  0.0866  1.3739  1.2168
  939MOL0     H23919  -1.277   2.228   5.898 -0.6452 -1.7442 -0.3133
  939MOL0     H23920  -1.171   2.006   5.727  0.8882  1.0354  0.9970
  939MOL0     H23921  -1.288   1.990   5.864 -0.7464 -0.9386 -0.7164
  939MOL0     H23922  -1.362   2.154   5.613  2.1432 -0.0585 -1.0344
  939MOL0     H23923  -1.458   2.085   5.752  1.1992 -0.3646  1.1879
  939MOL0     H23924  -1.438   1.877   5.677  0.0613  0.0358 -0.5936
  939MOL0     H23925  -1.322   1.900   5.548  0.5682 -1.0813  1.7103
  939MOL0     H23926  -1.541   2.064   5.468 -2.0390 -1.2930 -1.8291
  939MOL0     H23927  -1.482   1.912   5.393  1.7177  0.9636 -0.5714
  939MOL0     H23928  -1.647   1.944   5.644  0.1004 -1.7656  1.2354
  939MOL0     H23929  -1.597   1.790   5.561 -1.7588 -0.0029  2.1047
  939MOL0     H23930  -0.791   2.422   6.044 -0.8466 -0.6280 -0.1365
  939MOL0     H23931  -0.694   2.644   6.043  0.0048 -0.3329 -0.5242
  939MOL0     H23932  -0.605   3.048   6.169  0.5632 -1.9053  2.8323
  939MOL0     H23933  -0.525   3.263   6.259  0.0475  0.5792 -0.4718
  939MOL0     H23934   0.487   3.962   7.772 -3.1581 -0.4032  0.0034
  939MOL0     H23935   0.643   3.921   7.962 -3.4623  2.0749 -1.4697
  939MOL0     H23936   0.958   3.608   8.105 -1.2591  0.9709 -0.0102
  939MOL0     H23937   1.175   3.586   8.247  0.4091  1.0360  2.0195
  939MOL0     H23938   1.245   3.875   8.509 -1.4439 -0.5086 -0.5009
  939MOL0     H23939   1.387   3.770   8.502 -0.4174  2.4873 -2.3870
  939MOL0     H23940   1.174   3.787   8.715 -1.3033  0.5457 -3.0033
  939MOL0     H23941   1.317   3.677   8.712 -0.4064 -0.1341 -0.0190
  939MOL0     H23942   1.333   3.983   8.702  0.4601 -0.7730 -2.7804
  939MOL0     H23943   1.468   3.877   8.722  1.7142 -1.2509  4.5741
  939MOL0     H23944   1.420   3.967   8.931 -1.2525  2.3288 -0.2658
  939MOL0     H23945   1.253   3.937   8.926  0.7235  1.4428 -0.4331
  939MOL0     H23946   1.372   3.558   9.086  0.1762 -1.0156 -3.6069
  939MOL0     H23947   1.015   3.823   8.552  3.7351  2.6969 -2.7018
  939MOL0     H23948   0.800   3.851   8.417 -0.5675  0.0816 -0.0282
  940MOL0     O23949  11.130  10.133   9.424 -0.8788  0.4525 -0.0188
  940MOL0     C23950  11.110  10.010   9.425 -0.8683  0.7951  0.6198
  940MOL0     O23951  11.199   9.912   9.470 -0.0724  0.2387  0.2970
  940MOL0     C23952  11.300   9.958   9.541  0.0178  0.1564  0.8965
  940MOL0     C23953  11.415   9.998   9.471  0.3617 -0.2265 -0.7453
  940MOL0     C23954  11.527  10.022   9.556 -0.5868  0.3554  0.7040
  940MOL0     C23955  11.525   9.980   9.690 -0.1619 -0.0292 -0.2482
  940MOL0     O23956  11.638   9.977   9.765 -0.3822  0.1895 -1.0277
  940MOL0     C23957  11.679   9.837   9.771  0.0830  0.1158  0.7506
  940MOL0     C23958  11.776   9.811   9.876 -0.4514 -0.6095 -0.2053
  940MOL0     C23959  11.777   9.656   9.908  0.8664  0.7012  0.0726
  940MOL0     C23960  11.844   9.559   9.812  0.2569 -0.7128 -0.5405
  940MOL0     C23961  11.812   9.412   9.843 -0.5265  0.6068 -0.2346
  940MOL0     C23962  11.865   9.373   9.987 -0.2376 -0.5291 -0.1731
  940MOL0     C23963  12.021   9.403  10.005  0.4049  0.0113 -0.5098
  940MOL0     C23964  12.068   9.322  10.123 -0.0639 -0.1891  0.5680
  940MOL0     N23965  12.066   9.177  10.102  0.9033  1.1509 -0.8090
  940MOL0     C23966  11.990   9.089  10.182  0.5408 -0.6487  0.6668
  940MOL0     C23967  11.997   8.971  10.113  0.3362 -0.3503 -0.3835
  940MOL0     C23968  11.925   8.844  10.149  0.2083 -0.0476 -0.6068
  940MOL0     C23969  11.862   8.827  10.295 -0.3529 -0.8826  0.2392
  940MOL0     C23970  11.963   8.823  10.410  0.6924 -0.4409 -1.8634
  940MOL0     C23971  11.915   8.852  10.555  0.3309  1.1604 -0.3073
  940MOL0     O23972  11.854   8.981  10.561  0.7490  0.1587 -0.3783
  940MOL0     C23973  11.935   9.094  10.556  1.2754 -0.3178  0.2046
  940MOL0     C23974  11.868   9.216  10.543  0.2698  0.1974  0.2425
  940MOL0     C23975  11.942   9.330  10.521  1.1161  0.1075  1.1982
  940MOL0     C23976  12.079   9.327  10.512  0.4756 -0.4454 -1.0705
  940MOL0     C23977  12.164   9.443  10.467 -1.6741 -0.6594 -0.1130
  940MOL0     O23978  12.290   9.411  10.436 -0.1696  0.6878  0.2505
  940MOL0     C23979  12.385   9.516  10.420 -0.0733  0.5611  0.2661
  940MOL0     C23980  12.452   9.573  10.538  0.2295  0.0848  0.1149
  940MOL0     C23981  12.554   9.664  10.524 -0.0140  0.2441 -0.1968
  940MOL0     C23982  12.600   9.702  10.397  0.1615 -0.9771 -0.0432
  940MOL0     O23983  12.713   9.785  10.396  0.2338  0.8280  0.1892
  940MOL0     C23984  12.769   9.826  10.273  0.2045  0.1381 -0.9891
  940MOL0     C23985  12.853   9.706  10.219 -0.1608 -0.0121  0.0410
  940MOL0     C23986  12.983   9.700  10.291  0.0432  0.5400 -0.3365
  940MOL0     C23987  13.075   9.607  10.207 -0.1113  0.4095  0.7396
  940MOL0     C23988  13.221   9.624  10.246 -0.3155 -0.4142 -0.0704
  940MOL0     C23989  13.319   9.533  10.166 -0.6342  0.0400 -0.5166
  940MOL0     C23990  13.447   9.521  10.256  0.0108 -0.1445 -0.4136
  940MOL0     C23991  13.571   9.478  10.181  0.0546  0.2844  0.3234
  940MOL0    Cl23992  13.629   9.606  10.085 -0.3361  0.0151  0.1675
  940MOL0     C23993  12.534   9.650  10.281  0.6820 -0.7326  0.9788
  940MOL0     C23994  12.435   9.555  10.293 -0.2793  0.1745  0.2102
  940MOL0     O23995  12.119   9.560  10.449  0.1874  0.1551 -0.6442
  940MOL0     C23996  12.153   9.209  10.547 -0.5987 -0.0626  0.9181
  940MOL0     C23997  12.073   9.098  10.553  0.0199 -0.4435 -0.1861
  940MOL0     N23998  12.065   8.994   9.999 -0.3967  0.0912  0.3503
  940MOL0     N23999  12.105   9.107   9.996 -0.3298  0.2748 -0.7978
  940MOL0     C24000  11.408   9.938   9.749  0.2812 -0.0432 -0.7211
  940MOL0     C24001  11.295   9.930   9.680 -1.1191 -0.0337 -0.2788
  940MOL0     C24002  10.979   9.959   9.367 -0.4288 -0.2782  0.5379
  940MOL0     C24003  10.871  10.044   9.339  0.0317  0.0529 -0.9121
  940MOL0     C24004  10.750   9.994   9.277  0.1676  0.8151  0.1605
  940MOL0     C24005  10.735   9.855   9.260 -0.2172  0.6740  0.7751
  940MOL0     O24006  10.620   9.803   9.201 -0.0226  0.3659  0.1947
  940MOL0     C24007  10.503   9.831   9.278  0.2362  0.1996  0.1805
  940MOL0     C24008  10.440   9.713   9.329 -0.0273 -0.5608 -0.1897
  940MOL0     C24009  10.532   9.644   9.437 -0.0203 -0.2626  0.4039
  940MOL0     C24010  10.477   9.512   9.494 -0.0113 -0.1977 -0.8296
  940MOL0     C24011  10.458   9.401   9.392  0.7980 -0.3238 -0.2577
  940MOL0     C24012  10.447   9.314   9.309  0.0967  0.0608 -0.5262
  940MOL0     C24013  10.830   9.769   9.299 -0.0407  0.1084 -0.2138
  940MOL0     C24014  10.953   9.822   9.352  0.3865  0.0949 -0.3508
  940MOL0     H24015  11.396  10.013   9.365 -3.7378 -1.5518 -0.3872
  940MOL0     H24016  11.627  10.027   9.515 -0.3380 -2.2679  0.8398
  940MOL0     H24017  11.710   9.812   9.669 -1.1210 -0.6660  0.5650
  940MOL0     H24018  11.587   9.783   9.794 -0.4133  0.0435 -1.2076
  940MOL0     H24019  11.754   9.877   9.960 -1.0974  0.2437 -1.0275
  940MOL0     H24020  11.875   9.841   9.841  0.8747 -0.3327  3.3598
  940MOL0     H24021  11.674   9.629   9.934  1.1294  1.5464  2.1964
  940MOL0     H24022  11.817   9.657  10.010 -1.6817  0.6079  1.1456
  940MOL0     H24023  11.821   9.591   9.710 -0.3140 -1.5245 -0.6819
  940MOL0     H24024  11.951   9.574   9.828  0.0750 -1.5193  1.8514
  940MOL0     H24025  11.873   9.362   9.767 -0.5101  2.8221 -1.7611
  940MOL0     H24026  11.705   9.392   9.834 -0.2735  0.3120 -4.8285
  940MOL0     H24027  11.837   9.269  10.003 -1.5798 -0.0495  0.7506
  940MOL0     H24028  11.810   9.432  10.061 -1.1759  1.1977 -2.1536
  940MOL0     H24029  12.084   9.390   9.916  2.3329  2.3349  0.3890
  940MOL0     H24030  12.025   9.510  10.029 -2.0511  0.4265 -1.6383
  940MOL0     H24031  12.015   9.357  10.212  1.2638  2.4084  0.4446
  940MOL0     H24032  12.175   9.348  10.124 -0.1172  0.1857 -0.9501
  940MOL0     H24033  11.943   9.114  10.277  1.3934 -0.4594  1.0491
  940MOL0     H24034  12.005   8.769  10.146  0.2298 -0.0369 -0.3250
  940MOL0     H24035  11.840   8.826  10.081  0.9033 -2.1425 -1.0094
  940MOL0     H24036  11.793   8.742  10.296  0.9017 -1.9490 -0.8096
  940MOL0     H24037  11.807   8.921  10.306  3.1095  1.1986  1.2416
  940MOL0     H24038  11.993   8.718  10.415  0.6146 -0.4763 -2.1520
  940MOL0     H24039  12.043   8.895  10.388 -0.3574  1.3164 -0.2949
  940MOL0     H24040  11.996   8.826  10.624  0.9467  1.7045 -0.8052
  940MOL0     H24041  11.830   8.789  10.583 -0.6213  2.5606  0.0664
  940MOL0     H24042  11.761   9.234  10.532  0.2646  1.2031  1.7387
  940MOL0     H24043  11.892   9.424  10.497  1.4502  0.7471  2.8920
  940MOL0     H24044  12.429   9.545  10.640 -0.5664  2.2521  0.5886
  940MOL0     H24045  12.605   9.724  10.598  0.2780 -1.8687  1.4036
  940MOL0     H24046  12.831   9.911  10.302  1.6833 -0.7295 -1.4836
  940MOL0     H24047  12.696   9.860  10.198  1.1135 -1.5958 -2.7621
  940MOL0     H24048  12.871   9.727  10.113 -1.6504  0.2770 -0.1741
  940MOL0     H24049  12.808   9.607  10.225  0.4671 -0.4111 -1.3969
  940MOL0     H24050  12.970   9.662  10.393 -0.9444  1.7303  0.0095
  940MOL0     H24051  13.033   9.797  10.296  0.1510  0.5001 -0.6420
  940MOL0     H24052  13.048   9.501  10.217  2.4494 -0.3789  0.1398
  940MOL0     H24053  13.066   9.629  10.101  0.6864  0.2988  0.6412
  940MOL0     H24054  13.246   9.592  10.348  1.1758  0.6541 -0.0706
  940MOL0     H24055  13.243   9.730  10.231 -1.8790 -0.1592 -0.7961
  940MOL0     H24056  13.340   9.571  10.066 -1.8107  1.3108 -0.3153
  940MOL0     H24057  13.272   9.437  10.146  0.9356 -0.9892  0.4866
  940MOL0     H24058  13.462   9.616  10.308 -2.9405 -1.0720  2.4696
  940MOL0     H24059  13.429   9.443  10.331 -0.4991 -1.2052 -1.5998
  940MOL0     H24060  13.548   9.388  10.123  3.5833 -2.8403  3.2988
  940MOL0     H24061  13.651   9.456  10.252  0.4280  0.0176 -0.1723
  940MOL0     H24062  12.561   9.681  10.180  0.9782 -0.0105  1.2721
  940MOL0     H24063  12.385   9.515  10.206 -0.3657  2.0254 -0.6352
  940MOL0     H24064  12.261   9.202  10.541 -0.3776 -0.0106  3.8040
  940MOL0     H24065  12.139   9.013  10.563 -0.3874 -0.9614 -1.5389
  940MOL0     H24066  11.386   9.929   9.855 -2.1211 -1.9869 -1.3149
  940MOL0     H24067  11.202   9.901   9.728 -0.9025  0.7350  0.6382
  940MOL0     H24068  10.875  10.153   9.347  0.1115 -0.0009 -0.0963
  940MOL0     H24069  10.663  10.055   9.255 -2.4885 -2.2959  1.0926
  940MOL0     H24070  10.428   9.878   9.213  1.1147  0.9386 -0.3201
  940MOL0     H24071  10.528   9.904   9.356 -0.9751 -0.0536  0.8341
  940MOL0     H24072  10.348   9.742   9.382  0.7489 -0.0093  0.8932
  940MOL0     H24073  10.423   9.656   9.237  0.1995  5.2445 -4.3335
  940MOL0     H24074  10.542   9.717   9.518 -1.4538 -1.5169  1.7723
  940MOL0     H24075  10.632   9.637   9.395 -0.3017  1.0077 -0.5735
  940MOL0     H24076  10.540   9.471   9.574 -1.6215 -3.4107 -1.0822
  940MOL0     H24077  10.387   9.542   9.548 -0.5016 -2.7793 -0.1015
  940MOL0     H24078  10.441   9.236   9.236 -2.3861 -0.2051 -0.1144
  940MOL0     H24079  10.822   9.662   9.283 -1.7212 -0.1874  2.1064
  940MOL0     H24080  11.024   9.741   9.363 -1.8238 -2.2515 -1.8489
  941MOL0     O24081   5.352   9.499   2.695 -0.2154  0.3599 -0.0199
  941MOL0     C24082   5.335   9.373   2.694  0.3470  0.3752  0.2455
  941MOL0     O24083   5.383   9.291   2.788  0.5012  0.5621 -0.2550
  941MOL0     C24084   5.465   9.329   2.887  0.0822  0.0056  0.1129
  941MOL0     C24085   5.411   9.389   3.004 -0.0831 -0.3880 -0.4633
  941MOL0     C24086   5.490   9.454   3.103  0.0371 -0.1181 -0.1714
  941MOL0     C24087   5.630   9.456   3.082 -0.3391  0.0307 -0.6910
  941MOL0     O24088   5.708   9.536   3.167  0.1579  0.2130 -0.3309
  941MOL0     C24089   5.783   9.637   3.094 -0.1519  0.5614 -0.2830
  941MOL0     C24090   5.907   9.670   3.174  0.2677 -0.1606  0.5008
  941MOL0     C24091   5.881   9.758   3.291  0.4921  0.3532  1.2104
  941MOL0     C24092   6.028   9.780   3.359  1.0607 -0.6728 -0.9098
  941MOL0     C24093   6.069   9.917   3.324  0.1028  0.4288  0.7597
  941MOL0     C24094   6.150   9.990   3.433 -0.0315 -0.4718 -0.5503
  941MOL0     C24095   6.298   9.925   3.426  0.6129  0.1667 -0.5149
  941MOL0     C24096   6.393   9.981   3.528 -0.3692 -0.3721  0.1401
  941MOL0     N24097   6.425  10.117   3.489  0.4951 -0.6224 -0.1043
  941MOL0     C24098   6.419  10.227   3.573  0.3678  0.0588  0.0016
  941MOL0     C24099   6.511  10.317   3.518  0.8648 -0.0770 -0.2497
  941MOL0     C24100   6.544  10.459   3.566 -0.4197  0.1398 -0.6833
  941MOL0     C24101   6.632  10.537   3.462  0.1059  0.6662 -0.9903
  941MOL0     C24102   6.655  10.691   3.499  0.3534  0.1308 -0.3456
  941MOL0     C24103   6.774  10.738   3.416  0.4109 -0.7159  0.7364
  941MOL0     O24104   6.714  10.831   3.319  0.1214 -0.1698  0.5686
  941MOL0     C24105   6.694  10.962   3.359 -0.7121 -0.9987  0.4978
  941MOL0     C24106   6.729  11.015   3.485 -0.0748  0.3819 -0.4544
  941MOL0     C24107   6.714  11.150   3.515 -0.9907 -0.6133  0.2185
  941MOL0     C24108   6.663  11.236   3.412  0.0270 -0.3614 -0.7454
  941MOL0     C24109   6.641  11.382   3.437 -1.1956 -0.7674 -0.0618
  941MOL0     O24110   6.737  11.434   3.511  0.1074 -0.9316  0.7463
  941MOL0     C24111   6.777  11.567   3.498 -0.1670 -0.0639  0.9257
  941MOL0     C24112   6.691  11.677   3.519  0.3374  0.0601 -0.5357
  941MOL0     C24113   6.722  11.811   3.508  0.5843  0.2990 -0.2449
  941MOL0     C24114   6.845  11.839   3.473 -1.2584 -0.2989 -0.0316
  941MOL0     O24115   6.896  11.965   3.462  0.0490 -0.1285 -0.5722
  941MOL0     C24116   6.811  12.056   3.400  0.8280 -0.0311 -0.0630
  941MOL0     C24117   6.858  12.192   3.385 -0.4005 -0.3822 -0.8777
  941MOL0     C24118   6.963  12.197   3.275 -0.0771 -0.2686  0.4992
  941MOL0     C24119   7.014  12.335   3.266  0.4117  0.1840 -0.6499
  941MOL0     C24120   7.141  12.341   3.190 -0.6625 -0.0386 -0.5396
  941MOL0     C24121   7.265  12.288   3.268  1.0238  0.0403  0.6655
  941MOL0     C24122   7.392  12.311   3.186 -1.3064  1.1625 -0.8481
  941MOL0     C24123   7.512  12.243   3.258  0.0977 -0.7114  0.1261
  941MOL0    Cl24124   7.564  12.338   3.412 -0.1136 -0.6597 -0.6442
  941MOL0     C24125   6.935  11.745   3.458  0.1117  0.5520 -1.1944
  941MOL0     C24126   6.908  11.604   3.465 -0.5629  0.0533  0.0104
  941MOL0     O24127   6.558  11.447   3.367  0.3903  0.3961  0.7215
  941MOL0     C24128   6.623  11.182   3.290 -0.2135 -0.0617 -0.2710
  941MOL0     C24129   6.631  11.050   3.261 -0.2005  0.7252  0.4456
  941MOL0     N24130   6.560  10.260   3.393  0.0313  0.3038  0.7072
  941MOL0     N24131   6.502  10.148   3.381  0.0340  0.1945  0.3991
  941MOL0     C24132   5.680   9.377   2.972  0.6230 -0.4362 -0.3602
  941MOL0     C24133   5.601   9.311   2.876  0.1184  0.6188  0.3615
  941MOL0     C24134   5.244   9.317   2.590  0.1438 -0.5093 -0.4148
  941MOL0     C24135   5.219   9.398   2.486  0.0782 -0.6315  0.3441
  941MOL0     C24136   5.165   9.357   2.368 -0.1514  0.8639 -0.3888
  941MOL0     C24137   5.110   9.223   2.357 -0.1267  0.8786 -0.6551
  941MOL0     O24138   5.054   9.167   2.250 -0.5807 -0.0489 -0.4028
  941MOL0     C24139   5.112   9.205   2.119  1.2866 -0.4248 -0.4196
  941MOL0     C24140   5.027   9.304   2.040  1.0340  0.1934 -0.3614
  941MOL0     C24141   4.889   9.260   1.990 -0.0879  0.2982 -0.4833
  941MOL0     C24142   4.802   9.377   1.951  0.5914  0.1852  0.6483
  941MOL0     C24143   4.671   9.321   1.928 -0.2791 -1.0398  0.3849
  941MOL0     C24144   4.559   9.282   1.900  0.4423 -0.1292 -1.0615
  941MOL0     C24145   5.118   9.143   2.474  1.0507  0.4749  0.4186
  941MOL0     C24146   5.189   9.184   2.588 -0.7695 -0.0820  0.2973
  941MOL0     H24147   5.303   9.402   3.001 -0.2875 -1.9595 -1.3056
  941MOL0     H24148   5.434   9.511   3.176 -3.5121 -0.8515 -2.0610
  941MOL0     H24149   5.706   9.714   3.085 -0.5328  0.3771  1.0969
  941MOL0     H24150   5.806   9.592   2.997 -1.3958  1.1799 -0.8846
  941MOL0     H24151   5.977   9.728   3.112  1.4041 -0.9824  0.9964
  941MOL0     H24152   5.953   9.573   3.193 -0.7003 -1.3736 -2.6150
  941MOL0     H24153   5.810   9.714   3.362  1.4570 -0.5580  1.6369
  941MOL0     H24154   5.828   9.848   3.258  1.5669  0.3674 -0.5826
  941MOL0     H24155   6.022   9.772   3.468 -3.3901  0.1624 -0.9036
  941MOL0     H24156   6.103   9.710   3.323  0.2883 -1.1813 -1.5688
  941MOL0     H24157   5.980   9.980   3.317 -0.2288 -0.0801  0.3210
  941MOL0     H24158   6.107   9.929   3.223 -0.8301  1.4234  0.5129
  941MOL0     H24159   6.091   9.977   3.524 -2.8707  0.5166 -2.1058
  941MOL0     H24160   6.154  10.098   3.415 -5.6322  0.5941  2.2364
  941MOL0     H24161   6.296   9.818   3.445 -1.1353  0.5139  1.6102
  941MOL0     H24162   6.336   9.942   3.324  0.5919  2.8798 -0.1319
  941MOL0     H24163   6.485   9.924   3.545  0.5737  1.7557  2.9820
  941MOL0     H24164   6.334   9.992   3.620 -0.5311  3.2001 -0.2535
  941MOL0     H24165   6.367  10.218   3.668  2.5532  0.9913  1.3823
  941MOL0     H24166   6.598  10.455   3.661  0.1155  0.9711 -0.9439
  941MOL0     H24167   6.451  10.516   3.571 -0.0068  0.8058 -0.5789
  941MOL0     H24168   6.574  10.534   3.369 -3.3587 -2.3263  1.0127
  941MOL0     H24169   6.726  10.485   3.443  0.6305  0.8175  1.0094
  941MOL0     H24170   6.565  10.750   3.481  0.3616 -0.1628 -1.4299
  941MOL0     H24171   6.677  10.698   3.606  0.4843 -1.6559 -0.2298
  941MOL0     H24172   6.823  10.671   3.344 -0.4209  1.0761 -1.6512
  941MOL0     H24173   6.862  10.773   3.471  0.3139  1.3372 -0.3002
  941MOL0     H24174   6.779  10.953   3.559  1.2782  0.7766 -0.9905
  941MOL0     H24175   6.757  11.195   3.604  4.7938 -0.9797 -1.9628
  941MOL0     H24176   6.593  11.670   3.564  0.5302  1.9574  0.2900
  941MOL0     H24177   6.645  11.886   3.524  0.3551  0.0007  0.0860
  941MOL0     H24178   6.734  12.064   3.477 -0.3678 -0.6418 -1.1480
  941MOL0     H24179   6.758  12.023   3.310 -2.6014  0.6063  1.5584
  941MOL0     H24180   6.908  12.212   3.480 -0.1049  0.2059 -1.1492
  941MOL0     H24181   6.776  12.266   3.382 -1.8469 -1.6084  2.7840
  941MOL0     H24182   6.907  12.179   3.182 -0.3305  1.7409  0.2165
  941MOL0     H24183   7.035  12.115   3.285 -0.6537 -0.6810  1.3652
  941MOL0     H24184   6.932  12.391   3.220 -0.7966 -1.2223 -0.3002
  941MOL0     H24185   7.035  12.381   3.362 -0.4469  2.9486 -1.6867
  941MOL0     H24186   7.156  12.448   3.175  3.1149 -0.5671 -1.5207
  941MOL0     H24187   7.133  12.275   3.103  2.9644 -1.7618  0.2330
  941MOL0     H24188   7.252  12.181   3.289 -1.0200 -0.5172 -2.6915
  941MOL0     H24189   7.276  12.346   3.360 -1.9808  0.1759  1.0575
  941MOL0     H24190   7.367  12.245   3.102 -2.4473 -2.0431  1.7903
  941MOL0     H24191   7.415  12.415   3.163  3.0911  0.5204 -0.2166
  941MOL0     H24192   7.602  12.244   3.196 -0.5709  1.7490 -0.9218
  941MOL0     H24193   7.482  12.142   3.288 -0.1540 -0.8722 -0.6393
  941MOL0     H24194   7.034  11.783   3.438  2.2770 -4.2770 -1.1572
  941MOL0     H24195   6.990  11.533   3.460 -0.5828  0.0449 -0.2309
  941MOL0     H24196   6.610  11.245   3.203  1.9482  0.2700 -0.3978
  941MOL0     H24197   6.595  11.009   3.167 -0.6768 -0.3424  1.0750
  941MOL0     H24198   5.787   9.382   2.951  0.6718 -2.5410 -0.8033
  941MOL0     H24199   5.640   9.253   2.793 -2.9563 -1.1387 -0.0218
  941MOL0     H24200   5.259   9.499   2.482  0.4600 -0.7254  1.4875
  941MOL0     H24201   5.162   9.425   2.284 -1.2387  4.1474  2.1209
  941MOL0     H24202   5.131   9.116   2.058 -1.0855  1.1548 -3.7547
  941MOL0     H24203   5.211   9.251   2.130  0.5776  0.9344  0.3969
  941MOL0     H24204   5.013   9.389   2.107 -0.4292  0.0268 -0.4145
  941MOL0     H24205   5.087   9.327   1.951 -1.6345  0.8347 -2.1070
  941MOL0     H24206   4.839   9.183   2.049  2.2507  0.2840  1.6731
  941MOL0     H24207   4.907   9.200   1.900 -1.4349 -0.8646 -0.0074
  941MOL0     H24208   4.789   9.454   2.028 -0.8629  0.0919  0.5371
  941MOL0     H24209   4.824   9.428   1.856  1.5089  1.1556  1.3679
  941MOL0     H24210   4.463   9.236   1.890  0.2513  0.6285 -3.2747
  941MOL0     H24211   5.081   9.041   2.474 -0.9971  1.1779  0.5007
  941MOL0     H24212   5.187   9.121   2.676  1.4261 -1.1358 -0.3366
  942MOL0     O24213   4.686  10.476   1.446  0.6643 -1.1661  0.8926
  942MOL0     C24214   4.721  10.383   1.380 -0.0400  1.3046 -0.3375
  942MOL0     O24215   4.654  10.269   1.359  0.2251  0.2440  0.6226
  942MOL0     C24216   4.516  10.270   1.328 -1.2550  0.5507 -0.2590
  942MOL0     C24217   4.446  10.146   1.350  1.1775 -0.6173  0.6479
  942MOL0     C24218   4.307  10.146   1.336  0.2203 -0.4017  0.4535
  942MOL0     C24219   4.242  10.257   1.279  0.4216 -0.0521 -0.2918
  942MOL0     O24220   4.113  10.242   1.242 -0.2371 -0.1911 -0.9056
  942MOL0     C24221   4.017  10.325   1.316 -0.2911  0.0648 -0.3018
  942MOL0     C24222   3.881  10.253   1.311 -0.8242  0.8118 -0.1130
  942MOL0     C24223   3.882  10.129   1.410  0.3989 -0.2579  0.1115
  942MOL0     C24224   3.731  10.083   1.422  0.0850  0.0870 -0.3689
  942MOL0     C24225   3.727   9.972   1.531 -0.2010 -0.0170  0.3452
  942MOL0     C24226   3.592   9.963   1.593  0.3823  0.4230 -0.6024
  942MOL0     C24227   3.578   9.866   1.717 -0.4080 -0.6238 -0.1584
  942MOL0     C24228   3.529   9.729   1.683  0.1497  0.2321 -0.6302
  942MOL0     N24229   3.395   9.695   1.744  0.0399  0.2702 -0.6208
  942MOL0     C24230   3.266   9.738   1.707  0.5447 -0.4293 -0.5622
  942MOL0     C24231   3.178   9.687   1.795  0.1306  0.7149 -0.4749
  942MOL0     C24232   3.028   9.667   1.785  0.2825 -0.8577 -0.6306
  942MOL0     C24233   2.971   9.695   1.920  0.3611  0.7117 -0.1269
  942MOL0     C24234   2.827   9.690   1.942 -0.5051  0.6679  0.3959
  942MOL0     C24235   2.808   9.703   2.097  0.4959 -0.3897  0.4769
  942MOL0     O24236   2.670   9.726   2.139  0.3316  0.4656 -0.3646
  942MOL0     C24237   2.596   9.628   2.191 -0.1371 -0.1537  0.1686
  942MOL0     C24238   2.627   9.485   2.179 -0.0670  0.0591  0.0036
  942MOL0     C24239   2.544   9.391   2.233 -0.6670  0.2082  0.4745
  942MOL0     C24240   2.439   9.426   2.314 -0.0306  0.0956  1.3354
  942MOL0     C24241   2.334   9.321   2.356  0.4485  0.6151  0.8052
  942MOL0     O24242   2.217   9.368   2.415 -0.0036 -0.2938  0.0183
  942MOL0     C24243   2.120   9.271   2.449  0.1131  0.2062  0.1780
  942MOL0     C24244   2.077   9.166   2.367  0.6167  0.2127  0.1617
  942MOL0     C24245   1.983   9.071   2.415  1.3314  0.0475  0.0323
  942MOL0     C24246   1.928   9.082   2.546 -0.1622 -0.6802  0.1996
  942MOL0     O24247   1.829   8.988   2.577 -0.2345 -0.1417  0.8315
  942MOL0     C24248   1.710   9.045   2.639 -0.4591  0.1636  0.5891
  942MOL0     C24249   1.621   8.939   2.715 -1.3620  0.6326  0.8323
  942MOL0     C24250   1.702   8.840   2.800  1.7671  0.2639  0.0377
  942MOL0     C24251   1.608   8.729   2.862  0.1864 -0.1171  0.4983
  942MOL0     C24252   1.504   8.776   2.961  0.1894 -0.7987 -0.5716
  942MOL0     C24253   1.434   8.658   3.023 -0.2715 -0.6554  0.2826
  942MOL0     C24254   1.290   8.705   3.077 -0.2546  0.3000  0.2782
  942MOL0     C24255   1.298   8.789   3.209  0.5468 -0.0286  0.6860
  942MOL0    Cl24256   1.159   8.814   3.304 -0.0194  0.0569  0.3107
  942MOL0     C24257   1.973   9.184   2.635  1.0883 -0.0704  0.2337
  942MOL0     C24258   2.073   9.274   2.582  0.7265  1.2377  0.2755
  942MOL0     O24259   2.366   9.201   2.355  0.0966 -0.7903 -0.2952
  942MOL0     C24260   2.410   9.567   2.328  0.0757  0.3424 -1.1472
  942MOL0     C24261   2.494   9.664   2.278 -0.8926 -0.3562  0.3583
  942MOL0     N24262   3.250   9.620   1.891  0.1074  0.0446  0.8475
  942MOL0     N24263   3.374   9.621   1.861  0.2807  0.5478  0.7515
  942MOL0     C24264   4.311  10.373   1.257 -0.7447 -0.3657  0.1157
  942MOL0     C24265   4.440  10.387   1.295 -0.9052 -0.2040  0.4020
  942MOL0     C24266   4.867  10.362   1.357 -0.7435  0.0672  0.6140
  942MOL0     C24267   4.903  10.312   1.232 -0.0543  0.0585 -0.3236
  942MOL0     C24268   5.046  10.296   1.212  0.4712 -0.3388  0.1508
  942MOL0     C24269   5.142  10.342   1.297  0.1466 -0.1189 -0.0251
  942MOL0     O24270   5.281  10.343   1.280 -0.4390 -1.0857 -1.2434
  942MOL0     C24271   5.339  10.271   1.173  0.0917  0.8652  0.3723
  942MOL0     C24272   5.490  10.291   1.169 -0.2055  0.4392 -0.1890
  942MOL0     C24273   5.533  10.440   1.148  0.0620  0.0493 -0.2803
  942MOL0     C24274   5.689  10.445   1.122  0.5220 -0.1326 -0.7300
  942MOL0     C24275   5.725  10.562   1.043 -0.3686 -0.2732 -0.9348
  942MOL0     C24276   5.766  10.664   0.990 -0.3581  0.0848  0.9931
  942MOL0     C24277   5.098  10.402   1.423 -0.2847  1.1570  0.8338
  942MOL0     C24278   4.960  10.415   1.451  0.4496 -0.0432  0.1510
  942MOL0     H24279   4.494  10.059   1.393  2.6852 -0.7843 -1.2436
  942MOL0     H24280   4.257  10.052   1.358  0.7297 -1.8851 -3.7340
  942MOL0     H24281   4.008  10.428   1.280  0.6057  0.2921  0.1006
  942MOL0     H24282   4.049  10.348   1.418 -1.7060  2.7127 -0.3556
  942MOL0     H24283   3.853  10.225   1.209  0.7551  2.1543 -0.9654
  942MOL0     H24284   3.821  10.339   1.342 -0.5616  2.8162 -4.4571
  942MOL0     H24285   3.919  10.161   1.507 -0.5168 -2.3661  1.2169
  942MOL0     H24286   3.952  10.051   1.378  0.0618 -0.4358 -0.2024
  942MOL0     H24287   3.682  10.179   1.442 -0.2273 -0.2449  0.4859
  942MOL0     H24288   3.694  10.046   1.326 -2.0420  1.9764 -0.3486
  942MOL0     H24289   3.798   9.985   1.613  0.5782  1.3914 -0.5249
  942MOL0     H24290   3.747   9.876   1.483  2.7916 -0.9344  3.0195
  942MOL0     H24291   3.527   9.938   1.509  2.7552  2.9100 -3.4129
  942MOL0     H24292   3.563  10.061   1.632 -0.0455  0.8733 -1.9914
  942MOL0     H24293   3.667   9.862   1.781 -0.6884 -2.3905  0.1676
  942MOL0     H24294   3.505   9.912   1.783 -0.0611 -0.3162  0.0159
  942MOL0     H24295   3.600   9.652   1.714  0.2135  0.4778 -0.1573
  942MOL0     H24296   3.515   9.715   1.575 -1.5196  0.6343 -0.4962
  942MOL0     H24297   3.236   9.803   1.624 -1.7913  1.0742  1.2988
  942MOL0     H24298   2.997   9.565   1.759  0.6295 -0.6451 -1.9529
  942MOL0     H24299   2.989   9.731   1.706 -1.2510 -3.6215 -2.3005
  942MOL0     H24300   2.997   9.797   1.948 -3.7616  1.4278  1.7907
  942MOL0     H24301   3.019   9.630   1.994 -1.1616  1.6695  1.7991
  942MOL0     H24302   2.789   9.777   1.887  1.1179  1.1340 -0.0610
  942MOL0     H24303   2.789   9.597   1.898  1.4971 -1.4038  2.7102
  942MOL0     H24304   2.865   9.790   2.130  0.6737 -0.7847  1.2419
  942MOL0     H24305   2.849   9.610   2.138  1.3747 -0.5524 -0.7174
  942MOL0     H24306   2.712   9.446   2.124 -2.4420 -1.6789 -2.7353
  942MOL0     H24307   2.575   9.289   2.213 -4.1224 -1.4119  2.4286
  942MOL0     H24308   2.125   9.140   2.274  0.5667  2.8088 -0.6678
  942MOL0     H24309   1.952   8.984   2.359  0.6646  1.1685 -1.3916
  942MOL0     H24310   1.655   9.091   2.557  0.7724  1.3054  0.3822
  942MOL0     H24311   1.732   9.129   2.705 -1.8501  0.5934  0.5568
  942MOL0     H24312   1.569   8.878   2.640 -3.2250  1.4698  1.4010
  942MOL0     H24313   1.546   8.994   2.772 -2.5524 -0.3935  0.3197
  942MOL0     H24314   1.748   8.896   2.881  1.3810  0.5199  0.0779
  942MOL0     H24315   1.783   8.789   2.746 -0.3199 -2.9157 -0.3832
  942MOL0     H24316   1.568   8.665   2.783 -0.4075  0.8798 -0.0328
  942MOL0     H24317   1.674   8.669   2.925  1.3250  1.0988  0.5095
  942MOL0     H24318   1.432   8.844   2.914  0.6369 -0.4682 -0.7813
  942MOL0     H24319   1.536   8.837   3.046  0.0776 -0.6693 -0.6215
  942MOL0     H24320   1.507   8.614   3.091 -0.0896 -0.9209 -0.0745
  942MOL0     H24321   1.415   8.582   2.946  0.9287 -0.9066  0.2145
  942MOL0     H24322   1.234   8.759   3.001  0.0602 -1.8390 -1.5792
  942MOL0     H24323   1.227   8.618   3.099 -0.1608  0.5195  1.4798
  942MOL0     H24324   1.351   8.884   3.196  1.4112 -0.1604  2.9024
  942MOL0     H24325   1.381   8.750   3.267  2.2456  2.2363 -0.0379
  942MOL0     H24326   1.918   9.196   2.728 -1.0273  0.2422 -0.9994
  942MOL0     H24327   2.109   9.356   2.644  1.3669  0.5838  0.7870
  942MOL0     H24328   2.328   9.598   2.392  1.5808 -0.4308  1.3085
  942MOL0     H24329   2.475   9.768   2.301 -0.0414 -0.0615 -0.2419
  942MOL0     H24330   4.271  10.466   1.219 -1.0869 -0.4248  0.3308
  942MOL0     H24331   4.484  10.485   1.281 -2.8098  0.9774  2.1395
  942MOL0     H24332   4.834  10.284   1.153  0.3233  0.3732 -0.7751
  942MOL0     H24333   5.057  10.238   1.121 -5.0994  1.4116 -2.0660
  942MOL0     H24334   5.290  10.297   1.079  4.8615  3.1636 -1.8820
  942MOL0     H24335   5.340  10.163   1.190  2.0156  0.8564  0.4683
  942MOL0     H24336   5.533  10.254   1.262 -1.6900 -0.7039  0.0932
  942MOL0     H24337   5.532  10.238   1.083  0.2866 -0.1694  0.4144
  942MOL0     H24338   5.505  10.508   1.229 -1.4979 -0.9914  0.1059
  942MOL0     H24339   5.476  10.487   1.068 -1.5858  1.0190  1.3802
  942MOL0     H24340   5.742  10.447   1.218  0.7086  2.7479 -0.7951
  942MOL0     H24341   5.721  10.356   1.067 -1.4400 -0.6015 -1.1800
  942MOL0     H24342   5.803  10.747   0.933  2.5469 -0.8698  1.3141
  942MOL0     H24343   5.187  10.433   1.477  2.4135 -0.5430 -2.3179
  942MOL0     H24344   4.916  10.459   1.541  0.0915  0.2101 -0.1466
  943MOL0     O24345   6.692   1.720   9.799 -0.7160  0.1390 -0.2420
  943MOL0     C24346   6.661   1.836   9.788 -0.1159  0.0342  0.2741
  943MOL0     O24347   6.717   1.948   9.849  0.0940 -0.0636  0.0345
  943MOL0     C24348   6.832   1.924   9.919  0.4264  0.2110  0.1746
  943MOL0     C24349   6.934   1.843   9.871  0.7445  0.1376  0.1994
  943MOL0     C24350   7.062   1.841   9.929  0.5050 -0.2815 -0.1927
  943MOL0     C24351   7.089   1.929  10.035 -0.2490 -0.0649  0.0983
  943MOL0     O24352   7.203   1.946  10.103 -0.2444  0.8677  0.2191
  943MOL0     C24353   7.327   1.937  10.034 -0.3655 -0.3095  0.3914
  943MOL0     C24354   7.448   1.916  10.123  0.6907 -0.5195  0.3081
  943MOL0     C24355   7.579   1.892  10.059  0.2221 -0.1893 -0.4963
  943MOL0     C24356   7.680   1.883  10.173  0.2537  1.2350  0.1566
  943MOL0     C24357   7.830   1.882  10.138 -0.3269 -0.1677  0.1635
  943MOL0     C24358   7.879   2.015  10.102  0.7976  0.4106 -0.9139
  943MOL0     C24359   8.005   2.023  10.023 -1.1242  1.1952 -0.2776
  943MOL0     C24360   7.972   2.014   9.872  0.3457  0.3835 -0.8281
  943MOL0     N24361   7.935   1.881   9.826  0.0445  0.3163  0.0316
  943MOL0     C24362   8.021   1.774   9.817 -0.5044 -0.5726 -0.2569
  943MOL0     C24363   7.959   1.693   9.731  0.5470  0.2152  0.0725
  943MOL0     C24364   8.016   1.566   9.677 -0.2349 -0.4733  0.3412
  943MOL0     C24365   7.944   1.441   9.713 -0.6475 -0.2154 -1.2044
  943MOL0     C24366   7.923   1.418   9.867  0.0136  0.1015 -0.0249
  943MOL0     C24367   8.052   1.383   9.938 -0.3743 -0.1832  0.7236
  943MOL0     O24368   8.125   1.507   9.968 -0.6894  0.1978 -0.4004
  943MOL0     C24369   8.247   1.486  10.029  0.0476 -0.0139 -0.7888
  943MOL0     C24370   8.326   1.595  10.058  0.4344 -0.5731  0.4042
  943MOL0     C24371   8.455   1.596  10.116  0.5942  0.7243 -0.7879
  943MOL0     C24372   8.499   1.476  10.190  0.5839  0.1004  0.1815
  943MOL0     C24373   8.614   1.475  10.276  0.8570  0.8617 -0.4404
  943MOL0     O24374   8.662   1.597  10.302  0.6880  0.3820  0.2170
  943MOL0     C24375   8.760   1.632  10.389  0.1340  0.1104  0.3291
  943MOL0     C24376   8.878   1.557  10.415 -0.1768  0.1132 -0.0659
  943MOL0     C24377   8.977   1.613  10.500 -0.2868  0.4861 -1.2720
  943MOL0     C24378   8.970   1.744  10.553  0.4188  0.2875 -0.0697
  943MOL0     O24379   9.062   1.792  10.652 -0.0149 -0.2670 -0.0710
  943MOL0     C24380   9.034   1.909  10.728  0.4707  0.5325 -0.7380
  943MOL0     C24381   9.020   1.885  10.878  0.7431 -0.3657  0.2943
  943MOL0     C24382   8.910   1.789  10.932  1.0935 -0.0682 -0.6250
  943MOL0     C24383   8.762   1.848  10.908 -0.2157  0.4173  0.2253
  943MOL0     C24384   8.652   1.782  10.992  0.5094 -0.2741  0.0178
  943MOL0     C24385   8.615   1.637  10.940 -0.1616 -0.4303 -0.0694
  943MOL0     C24386   8.473   1.605  10.998  0.5308  0.1193  0.9721
  943MOL0     C24387   8.469   1.605  11.154 -0.5583  0.1525 -0.1384
  943MOL0    Cl24388   8.320   1.528  11.236 -0.0954  0.5449  0.3876
  943MOL0     C24389   8.853   1.822  10.512  0.7267  0.0532  0.6156
  943MOL0     C24390   8.753   1.769  10.433 -0.6180 -0.1393  0.0875
  943MOL0     O24391   8.656   1.366  10.307  0.3243  0.3545  0.1423
  943MOL0     C24392   8.421   1.359  10.160 -0.9890 -0.0530 -0.0613
  943MOL0     C24393   8.303   1.367  10.083 -0.5181 -0.9893  0.2371
  943MOL0     N24394   7.842   1.750   9.679  0.5791  0.8558 -0.2734
  943MOL0     N24395   7.831   1.861   9.732  0.0579 -0.3218 -0.0468
  943MOL0     C24396   6.979   1.996  10.092  0.2161 -0.3518  0.3663
  943MOL0     C24397   6.854   2.002  10.033 -0.7296  0.4196 -0.6600
  943MOL0     C24398   6.529   1.850   9.729 -0.1173 -0.3321  1.5576
  943MOL0     C24399   6.478   1.982   9.705 -1.6628 -0.2381 -0.6634
  943MOL0     C24400   6.364   2.003   9.631  0.5583  0.0187 -0.4370
  943MOL0     C24401   6.282   1.896   9.587 -0.7514  1.0216  0.1294
  943MOL0     O24402   6.155   1.920   9.525 -0.3002  0.0838 -0.6488
  943MOL0     C24403   6.091   2.046   9.542  0.2265  0.3299  0.4380
  943MOL0     C24404   5.964   2.042   9.464  0.0076  0.3110  0.3633
  943MOL0     C24405   5.995   2.006   9.312 -0.3195 -0.0494 -0.2470
  943MOL0     C24406   5.882   2.009   9.218 -0.4831  0.1837  0.0040
  943MOL0     C24407   5.807   2.135   9.222 -0.8579  0.0957 -0.1147
  943MOL0     C24408   5.746   2.240   9.199 -0.2767  0.5661 -0.1598
  943MOL0     C24409   6.331   1.765   9.607 -0.3529 -0.1197  0.4590
  943MOL0     C24410   6.451   1.739   9.679  0.1764  0.2247 -0.5769
  943MOL0     H24411   6.928   1.801   9.771  0.3084 -0.7112  0.5676
  943MOL0     H24412   7.138   1.790   9.871  0.2808  0.2322 -0.9556
  943MOL0     H24413   7.343   2.017   9.961 -0.7200  0.2990  0.9712
  943MOL0     H24414   7.338   1.845   9.975  1.1675 -1.2491  2.0676
  943MOL0     H24415   7.420   1.840  10.196 -1.6510  0.3797  0.4322
  943MOL0     H24416   7.460   2.008  10.180  0.6659 -0.4264  0.1621
  943MOL0     H24417   7.594   1.975   9.990 -2.0266  1.4534  0.8323
  943MOL0     H24418   7.584   1.800  10.001  2.1040 -1.1341  1.0561
  943MOL0     H24419   7.671   1.963  10.247  1.1077 -1.4041  3.3180
  943MOL0     H24420   7.664   1.786  10.220 -2.4788  2.0316  1.0105
  943MOL0     H24421   7.845   1.809  10.058  2.8374 -0.8903  1.2449
  943MOL0     H24422   7.895   1.847  10.219 -1.3290 -1.3117  0.5097
  943MOL0     H24423   7.886   2.072  10.195  2.0126  1.9973 -1.8995
  943MOL0     H24424   7.800   2.069  10.048  1.1622  0.2985 -1.5700
  943MOL0     H24425   8.046   2.121  10.049 -2.4785  1.6944  0.0527
  943MOL0     H24426   8.075   1.943  10.050 -2.5890 -0.1674 -0.3696
  943MOL0     H24427   8.068   2.039   9.827  1.3047 -0.1313  0.8481
  943MOL0     H24428   7.890   2.084   9.854 -0.8585 -0.4089  1.1814
  943MOL0     H24429   8.118   1.747   9.857 -1.0712 -1.7575  0.3571
  943MOL0     H24430   8.118   1.548   9.715 -0.5958 -3.0826  0.2509
  943MOL0     H24431   8.015   1.571   9.568 -6.0029  0.5609  0.1266
  943MOL0     H24432   8.002   1.361   9.666 -1.3891 -0.5833 -1.5238
  943MOL0     H24433   7.847   1.439   9.661  0.0942 -2.1849 -2.6809
  943MOL0     H24434   7.877   1.496   9.928 -0.7249 -1.7012  1.8417
  943MOL0     H24435   7.857   1.332   9.877 -3.1894  2.1923 -1.4768
  943MOL0     H24436   8.118   1.327   9.871 -0.6151  2.6023 -2.0806
  943MOL0     H24437   8.023   1.328  10.028 -0.0479 -0.9792  0.3531
  943MOL0     H24438   8.290   1.689  10.016  1.3727 -0.6847 -0.7301
  943MOL0     H24439   8.506   1.691  10.128  0.7182  0.4591  1.2274
  943MOL0     H24440   8.905   1.467  10.359  1.0140  2.3916 -3.4740
  943MOL0     H24441   9.068   1.568  10.538  0.3094  2.8942  0.3761
  943MOL0     H24442   8.946   1.960  10.688  0.8103  0.7422 -1.2276
  943MOL0     H24443   9.116   1.980  10.718  2.4755 -1.4242  0.8059
  943MOL0     H24444   8.997   1.984  10.919 -3.2897 -0.7365 -0.5935
  943MOL0     H24445   9.115   1.847  10.916  1.4347  1.9099  0.9756
  943MOL0     H24446   8.924   1.784  11.041  0.4115  5.3828 -0.0080
  943MOL0     H24447   8.917   1.692  10.882 -0.2164 -0.0306 -0.9074
  943MOL0     H24448   8.772   1.957  10.918  0.1824  0.5244 -1.0733
  943MOL0     H24449   8.732   1.833  10.804 -0.4080  2.1490 -0.0118
  943MOL0     H24450   8.560   1.842  10.986 -1.7623 -3.3484  1.3512
  943MOL0     H24451   8.686   1.791  11.096  1.3107 -0.2647 -0.2379
  943MOL0     H24452   8.692   1.561  10.958 -0.3516 -0.7309 -0.4964
  943MOL0     H24453   8.611   1.636  10.830 -0.3461 -0.0848 -0.0668
  943MOL0     H24454   8.394   1.664  10.950 -0.6566 -2.0043  0.1756
  943MOL0     H24455   8.445   1.507  10.960  0.0597  1.0821 -1.3527
  943MOL0     H24456   8.478   1.708  11.187  1.2856  0.1287 -0.4644
  943MOL0     H24457   8.560   1.556  11.189  0.0571  1.5687  0.2841
  943MOL0     H24458   8.838   1.930  10.520 -1.4470 -0.1010 -0.6952
  943MOL0     H24459   8.669   1.831  10.402 -0.9648 -1.5456 -1.9622
  943MOL0     H24460   8.451   1.263  10.201  0.9770  1.6077  2.7063
  943MOL0     H24461   8.243   1.278  10.073  0.5261 -1.7406  0.4741
  943MOL0     H24462   7.007   2.053  10.180  1.2150  0.2947 -0.3449
  943MOL0     H24463   6.774   2.059  10.079  1.0362  0.9176  2.0356
  943MOL0     H24464   6.527   2.072   9.740  0.4000 -1.7313  0.4812
  943MOL0     H24465   6.325   2.104   9.629  0.8873  0.5049  4.5426
  943MOL0     H24466   6.157   2.125   9.504  0.2923 -0.0077 -0.1721
  943MOL0     H24467   6.058   2.070   9.643 -0.0740 -1.2504  0.7392
  943MOL0     H24468   5.903   1.959   9.501  0.7220 -1.0528 -1.3418
  943MOL0     H24469   5.914   2.138   9.476  0.1421  0.6567 -1.4832
  943MOL0     H24470   6.039   1.906   9.301  2.2020  0.6774  2.2311
  943MOL0     H24471   6.071   2.075   9.275  0.1195 -0.4666 -0.1337
  943MOL0     H24472   5.929   1.989   9.121 -0.9475 -2.0630  0.1706
  943MOL0     H24473   5.807   1.936   9.250  0.9459 -0.3869  2.2280
  943MOL0     H24474   5.691   2.330   9.182  1.8155  1.8235 -0.5841
  943MOL0     H24475   6.274   1.678   9.576  0.6227  0.7218 -4.6158
  943MOL0     H24476   6.485   1.639   9.704  3.3971  1.0690 -1.2384
  944MOL0     O24477  11.020   2.858   8.031  0.3245 -0.8596  0.1431
  944MOL0     C24478  11.135   2.835   8.000  1.4065 -0.2059 -1.1910
  944MOL0     O24479  11.168   2.741   7.906 -0.7409  0.1084  0.1939
  944MOL0     C24480  11.077   2.688   7.819  0.0329  0.8582  0.3676
  944MOL0     C24481  10.998   2.766   7.745  0.5616 -1.2333  0.3844
  944MOL0     C24482  10.896   2.706   7.662  0.2166  0.1333  0.4957
  944MOL0     C24483  10.873   2.570   7.656  0.5031  0.8816  1.6756
  944MOL0     O24484  10.774   2.527   7.568 -0.6883 -0.3928  0.5401
  944MOL0     C24485  10.712   2.403   7.610  0.9750  0.6461 -0.2547
  944MOL0     C24486  10.587   2.383   7.523 -0.0026 -0.0324  0.4907
  944MOL0     C24487  10.477   2.480   7.580 -0.2434  0.5364  0.2043
  944MOL0     C24488  10.341   2.472   7.514 -0.1085 -0.3109  0.2573
  944MOL0     C24489  10.243   2.581   7.547 -0.2036 -0.3307  0.6176
  944MOL0     C24490  10.103   2.548   7.509 -0.8159  0.5534  1.0039
  944MOL0     C24491  10.091   2.556   7.359 -0.4534 -0.2155  0.5323
  944MOL0     C24492   9.968   2.489   7.311 -0.3068 -0.2306 -0.5759
  944MOL0     N24493   9.888   2.542   7.202 -0.4408  0.6567  0.5464
  944MOL0     C24494   9.925   2.528   7.071  0.1357 -0.2363  0.6089
  944MOL0     C24495   9.852   2.616   7.003 -0.1159 -0.2477 -0.2748
  944MOL0     C24496   9.840   2.653   6.860 -0.0330 -0.4016  1.6557
  944MOL0     C24497   9.721   2.605   6.779  0.6973  0.2109 -0.3589
  944MOL0     C24498   9.729   2.642   6.625  0.0311  1.0807 -0.3289
  944MOL0     C24499   9.606   2.597   6.544  0.6681 -0.5344 -0.6509
  944MOL0     O24500   9.502   2.690   6.580 -0.5748  0.4915  0.6564
  944MOL0     C24501   9.378   2.674   6.519 -0.1875  0.4407 -0.3295
  944MOL0     C24502   9.277   2.770   6.533 -0.2001  0.3445 -0.6198
  944MOL0     C24503   9.145   2.757   6.482 -1.1835 -0.4352 -0.1887
  944MOL0     C24504   9.114   2.640   6.415 -0.3443 -0.6992  0.4631
  944MOL0     C24505   8.976   2.620   6.361  0.4601 -0.0155  0.2601
  944MOL0     O24506   8.947   2.499   6.296  0.1089  0.1215 -0.4672
  944MOL0     C24507   8.825   2.470   6.252  0.4811 -0.1591 -0.5950
  944MOL0     C24508   8.766   2.346   6.279 -0.7982  0.6185  0.8896
  944MOL0     C24509   8.644   2.319   6.234  0.1340  0.1628  1.3984
  944MOL0     C24510   8.570   2.411   6.147 -0.0187  0.8278 -1.2073
  944MOL0     O24511   8.446   2.373   6.102  0.1248  0.7932  0.0160
  944MOL0     C24512   8.360   2.482   6.071  0.5427  0.6956 -0.4959
  944MOL0     C24513   8.222   2.444   6.140  0.0991 -0.9574  0.4100
  944MOL0     C24514   8.124   2.564   6.108 -0.5371  0.8621  0.3942
  944MOL0     C24515   8.054   2.532   5.980 -0.9051 -1.3607  0.7902
  944MOL0     C24516   7.920   2.612   5.960 -0.8859  0.7998  0.3972
  944MOL0     C24517   7.807   2.554   6.041 -0.8833  0.0490 -0.5178
  944MOL0     C24518   7.677   2.629   6.027  0.3176  0.2034 -0.8625
  944MOL0     C24519   7.662   2.774   6.033  0.0276 -0.3133  0.0497
  944MOL0    Cl24520   7.706   2.829   6.194  0.0648  0.3563  0.0682
  944MOL0     C24521   8.628   2.534   6.127  0.2249  0.5348  0.0007
  944MOL0     C24522   8.750   2.567   6.174  0.2171  0.2773 -1.3113
  944MOL0     O24523   8.892   2.697   6.412  0.1873  0.6106  0.3813
  944MOL0     C24524   9.207   2.531   6.412 -0.1230 -0.3502 -0.3542
  944MOL0     C24525   9.338   2.553   6.456  0.0360 -0.0977 -0.2578
  944MOL0     N24526   9.761   2.676   7.092 -0.5248 -0.2822  0.2993
  944MOL0     N24527   9.788   2.634   7.210  0.8693  0.3126  0.4381
  944MOL0     C24528  10.962   2.491   7.730  0.2062 -0.1102  0.1145
  944MOL0     C24529  11.066   2.549   7.804 -0.1329 -0.1106 -0.3911
  944MOL0     C24530  11.234   2.913   8.078  1.1009  0.9117 -0.3591
  944MOL0     C24531  11.366   2.912   8.035  0.1164  0.1729  0.4629
  944MOL0     C24532  11.462   2.987   8.109 -0.6853  0.1567  0.4613
  944MOL0     C24533  11.435   3.037   8.237  0.0776 -1.3268  0.6722
  944MOL0     O24534  11.539   3.085   8.303 -0.3927  0.0968 -0.6909
  944MOL0     C24535  11.520   3.200   8.396  0.7265  0.4754  0.5929
  944MOL0     C24536  11.652   3.232   8.472  0.0205 -0.1625  0.1097
  944MOL0     C24537  11.692   3.111   8.565  0.6746 -0.0719 -0.3584
  944MOL0     C24538  11.793   3.023   8.490 -0.0102 -0.0921 -0.5918
  944MOL0     C24539  11.930   3.079   8.488 -0.3013  0.2058  0.2948
  944MOL0     C24540  12.050   3.110   8.495  0.6151  0.7082  0.2537
  944MOL0     C24541  11.307   3.048   8.272  0.2762  0.2880 -0.1449
  944MOL0     C24542  11.204   2.984   8.201  0.0573  0.1035 -0.3233
  944MOL0     H24543  11.001   2.874   7.748  2.4479 -1.0983 -2.5675
  944MOL0     H24544  10.821   2.759   7.604 -4.5433 -4.7424  1.3756
  944MOL0     H24545  10.687   2.405   7.716  1.6395  0.3265 -0.0821
  944MOL0     H24546  10.783   2.323   7.587 -0.9603 -1.5130  0.8764
  944MOL0     H24547  10.560   2.277   7.524  0.8362 -0.4107 -2.9308
  944MOL0     H24548  10.605   2.416   7.420 -2.8688 -0.1019 -0.1037
  944MOL0     H24549  10.521   2.578   7.559  1.2894  0.7783  3.8272
  944MOL0     H24550  10.466   2.480   7.689 -0.8323  2.1049  0.1644
  944MOL0     H24551  10.372   2.474   7.409  2.3394  0.5420  0.9123
  944MOL0     H24552  10.292   2.376   7.530  2.4106 -1.8070 -0.3680
  944MOL0     H24553  10.265   2.676   7.498  0.3242 -0.5523  0.4197
  944MOL0     H24554  10.258   2.602   7.653 -1.4486  1.8854  0.4101
  944MOL0     H24555  10.033   2.623   7.547 -0.3038  1.5363  0.0646
  944MOL0     H24556  10.064   2.451   7.540 -0.8101  0.4192  0.5996
  944MOL0     H24557  10.101   2.660   7.326 -1.4614 -0.2024  0.2486
  944MOL0     H24558  10.166   2.487   7.319 -1.1004  0.5739 -2.2724
  944MOL0     H24559   9.900   2.482   7.396  1.2460 -1.7143  0.6292
  944MOL0     H24560   9.999   2.386   7.288  0.2658 -0.5513  1.4016
  944MOL0     H24561  10.009   2.470   7.034 -1.1052 -3.2276  2.1389
  944MOL0     H24562   9.927   2.611   6.808 -1.3325  1.9232 -2.9543
  944MOL0     H24563   9.853   2.761   6.845  1.1146 -0.6566  0.6771
  944MOL0     H24564   9.631   2.656   6.816  0.5664  0.1079 -0.5349
  944MOL0     H24565   9.710   2.496   6.776 -0.9993  0.3752 -1.6502
  944MOL0     H24566   9.748   2.749   6.617  0.0429  0.9152 -3.6812
  944MOL0     H24567   9.810   2.578   6.589  0.4962 -0.1386  2.6102
  944MOL0     H24568   9.574   2.499   6.581 -1.3938  0.3308  0.0273
  944MOL0     H24569   9.628   2.601   6.437  3.2967 -0.8095 -0.1694
  944MOL0     H24570   9.307   2.866   6.574 -0.8721  0.7190 -0.9829
  944MOL0     H24571   9.081   2.839   6.512  2.1370  1.0993  3.6548
  944MOL0     H24572   8.826   2.280   6.341  2.2781  1.2656 -1.2107
  944MOL0     H24573   8.607   2.217   6.242  1.7909 -0.5086  0.9393
  944MOL0     H24574   8.362   2.499   5.963  1.3445 -1.1303 -0.8029
  944MOL0     H24575   8.388   2.582   6.107 -2.5586  1.7789 -0.7794
  944MOL0     H24576   8.225   2.435   6.248 -1.0306  1.4077  0.7074
  944MOL0     H24577   8.182   2.350   6.099  0.3938  0.1147 -2.6200
  944MOL0     H24578   8.175   2.661   6.105  2.9042 -0.7889 -2.0697
  944MOL0     H24579   8.052   2.573   6.189  0.9264  1.1962  1.7136
  944MOL0     H24580   8.124   2.561   5.901  0.2338 -1.5037  1.7287
  944MOL0     H24581   8.031   2.426   5.971 -0.1447 -1.4725 -0.0169
  944MOL0     H24582   7.898   2.615   5.853  3.9339 -0.4962 -0.8996
  944MOL0     H24583   7.943   2.714   5.990  0.7616  0.0585  1.8620
  944MOL0     H24584   7.836   2.565   6.146 -0.6568 -2.0500 -0.3349
  944MOL0     H24585   7.804   2.446   6.025  0.1380 -0.0895  0.1090
  944MOL0     H24586   7.623   2.598   5.937 -0.5978  0.4870 -0.4262
  944MOL0     H24587   7.620   2.580   6.107  2.0486 -3.7717 -1.8481
  944MOL0     H24588   7.558   2.804   6.019  0.6360  1.9672 -0.0547
  944MOL0     H24589   7.716   2.824   5.952  2.1198 -1.6392  0.5604
  944MOL0     H24590   8.585   2.609   6.061 -0.6861 -0.9275 -1.1434
  944MOL0     H24591   8.793   2.666   6.156 -0.8046  1.0881  0.4007
  944MOL0     H24592   9.207   2.431   6.369  0.8736 -1.6754  2.4588
  944MOL0     H24593   9.408   2.471   6.444  0.7453  0.8032 -2.8740
  944MOL0     H24594  10.944   2.384   7.735  0.5165 -0.4656 -3.7864
  944MOL0     H24595  11.133   2.485   7.861  1.4116  0.6449 -1.2937
  944MOL0     H24596  11.401   2.855   7.950 -1.1685 -0.9359  0.6576
  944MOL0     H24597  11.565   2.983   8.075 -1.4740 -0.5245 -2.1003
  944MOL0     H24598  11.438   3.187   8.467  0.8839  1.3979  0.9497
  944MOL0     H24599  11.494   3.297   8.353 -1.0974  1.0065  2.7524
  944MOL0     H24600  11.733   3.262   8.406  1.1461  1.4930  2.1040
  944MOL0     H24601  11.626   3.320   8.532  0.5441  0.7637 -0.9992
  944MOL0     H24602  11.611   3.038   8.578 -0.1680  0.7996 -0.5752
  944MOL0     H24603  11.732   3.158   8.655  1.6844 -0.1310 -0.7711
  944MOL0     H24604  11.814   2.932   8.548  3.4066  1.6906  1.2729
  944MOL0     H24605  11.766   3.003   8.386  0.2292 -0.6071 -0.5591
  944MOL0     H24606  12.150   3.145   8.513  0.4361  0.5096  1.7364
  944MOL0     H24607  11.282   3.087   8.370  1.6132  0.5358  0.1153
  944MOL0     H24608  11.108   2.974   8.250  0.4625 -0.0852  0.4676
  945MOL0     O24609   4.753   0.973   3.853  0.0967 -0.4870 -0.2094
  945MOL0     C24610   4.691   1.061   3.790 -0.1306  0.0899 -0.0846
  945MOL0     O24611   4.555   1.068   3.790  0.5606 -0.2103  0.4414
  945MOL0     C24612   4.470   0.990   3.863  0.4691 -0.0497 -0.3636
  945MOL0     C24613   4.349   0.948   3.800  0.4468 -0.2797  0.4337
  945MOL0     C24614   4.251   0.886   3.875 -0.5304 -0.0952 -0.1076
  945MOL0     C24615   4.270   0.859   4.007 -0.1832  0.1090 -0.2143
  945MOL0     O24616   4.155   0.812   4.072  0.4387 -0.2826 -0.4201
  945MOL0     C24617   4.168   0.717   4.188 -0.6489  0.2802 -0.4461
  945MOL0     C24618   4.044   0.727   4.268 -0.3979  0.9718 -0.7180
  945MOL0     C24619   3.923   0.670   4.197  0.5283 -0.0515  0.2557
  945MOL0     C24620   3.818   0.653   4.307 -0.2996  0.6943 -1.4377
  945MOL0     C24621   3.691   0.576   4.259 -0.1317  0.6557  0.3823
  945MOL0     C24622   3.569   0.581   4.362  0.7308  1.1073  0.7350
  945MOL0     C24623   3.452   0.497   4.317  0.2963  0.2274 -0.3990
  945MOL0     C24624   3.326   0.512   4.395 -0.3735  0.1357 -0.2759
  945MOL0     N24625   3.347   0.493   4.539  0.3798 -0.1505  0.4297
  945MOL0     C24626   3.416   0.386   4.592  0.3179 -0.1767 -0.7142
  945MOL0     C24627   3.426   0.423   4.725 -0.1454 -0.4207  0.3589
  945MOL0     C24628   3.495   0.341   4.822 -0.9003  0.4886  0.3524
  945MOL0     C24629   3.653   0.370   4.826  0.1105 -0.1349 -0.8867
  945MOL0     C24630   3.674   0.509   4.885 -1.0796 -0.2232 -0.1383
  945MOL0     C24631   3.833   0.525   4.921  0.9125 -0.0392  0.3038
  945MOL0     O24632   3.920   0.474   4.822 -0.2786  0.2212  0.0231
  945MOL0     C24633   4.047   0.515   4.841  0.1016  0.6746  0.2888
  945MOL0     C24634   4.131   0.414   4.881  0.6485  0.4269 -0.5017
  945MOL0     C24635   4.266   0.452   4.909 -0.7001  0.2177  0.1428
  945MOL0     C24636   4.319   0.579   4.868 -0.2080 -0.6156  0.0133
  945MOL0     C24637   4.465   0.606   4.877  1.9322 -0.2538  0.9310
  945MOL0     O24638   4.498   0.733   4.831  0.5549  0.3330  0.9154
  945MOL0     C24639   4.628   0.753   4.797 -0.2650 -0.3814 -0.3001
  945MOL0     C24640   4.710   0.667   4.725  0.4950  0.1552 -0.1898
  945MOL0     C24641   4.827   0.711   4.672 -0.1699 -0.4309 -0.4113
  945MOL0     C24642   4.877   0.830   4.712  0.6683 -1.3023  0.3919
  945MOL0     O24643   5.004   0.853   4.670 -0.1677 -0.5136  0.1052
  945MOL0     C24644   5.067   0.981   4.688  0.7898  0.0439 -1.0929
  945MOL0     C24645   5.195   0.989   4.601  0.2928 -0.0347  0.0289
  945MOL0     C24646   5.258   1.125   4.614 -0.0573  0.5904 -0.1436
  945MOL0     C24647   5.381   1.150   4.524 -0.1389 -0.0379 -0.3437
  945MOL0     C24648   5.513   1.098   4.558 -0.8172  1.2356 -0.5403
  945MOL0     C24649   5.565   1.178   4.684  0.3817  0.5846  0.4488
  945MOL0     C24650   5.714   1.137   4.717  0.1684 -0.1312  0.4740
  945MOL0     C24651   5.756   1.205   4.844 -1.0900  0.4726 -0.2143
  945MOL0    Cl24652   5.717   1.386   4.842 -0.4717  0.1673 -0.4746
  945MOL0     C24653   4.797   0.913   4.789 -0.4932 -0.7322  0.3469
  945MOL0     C24654   4.665   0.884   4.829  0.3650  0.0502  0.0264
  945MOL0     O24655   4.544   0.523   4.916 -0.1891  0.0004  0.6577
  945MOL0     C24656   4.236   0.674   4.817 -0.5964 -0.1831  0.3413
  945MOL0     C24657   4.100   0.641   4.811  0.5089 -0.1761  0.6187
  945MOL0     N24658   3.372   0.550   4.744  0.1690  0.2030 -0.2979
  945MOL0     N24659   3.330   0.590   4.634  0.1351 -0.2425  0.6902
  945MOL0     C24660   4.397   0.881   4.064  0.2839  0.3207  0.0496
  945MOL0     C24661   4.501   0.942   3.997  0.5178  0.7534 -0.7679
  945MOL0     C24662   4.765   1.169   3.727 -0.3897  0.4855  1.0979
  945MOL0     C24663   4.908   1.178   3.745 -1.1545 -0.8784 -0.0237
  945MOL0     C24664   4.979   1.284   3.691 -0.5037 -0.6669 -0.1019
  945MOL0     C24665   4.914   1.384   3.613  0.3531 -0.3690  1.6203
  945MOL0     O24666   4.977   1.499   3.582  0.2154 -0.0444 -0.2428
  945MOL0     C24667   5.094   1.492   3.499 -0.3574 -0.9144 -0.0945
  945MOL0     C24668   5.064   1.513   3.355  0.4535  0.7349 -0.6172
  945MOL0     C24669   5.175   1.492   3.258  0.0580  0.8557  0.5390
  945MOL0     C24670   5.130   1.481   3.111  0.9718  0.9830  0.5736
  945MOL0     C24671   5.250   1.469   3.024 -0.1287  0.7144 -0.0421
  945MOL0     C24672   5.359   1.466   2.972 -1.8618 -0.2491  0.0766
  945MOL0     C24673   4.784   1.363   3.578  0.3240  0.4551  0.1133
  945MOL0     C24674   4.710   1.260   3.634  0.3885 -0.1244  0.1800
  945MOL0     H24675   4.338   0.973   3.695  0.9419  1.3560  0.7406
  945MOL0     H24676   4.159   0.861   3.823 -0.5026 -0.6207  0.0892
  945MOL0     H24677   4.254   0.754   4.245  0.7128 -1.0902 -1.5068
  945MOL0     H24678   4.187   0.620   4.139 -0.6118  0.6015 -1.0776
  945MOL0     H24679   4.031   0.835   4.278  1.0250  0.9961  1.7072
  945MOL0     H24680   4.050   0.684   4.368 -1.4483 -1.5412 -1.6523
  945MOL0     H24681   3.943   0.573   4.151 -0.4173  0.1647 -0.6698
  945MOL0     H24682   3.871   0.739   4.129  1.1582 -0.8485 -1.0768
  945MOL0     H24683   3.864   0.590   4.384  0.6784  1.3676 -1.4495
  945MOL0     H24684   3.798   0.746   4.360 -1.7781  0.0744 -0.8500
  945MOL0     H24685   3.722   0.472   4.243  0.8439  0.7913  1.2847
  945MOL0     H24686   3.659   0.603   4.157 -0.0609  0.1778  0.2296
  945MOL0     H24687   3.530   0.680   4.385  0.5000  1.5033 -1.2363
  945MOL0     H24688   3.609   0.537   4.455 -3.2367 -2.2801  1.1606
  945MOL0     H24689   3.431   0.506   4.210  0.2625 -1.9563 -0.6179
  945MOL0     H24690   3.465   0.391   4.336 -2.0454  0.0286  0.4145
  945MOL0     H24691   3.250   0.445   4.353  2.3239 -1.6808 -2.6370
  945MOL0     H24692   3.285   0.613   4.385  1.6618  1.0824  0.3111
  945MOL0     H24693   3.453   0.300   4.537 -0.3087 -1.0828  0.2455
  945MOL0     H24694   3.481   0.238   4.787 -0.6051  1.1367 -1.7476
  945MOL0     H24695   3.442   0.362   4.916  0.1931  2.4131  0.5767
  945MOL0     H24696   3.704   0.369   4.729  0.4525  1.4093 -0.7534
  945MOL0     H24697   3.699   0.294   4.890 -0.0691  0.2012 -0.3475
  945MOL0     H24698   3.643   0.581   4.807  0.9625 -1.3675 -2.1387
  945MOL0     H24699   3.610   0.524   4.972 -1.1674  2.9382 -0.6157
  945MOL0     H24700   3.866   0.475   5.013  2.4597 -1.1463 -0.7948
  945MOL0     H24701   3.845   0.633   4.931 -0.2340 -0.1072  3.0599
  945MOL0     H24702   4.088   0.314   4.885 -0.0093  0.7443  0.9199
  945MOL0     H24703   4.317   0.374   4.965  0.3342  2.6214  2.7610
  945MOL0     H24704   4.682   0.565   4.702 -0.3922 -0.6989  3.9756
  945MOL0     H24705   4.902   0.654   4.619  0.1121 -0.6217  0.1898
  945MOL0     H24706   5.080   0.996   4.795 -0.7334  1.2543 -1.0350
  945MOL0     H24707   5.000   1.064   4.662 -0.3613 -0.2769  0.6991
  945MOL0     H24708   5.164   0.966   4.499 -0.7312  1.7946 -0.1230
  945MOL0     H24709   5.270   0.910   4.614  3.0269  2.4692  0.6755
  945MOL0     H24710   5.282   1.139   4.720 -1.4306 -1.2811  0.4707
  945MOL0     H24711   5.188   1.206   4.591 -0.6077  0.5329  1.2311
  945MOL0     H24712   5.353   1.110   4.426  1.0397  3.3389 -2.2227
  945MOL0     H24713   5.395   1.254   4.495 -1.5873  0.2756  0.0059
  945MOL0     H24714   5.593   1.104   4.484  3.5587 -0.7999  3.4403
  945MOL0     H24715   5.509   0.990   4.578 -2.0122  1.4650  0.5880
  945MOL0     H24716   5.506   1.155   4.773  0.5649  2.7477  1.2054
  945MOL0     H24717   5.562   1.286   4.670 -1.1254  1.1824  4.1590
  945MOL0     H24718   5.722   1.029   4.730 -1.6002 -0.2952  0.4487
  945MOL0     H24719   5.783   1.169   4.639 -1.3182  2.7187  0.1986
  945MOL0     H24720   5.862   1.188   4.863 -1.1924  0.9701  0.8589
  945MOL0     H24721   5.709   1.151   4.927  0.6100  1.1380  1.2396
  945MOL0     H24722   4.830   1.009   4.830  0.5936 -0.9809  0.1015
  945MOL0     H24723   4.598   0.953   4.878 -0.2721 -0.4657 -0.1129
  945MOL0     H24724   4.268   0.773   4.785 -0.8137 -1.1968 -3.4307
  945MOL0     H24725   4.031   0.714   4.770  0.2961 -0.5776  0.2553
  945MOL0     H24726   4.416   0.853   4.167  0.7749  1.6049  0.3370
  945MOL0     H24727   4.585   0.979   4.055  0.6952 -1.8774  0.8436
  945MOL0     H24728   4.962   1.105   3.804 -2.1134  0.1250  2.2254
  945MOL0     H24729   5.086   1.295   3.702 -0.7201 -0.5017  2.4392
  945MOL0     H24730   5.144   1.394   3.508 -1.4977 -1.6819 -1.5788
  945MOL0     H24731   5.178   1.550   3.537  2.2198 -3.2834 -1.7552
  945MOL0     H24732   4.974   1.451   3.343 -0.2173  1.1377  1.8206
  945MOL0     H24733   5.030   1.614   3.335  2.8091  1.3460 -1.9443
  945MOL0     H24734   5.230   1.400   3.281  1.0954  0.5316 -2.6711
  945MOL0     H24735   5.246   1.575   3.269  0.3915  0.5512  0.7025
  945MOL0     H24736   5.075   1.386   3.113  0.3328  1.2668 -1.3403
  945MOL0     H24737   5.072   1.568   3.081 -2.3296 -1.2841 -0.0843
  945MOL0     H24738   5.453   1.467   2.920 -0.9577  3.7181  1.3630
  945MOL0     H24739   4.742   1.435   3.509  1.4552  0.0006 -1.0809
  945MOL0     H24740   4.602   1.257   3.618  0.6445 -1.6155 -1.5944
  946MOL0     O24741  10.691   4.445   8.341 -0.8689  0.3782  0.1653
  946MOL0     C24742  10.715   4.500   8.233  0.1413 -0.2470  0.1629
  946MOL0     O24743  10.624   4.517   8.132 -0.2492  0.4729  0.2388
  946MOL0     C24744  10.501   4.464   8.139  0.1575  0.2797  0.6034
  946MOL0     C24745  10.469   4.340   8.199 -0.0707  0.9707 -0.4586
  946MOL0     C24746  10.335   4.291   8.186 -0.6545  0.0509  0.3001
  946MOL0     C24747  10.230   4.363   8.124  0.3832  0.7584  0.1880
  946MOL0     O24748  10.105   4.314   8.105 -0.5785 -0.5390 -0.0286
  946MOL0     C24749  10.103   4.173   8.121  0.2848 -0.0775  0.6885
  946MOL0     C24750   9.977   4.119   8.060  0.1581  0.1719  0.6428
  946MOL0     C24751   9.844   4.152   8.135 -0.8712  0.2052  0.9269
  946MOL0     C24752   9.780   4.033   8.215  0.2344 -0.8400 -0.0051
  946MOL0     C24753   9.645   4.076   8.283 -0.4674 -0.5100 -0.5796
  946MOL0     C24754   9.632   4.024   8.428  0.1110  0.4166  0.6256
  946MOL0     C24755   9.481   4.012   8.459  0.2197 -0.6165  1.5316
  946MOL0     C24756   9.413   4.151   8.481 -0.9724  0.6624 -0.1735
  946MOL0     N24757   9.289   4.117   8.557  0.2590  0.4873 -0.0049
  946MOL0     C24758   9.284   4.110   8.695 -0.2751 -0.5363 -0.4771
  946MOL0     C24759   9.156   4.112   8.723  0.3676 -0.1681  0.2347
  946MOL0     C24760   9.111   4.072   8.859 -0.2169  0.3066 -0.0193
  946MOL0     C24761   9.141   3.929   8.891 -0.0817 -0.2994 -0.4161
  946MOL0     C24762   9.101   3.888   9.032  0.0863 -0.3639  0.8827
  946MOL0     C24763   8.948   3.863   9.035  0.7590 -1.0237  0.1057
  946MOL0     O24764   8.925   3.839   9.177  0.3149  0.2008  0.1048
  946MOL0     C24765   8.800   3.790   9.201  0.0805 -0.6165 -0.1252
  946MOL0     C24766   8.704   3.872   9.260 -0.3785 -0.2920 -0.3387
  946MOL0     C24767   8.569   3.832   9.293 -1.0142 -0.3497 -0.1407
  946MOL0     C24768   8.540   3.695   9.272  0.2224  0.2069 -0.3656
  946MOL0     C24769   8.400   3.646   9.302 -0.8159  0.2520  0.5129
  946MOL0     O24770   8.301   3.735   9.295 -0.3522 -0.1349  0.0172
  946MOL0     C24771   8.177   3.684   9.295  0.9756  0.6696  0.2835
  946MOL0     C24772   8.093   3.709   9.407  0.1038 -1.0544 -0.6465
  946MOL0     C24773   7.958   3.683   9.407 -0.4626 -0.3752 -0.2687
  946MOL0     C24774   7.903   3.619   9.298  0.3793 -0.5212 -0.0502
  946MOL0     O24775   7.776   3.576   9.288 -0.0286  0.9679 -0.4574
  946MOL0     C24776   7.682   3.647   9.361 -0.1343  0.8586 -0.2074
  946MOL0     C24777   7.550   3.648   9.289  0.4240  0.1587 -0.0900
  946MOL0     C24778   7.430   3.641   9.386  0.4368 -0.4489  0.0864
  946MOL0     C24779   7.303   3.644   9.306 -0.0452 -0.3567  0.9681
  946MOL0     C24780   7.171   3.592   9.382 -0.5763 -0.3606  0.5808
  946MOL0     C24781   7.054   3.613   9.285 -0.1516 -0.3443  0.2401
  946MOL0     C24782   6.922   3.564   9.341  1.0414 -0.4121 -0.5951
  946MOL0     C24783   6.806   3.614   9.258  0.0786 -0.5246 -0.0694
  946MOL0    Cl24784   6.659   3.537   9.331  0.5017  0.5708  0.1832
  946MOL0     C24785   7.978   3.584   9.189 -0.2289  0.7536  0.5587
  946MOL0     C24786   8.114   3.606   9.189  0.5179 -0.1347 -0.2433
  946MOL0     O24787   8.388   3.525   9.326  0.7057 -0.5013  0.0384
  946MOL0     C24788   8.630   3.608   9.215 -0.2934  0.7877  0.6825
  946MOL0     C24789   8.764   3.653   9.184 -0.1125 -0.4148  0.4254
  946MOL0     N24790   9.082   4.103   8.608  0.0832  0.3727 -0.2591
  946MOL0     N24791   9.165   4.106   8.502  0.6967  0.0246 -0.9480
  946MOL0     C24792  10.264   4.493   8.076 -0.1599 -0.8199  0.6160
  946MOL0     C24793  10.400   4.533   8.071  0.2796 -0.2780  0.3112
  946MOL0     C24794  10.854   4.517   8.194  0.4306 -0.2141  0.5543
  946MOL0     C24795  10.887   4.545   8.056 -0.2635  1.1152  1.0607
  946MOL0     C24796  11.024   4.538   8.025 -0.3507 -0.2790 -0.0056
  946MOL0     C24797  11.126   4.517   8.124  0.4042  0.2363  0.5237
  946MOL0     O24798  11.260   4.525   8.088  1.2973 -0.0666 -0.2581
  946MOL0     C24799  11.304   4.617   7.978  0.4769  0.9780  0.6811
  946MOL0     C24800  11.279   4.760   8.001  0.2647  0.6081  0.8329
  946MOL0     C24801  11.338   4.838   7.886  0.3124 -0.6803 -0.4346
  946MOL0     C24802  11.490   4.830   7.869 -0.1412 -0.3126  0.4056
  946MOL0     C24803  11.538   4.970   7.860  0.4884 -0.0095  0.4962
  946MOL0     C24804  11.594   5.082   7.868  0.0630  0.1300 -0.0907
  946MOL0     C24805  11.083   4.487   8.255 -0.2446  1.1146  0.4658
  946MOL0     C24806  10.953   4.474   8.285 -0.4574 -0.0246 -0.4003
  946MOL0     H24807  10.532   4.275   8.258 -3.7244 -3.2798 -0.6504
  946MOL0     H24808  10.312   4.198   8.238 -3.4094  0.8134  0.6310
  946MOL0     H24809  10.106   4.152   8.228  0.5739  1.8086  1.0917
  946MOL0     H24810  10.194   4.131   8.078  0.3651 -2.9302  3.3352
  946MOL0     H24811   9.977   4.013   8.036  2.1943  0.7740 -2.7079
  946MOL0     H24812   9.965   4.172   7.965  2.0270  1.3542  1.0130
  946MOL0     H24813   9.776   4.201   8.065 -1.6324 -2.8595 -0.6555
  946MOL0     H24814   9.872   4.227   8.210  1.5211 -1.2119  1.5791
  946MOL0     H24815   9.767   3.950   8.144  3.9309  0.3405 -2.3434
  946MOL0     H24816   9.845   4.000   8.296 -0.8059  2.7385  2.5260
  946MOL0     H24817   9.549   4.062   8.231 -1.3099  0.3724  0.6714
  946MOL0     H24818   9.638   4.184   8.297  0.3962 -0.0064 -3.5370
  946MOL0     H24819   9.685   4.084   8.501 -1.5408 -0.3627  2.5698
  946MOL0     H24820   9.682   3.927   8.443 -1.4991 -0.9276 -1.8220
  946MOL0     H24821   9.417   3.966   8.384  1.1671 -1.0670  0.9892
  946MOL0     H24822   9.468   3.939   8.539  1.0338 -1.7629  0.6480
  946MOL0     H24823   9.398   4.203   8.386  2.0059  1.0626 -0.5269
  946MOL0     H24824   9.465   4.221   8.547 -0.0640 -2.0126  2.1524
  946MOL0     H24825   9.353   4.120   8.777 -0.0480 -1.4370 -0.5410
  946MOL0     H24826   9.002   4.077   8.867 -0.1115  2.0176  0.8493
  946MOL0     H24827   9.149   4.153   8.922  1.4204  1.3718 -2.2136
  946MOL0     H24828   9.249   3.912   8.887 -0.1691 -0.8060 -0.6725
  946MOL0     H24829   9.101   3.867   8.810  1.3987 -0.6777 -0.8934
  946MOL0     H24830   9.154   3.796   9.057 -2.0895 -2.5167 -1.7598
  946MOL0     H24831   9.130   3.962   9.107  1.7777  1.4704 -1.4237
  946MOL0     H24832   8.924   3.775   8.974 -1.4655 -2.4510  2.8062
  946MOL0     H24833   8.889   3.949   9.002  3.5405  0.8663 -0.2827
  946MOL0     H24834   8.737   3.973   9.283  0.5322 -0.7999  0.6815
  946MOL0     H24835   8.492   3.904   9.318 -2.4138 -1.6333 -0.6404
  946MOL0     H24836   8.150   3.772   9.474  1.8578 -0.8902 -2.1999
  946MOL0     H24837   7.893   3.712   9.489 -2.2985 -0.4201 -1.6377
  946MOL0     H24838   7.709   3.749   9.390  1.8190 -0.2144  2.0757
  946MOL0     H24839   7.661   3.603   9.459  0.9049  1.4063  0.2832
  946MOL0     H24840   7.552   3.566   9.217  3.5639  2.7147 -3.2999
  946MOL0     H24841   7.553   3.738   9.226  2.9520 -0.1538 -0.5284
  946MOL0     H24842   7.425   3.727   9.453  0.3967 -1.9021  2.0343
  946MOL0     H24843   7.428   3.546   9.440 -0.6086 -0.1247  0.6324
  946MOL0     H24844   7.287   3.738   9.253 -0.1189 -2.3836 -2.9600
  946MOL0     H24845   7.315   3.586   9.214  0.1559 -0.3735  1.0041
  946MOL0     H24846   7.153   3.634   9.482  1.1620  0.3655  0.6374
  946MOL0     H24847   7.170   3.485   9.403 -1.5959 -0.3419  0.6755
  946MOL0     H24848   7.061   3.536   9.207  0.1154 -1.6000  1.4677
  946MOL0     H24849   7.058   3.713   9.240  0.5232  0.4319  1.9230
  946MOL0     H24850   6.912   3.455   9.340 -1.5985 -0.2175 -1.1592
  946MOL0     H24851   6.919   3.607   9.442 -2.4351  0.2699 -0.8839
  946MOL0     H24852   6.823   3.580   9.155  1.4431  2.3319 -0.8950
  946MOL0     H24853   6.804   3.723   9.255  0.6934 -0.5267 -1.5401
  946MOL0     H24854   7.924   3.542   9.104 -1.5406  2.7193  0.3344
  946MOL0     H24855   8.167   3.575   9.099  1.8940  0.7043  0.2608
  946MOL0     H24856   8.605   3.504   9.200  0.1281  0.8466 -0.4819
  946MOL0     H24857   8.837   3.578   9.155  1.0425  0.5791  0.6773
  946MOL0     H24858  10.182   4.559   8.047  0.7199  0.1179  0.1890
  946MOL0     H24859  10.414   4.627   8.018 -2.2492 -1.3895 -2.7141
  946MOL0     H24860  10.806   4.571   7.988 -0.9593 -0.9020  1.0352
  946MOL0     H24861  11.046   4.549   7.920 -0.3203 -1.4565 -0.1450
  946MOL0     H24862  11.263   4.591   7.879  0.0341  1.4014  0.7523
  946MOL0     H24863  11.412   4.601   7.968  0.4662  0.1937  1.6837
  946MOL0     H24864  11.170   4.771   8.000  0.3851  2.5458 -2.0229
  946MOL0     H24865  11.319   4.790   8.098  3.0545 -1.9673  0.6560
  946MOL0     H24866  11.316   4.944   7.895  0.8772 -0.6856  1.5166
  946MOL0     H24867  11.296   4.799   7.793 -4.5304  2.2559  0.2117
  946MOL0     H24868  11.531   4.787   7.961  0.5326 -3.6225 -1.2758
  946MOL0     H24869  11.537   4.767   7.792  2.5670  1.3262  0.5881
  946MOL0     H24870  11.653   5.172   7.870  0.5683 -0.2074  0.2899
  946MOL0     H24871  11.154   4.453   8.330  0.0857  0.9823  0.0962
  946MOL0     H24872  10.911   4.454   8.383 -0.2825  1.3656 -0.0244
  947MOL0     O24873   9.464   4.262   0.694 -0.2344 -0.5043 -0.1326
  947MOL0     C24874   9.539   4.237   0.788 -0.0476 -0.1451 -0.7520
  947MOL0     O24875   9.498   4.199   0.914 -0.0965 -0.8287  0.0786
  947MOL0     C24876   9.365   4.194   0.938  0.8302  0.5693  0.0940
  947MOL0     C24877   9.305   4.066   0.951  0.3023 -0.0990  1.1429
  947MOL0     C24878   9.179   4.049   1.025 -0.8674  0.0340  1.5323
  947MOL0     C24879   9.119   4.157   1.086  0.4124  0.5764 -0.4258
  947MOL0     O24880   8.998   4.114   1.151 -0.1757 -0.1022 -0.2548
  947MOL0     C24881   8.945   4.195   1.262  1.0017 -0.3824 -0.1510
  947MOL0     C24882   8.967   4.123   1.390 -0.3780 -0.1775 -1.0291
  947MOL0     C24883   9.115   4.118   1.436 -0.2273 -0.5974  0.1974
  947MOL0     C24884   9.134   4.029   1.553 -0.3460 -0.4451 -0.4310
  947MOL0     C24885   9.125   3.872   1.527 -0.3995  0.3160  0.1788
  947MOL0     C24886   9.192   3.835   1.396  0.7848  0.5920 -0.0125
  947MOL0     C24887   9.203   3.675   1.393 -0.0327 -0.9155 -0.9799
  947MOL0     C24888   9.270   3.625   1.273 -0.1955 -0.0600 -0.6221
  947MOL0     N24889   9.176   3.578   1.163  0.3418 -0.3351  0.1271
  947MOL0     C24890   9.103   3.465   1.184  1.1002 -0.4437 -0.3668
  947MOL0     C24891   9.061   3.434   1.057 -1.1144 -0.3923 -0.3851
  947MOL0     C24892   8.991   3.306   1.029 -0.0221 -0.2209  0.4576
  947MOL0     C24893   9.055   3.219   0.921  0.1579  0.6542 -0.1832
  947MOL0     C24894   8.963   3.131   0.834 -0.1424 -0.2183 -0.8614
  947MOL0     C24895   8.874   3.046   0.921  0.6902  0.4354  1.0181
  947MOL0     O24896   8.955   2.978   1.017 -0.0693 -0.5185  0.4888
  947MOL0     C24897   8.996   2.847   0.992 -0.0944 -1.3496  0.4022
  947MOL0     C24898   9.019   2.795   0.866  0.9632  0.2889 -1.1900
  947MOL0     C24899   9.057   2.666   0.860 -0.3278  0.0687 -0.2845
  947MOL0     C24900   9.094   2.579   0.964 -1.1962  0.0598 -0.0750
  947MOL0     C24901   9.117   2.443   0.943  0.0414  0.7777 -0.4939
  947MOL0     O24902   9.156   2.364   1.054  0.9569 -0.3720  0.6312
  947MOL0     C24903   9.189   2.232   1.031 -1.4015 -0.1278  0.2759
  947MOL0     C24904   9.316   2.200   1.082 -0.2153 -0.3010  0.4490
  947MOL0     C24905   9.361   2.067   1.059  0.1821 -0.0417 -1.6014
  947MOL0     C24906   9.271   1.969   1.012 -0.4276 -0.0518 -0.3833
  947MOL0     O24907   9.322   1.842   1.006  0.0013  0.7892 -0.5319
  947MOL0     C24908   9.249   1.730   1.074  0.2266 -1.8086  0.6652
  947MOL0     C24909   9.338   1.666   1.178 -0.4740 -0.9878  0.1052
  947MOL0     C24910   9.443   1.577   1.118 -0.3487 -0.6460  0.4434
  947MOL0     C24911   9.540   1.531   1.226 -0.4885 -0.5254 -0.6180
  947MOL0     C24912   9.682   1.498   1.154 -0.2971  0.9881 -0.4860
  947MOL0     C24913   9.801   1.509   1.245  0.0333  0.3356 -0.3102
  947MOL0     C24914   9.930   1.470   1.174 -0.6481 -0.1569 -0.5649
  947MOL0     C24915  10.054   1.512   1.254  0.3927 -0.2018 -0.8819
  947MOL0    Cl24916  10.067   1.687   1.286  0.1497 -0.3987 -0.2261
  947MOL0     C24917   9.144   2.010   0.959 -0.0566  0.5233 -0.2988
  947MOL0     C24918   9.100   2.142   0.972 -0.5104 -0.8979 -1.7794
  947MOL0     O24919   9.115   2.399   0.827 -0.5011 -0.9410 -0.3949
  947MOL0     C24920   9.075   2.638   1.089 -0.0404  0.6892 -0.4501
  947MOL0     C24921   9.029   2.775   1.104 -0.6187 -0.2930 -1.1626
  947MOL0     N24922   9.109   3.532   0.963 -0.0502 -0.1922  0.5181
  947MOL0     N24923   9.176   3.620   1.030 -0.5674 -0.0754  0.3171
  947MOL0     C24924   9.172   4.287   1.079 -0.5510  0.7445 -0.5543
  947MOL0     C24925   9.284   4.299   0.990 -0.8664 -0.0400 -0.2010
  947MOL0     C24926   9.677   4.246   0.755  0.0308 -0.0373 -0.3590
  947MOL0     C24927   9.714   4.227   0.629  1.0616  0.0436 -0.5652
  947MOL0     C24928   9.850   4.229   0.593  0.2029 -0.3327  0.3658
  947MOL0     C24929   9.945   4.251   0.686 -0.1015  0.5732 -0.1060
  947MOL0     O24930  10.074   4.252   0.648  0.7492 -0.1683 -0.2450
  947MOL0     C24931  10.169   4.210   0.746  0.3328 -0.2027  0.3413
  947MOL0     C24932  10.307   4.189   0.677 -0.8730 -0.0535 -0.0811
  947MOL0     C24933  10.304   4.065   0.576  0.4069  0.0446  0.3585
  947MOL0     C24934  10.339   4.106   0.435  0.2176  0.0583 -1.0418
  947MOL0     C24935  10.250   4.213   0.388  0.3697  0.9685 -0.0272
  947MOL0     C24936  10.166   4.295   0.356 -0.4207 -0.3848  0.7301
  947MOL0     C24937   9.908   4.276   0.817  0.3319 -0.2291 -0.1534
  947MOL0     C24938   9.771   4.262   0.858  0.6326 -1.3592  0.5076
  947MOL0     H24939   9.372   3.991   0.911  0.2114  0.8705 -1.0028
  947MOL0     H24940   9.132   3.952   1.011 -2.0510  1.0086 -2.7300
  947MOL0     H24941   8.843   4.233   1.248  1.7396  0.9020 -2.7894
  947MOL0     H24942   9.002   4.287   1.279 -0.3489  0.5269 -0.3861
  947MOL0     H24943   8.921   4.024   1.379 -1.0781 -0.0463  0.4623
  947MOL0     H24944   8.919   4.173   1.475 -1.2353  0.3208 -1.7816
  947MOL0     H24945   9.161   4.214   1.459  2.0197 -1.1324 -1.5672
  947MOL0     H24946   9.173   4.071   1.356 -0.9572 -0.8045 -0.2189
  947MOL0     H24947   9.234   4.066   1.580 -0.6017 -1.0196  1.4093
  947MOL0     H24948   9.072   4.062   1.636  2.4062 -0.5555  1.8163
  947MOL0     H24949   9.021   3.838   1.514  0.8180 -4.5403  0.9821
  947MOL0     H24950   9.167   3.823   1.615  1.1276  0.8392 -0.2324
  947MOL0     H24951   9.292   3.878   1.407 -0.0368  2.3396  0.9771
  947MOL0     H24952   9.141   3.877   1.309  2.8567 -0.3621 -1.7925
  947MOL0     H24953   9.243   3.638   1.488 -0.7622  0.6337 -0.0366
  947MOL0     H24954   9.105   3.627   1.397 -0.3435 -0.4520  4.1892
  947MOL0     H24955   9.338   3.543   1.298  1.6101  0.9892 -1.8350
  947MOL0     H24956   9.344   3.690   1.225  1.5348 -2.3043 -1.1976
  947MOL0     H24957   9.103   3.389   1.261 -0.8686 -1.1569 -1.0200
  947MOL0     H24958   8.890   3.335   0.999 -0.8922 -1.7125  1.7945
  947MOL0     H24959   8.980   3.254   1.124  0.7050  0.2265  0.7914
  947MOL0     H24960   9.127   3.156   0.973  0.3785  1.6682  0.7683
  947MOL0     H24961   9.118   3.286   0.861  0.9587  0.9057  0.9100
  947MOL0     H24962   8.899   3.195   0.773 -1.6398 -1.5825 -0.8071
  947MOL0     H24963   9.035   3.073   0.776  1.0685 -2.3158  2.4136
  947MOL0     H24964   8.824   2.977   0.852  1.4749  1.6756 -0.8835
  947MOL0     H24965   8.803   3.112   0.970  0.7349  0.5088  0.9847
  947MOL0     H24966   9.006   2.854   0.776 -3.5537 -0.2617 -1.1307
  947MOL0     H24967   9.051   2.620   0.762  0.7949  1.8400 -1.2217
  947MOL0     H24968   9.373   2.277   1.133  1.4308  0.4196 -2.2549
  947MOL0     H24969   9.460   2.042   1.096 -0.7745  0.0221  1.2220
  947MOL0     H24970   9.225   1.657   0.996 -1.2372  2.3081 -3.2025
  947MOL0     H24971   9.159   1.767   1.124 -0.3590 -2.7243  0.3149
  947MOL0     H24972   9.276   1.603   1.242  0.4408 -0.1713  1.8638
  947MOL0     H24973   9.391   1.739   1.240 -0.4170 -0.3430 -0.6742
  947MOL0     H24974   9.488   1.643   1.043 -1.7823 -0.9236 -0.7032
  947MOL0     H24975   9.402   1.490   1.067 -2.9508 -1.9147  4.2889
  947MOL0     H24976   9.563   1.602   1.306  2.6613 -1.4178 -0.5745
  947MOL0     H24977   9.498   1.446   1.281 -2.4002  1.9920  2.1429
  947MOL0     H24978   9.706   1.565   1.071 -0.7884  1.0325 -0.5920
  947MOL0     H24979   9.670   1.396   1.118  0.6159  0.0837  1.6027
  947MOL0     H24980   9.780   1.452   1.337 -4.9948  3.6763  1.0145
  947MOL0     H24981   9.815   1.614   1.270  4.4572 -0.4588  1.4359
  947MOL0     H24982   9.928   1.360   1.169 -4.3371 -0.4778  2.7921
  947MOL0     H24983   9.937   1.504   1.070 -0.6893  2.0721  0.1125
  947MOL0     H24984  10.134   1.473   1.190  0.7080 -0.0364 -0.5894
  947MOL0     H24985  10.071   1.454   1.345 -0.6823  2.5560  1.2092
  947MOL0     H24986   9.081   1.932   0.917 -2.1404  0.5414  2.5342
  947MOL0     H24987   8.999   2.174   0.947 -0.9491 -1.0833 -0.3400
  947MOL0     H24988   9.089   2.573   1.175 -0.9447  2.7015  1.3185
  947MOL0     H24989   9.002   2.826   1.196  0.5901  0.5541 -1.2484
  947MOL0     H24990   9.146   4.378   1.132 -0.5700 -1.0761  2.8319
  947MOL0     H24991   9.323   4.400   0.983  1.5782 -1.0246 -1.9637
  947MOL0     H24992   9.641   4.220   0.549 -1.2074 -1.1980  1.4829
  947MOL0     H24993   9.890   4.218   0.492  2.6934 -1.8169  1.3987
  947MOL0     H24994  10.133   4.118   0.793 -1.0565  0.3850  0.4600
  947MOL0     H24995  10.173   4.291   0.820  1.0501  2.2293 -2.1982
  947MOL0     H24996  10.340   4.276   0.619 -0.4434 -2.8813 -4.5327
  947MOL0     H24997  10.384   4.171   0.752 -2.7568 -0.2579  1.9191
  947MOL0     H24998  10.203   4.025   0.587  0.2563  1.1498  5.1659
  947MOL0     H24999  10.369   3.983   0.607  0.5006 -0.1978 -0.4548
  947MOL0     H25000  10.443   4.140   0.429  0.1454  1.2099  2.1799
  947MOL0     H25001  10.329   4.022   0.366 -2.2500  1.4536 -2.5144
  947MOL0     H25002  10.116   4.375   0.304 -1.3282 -2.2716 -1.4809
  947MOL0     H25003   9.980   4.299   0.895  0.6893 -5.2497  1.3328
  947MOL0     H25004   9.743   4.278   0.961  1.4373 -0.2113  0.5728
  948MOL0     O25005   4.718   8.576   0.938  0.9037  0.5085 -0.5491
  948MOL0     C25006   4.687   8.658   1.027  1.3904 -0.5217  1.2302
  948MOL0     O25007   4.561   8.687   1.065  0.4767  1.0983 -0.0373
  948MOL0     C25008   4.459   8.639   0.986  0.0387 -0.3738  0.2419
  948MOL0     C25009   4.395   8.515   0.993  0.1909 -0.2426  0.3155
  948MOL0     C25010   4.314   8.481   0.875  0.0641  0.1727 -0.8076
  948MOL0     C25011   4.265   8.585   0.793  0.5292  0.7210  0.9635
  948MOL0     O25012   4.180   8.538   0.692  0.5909  0.1923  0.9651
  948MOL0     C25013   4.057   8.609   0.668  0.9617  0.4127  1.0194
  948MOL0     C25014   3.956   8.570   0.769  0.1044 -0.8034  0.2216
  948MOL0     C25015   3.823   8.649   0.752  0.5071  0.5751 -0.1741
  948MOL0     C25016   3.757   8.610   0.617  0.3559 -0.1633 -0.4992
  948MOL0     C25017   3.617   8.681   0.584  0.2419 -0.2536  0.8063
  948MOL0     C25018   3.514   8.640   0.685  0.3278 -0.1000 -0.3543
  948MOL0     C25019   3.398   8.740   0.690  1.2816 -0.0197 -0.1801
  948MOL0     C25020   3.309   8.730   0.561 -0.1061  0.5059  0.8318
  948MOL0     N25021   3.202   8.837   0.559  0.7290  0.7669 -0.6352
  948MOL0     C25022   3.136   8.886   0.664  0.4319 -0.8502 -0.1387
  948MOL0     C25023   3.073   8.999   0.616  0.4577  0.3607 -0.3233
  948MOL0     C25024   2.971   9.071   0.697  0.1757  0.3557 -0.3196
  948MOL0     C25025   2.843   8.994   0.731  0.1559 -0.4551 -0.1463
  948MOL0     C25026   2.761   9.083   0.828  0.4586  0.8925 -0.2589
  948MOL0     C25027   2.645   9.153   0.765  0.4138 -0.0660  0.9261
  948MOL0     O25028   2.540   9.054   0.726 -0.7360 -0.0260 -0.6184
  948MOL0     C25029   2.447   9.015   0.827  0.1229  0.2589  0.9489
  948MOL0     C25030   2.452   9.050   0.966  0.1865 -0.8221 -0.1056
  948MOL0     C25031   2.340   9.028   1.053  0.7488  0.3412  0.3437
  948MOL0     C25032   2.229   8.954   1.010 -0.1344  0.4003 -0.0234
  948MOL0     C25033   2.111   8.922   1.096 -0.5119  0.0339  0.3250
  948MOL0     O25034   2.001   8.857   1.042  0.2429 -0.8270 -0.6829
  948MOL0     C25035   1.923   8.791   1.140 -0.3046 -0.4030 -0.6057
  948MOL0     C25036   1.903   8.651   1.128  0.2151  0.7023 -0.3428
  948MOL0     C25037   1.820   8.581   1.212 -0.0021 -0.1736  0.5240
  948MOL0     C25038   1.745   8.654   1.302  1.1558 -0.2853  0.1256
  948MOL0     O25039   1.651   8.596   1.386  0.0557  0.7422 -0.0553
  948MOL0     C25040   1.685   8.474   1.459  0.7006 -0.4669  0.3388
  948MOL0     C25041   1.567   8.383   1.495  0.6027 -1.6711 -0.6803
  948MOL0     C25042   1.545   8.257   1.409  0.5176  0.7609  0.7722
  948MOL0     C25043   1.517   8.291   1.263 -0.5143 -0.0870 -0.2457
  948MOL0     C25044   1.516   8.176   1.161  0.2856  0.3801 -0.2473
  948MOL0     C25045   1.632   8.077   1.152 -0.9585 -0.4642 -0.3445
  948MOL0     C25046   1.760   8.144   1.118  0.5578  1.1393  1.0475
  948MOL0     C25047   1.769   8.208   0.983  0.0277 -0.1971  0.8912
  948MOL0    Cl25048   1.938   8.257   0.976 -0.0439 -0.0288 -0.0447
  948MOL0     C25049   1.745   8.791   1.309  0.2782 -0.4323 -0.4231
  948MOL0     C25050   1.828   8.859   1.225 -0.2021  0.1724 -0.2427
  948MOL0     O25051   2.130   8.948   1.211 -0.4265 -0.6410 -0.3693
  948MOL0     C25052   2.228   8.921   0.875  0.7686  0.2886  0.9812
  948MOL0     C25053   2.327   8.957   0.783 -0.4088  0.2371 -0.2173
  948MOL0     N25054   3.107   9.012   0.483 -0.2920  0.1887  0.1952
  948MOL0     N25055   3.188   8.912   0.454 -0.4257  0.0139  0.7465
  948MOL0     C25056   4.318   8.708   0.807  0.5628  0.8343 -0.5897
  948MOL0     C25057   4.414   8.739   0.905  0.4839  0.0026  0.0941
  948MOL0     C25058   4.797   8.697   1.121 -0.8137 -0.2951  0.3105
  948MOL0     C25059   4.935   8.698   1.080  0.2415  0.5564 -0.5606
  948MOL0     C25060   5.044   8.719   1.167  0.4584 -0.4727 -0.7825
  948MOL0     C25061   5.012   8.747   1.301 -0.7998  0.1856 -1.4655
  948MOL0     O25062   5.108   8.800   1.386  0.1619 -0.0562  0.2289
  948MOL0     C25063   5.248   8.783   1.375  0.7344  0.2794 -0.0290
  948MOL0     C25064   5.300   8.718   1.506  0.2399  0.3294  0.0187
  948MOL0     C25065   5.236   8.588   1.529  0.2564 -0.4524 -0.4698
  948MOL0     C25066   5.298   8.516   1.648  0.4076 -1.7071  0.1917
  948MOL0     C25067   5.301   8.373   1.626 -0.5757 -0.8439 -0.1149
  948MOL0     C25068   5.298   8.254   1.617 -0.7597 -1.2368  0.8912
  948MOL0     C25069   4.879   8.748   1.342 -0.9058  0.4006 -0.4077
  948MOL0     C25070   4.777   8.719   1.258  0.9324  0.1536  0.2135
  948MOL0     H25071   4.418   8.438   1.066  1.0586 -1.1717 -0.8990
  948MOL0     H25072   4.275   8.381   0.862 -1.5032  0.4543  1.2450
  948MOL0     H25073   4.017   8.585   0.569 -0.5080  0.4634  1.5787
  948MOL0     H25074   4.065   8.716   0.689 -1.8697  0.2816  3.2906
  948MOL0     H25075   3.994   8.580   0.871 -0.2023  1.1957  0.1755
  948MOL0     H25076   3.920   8.468   0.755 -1.7522 -0.2350  0.6219
  948MOL0     H25077   3.826   8.758   0.748  0.7727  0.5541 -3.0876
  948MOL0     H25078   3.766   8.617   0.839  0.6161  1.0590  0.0753
  948MOL0     H25079   3.824   8.645   0.537 -0.4832  2.5962 -0.1105
  948MOL0     H25080   3.737   8.504   0.605  2.4317 -0.6301 -0.2907
  948MOL0     H25081   3.594   8.646   0.483 -2.1743 -2.6184  2.0429
  948MOL0     H25082   3.624   8.790   0.571 -1.9161 -0.3602 -2.6392
  948MOL0     H25083   3.564   8.642   0.782  1.6043  0.2907 -1.0023
  948MOL0     H25084   3.489   8.534   0.674 -1.4988 -0.3677  4.0776
  948MOL0     H25085   3.343   8.710   0.779  0.0956 -0.2041 -0.9447
  948MOL0     H25086   3.424   8.844   0.711  0.4396  0.1883 -0.1109
  948MOL0     H25087   3.277   8.625   0.562  1.1853  0.0251 -1.0554
  948MOL0     H25088   3.376   8.740   0.474 -1.5177 -0.8473 -0.4841
  948MOL0     H25089   3.133   8.860   0.769 -1.6069  0.1023  0.0813
  948MOL0     H25090   2.937   9.162   0.645  0.2855 -1.9518 -4.9333
  948MOL0     H25091   3.013   9.102   0.793  0.5980 -0.9943 -0.0588
  948MOL0     H25092   2.869   8.898   0.777  0.3850  0.1207  0.9501
  948MOL0     H25093   2.784   8.954   0.648 -1.2273  1.9534 -0.4193
  948MOL0     H25094   2.729   9.018   0.911  1.7476  1.2052  0.5287
  948MOL0     H25095   2.810   9.163   0.885 -1.5181  2.1407 -0.2272
  948MOL0     H25096   2.667   9.203   0.670 -2.1706  1.6986  1.1618
  948MOL0     H25097   2.604   9.222   0.839  1.2951  1.1365  0.3496
  948MOL0     H25098   2.547   9.090   1.000 -0.1643  0.6747 -0.7633
  948MOL0     H25099   2.348   9.056   1.157  0.2138 -0.8761  0.7204
  948MOL0     H25100   1.955   8.598   1.049 -2.4975 -0.9203 -1.1668
  948MOL0     H25101   1.817   8.473   1.200  0.8470 -0.3457  1.6487
  948MOL0     H25102   1.724   8.513   1.554 -0.5393 -0.6606  0.9475
  948MOL0     H25103   1.765   8.416   1.413  2.2016  2.9618 -1.7638
  948MOL0     H25104   1.482   8.448   1.473  0.8174 -2.3557 -4.0986
  948MOL0     H25105   1.562   8.361   1.602 -2.6192 -0.0545 -0.3876
  948MOL0     H25106   1.459   8.195   1.435  1.2616 -0.4802  0.3512
  948MOL0     H25107   1.633   8.193   1.406  0.1181  0.1266  1.9722
  948MOL0     H25108   1.420   8.341   1.263  0.1080  1.1663 -0.2256
  948MOL0     H25109   1.581   8.368   1.219 -0.4296 -0.5452 -0.9334
  948MOL0     H25110   1.501   8.215   1.060 -3.7880 -0.3043 -0.0495
  948MOL0     H25111   1.421   8.125   1.171  0.5073 -0.4181 -1.8855
  948MOL0     H25112   1.615   7.993   1.084  0.7462  0.5973 -2.1762
  948MOL0     H25113   1.656   8.046   1.254 -2.1855  1.9038  0.7365
  948MOL0     H25114   1.792   8.213   1.197  2.6843  0.0399  1.2357
  948MOL0     H25115   1.833   8.062   1.118 -1.6603 -0.9657  0.8942
  948MOL0     H25116   1.707   8.296   0.963 -3.4351 -2.4143  0.9237
  948MOL0     H25117   1.753   8.136   0.903  3.5240 -1.3600  1.0987
  948MOL0     H25118   1.693   8.845   1.387 -1.9238  0.8573 -2.6088
  948MOL0     H25119   1.839   8.967   1.228  1.4194  0.0045  0.9839
  948MOL0     H25120   2.134   8.883   0.837  1.4241  0.0287 -0.4482
  948MOL0     H25121   2.327   8.930   0.678 -0.6653 -1.5434  0.2135
  948MOL0     H25122   4.292   8.791   0.743  1.7985 -0.0554 -2.3202
  948MOL0     H25123   4.442   8.844   0.908  1.9885 -0.3150 -1.3909
  948MOL0     H25124   4.955   8.684   0.974  0.8553  0.1930 -0.4017
  948MOL0     H25125   5.146   8.729   1.130  0.4401 -2.0719 -1.3655
  948MOL0     H25126   5.303   8.876   1.356  3.2144 -1.7779 -4.1225
  948MOL0     H25127   5.269   8.723   1.287 -3.8445  2.5083 -3.0681
  948MOL0     H25128   5.408   8.712   1.524 -0.2108 -0.2495  3.1787
  948MOL0     H25129   5.267   8.790   1.582  0.2639  1.1083 -0.6950
  948MOL0     H25130   5.249   8.525   1.441 -0.4294  0.1699 -1.0375
  948MOL0     H25131   5.131   8.616   1.547  0.1611 -0.0998 -1.4883
  948MOL0     H25132   5.402   8.548   1.662  0.6075 -2.6604  0.9779
  948MOL0     H25133   5.233   8.525   1.736  0.8206 -1.6345  0.4907
  948MOL0     H25134   5.298   8.148   1.601 -1.0331 -1.1960  0.6213
  948MOL0     H25135   4.870   8.774   1.447 -1.5256 -0.2437 -0.2927
  948MOL0     H25136   4.676   8.717   1.298  1.2810  0.5340  1.1544
  949MOL0     O25137   4.809   9.378   5.266 -0.7241  0.2318 -0.6322
  949MOL0     C25138   4.829   9.384   5.392  0.1373 -0.2391 -0.5613
  949MOL0     O25139   4.801   9.289   5.484  0.2515  0.4252 -0.5485
  949MOL0     C25140   4.684   9.211   5.491  0.7696  0.2933 -0.3432
  949MOL0     C25141   4.585   9.189   5.399  0.2295  0.1783  0.6920
  949MOL0     C25142   4.466   9.118   5.426  0.1183  0.5172 -0.9436
  949MOL0     C25143   4.444   9.075   5.560 -0.4042 -0.1807  0.5969
  949MOL0     O25144   4.335   9.011   5.610 -0.6710  0.9340  0.6391
  949MOL0     C25145   4.230   8.973   5.520  0.1559 -0.2370 -0.1714
  949MOL0     C25146   4.166   8.843   5.580 -0.3581 -0.0448  0.0932
  949MOL0     C25147   4.028   8.824   5.523  0.3095  0.1187  0.5444
  949MOL0     C25148   3.947   8.715   5.605 -0.0723 -0.9562  0.5074
  949MOL0     C25149   3.813   8.670   5.535 -0.6955 -0.6171  0.9313
  949MOL0     C25150   3.740   8.555   5.619  0.0354 -0.4926 -0.3994
  949MOL0     C25151   3.624   8.477   5.547  0.4357 -0.5239 -0.3981
  949MOL0     C25152   3.647   8.326   5.544  0.5378 -0.5006 -0.7258
  949MOL0     N25153   3.644   8.258   5.672  0.1947 -0.3457  0.2314
  949MOL0     C25154   3.700   8.140   5.697 -1.3750 -0.0564  0.5385
  949MOL0     C25155   3.664   8.108   5.823  0.4901 -0.4450 -0.1327
  949MOL0     C25156   3.725   7.983   5.888  0.6749  0.1560  0.0202
  949MOL0     C25157   3.647   7.929   6.006 -0.0969 -0.6650 -0.5862
  949MOL0     C25158   3.519   7.850   5.966 -0.1803  0.9643  0.1140
  949MOL0     C25159   3.549   7.699   5.924  0.2342 -0.6181  0.5364
  949MOL0     O25160   3.614   7.629   6.033  0.7492  0.6399 -0.1916
  949MOL0     C25161   3.521   7.571   6.111 -0.2952  0.7445  0.0673
  949MOL0     C25162   3.467   7.631   6.218  0.0638  0.9853 -0.3002
  949MOL0     C25163   3.362   7.573   6.294 -0.0651  0.0371 -0.2232
  949MOL0     C25164   3.312   7.449   6.257  0.2222  0.0116  0.2670
  949MOL0     C25165   3.198   7.400   6.334 -0.8264  0.8194  0.3441
  949MOL0     O25166   3.124   7.294   6.290 -0.1072  0.4187  0.6528
  949MOL0     C25167   3.042   7.230   6.376 -0.1923  0.1464  0.0018
  949MOL0     C25168   3.065   7.208   6.515 -0.2891 -0.7142 -0.4089
  949MOL0     C25169   2.963   7.141   6.575  0.4373  0.2920 -1.0861
  949MOL0     C25170   2.838   7.096   6.517 -0.0934 -0.2646 -0.0658
  949MOL0     O25171   2.740   7.040   6.595 -0.6457 -0.2408  0.8371
  949MOL0     C25172   2.613   7.017   6.544  0.7713  0.3613 -0.1796
  949MOL0     C25173   2.547   6.938   6.658 -0.3370  0.1144  0.4231
  949MOL0     C25174   2.403   6.897   6.623 -0.4995  0.3192  0.4158
  949MOL0     C25175   2.388   6.805   6.500 -0.2448  0.3832 -0.0204
  949MOL0     C25176   2.246   6.757   6.493  0.1252  0.8442  0.2601
  949MOL0     C25177   2.233   6.662   6.373 -0.3476 -0.4430  0.1854
  949MOL0     C25178   2.214   6.737   6.246 -0.1620  0.2867 -0.2720
  949MOL0     C25179   2.121   6.675   6.144  0.7466 -0.2717 -0.1444
  949MOL0    Cl25180   2.039   6.814   6.045 -0.1193 -0.1275  0.2406
  949MOL0     C25181   2.827   7.119   6.380  0.6236  0.5116  0.2135
  949MOL0     C25182   2.933   7.174   6.308  1.0943  0.0310 -0.7418
  949MOL0     O25183   3.184   7.453   6.442  0.9283  0.5135 -0.3676
  949MOL0     C25184   3.370   7.380   6.149  0.4475  0.6473 -0.4932
  949MOL0     C25185   3.471   7.446   6.077  0.0608 -0.9740  0.2733
  949MOL0     N25186   3.572   8.196   5.868 -0.1378  0.2572 -0.2608
  949MOL0     N25187   3.569   8.291   5.785 -0.4418  0.3572  0.7950
  949MOL0     C25188   4.541   9.095   5.652 -0.4085  0.4385  0.0526
  949MOL0     C25189   4.666   9.155   5.625 -0.3356  0.4905  0.1183
  949MOL0     C25190   4.934   9.483   5.435  0.4279  0.6047 -0.4430
  949MOL0     C25191   5.012   9.465   5.559 -0.0720 -0.3768 -1.2712
  949MOL0     C25192   5.113   9.558   5.591  0.3693  1.1673 -0.8785
  949MOL0     C25193   5.142   9.668   5.515 -1.1890 -0.4082  0.3867
  949MOL0     O25194   5.248   9.753   5.526 -0.2119 -0.2280 -0.4966
  949MOL0     C25195   5.370   9.689   5.554  0.5693  0.4133 -0.2418
  949MOL0     C25196   5.471   9.749   5.469  0.6126 -0.2109  0.1331
  949MOL0     C25197   5.475   9.901   5.493 -0.0227 -0.8849  0.0955
  949MOL0     C25198   5.590   9.979   5.427 -0.2905  1.0138 -0.4605
  949MOL0     C25199   5.573  10.123   5.455  0.9564  0.1327 -0.8878
  949MOL0     C25200   5.563  10.245   5.460  0.5811  0.6450  0.5318
  949MOL0     C25201   5.065   9.691   5.400  0.3071  0.2434  0.0430
  949MOL0     C25202   4.963   9.599   5.357 -0.8320 -0.0970  0.1818
  949MOL0     H25203   4.597   9.208   5.292  0.3917 -0.5331  0.5765
  949MOL0     H25204   4.390   9.094   5.353 -0.4578 -3.1733  0.6391
  949MOL0     H25205   4.268   8.952   5.420 -1.3781 -0.6448 -0.6983
  949MOL0     H25206   4.148   9.044   5.506 -0.2102 -0.6735 -0.2565
  949MOL0     H25207   4.155   8.855   5.688 -1.2816  1.3899 -0.1478
  949MOL0     H25208   4.237   8.763   5.555  1.6852  2.1655 -1.7682
  949MOL0     H25209   4.030   8.794   5.418  0.3430  1.1458  0.2461
  949MOL0     H25210   3.975   8.919   5.526 -3.3889 -1.6645 -1.4571
  949MOL0     H25211   4.013   8.628   5.607  2.6547  0.9853  1.9149
  949MOL0     H25212   3.932   8.743   5.710 -1.4730  2.7249 -0.5228
  949MOL0     H25213   3.849   8.624   5.443 -3.1417  0.2829 -0.5720
  949MOL0     H25214   3.754   8.758   5.506  0.1432 -1.7598 -5.5425
  949MOL0     H25215   3.694   8.598   5.708 -0.3738  0.0143 -0.8427
  949MOL0     H25216   3.810   8.477   5.650 -0.7061 -1.3111 -0.7379
  949MOL0     H25217   3.537   8.485   5.614  0.5617 -5.4448  0.7245
  949MOL0     H25218   3.603   8.514   5.446 -1.9626  2.2276  0.9250
  949MOL0     H25219   3.747   8.315   5.500  1.6769  1.9379  1.0150
  949MOL0     H25220   3.564   8.283   5.487 -2.1791  0.9936  1.7975
  949MOL0     H25221   3.776   8.081   5.649  0.2679  0.6857  2.1259
  949MOL0     H25222   3.830   7.999   5.917  0.1618 -0.5895  2.4670
  949MOL0     H25223   3.731   7.905   5.811 -0.7681 -0.7281  0.7675
  949MOL0     H25224   3.615   8.018   6.060 -4.3814 -1.6404 -1.0996
  949MOL0     H25225   3.716   7.864   6.060  2.7250  0.8434 -2.1927
  949MOL0     H25226   3.436   7.852   6.037 -2.1460 -2.5136 -1.8077
  949MOL0     H25227   3.482   7.888   5.871 -0.5819  0.8719  0.2300
  949MOL0     H25228   3.603   7.696   5.829  0.3477  0.9652  0.5305
  949MOL0     H25229   3.452   7.655   5.896 -1.5154  3.6155 -0.8579
  949MOL0     H25230   3.529   7.714   6.250  1.3959 -0.6547  1.6187
  949MOL0     H25231   3.321   7.626   6.379  2.1952  0.5900  0.6130
  949MOL0     H25232   3.149   7.250   6.570 -3.0268  1.4749  2.5005
  949MOL0     H25233   2.984   7.136   6.682  2.3290  2.0431 -1.3264
  949MOL0     H25234   2.611   6.957   6.453  1.1610 -1.6395  1.0905
  949MOL0     H25235   2.554   7.110   6.543  0.7015  0.3150 -0.9993
  949MOL0     H25236   2.538   7.002   6.746 -1.7491 -0.3878  0.6704
  949MOL0     H25237   2.603   6.846   6.676 -2.2583 -1.2291 -0.1928
  949MOL0     H25238   2.340   6.985   6.610 -0.0328  0.4542 -1.1269
  949MOL0     H25239   2.379   6.839   6.713 -0.7568  0.0288  0.1593
  949MOL0     H25240   2.415   6.870   6.416 -2.1895 -0.4122 -1.3415
  949MOL0     H25241   2.452   6.716   6.494 -2.6386 -1.4868  0.7358
  949MOL0     H25242   2.179   6.840   6.468 -1.5898 -0.6114 -0.2456
  949MOL0     H25243   2.213   6.704   6.583  2.8763  1.5547  1.7960
  949MOL0     H25244   2.142   6.603   6.387 -1.1703  0.8773  0.6032
  949MOL0     H25245   2.320   6.597   6.364  0.8531  1.3529 -3.0841
  949MOL0     H25246   2.169   6.836   6.264  0.8837  1.2550 -2.5632
  949MOL0     H25247   2.308   6.749   6.192 -1.9005 -2.4760 -4.4594
  949MOL0     H25248   2.030   6.643   6.197  0.8585  2.6441  2.0959
  949MOL0     H25249   2.154   6.598   6.075 -0.6103 -0.3236 -0.7788
  949MOL0     H25250   2.750   7.084   6.312  2.2637 -1.5004 -0.7310
  949MOL0     H25251   2.923   7.194   6.202  1.9862  0.6458 -0.7202
  949MOL0     H25252   3.337   7.279   6.126 -0.7261  1.0665 -0.7514
  949MOL0     H25253   3.517   7.395   5.993  0.2664 -0.0584 -0.1768
  949MOL0     H25254   4.526   9.063   5.755 -2.7475  2.0956  0.3040
  949MOL0     H25255   4.743   9.164   5.701 -0.6388  1.7023  0.2941
  949MOL0     H25256   4.997   9.381   5.626  1.4823  0.7761  0.6150
  949MOL0     H25257   5.183   9.538   5.672  1.5686  4.8760 -0.8063
  949MOL0     H25258   5.379   9.582   5.536 -0.0269  0.3566 -0.2392
  949MOL0     H25259   5.388   9.703   5.661 -1.9846  4.3052 -0.1161
  949MOL0     H25260   5.565   9.709   5.507 -0.6217 -1.8270  1.6727
  949MOL0     H25261   5.474   9.727   5.362  2.2050  2.2102 -0.4120
  949MOL0     H25262   5.473   9.916   5.601 -0.4582 -1.5746  0.1904
  949MOL0     H25263   5.392   9.944   5.436  1.5421 -0.8529 -2.2941
  949MOL0     H25264   5.680   9.949   5.481  0.8778  1.5930 -2.0205
  949MOL0     H25265   5.600   9.953   5.322 -0.5650  0.4097 -0.3410
  949MOL0     H25266   5.546  10.351   5.458  0.3537  0.7244  3.2447
  949MOL0     H25267   5.075   9.783   5.345 -3.7859  1.7412  1.4074
  949MOL0     H25268   4.920   9.617   5.259  2.1883  0.9570 -1.0783
  950MOL0     O25269  10.112   1.814   5.221 -0.4641  0.2860  0.0327
  950MOL0     C25270  10.026   1.856   5.142 -0.0227  0.0078 -0.3347
  950MOL0     O25271  10.040   1.960   5.056 -0.4707 -0.0987  0.1899
  950MOL0     C25272  10.156   2.044   5.045  0.0509  0.6652 -0.0433
  950MOL0     C25273  10.139   2.181   5.030  0.0380  0.3573  0.3372
  950MOL0     C25274  10.252   2.273   5.034  0.0107 -0.1723 -0.5543
  950MOL0     C25275  10.378   2.222   5.046  0.4621 -0.2435  0.3276
  950MOL0     O25276  10.492   2.294   5.059  0.4533  0.4388 -0.4120
  950MOL0     C25277  10.492   2.437   5.071 -0.4957  0.8255  0.5319
  950MOL0     C25278  10.631   2.491   5.101  0.5235  0.0320  0.6190
  950MOL0     C25279  10.713   2.499   4.973  1.4151 -0.0908 -0.7695
  950MOL0     C25280  10.848   2.565   4.985  0.4269 -0.4711 -0.0126
  950MOL0     C25281  10.950   2.476   5.062  0.5296 -0.2586  0.3146
  950MOL0     C25282  11.094   2.534   5.051 -0.3446  0.0822 -0.0443
  950MOL0     C25283  11.179   2.418   5.118  0.5474 -0.0004  0.7444
  950MOL0     C25284  11.329   2.438   5.128 -0.1674 -0.7531 -0.6454
  950MOL0     N25285  11.383   2.316   5.184 -0.6795 -0.1412 -0.4626
  950MOL0     C25286  11.452   2.312   5.301  0.5809  0.3294  0.0456
  950MOL0     C25287  11.502   2.182   5.306 -0.1401 -0.3166 -0.6189
  950MOL0     C25288  11.615   2.139   5.391  0.3100 -0.5897  0.5312
  950MOL0     C25289  11.742   2.124   5.311 -0.2191 -0.1565 -0.7474
  950MOL0     C25290  11.777   2.265   5.263  0.2272 -0.2586 -0.1337
  950MOL0     C25291  11.912   2.277   5.200 -0.2558 -0.6227 -0.0342
  950MOL0     O25292  12.015   2.232   5.294  0.0417  0.1625 -0.3975
  950MOL0     C25293  12.060   2.315   5.399 -0.4082  0.1599 -0.6261
  950MOL0     C25294  12.144   2.252   5.503  0.3299 -0.5274  0.1829
  950MOL0     C25295  12.202   2.331   5.609 -0.1964 -0.4212 -0.3356
  950MOL0     C25296  12.183   2.469   5.610 -0.5951 -0.6396 -0.6699
  950MOL0     C25297  12.246   2.558   5.720 -0.0055 -0.5351 -0.3602
  950MOL0     O25298  12.344   2.500   5.798  1.0407  0.2158  0.4407
  950MOL0     C25299  12.405   2.572   5.903  0.6760  0.3092  0.2454
  950MOL0     C25300  12.545   2.557   5.936  0.0616 -0.3140  0.5609
  950MOL0     C25301  12.591   2.625   6.058 -0.0300 -0.2342  0.3843
  950MOL0     C25302  12.513   2.700   6.151 -0.5286 -0.1100  0.0333
  950MOL0     O25303  12.562   2.755   6.266  0.2517  0.0421 -0.4532
  950MOL0     C25304  12.461   2.753   6.380 -0.7220 -0.1681  0.2474
  950MOL0     C25305  12.543   2.743   6.505 -0.8337 -0.5388  0.1034
  950MOL0     C25306  12.460   2.743   6.641 -0.0118  0.0821  0.3431
  950MOL0     C25307  12.537   2.717   6.767 -0.6443 -0.1773 -0.1826
  950MOL0     C25308  12.448   2.681   6.879 -0.4616  0.9451  0.2324
  950MOL0     C25309  12.505   2.602   6.990 -0.5860 -0.1261  0.0495
  950MOL0     C25310  12.565   2.708   7.092 -0.4790  0.6605  0.0505
  950MOL0     C25311  12.578   2.654   7.232 -0.2782  0.3271 -0.6013
  950MOL0    Cl25312  12.674   2.497   7.244  0.1809  0.1306  0.2362
  950MOL0     C25313  12.380   2.725   6.110 -0.0215  0.2260 -0.7392
  950MOL0     C25314  12.326   2.655   5.996 -0.7633  0.1247  0.8569
  950MOL0     O25315  12.208   2.674   5.723 -1.0064 -0.2237 -0.5463
  950MOL0     C25316  12.095   2.525   5.518  0.4661 -1.2449 -0.8554
  950MOL0     C25317  12.041   2.454   5.414  1.0129 -0.1735  0.2907
  950MOL0     N25318  11.468   2.107   5.193  0.0945 -0.0713  0.2717
  950MOL0     N25319  11.385   2.191   5.129  0.8312  0.4691  0.2699
  950MOL0     C25320  10.388   2.085   5.054 -1.2705  0.5128  0.3680
  950MOL0     C25321  10.278   1.997   5.052 -0.0298 -0.2506 -0.4058
  950MOL0     C25322   9.909   1.765   5.122  0.7593  0.3811  1.5652
  950MOL0     C25323   9.841   1.703   5.222  1.0671  0.2286  0.2789
  950MOL0     C25324   9.723   1.628   5.209  0.1201 -0.0389 -0.2862
  950MOL0     C25325   9.670   1.614   5.078  0.1429  0.5116 -0.5238
  950MOL0     O25326   9.564   1.528   5.085  0.4633 -0.5804 -0.2035
  950MOL0     C25327   9.502   1.494   4.964  0.6737  0.7709  0.0146
  950MOL0     C25328   9.581   1.383   4.895  0.2405  0.1783 -0.0301
  950MOL0     C25329   9.494   1.294   4.804  0.3954 -0.4760  0.5686
  950MOL0     C25330   9.419   1.370   4.706 -0.0384 -0.3702 -0.5146
  950MOL0     C25331   9.510   1.457   4.620  0.1686  0.1855 -0.4563
  950MOL0     C25332   9.592   1.529   4.565 -0.4588  0.6349  0.0850
  950MOL0     C25333   9.741   1.664   4.968  0.3374 -0.3895  0.1000
  950MOL0     C25334   9.857   1.736   4.986 -0.3564 -0.0927 -0.1100
  950MOL0     H25335  10.042   2.227   5.018 -1.4697 -1.9395  2.5000
  950MOL0     H25336  10.222   2.377   5.024  1.2790  0.3013  0.3752
  950MOL0     H25337  10.421   2.459   5.152 -1.0537 -2.2806  1.0418
  950MOL0     H25338  10.453   2.479   4.978  0.8024 -0.1018 -0.4717
  950MOL0     H25339  10.682   2.439   5.182  2.6420 -2.5497 -2.1207
  950MOL0     H25340  10.604   2.592   5.133 -4.4539 -0.0114 -2.3328
  950MOL0     H25341  10.650   2.565   4.913  1.1942 -0.0690 -0.5154
  950MOL0     H25342  10.726   2.399   4.930  1.7533 -0.0156 -0.8445
  950MOL0     H25343  10.877   2.579   4.880  0.7546  2.2909  0.3727
  950MOL0     H25344  10.831   2.661   5.036 -4.0318 -0.3546 -1.2459
  950MOL0     H25345  10.946   2.373   5.026 -2.5809  0.5195 -1.9903
  950MOL0     H25346  10.915   2.485   5.165  1.0506 -2.3659  0.7100
  950MOL0     H25347  11.117   2.623   5.109  3.1819 -1.5125  1.2867
  950MOL0     H25348  11.111   2.548   4.944 -0.9806 -1.0726 -0.3239
  950MOL0     H25349  11.128   2.411   5.214  0.3938 -1.7650  0.5600
  950MOL0     H25350  11.163   2.323   5.066 -0.7051 -0.5911  2.1477
  950MOL0     H25351  11.344   2.520   5.199  0.6709 -1.9000  0.5330
  950MOL0     H25352  11.375   2.452   5.030  0.0180 -1.6776 -0.6993
  950MOL0     H25353  11.477   2.384   5.378 -0.1195  0.5394  0.0918
  950MOL0     H25354  11.593   2.038   5.427 -0.9386 -1.4568 -2.3367
  950MOL0     H25355  11.634   2.206   5.474 -1.6863  0.0240  0.5566
  950MOL0     H25356  11.722   2.059   5.225  1.1518 -0.1530 -1.0942
  950MOL0     H25357  11.818   2.084   5.378 -2.6729  0.4164  2.6497
  950MOL0     H25358  11.698   2.295   5.194 -0.1911 -0.2106  0.3630
  950MOL0     H25359  11.778   2.333   5.349 -0.0787  0.5259 -0.7309
  950MOL0     H25360  11.924   2.382   5.175  0.8148 -0.1291  2.2499
  950MOL0     H25361  11.900   2.221   5.107  2.1331 -1.1288 -0.1025
  950MOL0     H25362  12.169   2.146   5.498  0.9024 -0.4414  1.0166
  950MOL0     H25363  12.264   2.291   5.690 -3.4925 -0.0608  2.6104
  950MOL0     H25364  12.594   2.487   5.870  0.0097  0.7014 -0.6008
  950MOL0     H25365  12.695   2.608   6.083  1.1076  2.4627 -1.8520
  950MOL0     H25366  12.383   2.677   6.372  0.5928 -1.5062 -0.5346
  950MOL0     H25367  12.418   2.853   6.377  0.9552  0.7418  2.6944
  950MOL0     H25368  12.615   2.825   6.502 -1.2994 -0.1285  0.1807
  950MOL0     H25369  12.607   2.653   6.502 -0.2468 -0.3865  3.5647
  950MOL0     H25370  12.378   2.672   6.632  1.3383 -1.3545 -1.5313
  950MOL0     H25371  12.406   2.838   6.644 -1.0945 -0.4404 -1.4496
  950MOL0     H25372  12.608   2.635   6.755 -1.6971 -0.9341 -1.5505
  950MOL0     H25373  12.592   2.810   6.787 -2.5845  0.4470  2.8818
  950MOL0     H25374  12.380   2.610   6.833 -1.0053  2.5065 -1.5103
  950MOL0     H25375  12.385   2.762   6.918 -1.9103 -0.0118 -0.0127
  950MOL0     H25376  12.574   2.520   6.971 -0.9385 -1.1709  2.8356
  950MOL0     H25377  12.418   2.558   7.040  0.4754  1.3218  3.4340
  950MOL0     H25378  12.665   2.739   7.058  1.3404 -1.4981  2.9319
  950MOL0     H25379  12.505   2.799   7.101  0.6949  1.5779 -0.9967
  950MOL0     H25380  12.474   2.636   7.262 -1.3701  1.8174 -3.1598
  950MOL0     H25381  12.626   2.718   7.307 -0.7476 -1.5951  1.4530
  950MOL0     H25382  12.316   2.792   6.167 -0.3755 -1.5668  1.0729
  950MOL0     H25383  12.221   2.672   5.973 -0.8351 -1.2870  0.0170
  950MOL0     H25384  12.074   2.631   5.516 -0.5010 -1.3583  1.1911
  950MOL0     H25385  11.978   2.511   5.346 -2.3069  1.2177  4.1044
  950MOL0     H25386  10.485   2.040   5.073  0.0516  2.2899 -1.6990
  950MOL0     H25387  10.296   1.891   5.064 -1.1063 -0.2170  2.1376
  950MOL0     H25388   9.878   1.705   5.324 -0.9060 -1.0956  1.0732
  950MOL0     H25389   9.683   1.578   5.297 -0.6203 -0.0777 -0.6357
  950MOL0     H25390   9.499   1.577   4.893  2.3551  0.5496 -0.3514
  950MOL0     H25391   9.406   1.455   4.998  2.9183 -6.3425 -0.2196
  950MOL0     H25392   9.673   1.420   4.849  0.8549  0.3107  1.2695
  950MOL0     H25393   9.623   1.316   4.971 -1.0792 -0.6770 -0.0156
  950MOL0     H25394   9.437   1.234   4.876  1.8159  0.9846  3.0856
  950MOL0     H25395   9.561   1.222   4.757  0.2797  0.5964 -1.3264
  950MOL0     H25396   9.351   1.308   4.647  2.3536 -2.5181 -1.1474
  950MOL0     H25397   9.351   1.434   4.764  0.2500 -0.0169 -0.5592
  950MOL0     H25398   9.677   1.583   4.525 -0.8581 -0.9389 -3.2033
  950MOL0     H25399   9.700   1.669   4.868  3.1014  3.3003 -1.0925
  950MOL0     H25400   9.892   1.806   4.910 -0.8724  1.1160  0.7289
  951MOL0     O25401   7.241   3.188   6.750  0.5257  0.1705  0.4980
  951MOL0     C25402   7.341   3.259   6.770  0.6728 -0.7880  0.0871
  951MOL0     O25403   7.362   3.333   6.881 -0.3634 -0.0082 -0.0707
  951MOL0     C25404   7.264   3.319   6.979 -0.6919 -0.9971 -1.0440
  951MOL0     C25405   7.294   3.232   7.094  0.9335 -0.6889  0.1410
  951MOL0     C25406   7.188   3.233   7.191  0.1700 -0.3117 -0.0072
  951MOL0     C25407   7.069   3.300   7.190  1.0288  0.2084 -0.3470
  951MOL0     O25408   6.968   3.258   7.280  0.2970  0.2723 -0.6825
  951MOL0     C25409   6.873   3.362   7.319 -0.2703  0.7166  0.0352
  951MOL0     C25410   6.813   3.331   7.456  0.8356 -1.0384  1.2600
  951MOL0     C25411   6.687   3.416   7.474  0.3358  0.2629 -0.5552
  951MOL0     C25412   6.623   3.396   7.614 -0.0111  0.0842 -0.6397
  951MOL0     C25413   6.486   3.456   7.635  0.0026  0.2704  0.6661
  951MOL0     C25414   6.508   3.608   7.622 -0.8501  0.0990 -0.1965
  951MOL0     C25415   6.387   3.688   7.636  0.2421 -0.3075  0.0064
  951MOL0     C25416   6.290   3.684   7.519  0.6387 -1.0981  0.3750
  951MOL0     N25417   6.241   3.557   7.460 -0.4718 -0.7681  0.8421
  951MOL0     C25418   6.152   3.477   7.528 -0.4037 -0.3393 -0.2875
  951MOL0     C25419   6.130   3.361   7.456  0.3582  0.5622  0.6692
  951MOL0     C25420   6.023   3.268   7.494  0.0193  0.3914  0.3005
  951MOL0     C25421   5.882   3.330   7.480 -0.6209 -0.5350 -0.1135
  951MOL0     C25422   5.781   3.215   7.465 -0.6725 -0.2511  0.2620
  951MOL0     C25423   5.647   3.270   7.475  1.5774  0.4171 -0.3265
  951MOL0     O25424   5.608   3.287   7.607  0.1076 -0.4179 -0.4451
  951MOL0     C25425   5.494   3.359   7.629 -0.2769  0.1657 -0.7602
  951MOL0     C25426   5.452   3.350   7.755 -0.4808 -1.0571 -0.0199
  951MOL0     C25427   5.352   3.435   7.809  0.0481  0.5645 -0.2782
  951MOL0     C25428   5.273   3.515   7.725  0.7531  0.1108  0.2558
  951MOL0     C25429   5.150   3.586   7.772  0.4958 -0.1221 -0.6194
  951MOL0     O25430   5.124   3.581   7.907 -0.2738  0.3973 -0.6339
  951MOL0     C25431   4.994   3.605   7.951 -0.9715  0.0422  0.6864
  951MOL0     C25432   4.933   3.497   8.008 -0.5406 -0.4362  1.0707
  951MOL0     C25433   4.802   3.508   8.054  0.2433 -0.0500 -0.7676
  951MOL0     C25434   4.730   3.631   8.045  0.0113 -0.6490  0.3182
  951MOL0     O25435   4.597   3.611   8.077  0.6312 -0.2952 -0.2212
  951MOL0     C25436   4.544   3.722   8.151  0.2377 -0.0032  0.2124
  951MOL0     C25437   4.440   3.675   8.256  0.0910  0.2771  0.0933
  951MOL0     C25438   4.295   3.634   8.200 -0.1483 -0.0029  0.2814
  951MOL0     C25439   4.210   3.569   8.301 -0.0403 -0.2242  0.0195
  951MOL0     C25440   4.074   3.530   8.248 -0.8117  0.9419 -0.1211
  951MOL0     C25441   3.994   3.661   8.219  0.2001 -0.0774 -0.7055
  951MOL0     C25442   3.850   3.620   8.211  0.2418 -0.2898 -0.4257
  951MOL0     C25443   3.772   3.746   8.209  0.1006  0.4566 -0.1933
  951MOL0    Cl25444   3.779   3.824   8.049 -0.4624 -0.6677  0.0206
  951MOL0     C25445   4.802   3.745   8.005 -0.5400  0.0540  0.6990
  951MOL0     C25446   4.940   3.732   7.962 -0.3514  0.4359 -0.5188
  951MOL0     O25447   5.085   3.646   7.686  0.8973 -0.0130  0.3016
  951MOL0     C25448   5.300   3.511   7.586 -1.0493 -0.5293  1.2879
  951MOL0     C25449   5.412   3.430   7.538  0.5038  0.2131  0.0855
  951MOL0     N25450   6.206   3.377   7.334 -0.3520  0.3557  0.5333
  951MOL0     N25451   6.277   3.486   7.346 -0.2219 -0.4166 -0.0889
  951MOL0     C25452   7.054   3.384   7.071  0.1152  0.1062  0.8598
  951MOL0     C25453   7.152   3.399   6.976 -0.5042  1.6978  0.3674
  951MOL0     C25454   7.441   3.277   6.660  1.0906  0.1026  0.3127
  951MOL0     C25455   7.452   3.183   6.551 -0.3244  0.6077 -0.5004
  951MOL0     C25456   7.545   3.201   6.451 -0.3742 -0.0328  1.1198
  951MOL0     C25457   7.635   3.301   6.463 -0.6564  0.0333  0.1404
  951MOL0     O25458   7.734   3.314   6.362 -0.0700 -0.2450 -0.1083
  951MOL0     C25459   7.828   3.195   6.341 -0.3937  0.5161  0.7383
  951MOL0     C25460   7.880   3.132   6.478 -0.4422 -0.3136  0.3623
  951MOL0     C25461   8.010   3.053   6.461  0.5927  0.1082  0.5334
  951MOL0     C25462   8.010   2.941   6.359 -0.5664  0.3825  0.2119
  951MOL0     C25463   8.106   2.837   6.401  0.2545  0.9440 -0.3015
  951MOL0     C25464   8.167   2.733   6.429 -0.4049 -0.0210  0.6931
  951MOL0     C25465   7.622   3.393   6.558  0.7291 -1.1064  0.6666
  951MOL0     C25466   7.529   3.377   6.672 -0.4094 -0.2807 -0.6229
  951MOL0     H25467   7.391   3.186   7.108  1.9656  0.3853 -2.9039
  951MOL0     H25468   7.199   3.164   7.275  0.3923  1.0765  1.1396
  951MOL0     H25469   6.802   3.355   7.236 -0.0539 -1.3999 -0.0210
  951MOL0     H25470   6.931   3.454   7.311  1.5003 -0.5089 -5.5999
  951MOL0     H25471   6.883   3.379   7.526 -1.3060  0.1755  2.6653
  951MOL0     H25472   6.802   3.228   7.490 -2.4317 -0.3581  2.6175
  951MOL0     H25473   6.616   3.383   7.398  0.0547  0.3357 -0.3241
  951MOL0     H25474   6.723   3.515   7.445  2.1600 -0.6734 -1.6984
  951MOL0     H25475   6.623   3.289   7.636  0.2324 -0.6388 -3.6230
  951MOL0     H25476   6.696   3.436   7.685  1.0311  1.3921 -2.3574
  951MOL0     H25477   6.444   3.449   7.735  2.0213 -1.4187  1.4892
  951MOL0     H25478   6.428   3.417   7.550  0.7973  0.2834  0.1002
  951MOL0     H25479   6.555   3.634   7.527 -0.6439  1.9476  0.3708
  951MOL0     H25480   6.570   3.622   7.710 -1.4177  0.1434  0.2015
  951MOL0     H25481   6.338   3.659   7.729  0.0996  2.4046  0.8485
  951MOL0     H25482   6.422   3.791   7.649  2.1644 -1.2796  3.8993
  951MOL0     H25483   6.332   3.748   7.441  0.5781  0.3315  1.4591
  951MOL0     H25484   6.204   3.739   7.559  0.7794  0.0539 -0.8332
  951MOL0     H25485   6.098   3.503   7.619 -0.5973 -1.6233 -0.0168
  951MOL0     H25486   6.038   3.241   7.599 -0.0310 -1.7689 -0.2144
  951MOL0     H25487   6.026   3.177   7.435 -3.4141  1.2727 -1.4686
  951MOL0     H25488   5.879   3.410   7.405 -0.4408  1.6629  2.1261
  951MOL0     H25489   5.864   3.379   7.576  0.2174 -1.5496  0.5859
  951MOL0     H25490   5.798   3.157   7.373  0.9010 -0.3248  0.5631
  951MOL0     H25491   5.786   3.141   7.545  0.4539 -0.4044  0.0772
  951MOL0     H25492   5.574   3.201   7.431 -1.2687  1.3098  2.5941
  951MOL0     H25493   5.640   3.366   7.423  3.1252  1.2360  0.8911
  951MOL0     H25494   5.520   3.306   7.827  0.5526 -1.3573 -1.1472
  951MOL0     H25495   5.325   3.439   7.914 -0.0509 -2.1670 -0.1429
  951MOL0     H25496   4.975   3.397   7.998 -2.7436 -1.2238 -1.6805
  951MOL0     H25497   4.750   3.430   8.107  0.1893  0.3565 -0.2177
  951MOL0     H25498   4.488   3.790   8.086  0.7881  1.7456  1.5200
  951MOL0     H25499   4.624   3.782   8.194  1.8911 -2.4821  0.7879
  951MOL0     H25500   4.430   3.742   8.342  0.0453 -0.5308  0.7178
  951MOL0     H25501   4.476   3.587   8.310 -1.0598 -1.5806 -2.0183
  951MOL0     H25502   4.290   3.568   8.114  1.9239  1.4754 -1.0756
  951MOL0     H25503   4.253   3.729   8.167 -1.2117 -0.0473  1.4210
  951MOL0     H25504   4.259   3.478   8.337  2.7723  0.2013 -2.3372
  951MOL0     H25505   4.191   3.638   8.383 -1.9220  0.9343 -1.2858
  951MOL0     H25506   4.027   3.469   8.326 -1.3860  0.9807 -0.4256
  951MOL0     H25507   4.081   3.463   8.161 -2.4257 -0.1958  0.5606
  951MOL0     H25508   4.028   3.711   8.128 -1.7870  2.1198 -0.3686
  951MOL0     H25509   4.010   3.739   8.294 -0.8862  0.5269 -1.0814
  951MOL0     H25510   3.830   3.559   8.122 -0.8990  2.4174 -2.1683
  951MOL0     H25511   3.810   3.562   8.294  0.9355 -1.3905 -0.8455
  951MOL0     H25512   3.811   3.812   8.288  1.0673  0.5337 -0.7145
  951MOL0     H25513   3.669   3.725   8.237  0.2486 -1.0275 -0.6723
  951MOL0     H25514   4.762   3.846   8.004  0.2894  0.5551 -3.9279
  951MOL0     H25515   4.986   3.821   7.922  0.3185  0.0545 -0.6063
  951MOL0     H25516   5.244   3.571   7.516 -0.2806 -2.1300 -0.8362
  951MOL0     H25517   5.438   3.432   7.433  0.1114  1.5089 -0.0122
  951MOL0     H25518   6.967   3.447   7.054  0.7034  0.8628  0.5714
  951MOL0     H25519   7.141   3.463   6.889  2.0485  2.4440  0.5218
  951MOL0     H25520   7.390   3.094   6.553  0.0707  0.2694  2.9556
  951MOL0     H25521   7.557   3.140   6.362  3.8851  0.0736  1.4379
  951MOL0     H25522   7.915   3.224   6.281  0.0880 -1.8044  0.1882
  951MOL0     H25523   7.771   3.120   6.285  0.4563  0.4965 -0.1284
  951MOL0     H25524   7.892   3.217   6.547 -0.9653 -1.0019  1.3222
  951MOL0     H25525   7.801   3.076   6.528 -0.4101  1.1861  2.2567
  951MOL0     H25526   8.020   3.019   6.565 -1.4885  3.7243  2.1130
  951MOL0     H25527   8.095   3.122   6.454  0.4612  0.1417 -1.2654
  951MOL0     H25528   7.909   2.901   6.359 -1.1829  1.5995 -2.8485
  951MOL0     H25529   8.030   2.976   6.257  0.7701  1.8043  0.9236
  951MOL0     H25530   8.223   2.642   6.416  0.9667  0.9768 -0.8292
  951MOL0     H25531   7.702   3.466   6.552  0.7213 -0.9088  2.3611
  951MOL0     H25532   7.539   3.439   6.761  2.5455 -0.6859 -0.5768
  952MOL0     O25533   7.073   9.063   2.604 -0.7156  1.0078 -0.0223
  952MOL0     C25534   7.093   9.153   2.691  0.4137  0.7725  0.9937
  952MOL0     O25535   7.203   9.160   2.777 -0.4022 -0.0967 -0.1891
  952MOL0     C25536   7.310   9.090   2.740  0.5356  0.0403  0.5560
  952MOL0     C25537   7.369   9.017   2.843 -0.0853 -0.3220 -0.0396
  952MOL0     C25538   7.477   8.936   2.805 -0.6909 -0.1819  0.5503
  952MOL0     C25539   7.536   8.937   2.673 -0.5484 -0.9878  0.1861
  952MOL0     O25540   7.663   8.894   2.641 -0.5978  0.2147 -0.0549
  952MOL0     C25541   7.693   8.762   2.687 -0.8052  0.3754  0.0421
  952MOL0     C25542   7.748   8.680   2.568  0.3980 -0.2661 -0.9990
  952MOL0     C25543   7.779   8.542   2.607 -0.4069 -0.0455  0.4535
  952MOL0     C25544   7.788   8.457   2.476 -0.5657 -0.9685  0.1641
  952MOL0     C25545   7.792   8.308   2.529  1.0649  0.2563 -0.7382
  952MOL0     C25546   7.749   8.222   2.410 -0.0931  0.1573  0.1028
  952MOL0     C25547   7.708   8.082   2.463 -1.0821 -0.6552 -0.0461
  952MOL0     C25548   7.827   7.981   2.480 -0.1952 -0.6076 -1.0978
  952MOL0     N25549   7.843   7.900   2.365 -0.8546  0.3038 -0.3259
  952MOL0     C25550   7.931   7.917   2.261 -0.2551 -1.5332  0.8768
  952MOL0     C25551   7.915   7.809   2.184  0.8355 -0.3739 -0.1895
  952MOL0     C25552   7.995   7.792   2.048  0.2014 -0.9149 -0.6928
  952MOL0     C25553   8.032   7.646   2.012  0.7561 -0.1134 -0.0156
  952MOL0     C25554   8.092   7.651   1.872 -0.6799  0.9542  0.5197
  952MOL0     C25555   8.140   7.511   1.822  0.6521 -0.2597 -0.4369
  952MOL0     O25556   8.204   7.539   1.689 -0.4144 -0.0070 -1.1584
  952MOL0     C25557   8.338   7.568   1.676 -0.0367  0.3276 -1.1056
  952MOL0     C25558   8.395   7.593   1.550  0.0807 -0.3015 -0.8272
  952MOL0     C25559   8.532   7.616   1.543 -0.3699 -0.4197  1.0209
  952MOL0     C25560   8.612   7.634   1.651 -0.4657  0.3501 -0.5865
  952MOL0     C25561   8.750   7.670   1.636  0.3969 -0.8927 -0.7087
  952MOL0     O25562   8.826   7.623   1.543 -0.2935  0.5514 -0.5094
  952MOL0     C25563   8.957   7.663   1.525  0.8391 -0.8799  0.2168
  952MOL0     C25564   8.981   7.798   1.522 -0.4486 -0.0069  0.5401
  952MOL0     C25565   9.112   7.842   1.509  0.6221 -0.2193 -0.0245
  952MOL0     C25566   9.217   7.755   1.479  0.7064 -0.1168 -0.1211
  952MOL0     O25567   9.331   7.813   1.434 -0.0916 -0.1954 -0.2652
  952MOL0     C25568   9.432   7.833   1.533  0.5160 -0.5305 -0.1716
  952MOL0     C25569   9.451   7.991   1.574  0.1036  0.1062 -0.0336
  952MOL0     C25570   9.490   8.072   1.445 -0.3011 -0.1984  0.2209
  952MOL0     C25571   9.640   8.064   1.434 -0.3615  0.7237 -0.2787
  952MOL0     C25572   9.684   8.135   1.311  0.5638  0.1925  1.0026
  952MOL0     C25573   9.831   8.151   1.289 -1.0585  0.1172  0.0796
  952MOL0     C25574   9.900   8.021   1.247 -0.5448 -0.1704 -0.0002
  952MOL0     C25575  10.027   8.058   1.163 -0.5654 -0.2089 -0.3495
  952MOL0    Cl25576  10.120   7.918   1.126  0.2013  0.3473  0.2756
  952MOL0     C25577   9.191   7.617   1.473 -1.0843 -0.6206 -0.1107
  952MOL0     C25578   9.058   7.573   1.492  0.9263 -0.7977 -0.1075
  952MOL0     O25579   8.791   7.738   1.726 -0.5304 -0.0216  0.2371
  952MOL0     C25580   8.556   7.613   1.774  1.0331  0.3165  0.2442
  952MOL0     C25581   8.422   7.580   1.787 -0.5555  0.3777  0.1491
  952MOL0     N25582   7.823   7.726   2.242 -0.4637 -0.2873  0.2380
  952MOL0     N25583   7.782   7.773   2.357  1.1160 -0.6922  0.6743
  952MOL0     C25584   7.472   9.016   2.584 -1.2502 -0.0405  1.3854
  952MOL0     C25585   7.367   9.100   2.612  0.8092  0.0629 -1.3593
  952MOL0     C25586   7.005   9.268   2.702  0.0457  0.6242 -0.1809
  952MOL0     C25587   6.887   9.280   2.619 -0.1902  0.7235 -0.7853
  952MOL0     C25588   6.808   9.395   2.625 -0.7013  0.0930  0.3912
  952MOL0     C25589   6.842   9.509   2.701 -0.6729  0.5444  0.8696
  952MOL0     O25590   6.760   9.621   2.687  0.6970  0.5454 -0.8305
  952MOL0     C25591   6.779   9.721   2.780  0.3964 -0.8929  0.1063
  952MOL0     C25592   6.708   9.686   2.918  0.3670  0.0952 -0.6147
  952MOL0     C25593   6.687   9.807   3.002  0.5153 -0.3501 -0.5815
  952MOL0     C25594   6.823   9.885   3.032 -0.1286  0.4226 -0.2458
  952MOL0     C25595   6.844  10.002   2.940  0.2907 -0.4017 -0.0064
  952MOL0     C25596   6.854  10.101   2.867 -0.3470  0.8795 -0.5109
  952MOL0     C25597   6.954   9.493   2.785 -0.1881 -0.0997 -0.2725
  952MOL0     C25598   7.031   9.374   2.791 -0.7143 -0.1190  0.5662
  952MOL0     H25599   7.329   9.012   2.944 -2.6802 -4.4388 -1.0066
  952MOL0     H25600   7.525   8.871   2.878  0.4624 -0.9845 -0.8776
  952MOL0     H25601   7.611   8.702   2.727  0.1271 -1.1770 -0.3088
  952MOL0     H25602   7.761   8.775   2.772 -1.1379 -0.3178  0.4238
  952MOL0     H25603   7.839   8.720   2.524  0.5980 -0.5061 -0.8038
  952MOL0     H25604   7.670   8.674   2.491 -2.4802  2.0535  1.4443
  952MOL0     H25605   7.700   8.506   2.674  1.4213  1.2784  3.5513
  952MOL0     H25606   7.868   8.550   2.671  0.0203  1.9552 -0.3512
  952MOL0     H25607   7.711   8.478   2.401  1.0647  1.1866 -0.9979
  952MOL0     H25608   7.876   8.485   2.418 -0.1327 -2.5637 -0.0152
  952MOL0     H25609   7.715   8.304   2.606 -0.3185  1.7555 -1.9489
  952MOL0     H25610   7.891   8.263   2.540 -0.4129 -2.8002  1.3546
  952MOL0     H25611   7.811   8.221   2.320 -3.3351  1.6796 -2.3430
  952MOL0     H25612   7.655   8.269   2.381 -1.0642 -0.2117  2.3911
  952MOL0     H25613   7.669   8.089   2.565  0.5531 -0.8198  0.6114
  952MOL0     H25614   7.626   8.042   2.402 -3.0879 -0.7296  2.4816
  952MOL0     H25615   7.807   7.901   2.551  2.7271 -1.1737 -0.7846
  952MOL0     H25616   7.919   8.037   2.499  0.2390 -1.5159 -0.4607
  952MOL0     H25617   7.997   8.002   2.246 -1.5212 -0.4287  1.4159
  952MOL0     H25618   8.085   7.852   2.059 -1.7014  1.8915  1.1524
  952MOL0     H25619   7.934   7.832   1.966 -1.0723  0.2887  0.7635
  952MOL0     H25620   7.944   7.582   2.012  0.2219  0.5860  1.3373
  952MOL0     H25621   8.109   7.605   2.078  2.2904 -2.6412 -3.0598
  952MOL0     H25622   8.020   7.693   1.802  0.1593 -0.3733 -1.2415
  952MOL0     H25623   8.187   7.705   1.876  0.3685 -0.8497  3.5977
  952MOL0     H25624   8.056   7.442   1.808  0.0975  0.0313  1.2404
  952MOL0     H25625   8.212   7.470   1.893 -0.0614  0.9000  1.0138
  952MOL0     H25626   8.323   7.580   1.470  0.1502 -0.3389 -0.8839
  952MOL0     H25627   8.579   7.624   1.446 -1.2363 -1.8643  0.4568
  952MOL0     H25628   8.906   7.875   1.527 -1.4176 -0.9956  2.5428
  952MOL0     H25629   9.130   7.949   1.516 -0.7593 -0.0503  1.5959
  952MOL0     H25630   9.525   7.791   1.495  0.8428  1.8088 -2.1876
  952MOL0     H25631   9.407   7.780   1.626  0.4733  0.5014  0.4188
  952MOL0     H25632   9.526   7.982   1.653 -1.1982 -2.9136  1.0086
  952MOL0     H25633   9.361   8.041   1.609 -0.3103  0.3016 -1.3108
  952MOL0     H25634   9.460   8.173   1.473 -3.5179 -1.5299  2.1976
  952MOL0     H25635   9.428   8.041   1.360  0.2136  0.8870 -0.5821
  952MOL0     H25636   9.689   8.114   1.517 -1.0218 -1.1367  1.3264
  952MOL0     H25637   9.685   7.964   1.430  2.6406  1.9147  0.8197
  952MOL0     H25638   9.652   8.239   1.308 -1.0984 -0.2988 -0.1413
  952MOL0     H25639   9.646   8.074   1.228 -0.4171  0.4674  1.2433
  952MOL0     H25640   9.874   8.190   1.382 -2.0859  0.8159  0.2823
  952MOL0     H25641   9.844   8.212   1.199  2.8376 -0.3657  0.1285
  952MOL0     H25642   9.935   7.973   1.339 -2.7750  2.7293  2.5780
  952MOL0     H25643   9.827   7.957   1.195 -2.5085  0.7166  1.5371
  952MOL0     H25644  10.092   8.126   1.218 -2.3220 -1.4213  3.5538
  952MOL0     H25645  10.003   8.115   1.073 -0.5399  2.6842  1.3613
  952MOL0     H25646   9.263   7.543   1.440  1.6489  0.7815  2.3167
  952MOL0     H25647   9.030   7.471   1.470 -1.4066 -0.7860  2.2937
  952MOL0     H25648   8.611   7.611   1.867  1.9127  1.9462 -0.1952
  952MOL0     H25649   8.387   7.578   1.890  0.0535  1.1648  0.3810
  952MOL0     H25650   7.511   9.018   2.483  1.1100  2.1847  2.2246
  952MOL0     H25651   7.312   9.167   2.547  0.3929  0.3740 -0.6968
  952MOL0     H25652   6.854   9.196   2.558  2.0260 -3.0802  2.6956
  952MOL0     H25653   6.719   9.403   2.563 -1.8551  0.9598  2.0737
  952MOL0     H25654   6.715   9.802   2.745  0.4939  0.6459  3.1469
  952MOL0     H25655   6.880   9.763   2.785 -0.3738  0.8879  1.9501
  952MOL0     H25656   6.604   9.663   2.892  0.6182 -1.5268 -0.2967
  952MOL0     H25657   6.747   9.591   2.956  1.8316  0.0563 -2.0901
  952MOL0     H25658   6.641   9.769   3.094  1.3478 -0.5516 -0.2364
  952MOL0     H25659   6.615   9.867   2.945  0.3150 -0.5563 -0.5440
  952MOL0     H25660   6.816   9.928   3.132 -0.2023  1.6409 -0.7608
  952MOL0     H25661   6.903   9.810   3.034  0.1053  0.6612 -0.5605
  952MOL0     H25662   6.861  10.168   2.784 -1.3814  0.6228 -0.8295
  952MOL0     H25663   6.976   9.573   2.855 -0.2109 -0.3097 -0.0207
  952MOL0     H25664   7.116   9.366   2.858 -1.4337 -2.0457  1.3266
  953MOL0     O25665   4.458   4.284   7.752 -0.4045 -0.1683  0.0645
  953MOL0     C25666   4.350   4.344   7.733  0.4860  0.6965 -0.6777
  953MOL0     O25667   4.327   4.444   7.635  0.6136 -0.2758  0.1254
  953MOL0     C25668   4.438   4.493   7.564  0.5646  0.5406 -0.0901
  953MOL0     C25669   4.522   4.411   7.481 -0.2828 -0.4953 -0.1215
  953MOL0     C25670   4.620   4.479   7.403  0.3634  0.0925  0.2745
  953MOL0     C25671   4.648   4.620   7.415 -0.9011  0.8310 -1.2569
  953MOL0     O25672   4.751   4.682   7.348 -0.4594  0.5402 -0.6684
  953MOL0     C25673   4.853   4.748   7.433  0.2586 -0.6874 -0.3227
  953MOL0     C25674   4.991   4.709   7.376  1.2224 -0.2264 -0.3780
  953MOL0     C25675   5.103   4.719   7.474  0.2438 -0.6058 -0.0453
  953MOL0     C25676   5.236   4.669   7.424  0.0619 -0.6058  0.5041
  953MOL0     C25677   5.344   4.666   7.542 -0.6841  0.6189 -0.0917
  953MOL0     C25678   5.471   4.595   7.480  0.0589  0.1055  0.9241
  953MOL0     C25679   5.569   4.568   7.593 -0.0453  0.0501  0.5972
  953MOL0     C25680   5.629   4.692   7.646 -0.0844  1.3174  1.7760
  953MOL0     N25681   5.688   4.673   7.777 -0.4066  0.3870 -0.1810
  953MOL0     C25682   5.791   4.580   7.813 -0.1283  0.0468 -0.8724
  953MOL0     C25683   5.790   4.584   7.950 -1.0897  0.9246 -0.1172
  953MOL0     C25684   5.892   4.503   8.018 -0.3177  0.2703  0.1778
  953MOL0     C25685   6.003   4.594   8.068  0.1458  0.1706  0.1231
  953MOL0     C25686   6.127   4.518   8.113  0.8647 -0.7946  0.3320
  953MOL0     C25687   6.231   4.514   8.001 -0.2591  0.6167  0.2094
  953MOL0     O25688   6.300   4.637   8.011  0.9459 -0.3732 -0.0161
  953MOL0     C25689   6.415   4.651   7.934  0.6309 -1.2912  0.3394
  953MOL0     C25690   6.529   4.712   7.985 -0.8317  0.1180  0.6137
  953MOL0     C25691   6.642   4.730   7.903 -0.4867 -0.2576 -0.2012
  953MOL0     C25692   6.659   4.705   7.769  0.2263  0.5439 -0.2269
  953MOL0     C25693   6.787   4.732   7.695  0.5747 -0.5302  0.8197
  953MOL0     O25694   6.785   4.738   7.550  0.3968 -0.2669  0.0861
  953MOL0     C25695   6.899   4.762   7.474 -0.6890  0.8137 -0.3439
  953MOL0     C25696   7.024   4.822   7.514  0.6536  0.0191  0.3734
  953MOL0     C25697   7.131   4.836   7.423 -0.4713  0.7099 -0.2338
  953MOL0     C25698   7.118   4.790   7.298 -0.2460 -0.4002  0.6420
  953MOL0     O25699   7.210   4.828   7.200 -0.8877  0.8310 -0.4927
  953MOL0     C25700   7.330   4.748   7.213 -0.6274  0.1971  0.3613
  953MOL0     C25701   7.449   4.839   7.245  1.0774  0.0180  0.0152
  953MOL0     C25702   7.471   4.971   7.159  0.1104  0.1170 -0.5561
  953MOL0     C25703   7.546   5.068   7.241  0.5585 -0.2250 -0.4116
  953MOL0     C25704   7.606   5.182   7.154  0.1246 -0.4226 -1.0017
  953MOL0     C25705   7.674   5.280   7.253 -0.3983  0.9378  0.0739
  953MOL0     C25706   7.717   5.411   7.205  0.7609 -0.0252 -0.7454
  953MOL0     C25707   7.603   5.510   7.182  0.3812 -0.1167 -0.2926
  953MOL0    Cl25708   7.675   5.649   7.093  0.5928 -0.1757 -0.0261
  953MOL0     C25709   6.997   4.739   7.257 -0.4064  0.5128  0.0536
  953MOL0     C25710   6.897   4.718   7.348 -0.2834 -0.2289  0.2596
  953MOL0     O25711   6.888   4.728   7.760  0.0406  0.4518 -0.2744
  953MOL0     C25712   6.542   4.648   7.713 -0.4387 -0.6777  0.5096
  953MOL0     C25713   6.424   4.617   7.790 -1.2434  0.0215  0.4718
  953MOL0     N25714   5.697   4.677   7.992  0.6129 -0.2711  0.2280
  953MOL0     N25715   5.628   4.726   7.889 -0.2027 -0.0222 -1.1298
  953MOL0     C25716   4.573   4.689   7.509  0.0572 -0.0383  0.2821
  953MOL0     C25717   4.468   4.627   7.582  0.0900  0.6432  0.2797
  953MOL0     C25718   4.237   4.293   7.818 -1.4690  0.0399  0.4614
  953MOL0     C25719   4.250   4.177   7.896 -0.0667 -0.5366 -0.2793
  953MOL0     C25720   4.139   4.136   7.968  0.0727  0.3905 -1.7335
  953MOL0     C25721   4.012   4.203   7.974 -1.3480  0.6966  0.0439
  953MOL0     O25722   3.908   4.161   8.052 -0.5193 -0.2022 -0.6786
  953MOL0     C25723   3.802   4.259   8.078  0.5206  0.2397 -0.3882
  953MOL0     C25724   3.856   4.373   8.161  0.6071  0.6437  0.9584
  953MOL0     C25725   3.765   4.498   8.161  0.0933  0.8786  0.6946
  953MOL0     C25726   3.647   4.480   8.250 -0.4437  1.2130 -0.1077
  953MOL0     C25727   3.555   4.592   8.215 -0.3158 -0.2369 -0.6146
  953MOL0     C25728   3.474   4.671   8.186  0.0642 -1.3011  0.0442
  953MOL0     C25729   4.004   4.310   7.886 -0.4606  0.6508 -0.5626
  953MOL0     C25730   4.111   4.353   7.812  1.1210  0.7922  0.6247
  953MOL0     H25731   4.485   4.310   7.467 -1.7020 -0.0851  0.5148
  953MOL0     H25732   4.676   4.426   7.326  0.2482  1.3510 -0.7076
  953MOL0     H25733   4.838   4.713   7.535  0.6237  2.0092  0.7462
  953MOL0     H25734   4.827   4.853   7.416  0.3857 -0.5626  0.2366
  953MOL0     H25735   4.996   4.766   7.282 -2.3315 -1.0667 -1.2501
  953MOL0     H25736   4.986   4.603   7.351 -0.2859  0.0843 -1.6073
  953MOL0     H25737   5.078   4.650   7.556 -2.5234  1.3082  0.9019
  953MOL0     H25738   5.113   4.820   7.516  2.0511 -0.7467 -0.0851
  953MOL0     H25739   5.226   4.573   7.372  0.4028 -1.3297  1.7315
  953MOL0     H25740   5.281   4.735   7.349  0.2479 -3.0528 -1.6899
  953MOL0     H25741   5.313   4.598   7.623  2.3541 -1.5801 -0.6076
  953MOL0     H25742   5.362   4.768   7.577 -1.7179 -0.3632  3.8746
  953MOL0     H25743   5.506   4.662   7.401 -1.3805 -0.7057 -0.4728
  953MOL0     H25744   5.439   4.499   7.440  0.2471 -0.3250  1.7956
  953MOL0     H25745   5.513   4.519   7.673  2.3250 -1.4963  1.4278
  953MOL0     H25746   5.647   4.497   7.563 -0.6050 -0.9846  1.5021
  953MOL0     H25747   5.550   4.765   7.665 -1.4067  0.7915 -1.1799
  953MOL0     H25748   5.704   4.723   7.572  1.1200 -4.6662 -0.0903
  953MOL0     H25749   5.863   4.527   7.752  0.5524  0.4428 -0.4209
  953MOL0     H25750   5.919   4.421   7.951 -0.7214  1.0054 -0.9124
  953MOL0     H25751   5.851   4.449   8.104  1.3093 -0.9980  0.2082
  953MOL0     H25752   5.957   4.652   8.148 -3.7116 -1.0299 -1.0268
  953MOL0     H25753   6.036   4.664   7.991 -0.0612 -1.0334 -1.0881
  953MOL0     H25754   6.185   4.572   8.189  0.6893 -1.1930  0.7551
  953MOL0     H25755   6.112   4.413   8.139  0.8194 -0.7065  0.6614
  953MOL0     H25756   6.179   4.518   7.904 -0.2992  0.2866  0.2179
  953MOL0     H25757   6.298   4.429   8.016  1.6994  1.8564 -1.0116
  953MOL0     H25758   6.533   4.725   8.093  2.0630  0.3271  0.5458
  953MOL0     H25759   6.726   4.776   7.953 -0.9861  1.0529 -0.5448
  953MOL0     H25760   7.033   4.869   7.611 -0.7732  0.4289  0.3282
  953MOL0     H25761   7.227   4.874   7.457 -0.5109 -0.0994  0.8309
  953MOL0     H25762   7.330   4.703   7.113 -3.0687  0.3257  0.2416
  953MOL0     H25763   7.318   4.669   7.288  1.0035  1.4732  2.0725
  953MOL0     H25764   7.541   4.781   7.243  1.3626  0.4695 -0.0898
  953MOL0     H25765   7.434   4.870   7.349 -0.4564 -1.8753  0.4194
  953MOL0     H25766   7.372   5.009   7.133 -0.1505 -1.7393 -2.5319
  953MOL0     H25767   7.529   4.955   7.068  0.1649  0.5910 -0.6044
  953MOL0     H25768   7.469   5.109   7.307  1.5380 -0.2308  0.7579
  953MOL0     H25769   7.630   5.025   7.296 -2.0477 -2.6800  1.9565
  953MOL0     H25770   7.531   5.249   7.110 -1.8366 -1.5440  0.4487
  953MOL0     H25771   7.680   5.149   7.082  0.4160  0.0752 -0.9355
  953MOL0     H25772   7.758   5.221   7.292  0.3743  0.2031 -2.5061
  953MOL0     H25773   7.612   5.302   7.341  1.8950 -1.7760  2.6069
  953MOL0     H25774   7.783   5.462   7.276 -0.9964 -0.2271  1.1038
  953MOL0     H25775   7.775   5.394   7.114  0.2875 -0.6262 -0.9407
  953MOL0     H25776   7.563   5.543   7.279  2.9770 -0.5766  1.0041
  953MOL0     H25777   7.524   5.465   7.121 -0.3536  1.2702 -0.4045
  953MOL0     H25778   6.971   4.727   7.153  1.2007  0.6824 -0.3887
  953MOL0     H25779   6.807   4.666   7.315 -0.0363 -0.6158  0.1878
  953MOL0     H25780   6.550   4.618   7.609  2.5763 -2.3797  1.1114
  953MOL0     H25781   6.335   4.570   7.748  0.0215 -1.1282 -1.0687
  953MOL0     H25782   4.601   4.787   7.545 -0.9774  0.5030 -0.3225
  953MOL0     H25783   4.419   4.683   7.660  3.9406  2.6687  1.4718
  953MOL0     H25784   4.339   4.115   7.902 -0.1265 -0.5030  1.1541
  953MOL0     H25785   4.147   4.043   8.023 -2.4465  0.0250 -1.8543
  953MOL0     H25786   3.729   4.210   8.143  0.4144 -3.0439 -2.7216
  953MOL0     H25787   3.760   4.299   7.985  0.1540  1.6664  0.3491
  953MOL0     H25788   3.852   4.338   8.265  0.9087  1.1190  1.1307
  953MOL0     H25789   3.959   4.394   8.134  0.5855 -1.6126 -1.2810
  953MOL0     H25790   3.729   4.522   8.061 -2.8127 -1.7753  0.9457
  953MOL0     H25791   3.825   4.582   8.199  2.3481 -0.5427  0.4351
  953MOL0     H25792   3.611   4.378   8.235  3.6652 -0.3411 -0.6717
  953MOL0     H25793   3.683   4.478   8.353 -0.2398 -3.1959 -0.0905
  953MOL0     H25794   3.410   4.741   8.136 -0.4883 -0.8595  1.3362
  953MOL0     H25795   3.908   4.357   7.868 -0.0449  1.6542 -0.2464
  953MOL0     H25796   4.089   4.426   7.735  0.7712 -1.6439 -1.7398
  954MOL0     O25797  10.035  10.991   7.021  0.0437  0.0131  0.0503
  954MOL0     C25798  10.053  11.095   6.959 -0.7398 -0.0060 -0.3649
  954MOL0     O25799  10.175  11.153   6.924 -0.0771  0.1630 -0.2374
  954MOL0     C25800  10.296  11.092   6.922 -0.4727  0.1746  0.4303
  954MOL0     C25801  10.329  10.995   6.828 -0.0758  0.5750 -0.5062
  954MOL0     C25802  10.461  10.951   6.814 -0.0281 -0.6868  0.1155
  954MOL0     C25803  10.564  11.014   6.892 -0.3063 -0.6832  0.3995
  954MOL0     O25804  10.699  10.984   6.862 -0.1735 -0.3265 -0.1385
  954MOL0     C25805  10.729  10.960   6.728 -0.2400 -0.6035 -0.8754
  954MOL0     C25806  10.876  10.911   6.727  0.3828  0.6932 -0.1514
  954MOL0     C25807  10.898  10.773   6.792 -0.1730  0.0430  0.1039
  954MOL0     C25808  11.051  10.747   6.794 -0.4474 -0.2757 -0.4157
  954MOL0     C25809  11.101  10.703   6.657  0.0264 -0.3451 -0.0567
  954MOL0     C25810  11.247  10.648   6.676  0.5304 -0.0463  0.8116
  954MOL0     C25811  11.301  10.586   6.542 -0.6842 -0.4774 -0.7422
  954MOL0     C25812  11.308  10.676   6.431 -0.4222  0.4542  0.2893
  954MOL0     N25813  11.407  10.617   6.331 -0.3654 -0.3184 -0.5354
  954MOL0     C25814  11.502  10.695   6.263 -0.7713 -0.2761  0.1214
  954MOL0     C25815  11.556  10.609   6.174  0.3305 -1.0675 -0.0877
  954MOL0     C25816  11.672  10.632   6.092  0.1107  0.5583 -0.4834
  954MOL0     C25817  11.674  10.767   6.020  0.8990  0.3331 -1.0268
  954MOL0     C25818  11.531  10.780   5.953 -0.3285  0.4472 -0.0248
  954MOL0     C25819  11.522  10.672   5.829  0.3575 -0.2794  0.1911
  954MOL0     O25820  11.404  10.708   5.748  0.1999  0.8549 -0.3360
  954MOL0     C25821  11.286  10.673   5.814  0.5930 -0.9802  0.2252
  954MOL0     C25822  11.267  10.613   5.936  0.3358 -0.1423  0.5893
  954MOL0     C25823  11.140  10.575   5.981 -0.2374  0.0934  0.3703
  954MOL0     C25824  11.024  10.609   5.903 -0.6022  0.3359  0.9720
  954MOL0     C25825  10.890  10.589   5.962  0.3034  0.4685  0.5241
  954MOL0     O25826  10.790  10.645   5.898  1.0105 -0.2657 -0.3561
  954MOL0     C25827  10.652  10.639   5.929  1.2667 -0.5305 -0.6315
  954MOL0     C25828  10.559  10.669   5.830  0.1928  0.3447 -0.1176
  954MOL0     C25829  10.421  10.675   5.846 -0.4481 -0.4860  0.0291
  954MOL0     C25830  10.365  10.656   5.969 -0.4578 -0.2017  1.1455
  954MOL0     O25831  10.229  10.666   5.972 -0.1136 -0.3024  0.3186
  954MOL0     C25832  10.145  10.613   6.078  0.1456  0.2476  0.2253
  954MOL0     C25833  10.001  10.657   6.040  0.0333 -0.0960 -0.5538
  954MOL0     C25834   9.975  10.800   6.077  0.3352 -0.3305 -0.0622
  954MOL0     C25835   9.834  10.860   6.100 -0.2299  0.1591  0.1778
  954MOL0     C25836   9.827  10.976   6.195  0.1270 -1.3653  0.1678
  954MOL0     C25837   9.701  11.066   6.174 -0.1975 -0.2406 -0.5782
  954MOL0     C25838   9.730  11.166   6.058 -0.3742  0.2303 -0.2058
  954MOL0     C25839   9.651  11.291   6.058  0.0032 -0.7543  0.0168
  954MOL0    Cl25840   9.475  11.255   6.049 -0.0432 -0.3920 -0.3974
  954MOL0     C25841  10.447  10.650   6.082 -0.4035 -0.2717  0.3020
  954MOL0     C25842  10.593  10.627   6.061 -0.3026 -0.0060 -0.4742
  954MOL0     O25843  10.873  10.504   6.050 -0.1680 -0.0757  0.0501
  954MOL0     C25844  11.047  10.665   5.783 -0.8750 -1.4586  0.2777
  954MOL0     C25845  11.172  10.702   5.737  0.3273 -0.5244 -0.8690
  954MOL0     N25846  11.495  10.489   6.188 -0.7714  0.7465  0.5279
  954MOL0     N25847  11.407  10.489   6.280  0.7741  0.3682 -0.7141
  954MOL0     C25848  10.534  11.106   6.986  0.0103 -0.2932 -0.0454
  954MOL0     C25849  10.392  11.136   7.013 -0.0296 -0.6661  0.7394
  954MOL0     C25850   9.931  11.184   6.944 -0.2633 -0.8000 -0.6722
  954MOL0     C25851   9.801  11.135   6.964 -0.2720 -0.2211 -0.2666
  954MOL0     C25852   9.693  11.221   6.973  0.2343 -0.3220  0.3866
  954MOL0     C25853   9.711  11.357   6.955 -0.5575 -0.1451  1.1156
  954MOL0     O25854   9.608  11.445   6.956 -0.4894  0.0712 -0.6303
  954MOL0     C25855   9.528  11.463   6.831  0.0712 -0.3596 -0.8351
  954MOL0     C25856   9.388  11.509   6.871 -0.2952  0.8752  0.5360
  954MOL0     C25857   9.317  11.399   6.956  0.1146 -0.6696 -0.5434
  954MOL0     C25858   9.247  11.292   6.870 -0.2031  0.1492 -0.2901
  954MOL0     C25859   9.175  11.204   6.963  0.6361  0.1280 -0.8394
  954MOL0     C25860   9.128  11.116   7.036 -0.6145 -0.7921 -1.2435
  954MOL0     C25861   9.830  11.404   6.933 -0.9067  0.0717  0.4665
  954MOL0     C25862   9.940  11.318   6.935  0.1407 -0.8041 -0.5831
  954MOL0     H25863  10.260  10.947   6.760  1.8688 -0.7914 -1.6168
  954MOL0     H25864  10.489  10.870   6.747  0.2472 -0.2503 -0.3008
  954MOL0     H25865  10.722  11.047   6.662  1.5573  1.0350  0.9462
  954MOL0     H25866  10.678  10.872   6.688  0.3178  0.5160 -4.3824
  954MOL0     H25867  10.941  10.985   6.776  0.0817  0.5740  0.4410
  954MOL0     H25868  10.901  10.903   6.621  0.4106 -0.7242 -0.0620
  954MOL0     H25869  10.848  10.691   6.738  2.1799 -0.7429 -1.0108
  954MOL0     H25870  10.872  10.782   6.897 -1.1550 -1.2524  0.0011
  954MOL0     H25871  11.112  10.835   6.820  2.1577 -2.1356  0.1861
  954MOL0     H25872  11.068  10.659   6.856 -2.6752 -0.6730 -0.2821
  954MOL0     H25873  11.093  10.790   6.591 -3.0177 -0.0754  0.5460
  954MOL0     H25874  11.038  10.619   6.628 -0.9147  0.3593 -0.0952
  954MOL0     H25875  11.249  10.565   6.747 -2.8374 -2.6322 -1.7826
  954MOL0     H25876  11.319  10.724   6.708  2.1694 -1.4537  0.6058
  954MOL0     H25877  11.404  10.568   6.572 -0.5949 -0.0063 -0.7550
  954MOL0     H25878  11.249  10.496   6.508  0.3027 -2.3883  2.4357
  954MOL0     H25879  11.360  10.769   6.457  5.6680 -0.7895 -4.7829
  954MOL0     H25880  11.208  10.698   6.393 -0.4907  0.9829  0.7647
  954MOL0     H25881  11.526  10.801   6.274  0.3578 -0.1803 -2.5757
  954MOL0     H25882  11.684  10.552   6.018 -0.6954  1.2306 -1.3688
  954MOL0     H25883  11.766  10.637   6.148  1.2829 -1.0965 -2.1916
  954MOL0     H25884  11.750  10.785   5.944  1.4691  0.4419 -0.4475
  954MOL0     H25885  11.695  10.836   6.103  0.3762 -2.6221  1.8053
  954MOL0     H25886  11.453  10.783   6.030 -0.3862 -0.6240 -0.0308
  954MOL0     H25887  11.529  10.879   5.907 -1.1221  2.1067  3.2994
  954MOL0     H25888  11.527  10.567   5.858 -2.7825  0.0285  2.4313
  954MOL0     H25889  11.618  10.686   5.780  1.1205  4.4558  2.4822
  954MOL0     H25890  11.355  10.586   5.994  1.8904  1.8310 -0.6968
  954MOL0     H25891  11.127  10.518   6.073  1.5979 -0.5734  0.2476
  954MOL0     H25892  10.582  10.694   5.727  2.4475  1.2679  0.5510
  954MOL0     H25893  10.351  10.699   5.767 -1.0279  0.2147  0.7331
  954MOL0     H25894  10.178  10.639   6.179  0.1390  0.2528  0.2259
  954MOL0     H25895  10.151  10.504   6.067 -3.6143  0.1834 -3.7391
  954MOL0     H25896   9.936  10.583   6.087 -2.3266  1.2007 -1.6076
  954MOL0     H25897   9.996  10.653   5.931  0.4232 -0.2633 -0.5686
  954MOL0     H25898  10.015  10.851   5.988  0.2224 -3.0843 -1.8037
  954MOL0     H25899  10.027  10.819   6.171 -1.4121 -2.6375  1.4585
  954MOL0     H25900   9.786  10.890   6.006  0.4639  1.3406  0.1910
  954MOL0     H25901   9.772  10.778   6.137  0.9314 -0.4601  0.8010
  954MOL0     H25902   9.917  11.034   6.174  0.6739 -2.8413 -1.8828
  954MOL0     H25903   9.828  10.933   6.295  0.4996 -0.5323  0.5283
  954MOL0     H25904   9.693  11.130   6.263  0.0877 -2.2617  0.9785
  954MOL0     H25905   9.605  11.016   6.158 -0.6973 -1.0636  3.7650
  954MOL0     H25906   9.836  11.188   6.048  0.1524 -1.9445  0.0177
  954MOL0     H25907   9.713  11.109   5.966 -0.9810 -0.2764  0.2089
  954MOL0     H25908   9.687  11.348   5.971  0.1096 -0.6463  0.1327
  954MOL0     H25909   9.672  11.353   6.146  3.4283 -1.5100 -0.1669
  954MOL0     H25910  10.423  10.672   6.185  1.1650  1.2328  0.3913
  954MOL0     H25911  10.663  10.602   6.141  0.3144  0.5728 -0.8182
  954MOL0     H25912  10.962  10.706   5.728  0.3291  2.0627  0.7553
  954MOL0     H25913  11.189  10.757   5.645 -0.8244  0.3288 -0.5935
  954MOL0     H25914  10.611  11.172   7.022 -1.3285  2.4269 -1.8832
  954MOL0     H25915  10.355  11.205   7.089 -0.5556  0.9435 -0.9136
  954MOL0     H25916   9.794  11.029   6.987 -0.8550 -0.0888  0.1910
  954MOL0     H25917   9.593  11.191   7.003  0.4112 -0.3954  0.9174
  954MOL0     H25918   9.515  11.370   6.774 -1.9089  0.5770 -2.0512
  954MOL0     H25919   9.565  11.532   6.755 -1.0106  1.7639  0.4526
  954MOL0     H25920   9.397  11.604   6.923 -1.5495  0.0156  2.4306
  954MOL0     H25921   9.346  11.512   6.770  2.5766  0.1192 -0.7940
  954MOL0     H25922   9.241  11.451   7.015  0.3352 -0.5328 -0.3747
  954MOL0     H25923   9.382  11.348   7.028 -1.2505 -1.4869  0.1600
  954MOL0     H25924   9.182  11.346   6.800  0.9434 -0.5334 -1.9400
  954MOL0     H25925   9.316  11.229   6.814 -1.0048 -0.0745 -1.0450
  954MOL0     H25926   9.090  11.039   7.100  0.5688 -1.5327 -1.3957
  954MOL0     H25927   9.835  11.511   6.918  1.9269  0.4568  3.2228
  954MOL0     H25928  10.040  11.361   6.930 -0.9393  2.4543  2.3631
  955MOL0     O25929   9.532   1.778   5.964 -0.1635 -0.1779 -0.3618
  955MOL0     C25930   9.571   1.895   5.953  1.0433  0.5927  0.3118
  955MOL0     O25931   9.506   1.985   5.883 -0.1640 -0.2939  0.0420
  955MOL0     C25932   9.384   1.960   5.832  0.5628 -0.1248  0.7708
  955MOL0     C25933   9.359   1.906   5.705  0.5623 -0.1935 -0.1119
  955MOL0     C25934   9.235   1.885   5.657  0.9203  0.6785  0.5653
  955MOL0     C25935   9.119   1.885   5.742 -0.7879  0.4016 -0.6190
  955MOL0     O25936   8.986   1.854   5.720 -0.1473 -0.1031  0.0887
  955MOL0     C25937   8.967   1.776   5.600 -0.4073  0.0300  0.7411
  955MOL0     C25938   8.932   1.853   5.472  0.2344 -0.6353 -0.3890
  955MOL0     C25939   8.896   1.773   5.346 -0.3910 -0.2471 -0.8713
  955MOL0     C25940   8.825   1.854   5.229 -0.3799  0.4981  0.3567
  955MOL0     C25941   8.704   1.939   5.272  0.1058  0.0487 -0.6963
  955MOL0     C25942   8.564   1.877   5.253 -0.9672 -0.0940  0.3975
  955MOL0     C25943   8.524   1.753   5.335  0.5550  0.5164 -0.2578
  955MOL0     C25944   8.517   1.784   5.482  0.4295  0.5017 -0.3604
  955MOL0     N25945   8.501   1.662   5.553 -0.4816  0.4558 -0.1849
  955MOL0     C25946   8.387   1.585   5.542 -0.6491  0.6743 -0.2011
  955MOL0     C25947   8.429   1.469   5.605 -0.2475  0.2302  0.1847
  955MOL0     C25948   8.343   1.345   5.615 -0.4044  0.8825 -0.2828
  955MOL0     C25949   8.396   1.250   5.497  0.2184 -0.1729 -0.3100
  955MOL0     C25950   8.335   1.298   5.356 -0.4168  1.1564 -1.3701
  955MOL0     C25951   8.182   1.299   5.353  0.5754  1.2893  0.7483
  955MOL0     O25952   8.126   1.190   5.277 -0.7278  0.1779  0.6112
  955MOL0     C25953   7.998   1.201   5.217 -0.3689  0.1614  0.0919
  955MOL0     C25954   7.947   1.321   5.172  0.1980 -0.4808  1.1172
  955MOL0     C25955   7.830   1.326   5.101 -0.0366 -0.4667 -0.1770
  955MOL0     C25956   7.762   1.210   5.072 -0.4401 -0.1648 -0.0857
  955MOL0     C25957   7.635   1.218   5.000 -0.6379 -0.2458 -0.7265
  955MOL0     O25958   7.542   1.311   5.048 -0.4054  0.0476 -0.1396
  955MOL0     C25959   7.424   1.341   4.983 -0.2109 -0.3334  0.8583
  955MOL0     C25960   7.296   1.316   5.042  0.5119  0.5054 -0.0039
  955MOL0     C25961   7.173   1.354   4.982 -0.3802 -0.2554 -0.7000
  955MOL0     C25962   7.182   1.411   4.850 -0.4816 -0.1332 -1.5164
  955MOL0     O25963   7.078   1.444   4.767  0.4620 -0.1677 -0.0388
  955MOL0     C25964   6.947   1.397   4.821  0.1610 -1.2004 -0.4524
  955MOL0     C25965   6.889   1.504   4.918 -0.5091 -0.2837 -0.4232
  955MOL0     C25966   6.741   1.480   4.912  0.1365  0.4708 -0.1748
  955MOL0     C25967   6.694   1.357   4.981  0.1068  0.2864  0.5104
  955MOL0     C25968   6.542   1.364   5.007  0.0028  0.5384  0.0169
  955MOL0     C25969   6.496   1.227   5.056 -0.0103  0.6536  0.3571
  955MOL0     C25970   6.345   1.216   5.059  0.6531 -0.8989  0.5649
  955MOL0     C25971   6.307   1.075   5.102  1.0036 -0.6760  0.0270
  955MOL0    Cl25972   6.122   1.075   5.102 -0.2657  0.5110  0.4676
  955MOL0     C25973   7.310   1.427   4.794 -0.4884 -0.4945  0.3414
  955MOL0     C25974   7.433   1.415   4.866 -0.6570  0.4140  0.2601
  955MOL0     O25975   7.611   1.136   4.912  0.6325 -0.3851  0.2208
  955MOL0     C25976   7.822   1.087   5.108  0.6032  0.4896 -0.2034
  955MOL0     C25977   7.943   1.078   5.176  0.1838  0.0261  0.2004
  955MOL0     N25978   8.555   1.487   5.655  0.1291 -0.6644 -0.1210
  955MOL0     N25979   8.595   1.612   5.628 -0.3173  0.5781  0.1325
  955MOL0     C25980   9.143   1.943   5.860  0.1461  0.3807 -0.5839
  955MOL0     C25981   9.276   1.985   5.909  0.3252 -0.0760 -0.2658
  955MOL0     C25982   9.709   1.938   5.996  0.2595  0.1070 -0.2795
  955MOL0     C25983   9.801   1.850   6.063  0.2469 -0.8629  1.0364
  955MOL0     C25984   9.920   1.899   6.123  0.4640 -0.2038  0.8373
  955MOL0     C25985   9.949   2.034   6.120  0.3547  0.2654  0.2590
  955MOL0     O25986  10.050   2.102   6.184 -0.7902 -0.1882  0.4605
  955MOL0     C25987  10.111   2.035   6.298  0.1030 -1.1851  0.6657
  955MOL0     C25988  10.237   2.120   6.343 -0.2793 -0.2989 -0.1473
  955MOL0     C25989  10.304   2.031   6.456  0.6204  1.1771  0.0350
  955MOL0     C25990  10.444   2.088   6.501  0.1319  1.2981 -0.2154
  955MOL0     C25991  10.433   2.211   6.581 -0.1944  0.5335  0.3735
  955MOL0     C25992  10.414   2.302   6.661 -0.3867  0.4373  0.0913
  955MOL0     C25993   9.865   2.121   6.046  0.0433 -0.6037  0.0632
  955MOL0     C25994   9.758   2.071   5.973 -0.7021 -0.0849 -0.4350
  955MOL0     H25995   9.444   1.894   5.639 -2.5209 -0.3767 -4.4204
  955MOL0     H25996   9.216   1.862   5.553 -2.7974  3.2224  0.4516
  955MOL0     H25997   8.877   1.714   5.605  0.0849 -0.8383 -0.5128
  955MOL0     H25998   9.052   1.711   5.575 -0.2316 -0.1323  1.7123
  955MOL0     H25999   9.005   1.928   5.443  1.0485 -1.1221  0.3556
  955MOL0     H26000   8.841   1.905   5.505  0.3985 -1.8603  2.1979
  955MOL0     H26001   8.845   1.690   5.396 -1.3461 -0.1885 -1.7043
  955MOL0     H26002   8.992   1.728   5.319  1.4121  0.9332  2.9207
  955MOL0     H26003   8.903   1.923   5.195 -0.3330  2.4841  3.9404
  955MOL0     H26004   8.788   1.784   5.154 -1.6888 -0.8349  2.1523
  955MOL0     H26005   8.700   2.024   5.203 -0.7368  0.3655 -0.2713
  955MOL0     H26006   8.712   1.991   5.368 -0.2708  0.4087 -0.8575
  955MOL0     H26007   8.553   1.843   5.149 -0.3894  2.0586 -0.4099
  955MOL0     H26008   8.493   1.955   5.279  0.2279 -0.2956  4.9969
  955MOL0     H26009   8.427   1.720   5.297 -0.6394  4.1930 -0.7831
  955MOL0     H26010   8.602   1.678   5.321 -0.0679 -0.1116 -0.4370
  955MOL0     H26011   8.440   1.861   5.489  1.3766  1.3785  0.8061
  955MOL0     H26012   8.609   1.840   5.502  1.9673 -0.2363 -4.4015
  955MOL0     H26013   8.296   1.624   5.496 -2.0211  0.2449  1.9921
  955MOL0     H26014   8.238   1.373   5.610 -0.3323  1.2313  0.0257
  955MOL0     H26015   8.353   1.296   5.713  0.7318  1.7010  0.0436
  955MOL0     H26016   8.353   1.151   5.514 -0.3810  0.3731  1.5560
  955MOL0     H26017   8.504   1.232   5.490 -0.1072 -2.0254 -0.9407
  955MOL0     H26018   8.364   1.402   5.344  0.9242  0.8251 -1.2238
  955MOL0     H26019   8.381   1.233   5.281 -0.3856 -2.0458  1.1415
  955MOL0     H26020   8.149   1.396   5.314  2.2584  0.5642 -2.9589
  955MOL0     H26021   8.149   1.297   5.457  2.8515  3.9448  1.6379
  955MOL0     H26022   7.985   1.419   5.196 -2.2998  1.2200 -1.2602
  955MOL0     H26023   7.785   1.419   5.068  1.9551  0.6054  0.0129
  955MOL0     H26024   7.301   1.255   5.131  3.1107 -0.3009 -0.6266
  955MOL0     H26025   7.079   1.340   5.034 -1.7827 -0.7355 -3.2310
  955MOL0     H26026   6.949   1.302   4.875 -0.9282 -0.3848  1.1192
  955MOL0     H26027   6.876   1.387   4.739  1.2870 -0.0165 -1.6305
  955MOL0     H26028   6.900   1.603   4.873 -2.3747 -0.4550 -1.3254
  955MOL0     H26029   6.933   1.498   5.018  2.6414 -2.1538 -1.7621
  955MOL0     H26030   6.694   1.481   4.813  0.0346 -1.7613 -0.2143
  955MOL0     H26031   6.703   1.569   4.962  3.1160  1.5447  0.3599
  955MOL0     H26032   6.727   1.269   4.925  3.6048  1.7316  0.0241
  955MOL0     H26033   6.746   1.359   5.077  2.4861  2.7867 -0.7048
  955MOL0     H26034   6.491   1.378   4.911  2.3450  4.6532 -0.8647
  955MOL0     H26035   6.505   1.448   5.066 -1.6357 -0.3241  0.2934
  955MOL0     H26036   6.550   1.216   5.151  1.1380 -0.5002 -0.3816
  955MOL0     H26037   6.540   1.159   4.982  0.7019 -2.1418  3.1630
  955MOL0     H26038   6.299   1.291   5.124 -1.2521  0.0131 -1.6914
  955MOL0     H26039   6.306   1.238   4.959  1.2104  1.2923  0.7677
  955MOL0     H26040   6.338   1.054   5.205 -0.0150 -1.7864  0.1270
  955MOL0     H26041   6.352   1.008   5.029  4.3403 -0.3730  1.6375
  955MOL0     H26042   7.315   1.469   4.695 -0.9476  1.2632  1.0218
  955MOL0     H26043   7.535   1.433   4.833 -0.3528  3.0878  2.3369
  955MOL0     H26044   7.774   0.995   5.074  1.1121 -0.1154  0.6800
  955MOL0     H26045   7.970   0.980   5.216  3.6386 -0.2676 -2.3862
  955MOL0     H26046   9.056   1.955   5.924 -1.6190  2.8181 -3.1857
  955MOL0     H26047   9.306   2.022   6.007  2.5817  1.1533 -1.3378
  955MOL0     H26048   9.764   1.752   6.091 -4.3681  0.5193  0.5601
  955MOL0     H26049   9.977   1.825   6.177 -0.4351 -0.2882  1.6990
  955MOL0     H26050  10.157   1.947   6.252  1.3320  0.9688 -2.6210
  955MOL0     H26051  10.036   2.014   6.375  0.9722 -0.1509  1.8330
  955MOL0     H26052  10.297   2.137   6.254 -2.2028  0.8099 -1.2964
  955MOL0     H26053  10.209   2.219   6.378 -1.2215  0.8777 -3.8710
  955MOL0     H26054  10.315   1.925   6.431  3.0889  0.6903  2.6808
  955MOL0     H26055  10.228   2.039   6.534 -0.6441 -0.8618 -0.9107
  955MOL0     H26056  10.478   2.015   6.574 -2.5274 -2.7029 -2.5942
  955MOL0     H26057  10.515   2.102   6.419 -2.6141  2.3633 -2.5841
  955MOL0     H26058  10.405   2.374   6.740  1.1665  1.4407 -0.6072
  955MOL0     H26059   9.897   2.224   6.032  1.8032 -0.9088  1.4385
  955MOL0     H26060   9.704   2.151   5.924 -1.2449 -0.7553 -0.9573
  956MOL0     O26061   4.565  10.441   3.065 -1.1438 -0.0891 -0.7803
  956MOL0     C26062   4.666  10.484   3.012  0.1378 -1.2879  0.3239
  956MOL0     O26063   4.727  10.432   2.899  0.2344 -0.0186  0.0216
  956MOL0     C26064   4.697  10.299   2.858 -0.7445  0.0795 -0.4045
  956MOL0     C26065   4.742  10.265   2.731 -0.4024  0.6095  0.7711
  956MOL0     C26066   4.711  10.141   2.670 -1.0036 -0.4727  0.5647
  956MOL0     C26067   4.635  10.048   2.732  0.1959  0.1591 -0.7295
  956MOL0     O26068   4.607   9.930   2.671 -0.2370  0.1854 -0.0284
  956MOL0     C26069   4.483   9.857   2.684  0.2005 -0.6930  0.2553
  956MOL0     C26070   4.514   9.713   2.650 -0.5560  0.9032  0.5553
  956MOL0     C26071   4.406   9.623   2.708  0.1049 -0.1220  0.1663
  956MOL0     C26072   4.394   9.482   2.636  0.2293  0.5354 -0.2345
  956MOL0     C26073   4.265   9.411   2.670  0.4734  0.3652  0.7635
  956MOL0     C26074   4.241   9.390   2.821 -0.9058  0.1898 -0.5502
  956MOL0     C26075   4.188   9.247   2.871 -0.0559 -0.0187 -0.5692
  956MOL0     C26076   4.060   9.208   2.801 -0.7337 -0.9675  0.3380
  956MOL0     N26077   4.045   9.064   2.835  0.7469 -0.2774 -1.0212
  956MOL0     C26078   3.924   9.003   2.857 -0.3942 -0.5263 -0.2282
  956MOL0     C26079   3.957   8.874   2.881 -0.1805  0.6207 -0.5032
  956MOL0     C26080   3.859   8.763   2.918 -0.2089 -0.8370  0.3008
  956MOL0     C26081   3.807   8.783   3.063  0.3897 -0.1910  0.4032
  956MOL0     C26082   3.711   8.675   3.093 -0.4343  0.7076  0.2264
  956MOL0     C26083   3.575   8.689   3.021 -0.3397 -0.8195 -0.1885
  956MOL0     O26084   3.465   8.650   3.104  0.2028  0.5791  0.5169
  956MOL0     C26085   3.437   8.512   3.138 -0.4024  0.0865 -0.2491
  956MOL0     C26086   3.328   8.487   3.218  0.5215  0.4467 -0.2160
  956MOL0     C26087   3.294   8.352   3.254  0.0975  0.1883 -0.0041
  956MOL0     C26088   3.364   8.246   3.201 -0.0739  0.7512  0.4911
  956MOL0     C26089   3.333   8.107   3.233  1.4313 -0.5849  0.3804
  956MOL0     O26090   3.215   8.088   3.293  0.2523 -0.6104  0.1882
  956MOL0     C26091   3.162   7.960   3.310  0.9666  0.8549 -0.7440
  956MOL0     C26092   3.114   7.936   3.441 -0.2205  1.2843 -0.9672
  956MOL0     C26093   3.057   7.810   3.468 -0.6761  0.9811  0.5633
  956MOL0     C26094   3.044   7.715   3.365  0.4025 -0.6447  0.6893
  956MOL0     O26095   2.969   7.601   3.374 -0.0232 -0.1018 -0.0861
  956MOL0     C26096   2.959   7.540   3.501  0.4354  0.3121  0.2666
  956MOL0     C26097   2.850   7.435   3.492  0.4657 -0.4669 -0.3511
  956MOL0     C26098   2.792   7.406   3.628  0.4486  0.1979 -0.7223
  956MOL0     C26099   2.671   7.310   3.643  0.1145 -1.3861 -1.3461
  956MOL0     C26100   2.719   7.163   3.660  0.1517  0.8011  1.0573
  956MOL0     C26101   2.614   7.055   3.658 -0.6365 -0.4268  0.4893
  956MOL0     C26102   2.546   7.052   3.783  0.2713  0.4453 -0.1374
  956MOL0     C26103   2.438   6.940   3.793  0.6591 -0.1241  0.0828
  956MOL0    Cl26104   2.517   6.781   3.783 -0.2443  0.5430  0.3446
  956MOL0     C26105   3.084   7.744   3.233 -0.5224  0.6960 -0.8021
  956MOL0     C26106   3.141   7.868   3.207 -0.2365 -0.1224 -0.2311
  956MOL0     O26107   3.412   8.018   3.201 -0.1070  0.2195  0.4992
  956MOL0     C26108   3.479   8.275   3.113 -0.3232 -0.5597 -0.2691
  956MOL0     C26109   3.508   8.410   3.078  0.3512  0.8194  0.5582
  956MOL0     N26110   4.090   8.856   2.879 -1.2426  0.0270  0.5171
  956MOL0     N26111   4.146   8.970   2.845  0.6870 -0.0570 -0.2020
  956MOL0     C26112   4.597  10.069   2.867 -0.2988  0.0258  0.8750
  956MOL0     C26113   4.632  10.197   2.927 -1.2495  0.8814 -0.2979
  956MOL0     C26114   4.707  10.610   3.063  0.5479  0.1262 -0.3514
  956MOL0     C26115   4.839  10.651   3.052 -0.7630  0.0496  0.4692
  956MOL0     C26116   4.876  10.772   3.108  0.4422  0.8060  0.6305
  956MOL0     C26117   4.782  10.865   3.163  0.0693 -0.5731 -0.8462
  956MOL0     O26118   4.809  10.991   3.186 -0.1272 -0.3033 -0.1493
  956MOL0     C26119   4.938  11.052   3.172  0.6761 -0.0346 -0.0119
  956MOL0     C26120   5.012  11.041   3.308  0.3762  0.6655 -0.1837
  956MOL0     C26121   5.160  11.026   3.285  0.3261  0.4994 -0.0807
  956MOL0     C26122   5.235  11.010   3.416  0.0095 -0.2512 -0.7997
  956MOL0     C26123   5.374  11.054   3.415  1.2448 -0.0266  0.0957
  956MOL0     C26124   5.479  11.111   3.423 -0.3506 -0.5831  0.3796
  956MOL0     C26125   4.653  10.818   3.183  0.3368  0.6991  0.6391
  956MOL0     C26126   4.608  10.690   3.135  0.2587  0.1886  0.4741
  956MOL0     H26127   4.799  10.339   2.676  2.8570 -0.9976  1.6882
  956MOL0     H26128   4.754  10.130   2.571  0.0941  0.1281  0.9626
  956MOL0     H26129   4.419   9.897   2.605 -1.8596 -1.7952  1.2918
  956MOL0     H26130   4.441   9.866   2.785  2.8901  0.9867  1.3645
  956MOL0     H26131   4.608   9.681   2.695 -0.7132  0.2521  0.4294
  956MOL0     H26132   4.532   9.701   2.542  4.0151 -1.2237  1.3270
  956MOL0     H26133   4.310   9.672   2.689  0.4318  0.7598  0.7136
  956MOL0     H26134   4.418   9.615   2.817 -0.6866 -0.5561  0.2290
  956MOL0     H26135   4.390   9.494   2.527 -2.2937 -0.0615 -0.2538
  956MOL0     H26136   4.487   9.427   2.658 -0.9982 -1.6960 -0.3060
  956MOL0     H26137   4.279   9.319   2.613  0.7801  1.9770 -1.8803
  956MOL0     H26138   4.184   9.470   2.627  0.8427 -0.6728 -1.4638
  956MOL0     H26139   4.158   9.456   2.845 -2.0239 -1.2486 -0.2916
  956MOL0     H26140   4.337   9.416   2.866 -1.4885  2.6164 -0.6051
  956MOL0     H26141   4.269   9.176   2.852  0.6824  0.8531 -0.7328
  956MOL0     H26142   4.156   9.246   2.976  0.6935 -1.5175 -0.3237
  956MOL0     H26143   4.077   9.215   2.693  0.2426  0.2435  0.5480
  956MOL0     H26144   3.977   9.275   2.823  0.3028 -0.2030  2.2197
  956MOL0     H26145   3.823   9.043   2.859  0.5262  1.9833  1.1518
  956MOL0     H26146   3.911   8.667   2.904 -0.8308 -1.2140  0.5663
  956MOL0     H26147   3.779   8.760   2.844  0.0637 -0.9652  0.0049
  956MOL0     H26148   3.754   8.877   3.077  2.6232  1.2610 -0.2389
  956MOL0     H26149   3.897   8.774   3.126 -0.3569 -1.8698  1.3101
  956MOL0     H26150   3.765   8.586   3.060  2.0129  2.5370 -1.0304
  956MOL0     H26151   3.689   8.674   3.200 -0.7898  1.2421  0.1651
  956MOL0     H26152   3.578   8.637   2.925 -5.1750  0.8192 -1.4820
  956MOL0     H26153   3.572   8.794   2.994  0.3027 -0.8390 -0.3434
  956MOL0     H26154   3.267   8.571   3.247 -0.9444 -0.5312 -0.3796
  956MOL0     H26155   3.213   8.333   3.323 -0.0339 -1.1668 -0.5077
  956MOL0     H26156   3.128   8.015   3.514 -0.8374  0.7073 -0.2113
  956MOL0     H26157   3.024   7.786   3.568  1.6220 -3.1683  0.5373
  956MOL0     H26158   2.914   7.611   3.570  2.0000  0.6529  0.9862
  956MOL0     H26159   3.052   7.497   3.541 -0.8882 -0.9894  2.1250
  956MOL0     H26160   2.885   7.345   3.441  0.2690  0.4999 -2.2876
  956MOL0     H26161   2.769   7.475   3.430  2.1326  0.0608 -2.3075
  956MOL0     H26162   2.773   7.506   3.670 -2.4543  0.8033 -3.1850
  956MOL0     H26163   2.867   7.362   3.695 -2.7881  2.1862  4.9677
  956MOL0     H26164   2.622   7.335   3.737  2.4092 -0.9098 -0.2150
  956MOL0     H26165   2.599   7.328   3.562  0.4934  3.3614 -0.9263
  956MOL0     H26166   2.774   7.157   3.755  3.1979 -2.5633 -0.6207
  956MOL0     H26167   2.790   7.137   3.581  0.9814  1.3276  1.6163
  956MOL0     H26168   2.650   6.953   3.642  0.0016 -0.0442 -0.5995
  956MOL0     H26169   2.535   7.070   3.584  1.3571  1.5844 -1.3762
  956MOL0     H26170   2.619   7.030   3.862  0.0529  3.1660  0.9045
  956MOL0     H26171   2.502   7.150   3.801 -4.6905 -1.6302  0.8406
  956MOL0     H26172   2.369   6.959   3.710 -0.8828  2.1302  1.7569
  956MOL0     H26173   2.392   6.956   3.891 -1.2303  1.2532 -0.9514
  956MOL0     H26174   3.065   7.673   3.153  0.1284 -1.2565  0.6776
  956MOL0     H26175   3.170   7.901   3.108 -1.6658  1.6655 -0.1105
  956MOL0     H26176   3.539   8.205   3.057 -0.1641 -1.2628  0.7549
  956MOL0     H26177   3.576   8.420   2.995  0.8352  0.1175  0.8592
  956MOL0     H26178   4.546   9.995   2.929 -0.9676 -1.6696 -1.5382
  956MOL0     H26179   4.608  10.218   3.031  1.8563 -1.6855  1.1059
  956MOL0     H26180   4.912  10.585   3.005  1.6515  2.8495 -0.0195
  956MOL0     H26181   4.981  10.792   3.087  0.4052 -0.7842 -1.4433
  956MOL0     H26182   4.935  11.159   3.150 -0.8040 -0.4023 -1.7705
  956MOL0     H26183   4.990  11.014   3.084 -2.2584  1.5887 -2.6534
  956MOL0     H26184   4.992  11.119   3.382 -4.7605  0.1975 -0.6983
  956MOL0     H26185   4.974  10.951   3.358 -1.3688  0.1601 -2.2723
  956MOL0     H26186   5.184  11.126   3.248  0.3683  1.0235  1.2830
  956MOL0     H26187   5.181  10.945   3.216 -0.3853  0.2381  0.0009
  956MOL0     H26188   5.196  11.059   3.505  1.3243 -1.5159  0.5410
  956MOL0     H26189   5.237  10.903   3.442  0.1167 -1.0033 -3.4883
  956MOL0     H26190   5.569  11.169   3.429 -0.4135 -0.6711  2.8299
  956MOL0     H26191   4.580  10.885   3.228 -0.2902  0.5555 -0.1319
  956MOL0     H26192   4.506  10.661   3.158 -0.1017  0.3356 -0.8634
  957MOL0     O26193   7.739   4.879   6.922 -0.1517  0.3633  0.9216
  957MOL0     C26194   7.841   4.860   6.855 -0.2433  0.0477 -0.4463
  957MOL0     O26195   7.960   4.920   6.873 -0.3504  0.0193  0.5324
  957MOL0     C26196   7.973   5.005   6.982  0.6091  0.4662 -0.3925
  957MOL0     C26197   7.962   5.142   6.962 -0.0278 -0.8034  0.7260
  957MOL0     C26198   7.976   5.224   7.070 -0.3964 -0.8821  0.0181
  957MOL0     C26199   7.993   5.190   7.194  0.1967  0.8625 -0.0222
  957MOL0     O26200   8.015   5.289   7.289  0.6189  0.0601  0.4349
  957MOL0     C26201   8.023   5.241   7.435 -0.3251 -1.0899  0.8704
  957MOL0     C26202   8.031   5.366   7.530 -0.6671 -0.8216 -0.5152
  957MOL0     C26203   8.083   5.308   7.668 -0.2109 -0.4050  0.9653
  957MOL0     C26204   8.048   5.400   7.777 -0.1140  0.0075  0.1469
  957MOL0     C26205   8.104   5.342   7.917  0.0661  0.1945  0.5890
  957MOL0     C26206   8.257   5.363   7.928  0.2757 -0.3332 -0.4114
  957MOL0     C26207   8.281   5.339   8.082  0.2013  0.2939  0.0815
  957MOL0     C26208   8.421   5.368   8.128 -0.9017  0.3616  0.1332
  957MOL0     N26209   8.529   5.296   8.061 -0.2078 -0.4524  0.1668
  957MOL0     C26210   8.661   5.356   8.060 -1.3776  0.3489 -0.3407
  957MOL0     C26211   8.736   5.265   7.987  0.0186 -1.1033 -0.0515
  957MOL0     C26212   8.879   5.265   7.938 -0.2964  0.1450 -0.5761
  957MOL0     C26213   8.973   5.210   8.049 -0.1691  0.1269 -0.0376
  957MOL0     C26214   9.098   5.301   8.081  0.2643  0.0147 -0.4345
  957MOL0     C26215   9.205   5.315   7.975 -0.4537 -0.2691 -0.2356
  957MOL0     O26216   9.243   5.188   7.925  0.2536 -0.0852 -0.3701
  957MOL0     C26217   9.334   5.187   7.824 -0.0940  0.7298 -1.0621
  957MOL0     C26218   9.304   5.237   7.698 -0.8719 -0.6847 -0.6159
  957MOL0     C26219   9.402   5.255   7.596  0.2940  0.1533  0.4303
  957MOL0     C26220   9.534   5.215   7.630 -0.2576 -0.0965  0.2371
  957MOL0     C26221   9.637   5.207   7.518  0.4384 -0.6670 -0.1531
  957MOL0     O26222   9.760   5.167   7.562 -0.4231  0.4114  0.6947
  957MOL0     C26223   9.870   5.152   7.486 -1.0612 -0.0907 -0.0347
  957MOL0     C26224   9.901   5.205   7.361  0.8611  0.9593  0.4760
  957MOL0     C26225  10.022   5.181   7.293  0.6271  0.2420 -0.2846
  957MOL0     C26226  10.125   5.109   7.359  0.1989 -0.6189 -0.8892
  957MOL0     O26227  10.240   5.059   7.301 -0.2784  0.4072  0.1753
  957MOL0     C26228  10.269   5.090   7.165 -0.1016  0.1606  0.0849
  957MOL0     C26229  10.401   5.035   7.115  0.7433  0.2354 -0.2590
  957MOL0     C26230  10.392   4.890   7.042 -0.2345 -0.1384 -0.4032
  957MOL0     C26231  10.526   4.836   6.995  0.5653  0.5705  0.3986
  957MOL0     C26232  10.507   4.731   6.881  0.3092 -0.6947 -0.2631
  957MOL0     C26233  10.646   4.664   6.851  0.0573  0.5416  0.2619
  957MOL0     C26234  10.632   4.564   6.730 -0.1200  0.1482 -0.2368
  957MOL0     C26235  10.758   4.482   6.714 -0.4382  0.0584  0.1011
  957MOL0    Cl26236  10.788   4.377   6.842 -0.7235 -0.0960 -0.0493
  957MOL0     C26237  10.101   5.055   7.490 -0.0267 -0.4541 -0.2525
  957MOL0     C26238   9.979   5.086   7.553 -0.2119  1.1994  0.1862
  957MOL0     O26239   9.611   5.257   7.409  0.5283 -0.1699  0.3426
  957MOL0     C26240   9.560   5.164   7.755  1.6207 -0.6791 -1.0013
  957MOL0     C26241   9.463   5.150   7.855  0.2590  0.3692  0.6029
  957MOL0     N26242   8.649   5.158   7.946  0.8125  0.2127  0.1283
  957MOL0     N26243   8.529   5.176   7.997 -0.5458  0.1945 -0.6373
  957MOL0     C26244   8.001   5.050   7.216 -0.2846 -0.5130 -0.3940
  957MOL0     C26245   7.980   4.952   7.115 -0.4882  0.1169 -0.3076
  957MOL0     C26246   7.834   4.759   6.746 -0.8421 -0.7186 -0.2474
  957MOL0     C26247   7.716   4.674   6.747 -0.3500  0.7034  0.0366
  957MOL0     C26248   7.714   4.563   6.660 -0.0856  0.7820 -0.3033
  957MOL0     C26249   7.821   4.543   6.570 -0.3726 -0.3071  0.6389
  957MOL0     O26250   7.829   4.430   6.500 -0.4066  0.9852 -0.4887
  957MOL0     C26251   7.951   4.354   6.477 -0.1411  0.2934 -0.6849
  957MOL0     C26252   7.935   4.222   6.397  0.0593 -0.0422  0.0287
  957MOL0     C26253   8.000   4.224   6.256  0.7857  1.1006  0.3544
  957MOL0     C26254   7.986   4.081   6.204 -0.9955  0.1085 -0.8109
  957MOL0     C26255   8.039   4.073   6.069  0.5890 -0.9349  0.1371
  957MOL0     C26256   8.090   4.103   5.965 -0.6853 -0.1404 -0.0907
  957MOL0     C26257   7.939   4.622   6.579  0.1545 -0.9240  0.4849
  957MOL0     C26258   7.946   4.732   6.660  0.6998 -0.1826 -0.9228
  957MOL0     H26259   7.963   5.182   6.861  0.8394 -4.3051 -0.7994
  957MOL0     H26260   7.977   5.331   7.051  2.2734 -1.0576 -1.2743
  957MOL0     H26261   8.109   5.175   7.442 -0.5685 -1.2800  2.2961
  957MOL0     H26262   7.929   5.192   7.463 -0.5729 -0.2222  1.6075
  957MOL0     H26263   7.944   5.434   7.529  0.1561  0.2676 -1.0390
  957MOL0     H26264   8.114   5.430   7.499 -2.4117  2.2031  0.6235
  957MOL0     H26265   8.191   5.289   7.670 -0.1622 -0.1312  1.1804
  957MOL0     H26266   8.042   5.211   7.698  5.1005 -2.3358  3.2227
  957MOL0     H26267   8.095   5.496   7.752  2.3442 -1.8561 -3.1509
  957MOL0     H26268   7.939   5.400   7.776 -0.2696  1.2420  3.5355
  957MOL0     H26269   8.075   5.237   7.927 -1.4943  0.3724 -1.3472
  957MOL0     H26270   8.059   5.399   7.999 -0.0300 -0.3331  0.9096
  957MOL0     H26271   8.278   5.464   7.891 -0.8119  0.2666  0.5442
  957MOL0     H26272   8.319   5.291   7.873 -1.6341 -0.7578 -2.1070
  957MOL0     H26273   8.230   5.405   8.154  1.7949  1.3523  0.2916
  957MOL0     H26274   8.249   5.239   8.113  1.9455 -0.0505  0.8968
  957MOL0     H26275   8.446   5.343   8.232 -0.4438 -1.0909 -0.2937
  957MOL0     H26276   8.437   5.476   8.128 -1.4990  0.4523 -0.1744
  957MOL0     H26277   8.691   5.451   8.102  0.3974 -0.0258 -0.6935
  957MOL0     H26278   8.889   5.372   7.915  1.0441 -0.4271 -3.0434
  957MOL0     H26279   8.899   5.223   7.839  1.5301  2.4885 -1.2997
  957MOL0     H26280   9.014   5.111   8.025  2.1001  0.8935  0.4118
  957MOL0     H26281   8.914   5.200   8.140 -0.1310  1.9905  0.2212
  957MOL0     H26282   9.045   5.396   8.097 -0.2719 -0.2468 -0.6131
  957MOL0     H26283   9.153   5.264   8.168  0.1815  1.7971  0.4328
  957MOL0     H26284   9.294   5.364   8.016 -1.4737  0.5307  1.0851
  957MOL0     H26285   9.174   5.389   7.901 -0.4477 -1.1076 -1.1016
  957MOL0     H26286   9.207   5.283   7.681 -0.1836  0.1306 -2.6132
  957MOL0     H26287   9.370   5.285   7.496 -2.1913  2.1073  1.6995
  957MOL0     H26288   9.818   5.256   7.312 -1.3130  0.8625  3.7110
  957MOL0     H26289  10.028   5.216   7.190 -0.2998 -2.2522 -1.2386
  957MOL0     H26290  10.276   5.199   7.158 -3.0886  0.3859 -0.7344
  957MOL0     H26291  10.177   5.070   7.109  0.1982 -3.1545  0.6016
  957MOL0     H26292  10.472   5.037   7.198 -0.1032 -0.9821  0.5278
  957MOL0     H26293  10.443   5.114   7.051 -3.3248  0.9996 -2.3133
  957MOL0     H26294  10.317   4.902   6.963  0.5232  0.2438 -1.0788
  957MOL0     H26295  10.352   4.822   7.118  3.3195  0.2883  2.0593
  957MOL0     H26296  10.581   4.921   6.955 -0.0011  0.4521 -0.6765
  957MOL0     H26297  10.582   4.792   7.079 -1.7642  0.4723  2.0189
  957MOL0     H26298  10.465   4.775   6.790  0.8282  0.8446  0.2219
  957MOL0     H26299  10.448   4.655   6.934  1.3205 -1.5808 -0.3851
  957MOL0     H26300  10.683   4.613   6.940 -0.4554  2.4222  1.6410
  957MOL0     H26301  10.713   4.745   6.821 -0.9053  0.4349 -2.4961
  957MOL0     H26302  10.542   4.508   6.758  0.2524  0.2684  1.2886
  957MOL0     H26303  10.612   4.614   6.635 -2.6832 -2.8627 -1.4522
  957MOL0     H26304  10.841   4.553   6.707  2.6266 -3.3325 -0.6667
  957MOL0     H26305  10.757   4.429   6.618  3.5554  1.3563 -0.8498
  957MOL0     H26306  10.171   4.989   7.540 -1.3542 -0.1676  2.1326
  957MOL0     H26307   9.970   5.044   7.652  3.3222  0.7727  0.4647
  957MOL0     H26308   9.661   5.138   7.784  1.9167  1.5387  0.1103
  957MOL0     H26309   9.501   5.108   7.948 -0.5656  0.6289  1.0703
  957MOL0     H26310   8.027   5.017   7.317 -2.9695  3.6038  1.9522
  957MOL0     H26311   7.971   4.844   7.119 -0.5877  0.0603 -1.6339
  957MOL0     H26312   7.631   4.665   6.815 -1.3648 -2.4147 -1.4631
  957MOL0     H26313   7.630   4.495   6.665 -0.0509  0.6975 -0.8975
  957MOL0     H26314   7.991   4.321   6.574 -1.3045 -0.4881 -0.4497
  957MOL0     H26315   8.029   4.409   6.424  1.2309 -0.9498 -0.0316
  957MOL0     H26316   7.981   4.145   6.458  0.4909  0.9130  0.9255
  957MOL0     H26317   7.829   4.201   6.376  0.6853 -1.1212 -2.4023
  957MOL0     H26318   8.105   4.253   6.256  1.2201 -0.3761  0.7799
  957MOL0     H26319   7.942   4.289   6.190 -1.5185 -0.4431  0.7220
  957MOL0     H26320   8.039   4.013   6.272 -1.1252  0.7226 -0.0933
  957MOL0     H26321   7.882   4.046   6.200 -0.7205 -0.8865  0.3130
  957MOL0     H26322   8.120   4.134   5.867 -1.2491  2.9481  0.5972
  957MOL0     H26323   8.017   4.595   6.509  0.7583 -1.2478  1.2643
  957MOL0     H26324   8.041   4.783   6.668 -0.2904  1.7209 -0.6273
  958MOL0     O26325  11.283   5.719   7.047 -0.0741  0.0567  0.2648
  958MOL0     C26326  11.360   5.783   7.115 -0.2390 -0.8797 -0.5323
  958MOL0     O26327  11.339   5.814   7.245 -0.1595 -0.1182  0.7032
  958MOL0     C26328  11.216   5.818   7.303 -0.0475  0.4474 -0.3872
  958MOL0     C26329  11.096   5.836   7.239  0.4329  0.4962 -0.1385
  958MOL0     C26330  10.975   5.854   7.310  0.3662  1.0023 -0.4329
  958MOL0     C26331  10.974   5.855   7.444  1.1785 -0.0749  0.1677
  958MOL0     O26332  10.868   5.875   7.526 -0.2350  0.0371  0.4339
  958MOL0     C26333  10.738   5.870   7.462 -0.3709  0.2463  0.7907
  958MOL0     C26334  10.636   5.885   7.570 -0.6288  0.7718  0.1464
  958MOL0     C26335  10.498   5.928   7.545 -0.4064  1.1980 -0.3087
  958MOL0     C26336  10.424   5.963   7.668 -0.2040 -0.0969  0.3123
  958MOL0     C26337  10.272   5.973   7.641  0.8569 -0.1668  0.3338
  958MOL0     C26338  10.198   6.076   7.737 -0.1989 -0.1299 -0.3370
  958MOL0     C26339  10.169   6.027   7.875 -0.4082  0.9305  0.0854
  958MOL0     C26340  10.063   6.102   7.961 -0.0188 -0.2928 -0.2343
  958MOL0     N26341   9.928   6.102   7.902 -0.2519 -0.2233  0.0115
  958MOL0     C26342   9.834   6.009   7.922  0.9063 -0.5922  0.5318
  958MOL0     C26343   9.737   6.036   7.835 -0.2666  0.3396  0.9544
  958MOL0     C26344   9.615   5.963   7.821  0.0508 -0.0333  1.3949
  958MOL0     C26345   9.521   6.012   7.925  0.0544  0.6730 -0.0973
  958MOL0     C26346   9.383   5.936   7.926  0.0419 -0.5057  0.5016
  958MOL0     C26347   9.304   5.980   7.810  0.1620  0.1541 -0.4539
  958MOL0     O26348   9.169   5.933   7.818  0.6875 -0.3405 -0.0010
  958MOL0     C26349   9.083   5.965   7.713 -0.1041 -0.3294  0.1446
  958MOL0     C26350   8.977   6.052   7.734 -0.2026 -0.9501 -0.2396
  958MOL0     C26351   8.897   6.088   7.626 -0.4184 -0.2290 -0.1427
  958MOL0     C26352   8.904   6.028   7.500 -0.2791 -0.2199 -0.1589
  958MOL0     C26353   8.810   6.048   7.392  0.1913  0.0858 -0.0234
  958MOL0     O26354   8.692   6.112   7.424  0.7353 -0.2701  0.0543
  958MOL0     C26355   8.595   6.145   7.335  0.9127 -0.3843  0.7090
  958MOL0     C26356   8.577   6.108   7.201  0.5280 -0.1372  0.1537
  958MOL0     C26357   8.457   6.151   7.126 -0.2271  1.0712 -0.1389
  958MOL0     C26358   8.361   6.218   7.186  0.7367 -0.5721  0.2694
  958MOL0     O26359   8.246   6.254   7.134 -0.3482 -0.0490 -0.3932
  958MOL0     C26360   8.237   6.284   6.995  0.0800  1.1532 -0.1196
  958MOL0     C26361   8.092   6.254   6.931 -0.3266  0.5528 -0.5116
  958MOL0     C26362   7.997   6.381   6.942  0.3653 -0.4044 -0.0372
  958MOL0     C26363   8.015   6.485   6.823  0.1741  0.1900 -0.0068
  958MOL0     C26364   7.915   6.599   6.830 -1.7004  0.6781  0.3535
  958MOL0     C26365   7.767   6.572   6.826 -0.5498  0.5085  0.1067
  958MOL0     C26366   7.728   6.481   6.709  0.8234 -0.0672 -0.0236
  958MOL0     C26367   7.584   6.434   6.736  0.3024  0.1224 -0.0739
  958MOL0    Cl26368   7.462   6.558   6.674  0.0506  0.6528  0.3968
  958MOL0     C26369   8.376   6.256   7.315  0.0088 -0.8823 -0.2627
  958MOL0     C26370   8.489   6.210   7.395  0.0812  0.3888  0.7061
  958MOL0     O26371   8.845   6.020   7.276 -0.4248  0.3966 -0.5918
  958MOL0     C26372   9.013   5.937   7.477  0.7979 -0.4079  0.1420
  958MOL0     C26373   9.097   5.905   7.587 -0.7889 -0.3030  0.1734
  958MOL0     N26374   9.787   6.137   7.752 -0.1850 -0.2345  0.1979
  958MOL0     N26375   9.892   6.182   7.800 -1.0450 -0.3989 -0.3904
  958MOL0     C26376  11.093   5.841   7.504  0.6371  0.0763  0.3361
  958MOL0     C26377  11.208   5.804   7.444  0.7295 -0.0575  0.4455
  958MOL0     C26378  11.489   5.821   7.055  0.7955 -0.4756  0.5830
  958MOL0     C26379  11.568   5.917   7.116 -0.1545  0.0314  0.7912
  958MOL0     C26380  11.696   5.929   7.064  0.1148  0.7256 -1.0176
  958MOL0     C26381  11.736   5.873   6.947 -0.1055 -0.0193  0.6040
  958MOL0     O26382  11.859   5.875   6.887 -0.4906 -0.1958  0.6043
  958MOL0     C26383  11.973   5.909   6.952  0.0149 -0.1334  0.1496
  958MOL0     C26384  12.087   5.915   6.854 -0.5248  0.5119  0.3694
  958MOL0     C26385  12.135   5.784   6.778 -1.1934 -0.4087 -0.0855
  958MOL0     C26386  12.286   5.786   6.748  0.4137 -0.3476 -0.3799
  958MOL0     C26387  12.374   5.819   6.871 -0.3591 -0.3166 -0.1113
  958MOL0     C26388  12.443   5.857   6.967  0.4132 -0.3219  1.0457
  958MOL0     C26389  11.656   5.781   6.885 -0.1355 -0.2379  0.1517
  958MOL0     C26390  11.530   5.749   6.942 -0.7113 -0.3796  1.2308
  958MOL0     H26391  11.085   5.848   7.131 -0.1452 -0.7820 -0.2341
  958MOL0     H26392  10.885   5.862   7.250 -0.9994 -0.2738  1.3863
  958MOL0     H26393  10.714   5.792   7.389 -1.3779  2.6258 -1.6019
  958MOL0     H26394  10.729   5.962   7.403  2.0693  0.5174  0.7400
  958MOL0     H26395  10.687   5.947   7.644 -2.2912  1.0389  1.1207
  958MOL0     H26396  10.628   5.783   7.609  1.5892  0.6808  0.5092
  958MOL0     H26397  10.444   5.857   7.482 -1.5200  2.0724 -0.3760
  958MOL0     H26398  10.496   6.020   7.485 -0.4828  0.9703 -0.6600
  958MOL0     H26399  10.430   5.881   7.741  0.2942 -0.7440 -0.4337
  958MOL0     H26400  10.475   6.055   7.695  0.7523 -0.2679 -0.8049
  958MOL0     H26401  10.218   5.881   7.663 -1.3869  1.0896  0.4222
  958MOL0     H26402  10.251   6.002   7.538 -1.2365 -4.2979 -0.6014
  958MOL0     H26403  10.106   6.091   7.679  0.8873  1.4379 -1.7730
  958MOL0     H26404  10.240   6.177   7.747 -3.1874  1.2672 -0.7676
  958MOL0     H26405  10.127   5.928   7.855  0.6724  0.5237 -0.2926
  958MOL0     H26406  10.265   6.009   7.925  0.2037  3.0189 -0.2099
  958MOL0     H26407  10.099   6.205   7.965  2.2517 -0.9145 -2.0318
  958MOL0     H26408  10.054   6.047   8.054  1.3119 -3.9582 -2.0776
  958MOL0     H26409   9.840   5.942   8.007 -0.9910 -1.0749  0.3264
  958MOL0     H26410   9.644   5.858   7.838 -0.1638 -0.3733 -0.1917
  958MOL0     H26411   9.574   5.972   7.720 -0.8575 -2.7828  1.4300
  958MOL0     H26412   9.522   6.121   7.923 -1.1860  0.6838 -0.7137
  958MOL0     H26413   9.559   5.977   8.022 -0.3371  0.6196  0.0386
  958MOL0     H26414   9.404   5.828   7.926  1.2600 -0.3159  2.2842
  958MOL0     H26415   9.325   5.954   8.017 -2.8434 -1.1207 -1.1131
  958MOL0     H26416   9.354   5.941   7.720 -0.3456 -1.1966 -0.1826
  958MOL0     H26417   9.303   6.089   7.809 -0.3689  0.1781  0.8029
  958MOL0     H26418   8.953   6.092   7.832  1.3867 -1.1964  0.2780
  958MOL0     H26419   8.816   6.158   7.644 -0.8001 -0.4483 -0.9621
  958MOL0     H26420   8.652   6.046   7.153 -0.2781 -0.7581 -0.3024
  958MOL0     H26421   8.454   6.126   7.021  0.2929 -1.5374  0.3855
  958MOL0     H26422   8.309   6.233   6.931 -0.9068  0.1429 -0.4603
  958MOL0     H26423   8.261   6.391   6.987  1.1837  1.0320  1.1783
  958MOL0     H26424   8.057   6.168   6.989  3.7869 -0.5338  0.6567
  958MOL0     H26425   8.099   6.232   6.824 -1.1306  1.2391 -0.7258
  958MOL0     H26426   8.011   6.422   7.042  2.6012  0.4277 -0.6139
  958MOL0     H26427   7.896   6.342   6.926  0.0001  0.8115 -0.9096
  958MOL0     H26428   8.119   6.514   6.843  0.6738 -3.2171  3.7954
  958MOL0     H26429   8.000   6.444   6.723  1.1231  0.6398 -0.3412
  958MOL0     H26430   7.936   6.672   6.752  1.5552 -1.9615 -1.5201
  958MOL0     H26431   7.944   6.647   6.924 -0.3126  3.9087 -1.5617
  958MOL0     H26432   7.708   6.664   6.821  0.0828  0.8723 -3.1452
  958MOL0     H26433   7.739   6.518   6.917  1.0102 -1.2615 -0.3983
  958MOL0     H26434   7.731   6.529   6.611 -2.6190 -1.6772 -1.0398
  958MOL0     H26435   7.797   6.396   6.705  1.2355  0.1080  2.0267
  958MOL0     H26436   7.569   6.421   6.844 -0.3279 -1.9456 -0.3816
  958MOL0     H26437   7.567   6.345   6.675 -2.0862  0.6997 -0.3753
  958MOL0     H26438   8.302   6.321   7.359  1.9359  0.9677  0.3973
  958MOL0     H26439   8.503   6.247   7.496 -0.9666 -0.3601  1.1475
  958MOL0     H26440   9.028   5.872   7.391 -1.7879 -3.0733  1.5339
  958MOL0     H26441   9.175   5.833   7.560 -2.1241 -1.6081 -0.3741
  958MOL0     H26442  11.099   5.842   7.612  2.4015 -3.8232  0.4321
  958MOL0     H26443  11.297   5.784   7.503 -0.2551  1.5632  2.6455
  958MOL0     H26444  11.538   5.970   7.206 -0.0938 -2.9050  2.6469
  958MOL0     H26445  11.771   5.972   7.130  1.0009 -1.0265 -0.8166
  958MOL0     H26446  11.986   5.831   7.028 -0.0792  2.8244  3.4365
  958MOL0     H26447  11.966   6.008   6.996  1.3650  1.1821 -2.3858
  958MOL0     H26448  12.049   5.986   6.781 -3.0190  1.3819  2.3542
  958MOL0     H26449  12.170   5.966   6.904 -0.8197 -1.6070  3.3300
  958MOL0     H26450  12.075   5.785   6.686 -2.5338  2.1833  0.7162
  958MOL0     H26451  12.113   5.696   6.840  1.6455 -2.1419 -1.3053
  958MOL0     H26452  12.316   5.686   6.715 -0.2580 -1.2802  1.6776
  958MOL0     H26453  12.305   5.866   6.676 -0.2312 -0.5171 -0.7402
  958MOL0     H26454  12.501   5.890   7.051 -0.2717  0.6859  1.1309
  958MOL0     H26455  11.696   5.724   6.802 -1.5762  0.6572 -1.2047
  958MOL0     H26456  11.460   5.682   6.894 -0.9263  1.1272 -0.7260
  959MOL0     O26457   3.036   9.362   4.068 -0.3280  0.1710 -0.0613
  959MOL0     C26458   3.066   9.469   4.124 -0.6988 -0.0227 -0.0704
  959MOL0     O26459   2.997   9.545   4.213  0.3464  0.1173 -1.0217
  959MOL0     C26460   2.871   9.503   4.244 -0.3039  0.7096  0.2049
  959MOL0     C26461   2.841   9.471   4.378 -0.0343  0.5975 -0.9228
  959MOL0     C26462   2.705   9.454   4.413  0.5348 -0.2328  0.0943
  959MOL0     C26463   2.603   9.471   4.313  0.0870  0.6654  0.0848
  959MOL0     O26464   2.466   9.435   4.349 -0.6879 -0.5357 -0.0752
  959MOL0     C26465   2.382   9.548   4.316 -0.1055 -1.1324  0.9340
  959MOL0     C26466   2.238   9.520   4.348 -1.5688  0.3386 -0.1104
  959MOL0     C26467   2.142   9.636   4.311  0.0870  0.1323  0.1499
  959MOL0     C26468   2.012   9.608   4.392  0.4481 -0.6729  0.2106
  959MOL0     C26469   1.928   9.743   4.400  0.6464  0.1839  0.7309
  959MOL0     C26470   1.793   9.722   4.472  0.7120 -0.5165 -0.2664
  959MOL0     C26471   1.705   9.847   4.464 -0.6746 -0.8180 -0.1916
  959MOL0     C26472   1.583   9.813   4.556  0.1201  0.3584 -0.4769
  959MOL0     N26473   1.471   9.907   4.542  0.0032 -0.8944  0.1059
  959MOL0     C26474   1.395   9.908   4.429  0.0560  0.6806  0.4785
  959MOL0     C26475   1.280   9.975   4.456 -0.7642  0.1023 -0.2371
  959MOL0     C26476   1.163  10.021   4.374  0.0352  0.0261 -1.1732
  959MOL0     C26477   1.040  10.083   4.449 -1.0181  0.7224 -0.2248
  959MOL0     C26478   0.925  10.132   4.350 -0.4728 -0.3137  0.3502
  959MOL0     C26479   0.820  10.212   4.430  0.8587  0.1335 -0.2486
  959MOL0     O26480   0.700  10.229   4.348 -0.4706  0.1237  0.2067
  959MOL0     C26481   0.593  10.315   4.388  0.1917  1.0435  0.4379
  959MOL0     C26482   0.494  10.328   4.292 -0.2209  0.4353 -0.2787
  959MOL0     C26483   0.369  10.395   4.314  0.4934  0.3530  0.5926
  959MOL0     C26484   0.367  10.468   4.437  0.2549  0.1893  0.3481
  959MOL0     C26485   0.246  10.554   4.473  0.6551  0.7666 -0.2751
  959MOL0     O26486   0.154  10.577   4.369 -0.0935  0.0188 -0.1932
  959MOL0     C26487   0.082  10.691   4.403  0.2440 -0.0003 -0.1164
  959MOL0     C26488  -0.039  10.672   4.463  0.6490 -0.0238 -0.1493
  959MOL0     C26489  -0.130  10.777   4.479 -0.1656 -0.0934  0.0744
  959MOL0     C26490  -0.081  10.905   4.467  0.6930 -0.1180 -0.0519
  959MOL0     O26491  -0.170  11.001   4.492  0.4528  0.3247 -0.0048
  959MOL0     C26492  -0.128  11.138   4.498 -0.0593  0.0194 -2.3499
  959MOL0     C26493  -0.254  11.222   4.512 -0.6516 -0.2618  0.0829
  959MOL0     C26494  -0.354  11.218   4.395  0.5818 -0.5380  0.4013
  959MOL0     C26495  -0.484  11.299   4.423  0.1280  1.1357 -0.0174
  959MOL0     C26496  -0.587  11.288   4.310  0.0851  0.5903  0.2069
  959MOL0     C26497  -0.699  11.405   4.324 -1.0805 -0.0192 -0.6631
  959MOL0     C26498  -0.791  11.394   4.214  0.5801 -0.3689  0.4170
  959MOL0     C26499  -0.886  11.513   4.198  1.0524 -0.5293  0.0661
  959MOL0    Cl26500  -0.969  11.476   4.041 -1.0509  0.1324 -0.2537
  959MOL0     C26501   0.052  10.927   4.417  0.0372 -0.1802 -0.2070
  959MOL0     C26502   0.135  10.821   4.382  0.0091 -0.2280  0.0997
  959MOL0     O26503   0.221  10.564   4.593  0.3677  0.3178  0.8669
  959MOL0     C26504   0.481  10.472   4.521 -0.0156  0.7021 -0.9841
  959MOL0     C26505   0.584  10.388   4.511 -0.2061 -0.5264  1.0243
  959MOL0     N26506   1.287  10.009   4.594  0.5158  0.3747  0.5121
  959MOL0     N26507   1.401   9.961   4.642  0.6239  0.6326 -0.5959
  959MOL0     C26508   2.639   9.517   4.184 -0.3575 -0.5302  0.0458
  959MOL0     C26509   2.772   9.536   4.146  0.5824  0.2086 -0.2642
  959MOL0     C26510   3.200   9.515   4.109  0.6833  0.6856  1.3671
  959MOL0     C26511   3.274   9.573   4.208 -0.2887  0.1088  0.3774
  959MOL0     C26512   3.405   9.596   4.200 -0.8103  0.7657  0.3424
  959MOL0     C26513   3.481   9.549   4.092  0.7033 -0.1183 -0.2177
  959MOL0     O26514   3.616   9.556   4.093 -0.3683 -0.6104  0.7559
  959MOL0     C26515   3.683   9.544   3.965  0.0487  0.3892  0.3047
  959MOL0     C26516   3.802   9.632   3.945 -0.1591  0.6331 -0.5448
  959MOL0     C26517   3.929   9.557   4.000 -0.0606  0.3446 -0.7279
  959MOL0     C26518   4.043   9.665   4.004 -1.1059  0.1191  0.0959
  959MOL0     C26519   4.138   9.647   3.895  0.1318  0.4258  0.2138
  959MOL0     C26520   4.201   9.658   3.790  0.7457 -0.0793  0.0247
  959MOL0     C26521   3.412   9.485   3.986 -0.9011 -0.7449 -0.0294
  959MOL0     C26522   3.272   9.471   4.000 -0.3972  0.4275  0.7631
  959MOL0     H26523   2.915   9.442   4.451 -0.5244 -0.6484 -0.9019
  959MOL0     H26524   2.682   9.432   4.517  2.0618  0.9374  0.7105
  959MOL0     H26525   2.380   9.572   4.209  0.7555  1.0348  1.3385
  959MOL0     H26526   2.397   9.642   4.370 -2.3127  1.4557 -2.4745
  959MOL0     H26527   2.247   9.506   4.456  1.7857 -2.7793 -0.5788
  959MOL0     H26528   2.213   9.426   4.298  2.2557 -1.5233  1.0619
  959MOL0     H26529   2.108   9.640   4.207  0.6450 -0.2652 -0.0503
  959MOL0     H26530   2.192   9.730   4.336  1.6612 -0.3864 -0.8431
  959MOL0     H26531   1.942   9.535   4.349  1.0737 -0.2438 -1.6354
  959MOL0     H26532   2.034   9.580   4.495  1.9139  3.0591  1.0790
  959MOL0     H26533   1.919   9.794   4.304  3.4513  0.4447  0.5447
  959MOL0     H26534   1.980   9.815   4.464  2.2616  3.6580 -3.9261
  959MOL0     H26535   1.817   9.708   4.578  0.2270  1.8647  0.2148
  959MOL0     H26536   1.733   9.637   4.437 -1.9928  0.6204  1.3443
  959MOL0     H26537   1.747   9.936   4.513  2.0776 -2.7587  1.2389
  959MOL0     H26538   1.668   9.862   4.362 -1.1778 -0.9331 -0.0252
  959MOL0     H26539   1.620   9.811   4.659  0.5039 -2.5189 -0.6110
  959MOL0     H26540   1.539   9.714   4.544 -1.3489  1.0625 -1.2921
  959MOL0     H26541   1.427   9.873   4.331  0.9836  1.9031  0.3164
  959MOL0     H26542   1.120   9.941   4.314  0.1877 -1.6800  0.8732
  959MOL0     H26543   1.204  10.103   4.314 -0.5678  2.0174  0.9792
  959MOL0     H26544   1.083  10.148   4.526  0.8697 -1.4423  0.6945
  959MOL0     H26545   0.992  10.007   4.512 -0.1460  1.7967  1.8111
  959MOL0     H26546   0.965  10.198   4.273  1.4263  1.3854  2.6379
  959MOL0     H26547   0.870  10.046   4.311 -2.1956  1.7658 -2.1480
  959MOL0     H26548   0.859  10.306   4.469  3.6895 -0.1263 -2.1166
  959MOL0     H26549   0.777  10.156   4.514 -2.5547  0.8178 -1.3778
  959MOL0     H26550   0.502  10.256   4.211  5.1658 -2.7204  2.4888
  959MOL0     H26551   0.294  10.405   4.237  1.6047 -0.6174 -0.6722
  959MOL0     H26552  -0.078  10.571   4.477  0.8876 -0.5282 -2.7100
  959MOL0     H26553  -0.232  10.758   4.509 -0.7585 -0.0714 -1.7706
  959MOL0     H26554  -0.064  11.171   4.417  1.4699 -3.4876 -2.7179
  959MOL0     H26555  -0.072  11.152   4.591 -2.7346 -0.2186 -0.5874
  959MOL0     H26556  -0.214  11.323   4.506 -2.8608  0.6744  0.2352
  959MOL0     H26557  -0.308  11.218   4.606  1.1482  2.5049  1.3534
  959MOL0     H26558  -0.380  11.112   4.390  2.3275 -1.1269  2.3868
  959MOL0     H26559  -0.303  11.249   4.303 -1.1361  1.5941  0.0864
  959MOL0     H26560  -0.528  11.257   4.514 -4.3004  1.3920 -1.7926
  959MOL0     H26561  -0.449  11.399   4.450  2.7282  0.1170  0.7694
  959MOL0     H26562  -0.631  11.188   4.314  1.2841  0.0523  0.5663
  959MOL0     H26563  -0.530  11.302   4.218  1.1051  4.2605  1.2116
  959MOL0     H26564  -0.649  11.502   4.335  1.9170 -1.6723  2.0582
  959MOL0     H26565  -0.754  11.393   4.418  0.8430 -0.2955  0.4849
  959MOL0     H26566  -0.740  11.385   4.118  0.8389 -0.0311  0.5185
  959MOL0     H26567  -0.855  11.308   4.230 -0.5664  0.4274  0.2001
  959MOL0     H26568  -0.841  11.611   4.182 -0.4157  0.1674 -0.0055
  959MOL0     H26569  -0.934  11.523   4.296  1.6909 -1.1734  0.4554
  959MOL0     H26570   0.076  11.032   4.407  0.0177 -0.0757  0.7190
  959MOL0     H26571   0.228  10.825   4.328  0.3694  3.0088  0.7593
  959MOL0     H26572   0.474  10.535   4.609 -2.9878 -2.2486  1.1149
  959MOL0     H26573   0.664  10.387   4.584 -1.4236 -1.7970  2.4015
  959MOL0     H26574   2.560   9.538   4.113 -1.9003  1.8870  2.2872
  959MOL0     H26575   2.789   9.582   4.049 -1.5861  2.0612  0.1418
  959MOL0     H26576   3.231   9.614   4.299  1.7559  2.3342  0.4397
  959MOL0     H26577   3.459   9.649   4.278 -0.8079  2.2656 -0.6342
  959MOL0     H26578   3.617   9.561   3.879 -0.1191  3.7784  0.9542
  959MOL0     H26579   3.705   9.437   3.966  0.0479  0.3974  1.2871
  959MOL0     H26580   3.826   9.665   3.844 -3.1585 -1.8211 -2.2387
  959MOL0     H26581   3.785   9.721   4.006  1.7404  0.4910  0.2727
  959MOL0     H26582   3.954   9.458   3.961 -0.6212 -0.2644  0.4260
  959MOL0     H26583   3.913   9.543   4.107 -1.0605 -0.0539 -0.9193
  959MOL0     H26584   3.996   9.764   4.010 -1.0464  0.1765 -0.4133
  959MOL0     H26585   4.106   9.647   4.092  0.6168 -0.1261 -1.1376
  959MOL0     H26586   4.255   9.684   3.701 -2.2833  0.7311 -1.7451
  959MOL0     H26587   3.464   9.455   3.896  0.6694  0.8007  0.3158
  959MOL0     H26588   3.216   9.435   3.914  3.1104 -1.1884 -1.0952
  960MOL0     O26589   5.214   5.609   9.764  0.4464  0.4050 -0.6759
  960MOL0     C26590   5.123   5.520   9.756 -0.1367  0.4366 -0.1689
  960MOL0     O26591   5.009   5.535   9.685  0.0310 -0.0978 -0.4078
  960MOL0     C26592   5.001   5.637   9.597  0.6136  0.6004 -0.1528
  960MOL0     C26593   5.105   5.688   9.523 -0.4892  0.6694  0.7234
  960MOL0     C26594   5.093   5.775   9.422  0.6984 -0.1730 -1.6233
  960MOL0     C26595   4.972   5.840   9.413  0.2531 -0.7972  0.0553
  960MOL0     O26596   4.986   5.947   9.327  0.7961  0.0032 -0.2902
  960MOL0     C26597   4.876   6.027   9.294  0.1274  0.3140 -0.4258
  960MOL0     C26598   4.770   5.955   9.208 -0.3785 -0.7769 -1.1435
  960MOL0     C26599   4.642   6.038   9.201 -0.2995  0.0042  0.8488
  960MOL0     C26600   4.527   5.955   9.136 -0.8377  1.2790 -0.7898
  960MOL0     C26601   4.411   6.056   9.089  0.3402  0.1364 -0.2192
  960MOL0     C26602   4.326   6.013   8.970 -0.4586 -0.0280  0.2448
  960MOL0     C26603   4.193   6.078   8.955  0.6232 -0.0623 -0.4397
  960MOL0     C26604   4.196   6.200   8.880 -0.3569  0.1782  0.3773
  960MOL0     N26605   4.066   6.271   8.889 -0.9428 -0.2817 -0.0513
  960MOL0     C26606   4.053   6.386   8.957 -0.2507  0.2302  0.7640
  960MOL0     C26607   3.937   6.439   8.923  0.4854  0.6072  0.3165
  960MOL0     C26608   3.860   6.549   8.965 -0.0782 -0.2895  0.9037
  960MOL0     C26609   3.920   6.662   8.887  0.3452  0.3474 -0.1679
  960MOL0     C26610   3.868   6.799   8.940 -0.4920  1.0551 -0.4556
  960MOL0     C26611   3.779   6.859   8.829 -0.7778  0.5009 -0.4865
  960MOL0     O26612   3.731   6.996   8.857 -0.7506  0.8967  0.3583
  960MOL0     C26613   3.623   7.044   8.788 -0.4648  0.5714 -0.1414
  960MOL0     C26614   3.570   6.998   8.661  0.6836 -0.1308 -0.8133
  960MOL0     C26615   3.454   7.053   8.622  1.0658 -1.0396  0.3851
  960MOL0     C26616   3.386   7.158   8.679 -0.4739 -0.5116 -0.3480
  960MOL0     C26617   3.256   7.212   8.634 -1.0142 -0.5437  0.2966
  960MOL0     O26618   3.194   7.152   8.528 -0.3409  0.1857  0.1668
  960MOL0     C26619   3.098   7.213   8.453 -0.2949 -0.9455  0.1165
  960MOL0     C26620   3.120   7.215   8.314 -0.6259 -0.0614 -0.0948
  960MOL0     C26621   3.039   7.287   8.228 -0.1585  0.3650 -0.0448
  960MOL0     C26622   2.914   7.343   8.281 -0.2043  0.8086 -0.3226
  960MOL0     O26623   2.820   7.395   8.202  0.3113 -0.4956 -0.9389
  960MOL0     C26624   2.777   7.307   8.096 -0.4348  0.3954 -0.7211
  960MOL0     C26625   2.657   7.214   8.149 -1.3921 -0.1651  0.0050
  960MOL0     C26626   2.684   7.062   8.165  0.4382 -0.5226  0.2741
  960MOL0     C26627   2.798   7.018   8.257 -0.2686 -0.0174  0.1860
  960MOL0     C26628   2.807   6.867   8.286  0.1854 -0.6975  0.6328
  960MOL0     C26629   2.945   6.824   8.301 -0.9117  0.1314  0.1692
  960MOL0     C26630   3.004   6.868   8.439 -0.3791 -0.3335  0.4208
  960MOL0     C26631   3.143   6.817   8.485 -0.1641  0.7160  0.4940
  960MOL0    Cl26632   3.183   6.849   8.650 -0.1164  0.2579 -0.0261
  960MOL0     C26633   2.892   7.330   8.422 -0.3497 -0.6765 -0.0321
  960MOL0     C26634   2.987   7.271   8.502  0.3586 -0.0042 -0.5736
  960MOL0     O26635   3.215   7.313   8.687  0.2797  0.4542 -0.1191
  960MOL0     C26636   3.444   7.216   8.797  0.1893  0.1790 -0.6823
  960MOL0     C26637   3.560   7.155   8.855 -0.3360 -0.1083 -0.0566
  960MOL0     N26638   3.888   6.344   8.830 -0.3155  0.1222 -0.3188
  960MOL0     N26639   3.963   6.245   8.807 -0.0687 -0.2388 -0.5606
  960MOL0     C26640   4.857   5.801   9.482  0.0214  0.1204 -0.2662
  960MOL0     C26641   4.877   5.701   9.579 -0.4332 -0.5891  0.5414
  960MOL0     C26642   5.151   5.397   9.846  0.0107  0.5138  0.4269
  960MOL0     C26643   5.045   5.322   9.875  0.2473  0.4776  0.1794
  960MOL0     C26644   5.055   5.232   9.982 -0.0548 -1.0387 -0.5640
  960MOL0     C26645   5.170   5.208  10.056  0.1242 -0.4895  0.1148
  960MOL0     O26646   5.181   5.112  10.153  0.2119  0.0540 -0.8088
  960MOL0     C26647   5.069   5.019  10.177 -0.1034  0.2337 -0.2593
  960MOL0     C26648   5.086   4.953  10.309  0.3599 -0.4187  0.3172
  960MOL0     C26649   5.216   4.872  10.316 -0.6815  0.0625 -0.9752
  960MOL0     C26650   5.232   4.814  10.466 -0.3829  0.0221 -0.9785
  960MOL0     C26651   5.370   4.767  10.503 -0.3547 -0.7773  0.3793
  960MOL0     C26652   5.488   4.728  10.520  0.4379  0.1462  0.6045
  960MOL0     C26653   5.283   5.280  10.024 -0.0718  0.2976 -0.2729
  960MOL0     C26654   5.268   5.376   9.927  0.6164 -0.4263  1.0113
  960MOL0     H26655   5.199   5.637   9.535  0.1511  1.7092  0.2868
  960MOL0     H26656   5.175   5.824   9.371  2.0754 -2.4667 -1.7479
  960MOL0     H26657   4.933   6.104   9.240  3.5411  1.0586  3.7000
  960MOL0     H26658   4.834   6.079   9.381 -1.2066  3.7856 -2.8959
  960MOL0     H26659   4.748   5.856   9.251  1.9040  0.2658  2.9794
  960MOL0     H26660   4.814   5.955   9.108 -2.2802  0.9969 -2.0416
  960MOL0     H26661   4.671   6.124   9.139 -1.5830  0.8830  1.4334
  960MOL0     H26662   4.619   6.084   9.297  0.8744 -0.2663  1.2829
  960MOL0     H26663   4.576   5.909   9.049  1.5006 -1.1366  1.5859
  960MOL0     H26664   4.486   5.875   9.199 -0.7762 -0.4864 -2.8534
  960MOL0     H26665   4.437   6.158   9.063  1.6063 -0.7891 -2.8750
  960MOL0     H26666   4.344   6.069   9.175 -0.6156  3.4091 -1.3478
  960MOL0     H26667   4.314   5.905   8.982  0.2160 -0.6460 -3.3998
  960MOL0     H26668   4.382   6.018   8.876 -0.4701 -0.0488  0.2373
  960MOL0     H26669   4.130   6.009   8.898 -1.4032 -0.2168  1.8384
  960MOL0     H26670   4.159   6.092   9.058  0.9967 -0.9866 -0.1823
  960MOL0     H26671   4.215   6.172   8.776  0.1079  2.3415 -0.1515
  960MOL0     H26672   4.279   6.256   8.923 -1.9064  1.1751  2.2327
  960MOL0     H26673   4.118   6.439   9.026  1.1032  1.8753 -1.6138
  960MOL0     H26674   3.871   6.571   9.071  1.3930  0.2585  0.6552
  960MOL0     H26675   3.755   6.535   8.937  0.8286  0.1377 -3.4900
  960MOL0     H26676   3.874   6.640   8.790 -1.1256 -4.5037  1.3506
  960MOL0     H26677   4.029   6.652   8.882  0.1345 -2.0640 -1.8351
  960MOL0     H26678   3.808   6.784   9.030  0.7219  0.7273  0.3187
  960MOL0     H26679   3.955   6.855   8.976  1.8684 -1.5895 -1.5864
  960MOL0     H26680   3.690   6.796   8.823  0.5966 -1.8296  1.8012
  960MOL0     H26681   3.840   6.863   8.739  1.6238 -1.5093  0.9247
  960MOL0     H26682   3.615   6.920   8.600  2.4757  0.9869 -1.0016
  960MOL0     H26683   3.400   7.000   8.545  0.0788 -1.6504  1.4772
  960MOL0     H26684   3.210   7.173   8.270 -0.2736  2.1754 -1.7189
  960MOL0     H26685   3.057   7.277   8.122 -0.8476  0.9019 -0.2243
  960MOL0     H26686   2.858   7.238   8.072 -0.3553  0.4211 -0.5300
  960MOL0     H26687   2.746   7.372   8.014 -2.8674 -0.5340 -0.6302
  960MOL0     H26688   2.576   7.223   8.076 -1.6882  1.0840  0.4594
  960MOL0     H26689   2.624   7.255   8.245  1.3611 -0.1971  1.0582
  960MOL0     H26690   2.709   7.009   8.073  0.3953 -0.1708  0.0582
  960MOL0     H26691   2.593   7.030   8.217  0.4618  0.9590  1.2897
  960MOL0     H26692   2.894   7.061   8.226 -0.3106  0.3309  0.5252
  960MOL0     H26693   2.786   7.065   8.356  1.7997 -1.2900  1.1138
  960MOL0     H26694   2.759   6.815   8.203 -0.8199 -0.2751  0.9305
  960MOL0     H26695   2.749   6.840   8.374 -0.0859 -1.7810  0.1406
  960MOL0     H26696   3.007   6.871   8.224  0.7862  2.0895  2.5729
  960MOL0     H26697   2.943   6.715   8.294 -0.7019  0.0134  1.6562
  960MOL0     H26698   2.993   6.976   8.434 -2.5048 -0.5682 -1.8611
  960MOL0     H26699   2.924   6.841   8.508 -1.5258 -0.1703 -0.8179
  960MOL0     H26700   3.220   6.841   8.412 -2.4014  3.4132 -1.2025
  960MOL0     H26701   3.130   6.709   8.500 -2.5916  0.8706 -0.0878
  960MOL0     H26702   2.802   7.358   8.476  0.5247  3.3311 -0.3508
  960MOL0     H26703   2.974   7.269   8.610 -2.9578  1.2156 -0.8422
  960MOL0     H26704   3.384   7.288   8.851 -3.1092  0.6056 -4.4767
  960MOL0     H26705   3.608   7.190   8.946 -2.1316 -1.2006  1.3629
  960MOL0     H26706   4.766   5.860   9.484 -0.7975 -1.0780 -0.9618
  960MOL0     H26707   4.796   5.677   9.648  0.1871 -1.6203  0.9319
  960MOL0     H26708   4.951   5.333   9.822  0.5291  1.5150 -0.1135
  960MOL0     H26709   4.959   5.190  10.012  0.4582 -2.2233 -0.4990
  960MOL0     H26710   5.065   4.947  10.095 -0.5153  1.0663 -0.9841
  960MOL0     H26711   4.975   5.076  10.178 -0.7233 -0.6226 -2.5348
  960MOL0     H26712   5.085   5.022  10.395 -1.0313 -1.8188  1.4831
  960MOL0     H26713   4.999   4.888  10.302  0.2271 -0.0511 -2.5074
  960MOL0     H26714   5.301   4.940  10.303 -0.2270 -0.5599 -1.3163
  960MOL0     H26715   5.229   4.794  10.240 -1.7138 -0.5293 -0.5677
  960MOL0     H26716   5.204   4.883  10.546  0.8030  1.8202 -2.0636
  960MOL0     H26717   5.166   4.726  10.469  0.8812 -1.0461  3.5989
  960MOL0     H26718   5.580   4.672  10.519  1.6337  1.7306 -4.1085
  960MOL0     H26719   5.366   5.260  10.091  1.3358  0.6716 -1.8642
  960MOL0     H26720   5.363   5.430   9.920  0.1514  0.2272 -0.7945
  961MOL0     O26721   6.589   0.493   8.053 -0.0971 -0.1141  0.1514
  961MOL0     C26722   6.607   0.399   8.130 -0.2146  0.0215  0.1041
  961MOL0     O26723   6.513   0.306   8.164 -0.1671  0.1493 -0.1009
  961MOL0     C26724   6.382   0.323   8.132 -0.4048 -0.3208  0.4128
  961MOL0     C26725   6.302   0.219   8.173  0.0560  0.6506  0.0114
  961MOL0     C26726   6.165   0.194   8.159  0.7020  0.5183  1.3737
  961MOL0     C26727   6.104   0.302   8.087 -0.1107  0.0868 -0.1054
  961MOL0     O26728   5.977   0.313   8.032  0.5720  0.7082  0.3269
  961MOL0     C26729   5.868   0.261   8.107  0.4555  0.1950 -0.5158
  961MOL0     C26730   5.832   0.326   8.245  0.4720  0.4575  0.3773
  961MOL0     C26731   5.745   0.459   8.216 -0.2212  0.6658  0.3987
  961MOL0     C26732   5.724   0.546   8.339  0.0101  0.6313  0.4481
  961MOL0     C26733   5.590   0.614   8.332  0.2913  0.2305 -0.2360
  961MOL0     C26734   5.561   0.721   8.428  0.9899  0.0009 -0.0105
  961MOL0     C26735   5.421   0.791   8.376 -1.0937  0.7121  0.3565
  961MOL0     C26736   5.351   0.883   8.484 -0.4131  0.6045  0.5636
  961MOL0     N26737   5.221   0.947   8.438  0.3243  0.1942  1.1179
  961MOL0     C26738   5.141   1.021   8.520  0.8479  0.3783  0.7831
  961MOL0     C26739   5.041   1.073   8.437 -0.7207  1.8315 -0.4028
  961MOL0     C26740   4.928   1.165   8.484  0.2158  0.4580 -0.0850
  961MOL0     C26741   4.783   1.111   8.444 -0.1026 -0.1187  0.0965
  961MOL0     C26742   4.737   1.150   8.299 -0.3843 -0.6485 -0.4816
  961MOL0     C26743   4.731   1.300   8.273 -0.4176  0.0361 -0.2448
  961MOL0     O26744   4.638   1.347   8.374 -0.2078 -1.0649  0.0347
  961MOL0     C26745   4.522   1.418   8.331 -0.4171 -0.2660  0.3474
  961MOL0     C26746   4.402   1.383   8.396 -0.0738  0.4625  1.0493
  961MOL0     C26747   4.280   1.437   8.357 -1.1068  0.4732 -0.5054
  961MOL0     C26748   4.277   1.532   8.251  0.1370 -0.5153  1.7112
  961MOL0     C26749   4.150   1.600   8.214 -0.3506  0.4678 -0.3929
  961MOL0     O26750   4.048   1.568   8.296  0.5138 -0.1951 -0.2992
  961MOL0     C26751   3.921   1.615   8.270 -1.7451 -1.3813 -1.2724
  961MOL0     C26752   3.896   1.750   8.250 -0.0856 -0.2350 -0.6064
  961MOL0     C26753   3.760   1.795   8.252 -0.5514  0.2663  0.3117
  961MOL0     C26754   3.651   1.702   8.282 -0.2128  0.5281  0.0910
  961MOL0     O26755   3.525   1.751   8.285  0.3560 -0.3450  0.2624
  961MOL0     C26756   3.451   1.735   8.406 -0.3807 -0.3044 -0.0292
  961MOL0     C26757   3.303   1.699   8.362  0.6181  0.3331  0.2316
  961MOL0     C26758   3.201   1.747   8.459 -0.1604 -0.2360 -0.3256
  961MOL0     C26759   3.065   1.683   8.438 -0.8786  0.4210  0.8459
  961MOL0     C26760   2.981   1.708   8.555 -0.3455  0.3633  0.9066
  961MOL0     C26761   2.841   1.658   8.539 -0.8986  0.5932  0.2204
  961MOL0     C26762   2.733   1.729   8.620 -0.0854  0.7227  1.1077
  961MOL0     C26763   2.590   1.660   8.585  0.9690 -0.1498  0.9188
  961MOL0    Cl26764   2.578   1.486   8.600  0.7468 -0.1503 -0.1091
  961MOL0     C26765   3.691   1.563   8.285  1.1382  1.0115 -0.1852
  961MOL0     C26766   3.819   1.522   8.287 -0.0451 -0.5952  1.5263
  961MOL0     O26767   4.151   1.666   8.112  0.9615  0.4740  0.4870
  961MOL0     C26768   4.398   1.564   8.179  1.0219 -0.7154  0.0858
  961MOL0     C26769   4.515   1.506   8.226 -0.4072  1.1389 -0.1763
  961MOL0     N26770   5.066   1.019   8.308  0.0208 -0.3864  0.0512
  961MOL0     N26771   5.171   0.951   8.312  0.4858  0.3998  0.3571
  961MOL0     C26772   6.176   0.404   8.040 -0.1013  0.1896  0.8905
  961MOL0     C26773   6.314   0.425   8.062 -0.2502  0.1805 -0.2272
  961MOL0     C26774   6.746   0.376   8.173 -0.7013  0.1929 -0.2240
  961MOL0     C26775   6.780   0.259   8.229 -0.9604  0.5375 -0.2197
  961MOL0     C26776   6.914   0.238   8.259  0.0414 -0.2704  0.4673
  961MOL0     C26777   7.019   0.337   8.251  0.1300  0.8621 -0.3312
  961MOL0     O26778   7.145   0.302   8.283 -0.4671  0.9729  0.4188
  961MOL0     C26779   7.257   0.394   8.256  0.9000  0.9396 -0.8936
  961MOL0     C26780   7.384   0.337   8.321  0.5282  0.5990  0.3289
  961MOL0     C26781   7.512   0.416   8.282  0.6669  0.1318  0.2380
  961MOL0     C26782   7.494   0.574   8.280 -0.7705  0.2261  0.4732
  961MOL0     C26783   7.449   0.630   8.405  0.0275 -0.7382 -0.4217
  961MOL0     C26784   7.414   0.676   8.509 -0.1830 -0.1215  0.0896
  961MOL0     C26785   6.975   0.457   8.198 -0.3275 -0.2378  0.2452
  961MOL0     C26786   6.841   0.475   8.149  0.6803 -0.4611 -0.3648
  961MOL0     H26787   6.363   0.142   8.219  2.5403  0.1081 -3.7867
  961MOL0     H26788   6.101   0.114   8.193  0.5782  0.6569  1.4685
  961MOL0     H26789   5.885   0.154   8.125 -3.6078 -0.4751  0.4464
  961MOL0     H26790   5.779   0.265   8.043  0.4194 -4.6724 -1.1557
  961MOL0     H26791   5.929   0.353   8.288  0.8169 -3.0267  2.1130
  961MOL0     H26792   5.776   0.252   8.303  0.3814 -0.4932 -0.8836
  961MOL0     H26793   5.650   0.434   8.168  0.0844 -1.3825  0.7767
  961MOL0     H26794   5.800   0.522   8.145 -1.4462  1.1474 -0.1429
  961MOL0     H26795   5.735   0.485   8.429 -1.9261 -0.1094  0.2270
  961MOL0     H26796   5.804   0.620   8.343  0.8488  0.1803 -3.3943
  961MOL0     H26797   5.524   0.528   8.348  0.8031  0.0466  0.9673
  961MOL0     H26798   5.576   0.648   8.229 -3.7042 -2.2637 -0.7413
  961MOL0     H26799   5.630   0.806   8.431 -0.8528  1.5934 -0.5261
  961MOL0     H26800   5.544   0.692   8.532 -4.0042  1.2549 -0.1784
  961MOL0     H26801   5.436   0.851   8.286  0.3254  0.3009  0.2825
  961MOL0     H26802   5.348   0.719   8.340  0.2846  0.1386 -1.4105
  961MOL0     H26803   5.431   0.954   8.509 -1.2501  1.9832 -0.5156
  961MOL0     H26804   5.334   0.821   8.573 -0.5038  1.7280  1.3499
  961MOL0     H26805   5.153   1.043   8.625 -0.7921 -0.8766  1.2775
  961MOL0     H26806   4.938   1.267   8.446 -0.9064 -0.3030 -2.6592
  961MOL0     H26807   4.922   1.164   8.593  0.1112  1.9317 -0.0578
  961MOL0     H26808   4.708   1.151   8.512  0.9232  0.3523  0.9861
  961MOL0     H26809   4.794   1.002   8.454 -1.2113 -0.3942 -1.4021
  961MOL0     H26810   4.807   1.105   8.228  0.8732 -1.1537  1.0105
  961MOL0     H26811   4.635   1.110   8.302 -1.0739  1.0858  1.1480
  961MOL0     H26812   4.682   1.312   8.175  0.2898  1.7552 -0.4211
  961MOL0     H26813   4.823   1.358   8.281 -0.0294 -0.1931 -2.3080
  961MOL0     H26814   4.404   1.320   8.484 -1.4202  0.1652  0.8930
  961MOL0     H26815   4.188   1.416   8.411 -2.0638  1.9237 -1.5209
  961MOL0     H26816   3.972   1.827   8.240  0.4255 -0.5281  0.7270
  961MOL0     H26817   3.728   1.898   8.240 -0.2875  0.4705  1.2206
  961MOL0     H26818   3.465   1.830   8.458  1.7502  0.1258 -1.2371
  961MOL0     H26819   3.487   1.652   8.468  1.9659  0.4601 -0.2491
  961MOL0     H26820   3.288   1.593   8.339 -1.1412  1.1134 -2.8593
  961MOL0     H26821   3.275   1.760   8.275  0.0809  1.6127  1.2700
  961MOL0     H26822   3.193   1.856   8.455 -1.3142 -0.1908  1.6876
  961MOL0     H26823   3.233   1.728   8.562 -0.0259 -1.8277 -0.6249
  961MOL0     H26824   3.018   1.718   8.345  0.4006 -0.9615 -0.3581
  961MOL0     H26825   3.077   1.575   8.429  2.0785  0.5992  1.7285
  961MOL0     H26826   2.977   1.816   8.571 -0.6927  0.2154  1.8637
  961MOL0     H26827   3.030   1.678   8.648  2.0061  1.5079  0.1117
  961MOL0     H26828   2.846   1.556   8.578  0.7007  0.6601  0.2602
  961MOL0     H26829   2.820   1.656   8.431 -0.0049  1.3078  0.0155
  961MOL0     H26830   2.759   1.717   8.726  4.5798  1.2573  0.2327
  961MOL0     H26831   2.721   1.837   8.604 -1.1616  0.3253 -1.1909
  961MOL0     H26832   2.560   1.687   8.484 -1.2611  1.1580  1.8623
  961MOL0     H26833   2.516   1.701   8.654 -1.7771 -1.9218 -0.7854
  961MOL0     H26834   3.608   1.495   8.299  1.5263 -0.4313 -3.6624
  961MOL0     H26835   3.845   1.416   8.292 -0.5246 -0.6794  4.6037
  961MOL0     H26836   4.408   1.636   8.098 -0.7617  0.9433  1.2737
  961MOL0     H26837   4.608   1.530   8.174  0.1196  1.7956  1.0235
  961MOL0     H26838   6.138   0.484   7.977 -0.0702  0.2894  1.0002
  961MOL0     H26839   6.355   0.521   8.031 -3.4067  2.4732  2.0390
  961MOL0     H26840   6.706   0.185   8.257  1.4167 -2.1334 -0.5725
  961MOL0     H26841   6.927   0.138   8.299  0.0649  0.0193  1.2060
  961MOL0     H26842   7.233   0.494   8.293 -0.8772  0.2115  0.0695
  961MOL0     H26843   7.269   0.395   8.147  0.3961 -0.1263 -0.9774
  961MOL0     H26844   7.360   0.315   8.426 -3.4848 -1.7355 -0.8784
  961MOL0     H26845   7.400   0.236   8.282 -0.0774  1.3308 -1.9628
  961MOL0     H26846   7.538   0.379   8.182  0.2780  3.0338 -1.0498
  961MOL0     H26847   7.598   0.401   8.347 -0.8429  3.1090  3.2165
  961MOL0     H26848   7.585   0.626   8.247 -0.0487 -1.3375 -0.1103
  961MOL0     H26849   7.419   0.605   8.206  1.3113  1.3280 -1.3184
  961MOL0     H26850   7.377   0.720   8.600  2.2009 -0.3589  1.2655
  961MOL0     H26851   7.049   0.536   8.192  0.0690 -0.2491  3.4818
  961MOL0     H26852   6.804   0.573   8.120  0.2926  0.0276  1.6357
  962MOL0     O26853   6.546   8.070   7.854 -0.3921  0.3145  0.4130
  962MOL0     C26854   6.517   8.068   7.739  0.4569  0.7956 -0.2324
  962MOL0     O26855   6.389   8.057   7.689 -0.9041  0.3283 -0.6765
  962MOL0     C26856   6.289   8.062   7.781 -0.1214 -0.0572 -0.5885
  962MOL0     C26857   6.257   7.961   7.860 -0.6284  0.1086 -0.4316
  962MOL0     C26858   6.160   7.979   7.964  0.0403  0.3338  0.0276
  962MOL0     C26859   6.084   8.094   7.975 -0.7169  0.0952 -0.4719
  962MOL0     O26860   5.993   8.111   8.070  0.0783 -0.1522  0.5810
  962MOL0     C26861   6.051   8.181   8.188 -0.0545  0.6604 -0.2917
  962MOL0     C26862   5.929   8.241   8.261  0.8773 -0.1769  0.2700
  962MOL0     C26863   5.882   8.120   8.355  0.6911 -0.7644 -0.0397
  962MOL0     C26864   5.775   8.172   8.455  0.5081  0.6091 -0.4622
  962MOL0     C26865   5.766   8.066   8.565  0.1106  0.9466  0.2341
  962MOL0     C26866   5.703   7.935   8.519  0.6548 -0.1483 -0.0300
  962MOL0     C26867   5.644   7.865   8.639  0.2884 -0.0520 -0.1647
  962MOL0     C26868   5.495   7.906   8.667  0.0140  0.3001  0.8779
  962MOL0     N26869   5.438   7.814   8.774  0.1806 -0.2748  0.1910
  962MOL0     C26870   5.485   7.808   8.905 -1.1487 -0.3274 -0.2846
  962MOL0     C26871   5.413   7.720   8.971 -0.5103  0.5650 -0.4475
  962MOL0     C26872   5.436   7.658   9.111  1.2044 -0.1766 -0.3314
  962MOL0     C26873   5.485   7.756   9.231 -0.8569 -0.1092  0.3724
  962MOL0     C26874   5.382   7.868   9.246 -0.1860  0.4885  0.3977
  962MOL0     C26875   5.417   7.979   9.340 -0.5569  0.4978  0.1882
  962MOL0     O26876   5.298   8.051   9.368 -0.1804 -0.6866 -0.2131
  962MOL0     C26877   5.295   8.119   9.485 -0.0994 -0.2140  0.2435
  962MOL0     C26878   5.409   8.177   9.536 -0.9485  0.7361  0.1123
  962MOL0     C26879   5.404   8.250   9.649  0.0843  0.3989 -0.1933
  962MOL0     C26880   5.279   8.274   9.707  0.1346  0.3014  0.0925
  962MOL0     C26881   5.270   8.351   9.834 -1.0366  0.3262  0.6292
  962MOL0     O26882   5.372   8.442   9.857  0.0725 -0.3458  0.2173
  962MOL0     C26883   5.354   8.530   9.960  0.1199 -0.0766 -0.4260
  962MOL0     C26884   5.374   8.483  10.090  0.3909  0.2068  0.4242
  962MOL0     C26885   5.362   8.577  10.187 -0.3569 -0.0366  0.1346
  962MOL0     C26886   5.330   8.714  10.164 -0.6834  0.5362 -0.1925
  962MOL0     O26887   5.330   8.793  10.271 -0.2865  0.6014 -0.0998
  962MOL0     C26888   5.203   8.851  10.295  0.7980  0.5094 -0.9734
  962MOL0     C26889   5.210   8.936  10.424  0.4268  0.0780  0.4215
  962MOL0     C26890   5.289   9.070  10.392  0.1059  0.5236 -0.4692
  962MOL0     C26891   5.314   9.140  10.520 -1.3429 -0.5807 -0.4840
  962MOL0     C26892   5.411   9.256  10.506  0.8394  0.7083 -0.2566
  962MOL0     C26893   5.367   9.351  10.393 -0.9183 -0.0781 -0.3275
  962MOL0     C26894   5.230   9.436  10.414  0.6803  0.3056  0.8941
  962MOL0     C26895   5.217   9.527  10.281  0.1873 -0.1433  0.3581
  962MOL0    Cl26896   5.355   9.630  10.233  0.0597  0.3080  0.0018
  962MOL0     C26897   5.299   8.758  10.031 -0.5796 -0.9664  0.0847
  962MOL0     C26898   5.316   8.667   9.930 -0.3957 -0.1671 -0.2797
  962MOL0     O26899   5.162   8.347   9.897  0.3752  0.2890  0.4200
  962MOL0     C26900   5.161   8.238   9.641  0.1684 -0.7726  0.4606
  962MOL0     C26901   5.169   8.159   9.529 -0.2783  0.9454 -0.1056
  962MOL0     N26902   5.322   7.673   8.880  1.3723 -0.2223  0.3002
  962MOL0     N26903   5.334   7.721   8.758 -0.8998  0.1099 -0.0802
  962MOL0     C26904   6.121   8.200   7.893  0.1826  0.1929  0.6573
  962MOL0     C26905   6.225   8.186   7.797  0.3595 -0.0465 -0.5013
  962MOL0     C26906   6.617   8.093   7.637  0.0759 -0.0668  0.7117
  962MOL0     C26907   6.579   8.072   7.503  0.4436  0.4102 -0.0303
  962MOL0     C26908   6.666   8.088   7.403 -0.1622  0.2443 -0.3153
  962MOL0     C26909   6.796   8.131   7.424  0.3023 -0.3569 -0.4858
  962MOL0     O26910   6.895   8.145   7.332  0.5369  0.3159  0.2127
  962MOL0     C26911   6.912   8.267   7.258  0.4426 -0.0900  0.6459
  962MOL0     C26912   6.867   8.234   7.124  0.2148 -1.2573 -0.7331
  962MOL0     C26913   6.912   8.343   7.022  0.0236  0.2902 -0.1972
  962MOL0     C26914   6.838   8.359   6.884  0.6726 -0.7855  0.0973
  962MOL0     C26915   6.693   8.346   6.898 -0.6169  0.3224 -0.9926
  962MOL0     C26916   6.576   8.338   6.929 -0.5199 -0.5758 -0.1706
  962MOL0     C26917   6.839   8.155   7.556 -0.3776 -0.5151  0.4457
  962MOL0     C26918   6.750   8.132   7.665 -0.1528 -0.5250  0.5383
  962MOL0     H26919   6.316   7.871   7.852 -1.4688 -0.5794  0.8439
  962MOL0     H26920   6.152   7.904   8.042 -4.1089  0.5761  0.0944
  962MOL0     H26921   6.117   8.266   8.165  0.4019  0.7243  1.1671
  962MOL0     H26922   6.114   8.109   8.242  0.5790 -0.5812 -2.5495
  962MOL0     H26923   5.858   8.277   8.185  0.6452 -2.6959 -0.8333
  962MOL0     H26924   5.959   8.323   8.325 -1.3161  0.5455  0.4462
  962MOL0     H26925   5.965   8.090   8.420  0.4836  0.6658  0.9093
  962MOL0     H26926   5.857   8.038   8.286  2.9218 -1.6428  0.1129
  962MOL0     H26927   5.823   8.262   8.495  1.8126  0.8005 -2.3473
  962MOL0     H26928   5.682   8.209   8.411 -0.5525  0.6498  1.6872
  962MOL0     H26929   5.713   8.106   8.652  0.9840  1.0802  0.7126
  962MOL0     H26930   5.867   8.043   8.599  0.7793  0.4702 -1.8951
  962MOL0     H26931   5.777   7.881   8.460  3.1267  3.0948 -0.2298
  962MOL0     H26932   5.621   7.958   8.450 -0.5716  0.3976  1.5300
  962MOL0     H26933   5.644   7.757   8.623  0.4046  0.1196 -1.4147
  962MOL0     H26934   5.694   7.878   8.736 -3.0382  1.2714  1.5431
  962MOL0     H26935   5.432   7.899   8.578  0.6847 -1.4119  0.4994
  962MOL0     H26936   5.492   8.011   8.698 -1.5291  0.3632  0.6225
  962MOL0     H26937   5.578   7.854   8.939 -1.1751 -0.4724 -0.0141
  962MOL0     H26938   5.511   7.578   9.108  2.8711  1.3191 -0.6037
  962MOL0     H26939   5.342   7.613   9.145  0.2431  1.4040 -0.8073
  962MOL0     H26940   5.582   7.801   9.207 -1.3116 -0.2178 -1.8621
  962MOL0     H26941   5.499   7.701   9.325  1.7822  0.5968  0.4710
  962MOL0     H26942   5.367   7.916   9.150  0.4084 -0.2131 -0.0613
  962MOL0     H26943   5.290   7.819   9.281  0.1876  0.4043  1.2947
  962MOL0     H26944   5.485   8.050   9.291 -2.2604  2.0698  0.0123
  962MOL0     H26945   5.480   7.939   9.420 -0.5803  1.0151  0.4691
  962MOL0     H26946   5.505   8.158   9.488 -1.1599 -1.1817  0.3714
  962MOL0     H26947   5.500   8.285   9.688  1.3156 -2.5382 -0.3310
  962MOL0     H26948   5.410   8.385  10.117 -0.1572 -0.1245 -0.0247
  962MOL0     H26949   5.410   8.547  10.280 -0.0328 -2.2701 -0.6948
  962MOL0     H26950   5.124   8.777  10.308  0.4593  1.1685  1.2680
  962MOL0     H26951   5.173   8.924  10.219 -1.5034 -0.2354 -0.8372
  962MOL0     H26952   5.244   8.868  10.503 -2.3428  0.2418  1.9034
  962MOL0     H26953   5.111   8.968  10.458 -0.3067 -0.2238 -1.3296
  962MOL0     H26954   5.240   9.121  10.309  0.7046  0.1525 -1.0600
  962MOL0     H26955   5.385   9.041  10.349 -0.4286 -0.7407 -0.8730
  962MOL0     H26956   5.221   9.169  10.570 -0.6483 -0.0025  0.5229
  962MOL0     H26957   5.345   9.057  10.584 -1.8445 -0.0406  0.4805
  962MOL0     H26958   5.515   9.229  10.488  1.1654  3.0452 -2.4902
  962MOL0     H26959   5.403   9.319  10.596 -1.7082  2.4426 -1.5675
  962MOL0     H26960   5.374   9.294  10.300 -2.7438 -3.2882  1.3257
  962MOL0     H26961   5.442   9.428  10.373 -1.4208  0.6694  0.5466
  962MOL0     H26962   5.137   9.379  10.415 -2.2556  4.3939 -2.7391
  962MOL0     H26963   5.228   9.494  10.507  0.6491  0.5649  0.7347
  962MOL0     H26964   5.131   9.593  10.274 -0.3625 -0.8348  0.4916
  962MOL0     H26965   5.187   9.448  10.210 -0.7427 -0.6680  1.3102
  962MOL0     H26966   5.269   8.861  10.011  0.0073 -0.4378  1.7683
  962MOL0     H26967   5.294   8.727   9.843 -1.9779 -1.1725 -0.6156
  962MOL0     H26968   5.071   8.253   9.701  0.1109 -0.8182  0.3863
  962MOL0     H26969   5.073   8.137   9.483 -0.4987  1.2108  0.2243
  962MOL0     H26970   6.060   8.290   7.902  1.0470  1.0512 -1.2999
  962MOL0     H26971   6.259   8.256   7.722 -0.2331 -1.1315 -1.8132
  962MOL0     H26972   6.479   8.043   7.471  0.9770 -2.9690  0.9492
  962MOL0     H26973   6.635   8.064   7.301  1.0663  1.9500 -1.1402
  962MOL0     H26974   7.019   8.290   7.264  0.0250  1.6216  3.6706
  962MOL0     H26975   6.849   8.353   7.284 -0.4654 -1.0371  1.6887
  962MOL0     H26976   6.922   8.145   7.092  2.0099 -0.0884 -1.0547
  962MOL0     H26977   6.762   8.208   7.109 -0.4605 -0.6304  2.2965
  962MOL0     H26978   7.018   8.318   7.010 -0.2037 -0.3629 -0.9233
  962MOL0     H26979   6.919   8.442   7.068 -3.4177  0.8969 -0.7291
  962MOL0     H26980   6.871   8.453   6.839 -2.0058  0.8417  1.3489
  962MOL0     H26981   6.876   8.278   6.821 -1.2483 -1.0822 -0.7575
  962MOL0     H26982   6.475   8.316   6.956 -0.1287 -1.3220  0.7570
  962MOL0     H26983   6.939   8.195   7.571  0.7687 -2.4874 -1.3271
  962MOL0     H26984   6.776   8.167   7.764  2.6890  3.4139 -1.3284
  963MOL0     O26985   6.706   6.714   3.011  1.3466 -0.0982  0.2343
  963MOL0     C26986   6.792   6.618   3.006  0.2857  0.3541  0.9035
  963MOL0     O26987   6.766   6.485   3.030  1.0505 -0.2391 -0.7217
  963MOL0     C26988   6.662   6.464   3.119 -0.8840 -0.3005  0.8124
  963MOL0     C26989   6.522   6.477   3.084 -0.2350  0.1846 -0.5923
  963MOL0     C26990   6.428   6.459   3.184 -0.1891  0.1737 -0.9749
  963MOL0     C26991   6.468   6.423   3.318  0.5815  0.2714  0.0187
  963MOL0     O26992   6.385   6.381   3.426  0.2251 -0.5013 -1.3090
  963MOL0     C26993   6.245   6.398   3.419 -0.5118  0.0023  1.1286
  963MOL0     C26994   6.192   6.427   3.561  0.2344  0.4364  0.1237
  963MOL0     C26995   6.042   6.387   3.593 -0.1069 -0.0651  0.2475
  963MOL0     C26996   6.022   6.374   3.738 -0.8067 -0.6501  0.1598
  963MOL0     C26997   5.881   6.335   3.782  0.5869 -0.2218 -1.2744
  963MOL0     C26998   5.786   6.450   3.744  0.1727 -1.3016 -0.0262
  963MOL0     C26999   5.809   6.579   3.809 -0.5744 -1.1098  0.4870
  963MOL0     C27000   5.694   6.682   3.795 -0.4163  0.7379 -0.5949
  963MOL0     N27001   5.712   6.803   3.876  0.1333 -0.6254 -0.0318
  963MOL0     C27002   5.788   6.915   3.842  0.1343 -0.1337  0.1561
  963MOL0     C27003   5.778   6.991   3.955 -0.3053 -0.4177 -0.5093
  963MOL0     C27004   5.837   7.121   3.980  0.4658 -0.9242  0.1195
  963MOL0     C27005   5.735   7.230   3.974  1.0619 -0.7556  0.6490
  963MOL0     C27006   5.793   7.373   4.002 -0.8742  0.3134  0.0035
  963MOL0     C27007   5.679   7.486   4.017 -0.2736 -0.4823  0.5494
  963MOL0     O27008   5.740   7.609   4.002  0.4406  0.4083  0.0509
  963MOL0     C27009   5.678   7.720   4.047 -1.1418  0.0100 -0.0635
  963MOL0     C27010   5.542   7.745   4.063 -0.5083  0.9273  0.2391
  963MOL0     C27011   5.504   7.868   4.110 -0.5414 -0.3001  0.4104
  963MOL0     C27012   5.601   7.970   4.147 -0.8815 -0.8709 -0.5090
  963MOL0     C27013   5.554   8.104   4.194 -0.0020  0.3164 -0.4046
  963MOL0     O27014   5.647   8.196   4.228  0.4145 -0.1087 -0.4501
  963MOL0     C27015   5.610   8.307   4.287 -0.0460  0.3764  0.0070
  963MOL0     C27016   5.593   8.303   4.432  0.6905 -0.0737  0.3285
  963MOL0     C27017   5.566   8.422   4.501 -0.1629  0.8198 -0.1369
  963MOL0     C27018   5.562   8.551   4.433 -0.8080  0.9165  0.5826
  963MOL0     O27019   5.527   8.656   4.506  0.0280  0.1041 -0.2978
  963MOL0     C27020   5.456   8.766   4.437 -0.1278  0.5380 -0.8964
  963MOL0     C27021   5.321   8.717   4.392 -0.0996  1.0945  0.3602
  963MOL0     C27022   5.236   8.659   4.508 -1.4765 -0.5095  0.7106
  963MOL0     C27023   5.118   8.584   4.444 -0.5907 -1.1032  0.9326
  963MOL0     C27024   5.017   8.564   4.552 -0.5420  0.1608 -0.0045
  963MOL0     C27025   4.883   8.529   4.496 -0.6205 -0.2136 -1.1013
  963MOL0     C27026   4.761   8.518   4.590 -0.5673 -0.6617  0.4072
  963MOL0     C27027   4.768   8.383   4.665 -0.2456 -1.0352 -0.3187
  963MOL0    Cl27028   4.700   8.253   4.553 -0.3718 -0.0871 -0.0010
  963MOL0     C27029   5.585   8.550   4.291 -0.9119 -0.4216 -0.0014
  963MOL0     C27030   5.597   8.426   4.214 -0.2514  0.1151  0.1794
  963MOL0     O27031   5.441   8.132   4.173 -0.9040  0.5641  0.1884
  963MOL0     C27032   5.737   7.945   4.124  0.2708 -1.4069  1.2076
  963MOL0     C27033   5.770   7.824   4.072  0.5740  0.6132 -0.1468
  963MOL0     N27034   5.699   6.923   4.050  0.4167 -0.7325  0.4220
  963MOL0     N27035   5.654   6.815   3.997  0.6526  0.1853 -0.0194
  963MOL0     C27036   6.604   6.426   3.349  0.4277  0.3772  0.5184
  963MOL0     C27037   6.703   6.429   3.255 -1.2559  0.1380 -0.4806
  963MOL0     C27038   6.932   6.655   2.956 -0.6590  1.1835  0.2924
  963MOL0     C27039   6.961   6.770   2.878 -0.2645  0.1499 -0.3536
  963MOL0     C27040   7.091   6.790   2.833  0.6566 -0.6312  0.0151
  963MOL0     C27041   7.195   6.711   2.861  1.1523 -0.0666 -0.5167
  963MOL0     O27042   7.326   6.743   2.839  0.2896 -0.5842 -0.0083
  963MOL0     C27043   7.411   6.661   2.760 -0.5632  0.8992  0.7299
  963MOL0     C27044   7.390   6.701   2.614  0.1347  0.0149 -1.3826
  963MOL0     C27045   7.485   6.625   2.528 -0.0687 -0.6107  0.3496
  963MOL0     C27046   7.458   6.662   2.382  0.0411 -0.9555  0.8360
  963MOL0     C27047   7.494   6.800   2.337 -0.0321 -0.4081  0.0887
  963MOL0     C27048   7.536   6.907   2.305 -0.9294  0.3925  0.2190
  963MOL0     C27049   7.166   6.582   2.932 -0.7217 -0.1392  0.5364
  963MOL0     C27050   7.037   6.559   2.986  0.2493 -1.1143 -0.2733
  963MOL0     H27051   6.496   6.523   2.989 -1.7477 -0.3584 -0.4673
  963MOL0     H27052   6.324   6.478   3.157 -1.2589 -1.5599  1.4966
  963MOL0     H27053   6.213   6.303   3.375  3.0804 -0.6940 -0.3181
  963MOL0     H27054   6.233   6.488   3.358 -0.4108  0.7818  2.2312
  963MOL0     H27055   6.194   6.536   3.575 -1.8867  0.8493 -2.1064
  963MOL0     H27056   6.247   6.378   3.643  0.3583 -0.1641 -0.3145
  963MOL0     H27057   6.024   6.295   3.536 -0.1950  0.5714 -0.7872
  963MOL0     H27058   5.978   6.467   3.555  1.5492  1.9669  1.5367
  963MOL0     H27059   6.091   6.293   3.763  1.4055  1.1533  0.2484
  963MOL0     H27060   6.063   6.460   3.793  0.7396 -2.5115  2.1340
  963MOL0     H27061   5.889   6.319   3.890 -0.6680  1.4280 -0.8867
  963MOL0     H27062   5.831   6.248   3.739 -3.3809  2.3683 -2.3762
  963MOL0     H27063   5.681   6.426   3.767 -0.9532  3.5727  1.0965
  963MOL0     H27064   5.799   6.467   3.637  0.9244 -1.6952 -0.0035
  963MOL0     H27065   5.830   6.567   3.916 -1.3522 -2.6176  0.4936
  963MOL0     H27066   5.898   6.627   3.767  1.2551 -2.7484  2.2719
  963MOL0     H27067   5.607   6.619   3.818 -0.4417  0.1683 -2.1114
  963MOL0     H27068   5.672   6.704   3.690  0.0994  1.2939 -0.5936
  963MOL0     H27069   5.837   6.933   3.747 -0.1597  0.7346  0.1540
  963MOL0     H27070   5.914   7.144   3.905 -1.4192 -2.4418 -2.4090
  963MOL0     H27071   5.901   7.119   4.069 -0.2044 -0.8742  0.6130
  963MOL0     H27072   5.660   7.212   4.050  2.2832 -2.8524  1.4404
  963MOL0     H27073   5.686   7.229   3.876  1.5855 -0.7244  0.3787
  963MOL0     H27074   5.846   7.365   4.097 -0.8834 -0.7045 -0.0580
  963MOL0     H27075   5.868   7.411   3.933  0.1785  2.5798  2.2913
  963MOL0     H27076   5.632   7.477   4.116  0.4365  2.4060  1.2267
  963MOL0     H27077   5.599   7.468   3.944  2.4481 -1.8984 -2.3029
  963MOL0     H27078   5.467   7.670   4.041  0.1648  0.6100 -1.0956
  963MOL0     H27079   5.399   7.893   4.114 -0.6592 -0.8733  1.0517
  963MOL0     H27080   5.610   8.213   4.489  0.1064 -0.3975  0.0133
  963MOL0     H27081   5.562   8.416   4.609 -0.3042  1.8294 -0.0786
  963MOL0     H27082   5.516   8.813   4.359  1.0539 -0.4455 -0.6045
  963MOL0     H27083   5.439   8.840   4.515 -1.3294 -1.3401  0.7104
  963MOL0     H27084   5.332   8.640   4.315  2.3549  1.2222  0.5091
  963MOL0     H27085   5.274   8.805   4.347 -0.1160 -0.2144 -2.4210
  963MOL0     H27086   5.207   8.752   4.558  2.2706  0.2996  1.6622
  963MOL0     H27087   5.293   8.588   4.569 -1.7970 -1.1534  0.2684
  963MOL0     H27088   5.078   8.655   4.371 -1.9198 -1.1539  1.6015
  963MOL0     H27089   5.147   8.488   4.400 -1.0625 -1.7866  2.0865
  963MOL0     H27090   5.007   8.658   4.607  2.6710  0.7717 -0.2700
  963MOL0     H27091   5.066   8.483   4.607  1.8357  1.0319 -0.7179
  963MOL0     H27092   4.900   8.433   4.446  1.3929 -1.1387  1.1710
  963MOL0     H27093   4.869   8.601   4.415 -3.2955  0.2695 -0.3190
  963MOL0     H27094   4.753   8.605   4.657 -0.1086  0.3643 -0.8329
  963MOL0     H27095   4.678   8.511   4.519 -0.9103 -1.0896  0.8445
  963MOL0     H27096   4.703   8.387   4.753  0.2891 -0.3223  0.0605
  963MOL0     H27097   4.865   8.352   4.704 -0.8798 -2.2661  0.3538
  963MOL0     H27098   5.589   8.647   4.243  2.0880  0.7298  2.2606
  963MOL0     H27099   5.608   8.430   4.106 -1.3131  1.8093  0.0947
  963MOL0     H27100   5.814   8.021   4.134 -0.0381 -1.0700  1.0635
  963MOL0     H27101   5.872   7.818   4.036  0.7303  0.9435  0.2302
  963MOL0     H27102   6.638   6.407   3.450 -1.5119 -0.7048  1.0233
  963MOL0     H27103   6.805   6.420   3.293 -1.6178  1.1382  0.7961
  963MOL0     H27104   6.889   6.851   2.864  1.2382  1.2084 -2.4217
  963MOL0     H27105   7.113   6.871   2.765 -0.0682 -0.3853  0.0652
  963MOL0     H27106   7.379   6.556   2.758 -0.5332  0.8844  1.0296
  963MOL0     H27107   7.515   6.669   2.794 -0.2707 -1.9500  0.7267
  963MOL0     H27108   7.289   6.674   2.583 -0.7141  2.0349 -0.5617
  963MOL0     H27109   7.403   6.808   2.596  1.4085  0.7260  2.6166
  963MOL0     H27110   7.475   6.517   2.545 -3.7070 -0.4777 -0.2646
  963MOL0     H27111   7.587   6.652   2.559 -0.6255 -1.8181  3.6768
  963MOL0     H27112   7.502   6.590   2.312 -0.9886  0.7654 -1.7346
  963MOL0     H27113   7.351   6.643   2.368 -0.2904  0.6403  1.0203
  963MOL0     H27114   7.571   7.006   2.284 -1.3314  0.5539  0.2992
  963MOL0     H27115   7.255   6.523   2.954  0.2326  0.5646 -1.3011
  963MOL0     H27116   7.008   6.472   3.044 -0.9499  0.7823  2.1720
  964MOL0     O27117  10.311   6.354   1.901 -0.0306  0.0417 -0.3823
  964MOL0     C27118  10.204   6.337   1.961  0.3791  0.0572  0.2839
  964MOL0     O27119  10.179   6.383   2.096  0.3537  0.1580 -0.7342
  964MOL0     C27120  10.263   6.439   2.195 -0.9664 -0.4058  0.5206
  964MOL0     C27121  10.191   6.464   2.315  0.0034 -0.2803  0.0564
  964MOL0     C27122  10.248   6.549   2.411 -0.4928 -0.4590 -0.9481
  964MOL0     C27123  10.378   6.591   2.403 -0.1053 -0.7090 -0.3025
  964MOL0     O27124  10.441   6.661   2.502  0.0599  0.1246  0.7654
  964MOL0     C27125  10.392   6.646   2.637  1.2801 -0.3058  0.6783
  964MOL0     C27126  10.487   6.716   2.740  0.1469  0.3401 -0.3763
  964MOL0     C27127  10.415   6.714   2.881  0.1277  0.1549 -0.2312
  964MOL0     C27128  10.509   6.773   2.987  0.3911 -0.2797 -0.5513
  964MOL0     C27129  10.580   6.667   3.075 -0.5579  0.0354  0.0469
  964MOL0     C27130  10.670   6.734   3.176  0.3675 -0.8781  1.0060
  964MOL0     C27131  10.748   6.632   3.265 -0.0636  0.0942 -0.5070
  964MOL0     C27132  10.851   6.701   3.363  0.3898  0.3537  0.0837
  964MOL0     N27133  10.921   6.590   3.436 -0.5483 -0.5433 -0.4974
  964MOL0     C27134  10.907   6.566   3.571  0.2799  0.2392 -0.4451
  964MOL0     C27135  10.995   6.471   3.604  0.6407 -0.6691  0.6292
  964MOL0     C27136  10.996   6.421   3.744 -0.7060  0.2245  0.7010
  964MOL0     C27137  11.019   6.271   3.761 -1.5362 -0.1241  0.4250
  964MOL0     C27138  11.079   6.234   3.899  0.2305  0.3543 -0.0921
  964MOL0     C27139  11.151   6.089   3.892  0.0886 -0.0118  0.5219
  964MOL0     O27140  11.281   6.097   3.823  0.6585  0.8483  0.2475
  964MOL0     C27141  11.400   6.106   3.895  0.9678 -0.7143  0.5597
  964MOL0     C27142  11.521   6.062   3.829  0.1323 -0.2363 -0.3670
  964MOL0     C27143  11.651   6.049   3.894 -0.0037  0.1488  0.0950
  964MOL0     C27144  11.665   6.100   4.022 -0.9350  0.0933 -0.3351
  964MOL0     C27145  11.808   6.107   4.075  0.1909 -0.7965  0.0417
  964MOL0     O27146  11.906   6.073   3.984 -1.1214 -0.0250 -0.6929
  964MOL0     C27147  12.032   6.091   4.031  0.4615  0.4294 -0.4344
  964MOL0     C27148  12.119   6.191   3.976  0.9185 -0.1968  0.0354
  964MOL0     C27149  12.246   6.199   4.038 -0.1080  0.5031  0.3218
  964MOL0     C27150  12.286   6.110   4.137  0.1126  0.5071  0.5967
  964MOL0     O27151  12.411   6.126   4.201 -0.1660 -0.3407  0.9076
  964MOL0     C27152  12.461   6.012   4.271  0.6903  0.2267  0.3163
  964MOL0     C27153  12.609   6.015   4.285 -0.9626  0.4023 -0.1055
  964MOL0     C27154  12.666   6.142   4.361 -0.0094  0.1093  1.0057
  964MOL0     C27155  12.812   6.137   4.380 -0.6383 -0.8022 -0.1509
  964MOL0     C27156  12.837   6.170   4.531  0.1047  0.4404 -0.5941
  964MOL0     C27157  12.980   6.151   4.576 -0.4277  0.4337  0.2392
  964MOL0     C27158  13.015   6.200   4.716 -0.2461  0.0514 -0.9759
  964MOL0     C27159  13.156   6.152   4.763  0.8265 -1.1472 -0.7156
  964MOL0    Cl27160  13.172   5.974   4.756  0.3667  0.0603  0.3419
  964MOL0     C27161  12.201   6.010   4.185  0.2251 -0.6891 -0.0359
  964MOL0     C27162  12.075   5.997   4.120  0.3366 -0.0126  0.0158
  964MOL0     O27163  11.825   6.129   4.199  0.2890 -0.4831 -0.5727
  964MOL0     C27164  11.549   6.138   4.093 -0.1186 -0.0951 -0.8958
  964MOL0     C27165  11.420   6.137   4.032  0.3875  1.1301  0.0196
  964MOL0     N27166  11.061   6.424   3.489  0.0686  0.0500 -0.0004
  964MOL0     N27167  11.015   6.502   3.392  0.2820  0.7344  0.6595
  964MOL0     C27168  10.454   6.570   2.286 -0.3056 -0.2964 -0.0241
  964MOL0     C27169  10.399   6.488   2.182 -0.3068  0.8062  0.6367
  964MOL0     C27170  10.081   6.276   1.898 -0.5932 -0.1118 -0.0274
  964MOL0     C27171  10.104   6.193   1.790 -0.5747 -0.1212  0.3332
  964MOL0     C27172   9.996   6.139   1.715  0.5228 -0.8022  0.1706
  964MOL0     C27173   9.868   6.180   1.759 -0.4788  0.2004 -0.6880
  964MOL0     O27174   9.760   6.136   1.696  0.5023 -1.1160  0.1972
  964MOL0     C27175   9.752   6.156   1.565  0.1418 -0.5301 -0.5501
  964MOL0     C27176   9.609   6.157   1.517  1.0963  1.2412  0.3565
  964MOL0     C27177   9.545   6.291   1.499 -0.2418 -0.3775  0.6346
  964MOL0     C27178   9.555   6.349   1.359  0.0714  0.0969  0.5582
  964MOL0     C27179   9.481   6.469   1.331 -0.3867  0.2870  0.3831
  964MOL0     C27180   9.421   6.567   1.326 -0.0893 -0.2503  0.3747
  964MOL0     C27181   9.842   6.252   1.882 -0.0183  0.8985  0.7738
  964MOL0     C27182   9.954   6.310   1.937  1.4669  0.3474 -0.9848
  964MOL0     H27183  10.089   6.427   2.311 -0.1946  0.3783 -2.4272
  964MOL0     H27184  10.177   6.581   2.487 -1.3975  2.4505 -2.8411
  964MOL0     H27185  10.379   6.540   2.660  3.5774 -1.0985 -1.2888
  964MOL0     H27186  10.291   6.687   2.651  0.6339 -1.4653 -0.3440
  964MOL0     H27187  10.491   6.818   2.700  1.5142  0.4934  0.1141
  964MOL0     H27188  10.582   6.662   2.743 -0.3764 -0.5800  0.2612
  964MOL0     H27189  10.412   6.608   2.905  0.3396 -0.0480 -1.0767
  964MOL0     H27190  10.313   6.753   2.888 -0.7831 -0.7056 -5.0546
  964MOL0     H27191  10.585   6.841   2.945  1.2381  0.6905  2.3420
  964MOL0     H27192  10.445   6.830   3.054  2.1771  1.7577 -0.4620
  964MOL0     H27193  10.633   6.595   3.011 -0.2588  0.9239 -0.7290
  964MOL0     H27194  10.501   6.616   3.130  0.9072 -2.2194  0.1841
  964MOL0     H27195  10.602   6.798   3.233  0.6308 -0.3205  0.7128
  964MOL0     H27196  10.749   6.792   3.127 -0.2274 -0.2965  0.7243
  964MOL0     H27197  10.678   6.572   3.325 -1.6589  2.0603 -0.3080
  964MOL0     H27198  10.801   6.570   3.193 -0.0616 -0.2011 -0.2567
  964MOL0     H27199  10.795   6.776   3.418  0.2929  0.2221  0.1645
  964MOL0     H27200  10.925   6.752   3.301 -1.2151  1.6650 -0.8139
  964MOL0     H27201  10.830   6.606   3.636 -0.0907  2.5963 -2.2254
  964MOL0     H27202  10.902   6.448   3.793 -0.0038  0.2673  2.0719
  964MOL0     H27203  11.079   6.472   3.794  0.4725  0.1667 -1.1125
  964MOL0     H27204  11.087   6.233   3.684 -0.0858 -1.4865  2.2930
  964MOL0     H27205  10.919   6.233   3.737 -1.0700 -1.0011 -0.1784
  964MOL0     H27206  11.147   6.312   3.936  2.3842 -1.3723 -0.1914
  964MOL0     H27207  11.008   6.227   3.982  1.8293  1.2124  1.4266
  964MOL0     H27208  11.080   6.025   3.839 -2.8439  1.7298  2.0872
  964MOL0     H27209  11.153   6.053   3.995 -1.0589  0.0768  0.5826
  964MOL0     H27210  11.516   6.036   3.724  1.6871 -2.0400 -0.0344
  964MOL0     H27211  11.733   6.003   3.839  1.0167 -0.1360  1.7826
  964MOL0     H27212  12.075   6.248   3.894  0.9822 -0.8624 -0.4644
  964MOL0     H27213  12.317   6.276   4.006 -0.6634  0.7859 -0.2376
  964MOL0     H27214  12.441   5.921   4.215  1.7846 -1.3012  2.2820
  964MOL0     H27215  12.412   6.012   4.369 -0.0613  0.0278 -0.0569
  964MOL0     H27216  12.645   6.028   4.182 -2.7947  0.9872 -0.7117
  964MOL0     H27217  12.642   5.925   4.337  2.4599  2.3648  1.5314
  964MOL0     H27218  12.617   6.160   4.457 -0.0707 -0.9823  1.1854
  964MOL0     H27219  12.638   6.232   4.305 -3.5580 -1.3436  0.1779
  964MOL0     H27220  12.848   6.036   4.362  0.6560 -0.5209  0.6451
  964MOL0     H27221  12.858   6.213   4.316 -1.4792  1.8838  2.1932
  964MOL0     H27222  12.774   6.120   4.605 -1.2044  1.0546 -1.2500
  964MOL0     H27223  12.817   6.277   4.541  2.4379  0.7044  3.5238
  964MOL0     H27224  13.041   6.213   4.509 -3.0409  1.6566 -1.1635
  964MOL0     H27225  12.999   6.044   4.572 -2.6477  0.0093 -0.7922
  964MOL0     H27226  13.007   6.309   4.717 -2.2279 -0.0535  0.7272
  964MOL0     H27227  12.943   6.155   4.785 -4.2241  0.9345 -4.1385
  964MOL0     H27228  13.172   6.200   4.860 -2.6677 -2.8842  0.9409
  964MOL0     H27229  13.227   6.194   4.691  0.5345  0.9107  0.1183
  964MOL0     H27230  12.225   5.932   4.256  0.9570 -1.3706 -0.9865
  964MOL0     H27231  12.006   5.926   4.166 -0.3010  1.2656  1.1022
  964MOL0     H27232  11.553   6.166   4.197  0.3316  0.8675 -1.1655
  964MOL0     H27233  11.329   6.162   4.086 -2.9988 -4.4852 -2.2289
  964MOL0     H27234  10.543   6.632   2.290  0.0004 -0.7450  0.2242
  964MOL0     H27235  10.442   6.463   2.085 -1.0601  1.0188  0.2367
  964MOL0     H27236  10.204   6.156   1.771 -0.5981  0.4018 -0.9139
  964MOL0     H27237  10.027   6.069   1.639  2.6867  0.8427 -0.5974
  964MOL0     H27238   9.805   6.084   1.502  1.0156 -1.4311  1.1733
  964MOL0     H27239   9.795   6.250   1.529 -3.8389  0.2852 -4.0965
  964MOL0     H27240   9.610   6.112   1.417  4.1203  2.1309 -0.1217
  964MOL0     H27241   9.551   6.093   1.584 -0.2476  0.3201 -1.5748
  964MOL0     H27242   9.594   6.354   1.574 -1.6429 -1.2846  2.3885
  964MOL0     H27243   9.442   6.295   1.535 -0.3096  2.9832  0.2950
  964MOL0     H27244   9.659   6.374   1.337 -1.0266  4.3535 -0.8131
  964MOL0     H27245   9.537   6.276   1.280  3.3139  1.1552 -1.3513
  964MOL0     H27246   9.376   6.663   1.316  2.4637  0.8102 -3.1052
  964MOL0     H27247   9.741   6.265   1.918  0.6773  3.3927  2.0431
  964MOL0     H27248   9.945   6.351   2.037  2.0737 -1.5349 -0.1157
  965MOL0     O27249   1.348   0.513   3.557 -0.4497  0.9690  0.3013
  965MOL0     C27250   1.300   0.412   3.617 -0.1320  0.3915 -0.3075
  965MOL0     O27251   1.357   0.348   3.725 -0.2051 -0.5399 -0.3337
  965MOL0     C27252   1.484   0.354   3.751 -0.3541  0.4942  0.4679
  965MOL0     C27253   1.579   0.341   3.657  0.0960  0.6708 -0.1891
  965MOL0     C27254   1.715   0.336   3.697  0.0571  0.5755  0.7410
  965MOL0     C27255   1.763   0.335   3.835  0.1127 -0.8211  0.0869
  965MOL0     O27256   1.892   0.342   3.884 -0.7222  0.2180  0.0173
  965MOL0     C27257   1.995   0.324   3.785 -0.0906 -0.9502  0.6223
  965MOL0     C27258   2.045   0.441   3.702 -0.4659  0.8437  0.5190
  965MOL0     C27259   2.174   0.395   3.640 -0.2965 -0.0316 -0.1931
  965MOL0     C27260   2.230   0.499   3.532 -0.3501 -0.1453 -0.1051
  965MOL0     C27261   2.367   0.465   3.468  1.1561  0.1672 -0.7339
  965MOL0     C27262   2.483   0.454   3.566  0.1009  0.7004  0.2403
  965MOL0     C27263   2.614   0.424   3.493  0.8673 -0.3157 -1.1722
  965MOL0     C27264   2.721   0.390   3.592 -0.8481  0.9035 -0.2342
  965MOL0     N27265   2.848   0.335   3.538 -0.4053 -0.6221  0.4248
  965MOL0     C27266   2.903   0.346   3.411  0.6758 -0.7985 -1.1136
  965MOL0     C27267   2.990   0.249   3.394  0.2561  0.6375  1.5278
  965MOL0     C27268   3.079   0.217   3.276  0.6743  1.4346 -0.4763
  965MOL0     C27269   3.200   0.124   3.317 -0.3828 -0.0006  0.2647
  965MOL0     C27270   3.294   0.111   3.194 -0.3929 -0.2252  1.8415
  965MOL0     C27271   3.354  -0.030   3.159 -0.5953 -0.2777  0.0721
  965MOL0     O27272   3.412  -0.079   3.275  0.3354  0.0452  0.2880
  965MOL0     C27273   3.540  -0.060   3.301  0.0611 -0.2319 -0.0970
  965MOL0     C27274   3.632   0.014   3.219  0.0303 -0.2116 -0.4383
  965MOL0     C27275   3.772   0.018   3.248 -0.0769 -0.4765 -0.4238
  965MOL0     C27276   3.821  -0.044   3.364 -0.8443  1.1816  1.3057
  965MOL0     C27277   3.978  -0.034   3.387  0.5588  0.6873 -0.0072
  965MOL0     O27278   4.043   0.063   3.328  0.4011 -0.2114  0.0720
  965MOL0     C27279   4.184   0.050   3.321 -0.2492 -0.7271  0.4878
  965MOL0     C27280   4.262   0.069   3.440  0.4863  0.4027  0.4002
  965MOL0     C27281   4.403   0.068   3.433 -1.3364 -0.7125 -0.4315
  965MOL0     C27282   4.467   0.044   3.307 -0.3512 -0.9596  1.0375
  965MOL0     O27283   4.596   0.055   3.295  0.1149 -0.1143 -1.2936
  965MOL0     C27284   4.674  -0.063   3.321  0.7564 -0.1067  0.1813
  965MOL0     C27285   4.818  -0.006   3.305 -0.2491 -0.0834  0.1656
  965MOL0     C27286   4.865   0.024   3.164  0.0260 -0.7683 -0.4303
  965MOL0     C27287   5.010   0.058   3.173 -0.6614  0.5874 -1.4291
  965MOL0     C27288   5.067   0.102   3.041 -0.1687 -0.7992 -0.3093
  965MOL0     C27289   5.216   0.085   3.037  0.5432  0.5298  0.1736
  965MOL0     C27290   5.270   0.119   2.898  0.2850 -0.0910  0.2772
  965MOL0     C27291   5.275   0.267   2.868  0.7000 -0.1128  0.4641
  965MOL0    Cl27292   5.309   0.298   2.701 -0.0332  0.0254 -0.1538
  965MOL0     C27293   4.392   0.042   3.192 -0.2084 -0.4253 -1.2633
  965MOL0     C27294   4.254   0.053   3.198  1.0038  0.1558  0.4347
  965MOL0     O27295   4.035  -0.114   3.463  0.2309 -0.5694  0.2114
  965MOL0     C27296   3.739  -0.118   3.437  0.3716  0.6901  0.3507
  965MOL0     C27297   3.602  -0.134   3.411 -0.8406 -0.9452  0.2851
  965MOL0     N27298   2.988   0.179   3.513 -0.0967  0.5113  0.3462
  965MOL0     N27299   2.908   0.228   3.596  0.1881 -0.0574  0.1807
  965MOL0     C27300   1.659   0.331   3.929 -0.7440  0.3531 -0.8338
  965MOL0     C27301   1.525   0.360   3.888 -0.4723  0.6590 -0.0633
  965MOL0     C27302   1.162   0.372   3.584 -0.5194 -0.6527 -1.5784
  965MOL0     C27303   1.101   0.271   3.664  0.1227  0.1941 -0.6250
  965MOL0     C27304   0.970   0.229   3.634  0.0976 -0.0278  1.1404
  965MOL0     C27305   0.895   0.292   3.538 -0.0952 -1.5573  0.4509
  965MOL0     O27306   0.769   0.228   3.529  0.0926 -0.2110  0.0027
  965MOL0     C27307   0.683   0.261   3.414  0.3853  0.5562 -1.0179
  965MOL0     C27308   0.588   0.381   3.423  0.5591 -0.5843 -0.4187
  965MOL0     C27309   0.527   0.393   3.567  0.9521  0.2642  0.4919
  965MOL0     C27310   0.386   0.443   3.575  0.7302  0.1692 -0.1501
  965MOL0     C27311   0.286   0.345   3.520 -0.8281  0.5515 -1.3925
  965MOL0     C27312   0.199   0.269   3.491 -0.2901  0.1753  0.4634
  965MOL0     C27313   0.954   0.393   3.462 -0.1944  0.4410  0.4891
  965MOL0     C27314   1.084   0.431   3.481 -0.7525 -0.3184  0.3351
  965MOL0     H27315   1.561   0.330   3.550 -0.2120  1.0379 -0.1761
  965MOL0     H27316   1.791   0.338   3.620  0.4386 -2.9726  0.8642
  965MOL0     H27317   1.966   0.251   3.708 -2.1926  0.6821 -0.2540
  965MOL0     H27318   2.086   0.295   3.838  0.1686  0.1388  0.7800
  965MOL0     H27319   2.056   0.524   3.772 -3.7309 -0.4618  2.8719
  965MOL0     H27320   1.967   0.469   3.630 -0.8105  2.4361  1.4717
  965MOL0     H27321   2.162   0.293   3.603 -1.3039  0.9943 -3.0000
  965MOL0     H27322   2.255   0.389   3.713 -0.0778 -2.0479 -0.5578
  965MOL0     H27323   2.160   0.499   3.448  2.3512  1.5289 -2.5462
  965MOL0     H27324   2.227   0.600   3.573  1.2461  1.2922 -3.1608
  965MOL0     H27325   2.374   0.542   3.390 -4.8049  0.9918 -0.9173
  965MOL0     H27326   2.357   0.370   3.414 -0.8388  0.3450 -0.7746
  965MOL0     H27327   2.456   0.374   3.636 -2.7643 -1.2456 -2.7960
  965MOL0     H27328   2.493   0.547   3.623  1.1125  0.2852  0.7747
  965MOL0     H27329   2.593   0.334   3.434 -0.0275 -2.0207  1.5142
  965MOL0     H27330   2.647   0.511   3.435  0.7912  0.3697 -0.2101
  965MOL0     H27331   2.685   0.319   3.666  2.6697 -0.8256  0.0391
  965MOL0     H27332   2.746   0.478   3.653 -1.5835 -1.0910  3.2160
  965MOL0     H27333   2.872   0.410   3.328 -0.4481  0.5346  0.2760
  965MOL0     H27334   3.114   0.309   3.230  1.3404  1.9873  1.0500
  965MOL0     H27335   3.017   0.173   3.197  0.9008 -0.9797  0.5990
  965MOL0     H27336   3.171   0.021   3.340  2.3545 -1.2645 -1.4028
  965MOL0     H27337   3.243   0.173   3.405 -3.1906 -0.6978  2.1745
  965MOL0     H27338   3.242   0.145   3.105 -2.0417  0.2456  2.9461
  965MOL0     H27339   3.375   0.179   3.221 -2.2775  2.1887  1.7416
  965MOL0     H27340   3.414  -0.029   3.068 -3.6462 -2.5779 -2.1770
  965MOL0     H27341   3.266  -0.092   3.140 -2.1738  1.9906 -0.4434
  965MOL0     H27342   3.594   0.071   3.135  0.2581  0.5846 -0.0077
  965MOL0     H27343   3.841   0.085   3.199 -0.9544  0.1987 -0.7771
  965MOL0     H27344   4.208   0.097   3.530 -1.4679 -1.2745 -0.1806
  965MOL0     H27345   4.459   0.088   3.523 -2.6016 -1.6936  0.6161
  965MOL0     H27346   4.637  -0.147   3.262 -1.8830  0.6358  0.6658
  965MOL0     H27347   4.680  -0.091   3.426  2.1870 -2.8147 -0.5354
  965MOL0     H27348   4.884  -0.086   3.340 -0.9369 -2.3324 -3.2139
  965MOL0     H27349   4.828   0.084   3.367  2.9720 -0.1147 -0.1177
  965MOL0     H27350   4.812   0.111   3.126  1.9005 -0.9543 -3.7967
  965MOL0     H27351   4.858  -0.064   3.100 -2.9221 -2.9477  2.5215
  965MOL0     H27352   5.015   0.136   3.250  0.2478 -0.9981  0.2195
  965MOL0     H27353   5.073  -0.021   3.215  0.7681  1.0456 -2.6472
  965MOL0     H27354   5.041   0.205   3.017 -0.7080 -0.9186 -0.2455
  965MOL0     H27355   5.030   0.033   2.965  0.8361 -0.7896 -0.8333
  965MOL0     H27356   5.253  -0.010   3.077  3.8923  3.0121  3.7590
  965MOL0     H27357   5.271   0.146   3.110 -0.3080 -1.7659  2.9383
  965MOL0     H27358   5.374   0.089   2.889  0.5716  1.0056 -0.1900
  965MOL0     H27359   5.205   0.071   2.824  0.5038 -1.7046  1.0829
  965MOL0     H27360   5.356   0.313   2.925  1.6201 -0.8537 -0.2209
  965MOL0     H27361   5.182   0.317   2.898  0.9009  1.1574 -0.9116
  965MOL0     H27362   4.438   0.023   3.096 -1.3994 -3.8695 -1.2900
  965MOL0     H27363   4.202   0.043   3.103  4.5407 -2.0234 -1.4837
  965MOL0     H27364   3.794  -0.182   3.505 -1.6411 -1.4980  0.0152
  965MOL0     H27365   3.550  -0.214   3.463 -2.7773 -1.0533 -1.6619
  965MOL0     H27366   1.694   0.339   4.031 -0.5475 -0.8955 -0.7979
  965MOL0     H27367   1.450   0.362   3.966 -0.5623 -1.5778 -0.0253
  965MOL0     H27368   1.153   0.233   3.751  2.7392 -2.0233 -2.9786
  965MOL0     H27369   0.935   0.133   3.673  2.6733 -1.7555 -0.5142
  965MOL0     H27370   0.617   0.174   3.405  0.6334  0.3473 -0.7969
  965MOL0     H27371   0.745   0.262   3.324  1.6746  3.4735 -0.1956
  965MOL0     H27372   0.645   0.472   3.400 -1.5224  0.8121 -0.2982
  965MOL0     H27373   0.511   0.371   3.346 -2.4197  1.0461  2.1308
  965MOL0     H27374   0.598   0.440   3.636  0.7466  1.0944  0.1560
  965MOL0     H27375   0.512   0.291   3.602 -0.8049 -0.6001 -2.3821
  965MOL0     H27376   0.356   0.454   3.680 -0.1314  1.4249 -0.4999
  965MOL0     H27377   0.380   0.540   3.525  0.8223 -0.9075 -2.3794
  965MOL0     H27378   0.126   0.197   3.460  1.9688 -0.9144 -2.9585
  965MOL0     H27379   0.903   0.448   3.383 -1.2114 -1.4470 -0.2364
  965MOL0     H27380   1.131   0.507   3.419  1.9070 -3.0980 -1.3578
  966MOL0     O27381   9.496   9.604   6.466 -0.0058  0.7505  0.4770
  966MOL0     C27382   9.439   9.541   6.373  0.2892 -0.4545 -0.0760
  966MOL0     O27383   9.449   9.406   6.352 -0.2113 -0.9679 -0.3878
  966MOL0     C27384   9.535   9.341   6.434  0.4430  0.1418  0.5278
  966MOL0     C27385   9.675   9.371   6.419  0.4349  0.1061  1.9137
  966MOL0     C27386   9.771   9.311   6.501  0.1208  0.0436 -0.1483
  966MOL0     C27387   9.718   9.238   6.612 -0.4579 -1.3500  0.6223
  966MOL0     O27388   9.799   9.179   6.707 -0.7072 -0.6123  0.1983
  966MOL0     C27389   9.897   9.266   6.774 -0.5930  0.4678 -0.3115
  966MOL0     C27390   9.995   9.169   6.845  0.0078 -0.6643  0.0062
  966MOL0     C27391  10.098   9.099   6.752  0.1558  0.5893  0.5496
  966MOL0     C27392  10.181   8.994   6.832 -0.3221  0.1330  0.0748
  966MOL0     C27393  10.299   8.945   6.751 -0.3669  0.4540  0.2077
  966MOL0     C27394  10.418   8.892   6.843 -0.3210 -0.3327 -0.1588
  966MOL0     C27395  10.514   8.817   6.748  0.0233  0.0487 -0.1040
  966MOL0     C27396  10.607   8.724   6.826 -0.6126 -0.1236 -0.0619
  966MOL0     N27397  10.722   8.665   6.744 -0.7699  0.1376 -0.6448
  966MOL0     C27398  10.724   8.530   6.723  0.1033 -0.3967  0.0623
  966MOL0     C27399  10.855   8.506   6.701 -0.8738  0.8120  0.3540
  966MOL0     C27400  10.914   8.368   6.665 -0.3836  0.3824 -0.2192
  966MOL0     C27401  11.066   8.369   6.671 -0.6178  0.0632  1.6569
  966MOL0     C27402  11.130   8.421   6.542 -0.8586  0.0489 -0.2580
  966MOL0     C27403  11.280   8.453   6.575 -0.2154 -0.6538  0.5961
  966MOL0     O27404  11.362   8.499   6.467  0.3018 -0.3707 -0.3802
  966MOL0     C27405  11.493   8.480   6.467  0.5454  0.4255 -0.3779
  966MOL0     C27406  11.567   8.542   6.567 -0.3580  0.8770  0.2099
  966MOL0     C27407  11.704   8.559   6.552 -0.3926  0.8546  0.0238
  966MOL0     C27408  11.772   8.521   6.431  0.0017 -0.1346  1.1319
  966MOL0     C27409  11.921   8.544   6.414  0.3760  0.9396  0.5809
  966MOL0     O27410  11.975   8.477   6.307 -0.0916  0.1007  0.5209
  966MOL0     C27411  12.105   8.507   6.273  0.3997  0.3564  0.4636
  966MOL0     C27412  12.210   8.473   6.359 -0.1755 -0.1489 -0.0379
  966MOL0     C27413  12.345   8.515   6.329 -0.1074 -0.2451  0.3458
  966MOL0     C27414  12.372   8.593   6.215  0.1317 -0.5279  0.5560
  966MOL0     O27415  12.509   8.599   6.176  0.2724  0.2652 -0.4907
  966MOL0     C27416  12.547   8.711   6.092  0.4221  0.1656 -0.1563
  966MOL0     C27417  12.688   8.755   6.139 -0.1162  0.1620 -0.5415
  966MOL0     C27418  12.766   8.858   6.068  0.3828 -0.4661  0.8579
  966MOL0     C27419  12.815   8.811   5.934 -0.4247  0.6614 -0.2314
  966MOL0     C27420  12.918   8.908   5.870 -1.1907 -0.4728 -0.2659
  966MOL0     C27421  12.959   8.856   5.735  0.2041 -0.0252  0.0951
  966MOL0     C27422  13.005   8.965   5.631  0.2722  0.0682 -0.3260
  966MOL0     C27423  12.882   9.017   5.553 -0.2830 -0.4519  0.8909
  966MOL0    Cl27424  12.936   9.159   5.458 -0.2996 -0.4678 -0.6060
  966MOL0     C27425  12.267   8.622   6.126  0.4772 -0.7950 -0.0271
  966MOL0     C27426  12.137   8.581   6.162  0.1983  0.2285 -1.2314
  966MOL0     O27427  11.975   8.619   6.493 -0.5014 -1.3596 -0.3772
  966MOL0     C27428  11.682   8.472   6.331  0.3904  0.5754  0.3269
  966MOL0     C27429  11.549   8.452   6.351  0.0929  0.4595 -0.2090
  966MOL0     N27430  10.925   8.622   6.701  0.0909 -0.8304  0.1599
  966MOL0     N27431  10.849   8.720   6.728 -0.8049  0.6161 -0.3409
  966MOL0     C27432   9.584   9.210   6.635 -0.2621 -0.1152  0.2088
  966MOL0     C27433   9.493   9.254   6.539  0.2436 -0.2973  0.3688
  966MOL0     C27434   9.340   9.613   6.291  0.1355 -0.8142 -0.2651
  966MOL0     C27435   9.320   9.755   6.297  0.2294  0.1278 -0.3201
  966MOL0     C27436   9.237   9.826   6.209  0.2343 -0.2942  0.0547
  966MOL0     C27437   9.151   9.759   6.112 -0.5259 -1.0941  0.0168
  966MOL0     O27438   9.074   9.843   6.035 -0.1377 -0.2040  0.0806
  966MOL0     C27439   8.951   9.794   5.983  0.2608  0.1763 -1.1112
  966MOL0     C27440   8.860   9.908   5.967 -0.2375  0.2317  0.9598
  966MOL0     C27441   8.816   9.965   6.099 -0.0605  0.4894 -0.1449
  966MOL0     C27442   8.673  10.021   6.099  0.9510  0.1609  0.0671
  966MOL0     C27443   8.652  10.082   6.230 -0.7017  0.7691 -0.1568
  966MOL0     C27444   8.617  10.147   6.328  0.0752  0.0170  0.6613
  966MOL0     C27445   9.166   9.617   6.102  0.2309 -0.1090 -0.8387
  966MOL0     C27446   9.263   9.547   6.192 -0.2996 -0.3621 -0.1421
  966MOL0     H27447   9.721   9.446   6.357 -1.9469  1.5554  1.7868
  966MOL0     H27448   9.877   9.324   6.482 -0.5244  0.5916 -4.3206
  966MOL0     H27449   9.846   9.319   6.856 -1.4798 -1.1518  0.2354
  966MOL0     H27450   9.950   9.328   6.702  1.1870 -2.1863 -1.4322
  966MOL0     H27451   9.927   9.094   6.886 -1.0277  0.8618  1.2079
  966MOL0     H27452  10.042   9.228   6.925 -0.4374  1.7066 -1.3685
  966MOL0     H27453  10.164   9.177   6.713  0.2586  0.0829 -0.2945
  966MOL0     H27454  10.051   9.053   6.665 -0.4492  0.1869  1.0754
  966MOL0     H27455  10.225   9.041   6.921 -1.6962  2.1431 -0.2220
  966MOL0     H27456  10.113   8.918   6.873  3.6874 -2.7809  1.9538
  966MOL0     H27457  10.346   9.025   6.693 -2.9859  2.6699  0.9446
  966MOL0     H27458  10.250   8.878   6.679 -3.3581  2.1005  0.5450
  966MOL0     H27459  10.374   8.827   6.920  4.9285 -1.8698  1.9550
  966MOL0     H27460  10.465   8.969   6.904 -1.7026 -0.4873  1.1856
  966MOL0     H27461  10.457   8.757   6.677  0.3421  0.7208 -0.9462
  966MOL0     H27462  10.570   8.895   6.697 -0.2529  0.8379  0.7585
  966MOL0     H27463  10.551   8.663   6.898  1.0148  1.5798  2.8339
  966MOL0     H27464  10.663   8.799   6.883 -1.6769  5.4692 -5.3682
  966MOL0     H27465  10.640   8.463   6.714  0.1607 -0.2449 -2.0173
  966MOL0     H27466  10.883   8.336   6.565  0.7423  0.4108 -0.5855
  966MOL0     H27467  10.890   8.298   6.746 -2.2220  1.1625 -0.0412
  966MOL0     H27468  11.093   8.264   6.686 -1.7213 -1.1648 -3.2440
  966MOL0     H27469  11.091   8.431   6.758  0.8929  1.0461  0.5765
  966MOL0     H27470  11.132   8.336   6.473 -0.1923 -2.0001  2.0966
  966MOL0     H27471  11.080   8.506   6.494 -0.3135 -0.5124 -1.8782
  966MOL0     H27472  11.330   8.363   6.610  2.9641  1.3346  1.5281
  966MOL0     H27473  11.275   8.525   6.657  0.5809  0.0994 -0.0012
  966MOL0     H27474  11.513   8.571   6.656 -4.1863  0.8495 -1.8775
  966MOL0     H27475  11.767   8.602   6.629  0.5599 -1.1025  0.4026
  966MOL0     H27476  12.182   8.427   6.454 -0.1319 -0.6643 -0.2739
  966MOL0     H27477  12.427   8.483   6.394  0.4385 -1.6891 -0.9959
  966MOL0     H27478  12.483   8.799   6.103  2.8151  2.1046 -0.8497
  966MOL0     H27479  12.549   8.679   5.987  1.5844  1.0234 -0.4218
  966MOL0     H27480  12.748   8.664   6.144 -1.9276 -1.2962 -3.1642
  966MOL0     H27481  12.669   8.789   6.242  5.3150 -2.2219  1.6540
  966MOL0     H27482  12.847   8.885   6.136  1.7601 -4.0734  0.8529
  966MOL0     H27483  12.714   8.955   6.064 -1.6271 -1.5304 -0.1152
  966MOL0     H27484  12.851   8.708   5.939 -1.2337  0.4254  2.1386
  966MOL0     H27485  12.727   8.796   5.870 -1.8519  0.2116  1.7325
  966MOL0     H27486  13.007   8.917   5.934 -0.0750 -3.6867 -1.2024
  966MOL0     H27487  12.872   9.007   5.863  0.6245  0.4874  0.6560
  966MOL0     H27488  12.872   8.805   5.692 -0.8732  3.5743 -2.4593
  966MOL0     H27489  13.040   8.783   5.747  0.8954  0.0808 -2.9852
  966MOL0     H27490  13.072   9.044   5.668 -1.8296  1.2095  1.2560
  966MOL0     H27491  13.072   8.907   5.567 -0.4414 -2.9718  1.4285
  966MOL0     H27492  12.803   9.056   5.618 -1.1763 -0.6578 -0.0463
  966MOL0     H27493  12.827   8.946   5.491 -2.6717  2.2510 -0.3084
  966MOL0     H27494  12.289   8.668   6.030  1.1667  1.9565  1.3540
  966MOL0     H27495  12.054   8.600   6.095 -1.5390  1.3346  1.0786
  966MOL0     H27496  11.715   8.448   6.231 -1.0185  0.3096 -0.0967
  966MOL0     H27497  11.487   8.412   6.272 -0.9633  2.0704 -0.2542
  966MOL0     H27498   9.573   9.149   6.724  0.7244 -1.8936 -0.8447
  966MOL0     H27499   9.390   9.217   6.543  0.2764 -1.1624 -3.0816
  966MOL0     H27500   9.368   9.810   6.377 -0.3929 -0.2233  0.3047
  966MOL0     H27501   9.229   9.934   6.220 -0.5027 -0.3905  0.6233
  966MOL0     H27502   8.892   9.741   6.058 -1.8475  4.0912  0.2716
  966MOL0     H27503   8.969   9.728   5.898 -3.2436 -3.6002  0.7182
  966MOL0     H27504   8.933   9.969   5.912  0.2778 -1.6031 -0.4957
  966MOL0     H27505   8.777   9.887   5.899 -0.1050  1.4444  0.3874
  966MOL0     H27506   8.889  10.042   6.126  1.6497 -0.8693 -0.6986
  966MOL0     H27507   8.821   9.894   6.182  1.1009  1.2018  0.4208
  966MOL0     H27508   8.667  10.104   6.028  2.5372  1.1614  1.0301
  966MOL0     H27509   8.586   9.959   6.079  0.7274  0.8901 -1.3569
  966MOL0     H27510   8.588  10.209   6.410 -1.8017 -0.0074  0.0530
  966MOL0     H27511   9.106   9.563   6.028 -0.8984  2.7260 -2.1359
  966MOL0     H27512   9.270   9.439   6.182  1.9619 -0.5846  2.6296
  967MOL0     O27513   4.328   2.721   0.927 -0.3982  0.4968  0.7257
  967MOL0     C27514   4.321   2.841   0.953 -0.9312 -1.1589  0.4072
  967MOL0     O27515   4.422   2.921   0.987  0.0339  0.2936 -0.6728
  967MOL0     C27516   4.552   2.869   1.002  0.2736  1.2110  0.8815
  967MOL0     C27517   4.656   2.943   0.952 -1.0470 -0.7698 -0.0676
  967MOL0     C27518   4.793   2.911   0.967  0.3886 -0.2476 -0.3980
  967MOL0     C27519   4.828   2.790   1.040 -0.0785 -0.0729 -0.2508
  967MOL0     O27520   4.946   2.727   1.065 -0.3554  0.2804  0.4436
  967MOL0     C27521   5.047   2.750   0.964  0.7917 -0.3433 -0.5601
  967MOL0     C27522   5.023   2.665   0.840 -0.2453  0.1909 -0.1664
  967MOL0     C27523   4.989   2.517   0.872  0.2153 -0.1144  0.2920
  967MOL0     C27524   5.075   2.449   0.980  0.9771  0.1990  0.2057
  967MOL0     C27525   5.012   2.320   1.020 -0.0808 -0.4175  0.0901
  967MOL0     C27526   5.119   2.237   1.104  0.5547 -0.4919  0.2082
  967MOL0     C27527   5.048   2.123   1.181 -0.7970  0.0965 -0.5144
  967MOL0     C27528   4.993   2.015   1.099  0.0350 -0.6255  0.3347
  967MOL0     N27529   5.094   1.913   1.044  0.3000  0.2172 -0.4304
  967MOL0     C27530   5.137   1.802   1.118  0.7581  0.5517 -0.6094
  967MOL0     C27531   5.204   1.731   1.021 -0.5298  0.0233  0.6868
  967MOL0     C27532   5.269   1.600   1.030  0.1810 -0.1260 -0.7421
  967MOL0     C27533   5.418   1.613   1.070  0.4832 -0.4299 -0.7017
  967MOL0     C27534   5.443   1.714   1.188  0.4685  0.3412 -0.1589
  967MOL0     C27535   5.398   1.663   1.326  1.0767  1.0231  0.3775
  967MOL0     O27536   5.426   1.743   1.444  0.1042  0.3538 -0.4206
  967MOL0     C27537   5.403   1.694   1.568 -0.3318 -0.4087 -0.5318
  967MOL0     C27538   5.484   1.726   1.674 -0.2985  0.0659 -0.8135
  967MOL0     C27539   5.465   1.663   1.805 -0.5947  0.7097 -0.3398
  967MOL0     C27540   5.347   1.587   1.825 -0.4639 -0.0162  0.2923
  967MOL0     C27541   5.315   1.527   1.958 -0.3554 -1.0448  0.5495
  967MOL0     O27542   5.371   1.590   2.066  0.3923 -0.6496 -0.4048
  967MOL0     C27543   5.337   1.545   2.192 -1.1576 -0.3049 -0.3303
  967MOL0     C27544   5.441   1.522   2.274  0.1041  0.0272 -0.8970
  967MOL0     C27545   5.414   1.470   2.409 -0.4807 -0.2967  0.2966
  967MOL0     C27546   5.277   1.443   2.449 -0.6431 -0.1788 -0.1250
  967MOL0     O27547   5.251   1.378   2.570  0.2348  0.3929  0.1329
  967MOL0     C27548   5.123   1.317   2.591 -0.4576 -0.1733  0.1100
  967MOL0     C27549   5.112   1.182   2.515  0.0742 -0.0651 -0.7493
  967MOL0     C27550   4.994   1.086   2.545 -0.5845 -0.2978 -0.0412
  967MOL0     C27551   4.865   1.142   2.467 -0.0767  0.6099  0.0723
  967MOL0     C27552   4.765   1.038   2.473  0.6878  0.2654 -0.2274
  967MOL0     C27553   4.648   1.082   2.387  0.5550 -0.0317 -0.3131
  967MOL0     C27554   4.560   0.954   2.348 -0.3848 -0.0890 -1.2539
  967MOL0     C27555   4.503   0.900   2.473  0.5077 -0.9395 -0.3046
  967MOL0    Cl27556   4.407   0.760   2.452  0.5233 -0.2937 -0.6938
  967MOL0     C27557   5.178   1.471   2.356  0.2883 -1.6054  0.3733
  967MOL0     C27558   5.204   1.527   2.230  0.2273  0.2356 -0.7493
  967MOL0     O27559   5.228   1.438   1.955 -0.9739 -0.2105 -0.3946
  967MOL0     C27560   5.256   1.572   1.718  0.4495 -0.2327 -0.3070
  967MOL0     C27561   5.286   1.632   1.594  0.6056 -0.1498  0.0759
  967MOL0     N27562   5.220   1.804   0.904  0.0662  0.1149 -0.1494
  967MOL0     N27563   5.147   1.913   0.918  0.4607 -0.5637 -0.3121
  967MOL0     C27564   4.712   2.720   1.097 -0.5667 -0.8184 -0.8507
  967MOL0     C27565   4.577   2.761   1.074 -0.3905  0.8063 -0.3100
  967MOL0     C27566   4.188   2.895   0.924 -0.0350  1.1518 -0.0303
  967MOL0     C27567   4.086   2.804   0.891  0.0901  0.3287 -0.4103
  967MOL0     C27568   3.957   2.850   0.874  0.6353  0.6021 -0.4513
  967MOL0     C27569   3.921   2.980   0.862 -0.0817  0.0525 -0.7064
  967MOL0     O27570   3.793   3.011   0.821  0.2211  0.4296  0.1964
  967MOL0     C27571   3.725   3.133   0.854  0.0574 -0.7835  0.6842
  967MOL0     C27572   3.575   3.113   0.841 -0.2430 -0.2634 -0.5799
  967MOL0     C27573   3.545   3.074   0.692  0.5314 -0.0570  1.1028
  967MOL0     C27574   3.393   3.051   0.668  0.2038 -1.0244 -0.5095
  967MOL0     C27575   3.315   3.178   0.692 -0.1929  0.3785  0.5234
  967MOL0     C27576   3.275   3.291   0.705 -0.0864  0.7157  1.0473
  967MOL0     C27577   4.024   3.075   0.895  0.3745 -0.8383 -0.1042
  967MOL0     C27578   4.159   3.040   0.918  0.4085  0.7537 -0.3359
  967MOL0     H27579   4.637   3.035   0.897  0.4326 -1.1311 -1.2303
  967MOL0     H27580   4.872   2.973   0.927  0.0771 -0.4253 -1.3195
  967MOL0     H27581   5.137   2.717   1.018  2.4440  3.6579 -0.5043
  967MOL0     H27582   5.048   2.855   0.936 -0.7244  0.0641  0.7837
  967MOL0     H27583   5.118   2.670   0.786  0.2570 -3.1270  0.1576
  967MOL0     H27584   4.937   2.713   0.793  0.5730  3.7389  1.6141
  967MOL0     H27585   4.997   2.464   0.776 -1.0238 -0.8850  0.5909
  967MOL0     H27586   4.884   2.520   0.900 -1.3209  2.2520 -4.6066
  967MOL0     H27587   5.175   2.428   0.939  1.4869  0.6246  1.1998
  967MOL0     H27588   5.092   2.516   1.065 -2.2661 -2.4211  3.1807
  967MOL0     H27589   4.974   2.258   0.939  1.5698 -1.6670  0.2128
  967MOL0     H27590   4.930   2.350   1.087  1.4810  0.8561  1.5374
  967MOL0     H27591   5.159   2.295   1.187 -0.2944  1.4687 -0.6818
  967MOL0     H27592   5.195   2.184   1.045  1.1264 -0.5307  0.9697
  967MOL0     H27593   5.115   2.091   1.261 -0.9686  0.3498 -0.2696
  967MOL0     H27594   4.969   2.161   1.247  1.1485  1.3400  1.2233
  967MOL0     H27595   4.956   2.058   1.006  1.1700  0.5150  0.3769
  967MOL0     H27596   4.910   1.976   1.158 -3.0112 -1.1301 -3.8895
  967MOL0     H27597   5.121   1.765   1.219 -1.1296  0.9988 -0.6916
  967MOL0     H27598   5.271   1.556   0.930 -1.9493 -3.2320  0.4309
  967MOL0     H27599   5.209   1.530   1.089  2.8474 -3.4313 -1.6498
  967MOL0     H27600   5.473   1.653   0.984  0.4780  0.6132 -0.2316
  967MOL0     H27601   5.449   1.511   1.095 -1.4252 -0.6070  1.2876
  967MOL0     H27602   5.546   1.746   1.204  0.7890 -1.6754  2.4922
  967MOL0     H27603   5.396   1.808   1.158  0.6498 -0.0145 -1.5978
  967MOL0     H27604   5.438   1.562   1.332  1.2872  1.1201  0.6526
  967MOL0     H27605   5.289   1.658   1.329  1.1523 -0.9740  0.8481
  967MOL0     H27606   5.567   1.793   1.658 -0.4221  0.5038  0.3434
  967MOL0     H27607   5.538   1.672   1.885 -0.0097 -1.4113 -0.5719
  967MOL0     H27608   5.539   1.529   2.229  0.2336  0.3569 -0.5702
  967MOL0     H27609   5.493   1.445   2.481 -0.3497 -4.2594 -0.9743
  967MOL0     H27610   5.044   1.386   2.560  0.5050  0.8594 -0.1044
  967MOL0     H27611   5.119   1.288   2.696 -0.0404  0.6257  0.3475
  967MOL0     H27612   5.203   1.133   2.549  0.1340 -0.3150 -1.2473
  967MOL0     H27613   5.128   1.198   2.408 -1.6738 -1.0256 -1.1976
  967MOL0     H27614   4.979   1.093   2.653  2.0780  1.5308  0.3073
  967MOL0     H27615   5.023   0.983   2.522  0.6919  0.1324 -0.4323
  967MOL0     H27616   4.837   1.237   2.513  1.0371  0.3204  1.4201
  967MOL0     H27617   4.895   1.147   2.362  2.1982 -1.5434  0.5280
  967MOL0     H27618   4.733   1.022   2.576  1.6767  0.2087  0.0805
  967MOL0     H27619   4.804   0.945   2.432  1.6110 -1.1538  3.4724
  967MOL0     H27620   4.685   1.134   2.298  0.0188 -1.6732 -1.5270
  967MOL0     H27621   4.590   1.162   2.434 -0.9693  0.2594 -2.5767
  967MOL0     H27622   4.470   0.989   2.296 -1.3148 -1.2841 -0.5056
  967MOL0     H27623   4.607   0.880   2.282 -2.5932 -3.6941  0.8934
  967MOL0     H27624   4.445   0.988   2.502  0.5056 -0.8007 -0.7325
  967MOL0     H27625   4.580   0.879   2.547 -0.9700 -2.1706  0.9830
  967MOL0     H27626   5.072   1.460   2.379  0.1209 -1.2499 -0.2179
  967MOL0     H27627   5.120   1.542   2.164  0.0885 -3.1510 -1.4953
  967MOL0     H27628   5.159   1.525   1.731 -0.4423  1.5755 -0.1221
  967MOL0     H27629   5.206   1.637   1.521  1.4244  3.5666 -0.8188
  967MOL0     H27630   4.724   2.634   1.162 -4.1056  0.2841  1.5647
  967MOL0     H27631   4.491   2.717   1.125  1.2913 -0.3547  1.7344
  967MOL0     H27632   4.093   2.696   0.895  2.8927  0.4807  2.9342
  967MOL0     H27633   3.881   2.775   0.860 -0.5926  0.9876  3.2034
  967MOL0     H27634   3.759   3.213   0.787 -0.6746 -0.2278  0.9576
  967MOL0     H27635   3.739   3.155   0.960 -2.4865  0.0530  0.9047
  967MOL0     H27636   3.549   3.030   0.907  0.3069  0.4896  0.6266
  967MOL0     H27637   3.524   3.207   0.863  0.5683  0.3473 -1.2112
  967MOL0     H27638   3.603   2.989   0.655  0.9822 -0.3029  2.3439
  967MOL0     H27639   3.578   3.158   0.630 -0.4553 -0.6905 -0.3504
  967MOL0     H27640   3.383   3.014   0.566  1.7733  2.0606 -1.9165
  967MOL0     H27641   3.363   2.975   0.740  0.6117 -0.6818  0.0325
  967MOL0     H27642   3.228   3.386   0.691 -0.4114  0.3184 -0.8435
  967MOL0     H27643   4.005   3.181   0.907  1.1879 -0.3574 -2.4668
  967MOL0     H27644   4.230   3.121   0.930  2.6101 -1.2171  0.8482
  968MOL0     O27645  10.955  11.131   0.648  0.2191  0.1424  0.1042
  968MOL0     C27646  11.053  11.093   0.720  1.1783 -1.2336 -0.6948
  968MOL0     O27647  11.183  11.119   0.699  0.3319 -0.5478  0.8877
  968MOL0     C27648  11.228  11.152   0.569  0.3117  0.0980  0.1123
  968MOL0     C27649  11.217  11.059   0.466  0.7648 -0.2657 -0.4548
  968MOL0     C27650  11.283  11.078   0.342 -0.3384 -0.3665 -0.9301
  968MOL0     C27651  11.351  11.200   0.325 -0.0923  0.2503 -0.0147
  968MOL0     O27652  11.423  11.217   0.209  0.5577 -0.5060  0.2765
  968MOL0     C27653  11.356  11.230   0.090  0.0259  0.6489 -0.9977
  968MOL0     C27654  11.439  11.203  -0.025  0.0590 -0.7406  0.1083
  968MOL0     C27655  11.521  11.072  -0.025 -0.3795 -0.8535  0.7513
  968MOL0     C27656  11.432  10.952  -0.066 -0.0049 -0.0735 -0.0859
  968MOL0     C27657  11.510  10.826  -0.093 -0.3683  0.1901 -0.0193
  968MOL0     C27658  11.423  10.713  -0.143 -0.3418  0.0900 -0.0896
  968MOL0     C27659  11.508  10.579  -0.121 -0.4475  0.4970 -0.7399
  968MOL0     C27660  11.427  10.465  -0.180  0.8763  0.1674  0.1532
  968MOL0     N27661  11.504  10.340  -0.165  0.2870  0.7675 -0.6890
  968MOL0     C27662  11.484  10.241  -0.065  0.3823  0.3497  0.2861
  968MOL0     C27663  11.540  10.131  -0.103 -0.5906  0.0098  0.4999
  968MOL0     C27664  11.554  10.017  -0.001  0.5378 -0.1715 -0.0966
  968MOL0     C27665  11.672   9.931  -0.020 -0.2103 -0.2160 -0.2486
  968MOL0     C27666  11.717   9.845   0.100  0.1658  0.1926  0.5183
  968MOL0     C27667  11.610   9.736   0.151  0.5247 -0.3425  0.3876
  968MOL0     O27668  11.513   9.816   0.226 -1.2663  0.3031  0.6859
  968MOL0     C27669  11.427   9.755   0.316 -0.0188 -0.7687 -0.5247
  968MOL0     C27670  11.382   9.832   0.428 -0.5570 -0.8236  0.6152
  968MOL0     C27671  11.280   9.785   0.515  0.5389 -0.2252  0.4248
  968MOL0     C27672  11.215   9.662   0.485  0.6651 -0.0746 -0.2002
  968MOL0     C27673  11.128   9.593   0.587 -0.0771  0.4767 -0.1010
  968MOL0     O27674  11.146   9.467   0.617  0.1947 -0.6688  1.0958
  968MOL0     C27675  11.078   9.395   0.714 -0.5849 -0.0246 -0.5590
  968MOL0     C27676  11.130   9.265   0.733 -0.0901  0.2948 -0.9658
  968MOL0     C27677  11.081   9.190   0.839  0.6298 -0.4767 -0.3508
  968MOL0     C27678  10.976   9.228   0.921  0.0512  0.5360  0.1210
  968MOL0     O27679  10.937   9.151   1.025 -0.6919 -0.2799  0.2215
  968MOL0     C27680  10.956   9.211   1.154  0.1996  0.0120 -0.1604
  968MOL0     C27681  10.879   9.137   1.255 -0.0993 -0.3200  0.2799
  968MOL0     C27682  10.938   8.997   1.280 -0.2478  0.8102 -0.2462
  968MOL0     C27683  11.073   9.001   1.371 -0.0436  0.3271 -0.1615
  968MOL0     C27684  11.146   8.869   1.339  1.0811  0.4792 -0.5381
  968MOL0     C27685  11.235   8.834   1.460 -0.3438  0.7631 -0.1781
  968MOL0     C27686  11.324   8.711   1.430 -0.9651  1.0303  0.7583
  968MOL0     C27687  11.300   8.591   1.525 -0.4104 -0.6380 -0.1184
  968MOL0    Cl27688  11.335   8.660   1.695  0.1140 -0.0991 -0.4132
  968MOL0     C27689  10.919   9.351   0.893  0.5494 -0.5247  0.9794
  968MOL0     C27690  10.976   9.433   0.797  0.7565  0.3250  0.0749
  968MOL0     O27691  11.040   9.667   0.642  0.2021  0.1341 -0.1081
  968MOL0     C27692  11.253   9.589   0.374 -0.7667  0.5601  1.1390
  968MOL0     C27693  11.356   9.634   0.290  0.6890 -0.9237 -0.1798
  968MOL0     N27694  11.585  10.159  -0.231  0.7658  0.0648  0.7923
  968MOL0     N27695  11.565  10.281  -0.272  0.0838 -0.1976 -0.3588
  968MOL0     C27696  11.367  11.286   0.432  0.0062  0.3398  0.6438
  968MOL0     C27697  11.301  11.269   0.557  0.2510 -0.1824  1.0046
  968MOL0     C27698  11.010  11.050   0.853 -0.4011 -0.0299  0.6947
  968MOL0     C27699  10.882  11.056   0.896  0.1487 -0.6600 -0.4757
  968MOL0     C27700  10.849  11.023   1.026  0.5540 -0.1498 -1.2529
  968MOL0     C27701  10.948  10.985   1.119  0.3277  0.0774 -0.2033
  968MOL0     O27702  10.904  10.944   1.245  0.2057  0.4154  0.4997
  968MOL0     C27703  10.983  10.948   1.366 -0.3809  0.1439 -0.4821
  968MOL0     C27704  10.914  10.874   1.481  0.4874 -0.4156 -0.0478
  968MOL0     C27705  11.004  10.860   1.610  0.0616 -0.1707 -0.1430
  968MOL0     C27706  10.950  10.745   1.693  0.3634  0.1474 -0.9982
  968MOL0     C27707  11.036  10.728   1.808  0.9173 -0.4377 -0.7345
  968MOL0     C27708  11.103  10.716   1.911  0.5543 -0.3754  0.5314
  968MOL0     C27709  11.077  10.959   1.074  0.3339  0.8972  0.7686
  968MOL0     C27710  11.113  10.999   0.939  0.5171  0.0132 -0.6465
  968MOL0     H27711  11.175  10.963   0.492  3.9771 -1.2188  1.7619
  968MOL0     H27712  11.284  11.001   0.266 -1.7827 -0.4007 -0.9386
  968MOL0     H27713  11.313  11.330   0.079 -3.2890 -0.3599  1.1778
  968MOL0     H27714  11.271  11.161   0.092 -1.1918  1.9384 -3.2714
  968MOL0     H27715  11.514  11.282  -0.008  0.3203 -0.6339 -1.4126
  968MOL0     H27716  11.379  11.219  -0.115 -0.1344 -0.9422  0.2017
  968MOL0     H27717  11.557  11.052   0.076 -4.8756 -2.8064  2.2004
  968MOL0     H27718  11.611  11.087  -0.085  1.3178  2.0266  3.6873
  968MOL0     H27719  11.353  10.948   0.009 -1.4164  2.5521 -1.2833
  968MOL0     H27720  11.377  10.970  -0.160  1.3626 -1.3142 -1.1736
  968MOL0     H27721  11.562  10.781  -0.008  1.7514 -0.3723 -1.5260
  968MOL0     H27722  11.587  10.838  -0.171  0.6200  0.1348  0.9165
  968MOL0     H27723  11.390  10.728  -0.246  1.0351 -0.5330 -0.6459
  968MOL0     H27724  11.332  10.704  -0.083  0.5664  0.0686  1.3482
  968MOL0     H27725  11.609  10.586  -0.163 -0.9302  0.8377 -1.8941
  968MOL0     H27726  11.506  10.557  -0.014  2.3755 -1.8529 -1.0361
  968MOL0     H27727  11.394  10.477  -0.284 -0.3573  0.0771  0.5211
  968MOL0     H27728  11.336  10.464  -0.120  1.3425  0.4528  0.8812
  968MOL0     H27729  11.419  10.254   0.021 -1.5874 -2.3057 -0.7080
  968MOL0     H27730  11.468   9.949   0.001  1.0913 -1.0182 -2.4677
  968MOL0     H27731  11.563  10.051   0.103  1.0599 -2.9139  0.8549
  968MOL0     H27732  11.749  10.007  -0.038 -1.1881  1.7104  2.8526
  968MOL0     H27733  11.649   9.856  -0.096 -3.0076  2.9221 -2.8018
  968MOL0     H27734  11.817   9.812   0.073  0.7886 -1.3564  4.1681
  968MOL0     H27735  11.723   9.911   0.187  0.5410 -1.8135  2.0802
  968MOL0     H27736  11.663   9.668   0.219  1.6978 -0.4846 -0.6414
  968MOL0     H27737  11.559   9.682   0.070  1.9203 -0.1952 -0.6098
  968MOL0     H27738  11.437   9.925   0.444 -0.6508 -0.2159 -2.0482
  968MOL0     H27739  11.253   9.860   0.588 -3.5807 -0.6495 -0.4253
  968MOL0     H27740  11.215   9.228   0.677  0.2621  1.3377 -1.1335
  968MOL0     H27741  11.131   9.094   0.851 -0.6233 -1.4377 -2.2761
  968MOL0     H27742  10.911   9.310   1.163  0.5444  0.1945 -0.4363
  968MOL0     H27743  11.059   9.212   1.193 -1.0056 -2.9769  3.7465
  968MOL0     H27744  10.772   9.133   1.230 -0.2772 -0.1071  0.9746
  968MOL0     H27745  10.876   9.200   1.345  0.3738  0.6266 -0.3476
  968MOL0     H27746  10.962   8.943   1.188  2.2929  0.9622  0.2282
  968MOL0     H27747  10.863   8.935   1.329  2.6177 -2.0751  0.9064
  968MOL0     H27748  11.134   9.092   1.365  1.9950 -0.7034  2.5900
  968MOL0     H27749  11.043   9.003   1.476  1.3695  1.0201  0.2546
  968MOL0     H27750  11.204   8.889   1.249  0.4201  1.2966 -0.7976
  968MOL0     H27751  11.080   8.782   1.325  0.7594  0.6642 -0.1875
  968MOL0     H27752  11.169   8.808   1.543 -0.8645  1.2571 -0.4356
  968MOL0     H27753  11.298   8.918   1.492 -1.3630  1.1559  0.8345
  968MOL0     H27754  11.314   8.672   1.328  0.4232  2.7322 -0.0897
  968MOL0     H27755  11.430   8.737   1.440 -0.9239  1.4177 -0.4590
  968MOL0     H27756  11.361   8.501   1.513 -3.0405 -2.3135 -1.9613
  968MOL0     H27757  11.196   8.559   1.512 -0.2023 -0.6962 -1.8264
  968MOL0     H27758  10.832   9.379   0.951  0.2271 -1.9818  1.2333
  968MOL0     H27759  10.927   9.530   0.794  2.3029  1.2001  1.4653
  968MOL0     H27760  11.232   9.483   0.363  1.9572 -0.2559  2.7277
  968MOL0     H27761  11.381   9.570   0.206  0.4310  0.5424 -1.4316
  968MOL0     H27762  11.429  11.374   0.419  0.2853 -0.1805 -2.3680
  968MOL0     H27763  11.316  11.337   0.640 -1.1111 -0.2905  1.3630
  968MOL0     H27764  10.809  11.089   0.822  1.6014  2.7092 -0.6021
  968MOL0     H27765  10.747  11.028   1.062  1.1082  1.7771  0.2095
  968MOL0     H27766  11.003  11.053   1.388  2.4451 -0.6416  1.0998
  968MOL0     H27767  11.082  10.903   1.352 -1.8261 -3.0600 -1.3793
  968MOL0     H27768  10.814  10.912   1.500  0.3103 -1.8980  2.3989
  968MOL0     H27769  10.890  10.775   1.440  0.1982  0.5125 -2.2610
  968MOL0     H27770  10.997  10.950   1.672 -0.1518 -0.9322  0.9686
  968MOL0     H27771  11.107  10.854   1.575 -0.7128  0.6962 -2.8910
  968MOL0     H27772  10.849  10.764   1.730 -0.9458 -3.0941 -2.4953
  968MOL0     H27773  10.938  10.651   1.638  0.2772 -1.7162  1.9792
  968MOL0     H27774  11.159  10.696   2.000 -0.9726 -2.0495  1.1703
  968MOL0     H27775  11.149  10.918   1.144 -0.4972 -0.5890  0.7947
  968MOL0     H27776  11.217  10.984   0.914  0.3866 -0.8486 -0.7208
  969MOL0     O27777   0.866   8.489   8.829  0.3328 -1.0379 -0.7700
  969MOL0     C27778   0.776   8.543   8.890 -1.2388 -0.2922 -0.2835
  969MOL0     O27779   0.783   8.673   8.939  0.1334  0.5908  1.2518
  969MOL0     C27780   0.895   8.741   8.955  0.6437 -0.3598  0.2473
  969MOL0     C27781   0.984   8.716   9.056  0.5019 -0.3844  0.1821
  969MOL0     C27782   1.105   8.782   9.071  0.0244  0.0967  0.0036
  969MOL0     C27783   1.140   8.871   8.961  0.2464  1.1224  0.2183
  969MOL0     O27784   1.271   8.933   8.967 -0.1269  0.6818 -0.0172
  969MOL0     C27785   1.296   9.056   8.908 -0.5925 -0.8494 -0.7293
  969MOL0     C27786   1.450   9.083   8.922 -0.0942  0.6128 -0.2505
  969MOL0     C27787   1.531   8.983   8.839 -0.1936  0.2705 -0.5908
  969MOL0     C27788   1.687   9.022   8.857 -0.5825 -0.1108  0.1540
  969MOL0     C27789   1.770   8.939   8.768 -0.0079 -0.6051  0.4725
  969MOL0     C27790   1.922   8.974   8.775  1.3424 -0.5036 -0.1515
  969MOL0     C27791   1.947   9.128   8.769  0.3114  0.2044 -0.2526
  969MOL0     C27792   1.902   9.216   8.650 -0.1022 -0.4907 -0.3074
  969MOL0     N27793   1.922   9.364   8.660 -0.4670 -0.1086  0.0138
  969MOL0     C27794   2.038   9.436   8.689  0.1589 -0.6614 -0.9483
  969MOL0     C27795   1.998   9.563   8.704 -0.7111 -1.0111  0.9729
  969MOL0     C27796   2.096   9.681   8.692 -0.4319 -0.7317  0.8899
  969MOL0     C27797   2.198   9.680   8.573  0.9292 -0.0352  0.0714
  969MOL0     C27798   2.240   9.814   8.521 -0.0781  0.4832  0.8466
  969MOL0     C27799   2.288   9.903   8.633 -0.0821  0.9984 -1.0724
  969MOL0     O27800   2.368  10.007   8.576  0.6698 -0.0149 -0.0476
  969MOL0     C27801   2.423  10.094   8.660  0.2380 -0.6898 -0.0350
  969MOL0     C27802   2.372  10.163   8.772 -0.4070  0.0474  0.5001
  969MOL0     C27803   2.458  10.236   8.861 -0.5760  1.0074  0.2443
  969MOL0     C27804   2.601  10.220   8.842  0.4098 -1.1690 -0.0603
  969MOL0     C27805   2.698  10.292   8.927  0.3687 -0.5451 -0.0079
  969MOL0     O27806   2.645  10.401   9.002 -0.5137 -0.3896 -0.0575
  969MOL0     C27807   2.743  10.479   9.061 -0.1245  0.8194 -0.0686
  969MOL0     C27808   2.750  10.495   9.197 -1.0542  0.3398 -0.9028
  969MOL0     C27809   2.870  10.567   9.245  0.0316 -0.6581  0.1137
  969MOL0     C27810   2.954  10.639   9.164 -0.3213 -0.0054  0.0673
  969MOL0     O27811   3.048  10.723   9.232 -0.1645 -0.2449  1.0473
  969MOL0     C27812   3.186  10.710   9.188 -0.9511 -0.6336  0.3446
  969MOL0     C27813   3.298  10.795   9.268  0.8814 -0.1667 -0.3771
  969MOL0     C27814   3.279  10.782   9.418  0.5399  0.1417 -0.3346
  969MOL0     C27815   3.397  10.848   9.497  0.3970 -0.4022  0.7509
  969MOL0     C27816   3.518  10.750   9.507 -0.0572 -0.9094 -0.6890
  969MOL0     C27817   3.631  10.828   9.584 -0.5597 -0.9832 -0.4290
  969MOL0     C27818   3.701  10.937   9.497 -0.7235  0.7927 -1.2462
  969MOL0     C27819   3.846  10.972   9.550 -0.3889 -0.3481 -0.4194
  969MOL0    Cl27820   3.959  10.839   9.507  0.3185  0.0608  0.1372
  969MOL0     C27821   2.932  10.624   9.030  0.1328  0.0772 -0.9312
  969MOL0     C27822   2.827  10.543   8.972 -0.2190  0.4953 -0.4639
  969MOL0     O27823   2.814  10.263   8.921 -0.0901  0.1907  0.7100
  969MOL0     C27824   2.645  10.151   8.731 -0.4897 -0.0255 -0.1186
  969MOL0     C27825   2.557  10.100   8.636 -0.9896  0.5218  0.3985
  969MOL0     N27826   1.865   9.570   8.688  0.8234  0.0758 -0.0452
  969MOL0     N27827   1.814   9.449   8.681 -0.9807 -0.8797  0.5142
  969MOL0     C27828   1.055   8.893   8.851 -0.2614  0.2594 -0.2040
  969MOL0     C27829   0.935   8.823   8.852  0.1913 -0.1276  0.5151
  969MOL0     C27830   0.652   8.462   8.914  0.2971 -0.1353  0.1291
  969MOL0     C27831   0.621   8.357   8.821  0.5643  0.0452  0.2200
  969MOL0     C27832   0.496   8.290   8.835 -0.1355  0.4085 -0.0563
  969MOL0     C27833   0.407   8.316   8.944 -0.1300 -0.3647  1.4374
  969MOL0     O27834   0.279   8.265   8.964 -0.2444  0.2372 -0.0127
  969MOL0     C27835   0.245   8.136   8.909 -0.3029 -0.2989 -0.8886
  969MOL0     C27836   0.115   8.095   8.975 -0.5467 -0.0550  0.6153
  969MOL0     C27837   0.105   8.092   9.126 -0.2986 -0.9129  0.1972
  969MOL0     C27838  -0.040   8.109   9.180 -0.4725  0.6312  0.7109
  969MOL0     C27839  -0.040   8.152   9.317 -1.2650  0.0567 -0.3839
  969MOL0     C27840  -0.043   8.189   9.433 -0.1617 -0.1979 -0.2216
  969MOL0     C27841   0.432   8.421   9.029  0.0609 -1.0845  0.1419
  969MOL0     C27842   0.556   8.491   9.018  1.3456 -0.1745 -0.1789
  969MOL0     H27843   0.941   8.651   9.132  0.4106  1.6876  1.9825
  969MOL0     H27844   1.172   8.765   9.154  0.9845  1.1800 -0.5280
  969MOL0     H27845   1.243   9.138   8.957  3.3412  1.5247  0.0040
  969MOL0     H27846   1.270   9.059   8.802  0.8806  0.8448 -1.0941
  969MOL0     H27847   1.485   9.083   9.026 -0.2503 -0.9989 -0.1707
  969MOL0     H27848   1.482   9.180   8.885 -0.5172  0.9294  0.1935
  969MOL0     H27849   1.504   8.988   8.733 -1.9899  1.3814 -0.1157
  969MOL0     H27850   1.516   8.881   8.877 -2.8217  0.7908 -0.0599
  969MOL0     H27851   1.698   9.130   8.844  0.9913 -0.4634 -2.0661
  969MOL0     H27852   1.715   8.994   8.959 -1.0243 -0.7473  0.1095
  969MOL0     H27853   1.737   8.946   8.664  2.4537  3.2301 -0.2684
  969MOL0     H27854   1.774   8.836   8.804  2.0010 -0.2562  1.3736
  969MOL0     H27855   1.975   8.926   8.692  0.7202 -1.9445  0.2622
  969MOL0     H27856   1.969   8.932   8.864  1.2974  2.4634  1.3802
  969MOL0     H27857   1.893   9.171   8.854  1.4936  4.9479 -1.5739
  969MOL0     H27858   2.051   9.160   8.779 -0.3946  3.0949 -0.9738
  969MOL0     H27859   1.796   9.197   8.633 -0.2636  0.9498 -1.0423
  969MOL0     H27860   1.942   9.185   8.553 -0.2773 -0.3558 -0.4215
  969MOL0     H27861   2.135   9.387   8.684 -1.1779 -3.3901 -2.0292
  969MOL0     H27862   2.167   9.683   8.776  0.2718  0.9326  0.3045
  969MOL0     H27863   2.042   9.775   8.681  3.2775  1.4283 -1.0879
  969MOL0     H27864   2.143   9.633   8.491  1.9867  1.0691 -1.3306
  969MOL0     H27865   2.286   9.617   8.589  1.1956  0.4707  0.6303
  969MOL0     H27866   2.326   9.783   8.462 -2.1929 -1.8303 -1.2316
  969MOL0     H27867   2.165   9.852   8.451 -0.1519 -2.7346 -1.0039
  969MOL0     H27868   2.347   9.838   8.698 -2.1868  0.0348 -0.0414
  969MOL0     H27869   2.213   9.947   8.699  1.5616 -0.9466  2.3642
  969MOL0     H27870   2.266  10.148   8.794 -0.4043  0.5426  0.8748
  969MOL0     H27871   2.416  10.279   8.952 -0.5755 -0.8864  1.1984
  969MOL0     H27872   2.676  10.456   9.266 -0.9473  0.8659 -0.4901
  969MOL0     H27873   2.886  10.577   9.352  0.0539 -2.6947  0.3339
  969MOL0     H27874   3.195  10.741   9.083 -0.2164 -0.4522  0.4563
  969MOL0     H27875   3.213  10.604   9.193  1.8157  0.0023  0.4077
  969MOL0     H27876   3.277  10.901   9.250 -1.6141 -0.5653 -0.1680
  969MOL0     H27877   3.392  10.756   9.228 -0.5779 -0.9281 -3.4145
  969MOL0     H27878   3.289  10.676   9.442 -0.0003  0.8173  3.3853
  969MOL0     H27879   3.176  10.811   9.436  1.0471  1.7564  0.1404
  969MOL0     H27880   3.423  10.941   9.446 -3.0256  1.6050  2.2785
  969MOL0     H27881   3.364  10.874   9.598  0.1375  1.1370  0.3031
  969MOL0     H27882   3.547  10.724   9.405  2.0748  0.7304 -0.5601
  969MOL0     H27883   3.492  10.656   9.556 -0.1013 -0.9821 -0.8526
  969MOL0     H27884   3.713  10.762   9.615 -1.7793 -1.6360  1.5855
  969MOL0     H27885   3.595  10.878   9.674 -2.5680 -0.7331 -1.3258
  969MOL0     H27886   3.707  10.913   9.391 -2.5992  0.3213 -1.2858
  969MOL0     H27887   3.636  11.024   9.515 -0.8503  0.3608  0.5266
  969MOL0     H27888   3.845  10.963   9.659  0.0039 -3.6345 -0.5899
  969MOL0     H27889   3.882  11.065   9.505  1.7258 -0.3428  1.1240
  969MOL0     H27890   2.996  10.684   8.966  0.4649 -1.6571 -2.2873
  969MOL0     H27891   2.829  10.522   8.866  0.1038 -0.0340 -0.3595
  969MOL0     H27892   2.752  10.134   8.739 -0.4491  0.9071  1.8553
  969MOL0     H27893   2.593  10.027   8.564 -1.7725  1.7247 -1.3063
  969MOL0     H27894   1.089   8.962   8.774 -5.0255  3.9803  0.5394
  969MOL0     H27895   0.871   8.836   8.765  1.0475 -0.2846 -0.1463
  969MOL0     H27896   0.694   8.318   8.751  1.0438  1.3747 -0.0541
  969MOL0     H27897   0.477   8.203   8.773 -0.7817  2.4585 -2.9627
  969MOL0     H27898   0.325   8.064   8.923 -0.8170 -1.3984 -3.1564
  969MOL0     H27899   0.227   8.137   8.801 -4.7030 -2.3807 -0.3893
  969MOL0     H27900   0.039   8.158   8.929 -0.3893  1.9752  2.9401
  969MOL0     H27901   0.094   7.992   8.945 -1.3941  0.1055  0.6422
  969MOL0     H27902   0.144   8.185   9.167  4.8928 -3.1747  1.2885
  969MOL0     H27903   0.147   8.005   9.177  0.0357 -1.1854 -0.5224
  969MOL0     H27904  -0.087   8.192   9.126  1.2013  1.8075  0.9929
  969MOL0     H27905  -0.095   8.014   9.181 -0.1163  0.4020 -0.0416
  969MOL0     H27906  -0.051   8.241   9.527 -0.4838 -0.3215 -0.1792
  969MOL0     H27907   0.362   8.449   9.107 -1.2680 -1.1638 -0.9858
  969MOL0     H27908   0.586   8.571   9.084 -2.1646 -0.0688  1.4995
  970MOL0     O27909   0.728   9.288  11.067  0.0014  0.0780 -0.7065
  970MOL0     C27910   0.686   9.343  10.964 -0.1344  0.8460  0.0604
  970MOL0     O27911   0.579   9.292  10.883 -0.0076  0.3604  0.6721
  970MOL0     C27912   0.514   9.179  10.924 -0.0324  0.7302  0.3347
  970MOL0     C27913   0.392   9.173  10.985  0.0622  0.2073 -0.1563
  970MOL0     C27914   0.325   9.056  11.013 -0.8462 -0.3950 -0.0717
  970MOL0     C27915   0.368   8.927  10.973 -0.5924 -0.6790  0.2584
  970MOL0     O27916   0.292   8.807  10.987 -0.5592  0.0690 -0.6224
  970MOL0     C27917   0.312   8.733  10.859  0.2032 -0.2552 -0.3633
  970MOL0     C27918   0.207   8.624  10.858 -0.0862  0.6956  1.0355
  970MOL0     C27919   0.071   8.659  10.913  0.7750 -0.1822  0.6147
  970MOL0     C27920  -0.036   8.561  10.856 -0.5786 -0.6237  0.6864
  970MOL0     C27921  -0.154   8.553  10.950 -0.0978 -0.3874 -0.0253
  970MOL0     C27922  -0.241   8.432  10.926  0.0524 -0.1878  0.6180
  970MOL0     C27923  -0.358   8.433  11.019 -0.3398 -0.0310 -0.6328
  970MOL0     C27924  -0.436   8.305  11.037 -0.3150  1.3308  0.6515
  970MOL0     N27925  -0.370   8.171  11.022 -0.6061  0.2392 -0.4321
  970MOL0     C27926  -0.410   8.062  10.938 -0.0125 -0.7559 -0.1414
  970MOL0     C27927  -0.350   7.951  10.986  0.3298 -0.6806 -0.2330
  970MOL0     C27928  -0.364   7.810  10.942  0.2703 -0.2023 -0.3416
  970MOL0     C27929  -0.485   7.730  11.004 -0.0976 -0.3255  0.1294
  970MOL0     C27930  -0.624   7.779  10.998  0.2785 -0.0871 -0.3091
  970MOL0     C27931  -0.721   7.684  11.054  0.3982  0.7976  0.2138
  970MOL0     O27932  -0.857   7.719  11.006 -0.5362  1.3336 -0.4841
  970MOL0     C27933  -0.963   7.645  11.050  0.7020  0.5481 -0.3040
  970MOL0     C27934  -0.953   7.512  11.087 -1.2017  0.7008 -0.1851
  970MOL0     C27935  -1.071   7.449  11.136 -0.9803  0.0051  0.5138
  970MOL0     C27936  -1.192   7.510  11.133  0.2278 -0.4913  1.4522
  970MOL0     C27937  -1.313   7.447  11.193  0.0932 -0.3708  0.2066
  970MOL0     O27938  -1.410   7.516  11.262  0.1297  0.0828 -0.0492
  970MOL0     C27939  -1.509   7.441  11.312 -0.8992 -1.1255  0.1334
  970MOL0     C27940  -1.606   7.389  11.223  0.8071 -0.5036  0.6828
  970MOL0     C27941  -1.714   7.325  11.279 -0.3779 -0.6266  0.7009
  970MOL0     C27942  -1.729   7.302  11.411  1.1418 -0.8852  0.2949
  970MOL0     O27943  -1.836   7.237  11.452  0.0711  0.4549  0.1995
  970MOL0     C27944  -1.851   7.184  11.579  0.3794  0.9348 -0.6303
  970MOL0     C27945  -1.898   7.037  11.584  0.5856 -0.2051 -0.2415
  970MOL0     C27946  -2.043   7.011  11.547 -1.5504 -0.4168  1.2253
  970MOL0     C27947  -2.083   6.876  11.546  0.4090  0.4138  1.4423
  970MOL0     C27948  -2.228   6.852  11.487  0.3607 -0.4208  0.6594
  970MOL0     C27949  -2.338   6.904  11.581 -0.0094  0.1621  0.1138
  970MOL0     C27950  -2.370   6.814  11.698  0.2468  0.0339  0.1408
  970MOL0     C27951  -2.494   6.723  11.671  0.4017  0.0024 -0.3324
  970MOL0    Cl27952  -2.478   6.629  11.516  0.0066 -0.3915 -0.5202
  970MOL0     C27953  -1.632   7.349  11.497 -1.4150  0.0475  0.0899
  970MOL0     C27954  -1.518   7.419  11.452 -0.8827  0.2281  0.3655
  970MOL0     O27955  -1.326   7.332  11.151 -0.7422  0.1842  0.6678
  970MOL0     C27956  -1.207   7.644  11.097  0.3062  0.9679 -0.0714
  970MOL0     C27957  -1.092   7.710  11.049  0.3188  0.5341  0.5553
  970MOL0     N27958  -0.271   7.991  11.093  0.3116 -0.1817 -0.1333
  970MOL0     N27959  -0.287   8.112  11.122  0.1197 -0.1577 -0.4384
  970MOL0     C27960   0.498   8.928  10.908  0.6364 -0.2969  0.0382
  970MOL0     C27961   0.561   9.052  10.885 -0.0472  0.3099 -0.1553
  970MOL0     C27962   0.752   9.462  10.912  0.7383  0.0018  0.6040
  970MOL0     C27963   0.869   9.508  10.969  0.0366 -0.1716  0.1480
  970MOL0     C27964   0.930   9.617  10.913 -0.2123  0.8049 -0.4333
  970MOL0     C27965   0.880   9.682  10.804  1.0517 -0.2100  0.6580
  970MOL0     O27966   0.952   9.793  10.775 -0.1564  0.0019 -0.4018
  970MOL0     C27967   0.903   9.886  10.684 -1.0694  0.1543  0.0490
  970MOL0     C27968   1.013   9.994  10.668  0.5806  0.0139 -0.5274
  970MOL0     C27969   0.961  10.097  10.566 -0.1416 -0.1027 -1.0495
  970MOL0     C27970   0.842  10.176  10.606 -0.8802  0.4865  0.3667
  970MOL0     C27971   0.814  10.304  10.535  0.8348  0.8505  0.0716
  970MOL0     C27972   0.804  10.403  10.463 -0.1603  0.1844 -0.1091
  970MOL0     C27973   0.761   9.641  10.743 -0.9998  0.0174 -0.9855
  970MOL0     C27974   0.701   9.524  10.799 -0.0442 -0.5799  1.0997
  970MOL0     H27975   0.336   9.257  11.026 -0.4398 -1.2410  2.3473
  970MOL0     H27976   0.232   9.056  11.069 -0.3582 -2.0864  0.7932
  970MOL0     H27977   0.409   8.682  10.859  0.0455 -0.6555  1.6365
  970MOL0     H27978   0.294   8.789  10.768 -2.5246 -1.4934 -0.6899
  970MOL0     H27979   0.246   8.536  10.911  0.2696 -2.4294 -3.7698
  970MOL0     H27980   0.196   8.581  10.758  0.1427  0.6352  1.0356
  970MOL0     H27981   0.052   8.763  10.885  3.9078  0.4962  0.6379
  970MOL0     H27982   0.092   8.652  11.020  2.2967  1.9691  0.5166
  970MOL0     H27983  -0.068   8.599  10.758  1.0592 -1.9927 -0.4226
  970MOL0     H27984   0.010   8.465  10.832 -0.1799 -1.1243  3.2059
  970MOL0     H27985  -0.214   8.644  10.942  3.2994  2.0337 -0.1584
  970MOL0     H27986  -0.129   8.548  11.056 -1.7658 -3.7723  0.3552
  970MOL0     H27987  -0.182   8.340  10.928  3.6917  1.9039 -1.0031
  970MOL0     H27988  -0.277   8.443  10.823  1.3189 -0.3171  0.1502
  970MOL0     H27989  -0.321   8.456  11.119 -1.2722 -1.9797  0.2197
  970MOL0     H27990  -0.426   8.517  11.000  1.7248  2.0053  0.5147
  970MOL0     H27991  -0.510   8.313  10.956  2.2328  0.6699 -1.8932
  970MOL0     H27992  -0.499   8.306  11.126  1.7255 -1.1216  2.2528
  970MOL0     H27993  -0.485   8.072  10.860 -2.5067  1.9910  2.3640
  970MOL0     H27994  -0.275   7.752  10.968  0.9772  2.5142  4.3925
  970MOL0     H27995  -0.370   7.812  10.832  0.0357 -0.6556 -0.3389
  970MOL0     H27996  -0.471   7.718  11.112  0.1284 -1.0549  0.0199
  970MOL0     H27997  -0.483   7.626  10.970  2.0327 -0.3965  0.3672
  970MOL0     H27998  -0.635   7.877  11.047  0.1588 -0.5843  0.6816
  970MOL0     H27999  -0.653   7.786  10.893 -0.8267  1.4436  0.0576
  970MOL0     H28000  -0.730   7.691  11.163 -0.8799 -0.4311  0.2262
  970MOL0     H28001  -0.702   7.580  11.027  0.5443  0.9792 -0.3834
  970MOL0     H28002  -0.863   7.456  11.068 -0.9045  1.6209 -1.6827
  970MOL0     H28003  -1.066   7.344  11.162 -2.9011  0.0754  1.2845
  970MOL0     H28004  -1.605   7.409  11.117 -1.4576  1.1348  0.9027
  970MOL0     H28005  -1.776   7.289  11.197  0.2392  2.5749 -1.3367
  970MOL0     H28006  -1.919   7.246  11.638 -0.4709 -1.5089  1.1592
  970MOL0     H28007  -1.752   7.158  11.619  1.2837 -1.7085 -4.0881
  970MOL0     H28008  -1.878   7.005  11.687  0.1391 -1.2263 -0.4545
  970MOL0     H28009  -1.836   6.982  11.512 -1.9348 -1.4265 -1.6113
  970MOL0     H28010  -2.048   7.066  11.452 -2.5724 -1.2923  0.7558
  970MOL0     H28011  -2.099   7.058  11.628  0.2558 -0.1762  2.4025
  970MOL0     H28012  -2.029   6.812  11.476 -1.8264 -1.5160  1.3722
  970MOL0     H28013  -2.075   6.834  11.646 -2.2209  3.4624  3.1151
  970MOL0     H28014  -2.236   6.744  11.477  2.3598 -0.4098 -2.6569
  970MOL0     H28015  -2.242   6.883  11.383 -1.9668 -2.7071  0.2140
  970MOL0     H28016  -2.431   6.928  11.529  0.0771  6.5730  1.9979
  970MOL0     H28017  -2.322   7.009  11.607 -1.0908  0.3189  0.1693
  970MOL0     H28018  -2.288   6.748  11.726 -0.0283  0.2503  1.5016
  970MOL0     H28019  -2.383   6.877  11.787  0.4536 -0.2636  0.3823
  970MOL0     H28020  -2.580   6.791  11.662 -0.8244 -1.7529 -3.2876
  970MOL0     H28021  -2.509   6.649  11.750  1.3364 -2.4697 -2.3194
  970MOL0     H28022  -1.632   7.327  11.603 -0.3015 -2.2106 -0.3111
  970MOL0     H28023  -1.456   7.478  11.518  2.2877 -0.3948 -1.7998
  970MOL0     H28024  -1.306   7.689  11.101 -0.6371 -0.8771 -1.0123
  970MOL0     H28025  -1.103   7.812  11.013 -1.1642  0.5518  0.9810
  970MOL0     H28026   0.530   8.833  10.866  0.3782 -2.9026  5.0741
  970MOL0     H28027   0.660   9.050  10.841 -0.5116 -1.7618 -1.2578
  970MOL0     H28028   0.916   9.459  11.054 -1.1006 -0.6468  0.5147
  970MOL0     H28029   1.015   9.654  10.969 -0.2688 -1.1658  1.0336
  970MOL0     H28030   0.806   9.921  10.721 -0.6253  0.1476  1.2910
  970MOL0     H28031   0.891   9.843  10.584  2.0744 -0.7606 -0.0379
  970MOL0     H28032   1.034  10.028  10.770  4.9948  0.6457 -1.4481
  970MOL0     H28033   1.102   9.943  10.630 -0.8570 -1.6570 -1.7712
  970MOL0     H28034   0.940  10.041  10.474  2.1042 -1.0557 -1.0425
  970MOL0     H28035   1.038  10.173  10.550  1.1201 -1.4394 -1.5113
  970MOL0     H28036   0.754  10.111  10.608  1.5921 -3.2842 -1.1853
  970MOL0     H28037   0.859  10.207  10.710  1.0381  0.5790  0.0705
  970MOL0     H28038   0.801  10.485  10.395  2.3427 -0.2172 -0.8020
  970MOL0     H28039   0.725   9.708  10.665 -1.3389  1.1114  0.0926
  970MOL0     H28040   0.605   9.499  10.755  0.3186  0.5969 -0.4460
  971MOL0     O28041   2.916  10.519   8.088 -0.4319 -0.1748 -0.4115
  971MOL0     C28042   2.853  10.609   8.155 -0.3492  0.0314  0.6665
  971MOL0     O28043   2.724  10.586   8.209  0.1035  0.0208 -0.7027
  971MOL0     C28044   2.651  10.478   8.174 -1.0442 -0.1715  0.3684
  971MOL0     C28045   2.659  10.422   8.048  0.6042  0.3598 -0.6313
  971MOL0     C28046   2.587  10.312   8.010  1.2669 -0.2689  0.1359
  971MOL0     C28047   2.481  10.258   8.094 -0.0789  0.2185  0.4070
  971MOL0     O28048   2.406  10.144   8.055  0.2931  0.7043 -0.5818
  971MOL0     C28049   2.371  10.043   8.151  0.9656 -0.2094  0.2093
  971MOL0     C28050   2.472   9.962   8.228  0.0685  0.0315  0.4287
  971MOL0     C28051   2.555   9.863   8.155  0.2057  0.3152 -0.2400
  971MOL0     C28052   2.485   9.725   8.124 -0.2402  0.0198  0.3426
  971MOL0     C28053   2.596   9.637   8.060 -0.2203 -0.5514  0.4119
  971MOL0     C28054   2.559   9.490   8.062 -0.6655 -0.3834 -0.1648
  971MOL0     C28055   2.674   9.403   8.016 -0.0273 -0.0736 -0.3264
  971MOL0     C28056   2.752   9.431   7.887  0.4488 -0.8686  0.3473
  971MOL0     N28057   2.695   9.362   7.767 -0.7148 -0.5791  0.2685
  971MOL0     C28058   2.607   9.418   7.676 -0.1470  0.0192 -0.4096
  971MOL0     C28059   2.555   9.308   7.622 -0.0429 -0.2271  0.7110
  971MOL0     C28060   2.467   9.309   7.499 -0.4411  0.5645  1.2572
  971MOL0     C28061   2.315   9.329   7.528 -0.0611 -0.1655  0.8965
  971MOL0     C28062   2.253   9.210   7.596  0.3228  0.1840 -0.5456
  971MOL0     C28063   2.143   9.153   7.511  0.1060 -0.5032 -0.3305
  971MOL0     O28064   2.025   9.235   7.499  0.8229  0.4337 -0.2812
  971MOL0     C28065   1.909   9.165   7.476  0.5657  0.0667 -0.3956
  971MOL0     C28066   1.895   9.025   7.441  0.5612 -0.5767  0.2492
  971MOL0     C28067   1.766   8.965   7.438 -0.1194  0.1924  0.3131
  971MOL0     C28068   1.646   9.042   7.475  0.1731 -1.1190  0.3365
  971MOL0     C28069   1.512   8.983   7.472 -0.1522 -0.7590  0.2262
  971MOL0     O28070   1.412   9.072   7.489 -0.3348  0.2091 -0.0702
  971MOL0     C28071   1.291   9.031   7.542  0.3149 -0.4376 -0.3019
  971MOL0     C28072   1.205   8.931   7.485 -0.5836 -0.5620 -0.9226
  971MOL0     C28073   1.074   8.908   7.535 -0.2033 -0.7812 -0.3912
  971MOL0     C28074   1.027   8.984   7.641 -0.9519  0.1421 -0.1737
  971MOL0     O28075   0.896   8.976   7.675 -0.4941  1.0527 -0.5666
  971MOL0     C28076   0.843   9.035   7.796  0.0719 -1.3221  0.0923
  971MOL0     C28077   0.686   9.044   7.768 -1.0477  0.6250  0.4914
  971MOL0     C28078   0.612   9.071   7.898  0.9277 -0.5919 -0.6629
  971MOL0     C28079   0.475   9.106   7.861  1.3611  0.3998 -0.8096
  971MOL0     C28080   0.388   9.079   7.974 -1.3334 -0.1031  0.2026
  971MOL0     C28081   0.249   9.115   7.954  0.6382 -1.0841 -0.3878
  971MOL0     C28082   0.176   9.131   8.093  0.3824  0.0537  1.7855
  971MOL0     C28083   0.146   9.280   8.115 -0.6250  0.1572  0.3276
  971MOL0    Cl28084   0.039   9.350   7.988 -0.5253 -0.1121  0.1935
  971MOL0     C28085   1.118   9.085   7.698 -0.8525 -0.5528 -0.6111
  971MOL0     C28086   1.245   9.104   7.646  0.7460  0.2581  0.0936
  971MOL0     O28087   1.489   8.862   7.462 -0.8443  0.0277  0.5895
  971MOL0     C28088   1.673   9.177   7.513 -0.9500 -0.3815 -0.4735
  971MOL0     C28089   1.796   9.240   7.496  0.6777  0.1506 -0.7918
  971MOL0     N28090   2.606   9.194   7.680 -0.5145  0.6462 -0.0840
  971MOL0     N28091   2.696   9.226   7.765 -0.6179 -0.2075 -0.2242
  971MOL0     C28092   2.458  10.325   8.210  0.7157  0.6652  0.7470
  971MOL0     C28093   2.548  10.434   8.248  0.3971 -0.4113  0.0009
  971MOL0     C28094   2.913  10.746   8.180  0.2279 -0.4545 -0.2699
  971MOL0     C28095   2.832  10.857   8.193  0.2024  0.6918  0.2291
  971MOL0     C28096   2.895  10.981   8.211  0.3928  0.4436  0.1637
  971MOL0     C28097   3.031  11.004   8.202 -0.2298  0.0240 -1.2687
  971MOL0     O28098   3.082  11.127   8.215  0.0369  1.1098 -1.1583
  971MOL0     C28099   3.024  11.210   8.115 -0.1262  0.5288 -0.1812
  971MOL0     C28100   3.141  11.247   8.010  0.5084 -0.2552  1.4044
  971MOL0     C28101   3.088  11.294   7.875  0.3120 -0.2768  0.1303
  971MOL0     C28102   3.178  11.357   7.775 -0.1032  0.4105 -0.5971
  971MOL0     C28103   3.310  11.290   7.753 -0.0446  0.1251 -0.6323
  971MOL0     C28104   3.411  11.225   7.758 -0.0265  0.2744  0.4426
  971MOL0     C28105   3.105  10.891   8.175  0.2869  0.0357  0.1130
  971MOL0     C28106   3.054  10.765   8.156 -0.6506  0.1084  0.3367
  971MOL0     H28107   2.740  10.425   7.976  1.8228 -2.4933  0.4668
  971MOL0     H28108   2.596  10.266   7.912 -0.7854 -0.3484 -0.0533
  971MOL0     H28109   2.301   9.971   8.108  3.2991 -2.2658 -0.3648
  971MOL0     H28110   2.296  10.084   8.219  1.1641  1.0009 -0.2770
  971MOL0     H28111   2.420   9.912   8.309  0.6456 -0.7037  0.3560
  971MOL0     H28112   2.544  10.028   8.277  1.0715 -0.7706  0.0961
  971MOL0     H28113   2.631   9.846   8.231  0.7880 -0.3509 -0.9547
  971MOL0     H28114   2.611   9.908   8.072  2.7356 -2.5895 -0.2822
  971MOL0     H28115   2.447   9.671   8.211 -5.0546 -2.8729 -3.0367
  971MOL0     H28116   2.404   9.734   8.051  0.3695 -1.5575 -0.5862
  971MOL0     H28117   2.689   9.651   8.117  0.5593 -0.7171 -0.7730
  971MOL0     H28118   2.626   9.676   7.962  2.2455  1.6999  1.9069
  971MOL0     H28119   2.474   9.468   7.996 -0.5896 -1.6401  0.1466
  971MOL0     H28120   2.532   9.464   8.164  0.9504 -0.5183  0.2475
  971MOL0     H28121   2.737   9.396   8.105  0.5697 -2.6609 -0.8527
  971MOL0     H28122   2.646   9.297   8.010 -0.5382 -0.2793  3.4038
  971MOL0     H28123   2.855   9.398   7.907  0.7027 -0.9608 -1.0163
  971MOL0     H28124   2.753   9.538   7.867 -1.1095 -0.7560  0.7749
  971MOL0     H28125   2.565   9.517   7.666 -3.0632 -1.2148 -1.8253
  971MOL0     H28126   2.474   9.213   7.446 -2.2579  2.2078 -2.2642
  971MOL0     H28127   2.500   9.386   7.429 -4.9344  0.9154 -0.8287
  971MOL0     H28128   2.266   9.349   7.432  0.2988 -4.3507 -0.3434
  971MOL0     H28129   2.312   9.418   7.591  0.4189  1.4215 -1.2212
  971MOL0     H28130   2.335   9.138   7.601  0.2838  0.1880  0.2164
  971MOL0     H28131   2.209   9.227   7.694  2.2225 -1.9825  0.7911
  971MOL0     H28132   2.122   9.054   7.552  1.6702 -0.5302  0.5157
  971MOL0     H28133   2.172   9.116   7.412  2.6672 -2.3395  0.9838
  971MOL0     H28134   1.972   8.955   7.412 -1.1758 -2.2110 -0.6180
  971MOL0     H28135   1.764   8.859   7.414 -1.0163  0.8900 -3.2405
  971MOL0     H28136   1.248   8.869   7.407  3.3633 -0.3224  0.8371
  971MOL0     H28137   1.019   8.821   7.500  0.1275 -1.1675  0.0519
  971MOL0     H28138   0.881   9.137   7.804  1.4764 -1.8815  1.1866
  971MOL0     H28139   0.872   8.982   7.888  1.8234  3.1537  2.4059
  971MOL0     H28140   0.649   8.953   7.719  0.4451 -1.0187  2.2891
  971MOL0     H28141   0.690   9.126   7.696  3.3248  1.7646  1.7071
  971MOL0     H28142   0.657   9.153   7.955  0.4209  1.0943 -2.5502
  971MOL0     H28143   0.609   8.987   7.967  0.5899  1.3672  1.8490
  971MOL0     H28144   0.471   9.211   7.829  1.4429  0.5033 -0.4858
  971MOL0     H28145   0.443   9.045   7.776 -2.9004  1.4246 -0.1701
  971MOL0     H28146   0.424   9.132   8.062  1.7475  0.7727 -1.4631
  971MOL0     H28147   0.388   8.974   8.006 -2.6866 -0.0942  0.2766
  971MOL0     H28148   0.195   9.053   7.882 -2.8657  0.3343  0.7795
  971MOL0     H28149   0.240   9.213   7.905 -2.0073 -0.9568  0.2200
  971MOL0     H28150   0.084   9.073   8.087  1.2544 -1.2340 -2.4517
  971MOL0     H28151   0.238   9.081   8.168 -0.7145 -0.9880  2.0157
  971MOL0     H28152   0.247   9.321   8.121  0.3722 -2.3028  4.4852
  971MOL0     H28153   0.102   9.291   8.215  1.6599  1.1316  1.2862
  971MOL0     H28154   1.093   9.155   7.777  1.3684  2.1832 -2.1308
  971MOL0     H28155   1.312   9.179   7.686 -0.7983 -0.4128  4.4777
  971MOL0     H28156   1.589   9.238   7.544 -0.6859 -0.2283 -0.0529
  971MOL0     H28157   1.807   9.345   7.521  0.7183 -0.4268  2.0037
  971MOL0     H28158   2.375  10.295   8.273  0.8758  5.3616  3.6190
  971MOL0     H28159   2.526  10.480   8.344 -0.8134  2.4116 -1.5253
  971MOL0     H28160   2.724  10.847   8.192  0.4345 -3.3593  0.8215
  971MOL0     H28161   2.829  11.065   8.224 -1.9849 -1.4660  1.3037
  971MOL0     H28162   2.988  11.296   8.172  1.2804 -1.4333  4.1076
  971MOL0     H28163   2.938  11.169   8.061 -1.4160  1.3544  1.1939
  971MOL0     H28164   3.189  11.336   8.051 -0.5260  2.8563 -3.2918
  971MOL0     H28165   3.208  11.161   8.002 -1.4033 -1.7048 -0.0676
  971MOL0     H28166   2.992  11.347   7.886  0.5026 -0.2990  2.4965
  971MOL0     H28167   3.057  11.196   7.838  0.7174 -1.4072  2.5486
  971MOL0     H28168   3.128  11.342   7.679  1.1884  0.9579 -1.3846
  971MOL0     H28169   3.195  11.463   7.794 -1.4904  0.3530  1.2271
  971MOL0     H28170   3.502  11.170   7.751  1.9549  3.5348 -2.9399
  971MOL0     H28171   3.209  10.913   8.156 -0.2143  1.4394 -1.1871
  971MOL0     H28172   3.122  10.682   8.165 -0.7752  0.1597  2.2189
  972MOL0     O28173   0.044   1.805   7.679 -0.3118 -0.1829  0.2176
  972MOL0     C28174  -0.027   1.812   7.781 -0.6934 -0.3694 -0.1521
  972MOL0     O28175  -0.140   1.739   7.812 -0.4454  0.2128  0.4092
  972MOL0     C28176  -0.229   1.690   7.714  0.5630 -0.1035 -0.3073
  972MOL0     C28177  -0.210   1.703   7.567 -0.4602  1.0825 -0.9627
  972MOL0     C28178  -0.317   1.669   7.486  0.1614 -0.2499 -0.0939
  972MOL0     C28179  -0.436   1.607   7.522 -0.7455 -0.1542 -0.0835
  972MOL0     O28180  -0.524   1.539   7.434 -0.0855 -0.0907 -0.1817
  972MOL0     C28181  -0.622   1.451   7.486 -0.8550  0.2608  0.4346
  972MOL0     C28182  -0.645   1.342   7.388 -0.6428  0.7009  0.5752
  972MOL0     C28183  -0.686   1.382   7.252 -0.0279 -0.6651 -0.5254
  972MOL0     C28184  -0.689   1.273   7.156  0.9611  0.0733  0.8022
  972MOL0     C28185  -0.758   1.314   7.025  0.2183 -0.1320  0.1374
  972MOL0     C28186  -0.776   1.194   6.937  0.4852 -0.4287  0.1961
  972MOL0     C28187  -0.836   1.234   6.802  0.2196 -0.2191 -0.5257
  972MOL0     C28188  -0.957   1.327   6.803 -0.6828 -0.3568  0.3469
  972MOL0     N28189  -1.081   1.256   6.823 -0.4462 -1.1470  0.3745
  972MOL0     C28190  -1.128   1.161   6.732 -0.6260 -0.8765 -0.5182
  972MOL0     C28191  -1.243   1.122   6.777  0.0248 -0.7049 -0.7902
  972MOL0     C28192  -1.346   1.019   6.737  0.4234  0.5356 -0.1986
  972MOL0     C28193  -1.348   0.955   6.601 -0.2550  0.2052  0.0560
  972MOL0     C28194  -1.406   1.058   6.505  0.6182 -0.4974  1.4471
  972MOL0     C28195  -1.446   0.990   6.371 -0.1101  0.4348  0.3148
  972MOL0     O28196  -1.520   1.081   6.286 -0.2283 -0.2404  1.0664
  972MOL0     C28197  -1.548   1.035   6.161  0.1486  0.3005 -0.0858
  972MOL0     C28198  -1.545   1.135   6.056 -0.4897 -0.6573  0.3567
  972MOL0     C28199  -1.583   1.092   5.926  0.0710  0.0759  0.7784
  972MOL0     C28200  -1.617   0.951   5.896 -0.1422 -0.2035  0.3355
  972MOL0     C28201  -1.664   0.913   5.765 -1.0172 -0.3154  0.2954
  972MOL0     O28202  -1.716   0.785   5.746  0.3465 -0.0045 -0.0912
  972MOL0     C28203  -1.786   0.755   5.629  0.1840  0.9046  0.3370
  972MOL0     C28204  -1.756   0.636   5.570  0.4090  1.2587  0.5966
  972MOL0     C28205  -1.815   0.603   5.447 -0.4872 -0.2508 -0.2187
  972MOL0     C28206  -1.909   0.688   5.387  1.0309  1.1036 -0.4202
  972MOL0     O28207  -1.957   0.662   5.255  0.4025  0.2104  0.1044
  972MOL0     C28208  -2.093   0.646   5.239  1.4665  0.4817 -0.4605
  972MOL0     C28209  -2.134   0.652   5.094 -0.9803  0.1216  0.1714
  972MOL0     C28210  -2.284   0.674   5.072  0.4798  0.3749 -0.4011
  972MOL0     C28211  -2.326   0.700   4.927  0.7624 -0.0767  0.0985
  972MOL0     C28212  -2.473   0.701   4.906 -0.7117 -0.8304  0.0622
  972MOL0     C28213  -2.547   0.568   4.917 -0.3483  0.3818 -0.3507
  972MOL0     C28214  -2.703   0.584   4.894  0.3257 -0.0566  0.5491
  972MOL0     C28215  -2.782   0.527   5.008  0.3904  0.5006 -1.0134
  972MOL0    Cl28216  -2.958   0.548   4.996  0.4335  0.3168 -0.2410
  972MOL0     C28217  -1.934   0.814   5.446  0.1574  0.8847 -0.1739
  972MOL0     C28218  -1.872   0.843   5.564 -0.4698 -0.4770 -0.4546
  972MOL0     O28219  -1.663   0.999   5.683  0.2201 -0.2465  0.3513
  972MOL0     C28220  -1.617   0.856   6.001  0.0189  0.1255 -0.0166
  972MOL0     C28221  -1.596   0.900   6.140 -1.5814 -0.2043  0.0570
  972MOL0     N28222  -1.265   1.198   6.892 -0.5330  0.1018 -0.2811
  972MOL0     N28223  -1.160   1.269   6.928 -0.9083 -0.8390 -0.1926
  972MOL0     C28224  -0.453   1.604   7.656 -0.3099 -0.0122 -1.3659
  972MOL0     C28225  -0.355   1.636   7.755  0.4802 -0.4266 -1.1198
  972MOL0     C28226   0.052   1.874   7.894  0.5260  0.6000 -0.4548
  972MOL0     C28227   0.148   1.967   7.863  0.2864 -0.3753 -0.1549
  972MOL0     C28228   0.218   2.029   7.971  0.3333  0.0218  0.5279
  972MOL0     C28229   0.174   1.996   8.104 -0.3939 -1.3136 -0.2576
  972MOL0     O28230   0.239   2.078   8.201 -0.2305  0.1261  0.4455
  972MOL0     C28231   0.274   2.016   8.331  0.0985 -0.1760  0.0068
  972MOL0     C28232   0.204   2.094   8.445  0.0204  0.4820  0.0970
  972MOL0     C28233   0.273   2.221   8.489 -0.8231 -0.1061  0.5103
  972MOL0     C28234   0.193   2.304   8.580  0.6786  0.8111  0.0747
  972MOL0     C28235   0.270   2.417   8.639 -0.0518  0.5740  0.1269
  972MOL0     C28236   0.333   2.507   8.688  0.2010 -0.7654  0.2068
  972MOL0     C28237   0.068   1.907   8.135 -0.1696 -0.7776 -0.6664
  972MOL0     C28238   0.010   1.844   8.027  0.7715  0.3654  0.8097
  972MOL0     H28239  -0.111   1.740   7.540  0.1554  1.4683  1.5375
  972MOL0     H28240  -0.303   1.690   7.380 -1.8563 -1.1256 -0.5851
  972MOL0     H28241  -0.714   1.509   7.501  0.0907  3.7101 -4.3211
  972MOL0     H28242  -0.578   1.395   7.568 -2.6494 -1.6155  0.2169
  972MOL0     H28243  -0.724   1.273   7.417  0.6926 -1.2086 -0.1407
  972MOL0     H28244  -0.561   1.272   7.385 -1.3740 -0.2007  1.0070
  972MOL0     H28245  -0.618   1.455   7.208  0.6286 -0.6915  0.4068
  972MOL0     H28246  -0.785   1.423   7.270  0.7849  0.8357  0.8461
  972MOL0     H28247  -0.589   1.228   7.148  1.0913  0.6038 -1.3621
  972MOL0     H28248  -0.749   1.190   7.195  0.9998  0.8654  2.6004
  972MOL0     H28249  -0.690   1.387   6.981  1.4621 -0.4333  1.5153
  972MOL0     H28250  -0.853   1.355   7.061  0.5884 -0.3774  1.4352
  972MOL0     H28251  -0.862   1.144   6.982 -1.6087  2.0151 -0.8043
  972MOL0     H28252  -0.685   1.138   6.913  1.4590  0.8036  0.9033
  972MOL0     H28253  -0.768   1.302   6.751 -0.7830  2.3363  1.3582
  972MOL0     H28254  -0.852   1.149   6.735 -1.1842  0.3696 -0.9819
  972MOL0     H28255  -0.954   1.374   6.704  2.8093  0.5531  0.7588
  972MOL0     H28256  -0.938   1.406   6.876  0.8232 -0.8624  0.5408
  972MOL0     H28257  -1.080   1.125   6.641 -1.2141 -0.2041 -1.1172
  972MOL0     H28258  -1.442   1.070   6.752 -0.6884 -1.8914  1.6026
  972MOL0     H28259  -1.348   0.940   6.813 -3.6234  0.9448  0.3802
  972MOL0     H28260  -1.402   0.860   6.599 -0.2245  0.0307  2.7757
  972MOL0     H28261  -1.253   0.920   6.561 -0.9293 -0.2622 -1.1944
  972MOL0     H28262  -1.497   1.102   6.547  0.7271  0.8436  0.3486
  972MOL0     H28263  -1.336   1.142   6.496 -0.5137  0.4843  1.6024
  972MOL0     H28264  -1.510   0.905   6.396  1.0279 -0.9892 -1.3703
  972MOL0     H28265  -1.356   0.959   6.317 -2.2244 -0.5047 -2.9902
  972MOL0     H28266  -1.526   1.241   6.071  1.0913 -0.7697 -0.6297
  972MOL0     H28267  -1.602   1.155   5.839 -2.3527 -3.8567 -1.8499
  972MOL0     H28268  -1.674   0.580   5.612 -1.3801 -2.4241 -0.3961
  972MOL0     H28269  -1.790   0.512   5.394  1.5255 -0.3918  0.8762
  972MOL0     H28270  -2.145   0.725   5.295  3.0360  1.7278 -0.6815
  972MOL0     H28271  -2.119   0.547   5.278 -0.7672  1.8268  1.7649
  972MOL0     H28272  -2.092   0.567   5.040 -0.9896  0.6802 -0.7283
  972MOL0     H28273  -2.082   0.742   5.058  0.0878 -0.4792  0.1554
  972MOL0     H28274  -2.313   0.762   5.130 -1.5856 -0.4557 -0.1040
  972MOL0     H28275  -2.334   0.584   5.108  3.5928 -0.7754  1.4617
  972MOL0     H28276  -2.293   0.800   4.896 -0.9853  0.6079  0.3241
  972MOL0     H28277  -2.291   0.625   4.856 -0.8325  1.2820 -2.2669
  972MOL0     H28278  -2.490   0.738   4.805  1.8764 -2.2861 -0.9871
  972MOL0     H28279  -2.535   0.761   4.974 -1.8812 -0.1511 -1.5415
  972MOL0     H28280  -2.529   0.519   5.013 -2.0105 -0.2056 -0.3073
  972MOL0     H28281  -2.504   0.493   4.850 -0.7535  0.1445 -0.3495
  972MOL0     H28282  -2.717   0.693   4.893 -0.0255 -0.0533 -2.2175
  972MOL0     H28283  -2.741   0.546   4.798  0.4640 -1.5837  1.0761
  972MOL0     H28284  -2.745   0.566   5.103 -1.7442  1.9724 -0.7189
  972MOL0     H28285  -2.771   0.418   5.001  0.6372  0.3806  0.7727
  972MOL0     H28286  -2.009   0.874   5.398  0.0549  0.1377 -0.9758
  972MOL0     H28287  -1.892   0.944   5.598  3.5174  0.4136 -0.2918
  972MOL0     H28288  -1.644   0.752   5.996 -1.9237  0.4361  2.4730
  972MOL0     H28289  -1.600   0.830   6.223  1.4611 -2.8100 -1.7811
  972MOL0     H28290  -0.550   1.569   7.691 -0.1413  0.2428 -0.6142
  972MOL0     H28291  -0.385   1.611   7.856 -0.0841 -2.4426 -1.7441
  972MOL0     H28292   0.181   1.996   7.764  1.2987 -0.7485  0.0589
  972MOL0     H28293   0.286   2.114   7.963  1.8589 -1.1394  0.5936
  972MOL0     H28294   0.383   2.023   8.337  0.1408  1.0813 -1.4591
  972MOL0     H28295   0.253   1.909   8.344 -3.8759  0.4730  0.1380
  972MOL0     H28296   0.097   2.109   8.426  0.1149  1.2361  0.1351
  972MOL0     H28297   0.206   2.036   8.537  0.4980  1.4281  0.6927
  972MOL0     H28298   0.302   2.278   8.400 -0.3187 -1.6798 -0.3845
  972MOL0     H28299   0.365   2.197   8.543  0.3705 -2.4032 -2.2238
  972MOL0     H28300   0.100   2.338   8.534  1.0095  1.5996 -0.0290
  972MOL0     H28301   0.175   2.228   8.657  1.2313 -0.5870 -1.1119
  972MOL0     H28302   0.391   2.580   8.741 -1.6688  1.8581 -1.1792
  972MOL0     H28303   0.027   1.871   8.229 -2.7931 -0.0836 -1.4396
  972MOL0     H28304  -0.076   1.778   8.037  0.0281  0.9785 -1.0862
  973MOL0     O28305   1.307   9.227  10.549 -0.0571  0.0335  0.4620
  973MOL0     C28306   1.204   9.189  10.495  0.8128 -0.6427 -0.0523
  973MOL0     O28307   1.103   9.118  10.564  0.1227  0.3067  0.6312
  973MOL0     C28308   1.118   9.091  10.697  0.7481  0.5661  0.4086
  973MOL0     C28309   1.159   8.961  10.738  0.6521 -0.8911 -0.0444
  973MOL0     C28310   1.151   8.931  10.875 -0.2004  0.5593 -0.5875
  973MOL0     C28311   1.089   9.025  10.965 -0.8307 -0.5735  1.3337
  973MOL0     O28312   1.055   8.985  11.087  0.0851  0.1105  0.0355
  973MOL0     C28313   0.916   8.966  11.100  0.0332  0.1868 -0.4013
  973MOL0     C28314   0.894   8.943  11.258  0.2787 -0.3356  0.3591
  973MOL0     C28315   0.743   8.912  11.286  0.2362 -0.3577  0.6505
  973MOL0     C28316   0.709   8.936  11.429 -0.1212 -0.3804 -0.1770
  973MOL0     C28317   0.587   8.861  11.456  0.4012  0.1482  0.0025
  973MOL0     C28318   0.453   8.887  11.382 -0.4431 -0.4598 -0.7651
  973MOL0     C28319   0.426   9.031  11.355  0.7889 -0.0065 -0.0539
  973MOL0     C28320   0.434   9.130  11.471  0.1066 -0.6961 -0.2711
  973MOL0     N28321   0.415   9.272  11.437 -0.2596  0.0678 -0.0724
  973MOL0     C28322   0.467   9.353  11.338 -0.5800 -0.0526 -0.7095
  973MOL0     C28323   0.395   9.463  11.331 -0.5554  0.2600  0.4120
  973MOL0     C28324   0.403   9.580  11.242  0.1299  0.1815 -0.7785
  973MOL0     C28325   0.539   9.643  11.214  0.4859 -0.3499 -0.1368
  973MOL0     C28326   0.527   9.768  11.134 -0.7339 -0.2398  0.4476
  973MOL0     C28327   0.657   9.846  11.123  0.3204 -0.5448 -0.3274
  973MOL0     O28328   0.677   9.922  10.999  0.6394 -0.1348 -0.2015
  973MOL0     C28329   0.638  10.050  11.001  0.5668 -0.4907  0.0824
  973MOL0     C28330   0.736  10.136  10.949  0.6460 -0.8712  0.4292
  973MOL0     C28331   0.723  10.273  10.949 -0.8323  0.0483 -0.4418
  973MOL0     C28332   0.605  10.325  10.980  0.0908  0.1329  0.1203
  973MOL0     C28333   0.575  10.470  10.982 -0.2509  0.4167 -0.9933
  973MOL0     O28334   0.449  10.499  11.001  0.2251 -0.2621  0.3374
  973MOL0     C28335   0.399  10.621  11.006  0.1756 -0.4412 -0.2901
  973MOL0     C28336   0.273  10.635  10.945  0.2111 -0.2779 -0.2468
  973MOL0     C28337   0.217  10.764  10.933  0.1857 -0.0133  1.0279
  973MOL0     C28338   0.286  10.878  10.964  0.5589 -0.7053 -0.4193
  973MOL0     O28339   0.251  11.005  10.953 -0.4784 -1.1373  0.7197
  973MOL0     C28340   0.130  11.040  10.892  0.4858  0.2937  0.0300
  973MOL0     C28341   0.093  11.180  10.942  0.0349  0.2219 -0.1600
  973MOL0     C28342   0.186  11.293  10.902 -0.5069 -0.1742 -0.6324
  973MOL0     C28343   0.127  11.432  10.920 -0.4857  1.1106 -0.1371
  973MOL0     C28344   0.225  11.548  10.880 -0.6954 -0.5334 -0.6839
  973MOL0     C28345   0.256  11.552  10.727 -0.4704  0.1368 -0.0311
  973MOL0     C28346   0.139  11.590  10.636  0.6353 -0.1592  0.1156
  973MOL0     C28347   0.045  11.469  10.590 -0.2316  0.0158 -0.0435
  973MOL0    Cl28348   0.008  11.488  10.405  0.2718 -0.0799 -0.3470
  973MOL0     C28349   0.410  10.861  11.020 -0.8915  0.5316  0.6900
  973MOL0     C28350   0.471  10.734  11.036 -0.4405  0.1263  0.0953
  973MOL0     O28351   0.665  10.544  10.948  0.0430 -0.1972  0.3975
  973MOL0     C28352   0.500  10.237  11.013 -0.7581 -0.3722  0.6505
  973MOL0     C28353   0.513  10.095  11.032  0.0045  0.4190  0.6793
  973MOL0     N28354   0.296   9.452  11.426  0.5392  0.4270 -0.5598
  973MOL0     N28355   0.317   9.346  11.493  0.0419 -0.3000 -0.2560
  973MOL0     C28356   1.044   9.149  10.913  0.0977  0.8526 -1.3069
  973MOL0     C28357   1.056   9.178  10.780  0.4186 -0.5698  0.3097
  973MOL0     C28358   1.181   9.216  10.351 -0.1528  0.1223 -0.2631
  973MOL0     C28359   1.058   9.167  10.290  0.4340 -0.7906 -0.4433
  973MOL0     C28360   1.041   9.180  10.155 -0.0747  0.1740 -0.7271
  973MOL0     C28361   1.139   9.220  10.070  0.0061 -0.7984  0.1137
  973MOL0     O28362   1.103   9.225   9.939  0.0709 -0.3216 -0.0050
  973MOL0     C28363   1.048   9.348   9.895  0.8245 -0.1103 -0.6623
  973MOL0     C28364   1.067   9.363   9.740  0.5218  0.0409 -0.9007
  973MOL0     C28365   1.218   9.380   9.714  0.8222  0.5162 -0.3144
  973MOL0     C28366   1.256   9.311   9.590 -0.4993  1.2806 -0.2071
  973MOL0     C28367   1.400   9.297   9.577 -0.1570 -0.2711 -0.9564
  973MOL0     C28368   1.509   9.297   9.536 -0.6583 -0.0653  0.2846
  973MOL0     C28369   1.256   9.275  10.116  0.1794 -0.1316 -0.6556
  973MOL0     C28370   1.280   9.273  10.262  0.8605 -0.1880 -1.3185
  973MOL0     H28371   1.223   8.904  10.671  1.0580  0.2689 -0.6701
  973MOL0     H28372   1.197   8.839  10.911  0.1026  1.4518  1.4266
  973MOL0     H28373   0.881   8.873  11.054 -1.3078 -0.8730  2.5202
  973MOL0     H28374   0.857   9.053  11.070  2.7969  1.8251 -1.4887
  973MOL0     H28375   0.918   9.037  11.307 -0.1655  0.9260 -1.6953
  973MOL0     H28376   0.943   8.856  11.302  1.2441 -0.5215 -1.0030
  973MOL0     H28377   0.725   8.811  11.246 -1.7655 -0.7635  2.4075
  973MOL0     H28378   0.677   8.986  11.239 -1.4855 -1.9050  0.5036
  973MOL0     H28379   0.795   8.895  11.484  2.6668  3.0601 -1.6147
  973MOL0     H28380   0.706   9.045  11.439 -2.7852 -0.4984  1.2552
  973MOL0     H28381   0.555   8.871  11.560  1.2730  1.7057  0.1639
  973MOL0     H28382   0.616   8.757  11.442  0.9662  0.4982 -1.6020
  973MOL0     H28383   0.381   8.839  11.449  1.0239 -0.7713  0.6431
  973MOL0     H28384   0.469   8.840  11.284 -0.5996  2.6633 -2.4053
  973MOL0     H28385   0.491   9.068  11.276  0.9540  0.4553  0.2883
  973MOL0     H28386   0.323   9.039  11.318 -0.4153 -3.5620  2.0079
  973MOL0     H28387   0.526   9.116  11.528 -0.4527  3.7087  2.1305
  973MOL0     H28388   0.350   9.109  11.537 -1.1135 -0.9493 -1.8534
  973MOL0     H28389   0.558   9.328  11.285 -0.7558 -1.1338 -0.5389
  973MOL0     H28390   0.333   9.659  11.271 -1.5151 -2.0044  1.7349
  973MOL0     H28391   0.355   9.541  11.151 -0.5915  0.4341 -0.5157
  973MOL0     H28392   0.599   9.568  11.161  4.6285  1.2842  1.8252
  973MOL0     H28393   0.593   9.659  11.308 -0.3656 -0.8065  0.4346
  973MOL0     H28394   0.499   9.739  11.033 -0.8837 -2.8169  1.1467
  973MOL0     H28395   0.455   9.837  11.179  0.4563 -0.0621  2.2276
  973MOL0     H28396   0.743   9.778  11.132  0.3300 -0.4524  0.2950
  973MOL0     H28397   0.662   9.904  11.215  0.5977  1.9033 -1.8061
  973MOL0     H28398   0.836  10.093  10.945  1.2647  0.1752  2.8325
  973MOL0     H28399   0.813  10.327  10.920 -2.0577  2.0543 -0.7237
  973MOL0     H28400   0.214  10.555  10.902 -4.8056  2.5769  0.5226
  973MOL0     H28401   0.116  10.766  10.892  0.5595  0.1829  0.0944
  973MOL0     H28402   0.050  10.972  10.922 -0.3260  1.9362  1.7920
  973MOL0     H28403   0.140  11.032  10.783  1.6015 -0.8714  0.2061
  973MOL0     H28404   0.084  11.172  11.051  2.7065 -1.9468 -0.0131
  973MOL0     H28405  -0.003  11.214  10.903  1.8966  4.8193 -1.4410
  973MOL0     H28406   0.210  11.286  10.796 -1.1767  1.3977 -0.9093
  973MOL0     H28407   0.271  11.292  10.971 -0.6887 -0.4427 -0.4091
  973MOL0     H28408   0.034  11.437  10.863 -0.6841 -3.3384 -0.5816
  973MOL0     H28409   0.098  11.439  11.026 -0.9279 -1.7075  0.0353
  973MOL0     H28410   0.309  11.549  10.951  1.2516 -0.6990 -2.8702
  973MOL0     H28411   0.176  11.643  10.904  2.7292  0.8809  1.6156
  973MOL0     H28412   0.307  11.461  10.694  1.9068  1.7008 -0.9905
  973MOL0     H28413   0.335  11.627  10.728 -0.3404  0.0655  2.8346
  973MOL0     H28414   0.069  11.668  10.666 -0.3742 -1.0066  0.0175
  973MOL0     H28415   0.191  11.634  10.550  1.1064 -0.6369  0.1528
  973MOL0     H28416  -0.046  11.473  10.650 -1.1266 -2.8211 -1.0350
  973MOL0     H28417   0.088  11.369  10.604 -2.3957 -1.4943 -2.9633
  973MOL0     H28418   0.483  10.935  11.049  0.9678 -0.5015 -1.0691
  973MOL0     H28419   0.578  10.741  11.053 -0.2321  0.1193 -1.1513
  973MOL0     H28420   0.396  10.264  11.023 -0.9065 -0.4976 -0.4351
  973MOL0     H28421   0.428  10.029  11.042  1.1174 -1.3071 -0.6170
  973MOL0     H28422   0.991   9.216  10.979  0.2910  0.3496 -0.6364
  973MOL0     H28423   1.026   9.269  10.729 -0.9900 -2.4330 -2.5079
  973MOL0     H28424   0.985   9.115  10.352  2.7770  0.3994  3.7094
  973MOL0     H28425   0.945   9.148  10.115 -2.0627 -0.3744  3.9168
  973MOL0     H28426   1.095   9.428   9.953 -0.1950 -0.9763  1.4833
  973MOL0     H28427   0.945   9.362   9.930  2.3475  1.3577  3.9355
  973MOL0     H28428   1.017   9.283   9.685 -1.4278  1.6074 -1.5301
  973MOL0     H28429   1.009   9.447   9.701 -1.7162 -1.9531 -2.1432
  973MOL0     H28430   1.275   9.341   9.799 -0.3585  0.6665  0.5725
  973MOL0     H28431   1.245   9.485   9.701 -0.4277  1.1269  1.7213
  973MOL0     H28432   1.235   9.204   9.597 -0.0098  1.2813  1.6201
  973MOL0     H28433   1.206   9.356   9.503  1.0092 -0.3251 -1.9814
  973MOL0     H28434   1.597   9.301   9.475 -2.3542 -1.4175 -2.4483
  973MOL0     H28435   1.332   9.327  10.058  0.5843 -0.4285 -0.3966
  973MOL0     H28436   1.372   9.315  10.301 -0.2198  3.2522 -2.1395
  974MOL0     O28437   6.457   6.234   4.986 -0.4290 -0.7741  0.6766
  974MOL0     C28438   6.498   6.342   4.936  0.6572 -0.2157  0.1936
  974MOL0     O28439   6.428   6.463   4.937  0.1859 -0.1847  0.1914
  974MOL0     C28440   6.308   6.488   5.002  0.3181 -0.2052  0.0015
  974MOL0     C28441   6.248   6.405   5.100  0.0214 -0.1745 -0.2865
  974MOL0     C28442   6.130   6.446   5.168  0.7189 -0.5236 -0.0138
  974MOL0     C28443   6.051   6.552   5.127  1.2439 -0.3066 -0.1480
  974MOL0     O28444   5.941   6.573   5.193  0.7977 -0.1739  0.0871
  974MOL0     C28445   5.849   6.682   5.164 -0.0296 -0.2790  0.6643
  974MOL0     C28446   5.894   6.811   5.211 -0.6673 -0.9580 -0.1510
  974MOL0     C28447   5.782   6.913   5.231 -0.8745 -0.1796  0.4203
  974MOL0     C28448   5.819   7.054   5.259 -0.0319  0.1166  0.2418
  974MOL0     C28449   5.693   7.145   5.252  0.4625 -0.2036  0.3849
  974MOL0     C28450   5.693   7.259   5.343  0.0152  0.1602  0.4737
  974MOL0     C28451   5.566   7.331   5.371 -0.3050 -0.1934  0.1969
  974MOL0     C28452   5.491   7.358   5.245  0.2520  0.2495  1.0046
  974MOL0     N28453   5.355   7.420   5.260 -0.3596  0.3818 -0.7122
  974MOL0     C28454   5.266   7.379   5.354 -0.0118  0.9101  0.2968
  974MOL0     C28455   5.151   7.443   5.331  0.0715  0.0846  0.1695
  974MOL0     C28456   5.024   7.431   5.407 -0.6832  0.1784  0.2219
  974MOL0     C28457   4.963   7.295   5.379  0.2017 -0.4231  0.2232
  974MOL0     C28458   4.810   7.308   5.393 -0.4890  0.6759 -0.7206
  974MOL0     C28459   4.746   7.168   5.405  0.2901 -0.1046  0.3620
  974MOL0     O28460   4.610   7.174   5.461 -0.8288 -0.1948  0.3237
  974MOL0     C28461   4.532   7.064   5.480 -0.1376 -0.5297 -0.0326
  974MOL0     C28462   4.568   6.932   5.457 -0.2430  0.3962  0.7365
  974MOL0     C28463   4.473   6.826   5.462  0.5461 -0.8105  0.1377
  974MOL0     C28464   4.340   6.858   5.493 -1.5198  0.3776  0.0867
  974MOL0     C28465   4.248   6.764   5.488 -0.1556 -0.0422  0.0460
  974MOL0     O28466   4.119   6.809   5.481  0.4452 -0.0360 -0.1511
  974MOL0     C28467   4.031   6.752   5.392  0.2221  0.6891 -1.0518
  974MOL0     C28468   3.943   6.653   5.448 -0.7925 -0.9541 -0.1176
  974MOL0     C28469   3.846   6.595   5.366  0.0622  0.4103 -0.5379
  974MOL0     C28470   3.840   6.623   5.232  0.2583  0.4768  0.6937
  974MOL0     O28471   3.747   6.589   5.136 -0.3633 -0.9407  0.6343
  974MOL0     C28472   3.613   6.611   5.188 -0.2566  0.0051 -0.2873
  974MOL0     C28473   3.508   6.608   5.073  0.1337  0.9187 -0.1238
  974MOL0     C28474   3.509   6.751   5.026 -0.0431  0.4718  0.3339
  974MOL0     C28475   3.416   6.752   4.902  0.3220 -0.2901 -0.5186
  974MOL0     C28476   3.273   6.705   4.936 -0.3127 -0.4651  0.8424
  974MOL0     C28477   3.180   6.747   4.821  0.3481 -1.0843 -0.0451
  974MOL0     C28478   3.028   6.784   4.847  0.3925  0.1168 -0.0276
  974MOL0     C28479   2.945   6.672   4.908 -0.0855  0.0067  1.0219
  974MOL0    Cl28480   2.927   6.531   4.790 -0.0946  0.1076 -0.1689
  974MOL0     C28481   3.934   6.705   5.170  0.6676  0.3156 -0.2603
  974MOL0     C28482   4.030   6.774   5.258  0.8488 -0.2209 -0.2506
  974MOL0     O28483   4.276   6.646   5.469  0.5250  0.0342  0.5752
  974MOL0     C28484   4.306   6.993   5.506 -1.0213 -0.7999  0.3277
  974MOL0     C28485   4.403   7.097   5.503  0.1809  0.4235 -0.8461
  974MOL0     N28486   5.179   7.528   5.218 -0.6778 -1.0519 -0.0179
  974MOL0     N28487   5.302   7.519   5.183 -0.2540 -0.3749 -0.3804
  974MOL0     C28488   6.110   6.632   5.027  0.0920 -0.4383 -0.3633
  974MOL0     C28489   6.241   6.607   4.970  0.1302  0.4981 -0.6196
  974MOL0     C28490   6.615   6.325   4.840  1.3187  0.2806  0.9532
  974MOL0     C28491   6.672   6.436   4.772  0.0267  0.8519  0.5509
  974MOL0     C28492   6.775   6.417   4.673 -0.3181  0.0820 -0.1876
  974MOL0     C28493   6.823   6.293   4.635 -0.2073 -0.3743 -0.7248
  974MOL0     O28494   6.913   6.292   4.536 -0.1458  0.0725 -0.2278
  974MOL0     C28495   6.998   6.183   4.524 -0.5515 -0.1826 -0.0947
  974MOL0     C28496   7.096   6.204   4.408  0.3365 -0.6555 -0.2816
  974MOL0     C28497   7.201   6.301   4.454 -0.5653  0.0153 -0.7180
  974MOL0     C28498   7.332   6.287   4.373 -0.5671  0.0290 -0.1694
  974MOL0     C28499   7.326   6.294   4.219 -0.5074 -0.7059 -1.2453
  974MOL0     C28500   7.309   6.302   4.101 -0.5325  0.5863  0.2375
  974MOL0     C28501   6.774   6.182   4.712  0.3868  0.2668  0.4844
  974MOL0     C28502   6.669   6.199   4.804  1.3577 -1.0461 -0.2954
  974MOL0     H28503   6.287   6.307   5.126 -0.4916 -0.7316 -1.5417
  974MOL0     H28504   6.087   6.386   5.247 -0.7147 -0.6103 -0.8355
  974MOL0     H28505   5.754   6.660   5.214 -0.8642  2.0199  0.2020
  974MOL0     H28506   5.833   6.689   5.056 -0.6365  0.6311  0.8004
  974MOL0     H28507   5.959   6.858   5.136  1.5171 -1.2633  1.4418
  974MOL0     H28508   5.951   6.803   5.304  0.0145  3.2527  0.0048
  974MOL0     H28509   5.710   6.885   5.308 -0.1094  1.5612  1.8384
  974MOL0     H28510   5.711   6.917   5.147 -2.7292 -1.4544  1.8496
  974MOL0     H28511   5.854   7.071   5.361  1.2575  0.0304 -0.1752
  974MOL0     H28512   5.900   7.082   5.191 -1.8724 -1.2881 -2.7653
  974MOL0     H28513   5.612   7.078   5.281  0.9719 -1.1068 -0.2431
  974MOL0     H28514   5.686   7.171   5.146  2.9333 -0.8134  0.0058
  974MOL0     H28515   5.762   7.319   5.283  1.1133  0.8896  2.3784
  974MOL0     H28516   5.742   7.238   5.438  0.9553 -2.1963 -0.4575
  974MOL0     H28517   5.513   7.263   5.438  0.0301  0.5052  1.1945
  974MOL0     H28518   5.588   7.420   5.430  0.6821  0.8601 -1.6370
  974MOL0     H28519   5.468   7.264   5.195  5.0007 -0.9814  0.7558
  974MOL0     H28520   5.554   7.417   5.177  0.2273 -0.0368  0.7329
  974MOL0     H28521   5.282   7.299   5.425 -1.3692 -2.1698 -2.6181
  974MOL0     H28522   4.956   7.512   5.381 -0.4575  0.6671  1.1053
  974MOL0     H28523   5.040   7.427   5.516  1.5116  0.3888 -0.0445
  974MOL0     H28524   5.009   7.229   5.453  0.7589  3.2080  3.4235
  974MOL0     H28525   4.994   7.265   5.279  0.6448 -2.8238  1.0291
  974MOL0     H28526   4.775   7.360   5.483  2.4721  3.3284 -0.9043
  974MOL0     H28527   4.768   7.353   5.303 -1.4585 -0.1620 -0.7014
  974MOL0     H28528   4.808   7.110   5.474 -2.3904  1.1177  4.1142
  974MOL0     H28529   4.746   7.117   5.308  1.6828 -2.8454  1.6803
  974MOL0     H28530   4.664   6.898   5.419 -1.0934 -0.6890 -0.5431
  974MOL0     H28531   4.493   6.723   5.436  0.2631 -0.3914 -1.8309
  974MOL0     H28532   3.929   6.631   5.553 -2.3013  0.5055  0.0252
  974MOL0     H28533   3.779   6.525   5.414  1.1732 -0.0072  0.4606
  974MOL0     H28534   3.614   6.707   5.239 -0.1186  0.6318 -1.4462
  974MOL0     H28535   3.595   6.539   5.268 -1.7203  2.5184  1.7894
  974MOL0     H28536   3.408   6.580   5.109  0.6909  1.6738  2.2169
  974MOL0     H28537   3.533   6.533   4.997 -2.7937  0.1250 -0.4317
  974MOL0     H28538   3.608   6.795   5.017  0.7613 -1.6857 -3.7566
  974MOL0     H28539   3.465   6.802   5.112  1.2041 -1.5948  2.3031
  974MOL0     H28540   3.422   6.846   4.845 -2.1907  0.8969  0.9876
  974MOL0     H28541   3.453   6.674   4.835  2.5915  0.2439  0.0372
  974MOL0     H28542   3.238   6.751   5.029 -2.0753  0.0867 -0.0580
  974MOL0     H28543   3.276   6.596   4.940  0.9752 -0.4098  2.1280
  974MOL0     H28544   3.194   6.676   4.739  1.2819  1.4456 -2.2333
  974MOL0     H28545   3.218   6.842   4.782 -1.3816  0.1528  1.1103
  974MOL0     H28546   3.011   6.866   4.918  0.0393 -1.6360  2.0160
  974MOL0     H28547   2.983   6.817   4.753 -1.8611  2.5082  1.7376
  974MOL0     H28548   2.847   6.711   4.936  0.2215  2.0337 -0.4935
  974MOL0     H28549   2.991   6.642   5.002  0.8291 -1.9491  0.0089
  974MOL0     H28550   3.918   6.724   5.065 -0.2441 -2.0139 -0.5853
  974MOL0     H28551   4.096   6.850   5.218  1.3128 -0.5939 -0.1944
  974MOL0     H28552   4.208   7.039   5.515  0.0399  1.2709  2.8568
  974MOL0     H28553   4.368   7.200   5.497 -3.0791 -0.6190 -1.7646
  974MOL0     H28554   6.061   6.725   4.998  0.0433 -1.3945 -3.7517
  974MOL0     H28555   6.261   6.681   4.893 -0.0072  0.1516 -0.9972
  974MOL0     H28556   6.620   6.529   4.791  0.9247  0.8563  3.6606
  974MOL0     H28557   6.807   6.507   4.621 -2.5473  0.4438 -1.0446
  974MOL0     H28558   6.924   6.107   4.498 -0.9416 -0.2334  1.1037
  974MOL0     H28559   7.049   6.151   4.615  1.0712 -0.7257 -1.1476
  974MOL0     H28560   7.136   6.109   4.370 -1.0730 -0.3504 -2.7086
  974MOL0     H28561   7.037   6.252   4.330  0.8232  0.5629  0.0799
  974MOL0     H28562   7.219   6.293   4.562 -1.8217  0.5085 -0.4559
  974MOL0     H28563   7.160   6.401   4.439  2.7027  1.1208 -3.4261
  974MOL0     H28564   7.403   6.365   4.401  0.2686 -0.7893  0.0598
  974MOL0     H28565   7.383   6.193   4.398  1.2677  0.6563 -1.3442
  974MOL0     H28566   7.292   6.318   3.996  0.4331 -0.0408 -0.0330
  974MOL0     H28567   6.812   6.082   4.693 -0.6681 -0.3212  1.3324
  974MOL0     H28568   6.627   6.109   4.848  2.0890  0.7133  4.5448
  975MOL0     O28569   7.581   2.774   8.803  0.2767  0.4190 -0.1269
  975MOL0     C28570   7.552   2.690   8.898  0.3204  0.8262  0.6764
  975MOL0     O28571   7.639   2.642   8.993  0.7334 -0.1850 -0.2532
  975MOL0     C28572   7.757   2.698   9.000 -0.7719  0.4876 -1.1719
  975MOL0     C28573   7.866   2.615   8.977 -0.1185 -1.0393 -0.4682
  975MOL0     C28574   8.001   2.654   9.007  1.3160 -0.3945  0.6168
  975MOL0     C28575   8.025   2.791   9.053 -0.3569 -0.7288 -0.3188
  975MOL0     O28576   8.144   2.834   9.109 -0.7977 -0.8737 -1.0506
  975MOL0     C28577   8.259   2.753   9.117 -0.3490  0.2663  0.5759
  975MOL0     C28578   8.352   2.810   9.226 -0.6370  0.3408  0.0541
  975MOL0     C28579   8.471   2.706   9.256 -0.0898 -1.0733  0.4050
  975MOL0     C28580   8.559   2.700   9.136 -0.0916 -0.6648  0.6347
  975MOL0     C28581   8.700   2.641   9.177  0.0675  0.2480  0.5875
  975MOL0     C28582   8.812   2.752   9.184  0.1661  0.9354  0.7750
  975MOL0     C28583   8.924   2.708   9.276 -0.1582  0.1480 -0.1948
  975MOL0     C28584   9.035   2.816   9.273  0.3100  0.0443 -0.8882
  975MOL0     N28585   9.125   2.815   9.146  1.2643  0.4639  0.7278
  975MOL0     C28586   9.121   2.925   9.059  0.2003  0.1077 -0.1627
  975MOL0     C28587   9.201   2.886   8.957  0.1438  0.8644 -0.6982
  975MOL0     C28588   9.236   2.966   8.833 -0.9396  0.2273  0.2723
  975MOL0     C28589   9.277   2.884   8.714 -0.4286  0.5038  1.2044
  975MOL0     C28590   9.344   2.963   8.601  0.7868 -0.7152  0.4623
  975MOL0     C28591   9.323   2.891   8.468  0.0831  0.0379  0.6500
  975MOL0     O28592   9.415   2.937   8.362 -0.9322  0.6613  0.9020
  975MOL0     C28593   9.409   2.868   8.239  0.3717 -0.6840  0.9648
  975MOL0     C28594   9.342   2.759   8.198 -0.4597  0.8354 -1.9375
  975MOL0     C28595   9.355   2.685   8.084  0.3961 -0.1764  0.4204
  975MOL0     C28596   9.435   2.736   7.973 -1.3408  1.0028  0.0102
  975MOL0     C28597   9.427   2.682   7.839  0.0524 -0.0201  1.1079
  975MOL0     O28598   9.483   2.758   7.736  0.7541  0.5797  0.1453
  975MOL0     C28599   9.464   2.703   7.613  0.8501  0.1557 -0.9351
  975MOL0     C28600   9.350   2.742   7.551 -0.2961  0.4236  0.2240
  975MOL0     C28601   9.327   2.711   7.411 -0.5154 -0.5328  0.0948
  975MOL0     C28602   9.416   2.621   7.344 -0.2152  0.4904 -0.5541
  975MOL0     O28603   9.388   2.569   7.218  0.2775  0.1201  0.1952
  975MOL0     C28604   9.451   2.622   7.101 -0.2638  0.0343  0.0444
  975MOL0     C28605   9.354   2.664   6.993 -0.4110 -0.2739 -0.0361
  975MOL0     C28606   9.252   2.774   7.037  0.3412  0.6218 -0.2038
  975MOL0     C28607   9.146   2.816   6.933 -0.3098 -0.2676  0.3397
  975MOL0     C28608   9.069   2.941   6.974 -0.5235  0.0101 -0.1177
  975MOL0     C28609   8.998   3.004   6.848 -0.0098 -0.3325  0.8481
  975MOL0     C28610   8.918   3.130   6.870 -0.3062 -0.1737  0.1019
  975MOL0     C28611   8.909   3.226   6.744 -0.0960 -0.2110 -0.2623
  975MOL0    Cl28612   8.808   3.379   6.776  0.1628  0.0745 -0.3839
  975MOL0     C28613   9.529   2.584   7.414 -1.1344  0.2127  0.0134
  975MOL0     C28614   9.560   2.628   7.550 -0.0475 -0.4786 -0.3227
  975MOL0     O28615   9.373   2.572   7.822  0.5851  0.5741 -0.5332
  975MOL0     C28616   9.504   2.854   8.008  0.4840  0.5918  0.2471
  975MOL0     C28617   9.502   2.909   8.134 -0.1196  0.1135  0.5905
  975MOL0     N28618   9.237   2.754   8.974  0.0486  0.3148  0.6031
  975MOL0     N28619   9.180   2.711   9.085 -1.1079  0.2781  0.6317
  975MOL0     C28620   7.915   2.881   9.063  0.2545 -0.6190 -0.6161
  975MOL0     C28621   7.780   2.831   9.038 -1.1407  0.5155 -1.1418
  975MOL0     C28622   7.413   2.655   8.929 -0.2858 -0.0606 -0.7380
  975MOL0     C28623   7.309   2.726   8.870  0.1117  0.1757 -0.0823
  975MOL0     C28624   7.178   2.697   8.895  0.1742 -0.0286  0.4281
  975MOL0     C28625   7.144   2.605   8.986 -0.0176 -0.3214 -0.9744
  975MOL0     O28626   7.008   2.589   9.009 -0.3898 -0.1071  0.1002
  975MOL0     C28627   6.965   2.486   9.106  0.1407 -0.3706  0.0393
  975MOL0     C28628   6.951   2.343   9.047  0.4855 -0.4971 -0.6914
  975MOL0     C28629   6.853   2.328   8.929  0.6130 -0.0504  0.1953
  975MOL0     C28630   6.716   2.260   8.972  0.1180 -0.3827 -0.5163
  975MOL0     C28631   6.658   2.218   8.840  0.9437  0.5407  0.2924
  975MOL0     C28632   6.600   2.191   8.736  0.0832 -0.8260 -0.4861
  975MOL0     C28633   7.239   2.531   9.056 -0.4827 -0.7650 -1.1171
  975MOL0     C28634   7.378   2.554   9.021 -0.2585 -0.5927  0.5014
  975MOL0     H28635   7.849   2.513   8.943 -0.1239 -2.4018  3.1688
  975MOL0     H28636   8.082   2.585   8.986 -0.4246 -1.9459 -1.4632
  975MOL0     H28637   8.306   2.742   9.019 -2.1962  2.9951 -0.7360
  975MOL0     H28638   8.240   2.652   9.155  0.8233 -0.1626  0.0771
  975MOL0     H28639   8.282   2.825   9.309  0.1722 -1.2054  1.0568
  975MOL0     H28640   8.394   2.908   9.200 -0.1041 -0.2085 -1.1935
  975MOL0     H28641   8.432   2.606   9.280 -0.2633 -1.6419 -1.9036
  975MOL0     H28642   8.534   2.725   9.342 -0.6908 -2.9770  1.3245
  975MOL0     H28643   8.509   2.621   9.080 -1.1925 -0.7752  1.7245
  975MOL0     H28644   8.569   2.793   9.079  0.4618 -0.9620  0.2381
  975MOL0     H28645   8.731   2.557   9.113  0.5972 -0.0131  1.1837
  975MOL0     H28646   8.697   2.600   9.278  0.8453  0.6790  0.7889
  975MOL0     H28647   8.770   2.851   9.203  0.2308  1.2352 -0.5464
  975MOL0     H28648   8.847   2.757   9.081 -0.8429  1.2580  0.4328
  975MOL0     H28649   8.904   2.717   9.383  0.2128 -1.5462  0.0455
  975MOL0     H28650   8.964   2.609   9.254  1.5789  0.8232 -0.2377
  975MOL0     H28651   9.093   2.807   9.365  0.1073  0.4854 -0.7144
  975MOL0     H28652   8.970   2.904   9.275 -0.1444 -0.2913  1.4092
  975MOL0     H28653   9.075   3.023   9.065  0.4551  0.3226 -1.4309
  975MOL0     H28654   9.323   3.026   8.861 -2.5318  1.4845  2.8916
  975MOL0     H28655   9.156   3.035   8.803 -0.7341  0.9227  1.2713
  975MOL0     H28656   9.191   2.839   8.663  0.3321  1.8268 -1.4638
  975MOL0     H28657   9.346   2.807   8.748  1.7760  1.4570 -0.8415
  975MOL0     H28658   9.300   3.062   8.594 -0.4152 -1.2352  0.4146
  975MOL0     H28659   9.453   2.964   8.612  1.3015 -1.2645 -3.2376
  975MOL0     H28660   9.218   2.904   8.438  0.4122  3.0549  0.5545
  975MOL0     H28661   9.331   2.785   8.495 -0.1076  0.1866  1.2929
  975MOL0     H28662   9.279   2.716   8.275  0.9049  1.6043 -0.3163
  975MOL0     H28663   9.283   2.604   8.075 -2.6875  2.2234  1.4761
  975MOL0     H28664   9.280   2.808   7.601  0.9572  3.2575 -1.4899
  975MOL0     H28665   9.239   2.737   7.354  0.7124 -0.5719 -1.9033
  975MOL0     H28666   9.517   2.544   7.061 -0.0410  0.5050 -0.5263
  975MOL0     H28667   9.503   2.707   7.146  0.3658  0.1595 -0.8913
  975MOL0     H28668   9.288   2.580   6.968 -0.6851  0.0560 -0.4321
  975MOL0     H28669   9.413   2.695   6.907 -0.9951 -0.7752 -0.6275
  975MOL0     H28670   9.303   2.864   7.073 -0.2921  0.3269  1.5462
  975MOL0     H28671   9.200   2.736   7.126  4.3898 -0.3894  1.9858
  975MOL0     H28672   9.201   2.826   6.839 -0.2325  0.4880  0.4655
  975MOL0     H28673   9.077   2.731   6.932  1.0298 -1.5102  2.9094
  975MOL0     H28674   9.134   3.004   7.036 -0.2709 -1.8723  1.6433
  975MOL0     H28675   8.983   2.910   7.034 -2.3399  2.4740 -1.2527
  975MOL0     H28676   8.939   2.929   6.795  0.0789  0.7307 -0.8431
  975MOL0     H28677   9.084   3.038   6.790  0.4191 -1.3075  0.8967
  975MOL0     H28678   8.814   3.103   6.892 -0.8331  0.1039 -1.8364
  975MOL0     H28679   8.968   3.182   6.952 -2.1950  1.4329  0.3310
  975MOL0     H28680   8.867   3.172   6.660  0.8388 -0.3084 -0.6850
  975MOL0     H28681   9.007   3.254   6.703 -0.6341 -0.3361 -1.6942
  975MOL0     H28682   9.604   2.523   7.364  1.4439  2.5935  0.7007
  975MOL0     H28683   9.655   2.596   7.591  0.4719 -1.2541 -2.0269
  975MOL0     H28684   9.564   2.907   7.934 -0.4770 -0.0643 -1.0516
  975MOL0     H28685   9.563   2.997   8.154  1.5169 -0.6202 -0.8592
  975MOL0     H28686   7.934   2.983   9.094 -0.5543 -0.8567  0.7220
  975MOL0     H28687   7.698   2.897   9.066 -1.2767  0.9570 -2.5022
  975MOL0     H28688   7.329   2.813   8.809  0.1585  0.5038  0.3935
  975MOL0     H28689   7.094   2.754   8.856  0.5378 -0.3540 -0.8417
  975MOL0     H28690   6.868   2.525   9.138 -0.5070 -1.1795 -0.9179
  975MOL0     H28691   7.029   2.489   9.195  0.0842  1.9231  0.0792
  975MOL0     H28692   7.057   2.327   9.025  1.5631 -1.9208  4.2243
  975MOL0     H28693   6.937   2.269   9.126  4.7435 -0.7317  0.0939
  975MOL0     H28694   6.904   2.273   8.849 -1.5830  0.6583 -1.8040
  975MOL0     H28695   6.845   2.429   8.887  1.3975 -0.5768 -1.2931
  975MOL0     H28696   6.725   2.168   9.032 -2.7273 -1.2873 -1.3514
  975MOL0     H28697   6.646   2.333   9.013  0.1797 -1.0659  0.8495
  975MOL0     H28698   6.548   2.176   8.644  0.2275  5.2717 -1.9899
  975MOL0     H28699   7.209   2.467   9.138  0.9148 -0.4556 -0.3330
  975MOL0     H28700   7.451   2.499   9.079 -0.6431  0.9025  2.5181
  976MOL0     O28701   9.907  11.319   5.486 -0.0913  0.4855  0.4788
  976MOL0     C28702  10.025  11.344   5.515  0.3059  0.2636 -1.0032
  976MOL0     O28703  10.139  11.304   5.456 -0.1475 -0.0923 -0.8183
  976MOL0     C28704  10.113  11.216   5.356  1.2171  0.2432  0.3588
  976MOL0     C28705  10.072  11.078   5.383  0.4238 -0.5169  0.3571
  976MOL0     C28706  10.063  10.980   5.276 -0.3484 -0.3402 -0.3138
  976MOL0     C28707  10.097  11.022   5.144 -0.1574 -0.4498 -0.1057
  976MOL0     O28708  10.087  10.941   5.031  0.1791  0.7496 -1.3581
  976MOL0     C28709  10.079  10.798   5.036 -0.3127  0.3366 -0.2155
  976MOL0     C28710  10.032  10.732   4.911 -0.2059 -0.1149 -0.8937
  976MOL0     C28711  10.050  10.581   4.932 -0.0214  0.0633  1.0367
  976MOL0     C28712  10.029  10.514   4.804 -0.2562  0.1322  0.3887
  976MOL0     C28713  10.061  10.364   4.812  0.4970 -0.1693 -0.4843
  976MOL0     C28714  10.041  10.280   4.683 -0.3139 -0.4019  0.2409
  976MOL0     C28715  10.012  10.126   4.724 -0.2982 -0.5573 -0.0467
  976MOL0     C28716  10.000  10.030   4.603  0.6087 -0.2579  0.1055
  976MOL0     N28717   9.863  10.060   4.553 -0.4550  0.0590 -0.0937
  976MOL0     C28718   9.748   9.984   4.582  0.8922 -0.7983  0.2601
  976MOL0     C28719   9.644  10.040   4.516 -0.6233 -1.0790  0.2823
  976MOL0     C28720   9.500   9.999   4.522 -0.0601  0.2540  0.9691
  976MOL0     C28721   9.472   9.904   4.408  0.6456  0.8389 -0.0211
  976MOL0     C28722   9.320   9.874   4.384  0.2787 -1.9030 -0.0328
  976MOL0     C28723   9.302   9.742   4.311  0.2078 -0.7667  0.0246
  976MOL0     O28724   9.352   9.744   4.172  0.2560 -0.0220 -0.0720
  976MOL0     C28725   9.266   9.793   4.071 -0.0639 -0.3460 -0.5309
  976MOL0     C28726   9.330   9.883   3.986 -0.0127  0.4469  0.4085
  976MOL0     C28727   9.244   9.969   3.910  0.8915  1.1295  0.0184
  976MOL0     C28728   9.109   9.948   3.892  0.9258 -0.0232 -0.9494
  976MOL0     C28729   9.040  10.025   3.786 -1.0140 -0.2718  0.0298
  976MOL0     O28730   9.128  10.096   3.702  0.1999 -1.2986 -0.2019
  976MOL0     C28731   9.074  10.165   3.592  0.2752  0.5302  0.7592
  976MOL0     C28732   8.997  10.282   3.609  0.1293 -1.0642  0.4034
  976MOL0     C28733   8.957  10.360   3.501  0.2919  0.3257  0.2194
  976MOL0     C28734   8.990  10.313   3.374  0.1440 -0.0747  0.3962
  976MOL0     O28735   8.946  10.399   3.275 -0.1463 -0.1199 -0.5034
  976MOL0     C28736   8.883  10.346   3.150 -0.9295 -0.1179 -0.6483
  976MOL0     C28737   8.744  10.276   3.164 -0.0747  0.1395  0.6452
  976MOL0     C28738   8.635  10.378   3.192  0.2773  0.0716  0.2781
  976MOL0     C28739   8.546  10.343   3.314 -0.6088 -0.0807 -0.5315
  976MOL0     C28740   8.431  10.438   3.326  0.2205  0.0188  0.0440
  976MOL0     C28741   8.354  10.447   3.465  0.4923  0.3958  0.9705
  976MOL0     C28742   8.432  10.479   3.581  0.0045 -0.2286  0.2689
  976MOL0     C28743   8.358  10.565   3.681 -0.6005 -0.5295 -0.1348
  976MOL0    Cl28744   8.365  10.730   3.627 -0.4795 -0.0828 -0.5121
  976MOL0     C28745   9.063  10.200   3.348  0.9845  0.2791  0.1014
  976MOL0     C28746   9.103  10.118   3.464 -0.6076 -0.6395  0.8932
  976MOL0     O28747   8.921  10.012   3.774  0.3945 -0.7040 -0.4327
  976MOL0     C28748   9.049   9.846   3.962 -0.0774  0.7625 -0.6147
  976MOL0     C28749   9.124   9.773   4.061  0.4667 -0.6373  0.2651
  976MOL0     N28750   9.693  10.156   4.451  0.3156 -0.5018 -0.6534
  976MOL0     N28751   9.824  10.166   4.474 -0.3154  0.3763 -0.0976
  976MOL0     C28752  10.126  11.156   5.135  0.7936  0.6789  0.1961
  976MOL0     C28753  10.135  11.249   5.224 -0.4927 -0.2076 -0.5211
  976MOL0     C28754  10.035  11.430   5.637  0.2185 -0.7364 -0.3287
  976MOL0     C28755  10.160  11.456   5.694  0.2319 -0.2187 -0.0419
  976MOL0     C28756  10.176  11.525   5.807  0.1571  0.0564 -0.2387
  976MOL0     C28757  10.068  11.576   5.884 -0.7648  0.4262  0.8446
  976MOL0     O28758  10.108  11.642   5.993 -0.7893 -0.7040 -0.6815
  976MOL0     C28759  10.035  11.763   6.018 -0.1882 -0.9374  0.1110
  976MOL0     C28760  10.082  11.847   6.143  0.7898  1.0753 -0.0248
  976MOL0     C28761   9.965  11.909   6.223 -0.1669 -1.0081 -0.1608
  976MOL0     C28762  10.001  11.982   6.351 -0.7223  0.1712  0.0945
  976MOL0     C28763   9.880  12.024   6.421  1.1003 -0.4135  0.1110
  976MOL0     C28764   9.775  12.048   6.473 -0.1675  1.0997  0.2185
  976MOL0     C28765   9.941  11.550   5.827 -0.0791  0.4367 -0.5259
  976MOL0     C28766   9.927  11.467   5.715  0.9406  0.7918 -0.4171
  976MOL0     H28767  10.062  11.059   5.490  2.9028 -0.6512  0.6140
  976MOL0     H28768  10.023  10.882   5.301  0.8700 -0.7644  0.0091
  976MOL0     H28769  10.007  10.771   5.114 -1.8493  0.8243 -1.4258
  976MOL0     H28770  10.178  10.766   5.070 -1.0207  1.0524  2.8659
  976MOL0     H28771  10.094  10.760   4.825  2.3852  2.1360  1.4854
  976MOL0     H28772   9.930  10.759   4.882 -0.2551  1.2991  0.4556
  976MOL0     H28773   9.973  10.539   4.998 -0.4628 -0.5850  0.1218
  976MOL0     H28774  10.150  10.560   4.970  0.2222  0.1373  0.4337
  976MOL0     H28775   9.924  10.530   4.779 -0.4534  1.0795  1.7150
  976MOL0     H28776  10.088  10.560   4.724 -1.2715  3.3359  1.3518
  976MOL0     H28777   9.990  10.326   4.886  0.4845  0.6043 -0.0906
  976MOL0     H28778  10.162  10.337   4.844  0.3313 -2.3603 -1.6089
  976MOL0     H28779  10.125  10.284   4.613  0.4264  0.4351  1.1683
  976MOL0     H28780   9.957  10.323   4.628 -0.4885 -1.1341 -0.0873
  976MOL0     H28781  10.096  10.079   4.775  1.3824  1.6025 -0.6862
  976MOL0     H28782   9.920  10.126   4.783  0.4098  2.3859  1.2382
  976MOL0     H28783  10.013   9.924   4.629  2.5839 -1.1293 -3.7786
  976MOL0     H28784  10.069  10.061   4.524  0.0314  1.3527  0.1873
  976MOL0     H28785   9.744   9.892   4.640 -0.3940 -0.8417  0.1398
  976MOL0     H28786   9.445  10.093   4.515  0.4755  0.4662 -4.4086
  976MOL0     H28787   9.470   9.929   4.601 -0.1842 -1.7019 -0.7108
  976MOL0     H28788   9.525   9.810   4.422  4.2085  2.4191 -1.5825
  976MOL0     H28789   9.507   9.950   4.315 -0.8540  0.6498 -0.7126
  976MOL0     H28790   9.282   9.860   4.486  1.4181  1.5817  1.0222
  976MOL0     H28791   9.266   9.956   4.335 -1.2288  0.0017  4.3169
  976MOL0     H28792   9.198   9.707   4.305  0.2374 -1.0340  0.9506
  976MOL0     H28793   9.372   9.674   4.360 -0.4027 -1.8607 -0.5656
  976MOL0     H28794   9.431   9.924   3.984 -0.1581  0.8072  0.2985
  976MOL0     H28795   9.288  10.045   3.846 -1.8763  1.3667 -1.7742
  976MOL0     H28796   8.973  10.303   3.712 -2.7109  0.2163 -0.4097
  976MOL0     H28797   8.886  10.439   3.519 -2.4707 -1.4925 -1.9138
  976MOL0     H28798   8.951  10.279   3.097  0.8682  1.2981 -0.2464
  976MOL0     H28799   8.877  10.432   3.082  2.4552  1.1231  0.4010
  976MOL0     H28800   8.753  10.202   3.245 -1.1571  0.3964  1.0161
  976MOL0     H28801   8.715  10.236   3.067  0.4652  0.5263  0.3248
  976MOL0     H28802   8.573  10.381   3.101 -1.2248  0.4301  1.2768
  976MOL0     H28803   8.673  10.478   3.209 -1.0398  0.4029  1.4692
  976MOL0     H28804   8.508  10.241   3.301  1.4131 -0.6354 -2.6465
  976MOL0     H28805   8.614  10.342   3.399 -0.4208 -2.6653 -0.6301
  976MOL0     H28806   8.354  10.410   3.253 -0.2191  1.9657 -0.2788
  976MOL0     H28807   8.464  10.539   3.301 -2.1406  0.3476 -2.2503
  976MOL0     H28808   8.321  10.343   3.472  1.8688  0.0509  3.8324
  976MOL0     H28809   8.265  10.508   3.445 -0.7209 -2.2161 -2.9135
  976MOL0     H28810   8.469  10.389   3.630 -0.3142  0.2633  1.4440
  976MOL0     H28811   8.520  10.538   3.555 -0.1573  1.1032  2.5042
  976MOL0     H28812   8.414  10.559   3.774 -0.9054  0.1062  0.0904
  976MOL0     H28813   8.253  10.541   3.697 -0.7312  0.5297  0.7104
  976MOL0     H28814   9.067  10.158   3.248 -4.1662  0.8692 -0.6253
  976MOL0     H28815   9.177  10.040   3.447 -1.1764 -1.0229  0.1114
  976MOL0     H28816   8.942   9.829   3.956 -0.0396  0.7953 -1.4227
  976MOL0     H28817   9.071   9.706   4.128 -0.7445  0.7126  0.7096
  976MOL0     H28818  10.134  11.179   5.029 -2.7787  0.9943 -0.1472
  976MOL0     H28819  10.177  11.347   5.203  1.4292 -1.0251 -0.6329
  976MOL0     H28820  10.240  11.442   5.622  0.4443  1.6999 -0.2348
  976MOL0     H28821  10.275  11.552   5.842  0.2585  1.1627 -1.3150
  976MOL0     H28822   9.931  11.732   6.029 -0.3989 -2.0692 -3.6425
  976MOL0     H28823  10.028  11.830   5.931  0.8384 -2.2826 -1.0662
  976MOL0     H28824  10.131  11.777   6.211  0.6113  0.2001 -0.7710
  976MOL0     H28825  10.144  11.930   6.108 -0.2312  1.9908  0.2721
  976MOL0     H28826   9.888  11.832   6.234 -0.8845 -0.9527 -3.7446
  976MOL0     H28827   9.916  11.981   6.157  1.8745  1.4807  0.8949
  976MOL0     H28828  10.059  11.908   6.406 -0.9441  0.6248  0.9756
  976MOL0     H28829  10.063  12.071   6.333 -1.6431  0.3598 -2.5751
  976MOL0     H28830   9.681  12.082   6.511 -0.2475  2.1904 -0.9107
  976MOL0     H28831   9.860  11.583   5.891  2.3469  1.0932  2.5060
  976MOL0     H28832   9.823  11.444   5.692  0.7546  0.5761  0.5562
  977MOL0     O28833   7.817  10.546   2.637  0.3524 -0.1112  0.5799
  977MOL0     C28834   7.872  10.565   2.744  0.2597  0.0824  0.3562
  977MOL0     O28835   7.840  10.680   2.828 -0.5773  0.6013  0.1778
  977MOL0     C28836   7.723  10.754   2.802 -0.2483 -0.0699  0.2654
  977MOL0     C28837   7.735  10.831   2.686 -0.1066  0.4755 -0.3975
  977MOL0     C28838   7.626  10.903   2.638 -0.7196 -0.0849  0.1592
  977MOL0     C28839   7.505  10.897   2.711 -0.4217  0.2102  0.1113
  977MOL0     O28840   7.396  10.960   2.656  0.7697  0.1181 -0.0163
  977MOL0     C28841   7.272  10.968   2.735  0.1452  0.1959 -0.1370
  977MOL0     C28842   7.168  11.036   2.639 -0.2795 -0.4327 -1.2805
  977MOL0     C28843   7.130  10.971   2.503 -0.4329  0.2911  0.1359
  977MOL0     C28844   7.048  11.061   2.416  0.6959 -0.2312 -0.2725
  977MOL0     C28845   6.990  10.982   2.296  0.0970  0.1317  0.5840
  977MOL0     C28846   6.919  11.087   2.206  0.2864  0.7365  0.1281
  977MOL0     C28847   6.826  11.021   2.097 -0.8730 -1.2882  0.3714
  977MOL0     C28848   6.783  11.134   1.991  0.5619  0.3710 -0.3931
  977MOL0     N28849   6.672  11.081   1.902 -0.3239 -0.0351  0.0981
  977MOL0     C28850   6.541  11.097   1.930 -1.0773 -0.6964 -0.6133
  977MOL0     C28851   6.482  11.061   1.814 -0.4776 -0.5887  0.4286
  977MOL0     C28852   6.332  11.035   1.794  0.0401 -0.1955 -0.0692
  977MOL0     C28853   6.279  10.924   1.881 -0.4286  0.0330  0.5230
  977MOL0     C28854   6.329  10.791   1.847 -0.5149  0.4640  0.9346
  977MOL0     C28855   6.337  10.754   1.698 -0.1233  0.1265 -0.6608
  977MOL0     O28856   6.204  10.772   1.631  0.3463 -0.9066 -0.2554
  977MOL0     C28857   6.101  10.687   1.644  0.9615  0.0346  0.6330
  977MOL0     C28858   6.112  10.571   1.714 -0.2471 -0.3258 -0.3144
  977MOL0     C28859   6.010  10.484   1.732  0.4219  0.7653  0.6569
  977MOL0     C28860   5.885  10.496   1.660  0.7738 -0.4077  0.1953
  977MOL0     C28861   5.766  10.413   1.683 -0.1977  0.4609 -0.0071
  977MOL0     O28862   5.668  10.415   1.585 -0.0797 -0.0107 -0.6123
  977MOL0     C28863   5.573  10.318   1.583 -0.2365 -0.3038  0.3772
  977MOL0     C28864   5.462  10.323   1.673 -0.4916 -0.0688 -0.1774
  977MOL0     C28865   5.363  10.227   1.657  0.1181  0.0356  0.3298
  977MOL0     C28866   5.380  10.129   1.565  0.1561  0.4113 -0.0327
  977MOL0     O28867   5.282  10.037   1.561  0.3242  0.4116  0.1059
  977MOL0     C28868   5.231   9.998   1.433  0.5547 -0.8372  0.9352
  977MOL0     C28869   5.091   9.942   1.456  0.1529  0.3182  0.7695
  977MOL0     C28870   5.038   9.889   1.332  0.8447 -0.3701 -0.2553
  977MOL0     C28871   4.887   9.860   1.330 -0.2353 -1.0975  0.9865
  977MOL0     C28872   4.844   9.757   1.435 -0.4968  0.3304  0.1553
  977MOL0     C28873   4.711   9.687   1.427  1.0095  0.7892 -0.5116
  977MOL0     C28874   4.678   9.611   1.295  0.1264  0.9577  1.1825
  977MOL0     C28875   4.526   9.595   1.252  0.3022  0.0650 -0.8584
  977MOL0    Cl28876   4.454   9.751   1.211  0.2784 -0.4623  0.1137
  977MOL0     C28877   5.487  10.114   1.478  0.6020 -0.1177 -0.2464
  977MOL0     C28878   5.595  10.210   1.495 -0.0494  0.4256  1.4934
  977MOL0     O28879   5.763  10.347   1.790  0.7451  0.5467  0.1996
  977MOL0     C28880   5.874  10.608   1.572  0.6868  0.4380 -0.3715
  977MOL0     C28881   5.979  10.704   1.567  0.2341  0.1388 -0.3410
  977MOL0     N28882   6.568  11.022   1.719 -0.1367 -0.0540 -0.4408
  977MOL0     N28883   6.685  11.041   1.773 -0.5422 -0.3399  0.4292
  977MOL0     C28884   7.502  10.829   2.836  0.7236  0.1488  0.5989
  977MOL0     C28885   7.614  10.752   2.876  0.6097 -0.3054 -0.5607
  977MOL0     C28886   8.004  10.478   2.774 -0.6149  0.9268 -0.2506
  977MOL0     C28887   8.049  10.374   2.694 -0.5523  0.2668  0.0644
  977MOL0     C28888   8.159  10.292   2.735  0.1610  0.4279 -0.0055
  977MOL0     C28889   8.222  10.310   2.856 -0.3187 -0.5596 -0.0392
  977MOL0     O28890   8.309  10.214   2.895  0.0364 -0.8906 -0.1351
  977MOL0     C28891   8.288  10.134   3.011  0.9520 -0.8959  0.1786
  977MOL0     C28892   8.264   9.988   2.984 -0.4928  0.9202 -0.2042
  977MOL0     C28893   8.123   9.970   2.926  0.1535  0.1671  0.2731
  977MOL0     C28894   8.012   9.937   3.025  0.2576 -0.8153 -0.1037
  977MOL0     C28895   7.891   9.911   2.940  0.3569  0.8084 -0.1618
  977MOL0     C28896   7.780   9.904   2.883  0.0278 -0.6751 -0.1052
  977MOL0     C28897   8.180  10.410   2.946  0.0770 -0.5108  0.9543
  977MOL0     C28898   8.065  10.493   2.901 -0.6937 -0.0299 -0.8251
  977MOL0     H28899   7.828  10.818   2.632  0.2354 -3.4382  0.7875
  977MOL0     H28900   7.647  10.975   2.560  1.8514  0.9904  1.7003
  977MOL0     H28901   7.286  11.023   2.828 -0.0968 -0.9602  0.5931
  977MOL0     H28902   7.226  10.871   2.754  0.4362  0.1662  0.4345
  977MOL0     H28903   7.214  11.134   2.644 -1.1348 -0.0881  0.9175
  977MOL0     H28904   7.071  11.036   2.690 -0.3524 -3.0175 -1.2643
  977MOL0     H28905   7.064  10.891   2.537 -1.8753  0.7379 -1.4902
  977MOL0     H28906   7.217  10.928   2.453 -1.7654 -2.6701  0.1281
  977MOL0     H28907   6.969  11.102   2.480  0.7956 -1.9163  1.0106
  977MOL0     H28908   7.122  11.136   2.386  2.6129 -1.5987  0.7587
  977MOL0     H28909   6.911  10.911   2.324  0.0635  0.1077  0.4284
  977MOL0     H28910   7.062  10.926   2.236  0.1127  0.5403  0.2154
  977MOL0     H28911   7.000  11.147   2.164 -2.6264  4.5754 -0.6187
  977MOL0     H28912   6.856  11.148   2.272 -1.5258 -0.7881 -0.0938
  977MOL0     H28913   6.879  10.936   2.054 -1.7397 -1.9421  0.5598
  977MOL0     H28914   6.741  10.983   2.154 -1.5335  2.3872  2.1308
  977MOL0     H28915   6.872  11.156   1.932  0.7920  1.8721  0.4565
  977MOL0     H28916   6.751  11.230   2.033  5.9674  2.0020  0.7726
  977MOL0     H28917   6.493  11.126   2.022 -4.2040 -1.0257 -2.0148
  977MOL0     H28918   6.312  11.026   1.687 -3.9084  0.2606  0.4759
  977MOL0     H28919   6.279  11.125   1.828  0.4664  0.1570 -0.3278
  977MOL0     H28920   6.170  10.927   1.880 -0.4540  3.5606  0.7447
  977MOL0     H28921   6.310  10.955   1.982 -0.1895  2.8469 -0.3201
  977MOL0     H28922   6.432  10.783   1.884  0.7197 -0.4746 -2.3990
  977MOL0     H28923   6.263  10.720   1.898 -0.0330  0.4133  1.5004
  977MOL0     H28924   6.368  10.650   1.682  0.1829  0.0971  0.0754
  977MOL0     H28925   6.422  10.802   1.648  0.6160  0.1172  0.5519
  977MOL0     H28926   6.205  10.548   1.763 -0.4887 -1.0877 -0.1993
  977MOL0     H28927   6.015  10.392   1.789 -1.7665 -1.6684 -2.6977
  977MOL0     H28928   5.453  10.417   1.726  0.2124 -0.0006 -0.1614
  977MOL0     H28929   5.268  10.225   1.708 -0.3241 -0.2204 -0.4795
  977MOL0     H28930   5.294   9.923   1.384  2.1215  0.5791  0.6965
  977MOL0     H28931   5.229  10.082   1.363  0.4500 -1.2559  0.4290
  977MOL0     H28932   5.041  10.035   1.486  0.2392  1.6117 -2.6481
  977MOL0     H28933   5.091   9.865   1.534  0.1288  0.1434  0.5967
  977MOL0     H28934   5.079   9.798   1.286 -3.9724 -2.1920 -1.4632
  977MOL0     H28935   5.062   9.963   1.255  1.2412 -0.0903  0.1276
  977MOL0     H28936   4.829   9.952   1.343 -1.9967 -2.0022 -0.1150
  977MOL0     H28937   4.870   9.816   1.232 -0.9484  0.7689  0.2421
  977MOL0     H28938   4.856   9.810   1.530  4.3123 -0.2678  0.1265
  977MOL0     H28939   4.917   9.676   1.423 -0.9721  0.0336 -0.7891
  977MOL0     H28940   4.637   9.767   1.437  1.9034  1.4288  1.8055
  977MOL0     H28941   4.708   9.619   1.513 -0.9850  0.5361 -0.7462
  977MOL0     H28942   4.724   9.654   1.206  2.0676 -0.1199  1.6115
  977MOL0     H28943   4.727   9.514   1.309 -0.8717  0.2646  0.0308
  977MOL0     H28944   4.471   9.537   1.326  2.2349 -0.5350  0.2014
  977MOL0     H28945   4.517   9.525   1.169  0.6634 -0.9127 -0.0884
  977MOL0     H28946   5.491  10.039   1.399 -0.0107  0.2145 -0.6016
  977MOL0     H28947   5.688  10.207   1.440 -1.2560 -0.6806 -0.6117
  977MOL0     H28948   5.792  10.618   1.501  1.3281  2.1367 -0.9316
  977MOL0     H28949   5.978  10.789   1.500 -0.2723 -1.8598 -3.0569
  977MOL0     H28950   7.411  10.836   2.894  0.5627 -2.7833  0.8724
  977MOL0     H28951   7.620  10.684   2.960 -1.1176 -1.5911 -1.4078
  977MOL0     H28952   7.995  10.349   2.603 -0.1944  2.8628 -0.9767
  977MOL0     H28953   8.188  10.210   2.670 -1.7614 -0.9247  0.7463
  977MOL0     H28954   8.199  10.174   3.061  0.7129  0.8142 -1.5014
  977MOL0     H28955   8.368  10.155   3.083 -1.1966  1.0073  2.1950
  977MOL0     H28956   8.338   9.951   2.912 -1.1608 -1.0384  0.0639
  977MOL0     H28957   8.275   9.936   3.079 -0.5754  2.0306  0.4396
  977MOL0     H28958   8.119   9.901   2.842 -0.6863  0.6641 -0.1086
  977MOL0     H28959   8.092  10.057   2.868 -0.3287  2.3087  3.4388
  977MOL0     H28960   8.045   9.851   3.084  0.1455 -1.7147 -1.3074
  977MOL0     H28961   7.977  10.022   3.083  0.0879 -0.7135 -0.3528
  977MOL0     H28962   7.686   9.870   2.844  1.5271 -3.7022 -1.4165
  977MOL0     H28963   8.218  10.419   3.048 -4.2321 -1.5837  2.9172
  977MOL0     H28964   8.039  10.586   2.950 -2.2809  1.2748 -3.8760
  978MOL0     O28965   8.634   6.306   9.423 -0.7944 -0.1924 -0.0669
  978MOL0     C28966   8.681   6.415   9.392  0.0943 -0.0658  0.0142
  978MOL0     O28967   8.620   6.503   9.308  0.2488 -0.7206 -0.7316
  978MOL0     C28968   8.499   6.474   9.257 -0.1664  0.1525 -0.8304
  978MOL0     C28969   8.394   6.530   9.326 -0.0029  0.0537 -0.4265
  978MOL0     C28970   8.266   6.527   9.285 -0.0931 -0.1685 -0.4528
  978MOL0     C28971   8.235   6.452   9.179 -1.2987 -0.3896  0.5686
  978MOL0     O28972   8.109   6.441   9.133 -0.6617  0.1513 -0.3636
  978MOL0     C28973   8.084   6.516   9.014  0.7594 -0.6411  0.2619
  978MOL0     C28974   8.012   6.646   9.063 -0.5215 -1.0023 -0.0125
  978MOL0     C28975   8.106   6.771   9.068 -0.7178 -0.0147 -0.1017
  978MOL0     C28976   8.032   6.901   9.095  0.5031 -0.3014 -0.9852
  978MOL0     C28977   8.017   6.942   9.243 -0.2946 -0.0225 -0.7367
  978MOL0     C28978   7.937   6.838   9.333 -0.4836 -0.4590  0.0793
  978MOL0     C28979   7.850   6.905   9.431 -0.1379 -0.4475 -0.1860
  978MOL0     C28980   7.777   6.800   9.515 -0.3175 -0.4833 -0.2963
  978MOL0     N28981   7.724   6.693   9.436  0.1029  0.0135  0.2366
  978MOL0     C28982   7.616   6.705   9.354  0.2549  0.8334 -0.2521
  978MOL0     C28983   7.617   6.601   9.264 -0.4341 -0.7123 -0.4552
  978MOL0     C28984   7.510   6.566   9.159 -0.2459  0.1624 -0.5983
  978MOL0     C28985   7.569   6.523   9.021  0.1887 -1.1162 -0.0137
  978MOL0     C28986   7.595   6.375   9.027 -1.4898 -0.6996  0.9088
  978MOL0     C28987   7.728   6.320   9.077  0.7707 -0.1932  0.5408
  978MOL0     O28988   7.760   6.212   8.991 -0.3990 -0.6413  0.0366
  978MOL0     C28989   7.885   6.149   9.016  0.0867  0.7459 -0.0383
  978MOL0     C28990   7.941   6.049   8.929  0.6463 -0.1291 -0.6639
  978MOL0     C28991   8.072   6.006   8.935 -0.1718  0.1432 -0.7289
  978MOL0     C28992   8.155   6.054   9.041 -0.0527 -0.8085 -0.9882
  978MOL0     C28993   8.294   6.008   9.055 -0.0344 -1.5082 -0.2763
  978MOL0     O28994   8.343   6.007   9.182  0.7257  0.2779 -0.2889
  978MOL0     C28995   8.471   5.961   9.200  0.0328  0.4163  0.2475
  978MOL0     C28996   8.556   6.061   9.246  0.5486  0.6912 -0.1028
  978MOL0     C28997   8.690   6.033   9.283 -0.6191 -0.1616  0.0751
  978MOL0     C28998   8.738   5.903   9.250  0.0001  0.5084 -0.0760
  978MOL0     O28999   8.860   5.859   9.272 -0.0616 -0.3710 -1.1572
  978MOL0     C29000   8.948   5.932   9.352 -0.5700  0.1255  0.0752
  978MOL0     C29001   9.067   5.830   9.389  1.0168  0.0541 -0.9037
  978MOL0     C29002   9.161   5.903   9.484  0.2692 -0.1076  0.6103
  978MOL0     C29003   9.109   5.915   9.627 -0.5006 -0.9991 -0.1376
  978MOL0     C29004   9.174   6.028   9.699 -1.1483 -0.4958  0.3766
  978MOL0     C29005   9.313   6.003   9.750 -0.0093  0.8888  0.0260
  978MOL0     C29006   9.379   6.113   9.831 -0.4256  0.1280  0.7594
  978MOL0     C29007   9.532   6.123   9.829  0.2534  0.1282  0.3953
  978MOL0    Cl29008   9.581   6.166   9.659  0.5097  0.1566 -0.2739
  978MOL0     C29009   8.646   5.809   9.216  0.3284 -0.4814  0.8618
  978MOL0     C29010   8.515   5.829   9.184 -0.1696  0.2843  0.2959
  978MOL0     O29011   8.360   5.975   8.954  0.5548  0.0103 -0.2485
  978MOL0     C29012   8.098   6.138   9.130  0.3173  0.1178 -0.0886
  978MOL0     C29013   7.974   6.186   9.117 -0.6471  0.6823  0.8844
  978MOL0     N29014   7.720   6.525   9.310 -0.2340 -0.1043 -0.0664
  978MOL0     N29015   7.793   6.581   9.400  0.3485 -0.0414 -0.0013
  978MOL0     C29016   8.341   6.386   9.103  0.3881  0.6408 -0.6057
  978MOL0     C29017   8.478   6.400   9.145 -0.1665  0.6638 -0.4436
  978MOL0     C29018   8.806   6.467   9.453 -0.2635  0.0725  1.0474
  978MOL0     C29019   8.871   6.382   9.551 -0.3533  0.2831  0.3555
  978MOL0     C29020   8.990   6.428   9.610 -0.3874 -0.4887  0.1072
  978MOL0     C29021   9.044   6.551   9.573 -0.4732 -0.1243 -0.0653
  978MOL0     O29022   9.167   6.599   9.617  0.2296 -0.2948 -0.2244
  978MOL0     C29023   9.241   6.538   9.723  0.5179  0.6826  0.1738
  978MOL0     C29024   9.195   6.593   9.860 -0.1688 -0.4394  0.6514
  978MOL0     C29025   9.224   6.748   9.856 -0.5758  0.3419  1.0283
  978MOL0     C29026   9.150   6.830   9.958  0.2047 -0.1531 -0.3009
  978MOL0     C29027   9.204   6.968   9.966 -0.0482 -0.0021 -1.2155
  978MOL0     C29028   9.262   7.065   9.979  0.7150 -0.8245 -0.2245
  978MOL0     C29029   8.988   6.630   9.478 -0.1230 -0.2742  0.8245
  978MOL0     C29030   8.866   6.588   9.417  0.3823 -0.0187 -0.5456
  978MOL0     H29031   8.419   6.587   9.415 -0.7850 -1.8856  1.1248
  978MOL0     H29032   8.196   6.593   9.335  1.4189  0.3798  1.0306
  978MOL0     H29033   8.009   6.468   8.950  0.3626 -0.1593  0.3660
  978MOL0     H29034   8.172   6.544   8.956 -0.2716  0.8052 -0.6743
  978MOL0     H29035   7.958   6.630   9.156 -0.5541  0.6361  0.2905
  978MOL0     H29036   7.931   6.672   8.995  0.1794  0.9186 -0.1807
  978MOL0     H29037   8.169   6.780   8.979 -1.4921  1.3170 -0.5485
  978MOL0     H29038   8.171   6.741   9.151 -1.7068 -1.1589  0.2784
  978MOL0     H29039   8.091   6.987   9.062 -1.1198  1.0732 -0.5022
  978MOL0     H29040   7.940   6.903   9.036  0.4885  1.3845 -0.9698
  978MOL0     H29041   7.953   7.031   9.242 -0.7215 -0.3302 -1.4328
  978MOL0     H29042   8.109   6.966   9.295 -1.5765  0.7375  1.3104
  978MOL0     H29043   8.006   6.764   9.375 -0.2263 -0.2969 -0.0559
  978MOL0     H29044   7.872   6.786   9.262  2.4409  0.0476 -3.2371
  978MOL0     H29045   7.909   6.972   9.494  1.2855 -1.9054  0.1058
  978MOL0     H29046   7.774   6.965   9.380 -1.0062 -1.0282  0.3988
  978MOL0     H29047   7.690   6.843   9.567  1.3066  1.5291  0.9180
  978MOL0     H29048   7.853   6.761   9.583 -0.4116 -0.0207  0.0820
  978MOL0     H29049   7.548   6.789   9.341 -0.9509 -0.0849 -0.0257
  978MOL0     H29050   7.464   6.660   9.126 -2.9563 -0.0769  2.0284
  978MOL0     H29051   7.425   6.506   9.192  0.4456  0.3476  1.7242
  978MOL0     H29052   7.663   6.578   9.015 -0.2977  0.7709  4.7771
  978MOL0     H29053   7.494   6.558   8.950  1.2603  3.4712  0.7781
  978MOL0     H29054   7.519   6.332   9.093  1.2115 -3.9164  2.2127
  978MOL0     H29055   7.566   6.334   8.929  3.5096 -1.2233 -0.6187
  978MOL0     H29056   7.698   6.298   9.179 -2.7052  2.8884  0.3967
  978MOL0     H29057   7.795   6.406   9.076 -0.9429  1.3041 -2.5468
  978MOL0     H29058   7.883   6.008   8.847 -1.6460  0.1918  0.6963
  978MOL0     H29059   8.100   5.926   8.867  0.9675  3.5904 -4.7236
  978MOL0     H29060   8.517   6.162   9.252 -1.6641 -0.1830  2.8289
  978MOL0     H29061   8.756   6.110   9.321  2.8651 -2.9393  0.1653
  978MOL0     H29062   8.895   5.983   9.433 -4.5417 -0.5104 -1.8786
  978MOL0     H29063   8.992   6.007   9.286 -1.3374  1.7656  1.3458
  978MOL0     H29064   9.112   5.791   9.297  0.4575  0.8322 -1.5180
  978MOL0     H29065   9.027   5.740   9.438  1.2523 -0.5253 -1.7431
  978MOL0     H29066   9.188   5.994   9.429  3.3841 -2.5034 -2.2978
  978MOL0     H29067   9.253   5.844   9.482  0.4975  0.2454  0.5540
  978MOL0     H29068   9.000   5.923   9.635 -0.5088 -0.7748 -0.4417
  978MOL0     H29069   9.131   5.816   9.668 -0.9252 -0.3866  1.6922
  978MOL0     H29070   9.101   6.043   9.780 -0.4449 -0.9036  1.1045
  978MOL0     H29071   9.167   6.119   9.639  3.0588  0.0735  0.4762
  978MOL0     H29072   9.390   5.969   9.680 -1.4210 -3.2344  0.2371
  978MOL0     H29073   9.311   5.918   9.818  0.5463  2.4364  2.0882
  978MOL0     H29074   9.340   6.213   9.813  2.6760  1.3662  0.1984
  978MOL0     H29075   9.342   6.078   9.928 -1.2360  0.5518  0.6069
  978MOL0     H29076   9.589   6.037   9.867  0.8425  0.9434  1.3918
  978MOL0     H29077   9.551   6.197   9.906  0.0203  0.1790  0.4054
  978MOL0     H29078   8.683   5.713   9.181 -0.5575 -0.0396 -1.4542
  978MOL0     H29079   8.463   5.753   9.128 -0.8851  0.6670  0.4299
  978MOL0     H29080   8.162   6.176   9.209 -0.2668  1.8022 -0.3880
  978MOL0     H29081   7.952   6.266   9.187 -1.5842  0.5842  0.7187
  978MOL0     H29082   8.316   6.336   9.010 -1.8067 -3.2982  1.8024
  978MOL0     H29083   8.557   6.344   9.097 -1.6982 -0.5094 -1.6804
  978MOL0     H29084   8.844   6.279   9.572  0.1099 -0.1337 -0.9570
  978MOL0     H29085   9.035   6.375   9.693  1.0986  0.6310  0.0648
  978MOL0     H29086   9.348   6.550   9.708  0.6183 -0.7421 -0.4240
  978MOL0     H29087   9.231   6.429   9.716 -4.6318  0.0985  6.4397
  978MOL0     H29088   9.092   6.565   9.883 -0.4697 -0.4831 -0.6260
  978MOL0     H29089   9.267   6.556   9.933  0.8105 -0.0844 -0.1061
  978MOL0     H29090   9.197   6.786   9.757 -2.9422  0.4323  1.6518
  978MOL0     H29091   9.329   6.755   9.884 -0.0442 -1.8842 -0.1027
  978MOL0     H29092   9.045   6.822   9.929 -0.2575  0.7247  1.0433
  978MOL0     H29093   9.152   6.789  10.059  0.7104  0.1221 -0.1909
  978MOL0     H29094   9.323   7.150  10.003  0.2383  0.0900 -2.0625
  978MOL0     H29095   9.032   6.724   9.448 -1.1138 -0.8728 -3.0474
  978MOL0     H29096   8.825   6.652   9.340  0.1118  1.4622  0.7723
  979MOL0     O29097   0.509   9.845   4.998  0.1406  0.0371  0.3290
  979MOL0     C29098   0.552   9.744   5.046 -0.5705  0.1854 -0.5168
  979MOL0     O29099   0.680   9.720   5.082 -1.1537 -0.6688  0.0827
  979MOL0     C29100   0.780   9.809   5.038  0.1492  0.3911 -0.1229
  979MOL0     C29101   0.852   9.771   4.929  0.4217 -0.7525  0.0811
  979MOL0     C29102   0.957   9.855   4.894 -0.9097 -0.0598 -0.6390
  979MOL0     C29103   1.000   9.970   4.966  0.0252  0.8038 -0.3749
  979MOL0     O29104   1.115  10.050   4.951 -0.2291  0.0422 -0.0549
  979MOL0     C29105   1.238   9.981   4.970  0.9293  0.3353  0.4838
  979MOL0     C29106   1.347  10.084   4.966  0.2254 -0.6602 -0.2798
  979MOL0     C29107   1.473  10.018   5.025  0.0575  0.4005  0.3787
  979MOL0     C29108   1.587  10.114   5.033  0.1324 -0.9714  0.9032
  979MOL0     C29109   1.640  10.149   4.894  0.8150  1.4297  0.3520
  979MOL0     C29110   1.783  10.217   4.895 -0.7450 -0.0588  0.6249
  979MOL0     C29111   1.796  10.339   4.987  0.5906  0.3393 -0.5287
  979MOL0     C29112   1.921  10.410   4.950  0.3540 -0.3331  0.1089
  979MOL0     N29113   2.053  10.350   4.949 -0.7274  0.2606  0.3255
  979MOL0     C29114   2.154  10.375   5.039 -0.1453 -0.6446  0.6238
  979MOL0     C29115   2.258  10.309   4.984  0.3891 -0.6640 -0.2529
  979MOL0     C29116   2.388  10.281   5.064 -0.2599 -0.7371  0.6609
  979MOL0     C29117   2.510  10.347   4.993 -0.1677 -0.1045  1.2408
  979MOL0     C29118   2.614  10.368   5.105  1.0805  0.1526 -0.2397
  979MOL0     C29119   2.751  10.382   5.041  0.8629 -0.6830 -0.1175
  979MOL0     O29120   2.836  10.472   5.119  0.6534 -0.1347  0.4086
  979MOL0     C29121   2.969  10.464   5.102  0.6432 -0.2854  0.7295
  979MOL0     C29122   3.049  10.400   5.004  0.4361 -0.7886  0.0388
  979MOL0     C29123   3.186  10.411   5.008  0.0522 -0.3417  0.0835
  979MOL0     C29124   3.244  10.452   5.128 -1.2109  0.1396 -0.4642
  979MOL0     C29125   3.392  10.456   5.140 -0.1362  0.7217 -0.2403
  979MOL0     O29126   3.459  10.465   5.031 -0.4486 -0.4701  0.3229
  979MOL0     C29127   3.582  10.533   5.019 -0.2212  0.6717 -1.0679
  979MOL0     C29128   3.639  10.543   4.898  0.3647 -0.5267  0.4890
  979MOL0     C29129   3.746  10.628   4.867  0.9753  0.4881 -1.3307
  979MOL0     C29130   3.796  10.695   4.976 -0.7958 -0.8472  0.7959
  979MOL0     O29131   3.888  10.793   4.936 -0.1290  0.7015 -0.2137
  979MOL0     C29132   3.905  10.912   5.009  0.7186  0.1973 -0.8395
  979MOL0     C29133   4.024  10.907   5.110 -0.6736 -0.0189 -0.5358
  979MOL0     C29134   4.159  10.927   5.034  0.7324 -0.3191 -0.8125
  979MOL0     C29135   4.286  10.947   5.133  0.1533  0.1625 -0.2777
  979MOL0     C29136   4.426  10.952   5.061  0.6381  0.0593 -1.0132
  979MOL0     C29137   4.533  11.012   5.152 -0.4515  0.6891 -0.2898
  979MOL0     C29138   4.653  11.063   5.069 -0.6098  0.4369 -0.4359
  979MOL0     C29139   4.749  11.113   5.174 -0.0420 -0.1030  0.0627
  979MOL0    Cl29140   4.831  10.978   5.265  0.1703  0.3154 -0.5382
  979MOL0     C29141   3.752  10.678   5.104 -0.0656 -0.0392  0.4969
  979MOL0     C29142   3.643  10.605   5.131 -0.1380  0.2854  0.9013
  979MOL0     O29143   3.439  10.449   5.254 -0.3563 -0.0847  1.0828
  979MOL0     C29144   3.167  10.503   5.238  0.4827 -0.3580  0.3658
  979MOL0     C29145   3.029  10.520   5.217  0.5404 -0.4763 -0.0329
  979MOL0     N29146   2.238  10.281   4.853 -0.2260  1.1617 -0.2769
  979MOL0     N29147   2.105  10.289   4.837  0.5461  0.6732  0.6939
  979MOL0     C29148   0.922  10.002   5.071  0.3264 -0.2945 -0.1681
  979MOL0     C29149   0.809   9.928   5.114  0.4519  0.0421 -0.0139
  979MOL0     C29150   0.467   9.627   5.061  0.4601  0.1917  0.3285
  979MOL0     C29151   0.352   9.598   4.980 -1.0598  0.0795 -0.4846
  979MOL0     C29152   0.282   9.485   4.993 -0.6643 -0.3159  0.4454
  979MOL0     C29153   0.323   9.379   5.078 -0.6702  0.0749 -0.3504
  979MOL0     O29154   0.250   9.261   5.067 -0.1473  0.0436  0.6514
  979MOL0     C29155   0.277   9.162   5.169 -0.0911 -0.3320  0.3292
  979MOL0     C29156   0.174   9.177   5.278 -0.3555  0.0744  0.2541
  979MOL0     C29157   0.020   9.159   5.258 -0.6108  0.1773 -0.0659
  979MOL0     C29158  -0.016   9.015   5.229  0.7237 -0.2632 -0.3489
  979MOL0     C29159   0.011   8.982   5.091  0.0952  0.3472  0.6764
  979MOL0     C29160   0.033   8.962   4.973 -1.2269  0.2048 -0.1617
  979MOL0     C29161   0.456   9.397   5.131 -0.1077 -0.4392 -0.1400
  979MOL0     C29162   0.523   9.519   5.130  0.4506 -0.2174 -0.4451
  979MOL0     H29163   0.842   9.671   4.888  2.0133 -2.0594  2.5915
  979MOL0     H29164   1.020   9.826   4.810  0.4906 -0.9137  0.6636
  979MOL0     H29165   1.253   9.906   4.893  1.6042  2.0902 -1.1646
  979MOL0     H29166   1.238   9.927   5.065  1.1898 -1.9183 -0.7348
  979MOL0     H29167   1.311  10.171   5.021  0.3612  0.2552 -1.5886
  979MOL0     H29168   1.364  10.116   4.863 -0.7644 -0.1037 -0.2868
  979MOL0     H29169   1.496   9.934   4.959 -0.1242 -1.4154  2.4864
  979MOL0     H29170   1.455   9.977   5.125 -2.5538 -2.4972 -1.1065
  979MOL0     H29171   1.552  10.205   5.083 -0.1792  1.0267 -2.6713
  979MOL0     H29172   1.671  10.063   5.082  1.1949 -0.2316 -0.0842
  979MOL0     H29173   1.566  10.217   4.850 -1.0973 -1.1411 -0.6548
  979MOL0     H29174   1.632  10.064   4.825 -0.4462  2.6660 -1.1272
  979MOL0     H29175   1.820  10.248   4.797 -1.2010 -0.9028  0.1752
  979MOL0     H29176   1.851  10.142   4.936 -1.4407 -0.0369  1.8452
  979MOL0     H29177   1.720  10.415   4.963  0.1696  0.7841  1.9376
  979MOL0     H29178   1.781  10.310   5.091 -0.2831 -0.4112 -0.8465
  979MOL0     H29179   1.915  10.493   5.022 -1.7317  0.1982 -0.5902
  979MOL0     H29180   1.920  10.450   4.848  0.9151  0.0264  0.2384
  979MOL0     H29181   2.153  10.411   5.141  2.7730  0.4065  0.3466
  979MOL0     H29182   2.384  10.172   5.051 -3.0711 -0.5953 -0.4877
  979MOL0     H29183   2.388  10.313   5.168  0.8342 -1.7719  0.9987
  979MOL0     H29184   2.481  10.443   4.948 -3.5317 -0.8998  1.4087
  979MOL0     H29185   2.537  10.274   4.916  1.5321  0.5043  1.2269
  979MOL0     H29186   2.587  10.460   5.158  1.3609 -0.0792  0.3186
  979MOL0     H29187   2.617  10.286   5.177  0.9984 -0.3341 -0.7815
  979MOL0     H29188   2.730  10.438   4.950 -1.4324  4.6624  3.2333
  979MOL0     H29189   2.806  10.287   5.034 -0.7491 -1.7845  1.3796
  979MOL0     H29190   2.987  10.374   4.919 -0.3339  2.3308 -0.4611
  979MOL0     H29191   3.263  10.397   4.933  1.2917 -3.1677  1.7449
  979MOL0     H29192   3.587  10.481   4.826 -0.8511 -1.6643  2.2611
  979MOL0     H29193   3.788  10.642   4.769  1.3166  0.1504 -1.2345
  979MOL0     H29194   3.817  10.946   5.065  0.8603  0.0096 -0.5016
  979MOL0     H29195   3.926  10.993   4.939 -3.1185  1.2916 -0.9680
  979MOL0     H29196   4.034  10.813   5.164 -1.2400 -0.9305 -1.9497
  979MOL0     H29197   4.012  10.981   5.190 -1.1019 -0.3452 -0.2963
  979MOL0     H29198   4.151  11.026   4.989  0.8399  1.6156  2.9562
  979MOL0     H29199   4.188  10.849   4.963  2.3804  0.2455 -0.8049
  979MOL0     H29200   4.264  11.043   5.181 -2.4330 -1.1313  1.4173
  979MOL0     H29201   4.289  10.864   5.205  2.7139  0.6486  0.2707
  979MOL0     H29202   4.430  11.011   4.968  0.6595 -0.1359 -1.1377
  979MOL0     H29203   4.451  10.848   5.037 -1.7076 -0.4618 -1.4389
  979MOL0     H29204   4.563  10.940   5.229  0.0634  3.2995  2.1370
  979MOL0     H29205   4.491  11.094   5.211 -2.0350  1.5289 -2.4568
  979MOL0     H29206   4.690  10.988   4.997  0.6599  2.3354 -1.8612
  979MOL0     H29207   4.615  11.146   5.009 -0.8795  1.1820  0.7445
  979MOL0     H29208   4.704  11.175   5.251  1.5041 -0.4132  1.2680
  979MOL0     H29209   4.819  11.177   5.120 -0.2944  0.8882  0.8924
  979MOL0     H29210   3.783  10.743   5.185 -2.7444  0.7617  0.9934
  979MOL0     H29211   3.607  10.603   5.233  1.0486 -0.4140  1.3206
  979MOL0     H29212   3.209  10.543   5.330  0.5329 -0.7593  0.5182
  979MOL0     H29213   2.960  10.568   5.285 -0.8248  0.7417 -2.1602
  979MOL0     H29214   0.962  10.085   5.129 -2.1106 -0.6934  2.3323
  979MOL0     H29215   0.760   9.934   5.211  0.7215 -1.1446  0.2171
  979MOL0     H29216   0.329   9.660   4.894  1.1992  0.0916 -1.1321
  979MOL0     H29217   0.201   9.459   4.925  0.9304  1.1007 -2.1094
  979MOL0     H29218   0.373   9.156   5.221  1.7414  0.5657 -2.6758
  979MOL0     H29219   0.278   9.069   5.111 -1.1179 -0.5471  0.6370
  979MOL0     H29220   0.196   9.108   5.360 -0.5047 -1.0482 -0.6426
  979MOL0     H29221   0.185   9.280   5.314  1.0365  0.1519 -0.3442
  979MOL0     H29222  -0.015   9.225   5.178  0.5093 -0.6653 -1.2985
  979MOL0     H29223  -0.022   9.189   5.354  2.1722 -0.8546  1.6115
  979MOL0     H29224   0.030   8.937   5.291  0.6396 -1.4898 -1.7823
  979MOL0     H29225  -0.123   9.011   5.248  0.3662 -0.4623 -2.2874
  979MOL0     H29226   0.064   8.948   4.871  2.3562 -0.0966  0.8249
  979MOL0     H29227   0.508   9.323   5.191 -2.1834 -0.8610  1.2399
  979MOL0     H29228   0.620   9.519   5.179  0.5595  4.0783 -0.2769
  980MOL0     O29229   6.852   5.162   6.435 -0.7465  0.4105 -0.9188
  980MOL0     C29230   6.891   5.239   6.344  0.4683 -0.1332  0.2260
  980MOL0     O29231   6.978   5.199   6.238  0.2162 -0.6545  0.6256
  980MOL0     C29232   7.066   5.091   6.256 -0.6885 -0.9706  0.4091
  980MOL0     C29233   7.202   5.121   6.243  0.4634 -0.4015 -0.6754
  980MOL0     C29234   7.298   5.020   6.271  0.4612 -0.1673  0.5512
  980MOL0     C29235   7.253   4.890   6.296 -0.5588  0.8287 -0.5524
  980MOL0     O29236   7.347   4.782   6.312  0.7120  0.2369  0.6352
  980MOL0     C29237   7.435   4.749   6.200  0.0645  0.1743  0.5230
  980MOL0     C29238   7.560   4.680   6.249  1.0626 -0.5913 -0.0337
  980MOL0     C29239   7.542   4.544   6.324 -0.0136 -0.2615  0.1191
  980MOL0     C29240   7.453   4.451   6.248 -0.8684 -0.3066 -0.0055
  980MOL0     C29241   7.467   4.298   6.258 -0.1699  0.8054 -0.5432
  980MOL0     C29242   7.453   4.239   6.404 -1.5667  0.7125  0.0362
  980MOL0     C29243   7.314   4.247   6.447  0.8449  0.0120  0.5728
  980MOL0     C29244   7.297   4.248   6.596 -0.3266 -0.0339 -0.1559
  980MOL0     N29245   7.332   4.375   6.659 -0.5269  0.1475 -0.6566
  980MOL0     C29246   7.306   4.505   6.611 -0.0680  0.2406  0.0795
  980MOL0     C29247   7.354   4.583   6.705 -0.5213  0.5473  0.0837
  980MOL0     C29248   7.357   4.737   6.697 -0.2780  0.0611  0.3425
  980MOL0     C29249   7.213   4.797   6.695  0.8946 -0.6317 -0.2224
  980MOL0     C29250   7.212   4.944   6.727  0.1073 -0.2597 -0.7408
  980MOL0     C29251   7.074   5.003   6.676  0.3017  0.7341 -0.2893
  980MOL0     O29252   6.965   4.930   6.718  0.4783  0.6368  0.1288
  980MOL0     C29253   6.895   4.946   6.840 -0.8624 -0.0843 -0.1318
  980MOL0     C29254   6.761   4.910   6.821  0.4677 -0.4806  1.2683
  980MOL0     C29255   6.673   4.923   6.929  0.3250 -0.6454 -1.0127
  980MOL0     C29256   6.722   4.986   7.047  0.1935  0.6412 -0.5733
  980MOL0     C29257   6.649   4.980   7.174  0.1271 -0.5359 -0.0120
  980MOL0     O29258   6.713   5.041   7.283  0.0292  0.4052 -0.1698
  980MOL0     C29259   6.658   5.046   7.409  1.4349 -0.3813  0.9822
  980MOL0     C29260   6.741   5.073   7.523  0.6467 -0.2748  0.5376
  980MOL0     C29261   6.702   5.081   7.651  0.2672  0.1911 -0.2447
  980MOL0     C29262   6.569   5.066   7.688  0.7827 -0.2730  0.0816
  980MOL0     O29263   6.547   5.103   7.822 -0.6290  0.1363 -0.6042
  980MOL0     C29264   6.415   5.093   7.876 -0.0916 -0.1084  0.2463
  980MOL0     C29265   6.417   5.109   8.020 -1.0468 -0.0063  0.2574
  980MOL0     C29266   6.505   5.220   8.082  0.4204  0.4824 -0.0263
  980MOL0     C29267   6.465   5.365   8.046 -0.0238 -0.5693  0.7717
  980MOL0     C29268   6.320   5.396   8.071 -0.3903 -0.1388  0.2598
  980MOL0     C29269   6.294   5.422   8.217  0.1728 -0.1734  0.0409
  980MOL0     C29270   6.267   5.560   8.269 -0.3169  0.4867  0.4805
  980MOL0     C29271   6.332   5.579   8.408 -1.2253  0.6644 -0.0760
  980MOL0    Cl29272   6.510   5.580   8.382 -0.4007 -0.2496 -0.0155
  980MOL0     C29273   6.482   5.034   7.580 -0.4693  0.2925 -0.9683
  980MOL0     C29274   6.518   5.022   7.452 -0.4036  0.3249 -0.0754
  980MOL0     O29275   6.547   4.916   7.174  0.6301 -0.1364 -0.0982
  980MOL0     C29276   6.858   5.021   7.064  0.1845  0.7020 -0.1429
  980MOL0     C29277   6.947   4.995   6.960 -0.2983  0.3509 -1.1419
  980MOL0     N29278   7.417   4.514   6.797  0.4572 -0.1016 -0.5878
  980MOL0     N29279   7.417   4.382   6.769  0.5788 -1.0946 -1.6345
  980MOL0     C29280   7.118   4.861   6.295  0.0572  0.4953  0.0788
  980MOL0     C29281   7.022   4.964   6.281 -0.0563  0.2521  0.0488
  980MOL0     C29282   6.839   5.373   6.314  0.8719 -0.1987 -0.1003
  980MOL0     C29283   6.736   5.410   6.390  0.3729  0.4455 -0.3694
  980MOL0     C29284   6.669   5.535   6.364 -1.1273  0.1095 -0.3556
  980MOL0     C29285   6.725   5.629   6.269  0.0080  0.8855 -0.6561
  980MOL0     O29286   6.677   5.754   6.269  0.6270  0.1205 -0.6498
  980MOL0     C29287   6.706   5.842   6.161  0.9420  0.8079 -0.0937
  980MOL0     C29288   6.662   5.980   6.205  0.2618 -0.1085  0.3110
  980MOL0     C29289   6.732   6.024   6.331 -0.1903 -0.3697  1.0658
  980MOL0     C29290   6.716   6.175   6.357  0.4522  1.0751 -1.3826
  980MOL0     C29291   6.803   6.205   6.475 -0.4746  0.0252  0.7660
  980MOL0     C29292   6.856   6.246   6.576  0.2015  0.5684  0.3575
  980MOL0     C29293   6.838   5.586   6.201 -0.1177  0.1394  0.1247
  980MOL0     C29294   6.899   5.459   6.224 -0.3254  0.2777 -0.4080
  980MOL0     H29295   7.232   5.225   6.242  1.5169 -0.6958 -0.7277
  980MOL0     H29296   7.400   5.054   6.266  0.4956 -0.3695 -0.2680
  980MOL0     H29297   7.478   4.840   6.156 -1.7974 -0.2896 -2.5235
  980MOL0     H29298   7.375   4.690   6.130 -3.2178  1.3691  2.1211
  980MOL0     H29299   7.605   4.749   6.320 -2.1191  0.0932  1.4988
  980MOL0     H29300   7.623   4.670   6.159 -1.8117  1.6358 -2.5334
  980MOL0     H29301   7.491   4.556   6.420  0.4286 -2.3447  0.6741
  980MOL0     H29302   7.642   4.509   6.350  2.0759  1.4815 -4.4872
  980MOL0     H29303   7.347   4.474   6.263 -0.7328  1.2559 -1.1561
  980MOL0     H29304   7.464   4.486   6.145 -2.1806  2.2603  0.6259
  980MOL0     H29305   7.560   4.267   6.208  2.6930  2.4192  3.2737
  980MOL0     H29306   7.388   4.250   6.199 -3.3447  2.3642  2.1009
  980MOL0     H29307   7.520   4.289   6.475 -0.4356 -0.4330 -0.1959
  980MOL0     H29308   7.483   4.134   6.398  3.4064  1.9260 -1.5506
  980MOL0     H29309   7.257   4.332   6.407 -0.9583 -1.5110 -0.2027
  980MOL0     H29310   7.264   4.161   6.404 -2.6370  1.6912  0.8958
  980MOL0     H29311   7.370   4.178   6.639 -0.6662  0.7393  1.7716
  980MOL0     H29312   7.196   4.219   6.626 -0.3853  1.0112  0.7032
  980MOL0     H29313   7.263   4.536   6.517  0.4264 -0.7710 -0.4930
  980MOL0     H29314   7.406   4.778   6.608 -1.3655  0.5277 -0.0610
  980MOL0     H29315   7.413   4.780   6.781  1.1894 -2.2124  0.6029
  980MOL0     H29316   7.151   4.756   6.775 -1.4996  1.4603 -0.8638
  980MOL0     H29317   7.166   4.773   6.599 -0.3172 -2.1347  0.6842
  980MOL0     H29318   7.239   4.959   6.832 -0.1505 -0.6664 -0.6140
  980MOL0     H29319   7.288   5.000   6.671 -1.3323  3.3188  0.6421
  980MOL0     H29320   7.090   5.012   6.568  0.8657 -0.9946 -0.3899
  980MOL0     H29321   7.046   5.103   6.709  1.3231  0.9747 -0.1342
  980MOL0     H29322   6.742   4.870   6.723 -3.3633  0.8177  1.3144
  980MOL0     H29323   6.572   4.886   6.919 -0.8717  1.6146  1.4109
  980MOL0     H29324   6.843   5.103   7.503  1.6687 -1.9741  2.7182
  980MOL0     H29325   6.776   5.111   7.724  1.1273 -0.9381 -0.6158
  980MOL0     H29326   6.369   4.996   7.853  1.3413 -1.2361  1.8967
  980MOL0     H29327   6.349   5.168   7.830  2.2065  2.4815  0.9069
  980MOL0     H29328   6.468   5.015   8.042  0.1696  0.2697 -1.1918
  980MOL0     H29329   6.315   5.112   8.058 -1.2344  2.1477 -0.2948
  980MOL0     H29330   6.609   5.212   8.047  0.9786  2.5741  1.0263
  980MOL0     H29331   6.502   5.209   8.191 -1.2659 -1.1759 -0.1846
  980MOL0     H29332   6.532   5.431   8.101  0.4624  0.7452 -1.2549
  980MOL0     H29333   6.478   5.373   7.937  2.4724 -0.4893  1.0214
  980MOL0     H29334   6.256   5.316   8.032 -2.1545  1.8973 -1.2459
  980MOL0     H29335   6.286   5.484   8.015  0.9401  0.5808  0.5358
  980MOL0     H29336   6.366   5.371   8.283  0.7786 -2.7085 -2.3893
  980MOL0     H29337   6.196   5.375   8.227 -0.5263  1.1251 -0.6332
  980MOL0     H29338   6.316   5.632   8.203  0.5143 -1.2464 -0.8965
  980MOL0     H29339   6.159   5.575   8.277 -1.4688 -5.7705  1.9822
  980MOL0     H29340   6.304   5.496   8.474 -1.2458  1.1082  0.4786
  980MOL0     H29341   6.304   5.674   8.454 -5.3687  0.4111 -1.6317
  980MOL0     H29342   6.375   5.029   7.597 -0.5406 -1.1281 -1.7330
  980MOL0     H29343   6.439   4.998   7.382  2.5718 -0.7748 -3.3637
  980MOL0     H29344   6.898   5.034   7.163  1.6601  0.7032 -0.7148
  980MOL0     H29345   7.054   5.007   6.964 -0.2438  0.3319 -2.2187
  980MOL0     H29346   7.093   4.760   6.327 -0.5463  0.6740  0.2035
  980MOL0     H29347   6.918   4.936   6.298  0.3676  0.0616  2.9410
  980MOL0     H29348   6.695   5.342   6.464  0.4047  1.6317  0.7861
  980MOL0     H29349   6.585   5.567   6.425  0.0269  1.7414  0.4210
  980MOL0     H29350   6.648   5.817   6.072 -1.3811  2.3640  0.8741
  980MOL0     H29351   6.809   5.850   6.126  0.7203  3.6162 -0.3493
  980MOL0     H29352   6.686   6.047   6.121 -2.8052  0.4260 -0.2765
  980MOL0     H29353   6.554   5.984   6.220  0.5187  0.0378  2.3238
  980MOL0     H29354   6.840   6.005   6.323 -0.2078  0.3373 -3.1349
  980MOL0     H29355   6.686   5.967   6.412 -0.6658  0.2551  1.2413
  980MOL0     H29356   6.751   6.233   6.271  0.9820  0.2691 -1.7278
  980MOL0     H29357   6.614   6.208   6.376  0.2907  0.4948 -1.2071
  980MOL0     H29358   6.891   6.280   6.672 -2.1321  2.7201  0.5773
  980MOL0     H29359   6.887   5.644   6.123 -2.5621 -1.2950 -2.6319
  980MOL0     H29360   6.984   5.436   6.161  0.6996  2.7878 -0.0657
  981MOL0     O29361  10.383   5.052   2.323  0.7731  0.5010 -0.5629
  981MOL0     C29362  10.273   5.109   2.330  0.2302 -0.3490 -0.5183
  981MOL0     O29363  10.216   5.161   2.443 -0.6337 -0.2604 -0.3259
  981MOL0     C29364  10.285   5.201   2.553  0.2018 -0.2057  0.0414
  981MOL0     C29365  10.414   5.259   2.552  1.1412  0.2337 -0.3258
  981MOL0     C29366  10.481   5.293   2.668  0.9763 -0.0454 -0.4454
  981MOL0     C29367  10.420   5.291   2.800  0.9736  0.0611 -0.6063
  981MOL0     O29368  10.487   5.315   2.921 -0.3073  0.5017  1.0267
  981MOL0     C29369  10.578   5.212   2.962 -0.4190 -0.0797  0.5090
  981MOL0     C29370  10.678   5.261   3.063  0.0602  0.6865  1.7037
  981MOL0     C29371  10.770   5.374   3.013 -0.0282  0.7085  0.4439
  981MOL0     C29372  10.854   5.327   2.888  0.2786 -0.5610 -0.3786
  981MOL0     C29373  10.972   5.417   2.853 -0.9510 -0.0075  0.6368
  981MOL0     C29374  11.077   5.359   2.766  0.0630  0.4459  0.0489
  981MOL0     C29375  11.224   5.414   2.784  1.0305  0.0988 -0.2671
  981MOL0     C29376  11.312   5.328   2.882 -0.3733 -0.7376  0.4196
  981MOL0     N29377  11.252   5.313   3.019 -0.7854  0.5220  0.0949
  981MOL0     C29378  11.254   5.419   3.109 -0.1600 -0.4444  0.6566
  981MOL0     C29379  11.157   5.381   3.194  0.3850 -0.6388  0.0717
  981MOL0     C29380  11.104   5.458   3.311  0.0495  0.2706  0.4171
  981MOL0     C29381  11.085   5.354   3.431 -0.5634 -0.4409  0.5176
  981MOL0     C29382  11.053   5.435   3.555  1.0232 -0.8348 -0.0014
  981MOL0     C29383  11.011   5.340   3.665  1.4472 -0.3806 -0.1727
  981MOL0     O29384  11.107   5.237   3.679 -0.1257  0.8376  0.2297
  981MOL0     C29385  11.209   5.253   3.762 -0.2579  0.0239 -0.3751
  981MOL0     C29386  11.301   5.360   3.751 -0.3521 -0.6719  0.4813
  981MOL0     C29387  11.411   5.386   3.835  0.2342  0.0291  0.3579
  981MOL0     C29388  11.430   5.300   3.939 -0.4246 -0.3164  0.1748
  981MOL0     C29389  11.531   5.324   4.047  0.7823 -0.4556  0.6118
  981MOL0     O29390  11.587   5.212   4.100  0.3947  0.3200 -0.2794
  981MOL0     C29391  11.683   5.193   4.199 -0.4377 -0.0194  0.4549
  981MOL0     C29392  11.726   5.287   4.293 -0.3170  0.4768  0.1250
  981MOL0     C29393  11.830   5.251   4.384  0.1911 -0.5636  0.2833
  981MOL0     C29394  11.870   5.118   4.395 -0.6994  0.7675 -0.4659
  981MOL0     O29395  11.964   5.095   4.498  0.1928 -0.0021 -0.1575
  981MOL0     C29396  11.995   4.962   4.544  0.2282  0.0922 -0.1033
  981MOL0     C29397  12.106   4.986   4.654  0.1261  0.2830 -0.6744
  981MOL0     C29398  12.233   5.053   4.605  1.7392  0.2475 -0.0124
  981MOL0     C29399  12.347   5.036   4.692 -0.5249 -1.4042  0.7192
  981MOL0     C29400  12.387   4.894   4.740  0.4164 -0.2947  0.9942
  981MOL0     C29401  12.535   4.877   4.756 -0.2432  0.4492  0.6560
  981MOL0     C29402  12.571   4.743   4.802 -0.0109 -0.4938  0.0744
  981MOL0     C29403  12.711   4.746   4.850 -0.4865 -0.3671  0.1824
  981MOL0    Cl29404  12.832   4.773   4.728  0.6827 -0.3389  0.1843
  981MOL0     C29405  11.831   5.021   4.303 -0.6940 -0.6004  0.0742
  981MOL0     C29406  11.731   5.060   4.208  0.1532 -0.1938 -0.2726
  981MOL0     O29407  11.563   5.439   4.063  0.1606  0.0148 -0.2391
  981MOL0     C29408  11.351   5.180   3.948 -0.7830 -0.3414  0.2293
  981MOL0     C29409  11.241   5.161   3.866 -0.0415 -0.1334 -0.2926
  981MOL0     N29410  11.115   5.254   3.166  0.1112 -0.4801  0.5047
  981MOL0     N29411  11.171   5.215   3.058  0.3875  0.5982 -1.0047
  981MOL0     C29412  10.282   5.241   2.796 -0.6208  0.2979 -0.4895
  981MOL0     C29413  10.214   5.196   2.677 -0.1968 -0.7903  0.1505
  981MOL0     C29414  10.189   5.131   2.208  0.6636  0.1922  0.5245
  981MOL0     C29415  10.044   5.148   2.198  0.6808  0.3876  0.5602
  981MOL0     C29416   9.992   5.181   2.073  0.3701 -0.0104  0.8064
  981MOL0     C29417  10.065   5.189   1.953 -0.2781 -0.0568  1.2782
  981MOL0     O29418  10.028   5.219   1.824  0.2444  0.2440  0.1032
  981MOL0     C29419   9.889   5.238   1.798  0.3489  0.0594  0.5728
  981MOL0     C29420   9.867   5.235   1.643  0.3817 -0.3365 -0.8061
  981MOL0     C29421   9.729   5.296   1.608 -0.6095 -0.2272  0.5300
  981MOL0     C29422   9.706   5.311   1.448 -0.5813  0.6283  0.5076
  981MOL0     C29423   9.733   5.190   1.377  0.4848  0.3165 -0.0215
  981MOL0     C29424   9.762   5.094   1.312 -0.1969  0.2265  0.3766
  981MOL0     C29425  10.204   5.163   1.963  0.3926  0.7448 -0.2174
  981MOL0     C29426  10.267   5.129   2.081 -0.2350  1.7553  0.7704
  981MOL0     H29427  10.460   5.274   2.455  0.2560  0.7716 -0.6756
  981MOL0     H29428  10.583   5.331   2.659  1.9496 -2.0572  1.1857
  981MOL0     H29429  10.639   5.176   2.879  0.5109  0.7730  0.8012
  981MOL0     H29430  10.518   5.135   3.011  0.2676 -0.4625  0.7534
  981MOL0     H29431  10.733   5.172   3.095  1.0050 -0.0864 -1.6366
  981MOL0     H29432  10.625   5.301   3.150 -0.2941 -0.7494  2.1784
  981MOL0     H29433  10.831   5.396   3.101 -1.6549  0.3598  1.7056
  981MOL0     H29434  10.718   5.467   2.988  2.3782  1.3474 -2.8825
  981MOL0     H29435  10.891   5.227   2.911 -0.7474 -1.3037 -1.7654
  981MOL0     H29436  10.787   5.309   2.803  0.8532 -1.0233 -0.7392
  981MOL0     H29437  11.029   5.423   2.946  0.9310 -3.1043 -0.1451
  981MOL0     H29438  10.934   5.510   2.810 -2.3982  1.2877  4.3151
  981MOL0     H29439  11.050   5.378   2.662 -0.1871 -0.5319 -0.0787
  981MOL0     H29440  11.078   5.250   2.777  4.3451 -0.0072 -2.4305
  981MOL0     H29441  11.272   5.435   2.688  1.2846  1.6168  0.1683
  981MOL0     H29442  11.206   5.513   2.828 -1.5344  0.6271 -2.2516
  981MOL0     H29443  11.416   5.362   2.882 -0.5520 -0.1671  1.1477
  981MOL0     H29444  11.314   5.232   2.829  0.3965 -1.5684  1.8991
  981MOL0     H29445  11.315   5.508   3.101  2.1810 -2.0451 -0.2776
  981MOL0     H29446  11.010   5.506   3.282  0.6853  0.8825 -0.6953
  981MOL0     H29447  11.179   5.533   3.340  1.2181 -0.5108 -0.4941
  981MOL0     H29448  11.179   5.304   3.457 -1.3486 -1.6765  1.0983
  981MOL0     H29449  11.019   5.281   3.383 -1.2519 -1.2223  2.5432
  981MOL0     H29450  11.122   5.514   3.587  0.8579  0.7732 -3.2172
  981MOL0     H29451  10.965   5.498   3.535  0.8696  0.1675  3.1650
  981MOL0     H29452  10.913   5.308   3.630  0.7566  1.5463 -0.1302
  981MOL0     H29453  11.006   5.414   3.746  2.0745 -1.1152  0.5568
  981MOL0     H29454  11.291   5.438   3.676  0.5133 -0.2077  0.8241
  981MOL0     H29455  11.490   5.458   3.814  1.2029 -0.7188  1.2997
  981MOL0     H29456  11.671   5.381   4.286 -1.8375 -0.3428  0.5919
  981MOL0     H29457  11.864   5.326   4.454 -0.1202 -0.9447  0.8527
  981MOL0     H29458  12.035   4.900   4.464 -0.3223 -2.8111  1.6944
  981MOL0     H29459  11.903   4.914   4.580 -0.0489 -0.0584 -0.9862
  981MOL0     H29460  12.124   4.892   4.706 -0.2461  0.0981 -0.8776
  981MOL0     H29461  12.057   5.041   4.734  0.4238 -3.0438  2.0119
  981MOL0     H29462  12.219   5.161   4.596  2.7565  0.3075 -1.3010
  981MOL0     H29463  12.256   5.029   4.501 -2.2177 -2.2245 -0.5239
  981MOL0     H29464  12.434   5.084   4.647 -0.3256 -2.7597 -0.3871
  981MOL0     H29465  12.318   5.090   4.783 -2.5601 -2.3412  0.6846
  981MOL0     H29466  12.357   4.823   4.663 -1.9280  0.7337  0.8661
  981MOL0     H29467  12.324   4.880   4.828 -1.6345 -1.7586 -0.5970
  981MOL0     H29468  12.579   4.946   4.829  2.2584 -2.1009  1.7582
  981MOL0     H29469  12.583   4.888   4.659 -2.6513 -0.2924 -0.7038
  981MOL0     H29470  12.500   4.714   4.880 -1.5871 -0.1764 -1.1842
  981MOL0     H29471  12.559   4.666   4.726 -1.1908  0.6723 -0.9848
  981MOL0     H29472  12.712   4.647   4.898  1.7199 -0.2969  0.3727
  981MOL0     H29473  12.738   4.807   4.937 -0.2230  0.3088 -0.3703
  981MOL0     H29474  11.879   4.924   4.304  1.0804  0.2343 -0.5177
  981MOL0     H29475  11.685   4.983   4.147 -0.7532 -0.0501  0.2114
  981MOL0     H29476  11.350   5.134   4.046 -6.0080  0.2038  0.6928
  981MOL0     H29477  11.179   5.073   3.882  1.9347 -0.9787  4.2953
  981MOL0     H29478  10.218   5.249   2.884  0.8509  1.9229  0.4987
  981MOL0     H29479  10.109   5.173   2.670 -0.0108 -3.0615  3.0619
  981MOL0     H29480   9.978   5.137   2.284 -1.1428  1.0843 -0.6733
  981MOL0     H29481   9.886   5.199   2.053 -0.0061  1.1502  3.3944
  981MOL0     H29482   9.877   5.343   1.826 -0.1508  0.1914 -0.1272
  981MOL0     H29483   9.817   5.170   1.844 -2.5857 -0.3967 -4.1037
  981MOL0     H29484   9.949   5.293   1.601 -1.5721  1.0377 -2.9380
  981MOL0     H29485   9.870   5.129   1.616  3.4503 -2.1204  4.9542
  981MOL0     H29486   9.717   5.392   1.659 -4.1667 -0.5399  0.5183
  981MOL0     H29487   9.648   5.235   1.648 -1.4083  0.3309 -0.1970
  981MOL0     H29488   9.607   5.354   1.433 -0.8701 -0.8520 -2.5031
  981MOL0     H29489   9.779   5.378   1.402  0.7288 -1.8552 -1.2751
  981MOL0     H29490   9.782   5.008   1.252 -2.6043  0.7384 -1.3126
  981MOL0     H29491  10.262   5.158   1.871  1.0895 -0.6660  0.2705
  981MOL0     H29492  10.374   5.111   2.077 -0.5715 -0.1928 -0.8130
  982MOL0     O29493  10.808   4.943   2.625  0.1806 -0.6178 -0.4705
  982MOL0     C29494  10.775   4.906   2.739 -0.1596  0.3397  0.9777
  982MOL0     O29495  10.869   4.866   2.827 -0.1398  0.4608  0.6195
  982MOL0     C29496  11.000   4.864   2.801 -0.9030  0.9459 -0.5914
  982MOL0     C29497  11.094   4.934   2.882 -0.2744 -0.2036 -0.0078
  982MOL0     C29498  11.232   4.924   2.869 -0.3707 -0.4719  0.1594
  982MOL0     C29499  11.286   4.849   2.767 -1.0209  0.2907 -0.5162
  982MOL0     O29500  11.420   4.861   2.719 -0.2209 -0.3845  0.1897
  982MOL0     C29501  11.493   4.985   2.724  0.3651 -0.0163 -0.4418
  982MOL0     C29502  11.433   5.076   2.616 -0.0044 -0.3444  0.1026
  982MOL0     C29503  11.529   5.189   2.589 -0.3808  0.2703  0.7644
  982MOL0     C29504  11.471   5.303   2.495  0.0350  0.5430  0.2738
  982MOL0     C29505  11.579   5.350   2.392  0.1782  0.3125  0.3582
  982MOL0     C29506  11.514   5.455   2.294  0.4477  0.6264 -0.2769
  982MOL0     C29507  11.623   5.531   2.213 -0.0481  0.7722 -0.4541
  982MOL0     C29508  11.559   5.628   2.122 -0.5574 -0.3628  0.9981
  982MOL0     N29509  11.668   5.718   2.074  0.1857  0.2936  0.1250
  982MOL0     C29510  11.751   5.680   1.975  0.0514 -0.4136 -0.5785
  982MOL0     C29511  11.850   5.773   1.962  0.5939 -0.1663 -0.4609
  982MOL0     C29512  11.955   5.776   1.852  0.3618 -0.3442  0.8757
  982MOL0     C29513  12.022   5.915   1.833 -0.4883  0.7050 -0.8467
  982MOL0     C29514  12.131   5.911   1.715  0.1732 -0.3770 -0.4390
  982MOL0     C29515  12.213   6.040   1.720 -0.7033 -0.6770  0.7369
  982MOL0     O29516  12.300   6.024   1.612 -0.2709  0.5753 -0.6895
  982MOL0     C29517  12.408   6.113   1.615  0.3771 -0.0975 -0.1839
  982MOL0     C29518  12.534   6.074   1.645  0.3396 -0.0085 -0.1522
  982MOL0     C29519  12.643   6.150   1.640  0.6214 -0.2538 -1.0390
  982MOL0     C29520  12.625   6.272   1.576 -0.4932  0.3142  0.7737
  982MOL0     C29521  12.739   6.353   1.546 -0.5870 -0.3432  0.1697
  982MOL0     O29522  12.845   6.323   1.623 -0.5426  0.1819  0.4788
  982MOL0     C29523  12.970   6.385   1.603 -0.7621  0.3743  0.5782
  982MOL0     C29524  13.040   6.400   1.720  0.3135 -0.1680 -0.7664
  982MOL0     C29525  13.167   6.469   1.713 -0.0891 -1.2445  0.3533
  982MOL0     C29526  13.223   6.503   1.588  0.1574 -0.6898 -0.5128
  982MOL0     O29527  13.351   6.554   1.586  0.1662  0.2382  0.1177
  982MOL0     C29528  13.443   6.471   1.522  0.6459 -0.4486 -0.5286
  982MOL0     C29529  13.592   6.518   1.518 -0.1277  1.6312  0.0215
  982MOL0     C29530  13.643   6.580   1.642 -0.0245 -0.3521  0.0428
  982MOL0     C29531  13.662   6.485   1.767  0.1742  0.4121  0.0168
  982MOL0     C29532  13.743   6.546   1.873  0.6294 -0.0790 -0.8804
  982MOL0     C29533  13.733   6.466   2.015  0.1366  0.2678  0.7513
  982MOL0     C29534  13.816   6.532   2.132 -0.1638 -0.1137  0.5090
  982MOL0     C29535  13.810   6.456   2.260 -1.1172 -0.3110  0.1702
  982MOL0    Cl29536  13.872   6.291   2.227 -0.2446  0.4611 -0.2515
  982MOL0     C29537  13.153   6.469   1.473  0.5283 -0.2872  1.2564
  982MOL0     C29538  13.023   6.418   1.481  0.7866  0.0490 -0.2597
  982MOL0     O29539  12.734   6.447   1.465  0.5859  0.1258  0.6125
  982MOL0     C29540  12.501   6.316   1.550 -0.3444 -0.0965 -0.2076
  982MOL0     C29541  12.389   6.240   1.566  0.1291  0.0374  0.1526
  982MOL0     N29542  11.830   5.852   2.073  0.3228  0.3444 -0.2033
  982MOL0     N29543  11.721   5.824   2.138  0.3151 -0.6851  0.3362
  982MOL0     C29544  11.193   4.784   2.682 -0.8268 -0.2007  0.3003
  982MOL0     C29545  11.056   4.783   2.699  0.2621 -0.3004  0.1794
  982MOL0     C29546  10.634   4.890   2.782 -0.3011 -0.5881  0.1256
  982MOL0     C29547  10.605   4.849   2.911  0.4169  0.8858 -0.6617
  982MOL0     C29548  10.471   4.840   2.959 -0.0911  0.5376  0.1387
  982MOL0     C29549  10.364   4.881   2.876 -0.8133 -0.3451  0.3754
  982MOL0     O29550  10.240   4.909   2.931  0.6868 -0.3993 -0.8313
  982MOL0     C29551  10.169   4.824   3.016 -0.0090  0.3261 -0.4364
  982MOL0     C29552  10.181   4.869   3.167 -0.4983 -0.2342 -0.3913
  982MOL0     C29553  10.064   4.816   3.254  0.7703 -0.1141 -0.0831
  982MOL0     C29554  10.056   4.662   3.277  0.4305 -1.1148 -1.5375
  982MOL0     C29555   9.977   4.639   3.391 -0.9235  1.2691 -0.2211
  982MOL0     C29556   9.903   4.651   3.487 -0.2812  0.4457  0.3003
  982MOL0     C29557  10.396   4.928   2.745 -0.3690 -0.0519 -0.9722
  982MOL0     C29558  10.530   4.925   2.701 -0.9362  0.3664  0.0859
  982MOL0     H29559  11.052   5.006   2.952  2.9756  0.1611  1.7607
  982MOL0     H29560  11.301   4.980   2.931  0.5977 -2.4446  0.9186
  982MOL0     H29561  11.596   4.960   2.697 -0.5423 -2.3376 -2.0597
  982MOL0     H29562  11.498   5.029   2.823  0.1663 -1.5403  0.2766
  982MOL0     H29563  11.335   5.115   2.644 -1.2344 -0.8453 -3.0853
  982MOL0     H29564  11.407   5.027   2.522 -0.5761  0.9516 -0.4256
  982MOL0     H29565  11.620   5.147   2.547  1.8549  3.8741  1.5741
  982MOL0     H29566  11.559   5.245   2.678  4.7725  3.8070 -2.6138
  982MOL0     H29567  11.386   5.265   2.437 -0.2312  3.1142 -1.1893
  982MOL0     H29568  11.441   5.382   2.565  0.1939  3.0527 -2.3032
  982MOL0     H29569  11.605   5.257   2.342  3.7532  1.1614  0.3956
  982MOL0     H29570  11.669   5.389   2.441  1.0999  0.1343 -1.1344
  982MOL0     H29571  11.450   5.519   2.356 -0.7020 -0.8330  0.1111
  982MOL0     H29572  11.448   5.396   2.229 -1.2023  0.3135  1.5698
  982MOL0     H29573  11.705   5.573   2.272  0.0927 -2.7858  2.1955
  982MOL0     H29574  11.675   5.458   2.150 -2.4443 -0.4641 -1.1230
  982MOL0     H29575  11.496   5.687   2.189  2.7191  2.7403  1.6512
  982MOL0     H29576  11.509   5.580   2.038  0.2596 -0.7786  0.7323
  982MOL0     H29577  11.755   5.586   1.920 -1.7876 -0.8058 -0.1365
  982MOL0     H29578  11.912   5.744   1.757  1.2061 -1.7405  0.9470
  982MOL0     H29579  12.026   5.694   1.865  0.5305 -1.0007 -3.1067
  982MOL0     H29580  12.063   5.956   1.926 -0.9878  2.3516 -1.3135
  982MOL0     H29581  11.943   5.990   1.822  0.3823  2.4526  2.8334
  982MOL0     H29582  12.196   5.824   1.729  1.4868  0.4402 -1.2719
  982MOL0     H29583  12.082   5.899   1.618 -1.6182 -2.1226  0.6067
  982MOL0     H29584  12.262   6.042   1.818 -1.6857  1.3779  1.2535
  982MOL0     H29585  12.164   6.136   1.699  1.2901  1.1563  3.6865
  982MOL0     H29586  12.557   5.973   1.677 -0.2714 -1.2693 -3.3300
  982MOL0     H29587  12.742   6.113   1.660  1.6495  2.6869 -0.1295
  982MOL0     H29588  12.981   6.372   1.806 -0.5248  1.2884 -0.8397
  982MOL0     H29589  13.210   6.497   1.809 -3.9800  0.0164  1.9356
  982MOL0     H29590  13.409   6.462   1.418 -1.2190 -0.0710  0.0096
  982MOL0     H29591  13.438   6.371   1.566  3.2942 -0.2205  0.4607
  982MOL0     H29592  13.598   6.597   1.442 -0.2945 -1.5687 -3.6538
  982MOL0     H29593  13.644   6.431   1.478 -3.7319 -0.4688 -0.4481
  982MOL0     H29594  13.569   6.647   1.687 -0.9361 -0.6253 -1.0099
  982MOL0     H29595  13.730   6.642   1.618  0.1146 -1.9200 -4.2832
  982MOL0     H29596  13.566   6.448   1.802 -0.4814  1.0742 -1.0406
  982MOL0     H29597  13.715   6.392   1.742 -1.8547 -1.4048  2.0456
  982MOL0     H29598  13.716   6.651   1.891  2.6922  0.4703 -0.6757
  982MOL0     H29599  13.848   6.559   1.845  1.0798 -1.0101  0.2670
  982MOL0     H29600  13.771   6.365   1.995 -0.4668  0.3699 -1.0427
  982MOL0     H29601  13.630   6.450   2.049 -0.7370  2.3814 -0.7145
  982MOL0     H29602  13.917   6.559   2.101 -0.0521  0.7229  1.5289
  982MOL0     H29603  13.779   6.634   2.136 -0.2698 -0.1208 -0.2254
  982MOL0     H29604  13.709   6.451   2.302  0.4385 -1.0765  4.3550
  982MOL0     H29605  13.881   6.512   2.323  0.6773  0.5383 -2.4433
  982MOL0     H29606  13.201   6.486   1.378  0.1821 -0.1737  1.1000
  982MOL0     H29607  12.963   6.396   1.393  2.7384 -1.2099 -1.3602
  982MOL0     H29608  12.488   6.419   1.517  0.7069 -0.7339 -2.8691
  982MOL0     H29609  12.290   6.271   1.537  0.6979  1.1487 -0.6614
  982MOL0     H29610  11.223   4.726   2.595 -1.8468  1.0550 -0.9409
  982MOL0     H29611  10.984   4.727   2.641  2.0046 -3.0304  0.4453
  982MOL0     H29612  10.689   4.825   2.975 -0.0646  0.9122 -0.0083
  982MOL0     H29613  10.445   4.807   3.059 -0.1087 -0.4584 -0.1778
  982MOL0     H29614  10.193   4.720   2.991 -1.8446 -0.0271 -0.8505
  982MOL0     H29615  10.062   4.827   2.994 -0.1879 -2.2850 -0.2110
  982MOL0     H29616  10.280   4.839   3.202  1.0723  3.4411 -1.1499
  982MOL0     H29617  10.164   4.977   3.179 -2.7102 -0.7594  1.8586
  982MOL0     H29618   9.972   4.850   3.206 -0.3564 -0.8900  1.3991
  982MOL0     H29619  10.089   4.864   3.349  4.0580 -0.5355 -0.6478
  982MOL0     H29620  10.016   4.619   3.185  1.7496 -0.1325 -2.6002
  982MOL0     H29621  10.158   4.629   3.302  0.0513 -0.2632  1.6091
  982MOL0     H29622   9.834   4.667   3.568 -2.1215  1.1487 -1.3462
  982MOL0     H29623  10.308   4.953   2.687 -0.7003 -0.9561 -0.8666
  982MOL0     H29624  10.554   4.956   2.600  2.3565 -0.5070  0.4710
  983MOL0     O29625   9.917   5.370   7.849 -0.2256  0.8572  0.3659
  983MOL0     C29626   9.945   5.472   7.793  0.6470 -0.3003 -1.0725
  983MOL0     O29627   9.864   5.583   7.783 -0.4868  0.2484 -0.5337
  983MOL0     C29628   9.751   5.581   7.861 -0.7252  0.3720  0.3779
  983MOL0     C29629   9.640   5.518   7.810 -0.0401 -0.0557  0.7821
  983MOL0     C29630   9.523   5.526   7.887 -0.2639 -0.4267 -0.3567
  983MOL0     C29631   9.519   5.594   8.017  0.5558 -0.8888 -0.1441
  983MOL0     O29632   9.401   5.595   8.087 -0.1868 -1.1014 -0.1289
  983MOL0     C29633   9.384   5.623   8.218  0.1482  0.1368  0.1744
  983MOL0     C29634   9.262   5.553   8.259 -0.2336  0.1865  0.6640
  983MOL0     C29635   9.270   5.536   8.409 -0.6527 -0.5164 -1.1609
  983MOL0     C29636   9.129   5.485   8.470 -0.1429  0.0739 -0.2375
  983MOL0     C29637   9.128   5.485   8.621 -0.0478 -0.0205 -0.9846
  983MOL0     C29638   9.004   5.417   8.694  0.6825  0.3916  0.2827
  983MOL0     C29639   8.868   5.426   8.611  0.0938  0.4147  0.3911
  983MOL0     C29640   8.815   5.562   8.600 -0.3064  0.8809 -0.6051
  983MOL0     N29641   8.693   5.569   8.519 -0.5475  0.4002 -0.2977
  983MOL0     C29642   8.559   5.560   8.562 -1.1452 -0.4573 -0.4287
  983MOL0     C29643   8.487   5.540   8.450 -0.8870  0.1664 -0.3110
  983MOL0     C29644   8.339   5.542   8.449  1.3009  0.1124 -0.0933
  983MOL0     C29645   8.279   5.670   8.388 -0.3497  0.0616  0.4496
  983MOL0     C29646   8.313   5.790   8.478  0.0198 -0.1623 -1.1998
  983MOL0     C29647   8.251   5.773   8.618  0.1626 -0.4487 -0.4041
  983MOL0     O29648   8.109   5.817   8.624 -0.1567  0.7168 -0.4483
  983MOL0     C29649   8.082   5.952   8.618 -0.1104 -0.7208  0.1093
  983MOL0     C29650   8.179   6.050   8.640  0.0478 -0.5687  0.6995
  983MOL0     C29651   8.150   6.181   8.644  0.2573 -0.1750  0.0294
  983MOL0     C29652   8.023   6.225   8.617  0.5849 -0.9138 -0.2452
  983MOL0     C29653   7.991   6.368   8.613  0.5958  0.3044 -1.0047
  983MOL0     O29654   7.855   6.400   8.583  0.4315  0.0393 -0.7497
  983MOL0     C29655   7.823   6.525   8.588 -1.0783 -0.7832  0.2035
  983MOL0     C29656   7.824   6.605   8.480  0.4707  0.4861  0.0362
  983MOL0     C29657   7.790   6.745   8.494  0.0276  0.5039  0.6167
  983MOL0     C29658   7.792   6.808   8.619 -0.3494 -0.1858 -0.2686
  983MOL0     O29659   7.795   6.945   8.613  1.1162  0.5672 -0.5688
  983MOL0     C29660   7.864   7.013   8.718 -0.2626  0.3343 -0.6349
  983MOL0     C29661   7.923   7.153   8.668  0.4995 -0.2079 -0.3263
  983MOL0     C29662   7.998   7.157   8.528  0.2520 -0.5092  0.8150
  983MOL0     C29663   8.085   7.286   8.509 -0.4737  0.4702  0.1797
  983MOL0     C29664   8.155   7.285   8.374  0.0141  0.0270  0.8758
  983MOL0     C29665   8.256   7.173   8.370  0.0134 -0.4718  0.2078
  983MOL0     C29666   8.333   7.161   8.226  0.5134 -0.6852  0.0691
  983MOL0     C29667   8.425   7.040   8.224 -0.7702  1.0523 -1.1921
  983MOL0    Cl29668   8.577   7.060   8.318  0.2615  0.4676  0.0912
  983MOL0     C29669   7.809   6.729   8.726  0.0216  1.3507  0.6459
  983MOL0     C29670   7.822   6.590   8.716 -0.2675  0.0573 -0.1091
  983MOL0     O29671   8.080   6.447   8.644 -0.1076 -0.1016  0.4546
  983MOL0     C29672   7.917   6.131   8.600  0.1605  0.0104  0.9424
  983MOL0     C29673   7.949   5.994   8.601 -0.5506  0.2615  0.2087
  983MOL0     N29674   8.568   5.556   8.339  0.5278 -0.0904 -0.0868
  983MOL0     N29675   8.694   5.568   8.382  0.5190  0.7639 -0.0307
  983MOL0     C29676   9.633   5.663   8.061  0.4183 -0.3614  0.3990
  983MOL0     C29677   9.742   5.663   7.977 -0.9497  0.2548  0.7985
  983MOL0     C29678  10.065   5.459   7.712  0.1367  0.9352 -0.2594
  983MOL0     C29679  10.134   5.335   7.684  0.2505 -0.5995  0.4119
  983MOL0     C29680  10.245   5.326   7.601  0.3656  0.5484 -0.5046
  983MOL0     C29681  10.292   5.444   7.541 -0.6087 -0.0660 -0.7495
  983MOL0     O29682  10.404   5.458   7.461 -0.7454  0.0088  0.8816
  983MOL0     C29683  10.457   5.333   7.420 -0.5270 -0.3326 -0.3289
  983MOL0     C29684  10.569   5.350   7.307  0.9833 -0.5084  0.2581
  983MOL0     C29685  10.514   5.412   7.174  0.0512  0.3153 -0.2820
  983MOL0     C29686  10.628   5.447   7.076 -0.6636  0.6130  0.1627
  983MOL0     C29687  10.673   5.313   7.032  0.8826  0.4202  0.0504
  983MOL0     C29688  10.683   5.200   6.982 -1.0230  0.5467 -0.3687
  983MOL0     C29689  10.227   5.560   7.562 -0.4671 -0.5491 -0.1885
  983MOL0     C29690  10.107   5.568   7.644  0.5487 -0.1408  0.2019
  983MOL0     H29691   9.626   5.464   7.717 -4.6918 -0.3036  1.4270
  983MOL0     H29692   9.435   5.475   7.849  2.0145 -3.1165 -2.4250
  983MOL0     H29693   9.361   5.730   8.225 -0.0176  0.5634 -3.9599
  983MOL0     H29694   9.470   5.592   8.277  0.5107 -1.2582 -1.0113
  983MOL0     H29695   9.258   5.454   8.212 -2.7100  0.1570  0.8199
  983MOL0     H29696   9.174   5.609   8.227 -1.1662 -1.8609 -0.5223
  983MOL0     H29697   9.290   5.633   8.454  1.5069 -0.9428 -1.0936
  983MOL0     H29698   9.351   5.471   8.443 -1.2959 -1.1211 -0.7463
  983MOL0     H29699   9.067   5.568   8.434  1.0134 -0.0797 -2.8506
  983MOL0     H29700   9.103   5.390   8.422 -0.2628 -1.7408  3.1435
  983MOL0     H29701   9.139   5.591   8.648 -1.2479  0.1558 -1.1716
  983MOL0     H29702   9.215   5.430   8.659 -1.6396 -1.5433  0.6458
  983MOL0     H29703   8.994   5.456   8.795 -0.5188  0.3518  0.1932
  983MOL0     H29704   9.019   5.309   8.693  0.2521  0.3271 -0.9547
  983MOL0     H29705   8.900   5.389   8.514 -1.9025 -3.6282  1.0700
  983MOL0     H29706   8.792   5.357   8.649 -0.8162  2.1865  1.9724
  983MOL0     H29707   8.889   5.624   8.550  0.0333  0.4666 -0.6166
  983MOL0     H29708   8.813   5.604   8.701  1.7665 -2.0901  0.8119
  983MOL0     H29709   8.518   5.562   8.662 -2.2206 -0.5124 -0.8469
  983MOL0     H29710   8.296   5.519   8.547 -1.3135 -1.4844 -1.5105
  983MOL0     H29711   8.314   5.455   8.387  0.6109  1.1579 -1.3309
  983MOL0     H29712   8.173   5.643   8.387 -0.3579  0.0825  0.7360
  983MOL0     H29713   8.326   5.674   8.289  1.5707 -2.9421  1.0996
  983MOL0     H29714   8.422   5.796   8.490  0.4228 -2.4390 -3.0179
  983MOL0     H29715   8.275   5.878   8.425  0.1823 -1.1081 -2.9483
  983MOL0     H29716   8.310   5.827   8.693 -3.3699  1.7358  1.0877
  983MOL0     H29717   8.251   5.672   8.659  1.5098 -1.4711 -2.7487
  983MOL0     H29718   8.282   6.022   8.660  0.4653  0.2277 -0.2377
  983MOL0     H29719   8.235   6.247   8.655  0.3925 -0.0512 -1.5459
  983MOL0     H29720   7.837   6.566   8.380  0.3843 -2.0079  0.9090
  983MOL0     H29721   7.803   6.819   8.416 -0.5654 -0.9487 -0.9118
  983MOL0     H29722   7.948   6.947   8.740  1.3476  1.2928 -3.4980
  983MOL0     H29723   7.797   7.029   8.803 -2.1423 -2.4409 -1.4443
  983MOL0     H29724   7.996   7.181   8.745 -1.3381  2.2567  0.6563
  983MOL0     H29725   7.839   7.222   8.662 -1.6275 -2.7762 -2.8160
  983MOL0     H29726   7.928   7.138   8.446  2.8781  0.6366 -1.8649
  983MOL0     H29727   8.064   7.070   8.531  0.2086 -0.6854 -1.6177
  983MOL0     H29728   8.023   7.376   8.516 -2.7719 -1.0715  1.0131
  983MOL0     H29729   8.158   7.287   8.590 -1.4646 -1.6730  1.1945
  983MOL0     H29730   8.212   7.378   8.359 -1.0364  0.2466 -2.5965
  983MOL0     H29731   8.080   7.285   8.294 -0.7778 -2.1621  1.5513
  983MOL0     H29732   8.212   7.078   8.400 -0.9972  0.0536  0.4493
  983MOL0     H29733   8.334   7.199   8.442 -0.4596  0.8323  0.2934
  983MOL0     H29734   8.264   7.151   8.141  2.0153 -4.4144 -0.9067
  983MOL0     H29735   8.400   7.247   8.213 -0.1251 -0.4062 -1.7543
  983MOL0     H29736   8.476   7.029   8.128  0.4600 -0.9943 -0.3777
  983MOL0     H29737   8.371   6.950   8.254  3.1305 -0.2785  3.1622
  983MOL0     H29738   7.808   6.774   8.825 -3.4352  1.7942  0.5293
  983MOL0     H29739   7.823   6.526   8.804  0.2107  1.7735  1.1862
  983MOL0     H29740   7.813   6.147   8.574  0.4381 -2.4120 -2.3437
  983MOL0     H29741   7.868   5.925   8.578  0.3125 -0.5981 -0.3552
  983MOL0     H29742   9.618   5.713   8.156  0.0766 -3.1822  1.9285
  983MOL0     H29743   9.834   5.718   7.990  1.4724 -3.0334 -0.7441
  983MOL0     H29744  10.085   5.248   7.727 -1.3341  0.0588  0.0438
  983MOL0     H29745  10.287   5.227   7.584  2.6129  1.5302 -1.0681
  983MOL0     H29746  10.376   5.281   7.369 -1.0448  0.3945 -0.2620
  983MOL0     H29747  10.493   5.267   7.500 -0.8166 -2.1121 -1.5981
  983MOL0     H29748  10.656   5.410   7.335  0.1970  3.0526 -3.7804
  983MOL0     H29749  10.586   5.246   7.279  0.7797 -0.3142 -0.6373
  983MOL0     H29750  10.475   5.511   7.197  0.0384  0.3724 -0.5510
  983MOL0     H29751  10.440   5.347   7.124 -0.2645  2.0042 -2.1421
  983MOL0     H29752  10.590   5.490   6.983  0.1256 -2.1387 -1.5616
  983MOL0     H29753  10.694   5.518   7.125 -2.0628  1.1263  1.4086
  983MOL0     H29754  10.685   5.106   6.931 -1.0957  2.4594 -4.2837
  983MOL0     H29755  10.262   5.647   7.507  0.8726 -1.0156 -0.1194
  983MOL0     H29756  10.051   5.661   7.653  0.9464  0.0971  0.2527
  984MOL0     O29757  10.748   4.931   8.709  0.4598  0.3396  0.2825
  984MOL0     C29758  10.730   4.847   8.622  0.2630  1.1026  0.3168
  984MOL0     O29759  10.765   4.856   8.495  0.9074 -0.3011  0.1856
  984MOL0     C29760  10.871   4.933   8.454 -0.1910 -0.3083  0.2668
  984MOL0     C29761  10.989   4.871   8.422 -0.3488  0.2766  0.6394
  984MOL0     C29762  11.099   4.940   8.386  0.5608  0.1687 -0.3238
  984MOL0     C29763  11.095   5.072   8.397 -0.7247  0.8400 -0.0519
  984MOL0     O29764  11.219   5.129   8.370 -0.1189  0.5349  0.1749
  984MOL0     C29765  11.227   5.277   8.370  0.8151  1.0845  1.0801
  984MOL0     C29766  11.171   5.334   8.235  0.8845 -0.5041 -0.7167
  984MOL0     C29767  11.128   5.481   8.262  0.2017  0.3024  0.0150
  984MOL0     C29768  11.108   5.546   8.124 -1.1155  0.2537  0.1708
  984MOL0     C29769  11.052   5.692   8.143  0.4312  0.5760  0.2925
  984MOL0     C29770  11.036   5.766   8.008  0.1657  0.7064  0.9460
  984MOL0     C29771  11.011   5.916   8.035 -0.4781  0.2414  0.1194
  984MOL0     C29772  10.886   5.954   8.090  0.2024  0.3261  0.1314
  984MOL0     N29773  10.823   6.063   8.018  0.0908 -0.4725 -0.8010
  984MOL0     C29774  10.702   6.055   7.958  0.5180  0.1533  0.2161
  984MOL0     C29775  10.651   6.182   7.961 -0.3627 -0.4073  0.7429
  984MOL0     C29776  10.519   6.232   7.900  0.3522  0.7940 -0.0535
  984MOL0     C29777  10.469   6.365   7.958  0.2459  1.0349  0.2129
  984MOL0     C29778  10.398   6.330   8.085 -0.9010  0.3045  0.2033
  984MOL0     C29779  10.314   6.440   8.140  1.2669 -0.0859 -0.9057
  984MOL0     O29780  10.249   6.396   8.258 -0.5143  0.2548  0.0520
  984MOL0     C29781  10.146   6.462   8.317 -0.0859 -0.3556  0.1680
  984MOL0     C29782  10.082   6.577   8.266  0.7294 -0.0797  0.0386
  984MOL0     C29783   9.968   6.627   8.326 -0.4153 -0.8379 -0.2192
  984MOL0     C29784   9.906   6.569   8.435 -0.4319 -0.1080  0.2126
  984MOL0     C29785   9.779   6.615   8.485  1.9494 -0.0651  0.5374
  984MOL0     O29786   9.722   6.722   8.433 -0.1709 -0.4221 -0.4364
  984MOL0     C29787   9.596   6.760   8.478  0.0086  0.6549 -0.1748
  984MOL0     C29788   9.482   6.679   8.450  1.0225  0.8372  0.2577
  984MOL0     C29789   9.354   6.724   8.492  0.0928  0.2383 -0.0761
  984MOL0     C29790   9.344   6.851   8.543  0.5225 -0.1828  0.7984
  984MOL0     O29791   9.230   6.910   8.591  0.3409  0.8533 -0.3994
  984MOL0     C29792   9.097   6.869   8.549 -0.1871 -0.0579  1.1133
  984MOL0     C29793   8.991   6.974   8.594  0.3889 -0.1648 -0.6651
  984MOL0     C29794   8.847   6.933   8.566 -0.0110 -0.6178  0.4241
  984MOL0     C29795   8.815   6.812   8.644  0.3590  0.2091  0.1209
  984MOL0     C29796   8.666   6.784   8.639  0.3518 -0.2314  0.5301
  984MOL0     C29797   8.580   6.888   8.717 -0.6831 -1.1295  0.6751
  984MOL0     C29798   8.439   6.829   8.719 -0.3271  0.3823 -1.4272
  984MOL0     C29799   8.374   6.769   8.592  0.7537 -0.2020  0.8587
  984MOL0    Cl29800   8.189   6.784   8.602  0.1282 -0.4427 -0.5770
  984MOL0     C29801   9.457   6.936   8.571  0.8205  0.7680 -0.5046
  984MOL0     C29802   9.582   6.881   8.539  0.0111 -0.4614  0.6314
  984MOL0     O29803   9.728   6.554   8.580  0.8863 -0.6446 -0.2134
  984MOL0     C29804   9.969   6.459   8.491 -0.6139  0.5494  0.9742
  984MOL0     C29805  10.084   6.406   8.422 -0.4948 -0.0400  0.8382
  984MOL0     N29806  10.748   6.271   8.014 -0.3090  0.6238  0.5169
  984MOL0     N29807  10.839   6.194   8.049  0.5459 -0.3160  1.6519
  984MOL0     C29808  10.982   5.139   8.454 -0.8458  0.8280 -0.4222
  984MOL0     C29809  10.866   5.066   8.474 -1.1900 -0.1980 -0.1005
  984MOL0     C29810  10.679   4.718   8.696 -0.5406 -0.2995  0.1121
  984MOL0     C29811  10.554   4.705   8.752  0.8037  0.2544 -0.1245
  984MOL0     C29812  10.497   4.583   8.802 -0.4233  0.4579  0.4168
  984MOL0     C29813  10.573   4.466   8.788 -0.4000  0.2930  0.5381
  984MOL0     O29814  10.559   4.335   8.829  0.2155 -0.6333  0.7752
  984MOL0     C29815  10.429   4.302   8.874 -1.2178  0.8217 -0.0915
  984MOL0     C29816  10.330   4.231   8.778  0.5169  0.8164  0.3362
  984MOL0     C29817  10.293   4.325   8.666 -0.5216 -0.1228 -0.1657
  984MOL0     C29818  10.154   4.312   8.617  0.0315  0.1678  0.4991
  984MOL0     C29819  10.108   4.184   8.579  0.4521  0.3597 -0.3221
  984MOL0     C29820  10.060   4.088   8.525  0.8720 -0.5352  0.3965
  984MOL0     C29821  10.703   4.484   8.718  0.8059 -0.7101  0.2080
  984MOL0     C29822  10.757   4.610   8.675  0.9570  0.2380  0.4063
  984MOL0     H29823  11.005   4.764   8.412 -1.3284  0.1150  0.7053
  984MOL0     H29824  11.192   4.888   8.363  1.6520 -0.1391  3.9820
  984MOL0     H29825  11.328   5.313   8.352  0.3668  1.0628 -2.1407
  984MOL0     H29826  11.187   5.322   8.461  0.2928 -0.3466  1.5841
  984MOL0     H29827  11.085   5.276   8.201 -0.3814  0.4478  0.7096
  984MOL0     H29828  11.247   5.333   8.156  0.6800  3.6837 -1.2034
  984MOL0     H29829  11.218   5.516   8.313  1.1479 -0.1653 -1.2800
  984MOL0     H29830  11.041   5.477   8.328  0.9765  2.2895  1.2411
  984MOL0     H29831  11.206   5.542   8.075  0.2237 -0.6029  2.7561
  984MOL0     H29832  11.033   5.488   8.071  0.0089 -0.8003 -0.3209
  984MOL0     H29833  11.112   5.744   8.219  2.6575 -2.2230  0.5937
  984MOL0     H29834  10.951   5.693   8.186 -0.0360  1.5956 -0.7706
  984MOL0     H29835  10.961   5.718   7.944  0.7049  1.8396 -0.5811
  984MOL0     H29836  11.130   5.759   7.953 -1.4434  0.1712 -1.9145
  984MOL0     H29837  11.089   5.954   8.101 -0.2331  1.3110 -0.7418
  984MOL0     H29838  11.031   5.967   7.940  0.2003 -1.2270 -0.5584
  984MOL0     H29839  10.891   5.974   8.198 -1.8039 -0.4357  0.4174
  984MOL0     H29840  10.814   5.871   8.086  1.6118 -0.8956 -1.2463
  984MOL0     H29841  10.658   5.969   7.908 -0.3388  1.1187 -0.7357
  984MOL0     H29842  10.450   6.150   7.922  1.7601 -1.5155 -3.3081
  984MOL0     H29843  10.532   6.236   7.792  1.5909  0.9374  0.0878
  984MOL0     H29844  10.405   6.414   7.884 -0.6206 -0.7410 -0.2756
  984MOL0     H29845  10.550   6.436   7.974  2.2122 -0.8267 -1.0263
  984MOL0     H29846  10.341   6.237   8.080 -1.0883  0.3830  0.7776
  984MOL0     H29847  10.479   6.308   8.156 -0.1883  0.1536 -0.6421
  984MOL0     H29848  10.238   6.466   8.066  0.7438  2.7276  0.5088
  984MOL0     H29849  10.380   6.522   8.168 -3.7569  3.3382  2.5455
  984MOL0     H29850  10.121   6.628   8.179  2.1842  1.0972  1.3312
  984MOL0     H29851   9.921   6.717   8.285  0.9157  0.8056  1.6839
  984MOL0     H29852   9.492   6.579   8.409  2.9547  0.0979  2.3928
  984MOL0     H29853   9.268   6.657   8.492  0.0653  0.2588 -1.2853
  984MOL0     H29854   9.076   6.778   8.606 -0.4728 -1.8597 -1.6764
  984MOL0     H29855   9.098   6.850   8.441  0.2140  2.3547  0.6283
  984MOL0     H29856   9.019   7.067   8.545 -2.5362 -0.1533 -2.5432
  984MOL0     H29857   9.000   6.990   8.702  1.5484  0.9640 -0.9039
  984MOL0     H29858   8.838   6.899   8.463  1.0493 -0.1540  0.1612
  984MOL0     H29859   8.786   7.021   8.589  2.5669  2.1188 -2.2892
  984MOL0     H29860   8.863   6.724   8.600 -3.4646 -1.1671 -1.7263
  984MOL0     H29861   8.853   6.823   8.746  0.5465 -2.4176  0.4209
  984MOL0     H29862   8.639   6.684   8.675  0.6696 -0.5395 -0.0871
  984MOL0     H29863   8.641   6.799   8.533 -0.3797 -0.4406  0.6660
  984MOL0     H29864   8.572   6.985   8.667  2.6463 -0.7974  0.5185
  984MOL0     H29865   8.627   6.905   8.814  0.2074  0.0795  0.0532
  984MOL0     H29866   8.440   6.759   8.804  0.1857 -0.2769 -1.9569
  984MOL0     H29867   8.384   6.914   8.760  1.2905  0.4568  0.8100
  984MOL0     H29868   8.392   6.661   8.594 -1.5003 -0.6762 -0.8276
  984MOL0     H29869   8.411   6.819   8.502  1.1395 -1.4360  0.3146
  984MOL0     H29870   9.454   7.034   8.618  1.3856  0.5753 -0.0523
  984MOL0     H29871   9.669   6.945   8.545  0.5539 -0.4905 -3.7203
  984MOL0     H29872   9.915   6.406   8.569 -1.0216 -2.8446 -1.4167
  984MOL0     H29873  10.121   6.309   8.454 -0.0662 -0.0827  0.2284
  984MOL0     H29874  10.982   5.247   8.466  4.1541  1.3216 -2.5370
  984MOL0     H29875  10.775   5.115   8.506 -0.8798  0.9121 -0.8787
  984MOL0     H29876  10.471   4.775   8.756 -0.7708 -1.5736  1.0739
  984MOL0     H29877  10.403   4.599   8.854  0.9659  2.9438  2.3526
  984MOL0     H29878  10.360   4.380   8.907 -1.1077 -0.1520  2.6907
  984MOL0     H29879  10.463   4.237   8.956  0.7705  0.8321 -0.8584
  984MOL0     H29880  10.375   4.141   8.735  1.5231  0.6427  1.7279
  984MOL0     H29881  10.254   4.190   8.844  3.4486 -2.6527  1.8546
  984MOL0     H29882  10.354   4.305   8.577 -3.6376 -1.9142 -2.0792
  984MOL0     H29883  10.312   4.429   8.692  0.8591 -0.3986  0.0225
  984MOL0     H29884  10.085   4.365   8.683  0.2145  0.8794  0.1174
  984MOL0     H29885  10.152   4.354   8.516 -5.4557 -3.1134 -1.2014
  984MOL0     H29886  10.028   3.997   8.479 -0.7000 -0.7343  1.7752
  984MOL0     H29887  10.770   4.399   8.704 -0.0096 -1.7538  2.2713
  984MOL0     H29888  10.850   4.623   8.621  0.4818 -2.3510 -1.2413
  985MOL0     O29889   4.167  10.744   0.457  0.1301  0.0079 -0.0129
  985MOL0     C29890   4.205  10.755   0.572  0.1145 -0.1660 -0.4149
  985MOL0     O29891   4.157  10.848   0.665 -0.4493  0.3003  0.3392
  985MOL0     C29892   4.055  10.938   0.633 -0.0284 -0.3674  0.1775
  985MOL0     C29893   4.069  11.071   0.685  0.5213  0.6926 -0.1237
  985MOL0     C29894   3.957  11.154   0.681  0.4451 -0.3531  0.5523
  985MOL0     C29895   3.828  11.113   0.631 -0.4494 -0.1446 -0.5054
  985MOL0     O29896   3.734  11.212   0.632  0.2288 -0.3414 -0.5101
  985MOL0     C29897   3.600  11.178   0.605 -0.3838 -0.9405 -0.2930
  985MOL0     C29898   3.503  11.293   0.651 -0.9421  0.1120  0.8162
  985MOL0     C29899   3.363  11.257   0.690 -0.6039  0.2643  0.3172
  985MOL0     C29900   3.255  11.262   0.587 -1.2326  1.1873  0.6052
  985MOL0     C29901   3.119  11.240   0.642 -0.5970 -1.5363 -0.5449
  985MOL0     C29902   3.006  11.202   0.545 -0.9287 -0.7406 -0.1184
  985MOL0     C29903   2.873  11.230   0.617  2.0259 -0.5882  0.4413
  985MOL0     C29904   2.819  11.121   0.714  0.3752  0.3058 -0.1425
  985MOL0     N29905   2.673  11.103   0.711 -0.0577  0.0675  0.6922
  985MOL0     C29906   2.581  11.169   0.777  0.7968 -0.6253 -0.3100
  985MOL0     C29907   2.458  11.113   0.748  0.2949 -0.0509 -0.5274
  985MOL0     C29908   2.321  11.163   0.785 -0.0068  0.5437 -0.3550
  985MOL0     C29909   2.278  11.145   0.928 -0.2451  0.1265 -0.1587
  985MOL0     C29910   2.347  11.030   0.998 -0.4345 -0.0693 -0.3075
  985MOL0     C29911   2.334  11.059   1.142 -0.5636  0.4269 -0.7500
  985MOL0     O29912   2.404  10.941   1.203  0.1657  0.6465  0.3100
  985MOL0     C29913   2.539  10.946   1.248  0.6871 -0.4082  0.1044
  985MOL0     C29914   2.623  11.055   1.229 -0.2891  0.4412  0.6877
  985MOL0     C29915   2.751  11.059   1.269 -0.4163 -0.0770 -0.7033
  985MOL0     C29916   2.821  10.953   1.335  0.4143  0.1997 -1.1658
  985MOL0     C29917   2.955  10.951   1.385 -0.9646 -0.1573 -0.2113
  985MOL0     O29918   3.026  11.063   1.341  0.5876 -0.2139  0.4892
  985MOL0     C29919   3.149  11.087   1.390 -0.5575  0.3277 -1.0081
  985MOL0     C29920   3.180  11.209   1.448 -0.0423  0.0737  0.0065
  985MOL0     C29921   3.307  11.244   1.486 -0.8240  1.0443  1.0850
  985MOL0     C29922   3.414  11.153   1.462  0.3567 -0.3319  0.5771
  985MOL0     O29923   3.539  11.190   1.484  0.1927 -0.1331  0.1661
  985MOL0     C29924   3.616  11.105   1.574 -1.0403 -0.0875  0.6698
  985MOL0     C29925   3.738  11.184   1.618 -0.2051 -0.4406 -0.3629
  985MOL0     C29926   3.850  11.112   1.696 -0.7133 -0.0601 -0.4650
  985MOL0     C29927   3.939  11.220   1.778  0.3489 -0.3726  0.0676
  985MOL0     C29928   4.028  11.137   1.877 -0.1212 -0.2635 -1.4073
  985MOL0     C29929   4.094  11.240   1.987 -0.1181 -0.2622  0.2989
  985MOL0     C29930   4.145  11.173   2.111 -1.4586  0.4574 -0.9073
  985MOL0     C29931   4.278  11.235   2.159  0.4172  0.0056 -0.3879
  985MOL0    Cl29932   4.245  11.408   2.197 -0.3159  0.3168 -0.1144
  985MOL0     C29933   3.389  11.021   1.419  1.5802  0.7242 -0.3249
  985MOL0     C29934   3.253  10.993   1.380  0.0331  0.5132 -0.0093
  985MOL0     O29935   2.997  10.867   1.459  0.4025 -0.2827 -0.0315
  985MOL0     C29936   2.739  10.833   1.361  0.6193  0.0091 -0.0036
  985MOL0     C29937   2.604  10.835   1.298 -0.4101  0.8547  0.1699
  985MOL0     N29938   2.484  11.008   0.663  0.1068  0.5159  0.7297
  985MOL0     N29939   2.618  10.994   0.650 -0.0610  0.2301  0.4309
  985MOL0     C29940   3.824  10.985   0.570  0.4911 -0.4791  1.1406
  985MOL0     C29941   3.940  10.903   0.569  0.7174 -0.8656  0.2821
  985MOL0     C29942   4.315  10.664   0.620  0.3172 -0.3459  0.8170
  985MOL0     C29943   4.382  10.585   0.526 -0.5261  0.0339 -0.1536
  985MOL0     C29944   4.501  10.509   0.557  0.2172 -0.5606 -0.1580
  985MOL0     C29945   4.547  10.523   0.692 -0.3593 -0.7481  0.0529
  985MOL0     O29946   4.665  10.464   0.731 -0.1535  0.0534  0.4549
  985MOL0     C29947   4.720  10.349   0.652  0.3246 -0.5625  0.5175
  985MOL0     C29948   4.824  10.305   0.741  0.1690 -0.5709  0.0146
  985MOL0     C29949   4.953  10.380   0.727 -0.0872 -0.1794  0.2032
  985MOL0     C29950   5.045  10.338   0.835 -0.2329  0.1687 -0.3321
  985MOL0     C29951   5.178  10.406   0.833 -0.0113  0.4799 -1.1180
  985MOL0     C29952   5.294  10.452   0.828  1.1387  0.0675  0.3093
  985MOL0     C29953   4.480  10.606   0.777  0.7181  0.4895 -1.2801
  985MOL0     C29954   4.368  10.677   0.747  0.6385  0.4024  1.1347
  985MOL0     H29955   4.170  11.088   0.718  0.4980  3.2071 -1.0706
  985MOL0     H29956   3.965  11.253   0.725  2.3770  0.6526 -1.8433
  985MOL0     H29957   3.572  11.088   0.660 -2.5991 -0.1406 -0.0110
  985MOL0     H29958   3.589  11.167   0.496 -0.9225  0.3697 -0.3930
  985MOL0     H29959   3.499  11.361   0.565 -3.8317 -2.7515 -1.5274
  985MOL0     H29960   3.544  11.356   0.731 -0.6339 -1.2348  1.7370
  985MOL0     H29961   3.346  11.323   0.776  0.2996  1.7565 -0.6044
  985MOL0     H29962   3.354  11.154   0.725 -0.7775 -0.1550 -0.9358
  985MOL0     H29963   3.269  11.346   0.518  0.5595 -1.8022 -3.0685
  985MOL0     H29964   3.277  11.172   0.529 -0.6225  1.5071  0.3259
  985MOL0     H29965   3.100  11.339   0.683  1.1648 -0.7523 -1.5295
  985MOL0     H29966   3.114  11.161   0.718 -3.5066 -0.8220  0.1412
  985MOL0     H29967   3.021  11.097   0.519 -2.3506 -0.6039 -1.6759
  985MOL0     H29968   3.025  11.264   0.457  0.0738  0.0175  0.6096
  985MOL0     H29969   2.876  11.328   0.666  2.1725  1.7471 -3.7202
  985MOL0     H29970   2.803  11.241   0.534  1.4494 -1.3036  0.8245
  985MOL0     H29971   2.866  11.130   0.812  3.4705 -0.7671 -1.3856
  985MOL0     H29972   2.856  11.025   0.678 -5.0314 -1.5355 -1.7358
  985MOL0     H29973   2.596  11.250   0.848  1.3084  1.9082 -3.1411
  985MOL0     H29974   2.244  11.094   0.748  0.7671 -0.2905 -0.4584
  985MOL0     H29975   2.292  11.261   0.745 -1.3177  0.7565  1.0379
  985MOL0     H29976   2.170  11.128   0.925 -0.5816 -0.0287  4.5057
  985MOL0     H29977   2.292  11.235   0.989 -0.9240 -1.6073  2.7323
  985MOL0     H29978   2.309  10.937   0.955  2.2970 -1.4081 -0.0658
  985MOL0     H29979   2.449  11.010   0.965 -0.6814 -0.0635 -1.0881
  985MOL0     H29980   2.229  11.053   1.172 -0.5020  0.6019 -0.4952
  985MOL0     H29981   2.383  11.152   1.173 -0.1030  0.2045 -0.8011
  985MOL0     H29982   2.592  11.145   1.177 -0.2695  0.8036  1.2976
  985MOL0     H29983   2.794  11.158   1.258 -1.7484  0.4448 -1.5625
  985MOL0     H29984   3.107  11.289   1.459  0.2413  0.2653  0.5215
  985MOL0     H29985   3.320  11.342   1.530 -1.5843  1.3479  0.6511
  985MOL0     H29986   3.662  11.021   1.521  0.6091  0.5962  0.9517
  985MOL0     H29987   3.554  11.077   1.660 -1.0195 -1.7142  0.1833
  985MOL0     H29988   3.694  11.275   1.658 -0.5512 -0.8739  0.2699
  985MOL0     H29989   3.792  11.226   1.533 -0.8397  2.0373  0.3798
  985MOL0     H29990   3.919  11.066   1.624  0.8984  3.4356 -1.3862
  985MOL0     H29991   3.806  11.036   1.761 -0.1709 -1.6707 -1.8839
  985MOL0     H29992   4.001  11.281   1.711 -0.1401  3.6510  2.8708
  985MOL0     H29993   3.875  11.286   1.837  2.4209  1.6486  0.1895
  985MOL0     H29994   4.096  11.082   1.810 -0.9741  0.6615 -3.0998
  985MOL0     H29995   3.961  11.072   1.934  0.7329  1.2671  1.5299
  985MOL0     H29996   4.020  11.314   2.018  1.7983  0.8207  2.5988
  985MOL0     H29997   4.167  11.302   1.934  0.4552  0.3770  1.7848
  985MOL0     H29998   4.070  11.168   2.190 -1.2892 -3.4586 -0.8393
  985MOL0     H29999   4.171  11.069   2.089  0.6621  0.8395 -0.4679
  985MOL0     H30000   4.359  11.239   2.087  1.7904  2.2811  1.1760
  985MOL0     H30001   4.314  11.177   2.245 -0.3304 -2.2835 -1.5200
  985MOL0     H30002   3.465  10.944   1.406 -2.3646 -3.7574  0.2094
  985MOL0     H30003   3.216  10.897   1.346 -1.1648  0.5626  1.0867
  985MOL0     H30004   2.786  10.743   1.398  3.3205  1.2042 -0.3447
  985MOL0     H30005   2.547  10.747   1.326  0.3191  0.0275 -0.8641
  985MOL0     H30006   3.741  10.954   0.507  1.9253  1.8330 -2.2057
  985MOL0     H30007   3.936  10.801   0.532 -0.1696 -0.6301 -0.3021
  985MOL0     H30008   4.349  10.575   0.423 -2.1704 -0.6767  0.4108
  985MOL0     H30009   4.537  10.442   0.479 -1.6220 -2.5599  0.6061
  985MOL0     H30010   4.754  10.390   0.557 -2.3547 -1.3774 -0.8898
  985MOL0     H30011   4.644  10.271   0.638 -0.6401  0.7284 -2.0338
  985MOL0     H30012   4.800  10.309   0.848  1.3562 -1.1609  0.3200
  985MOL0     H30013   4.839  10.201   0.710 -2.7427 -0.4393 -2.2942
  985MOL0     H30014   4.930  10.486   0.733  2.0987  0.2195  3.3508
  985MOL0     H30015   5.001  10.352   0.632  2.5052 -0.5505  1.5585
  985MOL0     H30016   5.004  10.361   0.934 -0.7196  2.8162 -1.0782
  985MOL0     H30017   5.056  10.229   0.833  0.0879  0.1735  0.5197
  985MOL0     H30018   5.391  10.496   0.822  0.1005  2.3265 -1.5046
  985MOL0     H30019   4.527  10.621   0.874 -0.9650 -1.6945 -0.0446
  985MOL0     H30020   4.331  10.744   0.824  1.5602 -0.8713  2.7547
  986MOL0     O30021   6.855   0.638   0.857 -0.5544 -0.5243 -0.2697
  986MOL0     C30022   6.920   0.590   0.768 -0.5462  0.5002  0.0944
  986MOL0     O30023   6.886   0.491   0.686 -0.2469  1.0750  0.1980
  986MOL0     C30024   6.760   0.424   0.679 -0.2349 -0.6370 -0.5119
  986MOL0     C30025   6.728   0.388   0.547  0.3745 -0.4541 -0.3814
  986MOL0     C30026   6.603   0.335   0.522  0.2433  0.5213 -0.3769
  986MOL0     C30027   6.503   0.335   0.619  0.9409 -0.3154  0.2197
  986MOL0     O30028   6.380   0.273   0.592 -0.1321  0.5031 -0.9287
  986MOL0     C30029   6.276   0.292   0.698 -0.6889 -0.5411  0.9351
  986MOL0     C30030   6.147   0.221   0.643  0.4906 -0.3408  0.2809
  986MOL0     C30031   6.037   0.243   0.742  0.4442  0.2056  0.3103
  986MOL0     C30032   6.058   0.188   0.882  0.1891  1.1012 -0.3026
  986MOL0     C30033   5.945   0.187   0.990 -0.1721  0.1516  0.1256
  986MOL0     C30034   5.835   0.097   0.951  0.2558 -0.4991 -0.7938
  986MOL0     C30035   5.743   0.064   1.077  0.2048 -0.8325 -0.1139
  986MOL0     C30036   5.676   0.185   1.144 -0.2891 -0.0501  0.3282
  986MOL0     N30037   5.766   0.245   1.241  0.3707  0.4865 -0.5169
  986MOL0     C30038   5.762   0.215   1.376  0.6270  0.4177 -0.1977
  986MOL0     C30039   5.803   0.324   1.436 -0.2228  0.8263 -0.5683
  986MOL0     C30040   5.816   0.349   1.591 -0.3801  0.1811  0.2354
  986MOL0     C30041   5.849   0.226   1.672 -0.6640 -0.4450  0.4825
  986MOL0     C30042   6.000   0.169   1.650  0.7587 -0.7932 -0.7667
  986MOL0     C30043   6.117   0.260   1.693 -0.0899  0.7051 -0.1715
  986MOL0     O30044   6.093   0.325   1.826 -0.1414 -0.4955 -0.5244
  986MOL0     C30045   6.203   0.366   1.897  0.5951  0.6268 -0.4382
  986MOL0     C30046   6.319   0.285   1.919  0.0520 -0.5976  1.5530
  986MOL0     C30047   6.424   0.343   1.991  0.8795 -0.4146  0.5580
  986MOL0     C30048   6.423   0.480   2.030 -1.2600  0.1662 -0.8282
  986MOL0     C30049   6.540   0.548   2.101  0.2208 -0.3432 -0.5932
  986MOL0     O30050   6.662   0.475   2.095  0.4203  0.4655 -0.5069
  986MOL0     C30051   6.764   0.530   2.175  0.7266  0.8779 -0.1556
  986MOL0     C30052   6.800   0.462   2.289 -1.3063  1.0036  0.3220
  986MOL0     C30053   6.899   0.507   2.376 -0.7126 -0.6727 -0.1187
  986MOL0     C30054   6.991   0.605   2.339  0.0280 -1.0908 -0.7638
  986MOL0     O30055   7.101   0.650   2.411  0.5508 -0.2098  0.9694
  986MOL0     C30056   7.087   0.689   2.549  0.5452  0.1998 -0.0976
  986MOL0     C30057   7.121   0.578   2.655  1.2529  0.2982  0.5820
  986MOL0     C30058   7.106   0.631   2.800 -0.0254 -0.5483 -0.7604
  986MOL0     C30059   7.189   0.526   2.891 -0.4824  0.0046 -0.1855
  986MOL0     C30060   7.150   0.532   3.039  0.2442  0.3383 -1.1932
  986MOL0     C30061   7.012   0.485   3.092 -0.3022  0.3426 -0.2905
  986MOL0     C30062   6.987   0.349   3.016  0.0567  0.3254 -0.1464
  986MOL0     C30063   6.869   0.263   3.071  0.3089  0.8400  0.3854
  986MOL0    Cl30064   6.710   0.340   3.078  0.3746  0.0066  0.3314
  986MOL0     C30065   6.956   0.671   2.213 -0.9616  0.1816  0.1764
  986MOL0     C30066   6.843   0.643   2.139 -0.1698  0.0033 -0.0618
  986MOL0     O30067   6.520   0.654   2.161 -0.2174  0.3807 -0.3548
  986MOL0     C30068   6.323   0.558   1.992 -0.1344 -0.0691  0.3405
  986MOL0     C30069   6.210   0.502   1.932 -0.6592 -1.0953 -0.1028
  986MOL0     N30070   5.832   0.417   1.342 -0.1002  0.1823  0.1017
  986MOL0     N30071   5.822   0.360   1.228 -0.1381 -0.8474  0.4948
  986MOL0     C30072   6.539   0.368   0.749  0.3213 -0.9185  1.0529
  986MOL0     C30073   6.661   0.421   0.788  1.1367 -0.8405  1.5189
  986MOL0     C30074   7.061   0.636   0.751 -0.5645  0.8985  0.4731
  986MOL0     C30075   7.142   0.576   0.660 -0.1439  0.0422 -0.3885
  986MOL0     C30076   7.272   0.611   0.652  0.3871 -0.0600 -0.6551
  986MOL0     C30077   7.332   0.717   0.717 -0.6229 -0.7403  0.6812
  986MOL0     O30078   7.457   0.760   0.681  0.2421 -0.5854 -0.7533
  986MOL0     C30079   7.537   0.677   0.593  0.1348  2.2246 -0.1683
  986MOL0     C30080   7.679   0.724   0.574  0.0721  0.0092 -0.1597
  986MOL0     C30081   7.693   0.839   0.483  1.0245  0.1266 -0.2355
  986MOL0     C30082   7.831   0.843   0.432 -0.8413  0.5308 -0.2468
  986MOL0     C30083   7.935   0.890   0.525  0.4961  0.8574  0.4706
  986MOL0     C30084   8.023   0.913   0.610 -0.2518  0.7784  0.5223
  986MOL0     C30085   7.248   0.786   0.805 -0.6749 -0.4728 -0.8411
  986MOL0     C30086   7.110   0.750   0.823 -0.9497  0.0810 -1.1722
  986MOL0     H30087   6.802   0.404   0.469  2.2431  0.4907  1.4783
  986MOL0     H30088   6.579   0.288   0.427 -0.2994  1.5004 -0.7382
  986MOL0     H30089   6.243   0.393   0.723 -2.8844 -0.3351 -2.1921
  986MOL0     H30090   6.318   0.248   0.789  2.0221  1.8089  0.9784
  986MOL0     H30091   6.178   0.119   0.618  2.9050  0.4604 -0.3435
  986MOL0     H30092   6.115   0.272   0.552 -1.3299  0.2590  1.2235
  986MOL0     H30093   5.951   0.193   0.695  1.7073 -0.7883 -1.0304
  986MOL0     H30094   6.017   0.351   0.747 -3.7652 -0.1115 -3.0170
  986MOL0     H30095   6.091   0.084   0.879 -0.8026  0.7475  0.6387
  986MOL0     H30096   6.141   0.239   0.932  1.8275 -1.1538 -0.5338
  986MOL0     H30097   5.909   0.291   0.997  1.4220  0.9843 -2.6582
  986MOL0     H30098   5.989   0.154   1.085  0.0873  0.5686  0.1561
  986MOL0     H30099   5.872   0.001   0.913  1.5840 -0.6827  0.8335
  986MOL0     H30100   5.774   0.141   0.872  0.1974 -2.7835 -2.1134
  986MOL0     H30101   5.669  -0.002   1.030  1.0671  0.4986 -3.6225
  986MOL0     H30102   5.791   0.011   1.159 -0.0887 -0.4254  0.3332
  986MOL0     H30103   5.584   0.153   1.194  1.0760 -0.4048  2.7040
  986MOL0     H30104   5.649   0.260   1.068  0.3793 -1.1852 -1.0905
  986MOL0     H30105   5.725   0.127   1.430  0.6954  0.0042 -0.8186
  986MOL0     H30106   5.723   0.382   1.639 -0.4413 -0.4464  0.5590
  986MOL0     H30107   5.887   0.432   1.597  2.6517 -2.2641  0.6119
  986MOL0     H30108   5.782   0.146   1.638  2.6459 -2.3421 -2.2983
  986MOL0     H30109   5.823   0.253   1.775 -2.4450 -2.1022  0.5329
  986MOL0     H30110   6.017   0.084   1.716  2.5744 -0.7871 -1.1878
  986MOL0     H30111   6.020   0.132   1.550  3.2925 -1.6786 -0.0064
  986MOL0     H30112   6.133   0.337   1.616 -0.8783  0.2178 -0.8378
  986MOL0     H30113   6.207   0.199   1.689  2.2835  3.9142 -0.2709
  986MOL0     H30114   6.320   0.184   1.880 -1.5002 -0.6929  1.6968
  986MOL0     H30115   6.504   0.284   2.034  0.6764 -0.3377  1.0467
  986MOL0     H30116   6.753   0.365   2.304 -0.9721  0.2755 -2.6256
  986MOL0     H30117   6.899   0.459   2.473  2.0133 -0.9557 -0.1937
  986MOL0     H30118   6.985   0.723   2.568 -0.8095 -3.5779  0.3090
  986MOL0     H30119   7.158   0.770   2.567  2.4866 -1.2475 -0.9641
  986MOL0     H30120   7.220   0.533   2.643 -0.0086 -2.6777  0.6339
  986MOL0     H30121   7.046   0.500   2.642 -1.2310  2.4494  1.0745
  986MOL0     H30122   7.001   0.643   2.829  0.3783  0.5498  0.3431
  986MOL0     H30123   7.154   0.729   2.806 -2.7683  0.8726 -0.3184
  986MOL0     H30124   7.164   0.425   2.858 -3.3750  0.8772 -1.0237
  986MOL0     H30125   7.296   0.534   2.870 -0.2018 -0.4380  0.9769
  986MOL0     H30126   7.185   0.620   3.093  2.3422 -0.7514 -0.6584
  986MOL0     H30127   7.213   0.463   3.096  0.1824  2.1900  1.2872
  986MOL0     H30128   6.929   0.554   3.072 -1.7131 -1.3626 -0.6525
  986MOL0     H30129   7.027   0.480   3.200  0.7322  2.1092 -0.3145
  986MOL0     H30130   6.969   0.371   2.910  0.6486  0.1143 -0.2963
  986MOL0     H30131   7.084   0.298   3.025 -1.3821 -3.0175 -1.8278
  986MOL0     H30132   6.896   0.209   3.163  2.5993 -0.6168 -1.0237
  986MOL0     H30133   6.845   0.185   2.998 -2.0874  0.8568  1.0868
  986MOL0     H30134   7.030   0.747   2.187  0.8104 -0.5922  2.5745
  986MOL0     H30135   6.815   0.693   2.047  0.1174 -0.8170 -0.6032
  986MOL0     H30136   6.319   0.662   2.026  0.7110  0.6137 -1.5371
  986MOL0     H30137   6.136   0.569   1.890  0.0681  1.4587  2.3471
  986MOL0     H30138   6.470   0.352   0.831 -0.2179  0.0634  0.8062
  986MOL0     H30139   6.688   0.461   0.886  1.7343  2.7008  0.0560
  986MOL0     H30140   7.105   0.489   0.607  0.1856 -0.9524  0.9445
  986MOL0     H30141   7.316   0.572   0.561 -1.4335 -2.2680 -0.6548
  986MOL0     H30142   7.494   0.679   0.492 -1.0440  2.0971  0.3133
  986MOL0     H30143   7.538   0.573   0.629  3.5899  1.7806 -1.2485
  986MOL0     H30144   7.703   0.749   0.677 -3.9388  0.2317  0.8859
  986MOL0     H30145   7.750   0.647   0.542  2.3986  1.5499  0.9679
  986MOL0     H30146   7.679   0.922   0.553  0.0055 -0.6102  0.4489
  986MOL0     H30147   7.618   0.846   0.404  1.5452 -0.1704 -0.7643
  986MOL0     H30148   7.854   0.746   0.386 -0.0078  1.8487 -2.7929
  986MOL0     H30149   7.832   0.921   0.356 -0.0637 -0.7469 -1.6025
  986MOL0     H30150   8.100   0.940   0.680 -1.1690  3.8260  0.5120
  986MOL0     H30151   7.300   0.860   0.865  1.5853 -2.5021 -0.1218
  986MOL0     H30152   7.049   0.797   0.900 -1.9193 -2.6864 -0.1590
  987MOL0     O30153   5.509   3.133   6.990  0.0825 -0.2411  0.0684
  987MOL0     C30154   5.588   3.188   7.063  0.2275  1.2126 -0.9525
  987MOL0     O30155   5.557   3.252   7.188 -0.3971  0.3136 -0.1995
  987MOL0     C30156   5.428   3.242   7.217 -0.2385  0.2088 -0.1013
  987MOL0     C30157   5.363   3.122   7.255  0.0169  0.4549  0.2803
  987MOL0     C30158   5.232   3.111   7.285  0.6972 -1.2342  0.9523
  987MOL0     C30159   5.142   3.226   7.281  0.0210 -0.1437 -0.4284
  987MOL0     O30160   5.014   3.218   7.321 -0.3448  0.0227 -0.4232
  987MOL0     C30161   4.958   3.096   7.354  0.0625  0.1428  0.0506
  987MOL0     C30162   4.825   3.131   7.419 -0.3112  0.3660 -0.0808
  987MOL0     C30163   4.749   2.999   7.449 -0.2987  0.9901  0.2717
  987MOL0     C30164   4.631   3.035   7.539  0.0638  0.4527 -0.6020
  987MOL0     C30165   4.564   2.904   7.582  0.5390 -1.0215  0.6932
  987MOL0     C30166   4.636   2.816   7.686 -0.2369 -0.1553 -0.0268
  987MOL0     C30167   4.612   2.857   7.833 -0.4008 -0.6302  0.2383
  987MOL0     C30168   4.742   2.884   7.916  0.4171  0.0721  0.0856
  987MOL0     N30169   4.836   2.978   7.851  0.1043  0.5189  0.1026
  987MOL0     C30170   4.964   2.950   7.809  0.6730  0.1722  0.6776
  987MOL0     C30171   5.019   3.070   7.783 -0.9377  0.0981 -0.2919
  987MOL0     C30172   5.146   3.097   7.713  0.7118  0.2107 -0.1195
  987MOL0     C30173   5.277   3.033   7.758 -0.0265 -0.2537 -0.8749
  987MOL0     C30174   5.307   3.059   7.908 -0.1736  0.6510 -0.6924
  987MOL0     C30175   5.425   2.968   7.952  0.6139 -0.3747  0.0198
  987MOL0     O30176   5.554   3.018   7.939  0.0150  0.0657  0.3183
  987MOL0     C30177   5.627   3.050   8.051  0.3395  0.0904 -0.0906
  987MOL0     C30178   5.764   3.070   8.034  0.4151 -0.0315 -0.6543
  987MOL0     C30179   5.840   3.124   8.129  0.5560 -0.5107  0.6213
  987MOL0     C30180   5.784   3.151   8.254  0.3906 -0.2874  0.6211
  987MOL0     C30181   5.875   3.188   8.362  0.8363 -1.2754  0.4943
  987MOL0     O30182   6.008   3.195   8.336 -0.0788 -0.7624  0.2453
  987MOL0     C30183   6.104   3.193   8.432  0.2661 -0.4670  1.4063
  987MOL0     C30184   6.091   3.115   8.546  0.7890  0.1600 -0.7961
  987MOL0     C30185   6.197   3.114   8.639  0.1772  0.7476  0.7252
  987MOL0     C30186   6.314   3.191   8.622  0.5500 -0.3735 -0.2901
  987MOL0     O30187   6.417   3.193   8.712  0.3944 -0.6810 -0.2652
  987MOL0     C30188   6.544   3.259   8.678  0.2627  0.3220 -0.1159
  987MOL0     C30189   6.632   3.268   8.802  0.5873  0.5601  0.0911
  987MOL0     C30190   6.774   3.312   8.784 -0.3487  0.1256  0.9558
  987MOL0     C30191   6.864   3.250   8.899 -0.3680  0.2594  0.2329
  987MOL0     C30192   7.014   3.257   8.860  0.1528  0.0454  0.2173
  987MOL0     C30193   7.110   3.228   8.972 -1.0333  0.6282 -0.1532
  987MOL0     C30194   7.255   3.267   8.932 -0.0153 -0.1863 -1.1576
  987MOL0     C30195   7.357   3.206   9.031  0.5782  0.3185 -0.6805
  987MOL0    Cl30196   7.402   3.044   8.980  0.0967  0.7462 -0.1178
  987MOL0     C30197   6.323   3.267   8.497  0.2277 -0.2265  0.4786
  987MOL0     C30198   6.222   3.267   8.404  0.6474 -0.2122 -0.2698
  987MOL0     O30199   5.826   3.204   8.477  0.6930 -0.0706 -0.3470
  987MOL0     C30200   5.654   3.117   8.274  0.2475 -0.4715 -0.4093
  987MOL0     C30201   5.574   3.080   8.174  0.2117 -1.0958 -0.0366
  987MOL0     N30202   4.932   3.173   7.818 -0.9128 -0.2114 -0.9474
  987MOL0     N30203   4.819   3.112   7.846 -0.3077 -0.6267 -0.2795
  987MOL0     C30204   5.207   3.348   7.249  0.1857 -0.5589 -0.8975
  987MOL0     C30205   5.343   3.353   7.211 -0.6113 -0.4632  0.2232
  987MOL0     C30206   5.734   3.190   7.026 -0.1014  0.0989  0.3105
  987MOL0     C30207   5.816   3.276   7.098 -0.0334 -0.2296  0.4504
  987MOL0     C30208   5.951   3.280   7.073  0.6926 -0.8524 -0.3544
  987MOL0     C30209   6.014   3.216   6.967 -0.1003  0.4439  0.3015
  987MOL0     O30210   6.151   3.224   6.931 -0.2713 -0.3768  0.2167
  987MOL0     C30211   6.227   3.301   7.012  0.2904 -0.5337 -0.3595
  987MOL0     C30212   6.374   3.302   6.959 -0.3740  0.6324 -0.0226
  987MOL0     C30213   6.474   3.392   7.032  0.4890  0.8103 -0.2860
  987MOL0     C30214   6.455   3.542   6.999  0.3822  0.4702 -0.4416
  987MOL0     C30215   6.562   3.617   7.063  0.3517  0.7250  0.0056
  987MOL0     C30216   6.657   3.669   7.120  0.1060  0.3980 -0.6358
  987MOL0     C30217   5.928   3.139   6.890  0.1155  0.1705  0.4735
  987MOL0     C30218   5.786   3.126   6.914 -0.6778  0.6700 -0.1736
  987MOL0     H30219   5.423   3.033   7.270 -4.6758 -3.0175  0.6877
  987MOL0     H30220   5.195   3.015   7.321 -0.4465 -1.3658 -0.4944
  987MOL0     H30221   5.018   3.026   7.413  1.6704 -0.0634 -1.7225
  987MOL0     H30222   4.935   3.036   7.266  5.8706 -1.9063 -0.5054
  987MOL0     H30223   4.776   3.190   7.341  4.4171  4.0866 -0.7293
  987MOL0     H30224   4.841   3.188   7.511  0.3132  1.8109 -1.0450
  987MOL0     H30225   4.821   2.936   7.503  0.9246 -0.0748 -2.3995
  987MOL0     H30226   4.726   2.954   7.353 -1.1482  3.3600 -0.7005
  987MOL0     H30227   4.657   3.089   7.631 -4.9181 -0.7671  1.8818
  987MOL0     H30228   4.562   3.097   7.482 -0.6955  2.0557  1.8679
  987MOL0     H30229   4.564   2.845   7.490  0.7023  0.6595 -0.4251
  987MOL0     H30230   4.463   2.923   7.617 -0.4709  0.1808 -2.4896
  987MOL0     H30231   4.740   2.796   7.663 -0.0352  1.4530 -0.6930
  987MOL0     H30232   4.583   2.720   7.685 -2.2453  0.8880 -1.1181
  987MOL0     H30233   4.554   2.949   7.839 -1.8014 -1.4310 -0.5434
  987MOL0     H30234   4.548   2.784   7.882  1.0803 -1.7194  0.6378
  987MOL0     H30235   4.800   2.792   7.924  0.3962  0.0413 -0.1066
  987MOL0     H30236   4.693   2.922   8.006 -0.3071  2.7719 -1.3688
  987MOL0     H30237   5.015   2.865   7.766 -1.8321 -0.6813 -0.8663
  987MOL0     H30238   5.171   3.203   7.710  2.7538 -0.2022  0.2539
  987MOL0     H30239   5.121   3.064   7.612 -1.7945 -0.5199  0.6578
  987MOL0     H30240   5.361   3.071   7.699 -0.5063  0.5138 -1.0748
  987MOL0     H30241   5.266   2.929   7.725 -2.2979 -0.1211 -0.6732
  987MOL0     H30242   5.333   3.164   7.922  0.6672  0.5864 -1.5882
  987MOL0     H30243   5.218   3.034   7.965  1.0147  2.5550  2.2558
  987MOL0     H30244   5.424   2.876   7.893 -0.2842  1.4087 -2.9767
  987MOL0     H30245   5.400   2.934   8.053  0.2844 -1.1851 -0.3211
  987MOL0     H30246   5.807   3.042   7.939 -1.6801 -0.5103 -1.5321
  987MOL0     H30247   5.942   3.139   8.096 -0.6477  2.3924 -2.3066
  987MOL0     H30248   6.000   3.067   8.580  1.0780  0.1934  0.0556
  987MOL0     H30249   6.191   3.049   8.726  0.4251  1.5856  1.3817
  987MOL0     H30250   6.521   3.357   8.635  1.7176 -0.8226 -3.9820
  987MOL0     H30251   6.588   3.196   8.600 -1.0052 -2.3050  1.1384
  987MOL0     H30252   6.642   3.165   8.839 -1.3657  0.2777 -0.0673
  987MOL0     H30253   6.584   3.330   8.878  0.9426  0.6809  0.2217
  987MOL0     H30254   6.769   3.419   8.804  1.6848 -0.1160  3.2108
  987MOL0     H30255   6.808   3.285   8.683 -5.2830 -0.2211 -0.9057
  987MOL0     H30256   6.841   3.303   8.992 -4.8932 -2.4124  0.9314
  987MOL0     H30257   6.848   3.144   8.920 -2.8305  0.3400 -0.8748
  987MOL0     H30258   7.018   3.365   8.841 -2.2749  0.3638  1.1334
  987MOL0     H30259   7.038   3.194   8.775  4.8021  2.7290 -0.7780
  987MOL0     H30260   7.108   3.120   8.992 -0.0393 -0.1043 -3.3002
  987MOL0     H30261   7.077   3.287   9.057 -2.8496 -0.2563 -0.1981
  987MOL0     H30262   7.265   3.213   8.837 -2.3368  0.0301 -1.6029
  987MOL0     H30263   7.259   3.376   8.927 -1.6144 -0.1142 -1.5098
  987MOL0     H30264   7.307   3.207   9.129  0.9755  0.3961 -0.4790
  987MOL0     H30265   7.448   3.266   9.033  2.2638 -2.0584 -1.8148
  987MOL0     H30266   6.407   3.332   8.475  0.0283 -0.5124 -1.2203
  987MOL0     H30267   6.233   3.325   8.313 -1.2077 -0.0495 -0.4409
  987MOL0     H30268   5.618   3.136   8.375  0.5257  1.5556 -0.6326
  987MOL0     H30269   5.469   3.084   8.204 -0.0278  2.8797 -0.9278
  987MOL0     H30270   5.141   3.434   7.249  1.9449  0.8589 -1.0005
  987MOL0     H30271   5.395   3.446   7.190 -0.2407 -0.6606  0.2527
  987MOL0     H30272   5.778   3.324   7.187  0.7603  0.8276  0.2387
  987MOL0     H30273   5.995   3.354   7.138 -3.1785 -0.9629  2.7461
  987MOL0     H30274   6.204   3.268   7.114 -1.6710  0.3902 -0.4721
  987MOL0     H30275   6.194   3.405   7.007  0.3646 -0.5612 -2.5050
  987MOL0     H30276   6.410   3.198   6.956 -1.0254  0.4089 -1.3400
  987MOL0     H30277   6.364   3.334   6.855  0.9953 -1.4214 -0.8648
  987MOL0     H30278   6.576   3.364   7.005  0.8864  0.8375  1.0730
  987MOL0     H30279   6.477   3.376   7.141 -1.6496  2.4277  0.0677
  987MOL0     H30280   6.459   3.557   6.891  0.1576 -2.3473 -0.9118
  987MOL0     H30281   6.356   3.572   7.032  0.3164  1.5223 -1.5155
  987MOL0     H30282   6.742   3.707   7.173 -0.2144  0.8502 -0.4330
  987MOL0     H30283   5.987   3.091   6.812  2.5165  4.4992 -0.7095
  987MOL0     H30284   5.721   3.066   6.851 -2.3915 -3.4483  4.8059
  988MOL0     O30285   3.966   9.633   2.306 -0.4495 -0.2706  0.8405
  988MOL0     C30286   4.014   9.680   2.407  1.1561 -0.6481 -0.0896
  988MOL0     O30287   3.991   9.623   2.531 -0.3028 -0.2794 -0.4362
  988MOL0     C30288   3.939   9.500   2.528  0.3903 -0.0406  0.4558
  988MOL0     C30289   3.987   9.386   2.447 -0.4054  0.3694 -1.0949
  988MOL0     C30290   3.924   9.261   2.464 -0.7930  0.5138 -0.0750
  988MOL0     C30291   3.823   9.238   2.556  0.8835 -1.2476  0.9267
  988MOL0     O30292   3.767   9.122   2.579  0.4684  0.7049  0.3261
  988MOL0     C30293   3.808   9.005   2.509 -0.4780  0.5230 -0.3274
  988MOL0     C30294   3.720   8.879   2.556 -0.7644  0.6569  0.0555
  988MOL0     C30295   3.569   8.908   2.514 -0.4473 -0.8944 -0.5750
  988MOL0     C30296   3.482   8.804   2.583  0.4817  0.3009 -0.5241
  988MOL0     C30297   3.336   8.846   2.576  0.4546  0.1051 -0.5483
  988MOL0     C30298   3.238   8.794   2.687 -0.4969  0.9266 -1.0344
  988MOL0     C30299   3.103   8.846   2.668  0.2789 -0.3052 -0.0444
  988MOL0     C30300   3.011   8.797   2.784  0.6561 -0.6027  1.0785
  988MOL0     N30301   3.017   8.866   2.917 -0.2561  0.0998 -0.7991
  988MOL0     C30302   3.114   8.943   2.970  0.1687  0.3614  0.3826
  988MOL0     C30303   3.070   8.989   3.089  1.0315 -0.4416 -1.2583
  988MOL0     C30304   3.139   9.085   3.182 -0.1436 -0.1023  0.2083
  988MOL0     C30305   3.178   9.028   3.318  0.1954  0.2658 -0.4271
  988MOL0     C30306   3.295   8.929   3.332  0.8407 -0.3539 -0.1861
  988MOL0     C30307   3.431   8.979   3.291 -0.6175 -0.2098 -0.7959
  988MOL0     O30308   3.460   9.105   3.345 -0.0413 -0.4991 -0.2162
  988MOL0     C30309   3.576   9.178   3.309 -0.3462 -0.5149  0.3466
  988MOL0     C30310   3.565   9.325   3.302  0.7766  0.5240  0.8219
  988MOL0     C30311   3.665   9.401   3.243  0.2356 -0.4928 -0.5937
  988MOL0     C30312   3.779   9.343   3.198 -0.0584 -0.1739  0.1772
  988MOL0     C30313   3.886   9.436   3.146  0.4869 -0.1345  0.4064
  988MOL0     O30314   3.871   9.564   3.185 -0.2810 -0.1532  0.8668
  988MOL0     C30315   3.940   9.661   3.115  0.5525 -0.2654  0.1584
  988MOL0     C30316   3.910   9.689   2.981 -0.1012  1.0280 -0.1250
  988MOL0     C30317   3.978   9.788   2.914  0.0310 -0.7418  0.1777
  988MOL0     C30318   4.063   9.870   2.985 -0.9750  0.0872 -0.1896
  988MOL0     O30319   4.114   9.980   2.922  0.5897 -0.2782  0.2026
  988MOL0     C30320   4.154  10.085   3.011 -0.1346  0.2121 -0.2455
  988MOL0     C30321   4.213  10.202   2.926 -0.0673  0.2110 -0.4139
  988MOL0     C30322   4.292  10.302   3.006 -0.2317 -0.5170 -0.4502
  988MOL0     C30323   4.194  10.404   3.084 -0.4768 -1.0901 -0.2895
  988MOL0     C30324   4.276  10.518   3.148  0.7984  1.2803 -0.0236
  988MOL0     C30325   4.171  10.609   3.223  0.8096 -0.3444  0.1203
  988MOL0     C30326   4.255  10.713   3.298  0.4981 -0.1347  0.7457
  988MOL0     C30327   4.324  10.669   3.430 -0.2991  0.5040 -0.1977
  988MOL0    Cl30328   4.437  10.795   3.505 -0.2841  0.2608 -0.0585
  988MOL0     C30329   4.089   9.837   3.122 -0.2790 -0.0757  0.0164
  988MOL0     C30330   4.031   9.730   3.194 -0.4110  0.1603 -0.9032
  988MOL0     O30331   3.982   9.387   3.082  0.5067 -0.1735 -0.0699
  988MOL0     C30332   3.791   9.205   3.189  0.3288 -0.0981  0.0852
  988MOL0     C30333   3.693   9.117   3.245 -0.1729  0.6848 -0.0907
  988MOL0     N30334   2.936   8.946   3.114 -0.7297  0.0837  0.7474
  988MOL0     N30335   2.914   8.872   3.007  0.6599  0.0037  0.0593
  988MOL0     C30336   3.779   9.346   2.633 -0.1809  0.9028  0.7888
  988MOL0     C30337   3.837   9.473   2.619 -0.2639  0.2687 -0.1279
  988MOL0     C30338   4.067   9.814   2.412 -0.5469 -1.1014  0.0114
  988MOL0     C30339   4.071   9.893   2.295  0.5455  0.4914 -0.6058
  988MOL0     C30340   4.123  10.018   2.294 -0.2436  0.1594 -0.8602
  988MOL0     C30341   4.180  10.076   2.401  0.5162 -0.3600  0.5376
  988MOL0     O30342   4.237  10.206   2.376  0.5086 -0.1284  0.7321
  988MOL0     C30343   4.283  10.295   2.477  0.7029  0.4066 -0.5521
  988MOL0     C30344   4.433  10.263   2.512  0.3846  0.5108 -1.4548
  988MOL0     C30345   4.524  10.300   2.401 -0.5522  0.2084 -0.7956
  988MOL0     C30346   4.552  10.445   2.397 -0.5643 -0.2779  0.3077
  988MOL0     C30347   4.608  10.494   2.270  0.4482  0.8333 -0.6671
  988MOL0     C30348   4.657  10.522   2.158  0.5424  0.6578  0.0701
  988MOL0     C30349   4.164  10.007   2.521  0.6170  0.2431 -0.0749
  988MOL0     C30350   4.123   9.876   2.527 -0.1824  1.1984  0.4695
  988MOL0     H30351   4.073   9.392   2.381  0.3984  1.3668 -0.0046
  988MOL0     H30352   3.977   9.183   2.411  2.0640  0.1692  2.9771
  988MOL0     H30353   3.913   8.995   2.538  0.3453  1.0995 -2.9005
  988MOL0     H30354   3.793   9.023   2.402 -0.8226  2.0627 -0.0408
  988MOL0     H30355   3.736   8.867   2.663 -0.6136 -2.4765 -0.2153
  988MOL0     H30356   3.755   8.785   2.513 -0.6096  0.9160 -0.3906
  988MOL0     H30357   3.559   8.900   2.406 -2.0728 -1.6007 -0.4075
  988MOL0     H30358   3.541   9.008   2.547  0.2203 -1.2566  1.2407
  988MOL0     H30359   3.494   8.705   2.541 -0.5684  1.0166 -2.6133
  988MOL0     H30360   3.509   8.784   2.687 -1.7701 -0.2855  0.0046
  988MOL0     H30361   3.286   8.813   2.484 -0.4376  1.9493 -0.7600
  988MOL0     H30362   3.324   8.954   2.582  0.9257  0.0756  2.6969
  988MOL0     H30363   3.269   8.803   2.791 -0.3247  0.2451 -1.0210
  988MOL0     H30364   3.231   8.685   2.687  2.3985  0.6456  0.8149
  988MOL0     H30365   3.105   8.955   2.674  0.3776 -0.2558 -0.7691
  988MOL0     H30366   3.057   8.825   2.571 -1.6575 -0.1638  0.8033
  988MOL0     H30367   3.035   8.692   2.805 -2.2646 -2.2992 -2.8839
  988MOL0     H30368   2.906   8.783   2.759  0.5749 -0.3138  1.2549
  988MOL0     H30369   3.209   8.975   2.927  1.3380 -0.8846  1.9292
  988MOL0     H30370   3.071   9.171   3.186 -0.1689 -0.0629 -0.8671
  988MOL0     H30371   3.236   9.120   3.145 -0.3735 -1.3302 -1.6748
  988MOL0     H30372   3.088   8.981   3.357 -1.8311  4.1457  0.1039
  988MOL0     H30373   3.209   9.115   3.379  3.3510  0.3550 -1.9725
  988MOL0     H30374   3.300   8.872   3.425  1.3629 -0.5172 -0.3126
  988MOL0     H30375   3.270   8.846   3.265  1.9586  1.5135 -3.1450
  988MOL0     H30376   3.431   8.995   3.182  0.7340 -1.0281 -0.9389
  988MOL0     H30377   3.506   8.901   3.308 -1.1545 -0.4304  0.7340
  988MOL0     H30378   3.476   9.370   3.345  1.1328  0.3971  1.7113
  988MOL0     H30379   3.649   9.508   3.235  0.4743 -0.0020  3.4409
  988MOL0     H30380   3.836   9.630   2.930 -0.9347 -1.4162  3.5146
  988MOL0     H30381   3.949   9.810   2.812 -1.1388  1.1371  0.8793
  988MOL0     H30382   4.239  10.042   3.066  0.5208 -1.6200 -2.5102
  988MOL0     H30383   4.077  10.125   3.077  0.7889  0.1163  0.9388
  988MOL0     H30384   4.130  10.257   2.880  0.7997  0.8731 -1.1961
  988MOL0     H30385   4.283  10.153   2.858 -0.0952 -1.1239  0.4708
  988MOL0     H30386   4.361  10.354   2.938  0.7415  0.1168  0.9766
  988MOL0     H30387   4.365  10.249   3.067  1.0623  1.1418 -0.4936
  988MOL0     H30388   4.125  10.457   3.018 -0.0227  1.0397  0.8661
  988MOL0     H30389   4.131  10.348   3.155 -1.4385  2.1937  1.6356
  988MOL0     H30390   4.324  10.579   3.071 -0.0836  1.5060 -0.4065
  988MOL0     H30391   4.353  10.479   3.215  2.5644  2.2924 -1.3875
  988MOL0     H30392   4.099  10.561   3.290 -0.8838  0.2586 -1.1943
  988MOL0     H30393   4.113  10.655   3.142  2.6802 -1.4499 -1.9540
  988MOL0     H30394   4.329  10.745   3.224  1.2490 -6.2746 -1.7556
  988MOL0     H30395   4.201  10.801   3.333 -1.2548 -0.9058  0.0638
  988MOL0     H30396   4.392  10.585   3.412 -0.4023 -0.3464  2.7487
  988MOL0     H30397   4.259  10.637   3.512  1.5132 -1.3449  0.5873
  988MOL0     H30398   4.171   9.868   3.187 -1.4307 -2.6613  2.9482
  988MOL0     H30399   4.066   9.693   3.290  0.6258  1.8945 -0.5663
  988MOL0     H30400   3.884   9.171   3.146  1.3482  2.1293  0.3516
  988MOL0     H30401   3.727   9.014   3.240 -0.4632  0.6186 -4.3084
  988MOL0     H30402   3.695   9.326   2.699  1.4052  0.1040  2.6770
  988MOL0     H30403   3.795   9.559   2.669  2.6385  1.0025  1.2586
  988MOL0     H30404   4.029   9.851   2.204 -1.0470  5.2379 -2.3914
  988MOL0     H30405   4.133  10.075   2.202  2.9567 -0.9271 -1.3345
  988MOL0     H30406   4.222  10.269   2.564  1.4231 -1.7806 -0.6642
  988MOL0     H30407   4.280  10.397   2.436 -0.0927 -0.1245 -1.8489
  988MOL0     H30408   4.451  10.322   2.602  0.2860 -0.4905 -0.7542
  988MOL0     H30409   4.437  10.158   2.545 -1.5509  0.9650  0.4138
  988MOL0     H30410   4.485  10.257   2.308  3.7012 -1.7644 -1.9503
  988MOL0     H30411   4.621  10.250   2.417  0.8800  2.7067 -1.1343
  988MOL0     H30412   4.455  10.495   2.408 -0.7981 -1.0029  1.7221
  988MOL0     H30413   4.614  10.467   2.485 -0.2189 -0.7931  0.1929
  988MOL0     H30414   4.699  10.533   2.060  0.9327 -2.5317 -0.2470
  988MOL0     H30415   4.191  10.060   2.612 -0.3084  3.4830 -1.5450
  988MOL0     H30416   4.124   9.810   2.613  1.6147  1.2031  0.5012
  989MOL0     O30417   2.563   4.383   1.172 -0.5253  1.1330  0.3860
  989MOL0     C30418   2.561   4.494   1.229 -0.2947 -0.7657 -0.2204
  989MOL0     O30419   2.477   4.592   1.217  0.7026 -0.4726  0.3935
  989MOL0     C30420   2.397   4.597   1.114 -0.1761  0.6134  0.2765
  989MOL0     C30421   2.258   4.581   1.139  0.1201 -0.4358  0.1620
  989MOL0     C30422   2.168   4.599   1.033  0.6532 -0.8090  0.5273
  989MOL0     C30423   2.215   4.622   0.899  0.1713 -0.4305 -0.4319
  989MOL0     O30424   2.129   4.607   0.799 -0.5325  0.3089  0.3428
  989MOL0     C30425   1.998   4.634   0.813 -0.1992 -0.5006 -0.2849
  989MOL0     C30426   1.918   4.621   0.678 -0.4727  0.0562 -1.2459
  989MOL0     C30427   1.953   4.492   0.597  0.6830 -0.5296 -0.5680
  989MOL0     C30428   1.924   4.350   0.669 -0.7645  0.2997  0.7351
  989MOL0     C30429   1.803   4.281   0.601 -0.1047 -0.1905 -0.2887
  989MOL0     C30430   1.674   4.330   0.668 -1.1296  0.3209  0.4894
  989MOL0     C30431   1.539   4.278   0.606  0.0091 -0.0993 -0.3408
  989MOL0     C30432   1.417   4.342   0.690  0.6829  1.1558 -0.1186
  989MOL0     N30433   1.427   4.478   0.739  0.6138  0.0397  0.1954
  989MOL0     C30434   1.442   4.585   0.663  0.6742 -0.1960 -1.3455
  989MOL0     C30435   1.435   4.693   0.744  0.2817 -0.1643 -0.8743
  989MOL0     C30436   1.469   4.831   0.698  0.2251 -0.1074  0.9817
  989MOL0     C30437   1.624   4.843   0.709  0.3911 -0.4023  1.6311
  989MOL0     C30438   1.669   4.984   0.655  0.1440  0.1813 -0.6453
  989MOL0     C30439   1.822   4.999   0.664 -0.1823  0.2640 -0.3686
  989MOL0     O30440   1.858   4.978   0.797 -0.3346 -0.6629 -0.3012
  989MOL0     C30441   1.994   5.001   0.835  0.3365 -0.0624 -0.9495
  989MOL0     C30442   2.029   4.960   0.961 -0.2721  1.4893 -0.7355
  989MOL0     C30443   2.154   4.992   1.020 -0.0095  0.1427 -0.4052
  989MOL0     C30444   2.250   5.066   0.944  0.1345 -0.3811  0.6580
  989MOL0     C30445   2.394   5.077   0.983  0.0158 -0.9760  0.5451
  989MOL0     O30446   2.428   5.008   1.092  0.1233  0.3241  0.6319
  989MOL0     C30447   2.508   5.081   1.181 -0.7162 -0.0226 -0.1711
  989MOL0     C30448   2.602   5.006   1.243 -0.0915  0.5151 -0.6039
  989MOL0     C30449   2.694   5.068   1.346  1.6482 -0.0372 -0.3277
  989MOL0     C30450   2.694   5.208   1.363  1.3896  0.2832  0.2450
  989MOL0     O30451   2.769   5.287   1.452  0.3457  0.9684 -0.2132
  989MOL0     C30452   2.795   5.238   1.583 -0.2215 -0.1985 -0.2731
  989MOL0     C30453   2.925   5.151   1.586  1.1704  0.1530 -0.9552
  989MOL0     C30454   3.050   5.240   1.578  0.2251 -0.5596 -0.9880
  989MOL0     C30455   3.174   5.161   1.597  0.6797  0.3973 -0.7947
  989MOL0     C30456   3.280   5.251   1.542  0.0749  0.2848 -0.1335
  989MOL0     C30457   3.410   5.178   1.529  0.4088  0.0264  0.6457
  989MOL0     C30458   3.522   5.276   1.470  0.2934 -0.0672 -0.0291
  989MOL0     C30459   3.560   5.410   1.526  0.3289  0.2121 -0.2919
  989MOL0    Cl30460   3.712   5.396   1.614  0.6165 -0.1022 -0.3127
  989MOL0     C30461   2.590   5.278   1.292  0.5241  0.6338 -0.2674
  989MOL0     C30462   2.497   5.216   1.205 -0.1461  0.1011  0.4864
  989MOL0     O30463   2.470   5.151   0.919  0.1481  0.1357 -0.7712
  989MOL0     C30464   2.216   5.106   0.809 -0.6766  0.3246 -0.5231
  989MOL0     C30465   2.091   5.072   0.755 -1.3271 -0.3381 -0.7027
  989MOL0     N30466   1.414   4.651   0.873 -0.9169 -0.0800  0.1939
  989MOL0     N30467   1.413   4.524   0.870 -0.4194 -0.0573  0.5442
  989MOL0     C30468   2.358   4.641   0.884  0.1538  0.7556 -0.2600
  989MOL0     C30469   2.440   4.628   0.993 -0.1417  0.1190  0.7976
  989MOL0     C30470   2.662   4.507   1.341  0.2356  0.1649 -0.8608
  989MOL0     C30471   2.771   4.412   1.356 -0.0747 -0.5951  0.6858
  989MOL0     C30472   2.873   4.432   1.447 -0.3256 -1.1447  0.0514
  989MOL0     C30473   2.871   4.551   1.532 -0.0381 -0.0642 -0.5409
  989MOL0     O30474   2.971   4.597   1.625  0.7298  0.4838  0.0527
  989MOL0     C30475   3.104   4.573   1.588 -0.2291 -0.2808  0.2369
  989MOL0     C30476   3.210   4.677   1.639 -0.1274  0.1253 -0.1056
  989MOL0     C30477   3.348   4.659   1.573  0.1385  0.8084  1.1564
  989MOL0     C30478   3.394   4.518   1.525  0.3330  0.3799 -0.4275
  989MOL0     C30479   3.332   4.482   1.393  0.5404  0.1879 -0.4148
  989MOL0     C30480   3.264   4.460   1.292 -0.3392  0.4361  0.1562
  989MOL0     C30481   2.746   4.620   1.533  0.1383  0.2066  0.0659
  989MOL0     C30482   2.640   4.614   1.437  1.1991 -0.2815 -0.3487
  989MOL0     H30483   2.215   4.562   1.237  1.8077  0.3426  1.0982
  989MOL0     H30484   2.063   4.588   1.059  1.0803  0.3765  3.1273
  989MOL0     H30485   1.984   4.736   0.849  0.4181 -0.4399 -0.2192
  989MOL0     H30486   1.940   4.571   0.881  0.4095 -0.0231  0.6952
  989MOL0     H30487   1.946   4.711   0.623  0.9500  2.2719  2.6435
  989MOL0     H30488   1.811   4.626   0.699  0.0030  4.3703  1.1609
  989MOL0     H30489   2.060   4.488   0.573  0.8145  0.4662 -0.1938
  989MOL0     H30490   1.889   4.496   0.509  0.5937 -1.2077 -0.5447
  989MOL0     H30491   1.995   4.271   0.644 -4.3836 -3.2231  0.5128
  989MOL0     H30492   1.914   4.358   0.778 -1.4942 -0.3359  0.7209
  989MOL0     H30493   1.792   4.174   0.622  2.4474 -0.5531 -0.4856
  989MOL0     H30494   1.823   4.294   0.494  2.7211  2.7244  0.4460
  989MOL0     H30495   1.677   4.439   0.657  2.0383  0.2912  0.2979
  989MOL0     H30496   1.682   4.307   0.775  0.9657 -0.1078  0.2864
  989MOL0     H30497   1.514   4.306   0.503 -2.1048 -3.2768 -0.8368
  989MOL0     H30498   1.546   4.169   0.616 -0.7085  0.0261  2.0500
  989MOL0     H30499   1.389   4.277   0.774 -1.1779  0.1145 -1.4611
  989MOL0     H30500   1.329   4.341   0.625  0.7451  0.0515 -0.2118
  989MOL0     H30501   1.466   4.588   0.557  0.5035 -0.9547 -1.4120
  989MOL0     H30502   1.428   4.915   0.754 -0.3656  1.1072 -1.1379
  989MOL0     H30503   1.428   4.834   0.596  2.2577 -3.6397 -0.0921
  989MOL0     H30504   1.675   4.766   0.650  2.1656  0.4382  2.0115
  989MOL0     H30505   1.654   4.829   0.814  0.5037 -1.2099  1.4979
  989MOL0     H30506   1.629   4.995   0.553 -2.5763  2.6412  0.5465
  989MOL0     H30507   1.638   5.067   0.719  0.5315  0.9365 -1.4178
  989MOL0     H30508   1.847   5.096   0.620  2.2995 -1.0740 -2.1549
  989MOL0     H30509   1.869   4.922   0.602  0.2739 -0.4136  0.7884
  989MOL0     H30510   1.953   4.914   1.024  1.7945 -1.0182  0.0706
  989MOL0     H30511   2.169   4.968   1.125 -1.9125  0.2912 -0.0644
  989MOL0     H30512   2.588   4.900   1.225 -1.6391 -0.1540  3.4442
  989MOL0     H30513   2.770   4.997   1.375  4.1174  2.6401  0.1330
  989MOL0     H30514   2.713   5.177   1.621 -0.1916 -0.5602 -0.7710
  989MOL0     H30515   2.807   5.328   1.644 -0.1309  0.0702 -0.6819
  989MOL0     H30516   2.926   5.086   1.497  2.2137  2.4220 -2.7015
  989MOL0     H30517   2.917   5.092   1.677 -0.6423  3.2210  1.0425
  989MOL0     H30518   3.034   5.318   1.653 -0.0993 -2.0801  0.6176
  989MOL0     H30519   3.054   5.287   1.480 -0.2185  0.2904 -0.6041
  989MOL0     H30520   3.203   5.153   1.702  1.4216 -0.0302 -1.0242
  989MOL0     H30521   3.172   5.063   1.548 -2.4460 -0.3908  0.6838
  989MOL0     H30522   3.292   5.333   1.615 -0.0049 -1.3410  1.7888
  989MOL0     H30523   3.266   5.288   1.440  0.5524 -0.7598 -0.5911
  989MOL0     H30524   3.404   5.095   1.458 -1.8751 -1.8014  2.7497
  989MOL0     H30525   3.451   5.143   1.625 -0.0700 -0.6240  0.6215
  989MOL0     H30526   3.615   5.220   1.469 -0.7281 -1.8675  1.0507
  989MOL0     H30527   3.492   5.281   1.365  3.8066  0.6091 -1.1256
  989MOL0     H30528   3.491   5.440   1.606  1.1320  2.2234 -0.2978
  989MOL0     H30529   3.569   5.481   1.443  0.1986 -1.7603 -2.0939
  989MOL0     H30530   2.579   5.382   1.321  1.5273  0.0430  2.5822
  989MOL0     H30531   2.431   5.284   1.152  3.3330  3.6444  0.2341
  989MOL0     H30532   2.284   5.158   0.743  0.0885 -1.9427 -1.6450
  989MOL0     H30533   2.072   5.095   0.651 -0.7422 -0.4629 -0.8379
  989MOL0     H30534   2.394   4.649   0.782  4.8453  0.0807  1.0972
  989MOL0     H30535   2.546   4.649   0.985  0.1358  0.7857  4.4028
  989MOL0     H30536   2.774   4.320   1.299 -1.5741 -0.3721  0.2062
  989MOL0     H30537   2.941   4.347   1.448 -0.1635 -1.0335 -1.0096
  989MOL0     H30538   3.103   4.579   1.479  1.0487  1.5106  0.2903
  989MOL0     H30539   3.132   4.476   1.631  2.2691  1.1793  2.1196
  989MOL0     H30540   3.178   4.781   1.631 -1.6231 -0.3237 -0.2668
  989MOL0     H30541   3.228   4.643   1.742 -2.0388 -2.2538 -0.4632
  989MOL0     H30542   3.417   4.688   1.652  0.9831  0.4411  0.5697
  989MOL0     H30543   3.350   4.736   1.496 -0.0806 -0.8733 -0.6274
  989MOL0     H30544   3.503   4.510   1.523  0.3668 -0.3725  1.6492
  989MOL0     H30545   3.370   4.448   1.606  2.2166 -0.5769 -0.6334
  989MOL0     H30546   3.204   4.418   1.213  1.6749  1.2887 -1.9366
  989MOL0     H30547   2.745   4.706   1.600 -2.4990  0.4240 -0.1573
  989MOL0     H30548   2.568   4.695   1.432  2.2827  0.7748  0.5458
  990MOL0     O30549   3.702   2.984   4.977  1.2017 -0.7399 -0.5596
  990MOL0     C30550   3.757   3.081   4.918  0.3538  0.8056 -0.2301
  990MOL0     O30551   3.721   3.214   4.939 -0.2683 -0.5761 -0.0176
  990MOL0     C30552   3.627   3.249   5.033  0.9098 -0.6720 -0.1540
  990MOL0     C30553   3.513   3.324   5.001  0.1954 -0.5010 -0.4171
  990MOL0     C30554   3.426   3.381   5.105  0.0386  0.9676  0.1036
  990MOL0     C30555   3.455   3.332   5.237  0.2977 -0.0947 -0.2363
  990MOL0     O30556   3.374   3.371   5.343 -1.0330 -0.0288  0.5958
  990MOL0     C30557   3.401   3.326   5.474  0.0284  0.8119  0.6268
  990MOL0     C30558   3.317   3.411   5.567 -1.5222  0.6815  0.2797
  990MOL0     C30559   3.168   3.421   5.530 -0.0373  0.4505 -0.2952
  990MOL0     C30560   3.086   3.487   5.644 -0.2711  0.2911  0.3582
  990MOL0     C30561   2.937   3.491   5.605 -0.6091  0.0884  0.7696
  990MOL0     C30562   2.907   3.571   5.479  0.5281  0.7646 -0.2070
  990MOL0     C30563   2.758   3.596   5.453 -0.2057  0.6343 -0.6763
  990MOL0     C30564   2.715   3.743   5.482 -0.5208 -0.1677 -0.3939
  990MOL0     N30565   2.565   3.751   5.504 -0.8810 -0.1498 -0.0761
  990MOL0     C30566   2.475   3.780   5.402 -0.1456 -0.2461 -0.8847
  990MOL0     C30567   2.350   3.778   5.466  0.4414  0.2649 -0.8204
  990MOL0     C30568   2.215   3.811   5.407  0.2315 -0.8049 -1.2254
  990MOL0     C30569   2.153   3.940   5.471 -0.9379  0.6337 -0.0802
  990MOL0     C30570   2.255   4.052   5.474  0.8681 -0.2020 -0.2513
  990MOL0     C30571   2.186   4.182   5.525  0.6921  0.2244  0.2855
  990MOL0     O30572   2.097   4.241   5.433  0.2655 -0.7407  0.0120
  990MOL0     C30573   2.105   4.370   5.402  0.4289  0.0491  0.5726
  990MOL0     C30574   2.082   4.398   5.268 -0.0436 -0.7166 -0.0288
  990MOL0     C30575   2.075   4.528   5.225 -0.2879 -0.3807 -0.2923
  990MOL0     C30576   2.088   4.642   5.310 -0.6836  0.0622 -0.3920
  990MOL0     C30577   2.071   4.779   5.263 -0.3908  1.4497 -0.3924
  990MOL0     O30578   2.076   4.884   5.352  0.1141  0.0266 -0.8204
  990MOL0     C30579   2.037   5.008   5.302  0.4528  0.4616  1.3351
  990MOL0     C30580   1.913   5.055   5.341  0.4459 -0.8530  0.5681
  990MOL0     C30581   1.871   5.183   5.295  0.3551 -0.4500  0.1413
  990MOL0     C30582   1.954   5.253   5.211 -0.3208  0.7960  1.0927
  990MOL0     O30583   1.919   5.376   5.168  0.0202 -0.8844  0.3018
  990MOL0     C30584   1.789   5.395   5.109  0.7733 -0.4189  0.1380
  990MOL0     C30585   1.781   5.495   4.996  0.3598 -0.2537  0.5619
  990MOL0     C30586   1.633   5.551   4.991  0.2729  0.1478 -0.0933
  990MOL0     C30587   1.623   5.647   4.870  0.9319 -0.8515 -0.4739
  990MOL0     C30588   1.479   5.688   4.841 -0.3108 -0.9433  0.0482
  990MOL0     C30589   1.465   5.828   4.776  0.6669 -0.5674 -0.6185
  990MOL0     C30590   1.349   5.911   4.827 -0.1801 -0.0562 -0.3618
  990MOL0     C30591   1.214   5.844   4.783 -0.8534 -1.0461  0.9568
  990MOL0    Cl30592   1.180   5.872   4.612 -0.4642  0.7813 -0.4011
  990MOL0     C30593   2.086   5.214   5.179  0.4389  0.4038 -1.1996
  990MOL0     C30594   2.119   5.085   5.214 -0.2117  0.6331  0.3359
  990MOL0     O30595   2.070   4.794   5.139  0.9298 -0.0887 -0.0758
  990MOL0     C30596   2.119   4.608   5.449 -0.2186  1.3644 -0.1844
  990MOL0     C30597   2.128   4.474   5.497 -0.2663 -0.5239  0.1739
  990MOL0     N30598   2.368   3.746   5.604  0.3701 -0.2595 -0.0583
  990MOL0     N30599   2.495   3.721   5.618  0.0639  0.2341  0.0558
  990MOL0     C30600   3.562   3.247   5.263 -0.7178  1.4554 -0.2787
  990MOL0     C30601   3.655   3.209   5.166 -0.7250 -0.3499  0.1913
  990MOL0     C30602   3.882   3.038   4.849 -1.2174  0.2424  0.8910
  990MOL0     C30603   3.956   3.133   4.773  0.5879  0.2203 -0.7451
  990MOL0     C30604   4.050   3.090   4.690 -0.4576 -1.1984 -0.9205
  990MOL0     C30605   4.091   2.955   4.680 -0.1118  0.5523 -0.7181
  990MOL0     O30606   4.188   2.929   4.594 -0.3520 -0.2460  0.0428
  990MOL0     C30607   4.218   2.792   4.567  0.3666  0.6418  0.0843
  990MOL0     C30608   4.340   2.779   4.478 -0.1256 -0.6804  0.0157
  990MOL0     C30609   4.456   2.853   4.541 -0.1184 -0.2897  0.2211
  990MOL0     C30610   4.578   2.833   4.449 -0.7060  0.5442 -0.5766
  990MOL0     C30611   4.713   2.829   4.516 -0.5309  1.1268 -0.7122
  990MOL0     C30612   4.814   2.822   4.579 -0.9647 -0.3421  0.6330
  990MOL0     C30613   4.017   2.862   4.753 -0.1429 -0.1553 -0.3048
  990MOL0     C30614   3.913   2.901   4.833  0.2137 -0.1803 -0.2122
  990MOL0     H30615   3.496   3.344   4.896  3.1721  0.8457 -0.7550
  990MOL0     H30616   3.342   3.446   5.087  0.5391  0.8048 -3.4792
  990MOL0     H30617   3.504   3.346   5.505  0.5441 -0.5742 -0.1263
  990MOL0     H30618   3.387   3.220   5.495 -1.0665  0.7945 -0.1625
  990MOL0     H30619   3.345   3.517   5.559 -1.3967  0.5660 -0.8907
  990MOL0     H30620   3.323   3.369   5.668 -2.1875 -3.4981 -1.2263
  990MOL0     H30621   3.133   3.317   5.534  0.2334  0.3770  0.3925
  990MOL0     H30622   3.149   3.468   5.434  0.1258  1.8489  0.3334
  990MOL0     H30623   3.097   3.437   5.740  0.3987  2.6175  1.5679
  990MOL0     H30624   3.118   3.588   5.671 -1.1137  1.2413 -1.9566
  990MOL0     H30625   2.894   3.538   5.694 -1.9737  0.3520 -0.0014
  990MOL0     H30626   2.892   3.391   5.608  1.7975 -1.0908  0.2133
  990MOL0     H30627   2.944   3.530   5.385 -1.8447  0.2514 -0.9975
  990MOL0     H30628   2.955   3.667   5.497 -1.9500  1.6291  2.6376
  990MOL0     H30629   2.726   3.565   5.353 -0.0629  0.3203 -0.6231
  990MOL0     H30630   2.702   3.532   5.522  1.0178 -1.9183 -1.9159
  990MOL0     H30631   2.753   3.805   5.401 -0.6292  1.5012  0.7972
  990MOL0     H30632   2.754   3.782   5.576 -0.8013  0.3234 -0.4803
  990MOL0     H30633   2.500   3.790   5.297 -0.5036  0.7856 -0.8891
  990MOL0     H30634   2.142   3.730   5.409  1.4759 -1.9782  1.0963
  990MOL0     H30635   2.236   3.835   5.303  3.3509  3.4052  0.0927
  990MOL0     H30636   2.109   3.908   5.566 -0.0524 -1.2494 -0.2466
  990MOL0     H30637   2.064   3.971   5.416 -2.4416 -0.7246  1.4729
  990MOL0     H30638   2.333   4.034   5.549 -0.6673  0.5707  1.5932
  990MOL0     H30639   2.291   4.054   5.371  1.3864 -3.0679 -0.2125
  990MOL0     H30640   2.265   4.252   5.556  2.3050 -1.1771 -0.4759
  990MOL0     H30641   2.120   4.146   5.605 -1.0466  1.3190 -0.6013
  990MOL0     H30642   2.074   4.311   5.204  4.1834 -0.8178 -0.6468
  990MOL0     H30643   2.065   4.558   5.121 -0.3215  1.7806  0.2665
  990MOL0     H30644   1.846   4.993   5.399  0.6281 -0.6815  0.9665
  990MOL0     H30645   1.771   5.219   5.317  0.3090  0.0773 -0.8739
  990MOL0     H30646   1.736   5.436   5.195  2.3874  1.0689  0.4697
  990MOL0     H30647   1.747   5.298   5.079 -0.2148 -0.2878  1.0348
  990MOL0     H30648   1.796   5.445   4.900  0.7468 -1.6397  1.3128
  990MOL0     H30649   1.865   5.565   5.002  0.9692 -0.5557 -2.6806
  990MOL0     H30650   1.608   5.593   5.089  1.1891 -1.6506  0.9644
  990MOL0     H30651   1.568   5.465   4.975  1.1518 -0.0861 -3.0661
  990MOL0     H30652   1.683   5.730   4.908 -2.0364  0.8735  0.7084
  990MOL0     H30653   1.673   5.601   4.784  0.2344 -0.6784 -0.9748
  990MOL0     H30654   1.429   5.690   4.938 -0.7224 -4.0654 -0.0118
  990MOL0     H30655   1.436   5.606   4.783 -1.6098  0.0499 -0.4569
  990MOL0     H30656   1.470   5.824   4.667  2.3030  2.4655 -0.7795
  990MOL0     H30657   1.557   5.883   4.795 -0.2969  0.7335  0.4919
  990MOL0     H30658   1.348   5.895   4.936  0.4016  2.3655  0.0485
  990MOL0     H30659   1.361   6.018   4.809 -1.5776 -0.2322 -2.6651
  990MOL0     H30660   1.132   5.867   4.851 -3.6096 -0.7652 -2.1859
  990MOL0     H30661   1.215   5.735   4.782 -2.4454 -1.0857 -0.2381
  990MOL0     H30662   2.154   5.272   5.118  0.6737  2.2704  0.7232
  990MOL0     H30663   2.214   5.039   5.188  0.4363  0.0082  3.4811
  990MOL0     H30664   2.151   4.684   5.520  1.0959 -0.4314  1.2322
  990MOL0     H30665   2.143   4.466   5.605  2.5974  2.0285  0.0926
  990MOL0     H30666   3.573   3.199   5.359 -1.2939  0.8675 -0.5002
  990MOL0     H30667   3.736   3.140   5.188 -2.1234 -1.8746  0.7058
  990MOL0     H30668   3.924   3.237   4.767 -0.9640  0.1148  2.8258
  990MOL0     H30669   4.096   3.158   4.619 -2.5365 -0.3072 -1.4817
  990MOL0     H30670   4.131   2.742   4.523  0.5113 -1.7789  2.2906
  990MOL0     H30671   4.245   2.751   4.665 -1.7214  1.5451  1.0979
  990MOL0     H30672   4.369   2.674   4.465  0.9128 -0.2834 -1.0331
  990MOL0     H30673   4.326   2.832   4.384  0.6483  1.9714  1.3104
  990MOL0     H30674   4.473   2.798   4.634 -0.1605  0.2071  0.5284
  990MOL0     H30675   4.437   2.958   4.568 -2.2714 -1.1035  2.1957
  990MOL0     H30676   4.567   2.739   4.395 -0.3721  0.1336  0.0539
  990MOL0     H30677   4.563   2.912   4.375 -2.2543  0.7748 -0.0499
  990MOL0     H30678   4.911   2.844   4.619 -1.7583  1.9096  1.4972
  990MOL0     H30679   4.033   2.755   4.747  2.1306  0.0692  0.7198
  990MOL0     H30680   3.853   2.830   4.889 -1.7769  2.2615  0.9783
  991MOL0     O30681  10.263   2.303   9.456  0.0174  0.3255  0.1206
  991MOL0     C30682  10.156   2.347   9.429  1.1845 -0.9573  0.1492
  991MOL0     O30683  10.088   2.330   9.306 -0.0935 -0.0170  0.0192
  991MOL0     C30684  10.160   2.290   9.195  0.5300 -0.9136  0.8885
  991MOL0     C30685  10.281   2.352   9.169  0.1577  0.2304 -0.4115
  991MOL0     C30686  10.365   2.317   9.064 -0.4827  0.1650  0.7163
  991MOL0     C30687  10.313   2.232   8.968  0.2901  0.0373 -0.1230
  991MOL0     O30688  10.385   2.213   8.855 -0.2612 -0.0266 -0.1520
  991MOL0     C30689  10.493   2.113   8.866 -0.2554  0.2757  0.4512
  991MOL0     C30690  10.421   1.975   8.856 -0.7269 -0.9765  1.1978
  991MOL0     C30691  10.370   1.935   8.713 -0.4110 -0.2023  0.2261
  991MOL0     C30692  10.269   1.810   8.716 -0.1932 -0.3828  0.2170
  991MOL0     C30693  10.216   1.793   8.574  0.3872  0.3585  0.6444
  991MOL0     C30694  10.084   1.707   8.579  0.3579 -1.0842  0.5710
  991MOL0     C30695  10.115   1.563   8.535 -1.2493  0.6859  0.7513
  991MOL0     C30696  10.226   1.488   8.606  0.5995 -0.3398 -0.0561
  991MOL0     N30697  10.263   1.366   8.528  0.4620 -0.1763 -1.0342
  991MOL0     C30698  10.383   1.341   8.461  0.2171  0.0876 -0.0353
  991MOL0     C30699  10.372   1.212   8.425 -0.1404 -1.0417 -0.0413
  991MOL0     C30700  10.488   1.132   8.352 -0.2834 -0.2123 -0.5882
  991MOL0     C30701  10.594   1.087   8.468 -0.6349  0.6268 -0.6249
  991MOL0     C30702  10.715   1.012   8.405  0.2960  0.2892 -0.8369
  991MOL0     C30703  10.827   0.974   8.508  0.6121 -0.5371  0.1492
  991MOL0     O30704  10.928   0.894   8.452  0.5592 -0.9637  0.4154
  991MOL0     C30705  11.036   0.865   8.530 -0.2344  0.6060 -0.0756
  991MOL0     C30706  11.160   0.841   8.470  0.0114 -0.3112  0.4025
  991MOL0     C30707  11.275   0.813   8.545  0.6446  0.1627  1.6521
  991MOL0     C30708  11.269   0.809   8.681  0.6869  0.4981 -0.5135
  991MOL0     C30709  11.392   0.769   8.757  0.3164  0.4796 -0.2220
  991MOL0     O30710  11.511   0.787   8.695 -0.3228  0.4957 -0.6494
  991MOL0     C30711  11.626   0.750   8.755  0.9492 -0.0188 -0.0751
  991MOL0     C30712  11.707   0.648   8.697  0.7865  1.0655  0.8539
  991MOL0     C30713  11.829   0.621   8.754  0.4798  0.2650 -0.0209
  991MOL0     C30714  11.870   0.683   8.871  1.3546 -0.4315  0.1672
  991MOL0     O30715  11.999   0.650   8.906  0.7142  0.1954 -0.3457
  991MOL0     C30716  12.066   0.725   9.009 -0.0806 -0.6027 -0.3262
  991MOL0     C30717  12.203   0.653   9.038 -1.2641  0.0000 -0.7548
  991MOL0     C30718  12.291   0.617   8.916  0.5381 -0.0891  0.0685
  991MOL0     C30719  12.432   0.592   8.949 -0.0792 -0.7924  0.3466
  991MOL0     C30720  12.513   0.723   8.973  1.1219 -0.5637 -0.1334
  991MOL0     C30721  12.661   0.695   8.971 -0.1819 -0.1293 -0.3524
  991MOL0     C30722  12.737   0.833   8.982  0.2330 -0.0728 -0.9706
  991MOL0     C30723  12.886   0.821   8.949  0.0420 -0.2160  0.5646
  991MOL0    Cl30724  12.960   0.705   9.058 -0.1982  0.5567 -0.3354
  991MOL0     C30725  11.789   0.773   8.939  0.6989 -1.3073 -0.4064
  991MOL0     C30726  11.665   0.810   8.875  0.2353  0.1243  0.5729
  991MOL0     O30727  11.377   0.735   8.872 -0.2983  0.5746 -0.6170
  991MOL0     C30728  11.148   0.836   8.741  0.5761 -0.6327 -0.0494
  991MOL0     C30729  11.033   0.867   8.672 -0.0165 -0.9462  0.6424
  991MOL0     N30730  10.253   1.163   8.471 -0.8858 -0.1956  0.1145
  991MOL0     N30731  10.191   1.252   8.541  0.2608 -0.0562 -0.4621
  991MOL0     C30732  10.185   2.179   8.981 -0.7066  0.1732 -0.0296
  991MOL0     C30733  10.100   2.214   9.095 -0.1354  0.6105 -0.2279
  991MOL0     C30734  10.084   2.421   9.534 -0.4301  0.1178 -0.2598
  991MOL0     C30735  10.152   2.475   9.643 -0.3495  0.1327 -0.0648
  991MOL0     C30736  10.095   2.561   9.737 -0.5505 -0.3503 -0.0562
  991MOL0     C30737   9.959   2.575   9.729  0.0842  0.1830 -0.2914
  991MOL0     O30738   9.881   2.643   9.819  0.5501 -0.6153  0.3091
  991MOL0     C30739   9.944   2.689   9.940 -0.1461  0.0708 -0.6104
  991MOL0     C30740   9.832   2.720  10.041 -0.3027  0.3309 -0.7997
  991MOL0     C30741   9.725   2.802   9.981 -0.8177 -0.3049  0.4868
  991MOL0     C30742   9.768   2.927   9.917 -0.7412 -0.2305 -0.4218
  991MOL0     C30743   9.800   3.043  10.009  0.0593 -0.8078  1.1160
  991MOL0     C30744   9.815   3.132  10.086  0.2178 -0.7687  0.4794
  991MOL0     C30745   9.885   2.532   9.615 -0.5465 -0.0369  0.1003
  991MOL0     C30746   9.951   2.453   9.513 -0.2082 -0.2957 -0.8855
  991MOL0     H30747  10.317   2.431   9.235 -2.3930  1.1146  0.0646
  991MOL0     H30748  10.460   2.362   9.041 -0.2679 -1.4026 -1.8034
  991MOL0     H30749  10.553   2.136   8.955  2.8013 -1.8334 -0.8736
  991MOL0     H30750  10.565   2.122   8.784  2.2414 -2.4384  2.1462
  991MOL0     H30751  10.333   1.968   8.921 -0.9650 -0.2790  0.9645
  991MOL0     H30752  10.492   1.897   8.883 -0.6471 -0.4106  2.7232
  991MOL0     H30753  10.455   1.913   8.648  0.6709 -1.8237  2.0619
  991MOL0     H30754  10.327   2.026   8.670  2.9146  0.7428 -1.4192
  991MOL0     H30755  10.316   1.719   8.755  0.1347 -0.4803 -0.3987
  991MOL0     H30756  10.185   1.824   8.786  0.3342 -0.2834  0.8433
  991MOL0     H30757  10.288   1.738   8.512 -0.9519 -0.8228  0.0842
  991MOL0     H30758  10.200   1.887   8.521  0.1201  0.0417  0.1542
  991MOL0     H30759  10.008   1.740   8.507  0.6848 -1.1374  0.2024
  991MOL0     H30760  10.022   1.706   8.669 -1.5287 -2.1370 -0.6694
  991MOL0     H30761  10.024   1.503   8.543 -0.0706 -1.1188  1.2126
  991MOL0     H30762  10.138   1.561   8.429 -0.5666  2.4012  0.8331
  991MOL0     H30763  10.193   1.446   8.701  1.6153 -2.5323 -0.6137
  991MOL0     H30764  10.315   1.548   8.624  2.1796 -1.9749 -1.9591
  991MOL0     H30765  10.455   1.414   8.425 -0.6938 -0.3400 -3.0419
  991MOL0     H30766  10.528   1.176   8.260  0.5117 -1.6167 -0.9422
  991MOL0     H30767  10.457   1.038   8.308  0.2898  0.1968 -1.9168
  991MOL0     H30768  10.559   1.022   8.548  1.3164  2.3171  1.7557
  991MOL0     H30769  10.631   1.176   8.519 -2.3160  1.4194 -0.7148
  991MOL0     H30770  10.684   0.919   8.356  2.9834 -2.1277  1.6541
  991MOL0     H30771  10.759   1.084   8.336  3.3910  2.5397  3.0543
  991MOL0     H30772  10.769   0.910   8.575  0.3359 -0.8957 -0.4195
  991MOL0     H30773  10.873   1.058   8.559 -1.3573 -1.4097  3.7121
  991MOL0     H30774  11.157   0.834   8.362 -1.5495  0.0427  0.4084
  991MOL0     H30775  11.360   0.791   8.482 -1.6978  0.6251 -1.9571
  991MOL0     H30776  11.674   0.582   8.617  0.8919  4.2600 -2.0260
  991MOL0     H30777  11.894   0.537   8.732 -0.0984 -0.3952  0.7547
  991MOL0     H30778  11.999   0.729   9.095 -0.0749 -1.1109 -0.2990
  991MOL0     H30779  12.073   0.825   8.965 -1.3654 -0.3871 -0.0785
  991MOL0     H30780  12.197   0.560   9.097  3.1577  1.0519  1.8573
  991MOL0     H30781  12.272   0.713   9.097  2.0713 -4.1808  0.1114
  991MOL0     H30782  12.281   0.692   8.838 -2.2854 -1.0894 -0.6808
  991MOL0     H30783  12.261   0.526   8.863  1.9570  0.7568 -2.3212
  991MOL0     H30784  12.445   0.520   9.031 -0.7176 -0.1643  1.0090
  991MOL0     H30785  12.472   0.558   8.853  0.6743  6.1926 -2.3527
  991MOL0     H30786  12.491   0.769   9.070  3.3629  0.3163  0.0307
  991MOL0     H30787  12.490   0.791   8.891  3.2991 -2.0986 -2.1506
  991MOL0     H30788  12.700   0.650   8.879  0.5500  0.6381 -0.4262
  991MOL0     H30789  12.683   0.623   9.050 -0.0744 -0.2215 -0.4649
  991MOL0     H30790  12.688   0.907   8.918 -1.4676 -0.2339  0.0718
  991MOL0     H30791  12.727   0.879   9.081  3.6890  2.0375 -1.4673
  991MOL0     H30792  12.944   0.914   8.956  1.7928 -1.3096  1.3649
  991MOL0     H30793  12.884   0.788   8.845 -0.1541  1.6225 -0.0636
  991MOL0     H30794  11.806   0.819   9.036  1.1630 -0.8940 -0.6836
  991MOL0     H30795  11.609   0.897   8.909 -3.1825 -1.1670 -1.2676
  991MOL0     H30796  11.143   0.834   8.849  4.7704 -0.5749  0.3009
  991MOL0     H30797  10.942   0.882   8.730  0.1102  2.9047  0.1569
  991MOL0     H30798  10.152   2.112   8.902 -0.9404  0.4712 -0.1839
  991MOL0     H30799   9.993   2.194   9.099 -0.6059  3.0178  1.8809
  991MOL0     H30800  10.260   2.461   9.647 -0.3361 -0.2994  5.4781
  991MOL0     H30801  10.149   2.613   9.815 -0.4409  1.0628 -1.0422
  991MOL0     H30802  10.003   2.775   9.910 -0.7861  1.4956  1.9182
  991MOL0     H30803  10.025   2.625   9.976 -1.1924 -0.7174  0.4196
  991MOL0     H30804   9.794   2.624  10.077  4.9188 -1.7302  0.1358
  991MOL0     H30805   9.888   2.771  10.120 -0.9051 -0.8956  0.4728
  991MOL0     H30806   9.657   2.829  10.063  0.5907 -0.5526  1.7792
  991MOL0     H30807   9.672   2.736   9.912  2.1849  0.1429 -2.5205
  991MOL0     H30808   9.863   2.913   9.865 -1.5723 -0.5010 -1.9210
  991MOL0     H30809   9.677   2.950   9.860 -1.1384 -1.9592 -0.5254
  991MOL0     H30810   9.824   3.201  10.168 -3.5483 -1.1541  1.4237
  991MOL0     H30811   9.784   2.569   9.602 -0.2310  1.5741  1.8422
  991MOL0     H30812   9.887   2.417   9.434 -0.0624  1.1698 -1.7064
  992MOL0     O30813   6.422   3.043   2.381 -0.1979 -0.8068 -0.5766
  992MOL0     C30814   6.460   2.931   2.412 -0.0883  0.1793  0.7081
  992MOL0     O30815   6.590   2.885   2.404  0.2421 -0.2409  0.7510
  992MOL0     C30816   6.697   2.966   2.372 -1.2746  0.3439  0.2996
  992MOL0     C30817   6.814   2.918   2.296  0.2404  0.0319  1.0577
  992MOL0     C30818   6.916   3.012   2.265  0.0840 -0.7089  0.2754
  992MOL0     C30819   6.912   3.144   2.315  0.0940  0.2501  0.0803
  992MOL0     O30820   7.010   3.228   2.270  0.5852 -0.3555 -0.8014
  992MOL0     C30821   7.091   3.277   2.382  0.4705 -0.1612 -1.1150
  992MOL0     C30822   7.220   3.351   2.344 -0.4487  0.8197  0.3836
  992MOL0     C30823   7.333   3.242   2.340  0.0718 -0.3301  0.6783
  992MOL0     C30824   7.480   3.275   2.315  0.0454 -0.6752  0.0995
  992MOL0     C30825   7.521   3.372   2.421 -0.5672 -1.2429 -0.6455
  992MOL0     C30826   7.545   3.308   2.559  1.0435  1.1783 -0.3081
  992MOL0     C30827   7.562   3.410   2.664 -0.3357 -0.3445 -0.5740
  992MOL0     C30828   7.704   3.466   2.660 -0.2294  0.4555  0.9643
  992MOL0     N30829   7.720   3.542   2.789  0.6624  0.4370  1.5762
  992MOL0     C30830   7.798   3.491   2.895  0.7505  0.7749 -1.1223
  992MOL0     C30831   7.791   3.582   3.001  0.1293  0.9222  0.6922
  992MOL0     C30832   7.837   3.575   3.145  1.0739  0.1520 -1.4059
  992MOL0     C30833   7.983   3.549   3.162 -0.9375 -0.9771  0.1085
  992MOL0     C30834   8.024   3.549   3.312 -0.1115  0.5694  0.1012
  992MOL0     C30835   8.172   3.520   3.344 -0.2355  0.3937  0.1418
  992MOL0     O30836   8.211   3.569   3.470 -0.2744 -0.1506 -0.0501
  992MOL0     C30837   8.337   3.533   3.515  0.8252 -0.3595 -0.1787
  992MOL0     C30838   8.442   3.466   3.439 -0.4798 -0.1527 -0.5706
  992MOL0     C30839   8.569   3.457   3.497  0.1817 -0.0525 -0.3270
  992MOL0     C30840   8.597   3.518   3.625 -0.1978  0.4759 -0.3682
  992MOL0     C30841   8.734   3.522   3.688 -0.0461  0.6157 -0.7849
  992MOL0     O30842   8.753   3.577   3.816 -0.3449  0.1851  0.6814
  992MOL0     C30843   8.847   3.526   3.906 -0.4616 -0.6834  0.3566
  992MOL0     C30844   8.813   3.535   4.047  0.0058  0.2921  0.6620
  992MOL0     C30845   8.907   3.482   4.135  1.0634 -0.2712  0.4708
  992MOL0     C30846   9.018   3.415   4.096  0.1436 -0.4418  0.4155
  992MOL0     O30847   9.106   3.349   4.189  0.1283  0.3294  0.2046
  992MOL0     C30848   9.156   3.218   4.145  0.4767 -0.0642  0.1085
  992MOL0     C30849   9.196   3.148   4.269  0.5292  0.5748  0.5913
  992MOL0     C30850   9.299   3.034   4.243  0.2342  0.8923 -0.2172
  992MOL0     C30851   9.226   2.919   4.171  0.8675  0.5916 -0.0597
  992MOL0     C30852   9.301   2.784   4.171 -0.9317 -0.2150 -0.2487
  992MOL0     C30853   9.447   2.796   4.142  0.4732 -0.2479  0.6717
  992MOL0     C30854   9.484   2.655   4.129  1.0010  0.2157 -0.5624
  992MOL0     C30855   9.642   2.641   4.104 -0.0304  0.8187  0.5834
  992MOL0    Cl30856   9.743   2.708   4.233 -0.2896  0.3909 -0.6792
  992MOL0     C30857   9.054   3.413   3.957 -0.7205  1.0324  0.4263
  992MOL0     C30858   8.973   3.473   3.863 -0.7368  0.6257 -0.5094
  992MOL0     O30859   8.825   3.475   3.616 -0.5201  0.5143  0.1086
  992MOL0     C30860   8.493   3.590   3.689 -0.0102  1.6852 -0.2874
  992MOL0     C30861   8.366   3.598   3.639 -0.5792 -1.0489 -0.4150
  992MOL0     N30862   7.708   3.681   2.950 -0.3190  1.2466  0.8933
  992MOL0     N30863   7.678   3.662   2.821  0.7165  0.0265 -0.0654
  992MOL0     C30864   6.813   3.188   2.391  0.5413  1.2876 -1.1220
  992MOL0     C30865   6.701   3.100   2.423 -0.1497 -0.8381 -0.4249
  992MOL0     C30866   6.364   2.821   2.437  0.4353  0.0068 -0.0550
  992MOL0     C30867   6.238   2.817   2.379  0.0375  0.1590 -0.7445
  992MOL0     C30868   6.154   2.715   2.418 -0.7860 -0.5830  0.9315
  992MOL0     C30869   6.187   2.611   2.504  0.3406 -0.0449 -0.0551
  992MOL0     O30870   6.101   2.520   2.548 -0.3378  0.5612 -0.2638
  992MOL0     C30871   5.959   2.542   2.571  0.7654 -0.4565  1.4898
  992MOL0     C30872   5.871   2.468   2.462 -0.8535  0.4515  0.3659
  992MOL0     C30873   5.909   2.327   2.454  1.1481  0.3221 -0.8863
  992MOL0     C30874   5.808   2.251   2.366  0.4043  0.1492  0.5494
  992MOL0     C30875   5.750   2.328   2.248  0.7538  0.0500  0.6450
  992MOL0     C30876   5.688   2.393   2.161 -0.4583 -0.7282 -0.1086
  992MOL0     C30877   6.318   2.604   2.546  0.7408  0.3355  0.8947
  992MOL0     C30878   6.401   2.717   2.525 -0.3403 -0.0362 -1.1691
  992MOL0     H30879   6.819   2.811   2.280  0.2638 -0.0708  1.7179
  992MOL0     H30880   7.001   2.989   2.201 -0.6896 -1.6941 -0.4433
  992MOL0     H30881   7.110   3.191   2.447 -1.6560  0.2113  0.1005
  992MOL0     H30882   7.027   3.350   2.432  0.8957 -0.8623  0.5087
  992MOL0     H30883   7.224   3.412   2.435 -1.5246 -1.6886  2.2264
  992MOL0     H30884   7.204   3.411   2.254  2.6008 -0.9762 -1.5383
  992MOL0     H30885   7.307   3.174   2.258 -0.7974 -0.6929  1.2365
  992MOL0     H30886   7.326   3.187   2.434  0.5641  0.0974  0.9668
  992MOL0     H30887   7.557   3.197   2.321  0.8176 -0.0306 -0.9061
  992MOL0     H30888   7.482   3.315   2.213 -1.7137  1.3620  0.7803
  992MOL0     H30889   7.441   3.442   2.446  0.3552  0.3205 -1.9089
  992MOL0     H30890   7.612   3.426   2.394 -0.3091  0.5928  3.2129
  992MOL0     H30891   7.632   3.242   2.553 -1.8916 -2.9590 -2.5153
  992MOL0     H30892   7.463   3.239   2.584 -0.6066  2.6694 -1.3082
  992MOL0     H30893   7.509   3.503   2.642 -0.2376 -0.4089 -1.0880
  992MOL0     H30894   7.531   3.386   2.766 -4.1557  3.5017 -0.5527
  992MOL0     H30895   7.719   3.522   2.567  0.3719 -2.4939 -0.8542
  992MOL0     H30896   7.785   3.393   2.649  0.6744  1.6972 -1.3984
  992MOL0     H30897   7.857   3.401   2.884  0.9966  0.9721 -1.4222
  992MOL0     H30898   7.791   3.492   3.200 -0.8857  2.5479  0.7787
  992MOL0     H30899   7.817   3.665   3.204  1.7236 -0.7707  0.3044
  992MOL0     H30900   8.032   3.626   3.101 -2.5439 -1.1992 -1.5691
  992MOL0     H30901   8.012   3.453   3.120  3.3168 -0.1053  0.5666
  992MOL0     H30902   8.010   3.655   3.336  2.6450  1.2084 -0.6543
  992MOL0     H30903   7.962   3.483   3.373  1.6884 -0.3641  1.0286
  992MOL0     H30904   8.232   3.555   3.260 -0.5870 -2.0756 -1.2404
  992MOL0     H30905   8.190   3.412   3.350  3.7180  0.6913 -2.3486
  992MOL0     H30906   8.429   3.423   3.340  1.7535 -4.3352  0.7104
  992MOL0     H30907   8.652   3.407   3.449 -0.2168 -0.0556 -1.0309
  992MOL0     H30908   8.721   3.583   4.078 -1.1139 -1.4876  0.2500
  992MOL0     H30909   8.882   3.513   4.235 -2.4499  3.9214 -1.3882
  992MOL0     H30910   9.250   3.235   4.092  2.3360  0.4114  3.2744
  992MOL0     H30911   9.090   3.162   4.078  2.3976 -0.6331 -1.3762
  992MOL0     H30912   9.115   3.112   4.332 -0.2369  2.9715  1.0918
  992MOL0     H30913   9.246   3.230   4.321  2.8926 -0.8260  0.6547
  992MOL0     H30914   9.346   2.996   4.334  3.8322  1.6382 -1.6137
  992MOL0     H30915   9.384   3.075   4.188 -0.2975  1.1291 -0.8753
  992MOL0     H30916   9.129   2.897   4.217  0.4404  2.1657 -0.1285
  992MOL0     H30917   9.198   2.940   4.067  0.2282 -1.2757 -0.2983
  992MOL0     H30918   9.263   2.719   4.092  1.0301  2.2571 -3.4872
  992MOL0     H30919   9.294   2.744   4.273  0.8159  1.5063  0.6115
  992MOL0     H30920   9.500   2.846   4.223  2.3218 -3.2523  1.4644
  992MOL0     H30921   9.463   2.843   4.044 -1.6348  1.4115  1.0278
  992MOL0     H30922   9.459   2.594   4.217 -1.8182  0.2891 -1.2162
  992MOL0     H30923   9.430   2.604   4.049  2.2211  0.9253 -1.8848
  992MOL0     H30924   9.674   2.691   4.012  2.2243 -2.3582 -0.5321
  992MOL0     H30925   9.665   2.534   4.095 -2.3464 -0.0947  3.6103
  992MOL0     H30926   9.144   3.358   3.929  0.9817  2.0810  3.3266
  992MOL0     H30927   9.018   3.479   3.765 -1.7893  3.3968 -0.9289
  992MOL0     H30928   8.500   3.624   3.792 -1.6939 -0.0438  0.4556
  992MOL0     H30929   8.291   3.647   3.699  0.0977 -0.4373 -0.0634
  992MOL0     H30930   6.811   3.291   2.428 -1.4262  1.1229 -0.6881
  992MOL0     H30931   6.618   3.131   2.486  0.0797 -0.7845 -0.1475
  992MOL0     H30932   6.211   2.889   2.303  0.3068  1.7568  0.6222
  992MOL0     H30933   6.061   2.701   2.365 -1.3380  1.6205  1.2353
  992MOL0     H30934   5.929   2.647   2.567  3.4009  0.4513  2.8129
  992MOL0     H30935   5.923   2.502   2.666 -3.5295 -1.9062 -0.5018
  992MOL0     H30936   5.772   2.491   2.501 -2.0970  1.2910 -2.9484
  992MOL0     H30937   5.878   2.512   2.362 -1.6774 -0.6608 -0.1978
  992MOL0     H30938   5.912   2.294   2.558  1.2700 -0.1381 -1.0342
  992MOL0     H30939   6.007   2.313   2.406  0.3487  2.2567 -3.3015
  992MOL0     H30940   5.864   2.166   2.325  2.9744  2.8669 -2.1072
  992MOL0     H30941   5.719   2.227   2.425  0.5710  3.3614  2.3306
  992MOL0     H30942   5.630   2.453   2.095  1.7628 -0.8963 -2.3555
  992MOL0     H30943   6.346   2.524   2.613 -2.6102  0.1749  2.3180
  992MOL0     H30944   6.496   2.730   2.576 -1.0331  0.4026  0.0497
  993MOL0     O30945   7.434  11.206   4.376  0.1987  0.1920 -0.2892
  993MOL0     C30946   7.515  11.205   4.288 -0.8464  1.0279  0.2033
  993MOL0     O30947   7.498  11.266   4.167  0.1646 -0.1562 -0.2131
  993MOL0     C30948   7.373  11.311   4.126 -0.2296  0.4430  0.1686
  993MOL0     C30949   7.375  11.435   4.048 -0.1411  0.9479  0.0660
  993MOL0     C30950   7.256  11.478   3.997 -0.6783  0.3263  0.1234
  993MOL0     C30951   7.141  11.396   4.001 -0.2000 -0.6173  0.1271
  993MOL0     O30952   7.016  11.416   3.939  0.4376 -0.8371  0.1466
  993MOL0     C30953   7.001  11.538   3.856  0.1110 -0.0206  0.1196
  993MOL0     C30954   6.984  11.673   3.938 -0.2538 -0.7452 -0.4814
  993MOL0     C30955   6.961  11.791   3.847  0.1687  0.3711  0.4152
  993MOL0     C30956   6.940  11.918   3.937 -0.6557  1.2178  0.3716
  993MOL0     C30957   6.894  12.028   3.853 -0.1192  0.0556  0.1242
  993MOL0     C30958   6.872  12.161   3.932  0.3164 -1.0068  0.0374
  993MOL0     C30959   6.829  12.278   3.837  0.1186  1.4643 -0.0862
  993MOL0     C30960   6.949  12.360   3.796  0.9929  1.6630 -0.4819
  993MOL0     N30961   6.916  12.480   3.735  0.1746 -0.8319  0.1134
  993MOL0     C30962   6.921  12.604   3.795 -0.6451  0.4049  0.2189
  993MOL0     C30963   6.883  12.691   3.708 -0.2205  0.5389 -0.8182
  993MOL0     C30964   6.868  12.839   3.733  0.0080 -0.8998 -0.5122
  993MOL0     C30965   6.722  12.884   3.755 -0.3219 -0.2539  0.4328
  993MOL0     C30966   6.713  12.990   3.862 -0.6720 -0.7011  0.5115
  993MOL0     C30967   6.583  13.065   3.856 -0.4668 -0.7244 -0.0108
  993MOL0     O30968   6.460  12.990   3.871 -0.2670  0.2254 -0.1824
  993MOL0     C30969   6.343  13.060   3.881 -0.4607  0.7327  0.5908
  993MOL0     C30970   6.239  12.996   3.951 -0.2210 -0.0186  0.1468
  993MOL0     C30971   6.116  13.053   3.975  0.3824 -0.2367 -0.9237
  993MOL0     C30972   6.095  13.186   3.927 -0.1115 -0.2489  0.8161
  993MOL0     C30973   5.973  13.260   3.968  0.3356  0.1929 -0.9628
  993MOL0     O30974   5.865  13.186   3.993 -0.6265  0.0259 -0.2579
  993MOL0     C30975   5.748  13.243   4.033  1.1559 -0.6138 -0.4470
  993MOL0     C30976   5.642  13.152   4.036  1.1811 -1.3847 -0.2557
  993MOL0     C30977   5.511  13.196   4.064 -0.1902  0.3005 -0.2260
  993MOL0     C30978   5.492  13.316   4.127 -0.1668  0.3607  0.5006
  993MOL0     O30979   5.367  13.334   4.173  1.0085  0.2155 -0.0488
  993MOL0     C30980   5.334  13.443   4.263  0.0135  0.0543 -0.7691
  993MOL0     C30981   5.192  13.433   4.309 -0.8093 -0.4347  1.1181
  993MOL0     C30982   5.148  13.531   4.415 -1.6819 -0.2265 -1.3121
  993MOL0     C30983   5.215  13.493   4.552  0.2217 -0.9887 -0.3504
  993MOL0     C30984   5.175  13.582   4.674  0.3592  0.5521  0.5170
  993MOL0     C30985   5.165  13.730   4.640  0.7770  0.4940 -0.8404
  993MOL0     C30986   5.124  13.812   4.766 -0.2951 -0.4831  0.2557
  993MOL0     C30987   5.081  13.949   4.725  0.3068  0.0716  0.1876
  993MOL0    Cl30988   5.036  14.029   4.870  0.5995 -0.5380  0.2668
  993MOL0     C30989   5.594  13.409   4.131 -0.2783 -0.2602 -0.4411
  993MOL0     C30990   5.722  13.375   4.087  0.4567  0.1361  0.7391
  993MOL0     O30991   5.979  13.380   3.939  0.3266  0.5831 -0.5439
  993MOL0     C30992   6.190  13.238   3.838  0.0016 -0.6701 -0.6995
  993MOL0     C30993   6.317  13.180   3.816 -0.0496 -0.5528 -1.0038
  993MOL0     N30994   6.871  12.622   3.587 -1.4081 -0.6878  0.7049
  993MOL0     N30995   6.885  12.494   3.603  0.4824  0.1327  0.1122
  993MOL0     C30996   7.137  11.282   4.073 -0.3567  0.5070 -0.1016
  993MOL0     C30997   7.253  11.239   4.137 -0.3988 -0.5575  0.6406
  993MOL0     C30998   7.637  11.126   4.287 -0.0195  0.7346 -0.8843
  993MOL0     C30999   7.681  11.059   4.409 -1.2216  0.1827  0.0581
  993MOL0     C31000   7.794  10.976   4.412 -0.1874  0.2047 -0.3453
  993MOL0     C31001   7.876  10.974   4.292  0.1018  0.1272  1.2265
  993MOL0     O31002   8.002  10.907   4.290 -0.1576 -0.1728  0.2936
  993MOL0     C31003   8.093  10.924   4.398  0.2217  0.2922  0.1917
  993MOL0     C31004   8.182  11.042   4.361 -0.5636 -1.0449  0.7505
  993MOL0     C31005   8.219  11.039   4.214  0.7573 -0.0574 -0.1411
  993MOL0     C31006   8.357  11.104   4.183  0.6599 -0.4841  0.6305
  993MOL0     C31007   8.374  11.231   4.245 -0.0004 -1.0474 -0.3403
  993MOL0     C31008   8.400  11.340   4.293 -1.2751 -0.0881  0.7407
  993MOL0     C31009   7.830  11.037   4.178  0.0042 -0.1586 -0.1145
  993MOL0     C31010   7.717  11.107   4.169  0.2205  0.0220  0.5065
  993MOL0     H31011   7.471  11.483   4.028  2.1027 -1.8042  3.0920
  993MOL0     H31012   7.275  11.562   3.931 -2.4726 -3.0949 -5.4256
  993MOL0     H31013   6.909  11.523   3.799 -0.2629 -0.6234  0.8587
  993MOL0     H31014   7.082  11.552   3.784  1.5557 -0.4740  1.5988
  993MOL0     H31015   7.064  11.697   4.009 -1.2554  0.2720  0.3382
  993MOL0     H31016   6.909  11.652   4.015  1.1560 -0.0549  1.1634
  993MOL0     H31017   6.872  11.767   3.787 -0.4239  0.3082  1.3089
  993MOL0     H31018   7.039  11.805   3.772 -0.4630 -0.7771 -0.4898
  993MOL0     H31019   6.868  11.898   4.017 -1.1274  4.1217  0.8001
  993MOL0     H31020   7.039  11.930   3.981 -1.1916 -0.8104  2.2925
  993MOL0     H31021   6.799  12.003   3.805  0.6989 -1.8053 -0.6296
  993MOL0     H31022   6.967  12.035   3.773 -0.0395 -2.2313 -0.0758
  993MOL0     H31023   6.959  12.187   3.994 -0.0038 -1.6914  0.7898
  993MOL0     H31024   6.786  12.150   3.998  0.1894  0.9097  0.2400
  993MOL0     H31025   6.774  12.251   3.746  0.6213  2.8132 -0.8138
  993MOL0     H31026   6.758  12.326   3.905  0.3096  0.5732  0.7686
  993MOL0     H31027   7.002  12.292   3.730  0.5531 -1.0015  1.7108
  993MOL0     H31028   7.006  12.377   3.888  0.3031 -1.8771  0.7487
  993MOL0     H31029   6.963  12.606   3.895  1.3219  0.9839 -0.5590
  993MOL0     H31030   6.900  12.896   3.646 -2.1779 -0.1015 -0.8390
  993MOL0     H31031   6.929  12.880   3.813 -0.0519  0.9696 -1.3818
  993MOL0     H31032   6.670  12.796   3.795  0.6137 -1.3023 -0.5698
  993MOL0     H31033   6.659  12.912   3.670 -3.0585  0.3553  2.5044
  993MOL0     H31034   6.717  12.945   3.961 -1.4432  1.0447  1.3856
  993MOL0     H31035   6.803  13.053   3.859  0.2670 -2.0300  0.1585
  993MOL0     H31036   6.587  13.120   3.762  0.2156 -1.7336 -0.5782
  993MOL0     H31037   6.577  13.147   3.929  1.2354  0.4751 -1.1403
  993MOL0     H31038   6.255  12.894   3.985 -0.1209  0.2393  0.8859
  993MOL0     H31039   6.042  12.994   4.028 -0.6096 -0.9933 -3.0340
  993MOL0     H31040   5.660  13.054   3.993  2.6917 -1.3726  0.3125
  993MOL0     H31041   5.434  13.121   4.049 -0.1038  0.1206  0.2379
  993MOL0     H31042   5.351  13.532   4.203 -1.2873 -0.7870 -2.4693
  993MOL0     H31043   5.400  13.439   4.350  2.3921 -0.5191 -2.5275
  993MOL0     H31044   5.165  13.330   4.336 -0.1893 -0.7699  0.5144
  993MOL0     H31045   5.131  13.458   4.222 -2.1108 -0.5126  1.9837
  993MOL0     H31046   5.038  13.531   4.412 -1.7923 -1.5183  0.8728
  993MOL0     H31047   5.176  13.635   4.395  1.1533 -1.0083 -1.7996
  993MOL0     H31048   5.174  13.394   4.575 -2.7176  0.6344  2.3375
  993MOL0     H31049   5.323  13.492   4.538  0.3049  0.9198 -0.1632
  993MOL0     H31050   5.251  13.567   4.752 -2.2214 -2.2130  2.7334
  993MOL0     H31051   5.076  13.543   4.700  1.3812 -2.7174  0.0035
  993MOL0     H31052   5.081  13.745   4.571 -2.3747  1.2748  2.8319
  993MOL0     H31053   5.263  13.750   4.595  1.8497 -3.6581 -0.7341
  993MOL0     H31054   5.039  13.764   4.816  0.4318 -2.5630 -0.4118
  993MOL0     H31055   5.202  13.821   4.843 -1.5551  1.6892  1.3741
  993MOL0     H31056   4.990  13.956   4.664 -0.6930  2.3993  1.8322
  993MOL0     H31057   5.167  13.989   4.670  0.6541 -3.8433 -2.5942
  993MOL0     H31058   5.577  13.496   4.193  0.8645 -0.7048  0.5269
  993MOL0     H31059   5.809  13.438   4.103  0.9752 -0.0564 -1.0783
  993MOL0     H31060   6.179  13.337   3.796 -1.1820 -0.4471  0.0944
  993MOL0     H31061   6.389  13.239   3.760  0.5260 -1.4465 -1.2204
  993MOL0     H31062   7.052  11.216   4.087  0.0437  0.0798  0.3300
  993MOL0     H31063   7.269  11.140   4.179  1.8377 -1.3901 -1.9009
  993MOL0     H31064   7.638  11.068   4.508  2.6326  1.4801  1.8088
  993MOL0     H31065   7.822  10.928   4.505 -1.2515  1.0757  0.4481
  993MOL0     H31066   8.152  10.833   4.413 -1.8825 -1.1437  0.2366
  993MOL0     H31067   8.040  10.935   4.493 -0.0826  1.1947 -0.0833
  993MOL0     H31068   8.144  11.144   4.375 -0.8973 -1.1261  0.4300
  993MOL0     H31069   8.279  11.039   4.413  0.6386  0.8505 -1.2315
  993MOL0     H31070   8.134  11.095   4.174  0.8688 -1.5532 -2.6451
  993MOL0     H31071   8.221  10.936   4.179  3.3714 -0.3056  0.5330
  993MOL0     H31072   8.431  11.030   4.215  1.0173 -1.7495 -2.6710
  993MOL0     H31073   8.386  11.121   4.079  1.7411 -3.4047  0.3626
  993MOL0     H31074   8.428  11.434   4.338  3.3579  0.0244 -1.6954
  993MOL0     H31075   7.886  11.035   4.085  0.0083  2.3993 -0.2334
  993MOL0     H31076   7.686  11.158   4.078 -0.0683 -2.6732 -0.9868
  994MOL0     O31077   8.881   1.969   2.255  0.7982  0.4794 -0.1765
  994MOL0     C31078   8.979   1.942   2.320  0.1191  0.9416 -0.5820
  994MOL0     O31079   8.994   1.821   2.379 -1.0613 -0.5288 -0.1687
  994MOL0     C31080   8.885   1.745   2.409 -0.0310  0.6848 -0.7719
  994MOL0     C31081   8.867   1.627   2.339 -0.2315 -0.7021  0.5850
  994MOL0     C31082   8.762   1.543   2.379  0.0655  0.2976  1.1283
  994MOL0     C31083   8.663   1.586   2.472  0.1343 -0.1427  0.2880
  994MOL0     O31084   8.557   1.504   2.485 -0.3801  0.0679 -0.6891
  994MOL0     C31085   8.428   1.560   2.507  1.1111  0.1668  0.2907
  994MOL0     C31086   8.332   1.451   2.458 -0.3297  0.3669  0.7658
  994MOL0     C31087   8.203   1.507   2.502 -0.9005  0.5324 -0.4216
  994MOL0     C31088   8.083   1.419   2.471 -0.1152 -0.0205  0.0523
  994MOL0     C31089   8.094   1.279   2.531  0.9506  0.9918 -0.0440
  994MOL0     C31090   8.052   1.278   2.685 -0.8940 -1.0432  0.0093
  994MOL0     C31091   8.106   1.153   2.747 -0.2658  0.6092  0.3851
  994MOL0     C31092   8.265   1.154   2.764  0.3712 -0.3041  0.3695
  994MOL0     N31093   8.305   1.228   2.880  0.7443  0.0060  0.1353
  994MOL0     C31094   8.292   1.363   2.900 -0.3122 -1.0700 -0.9293
  994MOL0     C31095   8.313   1.371   3.036 -0.5652 -0.4355 -0.7835
  994MOL0     C31096   8.300   1.506   3.114  0.4502  0.4610 -0.0281
  994MOL0     C31097   8.434   1.562   3.145  0.1823 -0.5122 -0.8835
  994MOL0     C31098   8.517   1.473   3.237  0.3342  0.8405  0.1415
  994MOL0     C31099   8.662   1.516   3.256 -0.1956  0.2485 -0.2801
  994MOL0     O31100   8.719   1.394   3.312 -0.5847 -1.1472 -0.4208
  994MOL0     C31101   8.860   1.399   3.337 -1.3194 -1.0070  0.5881
  994MOL0     C31102   8.959   1.505   3.320 -0.1520  0.3346 -0.5400
  994MOL0     C31103   9.095   1.487   3.352  0.4380  0.0129  1.2296
  994MOL0     C31104   9.145   1.354   3.375  0.2082 -0.1179  0.7969
  994MOL0     C31105   9.292   1.341   3.402  0.3196 -0.7317 -0.1541
  994MOL0     O31106   9.360   1.449   3.365  1.3665 -0.7959  0.4498
  994MOL0     C31107   9.493   1.443   3.340 -0.2799 -0.2356  0.7129
  994MOL0     C31108   9.566   1.324   3.315 -0.4225 -0.4138  0.3448
  994MOL0     C31109   9.701   1.311   3.277  0.3552  0.2610 -0.2294
  994MOL0     C31110   9.773   1.433   3.258 -0.2512  0.1191  0.1981
  994MOL0     O31111   9.905   1.412   3.239 -0.4917  0.3950  0.7566
  994MOL0     C31112  10.000   1.526   3.219 -0.3647  0.6610 -0.1872
  994MOL0     C31113  10.140   1.501   3.173 -0.6242  0.0771  0.1605
  994MOL0     C31114  10.153   1.376   3.086  1.1763  0.2410  0.1194
  994MOL0     C31115  10.301   1.366   3.045 -0.2558 -0.3284  0.2109
  994MOL0     C31116  10.354   1.229   3.021  0.4071 -0.3451 -0.2061
  994MOL0     C31117  10.354   1.138   3.145 -0.0210  1.0014  0.7717
  994MOL0     C31118  10.471   1.037   3.134 -0.2309 -0.3328  0.4178
  994MOL0     C31119  10.499   0.968   3.262  0.3325 -0.7197 -0.1965
  994MOL0    Cl31120  10.631   0.839   3.221  0.2338 -0.0098 -0.0071
  994MOL0     C31121   9.706   1.557   3.276  0.1136 -0.9823 -1.2478
  994MOL0     C31122   9.567   1.556   3.311 -0.0476  0.8155  0.2451
  994MOL0     O31123   9.338   1.242   3.459 -0.5875  0.4595  0.3162
  994MOL0     C31124   9.055   1.247   3.390  0.1126  0.4416  0.4738
  994MOL0     C31125   8.917   1.273   3.372  0.3685 -0.3491 -0.5155
  994MOL0     N31126   8.340   1.242   3.089  0.5310 -0.3366  0.3813
  994MOL0     N31127   8.333   1.155   2.994  0.0929 -0.0452  0.3350
  994MOL0     C31128   8.683   1.714   2.528  0.4602 -0.0166 -0.7230
  994MOL0     C31129   8.792   1.792   2.507 -0.3340 -0.2602  0.1030
  994MOL0     C31130   9.094   2.037   2.319  0.2696  0.2916 -0.3174
  994MOL0     C31131   9.114   2.122   2.206 -0.5030  0.0867 -0.1121
  994MOL0     C31132   9.232   2.208   2.196  0.7794  0.0516 -0.1091
  994MOL0     C31133   9.317   2.222   2.306 -0.0936 -0.0143  0.1460
  994MOL0     O31134   9.426   2.303   2.322  0.0209 -0.6915  0.1775
  994MOL0     C31135   9.440   2.423   2.229 -0.3827  0.4459 -1.0012
  994MOL0     C31136   9.404   2.549   2.312  0.4956 -0.0151 -0.5999
  994MOL0     C31137   9.253   2.569   2.318 -1.0639  0.2531 -0.6492
  994MOL0     C31138   9.208   2.684   2.396  0.8590 -0.0838 -0.0880
  994MOL0     C31139   9.257   2.810   2.335  1.0979 -0.2492 -0.3937
  994MOL0     C31140   9.292   2.920   2.299  0.6021 -0.2147 -0.6678
  994MOL0     C31141   9.291   2.144   2.413  0.0151 -1.1151 -0.4672
  994MOL0     C31142   9.190   2.055   2.423  0.5638 -0.1287  0.0394
  994MOL0     H31143   8.945   1.591   2.272 -0.9270  0.0126 -0.6466
  994MOL0     H31144   8.734   1.455   2.323 -0.2923  3.3282 -4.0960
  994MOL0     H31145   8.422   1.651   2.447 -1.5818 -0.3810 -0.3963
  994MOL0     H31146   8.404   1.568   2.613 -3.3964 -0.6387 -0.4835
  994MOL0     H31147   8.363   1.355   2.501  1.3910 -0.0482 -1.2380
  994MOL0     H31148   8.346   1.446   2.350 -3.3640  0.1128  0.3061
  994MOL0     H31149   8.190   1.603   2.451  0.6561  1.4814  0.8613
  994MOL0     H31150   8.204   1.529   2.609 -1.0026 -1.2952 -0.0061
  994MOL0     H31151   7.994   1.475   2.501 -0.2207  0.2614 -0.7629
  994MOL0     H31152   8.069   1.411   2.363  2.6096  0.9183 -0.4529
  994MOL0     H31153   8.187   1.227   2.508 -1.9388 -4.5771 -0.7886
  994MOL0     H31154   8.010   1.220   2.494  0.1760 -0.3435  3.4188
  994MOL0     H31155   7.943   1.282   2.676 -0.7508 -1.3980 -3.1920
  994MOL0     H31156   8.088   1.367   2.737 -0.4410 -0.8724 -0.5915
  994MOL0     H31157   8.061   1.122   2.842  0.3267 -0.0620  0.4551
  994MOL0     H31158   8.081   1.071   2.679 -2.6936  0.8776  0.8714
  994MOL0     H31159   8.323   1.193   2.680  0.3304 -0.0068  0.4782
  994MOL0     H31160   8.277   1.047   2.784 -1.6730 -0.7494 -0.4805
  994MOL0     H31161   8.286   1.440   2.823  0.2788  0.7109  0.7300
  994MOL0     H31162   8.261   1.488   3.215  0.6996  1.1808  0.2081
  994MOL0     H31163   8.226   1.577   3.077  1.4695  0.9337 -1.2457
  994MOL0     H31164   8.420   1.655   3.200 -4.0395 -1.9068  0.8206
  994MOL0     H31165   8.482   1.601   3.054  1.7981 -1.8100 -0.6463
  994MOL0     H31166   8.469   1.474   3.335  1.3505  0.8587  0.6576
  994MOL0     H31167   8.512   1.368   3.207 -0.3574  0.1009  2.6819
  994MOL0     H31168   8.679   1.607   3.314  1.3394  0.7812 -1.4872
  994MOL0     H31169   8.703   1.514   3.154 -0.7375 -2.5205 -0.5298
  994MOL0     H31170   8.944   1.603   3.277  0.8179  1.9043  2.4069
  994MOL0     H31171   9.152   1.579   3.347 -1.1371  0.9676 -0.1461
  994MOL0     H31172   9.514   1.229   3.324  1.8238 -1.7641 -0.3372
  994MOL0     H31173   9.740   1.211   3.267  0.3779 -0.0787  2.6011
  994MOL0     H31174   9.990   1.584   3.311  0.9425  2.1671 -0.9475
  994MOL0     H31175   9.953   1.580   3.136 -0.8267 -1.4372 -1.3546
  994MOL0     H31176  10.206   1.478   3.257  1.4838  1.9999 -0.8574
  994MOL0     H31177  10.186   1.586   3.121 -0.1027  0.1003  0.6495
  994MOL0     H31178  10.104   1.383   2.988 -1.8712 -1.2520  1.4365
  994MOL0     H31179  10.120   1.287   3.139 -1.3337 -0.1208 -1.8550
  994MOL0     H31180  10.327   1.433   2.962  1.8899 -1.2298  0.0915
  994MOL0     H31181  10.366   1.397   3.127  0.7418 -0.8515 -0.3594
  994MOL0     H31182  10.452   1.242   2.974  1.0146 -2.0723  0.4808
  994MOL0     H31183  10.294   1.185   2.941 -2.6091  0.6006  1.3921
  994MOL0     H31184  10.257   1.087   3.147  0.5362 -0.1501 -0.5548
  994MOL0     H31185  10.382   1.191   3.236  1.5921  0.9787  0.3167
  994MOL0     H31186  10.452   0.969   3.050 -0.8928 -0.3762  0.5978
  994MOL0     H31187  10.561   1.092   3.106  0.1608 -1.8304 -1.5433
  994MOL0     H31188  10.405   0.924   3.298  0.9994  0.2162  3.0201
  994MOL0     H31189  10.530   1.027   3.349  0.3481 -0.1552 -0.5822
  994MOL0     H31190   9.751   1.655   3.269 -1.8596 -0.0343 -1.2193
  994MOL0     H31191   9.519   1.651   3.333 -0.2210 -0.0298  4.4905
  994MOL0     H31192   9.091   1.150   3.423  0.6782 -0.0681 -1.5427
  994MOL0     H31193   8.845   1.192   3.383 -2.4189  2.0382 -0.0023
  994MOL0     H31194   8.603   1.751   2.591  2.9920  0.7803  2.2977
  994MOL0     H31195   8.816   1.887   2.553  0.6643  0.2021 -1.3079
  994MOL0     H31196   9.044   2.120   2.123 -1.1716  2.2278  0.3344
  994MOL0     H31197   9.239   2.265   2.104  0.1914 -1.0221 -0.8321
  994MOL0     H31198   9.371   2.411   2.145  0.1288 -0.4881 -1.2932
  994MOL0     H31199   9.542   2.432   2.192  0.8077 -1.3011  1.5792
  994MOL0     H31200   9.431   2.530   2.416 -0.1782  0.8919 -0.2465
  994MOL0     H31201   9.466   2.629   2.270 -0.0714  0.7095 -0.0944
  994MOL0     H31202   9.203   2.477   2.351 -3.0868  0.6739 -2.4084
  994MOL0     H31203   9.221   2.604   2.220 -0.3087  1.6024 -0.4313
  994MOL0     H31204   9.098   2.689   2.394  0.8215  1.1788  1.9218
  994MOL0     H31205   9.238   2.671   2.501  4.5164 -2.0421 -1.1928
  994MOL0     H31206   9.341   3.010   2.266  3.2567 -0.8892  1.1284
  994MOL0     H31207   9.364   2.147   2.493 -1.1666 -0.0889  0.6232
  994MOL0     H31208   9.202   1.988   2.508  1.5499  1.8295  1.5191
  995MOL0     O31209   8.771   5.817   2.615 -0.1873 -0.0591  0.0777
  995MOL0     C31210   8.837   5.794   2.510  0.7555 -0.1647  0.2906
  995MOL0     O31211   8.972   5.792   2.510  0.5481  0.8717  0.3209
  995MOL0     C31212   9.040   5.812   2.624 -0.2845 -0.6857 -0.6886
  995MOL0     C31213   9.065   5.944   2.657  0.0320 -0.4336 -0.2868
  995MOL0     C31214   9.147   5.975   2.774 -0.7490 -0.5423 -0.4428
  995MOL0     C31215   9.214   5.876   2.847  0.4591 -0.1007  0.6317
  995MOL0     O31216   9.313   5.909   2.942  0.2196  0.2863 -0.5368
  995MOL0     C31217   9.288   6.039   3.010  0.9592 -0.5559 -0.3457
  995MOL0     C31218   9.403   6.059   3.107  0.2100 -0.4620  0.3451
  995MOL0     C31219   9.404   6.197   3.178  0.2706  0.3768 -0.5186
  995MOL0     C31220   9.512   6.188   3.288 -0.0461 -0.5707  0.4827
  995MOL0     C31221   9.545   6.337   3.328 -0.4195 -0.2720  0.7683
  995MOL0     C31222   9.643   6.331   3.447 -1.4573 -0.4673  0.5599
  995MOL0     C31223   9.649   6.466   3.512 -1.2847 -0.1400 -0.5548
  995MOL0     C31224   9.527   6.491   3.590  1.4533 -0.1623 -0.8362
  995MOL0     N31225   9.533   6.622   3.656 -0.6751 -0.2999  0.1938
  995MOL0     C31226   9.549   6.649   3.787 -0.8352  0.6776 -0.3033
  995MOL0     C31227   9.542   6.783   3.793  0.0964  0.2604  0.1577
  995MOL0     C31228   9.548   6.867   3.917 -0.2517 -0.3557 -0.3860
  995MOL0     C31229   9.667   6.968   3.913  0.0608 -0.5443 -0.4575
  995MOL0     C31230   9.801   6.906   3.944  0.0912  0.6025 -0.4809
  995MOL0     C31231   9.860   6.815   3.836 -0.4159 -0.0489  1.6227
  995MOL0     O31232   9.844   6.883   3.704 -0.8873  0.5713 -0.0656
  995MOL0     C31233   9.876   6.809   3.598  0.6134  0.6529  0.7512
  995MOL0     C31234   9.950   6.698   3.607 -0.2498 -0.0703  0.2280
  995MOL0     C31235   9.976   6.621   3.495  0.1700  1.1548 -0.4862
  995MOL0     C31236   9.919   6.654   3.370  0.6489  0.2614  0.4600
  995MOL0     C31237   9.965   6.588   3.244 -0.6183 -0.2766  0.6801
  995MOL0     O31238   9.904   6.625   3.126  0.0110 -0.3053 -0.3299
  995MOL0     C31239   9.849   6.541   3.037 -0.2245  0.6135 -0.6535
  995MOL0     C31240   9.841   6.399   3.063  0.4325 -0.6274  0.8694
  995MOL0     C31241   9.767   6.325   2.965 -0.9542 -0.2519  0.5382
  995MOL0     C31242   9.706   6.386   2.852  0.9404 -0.7286 -0.0216
  995MOL0     O31243   9.630   6.316   2.767  0.0830  0.6270  0.5493
  995MOL0     C31244   9.524   6.380   2.686 -0.6997  0.0579 -1.1040
  995MOL0     C31245   9.427   6.286   2.629  0.3430 -0.0075 -0.5512
  995MOL0     C31246   9.345   6.348   2.511  0.1165 -0.1652 -0.0167
  995MOL0     C31247   9.232   6.254   2.460  0.1227  0.1697 -0.4742
  995MOL0     C31248   9.138   6.325   2.363 -0.9900 -0.8670 -0.2526
  995MOL0     C31249   9.036   6.230   2.312  1.0474 -0.3154  0.2396
  995MOL0     C31250   8.895   6.289   2.261 -1.1872  0.4200 -0.3854
  995MOL0     C31251   8.784   6.182   2.221  0.5943 -0.1498  0.4636
  995MOL0    Cl31252   8.852   6.084   2.081  0.6386 -0.0353  0.1761
  995MOL0     C31253   9.719   6.526   2.839  0.1600  0.7757 -0.7711
  995MOL0     C31254   9.792   6.600   2.926  0.0798  0.6956 -0.4558
  995MOL0     O31255  10.060   6.506   3.248 -0.5791  0.1785 -0.6930
  995MOL0     C31256   9.831   6.761   3.366 -0.7483  0.2361  0.8817
  995MOL0     C31257   9.819   6.848   3.478 -0.0460 -0.1520 -0.0342
  995MOL0     N31258   9.528   6.836   3.667  0.7711 -0.9248  0.4245
  995MOL0     N31259   9.501   6.739   3.586 -0.1499 -0.8451  0.7602
  995MOL0     C31260   9.190   5.746   2.800 -0.0728  0.1530 -0.4157
  995MOL0     C31261   9.104   5.713   2.695 -0.0064 -0.0909  0.0691
  995MOL0     C31262   8.758   5.772   2.386  0.1572 -0.4021 -0.3085
  995MOL0     C31263   8.819   5.753   2.262 -0.2395  0.0318 -0.8121
  995MOL0     C31264   8.752   5.739   2.141  0.0753  0.7121  0.2757
  995MOL0     C31265   8.609   5.735   2.139  0.1006  1.2479  1.1421
  995MOL0     O31266   8.533   5.718   2.029  0.0118 -0.5532  0.0656
  995MOL0     C31267   8.577   5.785   1.907 -1.0176  0.2615 -0.2216
  995MOL0     C31268   8.582   5.941   1.912  0.2564  0.7499  0.6422
  995MOL0     C31269   8.450   6.018   1.926 -0.8392  0.4698 -0.7717
  995MOL0     C31270   8.449   6.150   1.853  0.0606 -1.0942 -0.4247
  995MOL0     C31271   8.319   6.227   1.862  0.4422  0.7061  0.7572
  995MOL0     C31272   8.216   6.283   1.874  0.3963 -0.6274 -0.0657
  995MOL0     C31273   8.551   5.750   2.265 -0.3668 -0.7293  0.4188
  995MOL0     C31274   8.620   5.776   2.383 -0.8624 -0.1779  0.3881
  995MOL0     H31275   9.042   6.032   2.598  0.1876 -0.2608 -0.0906
  995MOL0     H31276   9.162   6.079   2.801  2.3084 -0.9409 -0.2093
  995MOL0     H31277   9.191   6.026   3.058  0.4349 -0.8247 -1.4532
  995MOL0     H31278   9.283   6.130   2.950 -2.8273  0.8605  1.8244
  995MOL0     H31279   9.498   6.037   3.057  0.2070  1.6623 -0.6703
  995MOL0     H31280   9.388   5.989   3.190  2.1242  0.2988  1.3965
  995MOL0     H31281   9.310   6.226   3.227  1.2317  0.4082  1.4169
  995MOL0     H31282   9.421   6.265   3.095  0.8866  1.5196  0.5022
  995MOL0     H31283   9.474   6.131   3.373  1.1236 -2.8863 -0.4486
  995MOL0     H31284   9.605   6.134   3.266  0.1299 -0.5027  1.0365
  995MOL0     H31285   9.450   6.383   3.354  0.5950  3.2948 -1.1474
  995MOL0     H31286   9.589   6.395   3.246  2.4053 -0.9069  1.7013
  995MOL0     H31287   9.737   6.289   3.409 -2.6622 -3.3919  0.5631
  995MOL0     H31288   9.601   6.254   3.512  0.7616  0.3522  3.1757
  995MOL0     H31289   9.741   6.479   3.571 -1.2899  1.9306 -0.9263
  995MOL0     H31290   9.668   6.548   3.442  3.5101  0.7168  1.3172
  995MOL0     H31291   9.521   6.413   3.666  1.5307  1.5846  1.0507
  995MOL0     H31292   9.450   6.485   3.512  1.9555 -4.2977 -1.2177
  995MOL0     H31293   9.564   6.574   3.864 -2.9477 -0.3451 -0.8249
  995MOL0     H31294   9.567   6.797   3.998  3.1419  0.9435  0.1325
  995MOL0     H31295   9.449   6.910   3.932  0.2230  0.6201  0.0753
  995MOL0     H31296   9.653   7.053   3.981  1.0130 -1.5175  1.0001
  995MOL0     H31297   9.664   7.005   3.810  3.1481 -3.2700 -1.6768
  995MOL0     H31298   9.862   6.994   3.969  1.1393 -0.1386 -0.3447
  995MOL0     H31299   9.778   6.849   4.035  0.3577  0.0086 -0.7767
  995MOL0     H31300   9.821   6.713   3.842  2.1037 -1.4213 -1.7219
  995MOL0     H31301   9.968   6.804   3.848 -0.3709 -2.4661 -0.2755
  995MOL0     H31302   9.997   6.655   3.695 -1.3826 -2.4557 -0.2603
  995MOL0     H31303  10.029   6.528   3.513  0.8157  1.3558 -1.2948
  995MOL0     H31304   9.884   6.349   3.150  0.6236 -2.0731 -0.0134
  995MOL0     H31305   9.752   6.218   2.971  0.0507 -0.3081  3.3694
  995MOL0     H31306   9.574   6.447   2.615  0.6195  1.2049  0.8265
  995MOL0     H31307   9.471   6.445   2.756  2.3925 -1.3643  2.9348
  995MOL0     H31308   9.357   6.257   2.707 -0.1784  1.1387 -0.5805
  995MOL0     H31309   9.476   6.203   2.576  2.3834  0.1184  0.9779
  995MOL0     H31310   9.414   6.371   2.430 -0.0182  2.8610  0.6210
  995MOL0     H31311   9.309   6.445   2.546  0.4475 -0.4173  1.0808
  995MOL0     H31312   9.282   6.174   2.406  0.9004  0.3068  0.0246
  995MOL0     H31313   9.174   6.205   2.538 -4.2128  1.1048 -2.8043
  995MOL0     H31314   9.193   6.361   2.276 -3.1628  0.6217 -1.1093
  995MOL0     H31315   9.102   6.417   2.410  3.2075 -0.2154  2.1660
  995MOL0     H31316   9.017   6.150   2.384  0.5691 -0.7643 -0.3795
  995MOL0     H31317   9.069   6.176   2.223 -2.2211 -1.5198 -0.3852
  995MOL0     H31318   8.853   6.358   2.335 -1.0907 -0.3025  0.3532
  995MOL0     H31319   8.918   6.348   2.172 -0.9907  0.5853 -0.2248
  995MOL0     H31320   8.696   6.238   2.187 -0.4009 -0.7616  1.9174
  995MOL0     H31321   8.742   6.114   2.296 -0.9621 -1.7109 -1.6767
  995MOL0     H31322   9.668   6.577   2.758  1.0746  2.2054 -0.4743
  995MOL0     H31323   9.799   6.707   2.916  1.9586  0.7455  0.7920
  995MOL0     H31324   9.784   6.793   3.274 -1.7177  2.7438  2.1669
  995MOL0     H31325   9.762   6.941   3.484 -1.5243 -1.0984  3.2461
  995MOL0     H31326   9.252   5.666   2.840  0.2284  1.2138  1.3320
  995MOL0     H31327   9.101   5.605   2.679  0.3800 -0.0362 -0.3876
  995MOL0     H31328   8.926   5.765   2.253  0.0617  0.9518  2.7424
  995MOL0     H31329   8.810   5.731   2.050  2.7072 -0.4202  1.9121
  995MOL0     H31330   8.512   5.742   1.830 -1.4984 -1.3735  1.0511
  995MOL0     H31331   8.671   5.750   1.864 -1.1306  1.2106 -1.2845
  995MOL0     H31332   8.654   5.969   1.990 -0.4028  2.4644  0.6845
  995MOL0     H31333   8.628   5.966   1.816 -1.4186  1.4774 -0.0104
  995MOL0     H31334   8.423   6.029   2.031 -1.7432 -1.1342 -0.8128
  995MOL0     H31335   8.371   5.950   1.895 -0.2050 -1.7173  2.0720
  995MOL0     H31336   8.520   6.222   1.894  0.1539 -1.6010  0.3366
  995MOL0     H31337   8.476   6.133   1.749 -0.9477  1.1485 -1.1069
  995MOL0     H31338   8.121   6.329   1.892  0.3939  0.7645 -3.0510
  995MOL0     H31339   8.443   5.740   2.260 -0.4125  0.2519 -0.7334
  995MOL0     H31340   8.567   5.787   2.477 -1.0480  1.2787  0.1367
  996MOL0     O31341   7.644   0.127   6.647 -0.6062 -0.2644  0.9344
  996MOL0     C31342   7.567   0.092   6.728 -0.3126 -0.0659  1.0082
  996MOL0     O31343   7.586  -0.005   6.820  0.2553  0.3386 -0.3675
  996MOL0     C31344   7.676  -0.109   6.819 -0.3814  0.2457  0.7115
  996MOL0     C31345   7.684  -0.180   6.933 -0.5597 -0.1510  0.2640
  996MOL0     C31346   7.767  -0.292   6.940 -0.3929 -0.4573 -0.0200
  996MOL0     C31347   7.830  -0.338   6.823  0.6373 -0.4293 -0.2479
  996MOL0     O31348   7.900  -0.461   6.814 -0.1618  0.0801  0.6681
  996MOL0     C31349   7.989  -0.500   6.920  0.0959  0.7181 -0.3807
  996MOL0     C31350   8.126  -0.456   6.887  0.4105  0.2317  0.5274
  996MOL0     C31351   8.194  -0.548   6.788  0.2196 -0.2632 -0.7831
  996MOL0     C31352   8.171  -0.479   6.649 -0.4397  0.2976  0.0630
  996MOL0     C31353   8.284  -0.525   6.562 -0.4365 -0.5246  0.3799
  996MOL0     C31354   8.258  -0.499   6.418 -0.3074  0.0253 -0.0890
  996MOL0     C31355   8.378  -0.520   6.328 -0.3464  0.4506  0.5609
  996MOL0     C31356   8.406  -0.673   6.301 -0.5380  1.1058 -0.5151
  996MOL0     N31357   8.305  -0.713   6.207  0.9895  0.0800  0.9986
  996MOL0     C31358   8.311  -0.718   6.071 -1.3261  0.3015 -0.4552
  996MOL0     C31359   8.196  -0.780   6.037 -0.0383 -0.7417 -0.4271
  996MOL0     C31360   8.158  -0.805   5.892  1.4720 -0.5970  0.4352
  996MOL0     C31361   8.010  -0.863   5.879 -0.7089 -0.2204  0.3505
  996MOL0     C31362   7.942  -0.859   5.746 -0.3744  0.2623  0.2172
  996MOL0     C31363   7.791  -0.842   5.756  0.4566  0.0476 -0.7719
  996MOL0     O31364   7.723  -0.828   5.633 -0.5000 -0.0257  0.1109
  996MOL0     C31365   7.587  -0.818   5.627 -0.7840  0.7888  0.2887
  996MOL0     C31366   7.542  -0.769   5.506 -0.4127 -0.3310  0.2417
  996MOL0     C31367   7.407  -0.738   5.488  0.1939  0.0830 -0.1493
  996MOL0     C31368   7.316  -0.776   5.587  0.9198 -0.8737  0.2032
  996MOL0     C31369   7.171  -0.772   5.554  0.3228  0.3119  0.0037
  996MOL0     O31370   7.144  -0.726   5.421  0.0235  0.3919 -0.4085
  996MOL0     C31371   7.012  -0.700   5.391 -0.4137 -1.3242 -0.2591
  996MOL0     C31372   6.901  -0.763   5.447  0.0596 -0.1666 -0.3782
  996MOL0     C31373   6.771  -0.727   5.413 -0.4007 -0.4243  0.8365
  996MOL0     C31374   6.751  -0.635   5.307  0.1848  0.2032 -0.5054
  996MOL0     O31375   6.632  -0.596   5.258  0.0751 -0.1083 -0.4268
  996MOL0     C31376   6.516  -0.624   5.339 -0.6305 -0.0387 -0.3865
  996MOL0     C31377   6.461  -0.761   5.307 -1.0998 -1.1957 -0.5557
  996MOL0     C31378   6.411  -0.768   5.167  0.1755 -0.4459 -0.5674
  996MOL0     C31379   6.357  -0.903   5.118 -0.2983  1.0873  0.1790
  996MOL0     C31380   6.219  -0.942   5.172  0.0476  0.3888  0.7654
  996MOL0     C31381   6.112  -0.834   5.142 -0.0735 -0.1360 -0.0316
  996MOL0     C31382   6.078  -0.812   4.988 -0.4823  0.4612 -0.6228
  996MOL0     C31383   6.028  -0.937   4.914 -0.0413  0.3265 -0.0168
  996MOL0    Cl31384   5.939  -0.899   4.757  0.2046  0.1483 -0.2834
  996MOL0     C31385   6.866  -0.579   5.237  0.2368  0.9631  0.0778
  996MOL0     C31386   6.994  -0.615   5.282  0.3434  0.3666 -0.6563
  996MOL0     O31387   7.087  -0.793   5.640 -0.2940 -0.8573  0.7560
  996MOL0     C31388   7.362  -0.845   5.701  0.0141 -0.1420 -0.0166
  996MOL0     C31389   7.498  -0.872   5.718  0.8755  1.7863  0.5445
  996MOL0     N31390   8.123  -0.814   6.148  0.0617 -0.3701 -0.0657
  996MOL0     N31391   8.190  -0.768   6.252  0.4738 -0.0862  0.6145
  996MOL0     C31392   7.827  -0.266   6.710  0.2159  0.3000  0.5444
  996MOL0     C31393   7.741  -0.152   6.701  0.1757  1.4714  0.1585
  996MOL0     C31394   7.436   0.159   6.734 -0.0232 -0.2706 -0.1637
  996MOL0     C31395   7.334   0.138   6.833 -0.1019 -0.0376  0.0087
  996MOL0     C31396   7.217   0.212   6.843 -0.3616 -0.2367  0.2877
  996MOL0     C31397   7.185   0.315   6.754 -0.1595  0.4283 -0.4046
  996MOL0     O31398   7.061   0.374   6.756  0.1417  0.4682 -0.0280
  996MOL0     C31399   6.962   0.363   6.867 -1.0994 -0.0751  1.0205
  996MOL0     C31400   6.867   0.254   6.852 -0.2355 -0.2024  0.4246
  996MOL0     C31401   6.873   0.139   6.957  0.7704  0.7714  0.1502
  996MOL0     C31402   6.797   0.014   6.927  1.2341 -0.6008 -1.1199
  996MOL0     C31403   6.655   0.049   6.918  0.2610 -0.0280  0.0218
  996MOL0     C31404   6.539   0.077   6.925  0.7389 -0.1722 -0.2830
  996MOL0     C31405   7.282   0.340   6.654  0.7292  0.3877  0.3298
  996MOL0     C31406   7.405   0.268   6.641 -0.3413  0.1007  0.3419
  996MOL0     H31407   7.617  -0.159   7.016 -0.2806 -0.0113  0.4516
  996MOL0     H31408   7.758  -0.349   7.032 -1.8542 -0.2582 -0.0137
  996MOL0     H31409   7.988  -0.605   6.951 -1.2994  0.8998  0.3039
  996MOL0     H31410   7.965  -0.444   7.011  0.2242 -1.6133  1.1674
  996MOL0     H31411   8.189  -0.454   6.976  0.4589 -1.2797  0.5397
  996MOL0     H31412   8.124  -0.350   6.857  1.4699 -0.4905 -2.4540
  996MOL0     H31413   8.156  -0.651   6.795 -0.2284 -0.1593 -1.6531
  996MOL0     H31414   8.301  -0.543   6.813  0.1560 -0.5291 -0.4391
  996MOL0     H31415   8.080  -0.526   6.610 -0.1589  0.4592 -0.8154
  996MOL0     H31416   8.165  -0.370   6.652  0.3372  0.5198 -3.0882
  996MOL0     H31417   8.282  -0.631   6.586 -3.0319 -0.9140 -1.0979
  996MOL0     H31418   8.384  -0.493   6.592 -0.3595  1.6491 -1.8580
  996MOL0     H31419   8.237  -0.392   6.409  0.0394  0.3305  2.0565
  996MOL0     H31420   8.175  -0.567   6.397  0.1961 -0.0764 -1.9478
  996MOL0     H31421   8.352  -0.484   6.228  1.0765  3.8071  1.2590
  996MOL0     H31422   8.467  -0.463   6.357  1.6907 -0.5136 -3.0726
  996MOL0     H31423   8.387  -0.727   6.394  1.4555  1.3977  0.1199
  996MOL0     H31424   8.508  -0.693   6.267 -0.0469  1.0911  0.8976
  996MOL0     H31425   8.390  -0.678   6.009  0.1121 -0.5639  0.7594
  996MOL0     H31426   8.230  -0.873   5.844  2.6482  0.2381  0.9549
  996MOL0     H31427   8.162  -0.713   5.833 -2.0679 -1.9433 -2.2403
  996MOL0     H31428   7.952  -0.804   5.951 -4.0716  0.6164 -2.7317
  996MOL0     H31429   7.993  -0.965   5.914  0.7350 -0.0530  1.6625
  996MOL0     H31430   7.990  -0.781   5.687  1.8449 -0.8098  0.4972
  996MOL0     H31431   7.961  -0.949   5.687  5.3452  2.3499 -1.8217
  996MOL0     H31432   7.783  -0.751   5.815 -3.8002 -2.4715  3.1982
  996MOL0     H31433   7.749  -0.912   5.829  1.1853  0.0066 -0.3919
  996MOL0     H31434   7.614  -0.737   5.430  0.0837  3.3279  2.0294
  996MOL0     H31435   7.386  -0.685   5.396  1.8301  3.1077  1.0491
  996MOL0     H31436   6.890  -0.831   5.531 -1.4279 -0.2647 -0.6177
  996MOL0     H31437   6.684  -0.766   5.466 -1.1613 -1.0839 -0.8207
  996MOL0     H31438   6.442  -0.549   5.314  0.6135  1.6892  0.8337
  996MOL0     H31439   6.535  -0.615   5.447 -3.5885 -1.6949  0.3785
  996MOL0     H31440   6.383  -0.780   5.382 -0.7132 -1.9826 -0.3373
  996MOL0     H31441   6.546  -0.827   5.328  0.8561  1.7523  1.5525
  996MOL0     H31442   6.505  -0.755   5.112  0.4227 -2.9754 -0.8528
  996MOL0     H31443   6.348  -0.684   5.138 -2.9272 -2.9877 -1.7562
  996MOL0     H31444   6.362  -0.889   5.010  1.2059  4.2483  0.5428
  996MOL0     H31445   6.435  -0.974   5.147 -1.1142 -0.5967 -1.5387
  996MOL0     H31446   6.233  -0.945   5.281 -6.2630 -0.5437  1.8940
  996MOL0     H31447   6.187  -1.038   5.132  0.2163  0.6124  0.0798
  996MOL0     H31448   6.144  -0.741   5.192  2.7507 -0.7601 -0.5100
  996MOL0     H31449   6.020  -0.869   5.190  1.9715 -3.4035  1.9283
  996MOL0     H31450   5.996  -0.740   4.976 -0.3426  1.6750  3.8766
  996MOL0     H31451   6.157  -0.763   4.930  1.0942  1.7662  2.4214
  996MOL0     H31452   5.957  -0.994   4.975 -1.5282 -1.2886 -3.0736
  996MOL0     H31453   6.112  -1.006   4.901  0.4558  0.5753  1.6310
  996MOL0     H31454   6.852  -0.507   5.158  0.9252 -0.4409 -1.3872
  996MOL0     H31455   7.078  -0.572   5.229  1.2661  1.6807  1.7075
  996MOL0     H31456   7.285  -0.892   5.761  0.6764 -2.5952 -0.9693
  996MOL0     H31457   7.547  -0.929   5.796 -0.8498 -0.0002  0.3878
  996MOL0     H31458   7.879  -0.294   6.619 -2.0554  2.1179 -1.4281
  996MOL0     H31459   7.734  -0.100   6.605  0.4453  2.1266  0.4896
  996MOL0     H31460   7.355   0.058   6.904 -1.0426 -0.6100 -0.3317
  996MOL0     H31461   7.144   0.208   6.923 -2.0716 -1.8193 -1.2666
  996MOL0     H31462   6.907   0.457   6.855 -1.6634 -0.5729 -0.5243
  996MOL0     H31463   6.998   0.374   6.969  2.2875 -0.2945 -0.0215
  996MOL0     H31464   6.765   0.292   6.862 -1.1166 -2.9718  4.4668
  996MOL0     H31465   6.883   0.213   6.752 -1.8110  1.7542 -0.7054
  996MOL0     H31466   6.841   0.179   7.054  4.2456  1.3468  1.1860
  996MOL0     H31467   6.977   0.110   6.972  0.5644 -1.0541 -1.5621
  996MOL0     H31468   6.838  -0.033   6.837 -0.5423  2.9861 -4.0482
  996MOL0     H31469   6.809  -0.060   7.007  0.8579 -0.3672 -0.8435
  996MOL0     H31470   6.434   0.075   6.902  1.0850 -1.4405 -1.8982
  996MOL0     H31471   7.250   0.416   6.583 -0.7384  1.7810  2.3773
  996MOL0     H31472   7.480   0.275   6.563  1.4961 -0.2527  2.0066
  997MOL0     O31473   1.345   4.277   2.875 -0.3567  0.7425  1.2924
  997MOL0     C31474   1.342   4.176   2.943  0.2814 -0.0492 -0.7302
  997MOL0     O31475   1.457   4.102   2.981  0.9909 -0.7426  0.1447
  997MOL0     C31476   1.573   4.168   2.987  0.8303  0.0900  0.5775
  997MOL0     C31477   1.683   4.117   2.919 -0.7169 -0.2295  0.7105
  997MOL0     C31478   1.806   4.178   2.912 -0.0285 -0.9329  0.0077
  997MOL0     C31479   1.818   4.305   2.973  0.0559 -1.2706  0.2967
  997MOL0     O31480   1.939   4.372   2.967 -0.4899  0.3608 -0.7103
  997MOL0     C31481   1.951   4.490   3.051  0.6999 -0.0794  0.4111
  997MOL0     C31482   2.094   4.545   3.082  0.1412  0.0962 -0.3759
  997MOL0     C31483   2.172   4.564   2.949 -0.5934 -0.4562  0.0480
  997MOL0     C31484   2.322   4.593   2.976 -0.9094  0.4710 -0.1046
  997MOL0     C31485   2.399   4.508   3.080 -0.3653 -0.5051  0.1554
  997MOL0     C31486   2.547   4.527   3.035 -0.7891  0.3416 -1.0885
  997MOL0     C31487   2.640   4.476   3.137  0.2470  0.1658  0.3017
  997MOL0     C31488   2.657   4.321   3.130 -0.2616 -0.3778  0.3861
  997MOL0     N31489   2.733   4.282   3.015 -1.4615 -0.4963 -0.1223
  997MOL0     C31490   2.770   4.153   2.987  1.0262  0.1005  0.6987
  997MOL0     C31491   2.866   4.166   2.898 -0.2637  0.6426 -0.1378
  997MOL0     C31492   2.935   4.046   2.823  0.4154 -0.1172 -0.7041
  997MOL0     C31493   3.079   4.028   2.869  0.9737  1.2747  0.0610
  997MOL0     C31494   3.084   3.922   2.985 -0.3986 -0.1763  0.5840
  997MOL0     C31495   3.225   3.853   2.980  0.2436  0.1394 -0.1508
  997MOL0     O31496   3.242   3.743   3.074 -0.2487 -0.6721  0.1344
  997MOL0     C31497   3.361   3.673   3.081 -0.5614 -0.8259 -1.3249
  997MOL0     C31498   3.367   3.573   3.174 -0.4223  0.8239 -0.5518
  997MOL0     C31499   3.485   3.496   3.194  0.3440 -0.2108 -0.2071
  997MOL0     C31500   3.599   3.525   3.120  0.2851 -0.6802  0.1812
  997MOL0     C31501   3.730   3.475   3.159  0.2136  0.3808  0.3450
  997MOL0     O31502   3.847   3.523   3.091 -0.0205  0.8648 -0.7174
  997MOL0     C31503   3.975   3.484   3.140  0.0007 -0.3711 -0.5538
  997MOL0     C31504   4.048   3.562   3.239  0.3049 -0.2006  0.1804
  997MOL0     C31505   4.161   3.511   3.297 -0.3877 -0.4936  0.1050
  997MOL0     C31506   4.222   3.396   3.255  0.3228  0.6046 -0.0967
  997MOL0     O31507   4.339   3.362   3.305  0.4136  0.6431 -0.2181
  997MOL0     C31508   4.337   3.252   3.399  0.7938 -0.1702 -0.1112
  997MOL0     C31509   4.404   3.124   3.342 -0.5003 -0.7211  0.3944
  997MOL0     C31510   4.559   3.152   3.331  0.0930 -0.3012  0.5381
  997MOL0     C31511   4.632   3.040   3.272 -0.6508 -0.4041  0.0435
  997MOL0     C31512   4.764   3.072   3.209 -0.5150  0.0519  0.7372
  997MOL0     C31513   4.823   2.967   3.108  0.0922  0.1050 -0.4956
  997MOL0     C31514   4.967   3.005   3.074 -1.1178 -0.3379  0.4646
  997MOL0     C31515   5.068   3.045   3.186  0.7531  0.3410 -0.2899
  997MOL0    Cl31516   5.063   2.928   3.324  0.2030 -0.2113 -0.4897
  997MOL0     C31517   4.148   3.321   3.153 -0.5964  0.3905 -0.2885
  997MOL0     C31518   4.028   3.362   3.102 -0.8579 -0.6277  0.0141
  997MOL0     O31519   3.731   3.386   3.243 -0.0984 -0.9338 -0.0006
  997MOL0     C31520   3.592   3.632   3.027  0.3965  0.6205  0.1698
  997MOL0     C31521   3.473   3.716   3.008 -0.1475  1.1939  0.3559
  997MOL0     N31522   2.893   4.296   2.874 -0.4337 -0.8239 -0.5820
  997MOL0     N31523   2.813   4.368   2.941 -0.1035  0.6554 -0.7176
  997MOL0     C31524   1.710   4.346   3.054  0.4711 -0.2789 -0.1397
  997MOL0     C31525   1.590   4.278   3.065  0.0952 -0.2638  0.1976
  997MOL0     C31526   1.218   4.112   2.972  0.2919  0.2686  0.5757
  997MOL0     C31527   1.097   4.166   2.921 -0.0695 -0.1651  0.6744
  997MOL0     C31528   0.966   4.113   2.952 -0.4840  0.7592 -0.2781
  997MOL0     C31529   0.958   4.003   3.042  0.7472 -0.8338  0.1385
  997MOL0     O31530   0.842   3.965   3.096 -0.3588 -0.1826 -0.1950
  997MOL0     C31531   0.749   3.915   2.995  0.0254 -0.2638  0.2985
  997MOL0     C31532   0.648   3.825   3.049  0.0262  0.1235 -0.3113
  997MOL0     C31533   0.696   3.694   3.124 -0.2393  0.4989 -0.7687
  997MOL0     C31534   0.579   3.598   3.136  0.5825  0.6020  0.1309
  997MOL0     C31535   0.473   3.646   3.224  0.5380  0.4422  0.2441
  997MOL0     C31536   0.385   3.672   3.302  0.8542 -1.1756  0.4514
  997MOL0     C31537   1.079   3.943   3.083 -0.4978 -0.8358  0.6347
  997MOL0     C31538   1.209   3.994   3.044  0.4422  0.0885 -1.0469
  997MOL0     H31539   1.670   4.032   2.853 -0.3470 -0.3652  0.8041
  997MOL0     H31540   1.885   4.147   2.844 -0.6466  0.6505 -1.4995
  997MOL0     H31541   1.907   4.469   3.149 -1.1930 -2.2285 -0.7974
  997MOL0     H31542   1.902   4.571   2.995  3.2443  0.7708 -0.7170
  997MOL0     H31543   2.132   4.464   3.146  0.8681  1.0547  0.4364
  997MOL0     H31544   2.093   4.644   3.130 -2.9985  0.7852 -1.6232
  997MOL0     H31545   2.127   4.640   2.884  2.9618  2.5243  0.7402
  997MOL0     H31546   2.172   4.465   2.901  0.4936 -0.8705  0.8585
  997MOL0     H31547   2.371   4.582   2.878  1.1663 -1.8801  1.0920
  997MOL0     H31548   2.317   4.699   3.003 -1.0284  0.5101 -0.2781
  997MOL0     H31549   2.373   4.404   3.062  1.6768 -1.1438  0.6808
  997MOL0     H31550   2.389   4.518   3.189  0.9104 -1.9873  0.4407
  997MOL0     H31551   2.568   4.634   3.027 -1.3850  0.5968  0.3388
  997MOL0     H31552   2.567   4.493   2.933 -1.7049 -0.0696 -1.1405
  997MOL0     H31553   2.739   4.521   3.125  2.0074 -3.0460  1.6580
  997MOL0     H31554   2.601   4.497   3.237 -1.7231 -1.9267  0.0620
  997MOL0     H31555   2.560   4.271   3.126 -0.3979 -0.0374 -2.4814
  997MOL0     H31556   2.707   4.280   3.218 -0.2720  0.4634  0.7941
  997MOL0     H31557   2.726   4.057   3.015 -0.1907  1.0398  2.1181
  997MOL0     H31558   2.946   4.071   2.717  1.5251  5.2280  0.3656
  997MOL0     H31559   2.884   3.953   2.848  2.0470  0.1930  5.1395
  997MOL0     H31560   3.125   4.124   2.895  0.0946  2.1885 -1.5821
  997MOL0     H31561   3.134   3.990   2.782  0.6069  1.5303 -0.2856
  997MOL0     H31562   3.079   3.988   3.072  2.6463 -0.8605  1.4225
  997MOL0     H31563   3.010   3.843   2.970  0.4134 -0.7235 -0.7645
  997MOL0     H31564   3.298   3.934   2.991 -0.9894  1.5030 -1.4931
  997MOL0     H31565   3.232   3.799   2.886 -3.1619  1.4845 -1.3224
  997MOL0     H31566   3.277   3.541   3.226  0.6499 -0.9905  0.2810
  997MOL0     H31567   3.486   3.420   3.272  1.8385 -1.9702 -1.8353
  997MOL0     H31568   4.011   3.658   3.273  0.1821 -0.2894  0.2976
  997MOL0     H31569   4.208   3.578   3.369 -1.4016 -0.4776  0.7682
  997MOL0     H31570   4.236   3.224   3.431  1.4949 -3.5693 -0.4141
  997MOL0     H31571   4.401   3.265   3.486  1.3105 -1.3385 -0.2906
  997MOL0     H31572   4.361   3.103   3.244  0.3770 -0.0076 -0.1632
  997MOL0     H31573   4.382   3.042   3.411 -1.0635 -0.5208  0.4512
  997MOL0     H31574   4.590   3.166   3.435 -1.1938  1.0842  0.7802
  997MOL0     H31575   4.582   3.245   3.278 -1.3964  0.2660  0.8464
  997MOL0     H31576   4.658   2.968   3.350 -3.2586  2.0836  3.4901
  997MOL0     H31577   4.570   2.996   3.193 -1.0329  1.6738 -0.8826
  997MOL0     H31578   4.841   3.096   3.283 -1.9506 -0.7766  2.5790
  997MOL0     H31579   4.756   3.163   3.147 -1.9059 -0.9594 -0.6750
  997MOL0     H31580   4.770   2.956   3.012  0.5184 -0.4003 -0.6787
  997MOL0     H31581   4.827   2.870   3.158 -0.3237  1.5892  2.6023
  997MOL0     H31582   5.002   2.919   3.016 -2.2472  0.7425 -1.9106
  997MOL0     H31583   4.966   3.082   2.997  0.2741 -0.6444  0.1186
  997MOL0     H31584   5.044   3.145   3.221  2.2090 -0.0730  2.1029
  997MOL0     H31585   5.168   3.029   3.143 -0.2329 -0.5119 -2.4271
  997MOL0     H31586   4.192   3.230   3.113  2.0120  1.8812 -1.0634
  997MOL0     H31587   3.971   3.297   3.036  1.3464 -3.6842  0.8451
  997MOL0     H31588   3.683   3.647   2.970  0.9537  1.3432  1.2148
  997MOL0     H31589   3.468   3.803   2.944  0.7517  1.0107  0.0307
  997MOL0     H31590   1.701   4.439   3.110  0.1366  0.1005 -0.8066
  997MOL0     H31591   1.512   4.308   3.134  1.8452  1.8228  1.3845
  997MOL0     H31592   1.092   4.259   2.866  1.0346  0.8099  2.1397
  997MOL0     H31593   0.873   4.161   2.923 -1.0559 -0.5883 -0.7638
  997MOL0     H31594   0.808   3.870   2.915  2.6354  3.4140 -0.1093
  997MOL0     H31595   0.695   4.003   2.958  1.6126 -0.2665 -2.2851
  997MOL0     H31596   0.591   3.885   3.120 -2.4234 -2.2132 -0.1645
  997MOL0     H31597   0.586   3.790   2.966  0.5846 -2.1766  0.1738
  997MOL0     H31598   0.747   3.731   3.214 -0.6313 -0.7215 -0.0230
  997MOL0     H31599   0.767   3.648   3.054 -1.1782  1.9607 -2.7716
  997MOL0     H31600   0.555   3.566   3.034 -1.4797 -2.6680  1.4668
  997MOL0     H31601   0.622   3.505   3.175  1.1630  1.2501  1.0724
  997MOL0     H31602   0.316   3.676   3.383 -2.2980 -3.0632 -1.8961
  997MOL0     H31603   1.065   3.856   3.147 -1.4723  0.0324  1.6506
  997MOL0     H31604   1.294   3.937   3.079  0.2565 -0.3147 -1.2431
  998MOL0     O31605   7.183   0.285   5.780  0.2301  0.9390  0.5187
  998MOL0     C31606   7.125   0.209   5.861  0.3652  0.0127  0.1983
  998MOL0     O31607   7.177   0.140   5.958 -0.0577  0.0736 -0.6366
  998MOL0     C31608   7.307   0.160   6.002  0.3371  0.2345  0.2848
  998MOL0     C31609   7.354   0.292   6.037  0.5291  0.1545 -0.3195
  998MOL0     C31610   7.489   0.308   6.084 -0.0587 -0.6698  0.2257
  998MOL0     C31611   7.566   0.191   6.104 -0.7639  0.9190  0.6020
  998MOL0     O31612   7.696   0.200   6.147 -0.3503 -0.5054  0.1878
  998MOL0     C31613   7.715   0.160   6.285  0.7235  0.4782  0.2532
  998MOL0     C31614   7.773   0.019   6.298 -0.3752  0.5968 -1.0377
  998MOL0     C31615   7.893  -0.020   6.208 -0.0623 -0.0568 -0.7624
  998MOL0     C31616   7.950  -0.155   6.255  0.2987 -0.0979  0.6665
  998MOL0     C31617   7.859  -0.267   6.222 -0.2913 -0.6332 -0.0936
  998MOL0     C31618   7.932  -0.396   6.268 -0.3590 -0.3206  0.3491
  998MOL0     C31619   7.867  -0.518   6.202  1.6419  0.8743 -1.1065
  998MOL0     C31620   7.749  -0.567   6.277 -1.1300  0.3804 -0.3398
  998MOL0     N31621   7.677  -0.684   6.216  0.2659  0.5148  0.5510
  998MOL0     C31622   7.568  -0.752   6.269  0.3126 -0.1719  0.9212
  998MOL0     C31623   7.524  -0.837   6.165 -0.2577  0.1848 -0.7616
  998MOL0     C31624   7.409  -0.935   6.165  0.0782  0.8950  0.6416
  998MOL0     C31625   7.298  -0.920   6.279  0.1556 -0.3032  0.1738
  998MOL0     C31626   7.220  -0.794   6.252 -0.8451 -0.1728 -0.0198
  998MOL0     C31627   7.122  -0.834   6.148  0.1422  0.1379 -0.2530
  998MOL0     O31628   7.063  -0.713   6.095 -0.2168  1.0009  0.9277
  998MOL0     C31629   6.939  -0.737   6.035 -0.3287 -0.2899  1.0361
  998MOL0     C31630   6.828  -0.791   6.088  1.0461 -0.2826  0.0848
  998MOL0     C31631   6.716  -0.817   6.010 -0.6268  0.1733  0.7159
  998MOL0     C31632   6.708  -0.776   5.872  0.1542 -0.7498  0.0650
  998MOL0     C31633   6.585  -0.807   5.795  0.3067 -0.6110  0.6334
  998MOL0     O31634   6.482  -0.868   5.870  0.2274 -0.1515 -0.2138
  998MOL0     C31635   6.376  -0.909   5.796  0.8165  0.4994 -0.6906
  998MOL0     C31636   6.370  -1.044   5.757  0.3972  0.3281 -0.7480
  998MOL0     C31637   6.273  -1.090   5.675  0.3204  0.6145  0.0055
  998MOL0     C31638   6.174  -1.002   5.618  0.2356  0.6627 -0.0665
  998MOL0     O31639   6.076  -1.048   5.532  0.7457 -0.1408 -0.2230
  998MOL0     C31640   6.083  -1.179   5.474  1.0973  0.2759  0.2973
  998MOL0     C31641   5.977  -1.180   5.368 -0.0969  0.1156 -0.4860
  998MOL0     C31642   6.026  -1.266   5.252  0.1619  0.6851  0.9133
  998MOL0     C31643   5.905  -1.332   5.181  0.8328  0.0604 -0.8250
  998MOL0     C31644   5.800  -1.245   5.115 -0.4294 -0.7321 -0.3694
  998MOL0     C31645   5.705  -1.318   5.025 -0.4120 -0.0716  0.4818
  998MOL0     C31646   5.595  -1.215   4.977 -0.5177 -0.2352  0.0929
  998MOL0     C31647   5.625  -1.095   4.888  0.0673 -0.7553  0.1062
  998MOL0    Cl31648   5.640  -0.954   4.988  0.1023 -0.0274 -0.4799
  998MOL0     C31649   6.169  -0.870   5.669 -0.0333 -0.7992 -0.3149
  998MOL0     C31650   6.279  -0.817   5.748 -0.6703 -0.5623 -1.2610
  998MOL0     O31651   6.573  -0.769   5.678  0.2956 -0.1437  0.2448
  998MOL0     C31652   6.819  -0.712   5.821 -0.8374  0.7076  0.1202
  998MOL0     C31653   6.930  -0.688   5.904  0.5453 -0.3075 -0.5148
  998MOL0     N31654   7.597  -0.803   6.055 -0.2138 -0.3910  0.2010
  998MOL0     N31655   7.688  -0.717   6.086  0.0399  0.3249 -0.0339
  998MOL0     C31656   7.524   0.066   6.053  0.0956 -0.2817  1.2365
  998MOL0     C31657   7.395   0.046   6.007 -0.1816  0.6347 -0.6286
  998MOL0     C31658   6.983   0.207   5.856  0.0759 -0.6552  0.7557
  998MOL0     C31659   6.900   0.324   5.832  0.0018  0.2048  0.5778
  998MOL0     C31660   6.761   0.319   5.838  0.4542 -0.7648 -1.0988
  998MOL0     C31661   6.696   0.192   5.852 -1.0457 -0.2311  0.1901
  998MOL0     O31662   6.559   0.195   5.849  0.1131 -0.1740 -0.1056
  998MOL0     C31663   6.490   0.071   5.855 -0.3943  0.5750 -0.1494
  998MOL0     C31664   6.351   0.102   5.851 -0.3707  0.2623 -0.9506
  998MOL0     C31665   6.324   0.159   5.709 -0.2526  0.1194  0.5582
  998MOL0     C31666   6.188   0.216   5.709  1.5323 -0.2599 -0.6012
  998MOL0     C31667   6.169   0.301   5.595 -0.9945  0.5600  0.2407
  998MOL0     C31668   6.179   0.376   5.497 -1.3158 -1.1733 -0.1090
  998MOL0     C31669   6.780   0.077   5.871  0.0933 -0.0124 -0.2137
  998MOL0     C31670   6.913   0.084   5.867  0.1522  0.1807 -0.3724
  998MOL0     H31671   7.289   0.374   6.008  0.0127  0.5727  1.8691
  998MOL0     H31672   7.530   0.407   6.096  1.4953 -1.0364 -1.5759
  998MOL0     H31673   7.618   0.158   6.336 -1.4100  0.1570 -3.3983
  998MOL0     H31674   7.784   0.228   6.334  1.1144 -0.6655  1.3452
  998MOL0     H31675   7.688  -0.048   6.281 -2.0554  1.6101  2.3576
  998MOL0     H31676   7.805   0.002   6.401  0.7891  1.2413 -1.2707
  998MOL0     H31677   7.972   0.055   6.222 -0.9797  0.7801  0.0118
  998MOL0     H31678   7.853  -0.021   6.106 -2.1584  0.2630  0.0128
  998MOL0     H31679   8.045  -0.182   6.208  0.2849  1.1609 -0.1301
  998MOL0     H31680   7.962  -0.159   6.364 -1.9979  1.0783  1.0208
  998MOL0     H31681   7.850  -0.271   6.113 -0.5091  1.8599 -0.2246
  998MOL0     H31682   7.756  -0.267   6.257 -0.9061 -1.4135 -1.8145
  998MOL0     H31683   7.925  -0.414   6.376 -2.5319  1.8182  0.6544
  998MOL0     H31684   8.034  -0.395   6.229 -1.0050 -1.5676 -1.5145
  998MOL0     H31685   7.840  -0.506   6.096  2.9012 -2.6390 -1.9619
  998MOL0     H31686   7.940  -0.600   6.197  1.6666  0.8634 -0.6209
  998MOL0     H31687   7.677  -0.487   6.293 -1.3196  0.0008  0.8160
  998MOL0     H31688   7.786  -0.597   6.376  2.4326  1.9074 -1.0718
  998MOL0     H31689   7.529  -0.754   6.370  2.9855 -1.7904  2.0367
  998MOL0     H31690   7.461  -1.031   6.173  0.9910  1.4695  1.9829
  998MOL0     H31691   7.371  -0.937   6.062  5.1768 -1.1043 -1.5698
  998MOL0     H31692   7.334  -0.916   6.382  0.3605  1.6901  0.0616
  998MOL0     H31693   7.243  -1.015   6.287  3.2136 -2.0432  4.8175
  998MOL0     H31694   7.171  -0.750   6.339  3.4520  2.6873  1.2507
  998MOL0     H31695   7.283  -0.716   6.209  0.0596 -2.2468 -2.7797
  998MOL0     H31696   7.041  -0.887   6.200  0.7200 -0.2316  0.2880
  998MOL0     H31697   7.170  -0.900   6.076  3.0557  0.2783  1.3883
  998MOL0     H31698   6.821  -0.810   6.195  0.0103 -1.0814 -0.1057
  998MOL0     H31699   6.623  -0.861   6.046 -0.8057  0.5693  0.7378
  998MOL0     H31700   6.444  -1.110   5.801  2.1776  2.5882 -0.1395
  998MOL0     H31701   6.276  -1.191   5.635  0.8312  0.2867  0.8266
  998MOL0     H31702   6.068  -1.251   5.554  4.1467  0.5020  1.2133
  998MOL0     H31703   6.175  -1.208   5.421  1.0571  0.3612  0.1788
  998MOL0     H31704   5.951  -1.081   5.329 -0.2271 -0.0450 -0.8169
  998MOL0     H31705   5.887  -1.225   5.411  0.8149  1.0069  2.5753
  998MOL0     H31706   6.089  -1.350   5.284 -0.2176  0.6896  1.6946
  998MOL0     H31707   6.078  -1.211   5.174  1.5740 -0.2989  1.1205
  998MOL0     H31708   5.944  -1.402   5.107  2.8762  0.1819  0.0689
  998MOL0     H31709   5.855  -1.398   5.253  3.5272 -1.5212 -0.2468
  998MOL0     H31710   5.846  -1.166   5.055  0.3301 -0.5256  0.4706
  998MOL0     H31711   5.755  -1.196   5.201  3.1289 -3.0710  3.1491
  998MOL0     H31712   5.654  -1.399   5.078 -1.6534  0.2081 -0.2329
  998MOL0     H31713   5.747  -1.361   4.933 -1.1410  2.0269 -0.9080
  998MOL0     H31714   5.524  -1.285   4.933 -2.4764  0.8470  1.3822
  998MOL0     H31715   5.544  -1.181   5.067 -0.0797 -0.1206  0.2983
  998MOL0     H31716   5.542  -1.085   4.817  1.6143  3.4327 -1.3939
  998MOL0     H31717   5.720  -1.111   4.836  1.2638 -0.8848  2.2202
  998MOL0     H31718   6.088  -0.800   5.655  2.5567  2.4553 -0.2623
  998MOL0     H31719   6.290  -0.710   5.759 -0.3363 -0.7553  0.5483
  998MOL0     H31720   6.823  -0.677   5.718 -0.8352  0.8157  0.1575
  998MOL0     H31721   7.015  -0.639   5.857 -0.1792  2.6847  1.0454
  998MOL0     H31722   7.588  -0.012   6.012 -2.7184 -1.1235 -1.9703
  998MOL0     H31723   7.372  -0.048   5.958  1.6767 -0.1945  0.0191
  998MOL0     H31724   6.952   0.418   5.814  1.2052 -0.0702  2.3835
  998MOL0     H31725   6.709   0.415   5.840  1.6529  0.0074  2.8994
  998MOL0     H31726   6.509   0.027   5.953 -0.4173  1.2757  0.1790
  998MOL0     H31727   6.524  -0.003   5.782 -0.0668 -0.9038  1.4295
  998MOL0     H31728   6.308   0.003   5.870  1.3478 -0.1097  1.5525
  998MOL0     H31729   6.324   0.170   5.932  0.9432  1.5853 -1.5686
  998MOL0     H31730   6.317   0.076   5.638 -3.1591 -0.9561  1.9527
  998MOL0     H31731   6.398   0.233   5.676  1.7180 -3.0873 -3.0481
  998MOL0     H31732   6.112   0.138   5.716  0.6219  0.6522  0.0994
  998MOL0     H31733   6.188   0.280   5.798  3.8317 -4.4134  2.7769
  998MOL0     H31734   6.165   0.450   5.421 -1.7923 -0.0535  1.0218
  998MOL0     H31735   6.740  -0.023   5.884 -3.1698  1.4419  2.4988
  998MOL0     H31736   6.966  -0.006   5.898 -0.1500 -0.4940 -1.7299
  999MOL0     O31737   4.268   4.402   8.700  0.4810  0.0308 -0.5728
  999MOL0     C31738   4.198   4.481   8.767 -0.6789  0.2891  0.5424
  999MOL0     O31739   4.196   4.500   8.903  0.3337 -0.4682  0.2047
  999MOL0     C31740   4.273   4.427   8.975  0.2587 -0.1017 -0.0771
  999MOL0     C31741   4.367   4.486   9.060  0.4804  0.1053  0.0281
  999MOL0     C31742   4.448   4.410   9.144  0.0478 -0.0716 -0.5957
  999MOL0     C31743   4.444   4.265   9.153  0.0682 -0.2672 -0.3914
  999MOL0     O31744   4.525   4.197   9.249 -1.3834 -0.1769 -0.3519
  999MOL0     C31745   4.482   4.079   9.312  0.3044 -0.0114  0.1786
  999MOL0     C31746   4.563   4.033   9.438  0.2085  0.6394  0.6436
  999MOL0     C31747   4.708   3.984   9.393  0.5401 -0.9649 -0.1920
  999MOL0     C31748   4.781   3.930   9.513  0.4534 -0.2558 -0.0455
  999MOL0     C31749   4.905   3.838   9.495  0.6938 -0.0685 -0.5617
  999MOL0     C31750   5.038   3.902   9.486 -1.0237 -0.5474 -0.5959
  999MOL0     C31751   5.158   3.803   9.485 -0.7665 -0.2569  0.5873
  999MOL0     C31752   5.177   3.745   9.622 -0.7695  0.6594 -0.1065
  999MOL0     N31753   5.298   3.657   9.634 -0.6616 -1.0408  0.4393
  999MOL0     C31754   5.296   3.527   9.600 -0.2063  0.2336  0.2074
  999MOL0     C31755   5.427   3.485   9.592 -0.0236 -0.0820  1.1554
  999MOL0     C31756   5.481   3.352   9.534 -0.2950  0.2768  0.8422
  999MOL0     C31757   5.387   3.235   9.575  0.3039  0.1307 -0.2465
  999MOL0     C31758   5.454   3.105   9.538  1.0295 -0.5544 -0.4182
  999MOL0     C31759   5.396   2.976   9.600 -0.1217 -0.9158  0.1799
  999MOL0     O31760   5.424   2.855   9.525  0.1904  0.0494  0.0191
  999MOL0     C31761   5.540   2.784   9.561  0.3144 -0.1746  0.5438
  999MOL0     C31762   5.652   2.839   9.622 -0.0643  0.2282  0.2473
  999MOL0     C31763   5.773   2.773   9.630  0.5727 -0.3370 -0.9175
  999MOL0     C31764   5.777   2.633   9.618 -0.0619  0.5145 -0.2849
  999MOL0     C31765   5.894   2.555   9.654 -0.1945 -0.2262  0.6298
  999MOL0     O31766   6.008   2.627   9.695  0.2849 -0.7905  0.4183
  999MOL0     C31767   6.124   2.556   9.738 -0.6496  0.3269  0.5235
  999MOL0     C31768   6.248   2.614   9.705 -1.7696 -0.7488 -1.3322
  999MOL0     C31769   6.365   2.540   9.737  0.0484  0.0956  0.2137
  999MOL0     C31770   6.367   2.411   9.799  0.4111  0.1570  0.9836
  999MOL0     O31771   6.484   2.337   9.827  0.1381  0.2226  0.5462
  999MOL0     C31772   6.604   2.412   9.826 -0.5172 -0.7850 -0.3739
  999MOL0     C31773   6.718   2.321   9.877 -0.7082 -0.2067 -0.0402
  999MOL0     C31774   6.846   2.404   9.907  1.1978  0.2925 -0.1809
  999MOL0     C31775   6.948   2.323   9.988 -0.0736  0.0838 -0.3468
  999MOL0     C31776   7.063   2.422  10.016 -0.5373  0.0094  0.6450
  999MOL0     C31777   7.196   2.347  10.059 -0.8941  0.1865 -0.2727
  999MOL0     C31778   7.292   2.458  10.121 -0.4642 -0.1567 -0.1732
  999MOL0     C31779   7.433   2.421  10.151  0.0139  0.9432  1.0541
  999MOL0    Cl31780   7.427   2.248  10.242  0.2144 -0.0444  0.2105
  999MOL0     C31781   6.237   2.355   9.828  0.4242 -0.2223  0.3480
  999MOL0     C31782   6.118   2.427   9.793 -0.0541 -0.2912  0.1687
  999MOL0     O31783   5.888   2.432   9.635 -0.8343  0.0036 -0.0918
  999MOL0     C31784   5.662   2.572   9.568 -1.0019  0.5060  0.7297
  999MOL0     C31785   5.549   2.643   9.536  0.1676 -0.6766 -0.2347
  999MOL0     N31786   5.501   3.596   9.641  0.2501  0.6096 -0.2975
  999MOL0     N31787   5.425   3.699   9.654  0.7495 -0.0480 -0.4337
  999MOL0     C31788   4.354   4.207   9.063  0.6983 -0.9499 -0.8721
  999MOL0     C31789   4.273   4.286   8.977  0.4325 -0.0726 -0.0717
  999MOL0     C31790   4.124   4.581   8.687 -0.4735 -0.6282 -0.8746
  999MOL0     C31791   4.095   4.575   8.548 -0.8007  0.2377 -0.0083
  999MOL0     C31792   4.038   4.678   8.478  0.5174  0.3741  0.3548
  999MOL0     C31793   3.983   4.789   8.544  0.1118  0.5927  0.8619
  999MOL0     O31794   3.909   4.876   8.467 -0.2765 -0.0443 -1.0055
  999MOL0     C31795   3.797   4.945   8.521  0.3381  0.2612 -0.0723
  999MOL0     C31796   3.673   4.933   8.427 -0.9020  0.6180  0.5557
  999MOL0     C31797   3.554   5.004   8.478  0.4807 -0.0509 -0.0818
  999MOL0     C31798   3.433   4.972   8.385  0.9122  0.2735  0.3942
  999MOL0     C31799   3.440   5.022   8.248  0.1019  0.5494  0.4324
  999MOL0     C31800   3.419   5.041   8.129  0.8627 -0.5683  0.0080
  999MOL0     C31801   4.004   4.805   8.680 -0.0701 -0.5558  0.5990
  999MOL0     C31802   4.075   4.703   8.754 -0.2085 -0.2633  0.6274
  999MOL0     H31803   4.366   4.594   9.055 -1.6390  0.0884 -0.8818
  999MOL0     H31804   4.518   4.455   9.213  0.6541 -3.4659  1.2159
  999MOL0     H31805   4.490   4.001   9.237  2.4651  0.2565  0.0738
  999MOL0     H31806   4.374   4.084   9.332  0.3534  1.4099  0.2343
  999MOL0     H31807   4.508   3.948   9.482  1.6784 -1.3423 -1.1372
  999MOL0     H31808   4.558   4.120   9.504 -2.3567 -0.5624  2.2088
  999MOL0     H31809   4.764   4.071   9.357 -1.1262  1.2572  2.1677
  999MOL0     H31810   4.698   3.918   9.307  0.8404  0.8080 -1.6413
  999MOL0     H31811   4.812   4.016   9.573  1.1231 -1.6278  1.6837
  999MOL0     H31812   4.705   3.873   9.568 -1.6702 -0.6382 -3.1637
  999MOL0     H31813   4.898   3.777   9.405  2.7182  2.5197 -2.6078
  999MOL0     H31814   4.916   3.768   9.579  0.4996 -1.7660 -1.8954
  999MOL0     H31815   5.057   3.983   9.556 -0.0153 -0.5155 -0.8792
  999MOL0     H31816   5.035   3.966   9.398  0.6842  1.1186  0.4764
  999MOL0     H31817   5.155   3.735   9.399 -1.1708  0.6474 -0.1273
  999MOL0     H31818   5.246   3.866   9.468 -0.3070  0.0306  3.5480
  999MOL0     H31819   5.088   3.689   9.654 -0.8518 -0.6662 -2.4707
  999MOL0     H31820   5.195   3.834   9.684 -1.6536  0.5415  0.3405
  999MOL0     H31821   5.206   3.468   9.587  0.4665 -0.8409  0.2935
  999MOL0     H31822   5.582   3.332   9.571  0.7333  2.8628 -0.2860
  999MOL0     H31823   5.503   3.345   9.427  2.8414 -2.9630  1.5128
  999MOL0     H31824   5.282   3.240   9.544 -0.4285 -0.3188  1.9697
  999MOL0     H31825   5.387   3.237   9.684  4.0823 -0.3265 -0.1067
  999MOL0     H31826   5.459   3.094   9.430 -2.0545 -1.5702 -0.5545
  999MOL0     H31827   5.559   3.111   9.569  1.1330 -3.7875  0.2791
  999MOL0     H31828   5.288   2.993   9.603  0.3199  3.1432 -0.8922
  999MOL0     H31829   5.424   2.971   9.706  0.1471  2.9368  0.4433
  999MOL0     H31830   5.662   2.945   9.646 -0.9778 -0.0526  1.9698
  999MOL0     H31831   5.851   2.837   9.670  0.3990 -0.7119  0.0617
  999MOL0     H31832   6.259   2.720   9.686 -0.8046  0.3760  3.8400
  999MOL0     H31833   6.461   2.590   9.736 -0.6045  1.4680  1.4922
  999MOL0     H31834   6.606   2.491   9.901 -1.2773  0.6513 -1.8211
  999MOL0     H31835   6.630   2.450   9.727 -2.1042 -1.7967 -1.2349
  999MOL0     H31836   6.737   2.233   9.815  0.9443 -0.9027  1.3597
  999MOL0     H31837   6.678   2.286   9.973 -3.2375  0.7053 -0.6870
  999MOL0     H31838   6.804   2.494   9.954  1.6811  1.9532 -2.7219
  999MOL0     H31839   6.887   2.438   9.812  1.5575 -1.5009 -0.6982
  999MOL0     H31840   6.903   2.271  10.073 -0.6477 -0.9375 -1.2530
  999MOL0     H31841   6.991   2.244   9.926 -1.3416 -0.0108 -1.1293
  999MOL0     H31842   7.033   2.487  10.098 -0.0005 -0.4254  1.1989
  999MOL0     H31843   7.081   2.486   9.929 -2.5803  1.1430  1.0057
  999MOL0     H31844   7.245   2.308   9.970  1.1015 -0.7729  1.1699
  999MOL0     H31845   7.175   2.266  10.129 -4.2730  2.7880  2.1044
  999MOL0     H31846   7.281   2.553  10.069 -2.1072  0.1490  0.6761
  999MOL0     H31847   7.259   2.481  10.223  2.0891  0.3029  0.6275
  999MOL0     H31848   7.489   2.489  10.216  0.9051 -0.9317  2.3142
  999MOL0     H31849   7.494   2.418  10.059 -2.1562 -0.9074 -0.4371
  999MOL0     H31850   6.232   2.264   9.887 -6.1199  0.8464  2.1721
  999MOL0     H31851   6.024   2.381   9.822  0.8624 -1.8958  0.6664
  999MOL0     H31852   5.650   2.465   9.556 -3.2981  0.4669  2.4756
  999MOL0     H31853   5.465   2.611   9.475 -1.6445  3.8771 -0.5558
  999MOL0     H31854   4.348   4.100   9.076 -1.0157 -0.6094  1.9194
  999MOL0     H31855   4.204   4.220   8.926  0.3763  1.3978 -2.0118
  999MOL0     H31856   4.125   4.487   8.492 -2.1666 -1.1229  1.2912
  999MOL0     H31857   4.027   4.687   8.370 -1.4074  4.5086  0.7004
  999MOL0     H31858   3.830   5.049   8.530  0.2953  0.2856 -0.1930
  999MOL0     H31859   3.774   4.905   8.620  0.1410 -2.2522 -1.0725
  999MOL0     H31860   3.700   4.976   8.331 -1.4845  1.0636  0.5842
  999MOL0     H31861   3.638   4.831   8.409  0.3628  0.5839 -2.2485
  999MOL0     H31862   3.581   5.109   8.486 -1.3292  0.3921  0.5393
  999MOL0     H31863   3.531   4.979   8.582  1.4307  2.1355  0.7045
  999MOL0     H31864   3.406   4.866   8.385  1.0974  0.2119 -0.8404
  999MOL0     H31865   3.353   5.029   8.432 -0.7516  0.6839 -2.6655
  999MOL0     H31866   3.392   5.054   8.026 -1.0418 -0.5863  0.4784
  999MOL0     H31867   3.969   4.898   8.724 -0.9284 -1.4039  1.7978
  999MOL0     H31868   4.096   4.731   8.856 -1.2328 -0.7608  0.9895
 1000MOL0     O31869   3.886   3.736   3.974 -0.0709  0.4196 -0.5952
 1000MOL0     C31870   3.821   3.820   4.043  1.2544  0.2241  0.6229
 1000MOL0     O31871   3.837   3.842   4.178  0.2230  0.2684 -0.5685
 1000MOL0     C31872   3.957   3.804   4.222 -0.3621 -0.4149 -0.9876
 1000MOL0     C31873   4.065   3.884   4.192  0.1733 -0.0068  0.2580
 1000MOL0     C31874   4.190   3.863   4.245  0.3730  0.3738 -0.4441
 1000MOL0     C31875   4.207   3.754   4.330  0.6041  0.3072 -0.1569
 1000MOL0     O31876   4.320   3.730   4.403  0.0405 -0.6590 -0.5326
 1000MOL0     C31877   4.405   3.839   4.440  0.1519  0.0412 -0.0814
 1000MOL0     C31878   4.412   3.845   4.595 -0.6542 -0.4849 -0.0369
 1000MOL0     C31879   4.272   3.860   4.654  0.3661  0.0629  0.5168
 1000MOL0     C31880   4.270   3.834   4.805 -0.0300 -0.7838  0.0783
 1000MOL0     C31881   4.133   3.873   4.862 -0.1709 -0.5926  0.7243
 1000MOL0     C31882   4.092   4.018   4.858  0.4361  0.1857  0.5868
 1000MOL0     C31883   3.947   4.036   4.915 -0.2201  0.5059  0.1957
 1000MOL0     C31884   3.887   4.170   4.880 -0.0701 -0.1347  0.0347
 1000MOL0     N31885   3.800   4.162   4.764 -0.9624  0.2198  0.9537
 1000MOL0     C31886   3.847   4.216   4.638 -0.1571  0.4100  0.1556
 1000MOL0     C31887   3.730   4.241   4.567  0.7905 -0.9286  0.7038
 1000MOL0     C31888   3.740   4.297   4.430 -0.3450 -0.1957 -0.0539
 1000MOL0     C31889   3.609   4.334   4.362 -0.5754 -0.4985 -0.2658
 1000MOL0     C31890   3.637   4.419   4.237  0.4214 -0.1543 -0.4591
 1000MOL0     C31891   3.528   4.411   4.126  0.3620 -0.3549 -0.0903
 1000MOL0     O31892   3.404   4.384   4.192 -0.2263 -0.0370  0.4476
 1000MOL0     C31893   3.287   4.389   4.122  0.3660 -0.4717  0.0248
 1000MOL0     C31894   3.172   4.415   4.203  0.3113 -0.1787  0.3115
 1000MOL0     C31895   3.050   4.446   4.138 -0.6831 -0.9827  0.9452
 1000MOL0     C31896   3.038   4.454   3.996 -0.6050  0.3668 -0.2140
 1000MOL0     C31897   2.919   4.517   3.927 -0.5283 -0.8733  0.5707
 1000MOL0     O31898   2.927   4.556   3.798 -1.1464 -0.3593  0.4872
 1000MOL0     C31899   2.824   4.606   3.713 -0.3242  0.2394 -0.9552
 1000MOL0     C31900   2.687   4.637   3.751  0.3585 -0.3457 -0.3938
 1000MOL0     C31901   2.601   4.670   3.650  0.0984  0.8497  0.2915
 1000MOL0     C31902   2.629   4.669   3.513  0.1892 -0.2869  0.8684
 1000MOL0     O31903   2.543   4.712   3.407  0.2708  0.1394  0.3453
 1000MOL0     C31904   2.421   4.773   3.437  0.3896  0.3461 -0.1380
 1000MOL0     C31905   2.342   4.814   3.316 -0.4894  0.8069  0.2436
 1000MOL0     C31906   2.218   4.895   3.360  0.2926  0.5315 -0.1816
 1000MOL0     C31907   2.238   5.043   3.390 -0.5708 -0.8561 -0.6499
 1000MOL0     C31908   2.246   5.064   3.545  0.2282  0.3884 -0.2583
 1000MOL0     C31909   2.337   5.192   3.578  0.1866 -0.1039  0.3555
 1000MOL0     C31910   2.342   5.231   3.725 -0.1295 -0.2344  0.9503
 1000MOL0     C31911   2.433   5.347   3.761 -0.1777 -0.2595 -0.1242
 1000MOL0    Cl31912   2.442   5.356   3.927  0.0133 -0.9720 -0.1692
 1000MOL0     C31913   2.755   4.641   3.481 -1.3414 -0.3775  0.4624
 1000MOL0     C31914   2.849   4.604   3.574 -0.1209 -0.0196 -0.4974
 1000MOL0     O31915   2.827   4.548   4.005  0.4659  0.3102 -0.3087
 1000MOL0     C31916   3.153   4.423   3.923 -0.3832  0.1310  0.7188
 1000MOL0     C31917   3.282   4.395   3.984  0.9624  0.2492 -0.0386
 1000MOL0     N31918   3.620   4.210   4.652  0.0547  0.3885 -0.6221
 1000MOL0     N31919   3.661   4.179   4.767  0.0593  0.6289 -1.1757
 1000MOL0     C31920   4.104   3.663   4.359  0.5417 -0.2281  0.7954
 1000MOL0     C31921   3.976   3.701   4.312 -0.6384 -0.0140  0.8550
 1000MOL0     C31922   3.716   3.901   3.984 -0.3714 -0.4962 -0.2365
 1000MOL0     C31923   3.718   3.916   3.847  0.1173 -0.3135  0.1520
 1000MOL0     C31924   3.622   3.990   3.781 -0.0443  0.1153  0.2889
 1000MOL0     C31925   3.510   4.045   3.849  0.3680 -0.2424  0.0131
 1000MOL0     O31926   3.412   4.109   3.770 -0.0092 -0.1854 -0.5585
 1000MOL0     C31927   3.402   4.095   3.637  0.4094 -0.2086  0.4940
 1000MOL0     C31928   3.271   4.165   3.583  0.2264  0.0692 -0.1725
 1000MOL0     C31929   3.147   4.068   3.596  0.3295 -0.3523 -0.1504
 1000MOL0     C31930   3.018   4.144   3.587  0.5562 -0.2451  0.8745
 1000MOL0     C31931   2.996   4.181   3.445 -0.1958 -0.2756 -0.8168
 1000MOL0     C31932   3.009   4.211   3.329 -0.1687 -0.3792  0.4786
 1000MOL0     C31933   3.506   4.039   3.986  0.3189  0.3120 -0.5862
 1000MOL0     C31934   3.608   3.973   4.054  0.1072  1.1778  0.5561
 1000MOL0     H31935   4.051   3.974   4.133  5.4587  0.2384 -1.0845
 1000MOL0     H31936   4.271   3.932   4.224  0.3671  0.0806 -1.4974
 1000MOL0     H31937   4.378   3.941   4.411 -0.7416 -0.5640 -1.4972
 1000MOL0     H31938   4.503   3.831   4.392 -0.5411  1.5637 -1.8242
 1000MOL0     H31939   4.483   3.924   4.621  1.6752 -1.3902 -3.0603
 1000MOL0     H31940   4.457   3.752   4.632 -0.6002  0.6296  2.9783
 1000MOL0     H31941   4.193   3.811   4.596  2.0357 -2.0448 -0.1366
 1000MOL0     H31942   4.248   3.964   4.631  3.7963  0.2822 -3.2595
 1000MOL0     H31943   4.282   3.727   4.827  2.5396 -1.0912 -2.3163
 1000MOL0     H31944   4.348   3.897   4.849 -0.8018 -1.3826  2.4906
 1000MOL0     H31945   4.127   3.837   4.965 -1.3198 -1.9266  0.2234
 1000MOL0     H31946   4.045   3.823   4.821 -1.5304 -0.3959  3.2156
 1000MOL0     H31947   4.095   4.060   4.757 -1.4750 -1.4569 -0.2321
 1000MOL0     H31948   4.157   4.074   4.926 -0.9413 -0.0513  2.1620
 1000MOL0     H31949   3.871   3.967   4.879 -1.8499  0.6560  3.0152
 1000MOL0     H31950   3.950   4.023   5.024  0.5943 -1.1127  0.0155
 1000MOL0     H31951   3.959   4.252   4.874  0.0835  0.0067  2.6312
 1000MOL0     H31952   3.832   4.213   4.964  2.8652  0.9465  1.5432
 1000MOL0     H31953   3.951   4.238   4.619 -0.2922  1.6063  0.6624
 1000MOL0     H31954   3.787   4.219   4.370 -0.2589  2.0918 -3.1980
 1000MOL0     H31955   3.808   4.383   4.430 -0.7986  0.1686 -0.6991
 1000MOL0     H31956   3.560   4.397   4.436  3.0210  2.0895  0.1891
 1000MOL0     H31957   3.548   4.249   4.329  0.8917 -0.8951 -2.1865
 1000MOL0     H31958   3.665   4.520   4.270  0.0287 -0.7077  1.7291
 1000MOL0     H31959   3.731   4.392   4.188  0.7863  2.7074 -1.5299
 1000MOL0     H31960   3.562   4.336   4.053  0.8573  0.9050 -1.2152
 1000MOL0     H31961   3.518   4.500   4.062  1.9869 -1.4524 -1.9968
 1000MOL0     H31962   3.174   4.399   4.310  0.0282  0.8550  0.4798
 1000MOL0     H31963   2.968   4.480   4.199  2.6815 -0.9297  6.0474
 1000MOL0     H31964   2.656   4.648   3.855 -5.1432 -0.2263 -1.7154
 1000MOL0     H31965   2.501   4.693   3.686  0.1992  1.6326  0.0905
 1000MOL0     H31966   2.452   4.860   3.496  1.7063  0.7773 -1.4082
 1000MOL0     H31967   2.360   4.699   3.491  2.8308  0.7978  3.6407
 1000MOL0     H31968   2.320   4.716   3.273  1.4891 -0.7074  2.3954
 1000MOL0     H31969   2.413   4.869   3.254  2.0749 -2.5989 -0.1357
 1000MOL0     H31970   2.161   4.854   3.444 -0.3820 -1.2573 -1.4686
 1000MOL0     H31971   2.154   4.900   3.272  2.6941 -1.0102 -2.1317
 1000MOL0     H31972   2.329   5.079   3.342 -0.4167  1.2592  1.0675
 1000MOL0     H31973   2.155   5.103   3.351 -1.2594 -0.1582  1.7122
 1000MOL0     H31974   2.294   4.977   3.593  2.5145  1.9055  0.3665
 1000MOL0     H31975   2.145   5.076   3.584  0.4086  2.1785 -0.2933
 1000MOL0     H31976   2.297   5.276   3.521  1.0804  2.4887  3.2962
 1000MOL0     H31977   2.441   5.168   3.555  0.0858 -2.6082  2.0706
 1000MOL0     H31978   2.241   5.261   3.755 -0.1999 -0.2793  0.7578
 1000MOL0     H31979   2.379   5.151   3.790  0.0328  0.3032  1.5288
 1000MOL0     H31980   2.397   5.445   3.728 -0.2732 -0.0839  0.4882
 1000MOL0     H31981   2.536   5.332   3.726  0.0811  0.1367  0.4536
 1000MOL0     H31982   2.793   4.630   3.380 -2.1105 -0.5244  0.1773
 1000MOL0     H31983   2.953   4.582   3.553  0.9145  3.4701  0.3330
 1000MOL0     H31984   3.156   4.428   3.815 -0.8930  0.7314  0.7272
 1000MOL0     H31985   3.362   4.364   3.918 -0.6132 -2.5654 -0.7912
 1000MOL0     H31986   4.112   3.576   4.423  0.7792 -0.2148  0.7822
 1000MOL0     H31987   3.887   3.650   4.348  0.3587 -2.3171  0.2450
 1000MOL0     H31988   3.790   3.866   3.783 -0.5779 -0.2406 -0.7044
 1000MOL0     H31989   3.635   3.994   3.673 -1.2172 -1.6534  0.0381
 1000MOL0     H31990   3.400   3.988   3.612 -1.5019  0.1514 -1.2017
 1000MOL0     H31991   3.485   4.149   3.592 -0.8300  1.0199 -0.4191
 1000MOL0     H31992   3.249   4.250   3.649  3.5370  0.8205  0.1463
 1000MOL0     H31993   3.288   4.198   3.481 -0.2725  0.6623 -0.0647
 1000MOL0     H31994   3.150   4.023   3.696  1.7900 -1.4853 -0.6551
 1000MOL0     H31995   3.140   3.983   3.527 -2.7104 -1.1067  0.8991
 1000MOL0     H31996   2.933   4.086   3.624  0.2499  0.3773  1.1646
 1000MOL0     H31997   3.008   4.236   3.646  0.2084  0.0033  0.4380
 1000MOL0     H31998   3.003   4.257   3.232 -0.2156  2.9108  1.9097
 1000MOL0     H31999   3.429   4.084   4.049  0.1626  2.9801 -2.5147
 1000MOL0     H32000   3.612   3.957   4.161  2.2555 -0.7802  0.2448
 1001MOL0     O32001   7.188   8.702  10.027 -0.2384 -0.6510 -0.1307
 1001MOL0     C32002   7.208   8.780  10.122 -0.1318 -0.4900 -0.2465
 1001MOL0     O32003   7.232   8.919  10.116  0.1522  0.9129  0.3660
 1001MOL0     C32004   7.256   8.985   9.999  0.6155 -0.2734 -0.2236
 1001MOL0     C32005   7.228   9.120  10.013  0.8995 -0.7844 -0.1434
 1001MOL0     C32006   7.250   9.204   9.897  0.6927 -0.0126  0.3592
 1001MOL0     C32007   7.285   9.158   9.777  0.0247 -0.7293 -0.2499
 1001MOL0     O32008   7.290   9.246   9.668 -0.0448  0.5330  0.3313
 1001MOL0     C32009   7.393   9.337   9.666 -0.2794  0.0387  0.5839
 1001MOL0     C32010   7.344   9.465   9.613  0.0441  0.8034  0.5371
 1001MOL0     C32011   7.243   9.523   9.712 -0.9204 -0.7010 -0.9241
 1001MOL0     C32012   7.220   9.671   9.681 -0.1724 -0.5097  0.0806
 1001MOL0     C32013   7.144   9.756   9.786 -0.4125  0.2427  0.4478
 1001MOL0     C32014   7.004   9.705   9.825  0.5307  0.2154  0.5680
 1001MOL0     C32015   6.914   9.655   9.713  0.2104 -1.3646  0.3608
 1001MOL0     C32016   6.770   9.626   9.762 -0.0634  0.6163 -0.4789
 1001MOL0     N32017   6.744   9.490   9.797 -0.3304 -0.4873  0.4093
 1001MOL0     C32018   6.843   9.401   9.859 -0.9900 -0.6626  0.5171
 1001MOL0     C32019   6.790   9.276   9.846  0.7848  0.7121 -0.4774
 1001MOL0     C32020   6.844   9.156   9.924  0.4669  0.1117  0.2200
 1001MOL0     C32021   6.762   9.027   9.905 -0.3438  0.0618  0.1748
 1001MOL0     C32022   6.755   8.965   9.767 -0.3992  0.2877  0.2056
 1001MOL0     C32023   6.894   8.920   9.716  0.0610  0.0365 -0.3192
 1001MOL0     O32024   6.872   8.855   9.594 -0.5392  0.6330 -0.4005
 1001MOL0     C32025   6.976   8.784   9.543  0.2260  0.9648  0.7534
 1001MOL0     C32026   6.936   8.709   9.433 -0.0591 -0.6227 -0.0868
 1001MOL0     C32027   7.020   8.634   9.348 -0.5667  0.4108 -0.7330
 1001MOL0     C32028   7.159   8.637   9.379 -0.7077 -0.4076  0.3727
 1001MOL0     C32029   7.255   8.561   9.293 -0.2739 -0.1333 -0.0981
 1001MOL0     O32030   7.207   8.484   9.186  0.7670  0.2956 -0.4652
 1001MOL0     C32031   7.309   8.405   9.135 -1.3311 -0.6501 -0.5633
 1001MOL0     C32032   7.359   8.428   9.005 -0.4417  0.2492  0.0004
 1001MOL0     C32033   7.455   8.348   8.943  0.0833  0.6109  0.0235
 1001MOL0     C32034   7.502   8.239   9.019 -0.7674  1.0053  0.0603
 1001MOL0     O32035   7.601   8.159   8.969  0.3526  0.4081  0.6867
 1001MOL0     C32036   7.585   8.115   8.833  0.2159 -0.3685  0.0397
 1001MOL0     C32037   7.623   7.967   8.826  0.3012 -0.8616 -0.6222
 1001MOL0     C32038   7.774   7.947   8.862  0.3319  0.1806  0.3947
 1001MOL0     C32039   7.813   7.797   8.861 -0.7565 -0.6159 -0.1208
 1001MOL0     C32040   7.770   7.729   8.992 -0.2158  0.1146  1.5604
 1001MOL0     C32041   7.813   7.574   9.001  0.2946 -0.8383  0.3835
 1001MOL0     C32042   7.788   7.527   9.137  0.6665  0.1117 -0.7419
 1001MOL0     C32043   7.862   7.397   9.171 -0.2197 -0.3246 -1.0569
 1001MOL0    Cl32044   7.806   7.296   9.312  0.0706  0.0174  0.5170
 1001MOL0     C32045   7.470   8.227   9.154 -0.4393 -0.3748 -0.5371
 1001MOL0     C32046   7.363   8.301   9.210 -0.6142 -0.1780  0.6080
 1001MOL0     O32047   7.377   8.576   9.315  0.4798 -0.5094 -0.3807
 1001MOL0     C32048   7.207   8.715   9.487 -0.0348 -0.4510  0.1857
 1001MOL0     C32049   7.114   8.793   9.566 -0.0982  0.1380 -0.1127
 1001MOL0     N32050   6.687   9.288   9.754  0.1501  0.1888  0.1083
 1001MOL0     N32051   6.653   9.406   9.731 -0.5574 -0.4912 -0.8889
 1001MOL0     C32052   7.324   9.023   9.765  0.6264 -0.8063 -0.1414
 1001MOL0     C32053   7.308   8.934   9.881  0.6177  0.4947  0.3006
 1001MOL0     C32054   7.194   8.724  10.260 -0.0542 -0.2503  1.3487
 1001MOL0     C32055   7.199   8.797  10.376  0.2239 -0.7312 -0.0942
 1001MOL0     C32056   7.200   8.752  10.509  1.8325  0.2113 -0.5596
 1001MOL0     C32057   7.173   8.613  10.522 -0.2308  0.5505  0.4475
 1001MOL0     O32058   7.167   8.535  10.636 -0.4567  1.4320 -0.6219
 1001MOL0     C32059   7.169   8.607  10.761  0.8962  0.1971  0.4487
 1001MOL0     C32060   7.312   8.651  10.807 -0.5795 -0.3545 -0.4946
 1001MOL0     C32061   7.312   8.736  10.937 -1.1817 -0.5880  0.8632
 1001MOL0     C32062   7.451   8.791  10.965  0.0486 -0.1324 -0.0488
 1001MOL0     C32063   7.543   8.691  11.026 -0.1192 -0.6222 -0.1166
 1001MOL0     C32064   7.615   8.612  11.085  0.4085 -0.1654 -0.3773
 1001MOL0     C32065   7.147   8.537  10.407 -0.7289  0.4294 -0.0116
 1001MOL0     C32066   7.153   8.593  10.282 -0.4649  0.1466 -0.1841
 1001MOL0     H32067   7.179   9.150  10.105 -1.6279 -3.0794 -0.6296
 1001MOL0     H32068   7.251   9.312   9.909  2.5799  0.0393  0.0613
 1001MOL0     H32069   7.467   9.299   9.595 -0.5739 -2.7525  1.6224
 1001MOL0     H32070   7.448   9.350   9.759  1.0627  0.6452 -0.2787
 1001MOL0     H32071   7.289   9.443   9.521  1.4674 -1.5389  0.1783
 1001MOL0     H32072   7.432   9.529   9.601 -2.4572  4.3950 -0.3587
 1001MOL0     H32073   7.284   9.514   9.813 -2.5293  0.0966 -0.1629
 1001MOL0     H32074   7.149   9.467   9.716 -2.0960  0.8471 -4.0338
 1001MOL0     H32075   7.318   9.706   9.648  1.0003 -3.1011  0.5889
 1001MOL0     H32076   7.158   9.667   9.591 -0.0137 -0.2968 -0.0365
 1001MOL0     H32077   7.123   9.852   9.738  0.6084 -1.4396 -3.8148
 1001MOL0     H32078   7.201   9.785   9.874  0.7163  2.8220 -1.0228
 1001MOL0     H32079   6.947   9.772   9.889  0.4237 -1.6153  2.5110
 1001MOL0     H32080   7.023   9.624   9.896  3.5841 -0.3081 -0.6626
 1001MOL0     H32081   6.902   9.742   9.648  4.0125 -0.5764  0.4513
 1001MOL0     H32082   6.959   9.571   9.659 -2.3753 -1.9757 -1.0138
 1001MOL0     H32083   6.694   9.653   9.688  1.2226  0.9579 -1.7239
 1001MOL0     H32084   6.748   9.696   9.843 -0.4059 -0.1167  0.0655
 1001MOL0     H32085   6.932   9.430   9.915 -3.0056 -0.2740  3.7373
 1001MOL0     H32086   6.846   9.201  10.024  2.6498  1.4596 -0.3652
 1001MOL0     H32087   6.946   9.131   9.895  0.2241 -3.2723  1.8408
 1001MOL0     H32088   6.658   9.038   9.935 -0.0148 -0.0561  1.4198
 1001MOL0     H32089   6.805   8.955   9.976 -0.0861  0.1244  0.0825
 1001MOL0     H32090   6.686   8.880   9.773  0.1674 -0.3685 -1.7460
 1001MOL0     H32091   6.709   9.032   9.694 -0.6093 -0.7329 -0.6227
 1001MOL0     H32092   6.928   8.851   9.794 -2.1873  0.0434  0.7205
 1001MOL0     H32093   6.962   9.005   9.704  0.5772 -0.6153 -2.4212
 1001MOL0     H32094   6.828   8.708   9.420 -0.4696  3.6489  1.4232
 1001MOL0     H32095   6.975   8.596   9.257  3.0092 -0.2334 -2.4307
 1001MOL0     H32096   7.305   8.510   8.959  0.7153  1.1569  0.2117
 1001MOL0     H32097   7.472   8.368   8.838 -0.1529  0.6312 -0.0116
 1001MOL0     H32098   7.648   8.172   8.765  1.6222 -0.7558  0.9794
 1001MOL0     H32099   7.479   8.120   8.807  0.1462 -3.1810 -0.5338
 1001MOL0     H32100   7.603   7.932   8.724  1.3701 -0.5527 -0.9553
 1001MOL0     H32101   7.557   7.908   8.890 -0.8632  2.0208  1.0528
 1001MOL0     H32102   7.800   7.993   8.958  0.1528  0.7188  0.1879
 1001MOL0     H32103   7.822   8.001   8.780 -3.3225  1.9591 -0.7643
 1001MOL0     H32104   7.775   7.743   8.774 -0.7248  1.1064 -1.2636
 1001MOL0     H32105   7.922   7.798   8.853 -0.7568 -0.6345 -0.1303
 1001MOL0     H32106   7.661   7.733   8.994 -0.4358 -0.3665 -2.5489
 1001MOL0     H32107   7.820   7.780   9.076  1.2492 -2.5843  2.4568
 1001MOL0     H32108   7.921   7.564   8.983 -0.0590 -1.5673 -1.6461
 1001MOL0     H32109   7.758   7.522   8.922 -4.3355 -0.3510  2.9393
 1001MOL0     H32110   7.798   7.604   9.214  1.9534  2.3702 -3.0252
 1001MOL0     H32111   7.680   7.506   9.133  0.7076 -0.1107 -0.7004
 1001MOL0     H32112   7.964   7.421   9.203 -0.7806 -1.7696  2.2554
 1001MOL0     H32113   7.865   7.326   9.088 -1.1791 -1.9447  0.2422
 1001MOL0     H32114   7.528   8.154   9.209  1.8793 -0.7458 -3.2881
 1001MOL0     H32115   7.328   8.271   9.308 -0.3903 -0.8387  0.4874
 1001MOL0     H32116   7.311   8.713   9.517 -0.1562 -0.4992  0.6083
 1001MOL0     H32117   7.143   8.853   9.651  0.3277 -1.0213  0.5915
 1001MOL0     H32118   7.356   8.978   9.671 -0.2492 -1.5416 -0.1007
 1001MOL0     H32119   7.346   8.832   9.880  2.6531  1.1508  2.7320
 1001MOL0     H32120   7.221   8.902  10.360 -1.2808 -0.7940 -3.4548
 1001MOL0     H32121   7.226   8.814  10.594  2.6948 -0.4030 -0.3646
 1001MOL0     H32122   7.126   8.544  10.839  2.1034 -3.0649 -1.3187
 1001MOL0     H32123   7.102   8.693  10.763  1.2172  0.5673 -1.7837
 1001MOL0     H32124   7.369   8.561  10.831 -0.1703 -0.7656 -2.7563
 1001MOL0     H32125   7.363   8.698  10.722 -0.6533 -0.8823 -0.8348
 1001MOL0     H32126   7.276   8.670  11.016  1.8019  0.7639  3.5780
 1001MOL0     H32127   7.251   8.825  10.919  0.5802  0.4276 -0.4464
 1001MOL0     H32128   7.488   8.823  10.867  1.2241  0.0392  0.4356
 1001MOL0     H32129   7.445   8.880  11.028  1.5025  0.7526 -1.1016
 1001MOL0     H32130   7.684   8.540  11.123 -1.4105 -1.7938  0.0294
 1001MOL0     H32131   7.137   8.430  10.425  0.9151  0.1265 -0.7188
 1001MOL0     H32132   7.145   8.527  10.196  0.9195  1.7587 -1.6178
 1002MOL0     O32133  10.887   5.522   5.452  0.1754 -0.3488  0.8452
 1002MOL0     C32134  10.932   5.447   5.362 -0.0003  0.4662 -0.9670
 1002MOL0     O32135  10.935   5.471   5.229 -0.5482 -0.0140  0.3319
 1002MOL0     C32136  10.883   5.589   5.189 -0.2386  0.1938  0.5188
 1002MOL0     C32137  10.763   5.657   5.232  0.5829  0.5024 -0.4280
 1002MOL0     C32138  10.735   5.789   5.184 -0.8652  1.2162 -0.1770
 1002MOL0     C32139  10.815   5.849   5.081  0.7152  0.1026 -0.4549
 1002MOL0     O32140  10.793   5.982   5.050  0.1056  0.8838 -0.5626
 1002MOL0     C32141  10.862   6.039   4.938  0.0153  0.1355  0.2757
 1002MOL0     C32142  10.815   6.179   4.924 -0.0280  0.9120 -0.7150
 1002MOL0     C32143  10.929   6.278   4.951  1.0762 -0.1396 -0.3516
 1002MOL0     C32144  10.867   6.417   4.967  0.2388  0.8297  0.0554
 1002MOL0     C32145  10.969   6.525   5.004  0.2042 -0.3816  0.7999
 1002MOL0     C32146  10.903   6.665   5.004  0.0304  0.3098  0.3952
 1002MOL0     C32147  10.990   6.780   5.048  0.7389  0.0501 -0.1413
 1002MOL0     C32148  10.900   6.905   5.067 -0.4535 -0.3926  0.1857
 1002MOL0     N32149  10.968   7.028   5.108 -0.0597  0.5911 -1.0040
 1002MOL0     C32150  10.987   7.084   5.230  0.0108 -1.2882 -0.3248
 1002MOL0     C32151  11.084   7.182   5.224 -0.1602  0.8251  0.1630
 1002MOL0     C32152  11.151   7.258   5.328 -0.5771 -1.3104  0.1966
 1002MOL0     C32153  11.107   7.410   5.338 -0.4873 -0.3513 -0.0846
 1002MOL0     C32154  10.953   7.420   5.362  0.0316  0.1393 -0.9405
 1002MOL0     C32155  10.918   7.570   5.387 -0.3742  0.8308 -0.0286
 1002MOL0     O32156  10.936   7.641   5.262  0.1125 -0.4958  0.1472
 1002MOL0     C32157  10.887   7.772   5.255 -0.3662 -0.2816  1.3260
 1002MOL0     C32158  10.900   7.839   5.130  0.0682  0.4743  0.3138
 1002MOL0     C32159  10.864   7.977   5.122 -0.2035 -0.4914 -0.4255
 1002MOL0     C32160  10.812   8.047   5.229  0.0881  0.1131 -0.0117
 1002MOL0     C32161  10.765   8.186   5.216  0.5427 -0.3951 -0.2256
 1002MOL0     O32162  10.728   8.251   5.334 -0.5348  0.1625  0.0643
 1002MOL0     C32163  10.673   8.377   5.334 -0.0952 -0.3711  1.8478
 1002MOL0     C32164  10.546   8.394   5.380 -0.5219  0.0757 -0.5373
 1002MOL0     C32165  10.481   8.511   5.360  0.0403 -0.5404  0.6467
 1002MOL0     C32166  10.541   8.615   5.285 -0.4774 -0.0672 -0.5144
 1002MOL0     O32167  10.476   8.733   5.266  0.1614  0.0749  0.5692
 1002MOL0     C32168  10.366   8.770   5.347 -1.0391  1.1433 -0.1783
 1002MOL0     C32169  10.323   8.914   5.310  1.1759  0.0487 -0.5517
 1002MOL0     C32170  10.177   8.944   5.365 -0.1249 -1.0093 -0.5342
 1002MOL0     C32171  10.145   9.097   5.347  1.3040 -0.3062  0.3889
 1002MOL0     C32172  10.068   9.121   5.211 -0.1308  0.2165 -0.2050
 1002MOL0     C32173  10.113   9.264   5.169 -0.4260  0.4489  0.7505
 1002MOL0     C32174  10.060   9.367   5.281 -0.7515  0.1425  0.7283
 1002MOL0     C32175   9.987   9.493   5.218  0.7603  0.1474 -0.4322
 1002MOL0    Cl32176  10.123   9.591   5.141  0.2291  0.7548  0.0843
 1002MOL0     C32177  10.669   8.595   5.238  0.1846 -0.6238 -0.4063
 1002MOL0     C32178  10.732   8.478   5.262  0.2753  0.2544 -1.0665
 1002MOL0     O32179  10.766   8.242   5.110 -0.1716 -0.2918  0.0959
 1002MOL0     C32180  10.797   7.978   5.347 -0.4979 -0.8105 -0.1524
 1002MOL0     C32181  10.839   7.842   5.358  0.4382 -0.8065 -0.4641
 1002MOL0     N32182  11.118   7.187   5.090  0.0954  0.5389  0.3471
 1002MOL0     N32183  11.049   7.097   5.028  0.5357  0.2323 -0.8526
 1002MOL0     C32184  10.926   5.777   5.031  0.0006  0.0570 -1.0205
 1002MOL0     C32185  10.956   5.657   5.084 -0.0915 -0.4733 -1.0238
 1002MOL0     C32186  10.990   5.322   5.403  0.8547 -0.0722  0.0589
 1002MOL0     C32187  11.083   5.257   5.325  0.8947 -0.6848 -0.1517
 1002MOL0     C32188  11.148   5.144   5.381 -0.5496 -0.2764 -0.2913
 1002MOL0     C32189  11.101   5.081   5.501 -1.1556 -1.1248 -0.4810
 1002MOL0     O32190  11.150   4.963   5.553  0.0435 -0.1592  1.3089
 1002MOL0     C32191  11.282   4.914   5.507 -0.4337 -0.3530 -1.0813
 1002MOL0     C32192  11.335   4.806   5.601 -0.4513 -0.1511  0.6245
 1002MOL0     C32193  11.456   4.732   5.549 -1.0283  0.2680 -0.1570
 1002MOL0     C32194  11.547   4.660   5.664 -0.4873 -0.5699  0.4155
 1002MOL0     C32195  11.466   4.572   5.742 -0.6664  0.1441  0.1779
 1002MOL0     C32196  11.401   4.485   5.789 -0.4888  1.4969  0.3347
 1002MOL0     C32197  10.998   5.142   5.571  0.3471  0.8016 -0.4470
 1002MOL0     C32198  10.951   5.271   5.530 -0.5104  0.0464 -0.1967
 1002MOL0     H32199  10.697   5.609   5.304  0.0569  2.2377  0.3047
 1002MOL0     H32200  10.648   5.842   5.221 -1.6240  0.7038 -1.1796
 1002MOL0     H32201  10.859   5.979   4.847  1.2437  0.6517 -0.1233
 1002MOL0     H32202  10.970   6.030   4.957 -0.1811  0.7867  1.8703
 1002MOL0     H32203  10.739   6.193   5.001  0.6567  0.0991  0.1352
 1002MOL0     H32204  10.770   6.203   4.827 -2.0583  1.7640  0.3723
 1002MOL0     H32205  10.995   6.268   4.864  0.1570 -0.1739 -1.0554
 1002MOL0     H32206  10.980   6.258   5.046  0.2221  0.2762  0.2057
 1002MOL0     H32207  10.816   6.453   4.877 -0.4958  2.2485  1.0036
 1002MOL0     H32208  10.787   6.411   5.041 -1.1355 -1.3890 -1.4851
 1002MOL0     H32209  11.036   6.518   4.917 -2.6543 -2.5183 -1.4285
 1002MOL0     H32210  11.033   6.496   5.088 -0.9051  0.5551  2.0029
 1002MOL0     H32211  10.822   6.653   5.077 -1.4301 -1.6440 -1.4386
 1002MOL0     H32212  10.858   6.688   4.907 -0.6241  1.0366  0.8574
 1002MOL0     H32213  11.034   6.757   5.145 -0.3750 -0.9694  0.1418
 1002MOL0     H32214  11.074   6.810   4.984 -0.3024  1.4444 -0.9229
 1002MOL0     H32215  10.831   6.881   5.148 -2.6997 -1.1937 -1.8194
 1002MOL0     H32216  10.832   6.935   4.986 -0.1644  1.2516  0.5200
 1002MOL0     H32217  10.934   7.052   5.319  0.8497 -1.1822  0.2179
 1002MOL0     H32218  11.253   7.259   5.288 -0.3092  0.5615  0.8149
 1002MOL0     H32219  11.167   7.219   5.429  1.7854 -0.4246  0.2214
 1002MOL0     H32220  11.147   7.457   5.248  2.2860 -0.1454  1.1675
 1002MOL0     H32221  11.155   7.460   5.423 -1.6059 -0.3711  0.5782
 1002MOL0     H32222  10.888   7.382   5.282 -1.1439 -2.2100  1.0090
 1002MOL0     H32223  10.932   7.370   5.457 -0.2720  0.9996 -0.5415
 1002MOL0     H32224  10.985   7.589   5.470 -0.4830  0.3532  0.1691
 1002MOL0     H32225  10.813   7.577   5.418 -1.0167  1.1934 -2.1271
 1002MOL0     H32226  10.941   7.791   5.042  3.2006  0.0089  1.8848
 1002MOL0     H32227  10.882   8.021   5.025 -0.0441  2.1313  0.6973
 1002MOL0     H32228  10.490   8.309   5.418 -1.0146  1.0572  1.0410
 1002MOL0     H32229  10.383   8.524   5.405 -0.9571 -4.1891 -0.1498
 1002MOL0     H32230  10.386   8.767   5.454 -0.3732  2.3659 -0.2454
 1002MOL0     H32231  10.277   8.710   5.328  1.3256 -2.1508 -2.1083
 1002MOL0     H32232  10.309   8.928   5.202 -2.9879  0.3834 -0.1255
 1002MOL0     H32233  10.400   8.984   5.343  2.2744 -1.7050  0.7676
 1002MOL0     H32234  10.169   8.927   5.473 -0.7196 -0.0018 -0.4066
 1002MOL0     H32235  10.086   8.899   5.325 -1.8188  1.6504  0.0772
 1002MOL0     H32236  10.082   9.133   5.429 -0.4283 -0.1145 -0.9574
 1002MOL0     H32237  10.237   9.157   5.347  0.4985  1.1986 -2.9231
 1002MOL0     H32238   9.962   9.105   5.233  0.5751  0.0114  3.8228
 1002MOL0     H32239  10.097   9.049   5.135  0.8922 -0.3345  0.6713
 1002MOL0     H32240  10.068   9.265   5.069  1.5824 -4.2690 -0.5145
 1002MOL0     H32241  10.221   9.269   5.152 -1.0408  2.8025 -4.1798
 1002MOL0     H32242   9.981   9.320   5.339 -2.1715  2.6931  0.9793
 1002MOL0     H32243  10.145   9.408   5.336  0.2183  1.0600 -1.3477
 1002MOL0     H32244   9.932   9.552   5.293 -0.6930 -1.3477 -0.2520
 1002MOL0     H32245   9.916   9.463   5.141  0.6535  0.6498 -0.5312
 1002MOL0     H32246  10.727   8.670   5.185  0.5588  0.1661  1.0849
 1002MOL0     H32247  10.833   8.470   5.224  0.6754  2.5132 -0.6286
 1002MOL0     H32248  10.752   8.018   5.437  1.2412 -0.1384  0.4454
 1002MOL0     H32249  10.815   7.798   5.455 -2.0636  1.7839  0.2539
 1002MOL0     H32250  10.991   5.820   4.955  1.9971 -0.5414  0.2458
 1002MOL0     H32251  11.043   5.606   5.043  0.6925 -1.9498  2.2021
 1002MOL0     H32252  11.104   5.287   5.223 -1.5561 -0.5831 -0.6880
 1002MOL0     H32253  11.226   5.091   5.327 -0.8567  1.5302 -2.6734
 1002MOL0     H32254  11.357   4.991   5.525  0.4939 -1.7877  1.8120
 1002MOL0     H32255  11.274   4.888   5.401 -0.8172  0.3801 -1.2392
 1002MOL0     H32256  11.366   4.857   5.693 -3.7447 -2.0787  3.0201
 1002MOL0     H32257  11.255   4.737   5.631 -0.1427  0.0441  1.9724
 1002MOL0     H32258  11.518   4.804   5.494 -0.9353  1.3080  1.2472
 1002MOL0     H32259  11.421   4.670   5.466  1.4384 -1.4740  0.0115
 1002MOL0     H32260  11.632   4.600   5.632 -0.6971 -1.1647  0.9592
 1002MOL0     H32261  11.591   4.727   5.739  1.1541 -0.7567 -0.3386
 1002MOL0     H32262  11.345   4.411   5.841  0.0007  0.5251 -0.4961
 1002MOL0     H32263  10.957   5.093   5.658  2.0199 -1.0429 -0.6240
 1002MOL0     H32264  10.873   5.319   5.589 -0.8789 -2.1641  1.2439
 1003MOL0     O32265  11.067   8.857   3.849 -0.2563 -0.2423 -0.8848
 1003MOL0     C32266  11.188   8.828   3.835 -0.3561 -0.3019 -0.4537
 1003MOL0     O32267  11.243   8.721   3.886 -0.4367 -0.2510 -0.0967
 1003MOL0     C32268  11.168   8.617   3.930 -0.4331 -0.1566  0.3368
 1003MOL0     C32269  11.045   8.585   3.877 -0.0612  0.3681 -0.2726
 1003MOL0     C32270  10.981   8.469   3.916 -0.5559 -0.0224  0.2545
 1003MOL0     C32271  11.038   8.370   3.998  1.1316  0.1456 -1.7225
 1003MOL0     O32272  10.971   8.257   4.039  0.1749  0.0268 -0.0085
 1003MOL0     C32273  10.828   8.262   4.052  0.8632  0.5566  0.8021
 1003MOL0     C32274  10.780   8.316   4.189  0.3144  0.3225  0.3090
 1003MOL0     C32275  10.636   8.281   4.240 -0.8904 -0.1050  0.7263
 1003MOL0     C32276  10.595   8.352   4.370  0.1107  0.2044  0.4373
 1003MOL0     C32277  10.436   8.354   4.396 -0.5625 -0.4906 -0.5808
 1003MOL0     C32278  10.387   8.464   4.307  0.2829 -0.9760  0.4722
 1003MOL0     C32279  10.274   8.562   4.363 -0.3993  0.4184  0.3793
 1003MOL0     C32280  10.153   8.506   4.428 -1.0108  0.8321  0.1987
 1003MOL0     N32281  10.047   8.617   4.434 -0.2285  1.8834  0.0276
 1003MOL0     C32282   9.927   8.617   4.372  0.1743  0.1601 -0.4068
 1003MOL0     C32283   9.868   8.716   4.444 -0.7024  0.4152 -0.2192
 1003MOL0     C32284   9.717   8.753   4.451  0.3783  0.8992 -0.2815
 1003MOL0     C32285   9.674   8.697   4.593  0.5665 -0.2194  1.5695
 1003MOL0     C32286   9.526   8.718   4.630 -0.0571 -0.3120  0.0306
 1003MOL0     C32287   9.463   8.852   4.597  0.3188  0.6889 -0.2356
 1003MOL0     O32288   9.326   8.839   4.568 -0.2804  0.1285 -0.7800
 1003MOL0     C32289   9.257   8.953   4.544  0.0674 -0.3900 -0.2358
 1003MOL0     C32290   9.285   9.041   4.436  0.5295 -0.2951 -0.2936
 1003MOL0     C32291   9.214   9.158   4.418  0.2018 -0.2888 -1.0474
 1003MOL0     C32292   9.116   9.191   4.512  0.4426 -0.4365  0.5035
 1003MOL0     C32293   9.047   9.323   4.505  0.4052 -0.1698  0.3403
 1003MOL0     O32294   9.059   9.391   4.384 -0.4925 -0.4055 -0.3335
 1003MOL0     C32295   8.961   9.484   4.369 -0.0557 -1.1071  0.6260
 1003MOL0     C32296   8.973   9.605   4.446 -0.6788 -0.7295  0.3134
 1003MOL0     C32297   8.873   9.701   4.429 -0.4321  0.7654  0.3151
 1003MOL0     C32298   8.766   9.692   4.338 -0.4015  0.2022 -0.5536
 1003MOL0     O32299   8.675   9.799   4.322 -0.2366  0.0374 -0.6173
 1003MOL0     C32300   8.600   9.800   4.195  0.5903 -0.3460  1.1137
 1003MOL0     C32301   8.559   9.938   4.151 -0.4096 -0.3600  0.7907
 1003MOL0     C32302   8.461  10.007   4.245 -0.7910 -0.1466  0.0366
 1003MOL0     C32303   8.429  10.153   4.206  0.5865 -0.3661 -0.4253
 1003MOL0     C32304   8.305  10.217   4.262  0.5578  0.3583 -1.0665
 1003MOL0     C32305   8.264  10.188   4.408  0.3291  0.4092  0.6459
 1003MOL0     C32306   8.359  10.241   4.504  0.2542 -0.7544 -0.7455
 1003MOL0     C32307   8.335  10.383   4.534  0.1120 -0.0640 -0.1677
 1003MOL0    Cl32308   8.457  10.447   4.655  0.8361  0.2008  0.1595
 1003MOL0     C32309   8.752   9.570   4.267  0.3560  0.0001  0.3325
 1003MOL0     C32310   8.844   9.465   4.284 -0.2461 -1.0618  0.1206
 1003MOL0     O32311   8.969   9.353   4.598 -0.3875  0.0688  0.7090
 1003MOL0     C32312   9.097   9.105   4.624 -0.6202  0.8997 -0.0532
 1003MOL0     C32313   9.163   8.983   4.635 -0.2428 -0.3310  0.4852
 1003MOL0     N32314   9.951   8.775   4.536  0.4024 -0.4767  0.1661
 1003MOL0     N32315  10.050   8.709   4.537 -0.3264  0.4689  0.2568
 1003MOL0     C32316  11.169   8.408   4.049  0.7987 -0.4050 -0.2079
 1003MOL0     C32317  11.231   8.524   4.013 -0.0717 -1.2615 -0.5533
 1003MOL0     C32318  11.284   8.914   3.766  0.6964 -0.5538  0.2686
 1003MOL0     C32319  11.429   8.908   3.784  0.5081 -0.3393  0.0488
 1003MOL0     C32320  11.513   9.002   3.733 -0.2162 -0.8008 -0.3044
 1003MOL0     C32321  11.462   9.107   3.648 -0.3004  0.4942 -0.6095
 1003MOL0     O32322  11.544   9.199   3.594  0.0019 -0.1671  0.4826
 1003MOL0     C32323  11.688   9.195   3.634 -0.2790 -0.3757 -0.2791
 1003MOL0     C32324  11.747   9.323   3.578  0.7641 -0.7983  0.1303
 1003MOL0     C32325  11.902   9.306   3.570 -0.2527 -0.3954 -0.1721
 1003MOL0     C32326  11.981   9.266   3.699  0.1294 -0.5804 -0.0656
 1003MOL0     C32327  11.971   9.121   3.736 -0.4448 -0.7924  0.0547
 1003MOL0     C32328  11.960   9.001   3.758 -0.1468 -1.0081 -0.7956
 1003MOL0     C32329  11.324   9.099   3.613 -0.6832 -0.2669  0.1672
 1003MOL0     C32330  11.230   9.011   3.672 -0.3681  0.2990  0.3671
 1003MOL0     H32331  11.000   8.644   3.797 -1.2196  0.7402  0.6326
 1003MOL0     H32332  10.897   8.442   3.853  0.1718  4.4683 -3.1385
 1003MOL0     H32333  10.798   8.157   4.058  1.0598  0.0758 -3.3863
 1003MOL0     H32334  10.770   8.303   3.969  2.0487 -1.0278 -0.8889
 1003MOL0     H32335  10.798   8.423   4.177 -0.3905  0.4551  0.3716
 1003MOL0     H32336  10.846   8.270   4.263  3.7985 -0.4147 -2.9603
 1003MOL0     H32337  10.635   8.173   4.258 -4.0387 -0.4213 -0.5510
 1003MOL0     H32338  10.566   8.299   4.158  1.1702  0.4693 -0.9971
 1003MOL0     H32339  10.630   8.295   4.456 -2.7180 -1.3716  0.7033
 1003MOL0     H32340  10.631   8.455   4.375 -3.3096  1.5154  0.9785
 1003MOL0     H32341  10.419   8.384   4.500  2.9827  2.6170 -0.6738
 1003MOL0     H32342  10.382   8.264   4.367  1.1754 -1.6744 -0.2778
 1003MOL0     H32343  10.366   8.427   4.206  0.7582  0.9348 -0.3634
 1003MOL0     H32344  10.468   8.535   4.291  1.5989 -2.7420 -1.3138
 1003MOL0     H32345  10.322   8.608   4.450 -0.4066  0.7263  0.2191
 1003MOL0     H32346  10.255   8.642   4.291  0.2777 -0.7229 -1.1050
 1003MOL0     H32347  10.186   8.473   4.527 -1.6860  4.6593  1.8863
 1003MOL0     H32348  10.109   8.422   4.373 -1.9799  1.6947 -0.3887
 1003MOL0     H32349   9.871   8.551   4.306  0.3624  2.4198 -3.0145
 1003MOL0     H32350   9.663   8.692   4.377 -1.1399 -0.1904  1.6448
 1003MOL0     H32351   9.700   8.857   4.421  2.0749  0.6240 -2.4761
 1003MOL0     H32352   9.732   8.765   4.656  3.5180  0.3193 -1.4241
 1003MOL0     H32353   9.693   8.589   4.603  1.3413 -0.3426 -0.5721
 1003MOL0     H32354   9.478   8.638   4.573  0.8463  0.4302 -1.8576
 1003MOL0     H32355   9.523   8.700   4.737  2.5986  2.7439  0.7627
 1003MOL0     H32356   9.503   8.903   4.509  1.3876  0.2301 -0.0260
 1003MOL0     H32357   9.493   8.913   4.683  1.9246 -3.2813  2.2888
 1003MOL0     H32358   9.370   9.040   4.369 -0.5097  2.6062 -1.8116
 1003MOL0     H32359   9.243   9.235   4.347 -0.4427  0.5337 -0.4459
 1003MOL0     H32360   9.042   9.622   4.528 -0.6064 -0.2572  0.1584
 1003MOL0     H32361   8.878   9.789   4.492  2.6987  0.2511  0.9371
 1003MOL0     H32362   8.508   9.743   4.214  0.5667 -1.0625 -0.9744
 1003MOL0     H32363   8.650   9.753   4.110 -1.3674  2.2977 -1.7361
 1003MOL0     H32364   8.508   9.930   4.054 -1.2611 -0.1411  1.2091
 1003MOL0     H32365   8.652   9.994   4.138  0.6795 -2.0500  0.9629
 1003MOL0     H32366   8.504   9.992   4.345  3.7615 -1.7989 -1.8837
 1003MOL0     H32367   8.373   9.942   4.234  0.5921 -2.0782 -0.1939
 1003MOL0     H32368   8.520  10.202   4.242  0.4840 -1.3008  1.2132
 1003MOL0     H32369   8.416  10.164   4.098 -2.7675  5.2345  0.1665
 1003MOL0     H32370   8.222  10.174   4.205 -1.1464  0.2494  1.3425
 1003MOL0     H32371   8.310  10.326   4.251  0.8955  0.5084  0.4416
 1003MOL0     H32372   8.246  10.081   4.419  0.3167  0.4187  0.7227
 1003MOL0     H32373   8.171  10.245   4.420 -0.3935  0.3920 -3.5769
 1003MOL0     H32374   8.347  10.196   4.603 -2.0076  2.9395  0.8779
 1003MOL0     H32375   8.465  10.231   4.478  0.3179 -0.4961 -0.5856
 1003MOL0     H32376   8.239  10.407   4.581  2.0093 -0.2907  4.3220
 1003MOL0     H32377   8.354  10.446   4.447  3.1524 -2.0405 -1.0635
 1003MOL0     H32378   8.655   9.549   4.222 -1.1064 -0.3443  3.3607
 1003MOL0     H32379   8.826   9.361   4.261  1.7152 -1.8088  1.6184
 1003MOL0     H32380   9.034   9.130   4.710  3.3108  0.2332  3.3494
 1003MOL0     H32381   9.152   8.917   4.721  0.4227  0.3196  1.0935
 1003MOL0     H32382  11.215   8.334   4.113 -0.8226 -0.1699  1.3183
 1003MOL0     H32383  11.336   8.542   4.033 -0.2959 -2.2861  1.9366
 1003MOL0     H32384  11.466   8.829   3.848 -0.4542  1.1325  2.5505
 1003MOL0     H32385  11.614   8.980   3.765 -0.9054 -1.9306  1.2101
 1003MOL0     H32386  11.717   9.105   3.578 -2.5405 -0.7259 -1.0145
 1003MOL0     H32387  11.705   9.187   3.742  1.3507 -0.7544 -0.5385
 1003MOL0     H32388  11.700   9.323   3.479  0.3121 -0.8774  0.3385
 1003MOL0     H32389  11.717   9.419   3.620  0.1689 -1.4806  1.3059
 1003MOL0     H32390  11.940   9.403   3.538  0.2816 -0.7977 -0.7844
 1003MOL0     H32391  11.934   9.232   3.497 -0.0385  1.3760 -1.9539
 1003MOL0     H32392  12.082   9.288   3.665  0.8752 -2.4932  0.7446
 1003MOL0     H32393  11.957   9.332   3.784 -2.0122 -0.9056 -0.3558
 1003MOL0     H32394  11.950   8.896   3.774  0.8100 -0.7348  2.3170
 1003MOL0     H32395  11.279   9.166   3.541 -0.9233 -1.9567 -1.3325
 1003MOL0     H32396  11.128   9.018   3.635  0.2747 -0.6239 -1.6980
 1004MOL0     O32397  10.477   0.206  10.659 -0.5132 -0.8147  0.1853
 1004MOL0     C32398  10.424   0.099  10.684  0.4443  0.1999 -0.9444
 1004MOL0     O32399  10.317   0.037  10.610 -0.5604 -0.5362  0.9026
 1004MOL0     C32400  10.303   0.101  10.488  0.0188 -0.8218  0.6605
 1004MOL0     C32401  10.174   0.161  10.459  0.1581 -0.8678  0.7090
 1004MOL0     C32402  10.161   0.223  10.334  0.2440  0.2975  0.4710
 1004MOL0     C32403  10.265   0.227  10.241 -1.0874 -0.2148  0.0059
 1004MOL0     O32404  10.255   0.288  10.125 -0.1086  0.4518  0.0208
 1004MOL0     C32405  10.204   0.425  10.122  0.3096 -0.4288 -0.2876
 1004MOL0     C32406  10.194   0.474   9.985  0.1710 -0.1721  0.1715
 1004MOL0     C32407  10.174   0.624   9.972  0.0559  0.4660  0.3061
 1004MOL0     C32408  10.130   0.674   9.840 -0.3928  0.2078  0.4851
 1004MOL0     C32409  10.158   0.826   9.837  0.0541  1.0835 -0.3869
 1004MOL0     C32410  10.071   0.902   9.932 -0.7596  0.3023  0.1767
 1004MOL0     C32411  10.039   1.031   9.871  0.2828 -0.5793 -0.2399
 1004MOL0     C32412   9.949   1.122   9.955  0.5447  0.3317 -0.7178
 1004MOL0     N32413   9.915   1.251   9.890 -0.7019 -0.0941  0.0518
 1004MOL0     C32414   9.793   1.277   9.825 -0.1355 -0.2716 -0.4817
 1004MOL0     C32415   9.817   1.396   9.766 -0.7419  0.2689  0.4891
 1004MOL0     C32416   9.732   1.476   9.669  1.0107 -0.3257 -0.3555
 1004MOL0     C32417   9.654   1.590   9.732  0.6484 -0.3380  0.0282
 1004MOL0     C32418   9.596   1.680   9.617  0.2635 -0.2695  0.4166
 1004MOL0     C32419   9.471   1.603   9.558  0.7391 -0.6027  0.5929
 1004MOL0     O32420   9.400   1.685   9.461  0.1055 -0.5997 -0.2408
 1004MOL0     C32421   9.302   1.627   9.383  0.1619 -0.1741 -0.4720
 1004MOL0     C32422   9.248   1.499   9.414 -0.3524  0.3727  0.3818
 1004MOL0     C32423   9.145   1.438   9.339  0.0023 -0.1314 -0.5094
 1004MOL0     C32424   9.101   1.507   9.215 -0.5679 -0.9650  0.0448
 1004MOL0     C32425   9.000   1.450   9.116  0.1717 -0.0089 -0.4325
 1004MOL0     O32426   8.999   1.312   9.113 -0.4625 -0.2406 -0.5590
 1004MOL0     C32427   8.914   1.232   9.033 -1.0876  0.1832 -1.0241
 1004MOL0     C32428   8.799   1.273   8.953 -0.0640 -0.1344  0.3330
 1004MOL0     C32429   8.724   1.180   8.884  0.9892  0.2535 -0.6453
 1004MOL0     C32430   8.753   1.050   8.913  0.7349  1.3881  0.2700
 1004MOL0     O32431   8.670   0.955   8.842  0.6537 -0.4033 -0.1504
 1004MOL0     C32432   8.599   0.855   8.921 -0.0539  1.0566  0.4047
 1004MOL0     C32433   8.500   0.798   8.826  0.0748 -0.0523  0.0460
 1004MOL0     C32434   8.410   0.692   8.895 -0.3787 -0.7437  0.0790
 1004MOL0     C32435   8.335   0.606   8.801 -0.1676 -0.1814  0.0470
 1004MOL0     C32436   8.217   0.546   8.882 -0.1330  0.7632  0.7860
 1004MOL0     C32437   8.261   0.438   8.978 -0.5000 -0.6992 -0.7315
 1004MOL0     C32438   8.130   0.384   9.050  0.1372 -1.0119  0.0229
 1004MOL0     C32439   8.045   0.303   8.951 -0.0599  0.5939  0.1288
 1004MOL0    Cl32440   7.883   0.276   9.026 -0.3601 -0.6618 -0.1827
 1004MOL0     C32441   8.848   1.004   9.005  0.2468  0.8865  0.5384
 1004MOL0     C32442   8.933   1.098   9.058 -0.0400  0.6744 -0.3051
 1004MOL0     O32443   8.941   1.530   9.035  0.5796  0.5672 -0.0660
 1004MOL0     C32444   9.151   1.635   9.191 -0.4001  0.2192 -0.2987
 1004MOL0     C32445   9.254   1.688   9.272 -0.3657  0.0134 -0.0115
 1004MOL0     N32446   9.944   1.441   9.810  0.6484  0.4273 -0.3727
 1004MOL0     N32447  10.009   1.344   9.875  0.2863  0.0047  0.7309
 1004MOL0     C32448  10.383   0.159  10.263 -0.3272 -0.3819 -0.4419
 1004MOL0     C32449  10.400   0.096  10.391  0.5219  0.2892  0.4582
 1004MOL0     C32450  10.471   0.034  10.809  0.5397  1.6089  0.6575
 1004MOL0     C32451  10.590   0.066  10.872  0.8570 -0.2418  0.2021
 1004MOL0     C32452  10.648  -0.013  10.968 -0.4688  0.0381 -0.6360
 1004MOL0     C32453  10.570  -0.120  11.024 -0.5831  0.3748  0.1796
 1004MOL0     O32454  10.612  -0.199  11.127  0.7793  0.3087 -0.3472
 1004MOL0     C32455  10.715  -0.143  11.212  0.1403 -0.6169  0.3860
 1004MOL0     C32456  10.731  -0.225  11.341  0.2455  0.1390 -0.1802
 1004MOL0     C32457  10.810  -0.152  11.448 -0.1808 -0.1159  0.3667
 1004MOL0     C32458  10.885  -0.251  11.542  1.1118  0.2340 -0.8157
 1004MOL0     C32459  10.973  -0.165  11.622 -0.5228  0.1871  0.3688
 1004MOL0     C32460  11.046  -0.087  11.685  0.2004 -0.1888  0.3276
 1004MOL0     C32461  10.453  -0.158  10.960 -0.0665 -0.3293  0.4969
 1004MOL0     C32462  10.407  -0.086  10.856 -0.1211  0.5152 -0.8142
 1004MOL0     H32463  10.098   0.151  10.537 -0.3751 -5.0400 -0.1131
 1004MOL0     H32464  10.077   0.288  10.311 -0.1781 -1.5801 -4.1996
 1004MOL0     H32465  10.276   0.485  10.179 -1.0372  1.4134 -0.4228
 1004MOL0     H32466  10.110   0.439  10.177  2.0391  1.0281  2.5498
 1004MOL0     H32467  10.108   0.422   9.942  1.5316 -2.7152  0.3239
 1004MOL0     H32468  10.282   0.450   9.925  0.6639  0.3367  0.6764
 1004MOL0     H32469  10.273   0.656  10.005 -0.2078 -1.2270  3.0464
 1004MOL0     H32470  10.101   0.668  10.040  2.8968  1.9778  2.6271
 1004MOL0     H32471  10.183   0.620   9.762  0.7716  0.6304  0.9612
 1004MOL0     H32472  10.022   0.654   9.834 -0.1568 -0.6357 -3.5515
 1004MOL0     H32473  10.142   0.856   9.733 -3.1442  0.7927 -0.0791
 1004MOL0     H32474  10.265   0.849   9.840  0.1813  0.4414  0.5266
 1004MOL0     H32475  10.131   0.913  10.022  2.6171  0.9110 -1.9824
 1004MOL0     H32476   9.970   0.862   9.947 -2.0950  3.7341  1.2383
 1004MOL0     H32477  10.132   1.088   9.860 -1.1094  1.5594 -1.5376
 1004MOL0     H32478  10.001   1.021   9.769  2.1644  1.2537 -1.1958
 1004MOL0     H32479  10.011   1.143  10.043  0.3137  2.4640 -1.0102
 1004MOL0     H32480   9.852   1.081   9.984 -0.7242  2.6304 -1.4622
 1004MOL0     H32481   9.702   1.219   9.818 -0.1857 -0.5088  1.6960
 1004MOL0     H32482   9.657   1.410   9.623  0.5263  0.2466 -0.3993
 1004MOL0     H32483   9.791   1.521   9.589  3.4431 -0.6549  1.1461
 1004MOL0     H32484   9.723   1.654   9.788  2.5416 -1.8168 -0.5236
 1004MOL0     H32485   9.579   1.548   9.800  0.5017 -0.3590 -0.1461
 1004MOL0     H32486   9.572   1.777   9.662 -2.8322 -1.2489  1.0859
 1004MOL0     H32487   9.675   1.691   9.542  1.1604 -0.9585  1.2255
 1004MOL0     H32488   9.400   1.572   9.636  0.7896 -0.6639  0.6145
 1004MOL0     H32489   9.516   1.514   9.513  1.5540  0.8614 -1.6346
 1004MOL0     H32490   9.282   1.453   9.506  0.8164 -0.6775 -0.5379
 1004MOL0     H32491   9.104   1.338   9.347 -0.4724 -0.2946 -3.6598
 1004MOL0     H32492   8.774   1.378   8.938  2.8349  0.2767 -2.8746
 1004MOL0     H32493   8.652   1.218   8.812  0.8058  0.0134 -0.5885
 1004MOL0     H32494   8.528   0.889   8.997 -1.4791 -2.1988  0.7027
 1004MOL0     H32495   8.670   0.778   8.953  1.4263  1.2170 -2.2049
 1004MOL0     H32496   8.551   0.760   8.736  1.1377  2.3447 -0.4445
 1004MOL0     H32497   8.429   0.871   8.788 -2.1858 -1.7960  0.7143
 1004MOL0     H32498   8.338   0.745   8.959  0.3223  0.6998 -0.2733
 1004MOL0     H32499   8.482   0.634   8.952  0.1244 -0.8393 -0.6389
 1004MOL0     H32500   8.292   0.657   8.715 -0.2827 -0.0410  0.1870
 1004MOL0     H32501   8.411   0.534   8.768  1.3089  1.3127  0.0820
 1004MOL0     H32502   8.131   0.524   8.818 -3.0880  0.6400  4.4400
 1004MOL0     H32503   8.175   0.621   8.950 -2.4571  0.3980 -0.1595
 1004MOL0     H32504   8.329   0.489   9.047 -2.6897  1.4715  0.0004
 1004MOL0     H32505   8.310   0.353   8.931 -0.5185 -2.0215  1.4702
 1004MOL0     H32506   8.167   0.332   9.138  2.5629  0.0468 -0.3120
 1004MOL0     H32507   8.072   0.473   9.075 -0.1242 -0.0401 -3.5158
 1004MOL0     H32508   8.092   0.205   8.933 -0.6601  0.2621  0.3260
 1004MOL0     H32509   8.028   0.337   8.849 -0.5490 -1.7539 -0.6537
 1004MOL0     H32510   8.868   0.900   9.029  2.2222  0.1743 -3.3030
 1004MOL0     H32511   9.000   1.055   9.132 -1.7140  2.6058  2.4921
 1004MOL0     H32512   9.124   1.692   9.103  2.9777 -2.0454 -3.0431
 1004MOL0     H32513   9.302   1.779   9.235  0.4234  0.0529  1.0510
 1004MOL0     H32514  10.469   0.146  10.199  0.0685 -2.2697  0.4071
 1004MOL0     H32515  10.492   0.039  10.391  1.8274  2.2149 -1.9375
 1004MOL0     H32516  10.632   0.158  10.832 -0.9829  0.0767 -1.1436
 1004MOL0     H32517  10.745   0.018  11.005 -0.5505 -1.0726  0.5793
 1004MOL0     H32518  10.684  -0.043  11.244  0.2550 -1.3692  3.1196
 1004MOL0     H32519  10.806  -0.130  11.152 -0.4476  1.0998 -0.1984
 1004MOL0     H32520  10.630  -0.258  11.366  0.0481  0.2917 -0.7415
 1004MOL0     H32521  10.802  -0.306  11.323  3.4228  1.5150  4.3992
 1004MOL0     H32522  10.750  -0.091  11.515  1.0052  0.4640  0.9203
 1004MOL0     H32523  10.888  -0.094  11.397  1.4967 -2.6502 -0.1687
 1004MOL0     H32524  10.817  -0.296  11.615  2.0503  3.7175  2.5277
 1004MOL0     H32525  10.940  -0.327  11.486  3.1677  0.9074  0.2098
 1004MOL0     H32526  11.105  -0.018  11.741 -0.4934 -0.2612  1.1579
 1004MOL0     H32527  10.411  -0.247  11.006 -2.9560 -0.0427 -1.2886
 1004MOL0     H32528  10.314  -0.119  10.811 -0.5312 -1.1427  1.0931
 1005MOL0     O32529  11.171   2.686  10.897  0.4147 -1.2615  0.0246
 1005MOL0     C32530  11.179   2.793  10.961  0.0127 -0.0003  0.7459
 1005MOL0     O32531  11.248   2.911  10.921  0.4932 -0.5642 -0.3147
 1005MOL0     C32532  11.337   2.899  10.811  0.9073  0.0961  0.2556
 1005MOL0     C32533  11.295   2.853  10.681 -0.1050  0.2044  0.3173
 1005MOL0     C32534  11.378   2.848  10.573  0.0299  0.4459 -0.5127
 1005MOL0     C32535  11.513   2.876  10.583 -0.9834 -0.6084 -0.4185
 1005MOL0     O32536  11.615   2.873  10.482 -0.4569  0.3191  0.8225
 1005MOL0     C32537  11.576   2.860  10.340 -1.1162 -0.5712  0.6957
 1005MOL0     C32538  11.678   2.930  10.252 -0.3917  0.2096  0.8436
 1005MOL0     C32539  11.692   3.082  10.273  0.2421  0.5553  0.2544
 1005MOL0     C32540  11.784   3.149  10.173 -0.4850  0.6799  0.5764
 1005MOL0     C32541  11.767   3.301  10.181  0.2634  1.5711  0.3416
 1005MOL0     C32542  11.879   3.371  10.099 -0.3665  0.5560  1.1228
 1005MOL0     C32543  11.872   3.517  10.103  0.0889 -0.5081 -0.8000
 1005MOL0     C32544  11.881   3.581  10.239  0.0589  0.6943  0.4596
 1005MOL0     N32545  11.921   3.725  10.233 -1.0157 -0.3610 -0.1173
 1005MOL0     C32546  12.051   3.771  10.235  0.3467 -0.6762 -0.8690
 1005MOL0     C32547  12.037   3.898  10.261  0.1150 -0.0970 -0.1957
 1005MOL0     C32548  12.151   3.998  10.285 -0.8696  0.7781 -0.1141
 1005MOL0     C32549  12.158   4.103  10.177  0.2566 -0.1972 -0.2205
 1005MOL0     C32550  12.207   4.055  10.044 -0.6336 -0.3340 -0.3668
 1005MOL0     C32551  12.342   3.990  10.051  0.9151  0.2886 -0.2698
 1005MOL0     O32552  12.400   3.977   9.922 -0.5054 -0.3911 -0.1128
 1005MOL0     C32553  12.402   3.851   9.868 -0.5097  0.0470 -0.0933
 1005MOL0     C32554  12.327   3.741   9.910  0.0744  0.3176  0.4791
 1005MOL0     C32555  12.338   3.619   9.847  0.2972  0.2725  0.0279
 1005MOL0     C32556  12.443   3.599   9.745 -0.2103  0.5722 -0.3745
 1005MOL0     C32557  12.464   3.468   9.678 -0.2062 -0.6919 -0.2894
 1005MOL0     O32558  12.541   3.457   9.565 -0.2904 -0.5333 -0.6011
 1005MOL0     C32559  12.567   3.328   9.516 -0.1000 -0.2439  0.0973
 1005MOL0     C32560  12.689   3.268   9.543  0.0862  0.0042  1.3729
 1005MOL0     C32561  12.721   3.133   9.494 -0.1465 -0.6955  0.4732
 1005MOL0     C32562  12.618   3.068   9.413 -0.3489 -0.5213 -0.0047
 1005MOL0     O32563  12.637   2.941   9.354  0.1660  0.2021 -0.3817
 1005MOL0     C32564  12.777   2.900   9.332 -0.4376  0.7954  0.9592
 1005MOL0     C32565  12.787   2.789   9.216 -0.7252  0.9423 -0.1794
 1005MOL0     C32566  12.751   2.648   9.262  0.3906  0.0625 -0.2457
 1005MOL0     C32567  12.741   2.536   9.156 -0.5978 -0.7668 -0.3733
 1005MOL0     C32568  12.665   2.418   9.216  0.0538  1.2284 -0.8982
 1005MOL0     C32569  12.674   2.305   9.109  0.5084 -0.1397  0.0538
 1005MOL0     C32570  12.604   2.178   9.147 -0.2664  0.4753 -0.7357
 1005MOL0     C32571  12.454   2.197   9.179 -1.0721 -0.5625 -0.2455
 1005MOL0    Cl32572  12.357   2.229   9.028 -0.0701  0.6245 -0.3311
 1005MOL0     C32573  12.486   3.133   9.392 -0.3539 -0.2078 -0.7601
 1005MOL0     C32574  12.469   3.260   9.447  0.5996  0.2901  0.7825
 1005MOL0     O32575  12.417   3.373   9.743 -0.5006  0.3693  0.9870
 1005MOL0     C32576  12.517   3.707   9.703 -0.5562 -0.5897  0.7383
 1005MOL0     C32577  12.503   3.828   9.772 -0.1372 -0.4429  0.4856
 1005MOL0     N32578  11.906   3.940  10.270  0.3941 -0.1978  0.4191
 1005MOL0     N32579  11.836   3.827  10.251 -0.7264 -0.9473  0.1634
 1005MOL0     C32580  11.554   2.921  10.710 -0.3419 -0.1061  0.8985
 1005MOL0     C32581  11.462   2.925  10.822 -0.2968  0.4868  0.2823
 1005MOL0     C32582  11.123   2.797  11.091  0.2193 -0.4461  0.3310
 1005MOL0     C32583  11.122   2.916  11.178  0.0219  0.2770  0.2933
 1005MOL0     C32584  11.067   2.913  11.312 -0.0083  0.6205 -0.3633
 1005MOL0     C32585  10.983   2.806  11.358 -0.2190  1.0922  0.1813
 1005MOL0     O32586  10.900   2.816  11.469  0.4809  0.0710  0.2999
 1005MOL0     C32587  10.895   2.937  11.546 -0.0074 -0.0372 -0.2577
 1005MOL0     C32588  10.786   2.929  11.653 -1.1471  0.2799 -0.1130
 1005MOL0     C32589  10.644   2.940  11.601  0.5027 -0.2630 -0.5208
 1005MOL0     C32590  10.547   2.966  11.720 -0.2857 -0.5754 -0.0721
 1005MOL0     C32591  10.418   3.004  11.654  0.2282  0.7941  0.7322
 1005MOL0     C32592  10.301   3.032  11.622 -0.0418 -0.7037  0.3490
 1005MOL0     C32593  10.980   2.696  11.274 -0.8370  0.4934  0.5818
 1005MOL0     C32594  11.050   2.687  11.148  0.1190  0.2151  0.6126
 1005MOL0     H32595  11.192   2.821  10.673  0.3695 -2.6445  3.1624
 1005MOL0     H32596  11.336   2.808  10.482  0.6048 -0.8295 -0.2369
 1005MOL0     H32597  11.487   2.922  10.329  0.1007  1.4222  1.4822
 1005MOL0     H32598  11.553   2.756  10.315 -0.4210 -1.0590  1.9871
 1005MOL0     H32599  11.648   2.911  10.149  3.2532  2.2680 -0.7819
 1005MOL0     H32600  11.777   2.885  10.265  0.0510  0.7232 -0.6121
 1005MOL0     H32601  11.719   3.109  10.376  0.8709  1.4648 -0.1379
 1005MOL0     H32602  11.591   3.123  10.266 -1.5790 -3.3545  0.9673
 1005MOL0     H32603  11.884   3.117  10.201 -0.2269 -0.6532 -1.6780
 1005MOL0     H32604  11.758   3.113  10.073  2.0225 -1.0535  0.4742
 1005MOL0     H32605  11.790   3.324  10.286 -0.9929 -2.1990  1.6098
 1005MOL0     H32606  11.664   3.336  10.165 -0.1783  0.5428  0.8519
 1005MOL0     H32607  11.870   3.347   9.993  0.6715  3.6172  0.2242
 1005MOL0     H32608  11.978   3.336  10.130  0.4517  1.9970  0.2490
 1005MOL0     H32609  11.949   3.548  10.032  0.6549 -0.1185 -0.0280
 1005MOL0     H32610  11.775   3.546  10.062 -0.9768 -0.3971  1.6189
 1005MOL0     H32611  11.963   3.529  10.290  0.5914  0.8448 -0.2317
 1005MOL0     H32612  11.790   3.561  10.295  1.0027 -1.5317  1.3463
 1005MOL0     H32613  12.137   3.710  10.209  0.7977  0.3246 -1.8502
 1005MOL0     H32614  12.241   3.939  10.302 -0.7349  1.5400  2.1676
 1005MOL0     H32615  12.123   4.058  10.372  3.2047  0.6969  1.4813
 1005MOL0     H32616  12.233   4.174  10.215  1.4795 -0.8225 -1.3547
 1005MOL0     H32617  12.067   4.164  10.175  0.3235 -0.0828  0.0581
 1005MOL0     H32618  12.142   3.986   9.988  1.3283 -1.6420 -1.1539
 1005MOL0     H32619  12.220   4.146   9.984 -1.1557  0.7303  1.0751
 1005MOL0     H32620  12.347   3.898  10.110 -0.4323 -0.0681 -0.6722
 1005MOL0     H32621  12.395   4.064  10.111  1.4771  2.9070 -3.6805
 1005MOL0     H32622  12.247   3.755   9.982  0.9273  3.1680  0.9996
 1005MOL0     H32623  12.258   3.547   9.858 -1.2624  1.5862 -2.1103
 1005MOL0     H32624  12.769   3.330   9.580 -0.4502  2.0426 -0.6078
 1005MOL0     H32625  12.825   3.101   9.496  0.5682  1.1319 -1.9287
 1005MOL0     H32626  12.827   2.862   9.422  0.7524  1.3344  0.5549
 1005MOL0     H32627  12.837   2.983   9.293  0.6155 -0.2776  0.1978
 1005MOL0     H32628  12.888   2.790   9.175 -1.1781  0.3454 -1.3631
 1005MOL0     H32629  12.718   2.817   9.136  1.2592  2.5637 -1.4056
 1005MOL0     H32630  12.657   2.645   9.317 -0.7552 -2.9286 -2.1511
 1005MOL0     H32631  12.812   2.618   9.347 -4.5925 -0.6560  3.5138
 1005MOL0     H32632  12.688   2.580   9.071  0.9590  1.7060 -0.1640
 1005MOL0     H32633  12.843   2.501   9.139 -0.5988 -2.8296  2.9966
 1005MOL0     H32634  12.565   2.457   9.239  0.9184  2.0576  1.8996
 1005MOL0     H32635  12.717   2.384   9.306  1.0290 -2.8326 -2.7386
 1005MOL0     H32636  12.779   2.289   9.082  1.4639  1.7913  2.2421
 1005MOL0     H32637  12.625   2.346   9.021  0.8813  0.3284  0.0611
 1005MOL0     H32638  12.609   2.100   9.070  0.9144 -0.4512  0.2524
 1005MOL0     H32639  12.648   2.134   9.237 -3.6556  2.5161  2.1906
 1005MOL0     H32640  12.444   2.282   9.247 -1.7820  1.8340 -3.1026
 1005MOL0     H32641  12.401   2.114   9.228  0.1008 -0.6519  0.9304
 1005MOL0     H32642  12.395   3.090   9.353 -0.9502 -0.9956  1.3385
 1005MOL0     H32643  12.370   3.305   9.444 -0.0062 -1.0296  0.4129
 1005MOL0     H32644  12.583   3.686   9.619 -3.4613 -2.8295 -1.2075
 1005MOL0     H32645  12.574   3.903   9.741 -0.3957 -1.2073 -2.1485
 1005MOL0     H32646  11.660   2.921  10.732 -0.3676 -1.1377  1.0393
 1005MOL0     H32647  11.506   2.974  10.909  2.0083 -0.3572 -0.3368
 1005MOL0     H32648  11.160   3.009  11.136  1.3000  0.4360  1.6893
 1005MOL0     H32649  11.074   3.008  11.364 -0.4722  1.6428 -2.1218
 1005MOL0     H32650  10.888   3.024  11.480  0.5374  1.9032  2.0741
 1005MOL0     H32651  10.986   2.942  11.608  0.2338 -0.1243 -0.6010
 1005MOL0     H32652  10.804   2.844  11.718  2.8387  2.1241  1.5349
 1005MOL0     H32653  10.798   3.020  11.712  2.8309  0.7013 -1.2684
 1005MOL0     H32654  10.616   2.847  11.551 -0.3578 -1.4809  2.0084
 1005MOL0     H32655  10.644   3.009  11.517  1.4203  1.3191  0.7393
 1005MOL0     H32656  10.534   2.883  11.791 -1.0581 -1.1070 -0.8073
 1005MOL0     H32657  10.602   3.048  11.767  1.1921 -2.4920  1.7228
 1005MOL0     H32658  10.204   3.066  11.594  1.4754  1.7784 -2.4399
 1005MOL0     H32659  10.946   2.596  11.301 -1.5835  0.4420 -0.4814
 1005MOL0     H32660  11.054   2.597  11.087  1.6966  2.1910 -2.4430
 1006MOL0     O32661   3.292  10.517   1.264  0.4692  0.3259  0.2301
 1006MOL0     C32662   3.206  10.472   1.191 -0.0463 -0.2042 -0.4587
 1006MOL0     O32663   3.223  10.442   1.061 -0.0591  0.0119  0.4251
 1006MOL0     C32664   3.343  10.402   1.009 -0.0022 -0.3317 -0.6282
 1006MOL0     C32665   3.342  10.374   0.873  0.6000  0.6752 -0.5481
 1006MOL0     C32666   3.452  10.307   0.813 -1.1822  0.4435  0.7490
 1006MOL0     C32667   3.560  10.250   0.884 -0.6399 -0.1983 -0.8973
 1006MOL0     O32668   3.664  10.197   0.813  0.0251  0.1874 -0.5890
 1006MOL0     C32669   3.764  10.122   0.880  0.6276 -0.7742 -0.2892
 1006MOL0     C32670   3.869  10.083   0.788 -0.0524  0.6632 -0.0190
 1006MOL0     C32671   3.977   9.998   0.850 -0.1988 -0.5163 -0.5277
 1006MOL0     C32672   4.067   9.932   0.737  1.2066 -0.0834 -0.1809
 1006MOL0     C32673   4.166   9.835   0.803 -1.1108 -0.4504  0.0212
 1006MOL0     C32674   4.231   9.746   0.697  0.2446  0.4957 -0.0538
 1006MOL0     C32675   4.359   9.683   0.756  0.3893 -0.3580  0.1377
 1006MOL0     C32676   4.476   9.719   0.667  0.3237 -0.0393  1.0959
 1006MOL0     N32677   4.602   9.667   0.717 -0.2646 -0.5841  0.6208
 1006MOL0     C32678   4.705   9.636   0.632 -0.0163 -0.6294  0.0449
 1006MOL0     C32679   4.810   9.606   0.717 -0.4666  0.2106 -0.1194
 1006MOL0     C32680   4.951   9.574   0.678  0.8365 -0.4256  0.6937
 1006MOL0     C32681   4.993   9.438   0.717  0.5725 -0.1443  0.3854
 1006MOL0     C32682   5.143   9.421   0.683 -0.7683 -0.7785  0.3960
 1006MOL0     C32683   5.210   9.292   0.725 -0.5714  0.0015  0.2769
 1006MOL0     O32684   5.348   9.272   0.679 -0.1816 -0.2544 -0.5270
 1006MOL0     C32685   5.457   9.300   0.758 -0.6402 -0.7966  0.8842
 1006MOL0     C32686   5.576   9.228   0.733  0.5858  0.3682  0.0653
 1006MOL0     C32687   5.687   9.233   0.814 -0.3710  0.8972 -0.0352
 1006MOL0     C32688   5.680   9.323   0.921  0.7802  0.6386 -0.3181
 1006MOL0     C32689   5.802   9.340   1.005  0.2961 -0.2661 -0.7111
 1006MOL0     O32690   5.812   9.467   1.068  0.3401  0.4279 -0.6458
 1006MOL0     C32691   5.897   9.483   1.174 -1.4260 -0.0339  0.1759
 1006MOL0     C32692   5.872   9.406   1.291  0.6817  0.2142 -0.5723
 1006MOL0     C32693   5.957   9.405   1.397 -0.1032  1.1603  0.3094
 1006MOL0     C32694   6.072   9.486   1.391  0.2379  0.0694 -0.4296
 1006MOL0     O32695   6.162   9.494   1.503  0.2965  0.3125 -0.1788
 1006MOL0     C32696   6.231   9.617   1.544  0.1760 -0.3097  0.3543
 1006MOL0     C32697   6.274   9.604   1.688  0.9748  0.5646  0.0738
 1006MOL0     C32698   6.349   9.728   1.726  0.8469 -0.9121  0.5141
 1006MOL0     C32699   6.377   9.739   1.875 -0.6265 -0.6499 -0.2377
 1006MOL0     C32700   6.477   9.628   1.918  0.3679 -0.6451  0.2144
 1006MOL0     C32701   6.549   9.662   2.052  0.3098  0.2025  0.8604
 1006MOL0     C32702   6.605   9.542   2.133  0.0608  0.2291  0.1958
 1006MOL0     C32703   6.664   9.581   2.266 -0.1108 -0.9647 -0.1926
 1006MOL0    Cl32704   6.547   9.654   2.382  0.3541  0.1804  0.0982
 1006MOL0     C32705   6.095   9.570   1.284 -1.0161 -0.7748  0.7245
 1006MOL0     C32706   6.004   9.566   1.170  0.6919 -0.4208  0.0964
 1006MOL0     O32707   5.879   9.243   1.022  0.3231 -0.2569 -0.6064
 1006MOL0     C32708   5.575   9.413   0.931 -0.4741 -0.4818 -1.4459
 1006MOL0     C32709   5.457   9.396   0.854 -0.5832 -0.7625 -0.1986
 1006MOL0     N32710   4.760   9.610   0.848 -0.0022  0.2789 -0.6699
 1006MOL0     N32711   4.636   9.648   0.846 -0.7192  0.0895 -0.8112
 1006MOL0     C32712   3.562  10.281   1.018 -0.0602 -0.5601  0.2287
 1006MOL0     C32713   3.457  10.356   1.077  0.4694  0.2518  0.9333
 1006MOL0     C32714   3.072  10.470   1.258  0.1138  1.2148  0.4876
 1006MOL0     C32715   2.971  10.395   1.185  0.5855 -0.9738 -0.2834
 1006MOL0     C32716   2.850  10.366   1.242 -0.4858  0.4614 -0.3264
 1006MOL0     C32717   2.815  10.419   1.370  0.7089  0.4701  0.8786
 1006MOL0     O32718   2.691  10.389   1.431  0.3054 -0.4250 -0.2383
 1006MOL0     C32719   2.607  10.499   1.470 -0.1024 -0.4520 -1.0254
 1006MOL0     C32720   2.495  10.446   1.550  0.4020 -0.6829 -0.7638
 1006MOL0     C32721   2.404  10.341   1.473 -0.5484 -0.3844 -0.2287
 1006MOL0     C32722   2.256  10.322   1.537 -0.6505  0.8627  0.0899
 1006MOL0     C32723   2.202  10.184   1.509  0.7911 -0.1988  0.4368
 1006MOL0     C32724   2.156  10.067   1.516  0.3772  0.3798  0.0961
 1006MOL0     C32725   2.907  10.499   1.435  0.3897 -0.8708 -0.0539
 1006MOL0     C32726   3.037  10.519   1.388 -0.0421  0.0320 -0.5620
 1006MOL0     H32727   3.255  10.414   0.821  2.5466  4.7613 -1.0759
 1006MOL0     H32728   3.436  10.284   0.708  0.9704  2.9904 -0.2640
 1006MOL0     H32729   3.715  10.030   0.914 -1.2943  0.7181  1.1744
 1006MOL0     H32730   3.806  10.161   0.973 -1.5022 -0.3856  0.5610
 1006MOL0     H32731   3.914  10.166   0.734 -0.3205  0.9125  0.1387
 1006MOL0     H32732   3.817  10.019   0.715 -1.5331 -1.0069  2.3418
 1006MOL0     H32733   3.929   9.917   0.906 -2.5009 -0.5883 -2.4896
 1006MOL0     H32734   4.046  10.065   0.902  0.3051 -0.8419 -0.7634
 1006MOL0     H32735   4.005   9.879   0.664 -0.8090  3.1948 -1.0513
 1006MOL0     H32736   4.118  10.012   0.684  1.2806 -0.2335 -0.3369
 1006MOL0     H32737   4.132   9.774   0.888  0.4887  1.1676  1.9347
 1006MOL0     H32738   4.246   9.904   0.831 -0.2624  0.4971 -4.1001
 1006MOL0     H32739   4.253   9.803   0.607 -1.0061  0.0283 -0.6867
 1006MOL0     H32740   4.156   9.668   0.675  0.1360 -0.7539  3.9156
 1006MOL0     H32741   4.381   9.728   0.853 -0.3591  0.3710 -0.0255
 1006MOL0     H32742   4.356   9.574   0.765 -0.0683 -0.4255 -0.6976
 1006MOL0     H32743   4.487   9.827   0.654 -1.8586 -0.0854 -2.2089
 1006MOL0     H32744   4.475   9.656   0.577  0.6255  0.9744  0.3728
 1006MOL0     H32745   4.717   9.639   0.524 -3.9128 -3.1593 -0.6557
 1006MOL0     H32746   5.005   9.653   0.730 -1.3141  1.8505 -0.3107
 1006MOL0     H32747   4.963   9.594   0.571 -2.2835 -0.9361  0.1325
 1006MOL0     H32748   4.937   9.364   0.659  2.8427 -1.9370  0.3250
 1006MOL0     H32749   4.972   9.423   0.823 -2.1226 -0.2128 -0.0844
 1006MOL0     H32750   5.160   9.444   0.577 -1.9002 -1.7189 -0.0089
 1006MOL0     H32751   5.193   9.495   0.747 -3.0918  0.0857  1.3063
 1006MOL0     H32752   5.138   9.219   0.687  0.1925  0.3456 -2.0532
 1006MOL0     H32753   5.211   9.314   0.832 -0.1173  4.7342 -0.5125
 1006MOL0     H32754   5.558   9.150   0.660 -1.5455  0.4033  0.4759
 1006MOL0     H32755   5.764   9.159   0.796 -0.2178  1.0655 -0.0750
 1006MOL0     H32756   5.790   9.335   1.289  1.7694 -1.3281 -5.6863
 1006MOL0     H32757   5.951   9.340   1.484  1.4681  0.3534 -0.1610
 1006MOL0     H32758   6.160   9.700   1.543  0.5945  0.0381 -0.6896
 1006MOL0     H32759   6.318   9.649   1.487 -1.5685 -0.6702 -2.7317
 1006MOL0     H32760   6.326   9.509   1.698 -0.5995 -0.5614 -1.6242
 1006MOL0     H32761   6.179   9.591   1.741 -1.3376  2.0641 -3.2983
 1006MOL0     H32762   6.289   9.815   1.696  1.0876 -0.5402  1.0845
 1006MOL0     H32763   6.440   9.733   1.665  0.2821 -2.1607 -0.4688
 1006MOL0     H32764   6.430   9.830   1.906  0.6786 -2.2360  2.5563
 1006MOL0     H32765   6.280   9.742   1.927 -2.0063 -0.3484 -2.6640
 1006MOL0     H32766   6.543   9.600   1.835  0.8802 -0.0532  0.4169
 1006MOL0     H32767   6.408   9.547   1.942 -2.5843 -0.2912 -5.3873
 1006MOL0     H32768   6.477   9.701   2.124 -0.4559 -1.2651  0.9301
 1006MOL0     H32769   6.623   9.740   2.032 -0.6101  1.1697  1.1473
 1006MOL0     H32770   6.522   9.473   2.150 -0.4233  1.0149  1.0449
 1006MOL0     H32771   6.676   9.492   2.066  1.6634  2.1638  0.3472
 1006MOL0     H32772   6.749   9.644   2.239 -0.5654 -0.7493 -1.1727
 1006MOL0     H32773   6.705   9.497   2.324  1.3723  0.6205  1.1751
 1006MOL0     H32774   6.193   9.616   1.279  0.6517 -4.0744 -3.1466
 1006MOL0     H32775   6.016   9.634   1.086  0.2717 -0.8424 -0.3120
 1006MOL0     H32776   5.563   9.482   1.014 -5.3975 -1.0685 -1.3383
 1006MOL0     H32777   5.379   9.472   0.862  2.1444  2.0552  2.5769
 1006MOL0     H32778   3.636  10.254   1.093  0.1701 -0.0745  0.1806
 1006MOL0     H32779   3.457  10.362   1.186  2.4225 -0.8839  1.0355
 1006MOL0     H32780   3.010  10.347   1.095  1.7438 -2.3168  0.8761
 1006MOL0     H32781   2.771  10.302   1.206  0.4753 -1.0510  0.1392
 1006MOL0     H32782   2.581  10.558   1.382  0.5526 -0.1579 -1.0315
 1006MOL0     H32783   2.674  10.556   1.536 -0.1903 -2.1642  0.6387
 1006MOL0     H32784   2.538  10.403   1.641  4.1145  4.3028  0.3296
 1006MOL0     H32785   2.439  10.536   1.575  2.9093  0.4558  1.2321
 1006MOL0     H32786   2.473  10.255   1.471  1.4220  1.0295  1.9946
 1006MOL0     H32787   2.388  10.374   1.370  2.2409  1.2705 -0.2212
 1006MOL0     H32788   2.269  10.334   1.645 -2.3128  0.8726  0.3138
 1006MOL0     H32789   2.192  10.403   1.501  1.1985  1.3050 -2.5036
 1006MOL0     H32790   2.133   9.964   1.537 -0.7853  0.4811 -0.6191
 1006MOL0     H32791   2.879  10.545   1.530 -2.5849 -2.2413 -0.1389
 1006MOL0     H32792   3.106  10.575   1.450 -0.1403  0.9612 -1.2747
 1007MOL0     O32793   8.807   7.592   0.043 -0.0349  0.3203  0.5952
 1007MOL0     C32794   8.851   7.665   0.137 -0.6097 -0.0326  0.8927
 1007MOL0     O32795   8.785   7.738   0.225 -0.3606 -0.1633 -0.9255
 1007MOL0     C32796   8.649   7.750   0.232  0.3236  0.7750  0.2074
 1007MOL0     C32797   8.600   7.868   0.287 -0.3442 -0.6774  0.3689
 1007MOL0     C32798   8.466   7.878   0.327  0.5055  0.6767 -0.9488
 1007MOL0     C32799   8.374   7.771   0.309 -0.2041  0.3859 -0.4060
 1007MOL0     O32800   8.252   7.758   0.367  0.4782  0.2970 -0.9130
 1007MOL0     C32801   8.201   7.848   0.468  1.0653 -0.4241 -0.2110
 1007MOL0     C32802   8.082   7.786   0.545 -0.6441  1.2314 -0.1836
 1007MOL0     C32803   7.963   7.776   0.448  0.2080  0.3407 -0.1994
 1007MOL0     C32804   7.846   7.698   0.505 -0.5970 -0.0930 -0.5572
 1007MOL0     C32805   7.777   7.755   0.629 -0.7110  1.0901 -0.8734
 1007MOL0     C32806   7.729   7.899   0.624 -0.3163  0.7032 -0.2775
 1007MOL0     C32807   7.631   7.912   0.755  0.0300  0.2011 -0.0374
 1007MOL0     C32808   7.559   8.053   0.749 -0.7037  0.2696 -0.4057
 1007MOL0     N32809   7.498   8.077   0.876  0.3239  0.6893 -0.3607
 1007MOL0     C32810   7.510   8.188   0.959  0.0989 -0.5680 -0.3768
 1007MOL0     C32811   7.444   8.161   1.073  0.3328  0.1571  0.1755
 1007MOL0     C32812   7.449   8.251   1.193  0.3490  0.5019  0.0376
 1007MOL0     C32813   7.345   8.218   1.298  0.1614 -0.0919  0.0936
 1007MOL0     C32814   7.202   8.233   1.262  0.5325 -0.4356 -0.1957
 1007MOL0     C32815   7.102   8.161   1.355  0.1588 -0.1087 -1.1680
 1007MOL0     O32816   7.130   8.213   1.489 -1.4354  0.8378 -0.0673
 1007MOL0     C32817   7.085   8.140   1.598 -0.5134 -0.6739 -0.0418
 1007MOL0     C32818   6.982   8.056   1.587 -0.2372  0.6236 -0.9250
 1007MOL0     C32819   6.926   8.004   1.700  0.7986 -0.1339 -0.6236
 1007MOL0     C32820   6.980   8.031   1.832  0.1555  0.5575  0.7011
 1007MOL0     C32821   6.930   7.967   1.951  0.7674  0.0611 -0.3917
 1007MOL0     O32822   6.978   8.007   2.068  0.4114 -0.0505 -0.8032
 1007MOL0     C32823   6.941   7.976   2.197 -0.0016 -0.2725  0.6543
 1007MOL0     C32824   6.848   8.048   2.282  0.5165 -0.3323 -0.0356
 1007MOL0     C32825   6.827   8.019   2.414 -0.3183 -0.0432 -0.7958
 1007MOL0     C32826   6.898   7.908   2.466 -0.1005  1.1978 -0.3372
 1007MOL0     O32827   6.893   7.879   2.596  0.2069 -0.2856 -0.2135
 1007MOL0     C32828   6.827   7.962   2.692 -0.0199  0.0772  0.2058
 1007MOL0     C32829   6.678   7.928   2.713 -0.0146  0.0009  0.8506
 1007MOL0     C32830   6.617   8.030   2.809 -0.1456 -0.1074  0.2953
 1007MOL0     C32831   6.466   8.039   2.790  0.2296 -0.1622 -0.3466
 1007MOL0     C32832   6.413   8.135   2.888 -0.6351 -1.1767  0.5775
 1007MOL0     C32833   6.265   8.156   2.863 -0.3687 -0.1248  0.6941
 1007MOL0     C32834   6.199   8.276   2.930  0.5034  0.2024  0.4646
 1007MOL0     C32835   6.236   8.399   2.861 -0.8083  0.3752  0.5579
 1007MOL0    Cl32836   6.164   8.541   2.938 -0.3067  0.0100  0.2867
 1007MOL0     C32837   6.988   7.842   2.388 -0.9893 -0.7730  0.1122
 1007MOL0     C32838   7.007   7.867   2.251 -0.0455  0.4507 -0.1499
 1007MOL0     O32839   6.834   7.888   1.940 -0.1827 -0.1434  0.0985
 1007MOL0     C32840   7.085   8.120   1.834 -0.4585 -0.1470 -0.7874
 1007MOL0     C32841   7.140   8.178   1.728  0.4861  0.5706  0.7781
 1007MOL0     N32842   7.392   8.034   1.065 -0.0661 -0.1115 -0.0573
 1007MOL0     N32843   7.418   7.990   0.945 -0.3834 -0.1668  0.0659
 1007MOL0     C32844   8.410   7.662   0.236 -1.0737 -0.4698 -0.0941
 1007MOL0     C32845   8.554   7.643   0.212 -0.2302  0.3102  0.2135
 1007MOL0     C32846   8.996   7.665   0.159 -0.7673 -0.3484  0.2081
 1007MOL0     C32847   9.052   7.751   0.254  0.5885 -0.8097 -0.0932
 1007MOL0     C32848   9.193   7.758   0.275 -0.6171  0.1740 -0.1166
 1007MOL0     C32849   9.277   7.680   0.199  0.1100  0.0812  0.9377
 1007MOL0     O32850   9.413   7.687   0.229 -0.6418  0.4400 -1.1685
 1007MOL0     C32851   9.503   7.580   0.187 -0.3890 -0.4228  0.3786
 1007MOL0     C32852   9.574   7.653   0.073 -1.1569 -0.7774 -0.7104
 1007MOL0     C32853   9.645   7.788   0.099  0.7619 -0.3130 -0.0584
 1007MOL0     C32854   9.769   7.778   0.184 -0.3040 -0.4221  0.2605
 1007MOL0     C32855   9.721   7.781   0.325 -0.3394  0.4365  0.9029
 1007MOL0     C32856   9.699   7.772   0.445  1.0981 -0.4552 -0.4594
 1007MOL0     C32857   9.224   7.594   0.102  0.9652 -0.1702  0.3307
 1007MOL0     C32858   9.088   7.591   0.084 -0.0992  0.7317 -0.0266
 1007MOL0     H32859   8.671   7.950   0.297 -2.0000  0.8851 -0.1731
 1007MOL0     H32860   8.438   7.972   0.373  0.6042 -1.2677  3.6430
 1007MOL0     H32861   8.172   7.944   0.425  0.2078 -1.0759 -1.1115
 1007MOL0     H32862   8.276   7.875   0.543  0.9796 -0.4219 -0.1257
 1007MOL0     H32863   8.051   7.847   0.630 -0.4306 -0.5589  1.2519
 1007MOL0     H32864   8.106   7.683   0.574  3.0927  2.1368  0.4806
 1007MOL0     H32865   7.988   7.729   0.352 -1.2808  0.7427 -0.8267
 1007MOL0     H32866   7.930   7.879   0.432  2.5432  0.9466 -1.6153
 1007MOL0     H32867   7.771   7.695   0.425 -0.2689 -0.5541 -0.8546
 1007MOL0     H32868   7.880   7.597   0.529 -1.0560 -0.1871 -0.2779
 1007MOL0     H32869   7.854   7.753   0.706  0.2957 -2.8005 -1.7880
 1007MOL0     H32870   7.703   7.680   0.659 -0.2060  1.0091  0.2095
 1007MOL0     H32871   7.660   7.917   0.541  0.1902  1.2566 -0.5843
 1007MOL0     H32872   7.816   7.965   0.634  0.8298 -0.8778  0.7120
 1007MOL0     H32873   7.562   7.828   0.772  1.3421 -1.4023 -2.1339
 1007MOL0     H32874   7.701   7.902   0.839 -1.4158  0.1534  1.2038
 1007MOL0     H32875   7.482   8.058   0.671 -2.2507 -1.3510  0.9228
 1007MOL0     H32876   7.637   8.128   0.735 -2.0472  2.2468  1.8090
 1007MOL0     H32877   7.570   8.277   0.940  1.0863 -1.0839  0.2569
 1007MOL0     H32878   7.444   8.352   1.152  1.1150  0.1099 -1.0623
 1007MOL0     H32879   7.547   8.227   1.235  0.5529 -0.6185 -1.0357
 1007MOL0     H32880   7.366   8.285   1.383 -0.4149  1.4497 -0.9445
 1007MOL0     H32881   7.362   8.117   1.336  1.3794 -0.5622 -1.6212
 1007MOL0     H32882   7.173   8.338   1.260  4.6316  1.0350  3.2519
 1007MOL0     H32883   7.184   8.195   1.160  0.0229 -0.9152  0.0701
 1007MOL0     H32884   7.116   8.052   1.350  0.5850 -0.0611 -1.0717
 1007MOL0     H32885   6.999   8.187   1.329 -0.6827 -0.1273  1.8351
 1007MOL0     H32886   6.938   8.016   1.496 -4.1105 -0.4295  1.2147
 1007MOL0     H32887   6.851   7.928   1.680  0.0408  1.1735 -3.1581
 1007MOL0     H32888   6.798   8.134   2.238 -2.1097  0.3013  3.7109
 1007MOL0     H32889   6.766   8.081   2.479  2.1123  0.8824  0.7160
 1007MOL0     H32890   6.841   8.069   2.674  0.8033  0.1295  1.0758
 1007MOL0     H32891   6.876   7.941   2.787  1.1301 -0.3332 -0.4656
 1007MOL0     H32892   6.655   7.825   2.743 -1.4841  0.0786  0.0806
 1007MOL0     H32893   6.625   7.947   2.619 -4.3402  0.6937  3.1613
 1007MOL0     H32894   6.657   8.129   2.788 -0.9656 -0.4300 -3.4149
 1007MOL0     H32895   6.638   8.000   2.912  0.9670  0.2007  0.1718
 1007MOL0     H32896   6.463   8.074   2.687  2.5502 -2.3821 -1.2657
 1007MOL0     H32897   6.411   7.944   2.795 -0.8966  0.5221  1.2155
 1007MOL0     H32898   6.466   8.230   2.883 -0.0808 -1.2330  3.5827
 1007MOL0     H32899   6.428   8.101   2.991  0.1200 -1.3996  0.4030
 1007MOL0     H32900   6.209   8.070   2.900 -0.8260  0.7824  2.2010
 1007MOL0     H32901   6.255   8.160   2.754  2.9599  1.0653  0.3239
 1007MOL0     H32902   6.091   8.275   2.912  1.0396  1.0312 -3.8116
 1007MOL0     H32903   6.215   8.282   3.039 -0.4668 -0.0063  0.6265
 1007MOL0     H32904   6.208   8.405   2.755  0.4601 -2.0858 -0.0080
 1007MOL0     H32905   6.346   8.405   2.859 -0.8140  0.3154 -0.1275
 1007MOL0     H32906   7.049   7.770   2.441  2.5784 -0.5128 -3.1737
 1007MOL0     H32907   7.084   7.814   2.196 -1.2617  1.6337 -3.1847
 1007MOL0     H32908   7.117   8.152   1.932 -0.7699 -1.8479 -0.1000
 1007MOL0     H32909   7.208   8.262   1.732  1.9136 -0.5099 -0.0982
 1007MOL0     H32910   8.339   7.586   0.205  0.5615 -1.2392 -2.2468
 1007MOL0     H32911   8.592   7.547   0.178  0.6633  0.3594  1.0261
 1007MOL0     H32912   8.986   7.819   0.307  2.0888  1.3707 -0.8700
 1007MOL0     H32913   9.244   7.825   0.344  0.5754  0.5839 -1.3628
 1007MOL0     H32914   9.459   7.483   0.164  0.2929 -1.1417  1.9203
 1007MOL0     H32915   9.574   7.555   0.267  0.9790 -0.0973 -0.6933
 1007MOL0     H32916   9.653   7.577   0.060  1.1551  1.0249  1.7376
 1007MOL0     H32917   9.516   7.664  -0.019 -1.6890 -0.8043 -0.3795
 1007MOL0     H32918   9.570   7.860   0.135 -0.2075 -1.5025  0.3643
 1007MOL0     H32919   9.668   7.836   0.004 -1.2346  0.0346 -0.4188
 1007MOL0     H32920   9.823   7.687   0.158 -0.5054 -0.5763  0.3837
 1007MOL0     H32921   9.836   7.864   0.168 -0.4327 -0.4982 -0.7376
 1007MOL0     H32922   9.692   7.765   0.551 -1.1903  3.1000 -0.2049
 1007MOL0     H32923   9.287   7.534   0.036 -0.6020  0.7421 -2.1332
 1007MOL0     H32924   9.050   7.522   0.009 -3.8133  2.9355 -0.4568
 1008MOL0     O32925   5.269   1.729  11.129  0.2033  0.4561 -0.7672
 1008MOL0     C32926   5.290   1.793  11.032 -1.3425 -0.2038 -0.2348
 1008MOL0     O32927   5.195   1.855  10.954 -0.3631  0.6606  0.5254
 1008MOL0     C32928   5.071   1.886  11.013 -1.1910 -0.1546  0.0192
 1008MOL0     C32929   4.957   1.823  10.972  0.0930 -0.4199  0.6077
 1008MOL0     C32930   4.829   1.856  11.022 -0.0569  0.8850  0.3096
 1008MOL0     C32931   4.815   1.958  11.118  0.1787 -0.2731 -0.1708
 1008MOL0     O32932   4.703   1.990  11.191 -0.2813 -0.1382 -0.3659
 1008MOL0     C32933   4.585   2.019  11.111 -0.6666  0.6718 -0.1735
 1008MOL0     C32934   4.463   2.000  11.204 -0.0126  0.1208  0.1634
 1008MOL0     C32935   4.463   2.088  11.338  0.1420 -0.2089  0.6613
 1008MOL0     C32936   4.338   2.045  11.427  0.1098 -0.5886 -0.6878
 1008MOL0     C32937   4.317   2.145  11.536  0.6811 -0.7433 -0.1460
 1008MOL0     C32938   4.164   2.172  11.551  0.3213 -0.2323 -0.2863
 1008MOL0     C32939   4.148   2.241  11.682  0.1197  1.2787  0.5073
 1008MOL0     C32940   4.139   2.140  11.799 -1.2411 -1.2892  0.1860
 1008MOL0     N32941   4.139   2.206  11.932 -0.9860 -0.0679 -0.4633
 1008MOL0     C32942   4.245   2.260  12.006  0.1667  0.7729  0.1697
 1008MOL0     C32943   4.191   2.314  12.118  1.0968 -0.3195  0.1736
 1008MOL0     C32944   4.267   2.375  12.229  0.0201  0.7928  0.8228
 1008MOL0     C32945   4.408   2.356  12.228 -0.7835  0.2676  0.1442
 1008MOL0     C32946   4.488   2.433  12.342  0.1536 -0.5250  0.7058
 1008MOL0     C32947   4.631   2.402  12.346  1.0729  0.1004 -0.9459
 1008MOL0     O32948   4.662   2.268  12.352 -0.2786  0.5931  0.1922
 1008MOL0     C32949   4.619   2.189  12.453  0.3169  0.2982 -0.7279
 1008MOL0     C32950   4.593   2.244  12.579 -0.6472  0.5068  0.7597
 1008MOL0     C32951   4.541   2.169  12.683  0.1918  0.1442 -0.2433
 1008MOL0     C32952   4.513   2.033  12.675 -0.6008 -0.8672 -0.0250
 1008MOL0     C32953   4.463   1.947  12.790 -0.0603  0.4395  0.6848
 1008MOL0     O32954   4.455   1.805  12.770  0.1549  0.0413 -0.2778
 1008MOL0     C32955   4.423   1.731  12.884  0.0135 -0.7122  0.9098
 1008MOL0     C32956   4.513   1.639  12.927 -0.3947  0.4198 -0.3522
 1008MOL0     C32957   4.490   1.557  13.036  0.4122  0.2377  0.9271
 1008MOL0     C32958   4.369   1.575  13.112 -0.3852  0.3606  0.3785
 1008MOL0     O32959   4.346   1.493  13.216 -0.8416 -0.0677 -0.4131
 1008MOL0     C32960   4.215   1.482  13.269 -0.0443 -0.3810 -0.3071
 1008MOL0     C32961   4.162   1.604  13.352  0.4785 -0.5125 -0.2404
 1008MOL0     C32962   4.004   1.581  13.395 -1.1978  0.7163  0.6851
 1008MOL0     C32963   3.977   1.446  13.466 -0.2675 -0.9083  0.1938
 1008MOL0     C32964   3.842   1.438  13.538 -0.1876 -1.4418  0.2181
 1008MOL0     C32965   3.718   1.508  13.473 -0.1959 -0.4715 -0.0463
 1008MOL0     C32966   3.673   1.421  13.354  0.0100  0.8035 -0.6024
 1008MOL0     C32967   3.535   1.453  13.309  0.3504  0.9194  0.0498
 1008MOL0    Cl32968   3.453   1.344  13.186 -0.0850  0.2309  0.2982
 1008MOL0     C32969   4.273   1.660  13.061  0.0660  0.2321 -0.8377
 1008MOL0     C32970   4.294   1.736  12.944 -0.3745  0.1495 -0.8077
 1008MOL0     O32971   4.427   2.000  12.892  0.1013  0.3354  0.5345
 1008MOL0     C32972   4.554   1.977  12.552  0.8718 -0.0408  0.3238
 1008MOL0     C32973   4.580   2.057  12.438 -0.1643  0.3389  0.1463
 1008MOL0     N32974   4.056   2.292  12.113 -0.0114 -0.2651  0.3280
 1008MOL0     N32975   4.028   2.245  11.995  0.1539  0.1794 -0.3763
 1008MOL0     C32976   4.932   2.030  11.146 -0.2804 -0.9269  0.3448
 1008MOL0     C32977   5.055   1.996  11.091 -0.5706  0.2181 -1.1472
 1008MOL0     C32978   5.431   1.793  10.992 -0.4838 -0.2540 -0.0744
 1008MOL0     C32979   5.537   1.762  11.090  0.0244 -1.2639  0.5297
 1008MOL0     C32980   5.665   1.780  11.047 -1.0382 -0.1239  0.1395
 1008MOL0     C32981   5.702   1.820  10.913 -0.1828  1.3798  0.3755
 1008MOL0     O32982   5.831   1.826  10.861  0.7529 -0.2148 -0.0550
 1008MOL0     C32983   5.947   1.819  10.950  0.2085  0.2106  0.4331
 1008MOL0     C32984   6.075   1.860  10.864 -0.1509 -0.1905  0.2181
 1008MOL0     C32985   6.119   1.750  10.764 -0.0161 -0.1195  0.5192
 1008MOL0     C32986   6.255   1.771  10.692 -0.3856  0.8397  0.3990
 1008MOL0     C32987   6.376   1.769  10.778 -0.1233 -0.4781 -1.0648
 1008MOL0     C32988   6.473   1.755  10.849  0.6808 -0.3084  0.1446
 1008MOL0     C32989   5.594   1.835  10.826 -0.1807 -0.9596 -0.1101
 1008MOL0     C32990   5.461   1.817  10.864  0.0238 -0.5230  0.4095
 1008MOL0     H32991   4.969   1.746  10.896  4.9646  2.9349 -2.6463
 1008MOL0     H32992   4.739   1.798  11.001  1.3344 -2.6470  3.0484
 1008MOL0     H32993   4.576   1.955  11.023 -1.1192 -0.9079  0.9652
 1008MOL0     H32994   4.588   2.125  11.085 -1.5051  0.6854 -0.2521
 1008MOL0     H32995   4.470   1.893  11.226 -2.6302 -0.1235  0.1354
 1008MOL0     H32996   4.367   2.013  11.153 -1.3975 -0.7458  2.3780
 1008MOL0     H32997   4.461   2.195  11.314 -0.4011 -0.9612 -3.4413
 1008MOL0     H32998   4.555   2.058  11.388 -1.1436 -2.1405  1.9766
 1008MOL0     H32999   4.248   2.050  11.365 -1.0647  0.5390  1.0216
 1008MOL0     H33000   4.341   1.943  11.468 -0.5734  0.1512  1.3568
 1008MOL0     H33001   4.366   2.242  11.521  0.3221 -0.1820  1.9399
 1008MOL0     H33002   4.354   2.101  11.629 -1.4769 -0.5720  0.8614
 1008MOL0     H33003   4.107   2.080  11.568 -1.0590  0.5531 -0.4545
 1008MOL0     H33004   4.122   2.243  11.478 -0.0940 -0.0989  0.0780
 1008MOL0     H33005   4.230   2.313  11.690  0.5551  0.7275  1.1745
 1008MOL0     H33006   4.060   2.305  11.679 -1.2216 -0.3285  2.5574
 1008MOL0     H33007   4.232   2.084  11.790 -0.8586 -0.4775 -1.4121
 1008MOL0     H33008   4.050   2.077  11.788 -0.8997 -1.4049 -2.6519
 1008MOL0     H33009   4.344   2.280  11.966 -0.8943  1.5371 -2.2523
 1008MOL0     H33010   4.223   2.313  12.308 -1.7560 -0.5182 -1.0793
 1008MOL0     H33011   4.244   2.481  12.240  0.3722  0.7747  1.8359
 1008MOL0     H33012   4.443   2.385  12.129 -1.9646 -0.8121 -0.6315
 1008MOL0     H33013   4.429   2.250  12.242  0.5732  0.6360  1.0194
 1008MOL0     H33014   4.487   2.541  12.326  1.0239 -0.9833 -3.9949
 1008MOL0     H33015   4.436   2.406  12.435 -2.0765  0.3336 -0.2284
 1008MOL0     H33016   4.655   2.448  12.442 -0.7335  0.0600 -0.4351
 1008MOL0     H33017   4.682   2.457  12.266 -2.3508  3.9337 -0.8066
 1008MOL0     H33018   4.602   2.349  12.604 -1.9824  1.6748 -3.0042
 1008MOL0     H33019   4.530   2.233  12.770 -2.2500 -0.7059  0.1483
 1008MOL0     H33020   4.611   1.631  12.879  1.0897  3.2447  1.8654
 1008MOL0     H33021   4.557   1.480  13.073  1.7579  0.6332 -0.5875
 1008MOL0     H33022   4.213   1.400  13.341 -0.8034  1.2006  1.5847
 1008MOL0     H33023   4.148   1.462  13.185  1.0274 -0.3433 -1.1950
 1008MOL0     H33024   4.182   1.696  13.296  0.4824 -0.5801 -0.3490
 1008MOL0     H33025   4.218   1.614  13.445  0.9051  3.4532 -0.7548
 1008MOL0     H33026   3.942   1.578  13.305 -1.6204 -0.3544  0.9925
 1008MOL0     H33027   3.973   1.667  13.455 -2.2363  1.0209 -0.2722
 1008MOL0     H33028   3.965   1.370  13.387  2.6843 -1.3900  0.1221
 1008MOL0     H33029   4.052   1.411  13.537  0.8144  1.8374  0.4995
 1008MOL0     H33030   3.868   1.493  13.629  1.8632 -2.4522  0.3093
 1008MOL0     H33031   3.819   1.332  13.554 -3.3378 -0.7379  1.0349
 1008MOL0     H33032   3.731   1.609  13.434 -2.1018 -0.4099 -0.6703
 1008MOL0     H33033   3.645   1.521  13.554  2.9045  0.5301  2.8064
 1008MOL0     H33034   3.742   1.448  13.273 -0.7351  1.4928 -1.0181
 1008MOL0     H33035   3.673   1.317  13.387 -1.7067  0.9738  0.0182
 1008MOL0     H33036   3.530   1.555  13.272  0.1958  1.9399  2.6666
 1008MOL0     H33037   3.473   1.457  13.399  0.4079 -0.2607  0.1628
 1008MOL0     H33038   4.175   1.669  13.105  0.6807  0.7909  0.4778
 1008MOL0     H33039   4.217   1.800  12.905  0.0070  1.7635  0.9455
 1008MOL0     H33040   4.546   1.870  12.537  0.0034  0.1616 -0.7225
 1008MOL0     H33041   4.590   2.004  12.345  2.3081  1.6655 -0.4496
 1008MOL0     H33042   4.936   2.123  11.203  1.7601 -0.5760 -0.2824
 1008MOL0     H33043   5.150   2.042  11.117 -1.1544  1.4136 -1.0534
 1008MOL0     H33044   5.531   1.751  11.198  0.6553 -0.3862  0.6651
 1008MOL0     H33045   5.740   1.747  11.119  0.4852 -1.9751 -2.1369
 1008MOL0     H33046   5.944   1.714  10.979  1.3397 -0.3535 -1.3608
 1008MOL0     H33047   5.926   1.876  11.041  0.3484 -1.5787  1.6346
 1008MOL0     H33048   6.047   1.955  10.818 -4.3153  1.0222  4.4483
 1008MOL0     H33049   6.150   1.892  10.937 -1.1575  1.6862  0.4964
 1008MOL0     H33050   6.044   1.750  10.684  1.9692  0.5114 -1.4486
 1008MOL0     H33051   6.124   1.649  10.805  0.5045 -0.3407 -0.0637
 1008MOL0     H33052   6.269   1.694  10.615  0.3610  0.2399  1.1222
 1008MOL0     H33053   6.254   1.858  10.625 -0.8239  0.3075 -0.2965
 1008MOL0     H33054   6.557   1.744  10.914  1.6655 -1.8883 -1.3414
 1008MOL0     H33055   5.626   1.887  10.737  2.4921 -0.7636  0.8833
 1008MOL0     H33056   5.382   1.824  10.790  0.0289  0.1845  0.4565
 1009MOL0     O33057   2.262   4.089   3.857 -1.0521  0.1291  0.1662
 1009MOL0     C33058   2.244   4.201   3.896  0.5742 -0.1785  1.0202
 1009MOL0     O33059   2.338   4.292   3.940  0.1961 -0.2438 -0.2014
 1009MOL0     C33060   2.469   4.270   3.936  0.5138  0.2024 -0.6773
 1009MOL0     C33061   2.547   4.314   4.043  0.2666 -0.3380 -0.8319
 1009MOL0     C33062   2.688   4.300   4.050  0.9892 -0.1331 -0.3850
 1009MOL0     C33063   2.739   4.223   3.950 -0.5192 -0.0467  0.1526
 1009MOL0     O33064   2.873   4.185   3.940  0.1178 -0.3525 -0.6261
 1009MOL0     C33065   2.935   4.143   4.056  0.2703  0.4657  0.0197
 1009MOL0     C33066   3.056   4.059   4.032  0.0063  1.0997 -0.7796
 1009MOL0     C33067   3.098   3.979   4.155  1.0567  0.1792  0.4883
 1009MOL0     C33068   3.102   4.052   4.293  0.1033  0.6064  0.2293
 1009MOL0     C33069   3.163   3.960   4.403  0.1004 -0.4141  0.1521
 1009MOL0     C33070   3.309   3.935   4.376 -0.1328 -0.3147  0.1276
 1009MOL0     C33071   3.396   3.941   4.509 -0.3644  0.6577 -0.3324
 1009MOL0     C33072   3.552   3.915   4.491  0.1166 -0.5623 -0.1240
 1009MOL0     N33073   3.591   3.775   4.456  0.3768 -0.2916 -0.0417
 1009MOL0     C33074   3.634   3.675   4.543 -0.0312  0.1125  1.1256
 1009MOL0     C33075   3.626   3.559   4.475 -0.1875 -0.6827 -0.0398
 1009MOL0     C33076   3.660   3.431   4.532 -0.0856 -0.3314 -0.0529
 1009MOL0     C33077   3.536   3.364   4.603 -0.3719 -0.7262 -0.2086
 1009MOL0     C33078   3.420   3.310   4.508 -0.6516  0.0078  0.0723
 1009MOL0     C33079   3.309   3.241   4.579 -0.2885 -0.8942  0.2770
 1009MOL0     O33080   3.217   3.201   4.477  0.3451  0.0825 -0.8989
 1009MOL0     C33081   3.111   3.127   4.531 -0.0841 -0.5260  0.0916
 1009MOL0     C33082   3.062   3.113   4.664 -0.0560  0.9413  0.6490
 1009MOL0     C33083   2.951   3.022   4.690 -0.7971 -0.2189 -0.1465
 1009MOL0     C33084   2.888   2.967   4.581 -0.7194  0.1508 -0.7657
 1009MOL0     C33085   2.773   2.879   4.608  0.2318  0.3106 -0.5785
 1009MOL0     O33086   2.766   2.815   4.727 -0.1324 -0.8460  0.1198
 1009MOL0     C33087   2.658   2.743   4.769 -0.4798 -0.6884 -0.0220
 1009MOL0     C33088   2.663   2.608   4.757 -0.2281 -0.2717  0.1575
 1009MOL0     C33089   2.561   2.530   4.820 -0.2570 -0.5217  0.4310
 1009MOL0     C33090   2.451   2.600   4.889  0.6659  0.1466  0.2135
 1009MOL0     O33091   2.368   2.507   4.943  0.0584  0.5450 -0.4228
 1009MOL0     C33092   2.269   2.550   5.039  0.3657  0.2034 -1.3153
 1009MOL0     C33093   2.224   2.427   5.120  0.0084  0.4714  0.0357
 1009MOL0     C33094   2.073   2.391   5.101 -0.3573  0.0793  0.8779
 1009MOL0     C33095   2.025   2.270   5.192  0.7401 -0.3342 -0.1053
 1009MOL0     C33096   1.890   2.209   5.152  0.1417 -0.8534  0.6091
 1009MOL0     C33097   1.772   2.295   5.189  0.3254 -1.1411 -0.0950
 1009MOL0     C33098   1.643   2.258   5.129  0.9168  0.2114  1.0396
 1009MOL0     C33099   1.595   2.123   5.164  0.4046 -0.3210 -0.8219
 1009MOL0    Cl33100   1.572   2.114   5.338  0.0222 -0.0683 -0.2849
 1009MOL0     C33101   2.452   2.737   4.894  0.7221  0.0618 -0.0810
 1009MOL0     C33102   2.556   2.809   4.837  1.4782 -0.3538  0.5966
 1009MOL0     O33103   2.701   2.853   4.509 -0.6056 -1.0884 -0.2843
 1009MOL0     C33104   2.935   2.992   4.450 -0.7345 -0.7932  0.6540
 1009MOL0     C33105   3.048   3.061   4.432  0.8519  0.4072  0.7269
 1009MOL0     N33106   3.592   3.594   4.340 -0.2149  0.3276 -0.1670
 1009MOL0     N33107   3.578   3.724   4.331  0.0225  0.6902  0.4851
 1009MOL0     C33108   2.663   4.164   3.845 -0.9337 -0.0528  0.0665
 1009MOL0     C33109   2.530   4.188   3.842 -1.1843 -0.7942 -0.2616
 1009MOL0     C33110   2.101   4.244   3.902  0.0076  0.1928 -0.0908
 1009MOL0     C33111   2.007   4.186   3.812  0.2834  0.2982  0.2384
 1009MOL0     C33112   1.875   4.226   3.808 -0.2641  0.1656 -0.5009
 1009MOL0     C33113   1.839   4.331   3.894  0.0188 -0.3154 -0.8743
 1009MOL0     O33114   1.714   4.374   3.904  0.5165  0.5203 -0.1343
 1009MOL0     C33115   1.660   4.458   3.805  0.6785 -0.1627  0.0332
 1009MOL0     C33116   1.613   4.592   3.864 -0.0094 -0.8051 -0.7787
 1009MOL0     C33117   1.508   4.590   3.979  0.3495  0.3043  0.8543
 1009MOL0     C33118   1.413   4.699   3.995 -0.0098 -0.0524 -0.3968
 1009MOL0     C33119   1.332   4.727   3.877 -0.1174 -1.2550  0.6567
 1009MOL0     C33120   1.282   4.733   3.764 -0.1229 -0.3738 -0.9709
 1009MOL0     C33121   1.925   4.384   3.991  0.0746 -0.7633 -0.5226
 1009MOL0     C33122   2.059   4.342   3.990 -0.2995  0.1107  0.4779
 1009MOL0     H33123   2.495   4.366   4.123 -2.1625 -0.0725 -2.4940
 1009MOL0     H33124   2.739   4.344   4.135 -1.7847 -0.3699  1.5648
 1009MOL0     H33125   2.860   4.092   4.117 -1.8282  0.4909 -2.3970
 1009MOL0     H33126   2.988   4.216   4.117  2.6725  0.3728 -1.8086
 1009MOL0     H33127   3.147   4.108   3.996  1.5537 -2.0123 -1.4527
 1009MOL0     H33128   3.034   4.001   3.942  0.0850 -0.2451  0.0370
 1009MOL0     H33129   3.192   3.931   4.128  1.5158  1.8262 -1.0373
 1009MOL0     H33130   3.020   3.903   4.163  1.7348 -0.7291 -1.0416
 1009MOL0     H33131   3.154   4.148   4.290  2.4172 -0.5985 -1.2054
 1009MOL0     H33132   3.003   4.076   4.332  0.2965 -0.4294  1.4529
 1009MOL0     H33133   3.114   3.863   4.403  0.6381 -0.6907  0.8536
 1009MOL0     H33134   3.156   4.009   4.501 -1.4661 -1.5051  0.6273
 1009MOL0     H33135   3.357   3.999   4.302 -0.0280 -0.6815 -0.1241
 1009MOL0     H33136   3.329   3.834   4.338  3.7180 -1.5159  4.4624
 1009MOL0     H33137   3.380   4.045   4.541 -0.4232  0.2706  0.9491
 1009MOL0     H33138   3.351   3.867   4.576 -0.1520  0.3107 -0.5701
 1009MOL0     H33139   3.599   3.937   4.588 -2.8542  0.7880  1.1299
 1009MOL0     H33140   3.597   3.980   4.416 -1.1349  1.6332  0.9136
 1009MOL0     H33141   3.677   3.691   4.641  1.5825 -0.2720  0.5102
 1009MOL0     H33142   3.746   3.434   4.599 -0.2162 -1.5252  0.1970
 1009MOL0     H33143   3.698   3.384   4.440  1.8205 -1.1656  1.0974
 1009MOL0     H33144   3.495   3.442   4.668 -1.0022 -0.8426 -0.4692
 1009MOL0     H33145   3.567   3.282   4.669  0.0186  0.6631  1.4070
 1009MOL0     H33146   3.375   3.402   4.469  2.3252  2.4858  1.9663
 1009MOL0     H33147   3.458   3.254   4.423  0.5006  0.5399  0.2139
 1009MOL0     H33148   3.275   3.300   4.664  1.9330  2.2445 -0.8111
 1009MOL0     H33149   3.345   3.148   4.625 -0.5942 -1.5439 -0.7702
 1009MOL0     H33150   3.105   3.159   4.753 -0.5598  1.4756  0.6211
 1009MOL0     H33151   2.913   3.023   4.792  3.0212 -0.0798  1.4541
 1009MOL0     H33152   2.746   2.565   4.702 -0.3747  0.5611 -0.7348
 1009MOL0     H33153   2.566   2.422   4.810  1.1716 -0.3103 -1.7942
 1009MOL0     H33154   2.195   2.585   4.966  0.3438  2.1803 -0.3969
 1009MOL0     H33155   2.303   2.619   5.117  1.6580 -1.4769 -0.3349
 1009MOL0     H33156   2.239   2.441   5.228 -0.7290  3.2796 -0.1606
 1009MOL0     H33157   2.282   2.338   5.094 -0.8399  0.6072 -2.5775
 1009MOL0     H33158   2.053   2.357   4.999 -0.4209  0.9709  0.5826
 1009MOL0     H33159   2.016   2.479   5.131  2.6457  2.2755  0.6861
 1009MOL0     H33160   2.096   2.186   5.188  0.3854 -1.0094  3.9844
 1009MOL0     H33161   2.032   2.312   5.292  0.0888  0.5306 -0.4100
 1009MOL0     H33162   1.877   2.114   5.206  0.5967 -1.8578 -0.9529
 1009MOL0     H33163   1.884   2.190   5.044 -1.3206 -1.0286  0.7020
 1009MOL0     H33164   1.785   2.401   5.163  1.6935 -2.0175 -3.5991
 1009MOL0     H33165   1.751   2.295   5.296 -0.0284  2.1928 -0.0457
 1009MOL0     H33166   1.574   2.339   5.152 -0.6388 -1.0985  1.1890
 1009MOL0     H33167   1.649   2.253   5.020  1.8426  0.4939  1.0658
 1009MOL0     H33168   1.654   2.045   5.116 -2.1029 -0.9262 -3.1365
 1009MOL0     H33169   1.493   2.108   5.126 -0.4490  1.8008  0.4448
 1009MOL0     H33170   2.374   2.775   4.959  1.4173  1.4193  0.0006
 1009MOL0     H33171   2.549   2.917   4.842 -0.7153 -0.3984 -0.1685
 1009MOL0     H33172   2.886   2.950   4.363 -3.0680 -2.1440  2.4770
 1009MOL0     H33173   3.078   3.080   4.329  2.9987  2.9454  1.7044
 1009MOL0     H33174   2.719   4.125   3.761  0.2818 -1.6417  1.5295
 1009MOL0     H33175   2.473   4.163   3.753 -2.6105  3.4547 -0.7413
 1009MOL0     H33176   2.033   4.111   3.737 -0.0106  0.2624  0.1670
 1009MOL0     H33177   1.810   4.176   3.737 -2.0474  1.1660  0.3466
 1009MOL0     H33178   1.582   4.396   3.762  3.3254 -2.1344 -2.3426
 1009MOL0     H33179   1.733   4.476   3.725  0.7658 -3.0540 -0.6344
 1009MOL0     H33180   1.702   4.644   3.899 -0.6092 -0.8349  0.8555
 1009MOL0     H33181   1.575   4.647   3.777  2.0478  0.7054 -0.7908
 1009MOL0     H33182   1.556   4.583   4.077 -0.4780 -3.4761  1.1683
 1009MOL0     H33183   1.455   4.496   3.958  2.2074 -0.3922 -1.1238
 1009MOL0     H33184   1.343   4.653   4.066 -0.7357 -0.6192 -1.4645
 1009MOL0     H33185   1.457   4.794   4.027 -0.5731  0.0711  0.0404
 1009MOL0     H33186   1.234   4.733   3.668 -0.8616 -2.5148 -0.6545
 1009MOL0     H33187   1.885   4.446   4.070 -2.9023 -2.7872 -0.2483
 1009MOL0     H33188   2.126   4.392   4.059  0.2830  2.3438 -1.5561
 1010MOL0     O33189   0.248   1.159   8.645 -0.4814 -0.0934  0.0446
 1010MOL0     C33190   0.305   1.067   8.582 -0.5840  1.6941  0.0455
 1010MOL0     O33191   0.427   1.009   8.618  0.2179 -0.1729  0.1998
 1010MOL0     C33192   0.508   1.088   8.695 -0.4072 -0.3267 -0.2072
 1010MOL0     C33193   0.590   1.017   8.785  0.0607 -0.4120  0.5564
 1010MOL0     C33194   0.705   1.079   8.835  0.4389 -0.7837  0.5056
 1010MOL0     C33195   0.729   1.217   8.817 -0.8946 -0.6515  0.5092
 1010MOL0     O33196   0.843   1.282   8.872  0.1102  0.2139  0.5204
 1010MOL0     C33197   0.817   1.340   8.997  0.2446  0.4559  0.6474
 1010MOL0     C33198   0.938   1.349   9.090  0.3097  0.4698  0.4867
 1010MOL0     C33199   1.000   1.214   9.116  0.6273  0.0042 -0.4193
 1010MOL0     C33200   1.121   1.233   9.210  0.0775  0.6784 -0.5367
 1010MOL0     C33201   1.230   1.125   9.211 -0.5040  1.3812  0.1456
 1010MOL0     C33202   1.334   1.167   9.313  0.8383  0.4470  0.2955
 1010MOL0     C33203   1.466   1.087   9.306  0.1390  0.8204 -0.4593
 1010MOL0     C33204   1.450   0.953   9.367 -0.3444 -0.0849 -0.2148
 1010MOL0     N33205   1.574   0.879   9.376 -1.1334  0.6231 -1.0349
 1010MOL0     C33206   1.673   0.869   9.287 -0.1695 -0.3890 -0.7392
 1010MOL0     C33207   1.764   0.786   9.341  0.9045  0.7946  0.4472
 1010MOL0     C33208   1.882   0.718   9.276  0.5285  0.0970 -0.4270
 1010MOL0     C33209   1.922   0.790   9.149 -0.0505 -1.5263  0.3974
 1010MOL0     C33210   2.011   0.915   9.174  0.6465 -1.4075  0.4388
 1010MOL0     C33211   2.140   0.882   9.241 -0.2039  0.9527 -0.2721
 1010MOL0     O33212   2.222   0.998   9.269  0.8733 -0.3814 -0.3751
 1010MOL0     C33213   2.361   0.982   9.276  0.1252 -0.8116 -0.7456
 1010MOL0     C33214   2.419   1.108   9.291  1.0343 -0.7089  0.0531
 1010MOL0     C33215   2.555   1.112   9.323  0.4782 -0.3558  0.2329
 1010MOL0     C33216   2.633   0.998   9.325  0.5360  0.8407  0.4315
 1010MOL0     C33217   2.774   1.007   9.355 -0.4156  0.0662  0.2794
 1010MOL0     O33218   2.832   1.127   9.330 -0.5961  0.0488  0.5629
 1010MOL0     C33219   2.972   1.130   9.316  0.6072  0.0233 -0.7187
 1010MOL0     C33220   3.050   1.035   9.260 -0.3148 -0.9513  0.0710
 1010MOL0     C33221   3.190   1.052   9.250  0.0421  0.3878 -0.2154
 1010MOL0     C33222   3.253   1.165   9.301 -0.2637 -0.5912  0.5816
 1010MOL0     O33223   3.390   1.171   9.282  0.1913 -0.7882  0.8074
 1010MOL0     C33224   3.461   1.283   9.336  0.1760 -0.6227 -0.0406
 1010MOL0     C33225   3.609   1.292   9.300  0.8365 -0.2895 -0.6350
 1010MOL0     C33226   3.695   1.399   9.375  0.2985  0.4638 -0.3140
 1010MOL0     C33227   3.826   1.411   9.300  0.1148 -0.1842 -0.2363
 1010MOL0     C33228   3.930   1.507   9.369 -0.0822  0.4563  0.0264
 1010MOL0     C33229   4.009   1.437   9.477 -0.8299  0.2086 -0.0921
 1010MOL0     C33230   4.125   1.539   9.523 -1.2805  0.8671 -0.0718
 1010MOL0     C33231   4.183   1.494   9.666  0.3684 -0.0748 -1.0078
 1010MOL0    Cl33232   4.055   1.462   9.787 -0.2794  0.0588 -0.0144
 1010MOL0     C33233   3.174   1.260   9.368 -0.5817 -0.5437 -1.2936
 1010MOL0     C33234   3.030   1.242   9.377 -0.5215  1.0276 -0.1954
 1010MOL0     O33235   2.833   0.905   9.391  0.2750  0.8846  0.0571
 1010MOL0     C33236   2.574   0.876   9.286  0.3737  0.1114 -0.9112
 1010MOL0     C33237   2.431   0.863   9.269  0.3949  0.5368 -0.2516
 1010MOL0     N33238   1.719   0.743   9.469 -1.2863  0.2091 -2.1459
 1010MOL0     N33239   1.610   0.802   9.491 -0.6769 -0.3331 -0.7099
 1010MOL0     C33240   0.643   1.285   8.725 -0.0769 -0.0281 -0.1183
 1010MOL0     C33241   0.534   1.222   8.667 -0.1454 -0.4009  0.2731
 1010MOL0     C33242   0.232   0.997   8.471  1.1111 -0.2957  0.0898
 1010MOL0     C33243   0.281   0.873   8.423  0.5459 -0.1697  0.2458
 1010MOL0     C33244   0.208   0.803   8.326 -0.2480  0.0073 -0.5318
 1010MOL0     C33245   0.105   0.863   8.251 -0.1899 -0.2005 -0.6952
 1010MOL0     O33246   0.025   0.809   8.158 -0.3501 -0.1850  0.4946
 1010MOL0     C33247   0.035   0.665   8.132 -0.0180  0.2572 -0.2562
 1010MOL0     C33248  -0.080   0.647   8.033 -0.4847  0.6687  0.5554
 1010MOL0     C33249  -0.069   0.501   7.979  0.3464 -0.3979  0.5640
 1010MOL0     C33250  -0.203   0.463   7.931  0.4293  0.2604 -0.1775
 1010MOL0     C33251  -0.271   0.561   7.843 -0.1175 -1.1109  0.6692
 1010MOL0     C33252  -0.328   0.648   7.771  0.0968  0.8480  0.1885
 1010MOL0     C33253   0.071   0.992   8.288 -0.2847 -0.2495  0.1477
 1010MOL0     C33254   0.129   1.058   8.395  0.1024  0.3871  0.4077
 1010MOL0     H33255   0.579   0.909   8.791 -0.6325 -1.0162 -5.1829
 1010MOL0     H33256   0.782   1.025   8.889  1.6689 -0.4421 -0.8634
 1010MOL0     H33257   0.741   1.281   9.049 -0.7388  0.4659 -0.7276
 1010MOL0     H33258   0.780   1.441   8.977 -3.1652 -0.6087  0.8587
 1010MOL0     H33259   0.902   1.397   9.181  1.6707  1.3657  0.5805
 1010MOL0     H33260   1.019   1.403   9.041  0.9169 -1.3020 -0.5604
 1010MOL0     H33261   1.022   1.171   9.018  1.2200  0.1032 -0.3310
 1010MOL0     H33262   0.930   1.144   9.163  1.4968 -1.7001 -1.5702
 1010MOL0     H33263   1.173   1.327   9.184  0.2033  0.7903  0.0932
 1010MOL0     H33264   1.087   1.258   9.311 -0.4131 -0.3095 -0.4538
 1010MOL0     H33265   1.263   1.127   9.107  0.5320 -2.7390  0.2563
 1010MOL0     H33266   1.191   1.027   9.237  2.6677 -0.3358 -1.1040
 1010MOL0     H33267   1.290   1.167   9.413  1.1979  1.4445  0.4661
 1010MOL0     H33268   1.353   1.273   9.292 -0.1378  0.3765 -1.0189
 1010MOL0     H33269   1.490   1.077   9.199  0.6872  1.6024 -0.4239
 1010MOL0     H33270   1.545   1.141   9.359  0.8816  1.7388 -2.4048
 1010MOL0     H33271   1.390   0.884   9.307  0.5827 -2.0373  1.0018
 1010MOL0     H33272   1.410   0.967   9.468 -1.2808  0.0485 -0.5938
 1010MOL0     H33273   1.670   0.912   9.187  0.5723  1.0932 -0.1617
 1010MOL0     H33274   1.859   0.614   9.253  1.8575 -0.1699 -0.5937
 1010MOL0     H33275   1.961   0.720   9.351 -0.4070  0.2297  0.5804
 1010MOL0     H33276   1.838   0.817   9.086 -0.0805 -0.5212  0.8586
 1010MOL0     H33277   1.988   0.725   9.091 -1.4714 -2.2318 -0.4819
 1010MOL0     H33278   2.044   0.957   9.078  0.4362  0.4586  1.1401
 1010MOL0     H33279   1.957   0.995   9.225 -0.5066 -1.3665 -0.7851
 1010MOL0     H33280   2.184   0.813   9.169 -2.1711  0.7941 -1.3684
 1010MOL0     H33281   2.121   0.835   9.338 -3.3130  0.5842 -0.9612
 1010MOL0     H33282   2.362   1.200   9.294 -1.0147 -1.9164  1.5308
 1010MOL0     H33283   2.601   1.210   9.327  1.1605 -0.6516 -0.2376
 1010MOL0     H33284   3.011   0.950   9.204  1.0690 -1.2733 -0.4552
 1010MOL0     H33285   3.258   0.987   9.197  2.6787  0.6129  2.6201
 1010MOL0     H33286   3.453   1.270   9.444 -1.1546  0.1870 -0.0170
 1010MOL0     H33287   3.413   1.379   9.313 -0.5851 -1.0708 -0.3431
 1010MOL0     H33288   3.603   1.321   9.195  0.8404 -0.6472 -0.7338
 1010MOL0     H33289   3.647   1.190   9.315  2.7230  0.2213 -1.6654
 1010MOL0     H33290   3.699   1.357   9.476  0.4123 -1.6748 -1.1438
 1010MOL0     H33291   3.637   1.491   9.382 -0.8197 -0.3382  4.2482
 1010MOL0     H33292   3.866   1.310   9.285 -3.1628 -1.3705 -2.1649
 1010MOL0     H33293   3.809   1.437   9.195  1.2699 -2.3027 -1.0295
 1010MOL0     H33294   3.888   1.599   9.411  4.0916  1.3786  2.7892
 1010MOL0     H33295   4.002   1.543   9.294  1.8907 -0.6760  1.2837
 1010MOL0     H33296   4.051   1.344   9.439  1.5476  1.3850 -0.5651
 1010MOL0     H33297   3.943   1.413   9.561 -0.0189  1.0467  0.8009
 1010MOL0     H33298   4.201   1.557   9.447  0.2741  1.1445  1.4906
 1010MOL0     H33299   4.078   1.636   9.543 -1.0703  1.3738 -1.8865
 1010MOL0     H33300   4.244   1.577   9.703  1.3253 -1.0666 -0.2742
 1010MOL0     H33301   4.237   1.401   9.643 -1.9462 -2.0128  0.9426
 1010MOL0     H33302   3.209   1.356   9.404  2.6287 -1.5454 -1.4396
 1010MOL0     H33303   2.955   1.303   9.425 -4.4991 -3.3998 -0.0569
 1010MOL0     H33304   2.631   0.785   9.274  1.6971  0.9105 -0.8234
 1010MOL0     H33305   2.394   0.761   9.272  2.1331 -0.1577 -0.7698
 1010MOL0     H33306   0.656   1.392   8.715 -4.0995  1.0022  2.9850
 1010MOL0     H33307   0.482   1.268   8.583  2.4135 -3.4434 -3.3130
 1010MOL0     H33308   0.367   0.824   8.469  0.4355 -0.8180 -0.2263
 1010MOL0     H33309   0.240   0.701   8.305  2.0940 -0.3823  3.8600
 1010MOL0     H33310   0.030   0.617   8.230 -0.0575  0.0049 -0.3822
 1010MOL0     H33311   0.134   0.638   8.094 -0.5203 -0.0205 -1.3931
 1010MOL0     H33312  -0.180   0.673   8.070 -0.3585 -1.1553  2.3484
 1010MOL0     H33313  -0.078   0.710   7.943  1.0156 -2.4759 -1.8214
 1010MOL0     H33314  -0.033   0.434   8.057 -0.0617  0.1740  1.2599
 1010MOL0     H33315   0.012   0.507   7.906  0.3320 -1.8205  0.4081
 1010MOL0     H33316  -0.195   0.366   7.881  0.9785 -0.4406  1.1931
 1010MOL0     H33317  -0.274   0.449   8.014 -0.0505 -0.8193 -0.7459
 1010MOL0     H33318  -0.392   0.724   7.732 -2.2400 -0.9908  0.2386
 1010MOL0     H33319  -0.011   1.033   8.230 -1.3161 -1.6356  0.5599
 1010MOL0     H33320   0.080   1.153   8.414 -1.4551  0.3757 -2.7344
 1011MOL0     O33321   8.698  11.293   3.310 -0.1813  0.7575  0.5343
 1011MOL0     C33322   8.629  11.393   3.305 -0.0459 -0.0571 -0.4592
 1011MOL0     O33323   8.665  11.516   3.338 -0.6159  0.6303  0.3630
 1011MOL0     C33324   8.800  11.537   3.353  0.5300  0.0499 -0.9552
 1011MOL0     C33325   8.831  11.582   3.483 -0.0909  0.3265 -0.6954
 1011MOL0     C33326   8.960  11.627   3.517  0.5943  0.1624  0.6096
 1011MOL0     C33327   9.057  11.620   3.415  1.3983  0.3442 -0.1215
 1011MOL0     O33328   9.180  11.671   3.424  0.2089  0.0427  0.1265
 1011MOL0     C33329   9.207  11.757   3.541  0.0902 -0.6066 -0.0393
 1011MOL0     C33330   9.334  11.825   3.529 -0.4771  0.8837  0.4600
 1011MOL0     C33331   9.340  11.954   3.612  0.2060  0.2953 -0.2190
 1011MOL0     C33332   9.306  12.081   3.541  0.3466 -0.6701 -0.3032
 1011MOL0     C33333   9.303  12.211   3.618  0.0134 -1.1365  0.0517
 1011MOL0     C33334   9.431  12.267   3.685 -0.4536 -0.1669 -0.5677
 1011MOL0     C33335   9.424  12.415   3.741  0.0485 -0.3657  0.2501
 1011MOL0     C33336   9.557  12.454   3.810 -0.2454  0.7850  0.8309
 1011MOL0     N33337   9.673  12.441   3.724  0.3592  0.4377  0.2355
 1011MOL0     C33338   9.704  12.544   3.626 -1.1147 -0.0341 -0.3251
 1011MOL0     C33339   9.841  12.520   3.612  1.5778 -0.0911  0.1698
 1011MOL0     C33340   9.929  12.606   3.529  0.1920 -0.3707 -0.4949
 1011MOL0     C33341  10.067  12.599   3.594 -0.5588 -0.5896 -0.2895
 1011MOL0     C33342  10.162  12.706   3.521 -0.4958 -0.4386 -0.1409
 1011MOL0     C33343  10.297  12.665   3.549  0.5985 -0.7487  1.0431
 1011MOL0     O33344  10.373  12.771   3.479  0.2723  0.9587 -0.1499
 1011MOL0     C33345  10.506  12.747   3.480  0.6768  0.4951  0.2116
 1011MOL0     C33346  10.584  12.867   3.452  0.8549  0.0980 -0.6560
 1011MOL0     C33347  10.725  12.860   3.461  0.4373  1.0099  0.5817
 1011MOL0     C33348  10.782  12.743   3.498  0.2133  0.9379 -0.4521
 1011MOL0     C33349  10.924  12.717   3.491  0.0215 -0.2437 -0.1951
 1011MOL0     O33350  10.967  12.592   3.516  0.3888 -0.6840 -0.3307
 1011MOL0     C33351  11.098  12.558   3.557  0.2304 -0.2023  0.1524
 1011MOL0     C33352  11.214  12.631   3.567 -0.5173 -0.9728  0.2459
 1011MOL0     C33353  11.335  12.569   3.605 -1.0058  0.3118  0.0222
 1011MOL0     C33354  11.338  12.435   3.641 -0.1095  0.5473 -0.1098
 1011MOL0     O33355  11.450  12.378   3.694  0.1393  0.0585  0.4136
 1011MOL0     C33356  11.452  12.242   3.737  0.1711 -0.3167  0.6759
 1011MOL0     C33357  11.586  12.179   3.755 -0.5554  0.4449 -0.1044
 1011MOL0     C33358  11.650  12.232   3.880 -0.5252  0.6990 -0.3807
 1011MOL0     C33359  11.787  12.171   3.909  0.3928  0.2216  1.0293
 1011MOL0     C33360  11.900  12.270   3.859  1.6817  0.8729 -0.0237
 1011MOL0     C33361  12.040  12.206   3.865 -0.8967  0.4175  0.7981
 1011MOL0     C33362  12.078  12.100   3.754  0.5412 -0.6446  0.8681
 1011MOL0     C33363  12.088  12.167   3.614  0.2475 -0.0318  0.8211
 1011MOL0    Cl33364  12.173  12.062   3.504  0.4749 -0.0029 -0.1784
 1011MOL0     C33365  11.221  12.361   3.628  0.0876 -0.4581 -0.0277
 1011MOL0     C33366  11.101  12.425   3.590  0.6241  0.2435  0.3639
 1011MOL0     O33367  10.996  12.809   3.466  0.4157  0.2480  0.8284
 1011MOL0     C33368  10.704  12.648   3.555  0.0050  0.2348  0.4787
 1011MOL0     C33369  10.571  12.642   3.540 -0.6916  0.5625  0.1632
 1011MOL0     N33370   9.875  12.413   3.688 -0.6950  1.3863  0.5083
 1011MOL0     N33371   9.779  12.356   3.749  0.3103 -0.4732  0.4519
 1011MOL0     C33372   9.029  11.580   3.285 -0.2559 -0.1339  0.5110
 1011MOL0     C33373   8.894  11.547   3.250  0.4100  0.4558 -0.0751
 1011MOL0     C33374   8.484  11.364   3.282  0.1092 -0.0715 -0.1540
 1011MOL0     C33375   8.441  11.243   3.213  0.2675 -0.4550 -0.2897
 1011MOL0     C33376   8.301  11.209   3.199 -0.1529 -1.1978  1.3825
 1011MOL0     C33377   8.204  11.285   3.275 -0.3703  0.1601 -0.2790
 1011MOL0     O33378   8.072  11.257   3.284  0.6378 -0.1929  0.8703
 1011MOL0     C33379   7.963  11.358   3.277 -0.7251  0.0363 -0.2507
 1011MOL0     C33380   7.829  11.301   3.241 -0.6297 -0.2506  0.2744
 1011MOL0     C33381   7.729  11.411   3.225 -0.2507  0.6551  0.1709
 1011MOL0     C33382   7.624  11.421   3.334  0.8658  0.9537  0.5687
 1011MOL0     C33383   7.507  11.504   3.276  0.0841  0.4770  0.3053
 1011MOL0     C33384   7.415  11.566   3.221  0.5897 -0.6944  0.2307
 1011MOL0     C33385   8.249  11.393   3.347  0.1981 -0.4460 -0.5026
 1011MOL0     C33386   8.381  11.447   3.334 -0.2206 -1.0561 -0.4760
 1011MOL0     H33387   8.765  11.566   3.568  0.5609 -1.9586 -0.5320
 1011MOL0     H33388   8.978  11.668   3.615 -0.4353 -0.0945  0.9152
 1011MOL0     H33389   9.206  11.686   3.624 -1.9544  1.1634  1.5507
 1011MOL0     H33390   9.131  11.835   3.553  0.7366  0.4082 -2.0314
 1011MOL0     H33391   9.362  11.855   3.428 -0.8201 -0.7232 -0.1511
 1011MOL0     H33392   9.405  11.748   3.561 -0.8827 -0.2998 -1.3367
 1011MOL0     H33393   9.439  11.971   3.655 -0.3187 -0.4384  1.3433
 1011MOL0     H33394   9.282  11.935   3.702 -0.2570 -1.0371 -0.7644
 1011MOL0     H33395   9.371  12.096   3.454  0.6085 -0.4854 -0.0788
 1011MOL0     H33396   9.209  12.078   3.490 -0.2387  0.6153  0.6860
 1011MOL0     H33397   9.239  12.192   3.704  0.5337  0.4907  0.8262
 1011MOL0     H33398   9.257  12.287   3.554  0.8901  0.0701  0.8260
 1011MOL0     H33399   9.504  12.277   3.604 -0.3713  0.6824 -0.3940
 1011MOL0     H33400   9.473  12.200   3.761 -0.6763 -1.0003 -1.1700
 1011MOL0     H33401   9.400  12.480   3.657 -0.0188 -2.1482 -1.1763
 1011MOL0     H33402   9.345  12.421   3.816 -1.0008  0.3109 -0.8756
 1011MOL0     H33403   9.578  12.390   3.896  0.1716  0.6330  0.6193
 1011MOL0     H33404   9.556  12.555   3.851  1.6600  1.0512  0.3239
 1011MOL0     H33405   9.649  12.635   3.604  0.7150  0.8431 -1.4813
 1011MOL0     H33406   9.891  12.709   3.526  0.9588  0.0052  1.3399
 1011MOL0     H33407   9.926  12.560   3.430 -1.4261  0.1050 -0.6977
 1011MOL0     H33408  10.111  12.502   3.571 -3.8593 -1.9177 -1.6958
 1011MOL0     H33409  10.062  12.621   3.701 -0.5213  0.4961 -0.4904
 1011MOL0     H33410  10.141  12.691   3.415  0.2877 -3.4153  0.0148
 1011MOL0     H33411  10.144  12.808   3.555  0.2491  0.3802 -2.0786
 1011MOL0     H33412  10.311  12.559   3.525 -0.0142 -1.3811  3.2237
 1011MOL0     H33413  10.320  12.676   3.656 -0.2982  2.0688  1.0443
 1011MOL0     H33414  10.545  12.968   3.443  3.0052  1.2003  1.2902
 1011MOL0     H33415  10.792  12.945   3.447  1.3836  0.0597 -1.0525
 1011MOL0     H33416  11.213  12.737   3.545 -1.6853 -0.9093  0.5278
 1011MOL0     H33417  11.426  12.628   3.611 -0.6514 -0.0371 -1.4613
 1011MOL0     H33418  11.404  12.172   3.668 -1.3243 -0.3187  1.6749
 1011MOL0     H33419  11.391  12.240   3.827 -2.7655  2.2490 -1.0392
 1011MOL0     H33420  11.650  12.201   3.670  0.1175 -2.3435 -0.4255
 1011MOL0     H33421  11.569  12.071   3.763  0.6273  0.1434 -1.3968
 1011MOL0     H33422  11.585  12.193   3.959  1.0659 -2.0477 -0.3252
 1011MOL0     H33423  11.650  12.341   3.874 -0.4269  0.7018 -0.3253
 1011MOL0     H33424  11.787  12.145   4.015 -0.8834 -1.9324  0.5625
 1011MOL0     H33425  11.783  12.079   3.850 -0.1964  1.5841 -1.1854
 1011MOL0     H33426  11.894  12.350   3.935  0.6908 -0.6137  1.5416
 1011MOL0     H33427  11.875  12.301   3.758 -1.9601  0.9710  0.7776
 1011MOL0     H33428  12.059  12.151   3.958  2.6548  0.0979  0.0215
 1011MOL0     H33429  12.109  12.292   3.868 -0.9234  0.4106  2.0788
 1011MOL0     H33430  12.173  12.055   3.784  0.2477 -0.8570  1.5124
 1011MOL0     H33431  12.007  12.018   3.738 -1.3426  1.1438 -0.3722
 1011MOL0     H33432  12.140  12.262   3.626 -1.9000  1.0107  2.3978
 1011MOL0     H33433  11.984  12.182   3.585 -0.2556 -0.1112  2.5095
 1011MOL0     H33434  11.226  12.253   3.628  1.3781 -0.4187 -0.6642
 1011MOL0     H33435  11.007  12.371   3.596  1.5387 -1.4335  0.2311
 1011MOL0     H33436  10.751  12.572   3.616  2.3653  1.0543 -0.2141
 1011MOL0     H33437  10.513  12.566   3.592 -0.7029  1.4785  1.5640
 1011MOL0     H33438   9.094  11.610   3.204 -0.0380 -1.6557  0.0833
 1011MOL0     H33439   8.869  11.526   3.147  0.0600  0.8441 -0.0708
 1011MOL0     H33440   8.510  11.173   3.167  0.7193 -2.3623  2.9953
 1011MOL0     H33441   8.249  11.129   3.147 -1.8073  1.8754 -2.1673
 1011MOL0     H33442   7.992  11.450   3.226  1.4036  0.0465  0.8568
 1011MOL0     H33443   7.958  11.405   3.376  2.2652 -0.2820  0.1549
 1011MOL0     H33444   7.850  11.258   3.143 -1.8977  2.2625 -1.2172
 1011MOL0     H33445   7.805  11.223   3.314  0.4152 -2.1174 -1.2807
 1011MOL0     H33446   7.684  11.371   3.134  1.3576 -4.3612  1.2467
 1011MOL0     H33447   7.777  11.508   3.210 -0.3267  0.3051 -2.7882
 1011MOL0     H33448   7.590  11.320   3.358  1.6098  1.1665  2.6903
 1011MOL0     H33449   7.660  11.474   3.422  1.1436  1.5877  0.0822
 1011MOL0     H33450   7.328  11.623   3.196  1.2899  1.0485  1.5564
 1011MOL0     H33451   8.179  11.457   3.399 -1.7790 -3.7366  1.1927
 1011MOL0     H33452   8.412  11.537   3.387 -2.5307 -0.5077  0.0564
 1012MOL0     O33453   3.469   0.670  10.781 -0.5100  0.3294 -0.0967
 1012MOL0     C33454   3.488   0.782  10.734  0.5345  0.6136 -0.1352
 1012MOL0     O33455   3.394   0.846  10.655 -0.4474 -0.5350 -0.4540
 1012MOL0     C33456   3.264   0.843  10.685  0.0819 -0.5597  0.2125
 1012MOL0     C33457   3.212   0.820  10.808 -0.1848 -0.2439 -0.0343
 1012MOL0     C33458   3.074   0.818  10.829  1.0201 -0.0667 -0.4048
 1012MOL0     C33459   2.986   0.840  10.720 -0.4851 -0.5763  0.4389
 1012MOL0     O33460   2.858   0.801  10.719 -0.2288 -0.7489 -0.1995
 1012MOL0     C33461   2.803   0.719  10.819  0.1464  0.5931 -0.7271
 1012MOL0     C33462   2.670   0.650  10.771  0.0851  0.0295 -0.6249
 1012MOL0     C33463   2.565   0.758  10.735  0.1522 -0.0808  0.5357
 1012MOL0     C33464   2.562   0.798  10.589 -0.0958  0.4988  0.2250
 1012MOL0     C33465   2.434   0.883  10.558 -0.3826 -0.5765  0.0968
 1012MOL0     C33466   2.302   0.789  10.535  0.0602  0.2197 -0.2330
 1012MOL0     C33467   2.196   0.844  10.435  0.1725  0.1286  0.4639
 1012MOL0     C33468   2.090   0.748  10.421 -0.2594  0.4835  0.5748
 1012MOL0     N33469   1.995   0.784  10.314 -0.7479  0.3225 -0.7743
 1012MOL0     C33470   2.018   0.779  10.172  0.6249 -0.4533 -0.6871
 1012MOL0     C33471   1.931   0.871  10.126 -0.0307 -0.5769 -0.0469
 1012MOL0     C33472   1.902   0.927   9.987 -0.4349  0.5561 -0.7703
 1012MOL0     C33473   1.801   0.852   9.897  0.2818 -0.1305  0.7921
 1012MOL0     C33474   1.819   0.887   9.747 -0.1279 -0.3293  0.2756
 1012MOL0     C33475   1.771   1.016   9.701 -0.6867 -0.8299  0.0877
 1012MOL0     O33476   1.836   1.134   9.750 -0.3278  1.1151  0.4692
 1012MOL0     C33477   1.771   1.259   9.729  0.3356  0.5761  0.0516
 1012MOL0     C33478   1.823   1.360   9.812 -0.2461 -0.1035  0.9427
 1012MOL0     C33479   1.773   1.493   9.819 -0.6457 -0.7212 -0.3335
 1012MOL0     C33480   1.664   1.521   9.742  0.4778 -0.4258  0.2563
 1012MOL0     C33481   1.601   1.654   9.754  0.7456 -1.0740  0.2241
 1012MOL0     O33482   1.482   1.665   9.686 -0.7637  0.2191 -0.1762
 1012MOL0     C33483   1.392   1.776   9.696 -0.6095 -0.0595  0.1199
 1012MOL0     C33484   1.292   1.800   9.599 -0.8875  0.3643 -0.0912
 1012MOL0     C33485   1.192   1.893   9.601 -0.9517  0.4728 -0.3294
 1012MOL0     C33486   1.200   1.984   9.708  0.3845  0.0670 -0.3642
 1012MOL0     O33487   1.113   2.093   9.715  0.7029  0.2364 -0.0157
 1012MOL0     C33488   1.096   2.180   9.827 -1.1342 -0.0159 -0.0189
 1012MOL0     C33489   0.990   2.287   9.793 -0.3900 -0.7511  0.7111
 1012MOL0     C33490   0.907   2.327   9.913  0.7314  0.1444  0.3480
 1012MOL0     C33491   0.795   2.433   9.858 -0.4127 -0.2299 -0.8833
 1012MOL0     C33492   0.784   2.555   9.939 -1.2815  0.8901  0.8495
 1012MOL0     C33493   0.749   2.531  10.091 -0.2763  0.5881 -0.0338
 1012MOL0     C33494   0.623   2.458  10.127  0.1112 -0.0108  0.7914
 1012MOL0     C33495   0.495   2.506  10.048  0.0633 -0.4734 -0.9677
 1012MOL0    Cl33496   0.449   2.660  10.120  0.4629  0.0969 -0.6651
 1012MOL0     C33497   1.304   1.973   9.810 -0.5907  0.5528  0.4842
 1012MOL0     C33498   1.391   1.858   9.800  0.4045 -0.0548 -0.1112
 1012MOL0     O33499   1.655   1.736   9.825  0.6458  0.1255  0.6914
 1012MOL0     C33500   1.604   1.414   9.667 -0.5629  0.3392 -0.7659
 1012MOL0     C33501   1.659   1.289   9.660  0.2257 -0.0632 -0.8202
 1012MOL0     N33502   1.834   0.892  10.231  0.7001 -0.1179 -0.1675
 1012MOL0     N33503   1.889   0.858  10.345 -0.4401  0.0031  1.6004
 1012MOL0     C33504   3.047   0.881  10.600  0.7607 -0.5915 -0.6792
 1012MOL0     C33505   3.187   0.869  10.581 -0.1815 -0.4031  0.0498
 1012MOL0     C33506   3.615   0.844  10.771  0.0768  0.3247 -0.2184
 1012MOL0     C33507   3.642   0.978  10.744 -0.2776  0.6025  0.4345
 1012MOL0     C33508   3.763   1.033  10.778 -0.2126  0.9757 -0.0949
 1012MOL0     C33509   3.859   0.959  10.847 -0.3632  1.2321  0.5713
 1012MOL0     O33510   3.973   1.024  10.892  0.4711 -1.3622 -0.3227
 1012MOL0     C33511   4.097   0.970  10.856 -0.0379  0.0080 -0.1285
 1012MOL0     C33512   4.203   1.073  10.866  0.4088 -0.2348 -0.6229
 1012MOL0     C33513   4.211   1.146  11.006  0.7323 -0.0143 -0.3220
 1012MOL0     C33514   4.288   1.084  11.119 -0.2804 -1.0069 -0.0682
 1012MOL0     C33515   4.422   1.043  11.079  0.7363 -0.9869 -0.0071
 1012MOL0     C33516   4.543   1.018  11.076  0.7528  0.6416  0.1740
 1012MOL0     C33517   3.829   0.826  10.884 -0.4137  0.7940  0.3754
 1012MOL0     C33518   3.708   0.774  10.840 -0.1074 -0.6373 -0.7412
 1012MOL0     H33519   3.279   0.782  10.885  1.0565  2.2344  0.2031
 1012MOL0     H33520   3.032   0.777  10.920  0.1128  0.3350 -0.6307
 1012MOL0     H33521   2.795   0.776  10.911 -1.3289  1.9146 -1.6172
 1012MOL0     H33522   2.871   0.637  10.845  1.9948  1.8851 -1.2679
 1012MOL0     H33523   2.629   0.589  10.852 -1.6766  0.2987 -1.2605
 1012MOL0     H33524   2.701   0.585  10.689  1.4849 -1.0525  0.6785
 1012MOL0     H33525   2.573   0.843  10.802 -1.2485 -0.0324  0.6873
 1012MOL0     H33526   2.465   0.716  10.754  0.9319 -1.6457  1.3537
 1012MOL0     H33527   2.653   0.859  10.582 -2.2833  4.2473  1.6604
 1012MOL0     H33528   2.570   0.708  10.528 -0.7249  1.6606 -1.6642
 1012MOL0     H33529   2.452   0.944  10.469  0.2076 -0.7524  0.0956
 1012MOL0     H33530   2.412   0.958  10.635 -1.2825  1.4164 -1.9692
 1012MOL0     H33531   2.262   0.759  10.632  2.4290  1.0349  1.0926
 1012MOL0     H33532   2.335   0.693  10.493  0.8299  1.5646 -2.9420
 1012MOL0     H33533   2.155   0.942  10.461  1.0363  0.4302  0.7278
 1012MOL0     H33534   2.248   0.862  10.340  3.9759 -2.6318  1.7417
 1012MOL0     H33535   2.041   0.735  10.518 -3.4345  2.2697 -0.6236
 1012MOL0     H33536   2.132   0.650  10.396 -1.1222  0.5538 -1.2698
 1012MOL0     H33537   2.098   0.724  10.125  0.2002 -0.2724 -1.6431
 1012MOL0     H33538   1.996   0.926   9.931  2.1341 -3.2207  2.9673
 1012MOL0     H33539   1.864   1.029  10.000  0.9265  0.9178  0.7109
 1012MOL0     H33540   1.697   0.882   9.910 -0.1116 -0.9321 -0.3966
 1012MOL0     H33541   1.807   0.749   9.934  1.2660  0.0734  1.2370
 1012MOL0     H33542   1.924   0.878   9.717 -0.3133 -3.9855  0.2230
 1012MOL0     H33543   1.758   0.810   9.698  0.3507  0.3423 -1.4434
 1012MOL0     H33544   1.664   1.028   9.719 -0.2544  0.9028  1.8846
 1012MOL0     H33545   1.781   1.020   9.592 -0.8698 -2.1560  0.0027
 1012MOL0     H33546   1.911   1.320   9.862  0.5937 -0.1938 -0.5747
 1012MOL0     H33547   1.809   1.562   9.895  0.3963 -0.4405 -1.0501
 1012MOL0     H33548   1.281   1.715   9.533  3.2042  0.2917 -0.9876
 1012MOL0     H33549   1.107   1.889   9.534 -1.0868  0.2278 -0.1469
 1012MOL0     H33550   1.181   2.217   9.886 -1.6798  2.9705 -0.9499
 1012MOL0     H33551   1.050   2.107   9.895 -0.4901  0.3830  0.8767
 1012MOL0     H33552   0.929   2.241   9.715  1.4086 -2.7803  0.4090
 1012MOL0     H33553   1.031   2.373   9.740  3.0982 -2.5638  0.1916
 1012MOL0     H33554   0.972   2.375   9.987  0.1959 -1.0486  1.6312
 1012MOL0     H33555   0.857   2.243   9.961  1.3174 -1.0526 -1.0735
 1012MOL0     H33556   0.811   2.466   9.755 -0.4066  4.9976  0.5427
 1012MOL0     H33557   0.701   2.377   9.870 -0.9403  0.9719  1.0274
 1012MOL0     H33558   0.697   2.612   9.904 -2.3196 -0.5050  1.0689
 1012MOL0     H33559   0.875   2.616   9.938  0.4130 -1.5251 -0.4528
 1012MOL0     H33560   0.746   2.632  10.134 -1.3358  1.6242 -2.3678
 1012MOL0     H33561   0.836   2.479  10.132 -0.7168  0.3104  0.5682
 1012MOL0     H33562   0.645   2.353  10.106 -2.2310  0.1246 -3.6062
 1012MOL0     H33563   0.602   2.461  10.234 -0.0997  0.1885  0.7448
 1012MOL0     H33564   0.426   2.421  10.048 -0.0428 -0.4167  0.3682
 1012MOL0     H33565   0.525   2.525   9.945  2.5316  2.9020  0.1972
 1012MOL0     H33566   1.322   2.032   9.899  1.8792 -0.6034  0.8301
 1012MOL0     H33567   1.439   1.825   9.891 -3.3934 -1.0901  1.6953
 1012MOL0     H33568   1.506   1.431   9.623 -2.1312  0.0872  2.3291
 1012MOL0     H33569   1.586   1.223   9.614 -1.7273 -1.6389  3.8986
 1012MOL0     H33570   2.975   0.904  10.522 -2.8162 -4.1817  1.1849
 1012MOL0     H33571   3.238   0.889  10.487 -2.0522  0.4109 -0.8397
 1012MOL0     H33572   3.568   1.030  10.683 -1.1269 -0.3507  0.6164
 1012MOL0     H33573   3.770   1.137  10.748  1.2970  1.5093  1.8936
 1012MOL0     H33574   4.103   0.922  10.757  0.2934  0.3674 -0.2847
 1012MOL0     H33575   4.109   0.885  10.924 -1.2186 -0.7244 -0.7882
 1012MOL0     H33576   4.296   1.023  10.838  1.6313  1.1613  0.7851
 1012MOL0     H33577   4.178   1.152  10.795  0.7382  0.5149  0.0882
 1012MOL0     H33578   4.107   1.149  11.041  1.0351  0.0163  0.6098
 1012MOL0     H33579   4.241   1.250  10.990  1.4586  0.0242  1.1556
 1012MOL0     H33580   4.294   1.153  11.204 -3.1606 -0.7039 -0.0029
 1012MOL0     H33581   4.225   1.001  11.152  0.8785 -0.8288  2.8659
 1012MOL0     H33582   4.647   0.999  11.089  0.6304  1.1196  2.3333
 1012MOL0     H33583   3.900   0.763  10.937  0.1284  0.7612 -0.3654
 1012MOL0     H33584   3.689   0.671  10.868 -1.0321  0.4206  3.1511
 1013MOL0     O33585   0.210  11.238   4.555 -0.0469  0.0210  0.4385
 1013MOL0     C33586   0.314  11.186   4.601 -0.1229  0.8893 -0.8062
 1013MOL0     O33587   0.325  11.094   4.707  0.4496  0.1041 -0.4170
 1013MOL0     C33588   0.208  11.056   4.771  0.0918 -0.6763  1.0098
 1013MOL0     C33589   0.148  11.157   4.847  0.5141  0.8983 -0.5254
 1013MOL0     C33590   0.034  11.114   4.925 -1.2566  0.0400  0.2141
 1013MOL0     C33591  -0.019  10.985   4.918  0.4418  0.4734 -0.1828
 1013MOL0     O33592  -0.135  10.972   4.987 -0.2023  0.5187 -0.5882
 1013MOL0     C33593  -0.230  10.870   4.936  0.4047  0.0567 -0.2879
 1013MOL0     C33594  -0.357  10.853   5.031  0.5335  0.2564 -0.5388
 1013MOL0     C33595  -0.460  10.969   5.042  0.5526 -0.0615 -0.0696
 1013MOL0     C33596  -0.393  11.110   5.090 -0.3385  0.3234  0.6056
 1013MOL0     C33597  -0.480  11.199   5.184  0.1309 -0.6353 -0.2614
 1013MOL0     C33598  -0.399  11.327   5.229  0.9348 -0.4613 -0.1613
 1013MOL0     C33599  -0.334  11.311   5.368  0.4289  0.9047 -0.1680
 1013MOL0     C33600  -0.245  11.422   5.413  0.1051  0.0076 -0.0999
 1013MOL0     N33601  -0.166  11.468   5.304 -0.8650 -0.6000  0.0253
 1013MOL0     C33602  -0.180  11.583   5.243  1.0320  1.1573  0.1059
 1013MOL0     C33603  -0.087  11.588   5.142  0.1173  0.6898  0.0840
 1013MOL0     C33604  -0.064  11.693   5.038  0.6851  0.5955  0.0009
 1013MOL0     C33605  -0.089  11.640   4.897 -0.2217  0.2771  0.0946
 1013MOL0     C33606  -0.236  11.638   4.872  0.1528  0.5700 -0.1905
 1013MOL0     C33607  -0.270  11.552   4.748  0.5527  0.0632 -0.8496
 1013MOL0     O33608  -0.326  11.428   4.797  0.9039 -0.5456  0.1825
 1013MOL0     C33609  -0.458  11.426   4.782  1.1365  0.0741 -0.2620
 1013MOL0     C33610  -0.510  11.295   4.789  0.2873  0.3031 -0.0451
 1013MOL0     C33611  -0.647  11.269   4.777  0.3695  0.4239  0.4037
 1013MOL0     C33612  -0.748  11.368   4.774  0.2760 -0.4963  0.8578
 1013MOL0     C33613  -0.891  11.331   4.753 -1.0141 -0.6110 -0.5437
 1013MOL0     O33614  -0.917  11.211   4.692  0.3739 -0.3272 -0.3539
 1013MOL0     C33615  -1.050  11.195   4.674  0.1885  0.0152  0.3296
 1013MOL0     C33616  -1.100  11.224   4.551 -0.2918 -0.1029  0.5048
 1013MOL0     C33617  -1.241  11.219   4.528  0.1971 -0.9300 -0.3334
 1013MOL0     C33618  -1.332  11.159   4.619  0.1464  0.1442  0.6139
 1013MOL0     O33619  -1.472  11.160   4.588  0.7887  0.7932 -0.3853
 1013MOL0     C33620  -1.569  11.135   4.689 -0.4247  0.1468  0.2059
 1013MOL0     C33621  -1.711  11.134   4.632 -0.5430  0.0135 -0.3396
 1013MOL0     C33622  -1.824  11.094   4.731  0.0433  0.0249  0.3187
 1013MOL0     C33623  -1.957  11.131   4.665  0.4320  0.5702  0.8905
 1013MOL0     C33624  -2.061  11.023   4.699  0.0910 -0.4209  0.1022
 1013MOL0     C33625  -2.095  11.004   4.849 -0.5201  0.1193 -0.6134
 1013MOL0     C33626  -2.181  11.125   4.912 -0.0799 -0.3720  0.5839
 1013MOL0     C33627  -2.323  11.083   4.910 -0.4035 -0.5208  0.3621
 1013MOL0    Cl33628  -2.353  10.955   5.036  0.1436 -0.0855 -0.4992
 1013MOL0     C33629  -1.276  11.126   4.743  0.3738 -1.0145  0.4089
 1013MOL0     C33630  -1.138  11.144   4.765 -0.8560 -0.3914 -0.3858
 1013MOL0     O33631  -0.974  11.411   4.795 -0.6545 -0.6323  0.0625
 1013MOL0     C33632  -0.693  11.495   4.771  0.4791  0.6006 -0.0728
 1013MOL0     C33633  -0.560  11.529   4.760 -0.3108 -0.3030 -0.2353
 1013MOL0     N33634  -0.009  11.474   5.155  0.0409 -0.2517  0.3178
 1013MOL0     N33635  -0.065  11.392   5.242  0.4572 -0.4209 -0.2665
 1013MOL0     C33636   0.042  10.886   4.838 -1.0835 -0.2398  0.0052
 1013MOL0     C33637   0.161  10.919   4.767 -0.2005  0.8579 -0.0613
 1013MOL0     C33638   0.448  11.209   4.541  0.4036  0.8880 -0.3457
 1013MOL0     C33639   0.457  11.259   4.409 -0.2262  0.4181  0.0526
 1013MOL0     C33640   0.583  11.295   4.357  0.2047 -0.1244 -0.2229
 1013MOL0     C33641   0.703  11.263   4.439  0.3097  0.8192 -0.3729
 1013MOL0     O33642   0.829  11.280   4.401  0.7656  0.0988  0.3750
 1013MOL0     C33643   0.864  11.324   4.265  0.3390  0.2081 -0.7058
 1013MOL0     C33644   0.974  11.414   4.283 -0.2318  0.2933 -0.5389
 1013MOL0     C33645   1.062  11.434   4.149 -0.7648 -0.0554  0.1461
 1013MOL0     C33646   0.999  11.451   4.014  0.5335  0.1941 -0.1232
 1013MOL0     C33647   0.917  11.579   4.004 -0.8497  0.2851 -0.0790
 1013MOL0     C33648   0.869  11.688   4.000  0.7008  0.3608  0.3342
 1013MOL0     C33649   0.692  11.183   4.551  0.4168  0.6274  0.1051
 1013MOL0     C33650   0.561  11.173   4.611 -0.3636 -0.1186  0.4699
 1013MOL0     H33651   0.188  11.257   4.851  2.3043  0.2671 -1.5359
 1013MOL0     H33652  -0.014  11.187   4.989 -0.4093  1.0128 -0.2431
 1013MOL0     H33653  -0.193  10.768   4.947 -2.4031 -1.0968 -0.4808
 1013MOL0     H33654  -0.259  10.887   4.832  3.9494 -1.7069 -1.6917
 1013MOL0     H33655  -0.315  10.830   5.129 -0.9857 -1.3451 -0.2287
 1013MOL0     H33656  -0.410  10.770   4.983 -1.3513 -0.4122  2.4856
 1013MOL0     H33657  -0.539  10.938   5.111 -0.4359 -1.6195 -1.8256
 1013MOL0     H33658  -0.517  10.992   4.952 -0.8351  0.0262  0.8061
 1013MOL0     H33659  -0.303  11.087   5.147  0.2971 -1.6145 -1.0514
 1013MOL0     H33660  -0.359  11.162   4.999  3.7168 -2.2197  0.4195
 1013MOL0     H33661  -0.520  11.140   5.267 -1.6418  1.2119  0.2962
 1013MOL0     H33662  -0.556  11.240   5.117  0.5561 -0.0676 -0.4046
 1013MOL0     H33663  -0.467  11.413   5.228  0.4100 -0.7581  2.4078
 1013MOL0     H33664  -0.325  11.334   5.148  0.7001 -2.6249 -0.6100
 1013MOL0     H33665  -0.412  11.295   5.443 -0.2748 -0.8012 -1.1954
 1013MOL0     H33666  -0.273  11.220   5.364  0.8118  1.1917 -2.6118
 1013MOL0     H33667  -0.178  11.388   5.493  2.0483 -0.9836 -2.0464
 1013MOL0     H33668  -0.300  11.507   5.453  0.0393  0.3424 -0.9001
 1013MOL0     H33669  -0.260  11.653   5.266  1.1428  0.5406  2.7568
 1013MOL0     H33670   0.039  11.728   5.038  0.5685  1.1041 -2.2837
 1013MOL0     H33671  -0.122  11.780   5.072 -0.3654  0.6920 -1.9121
 1013MOL0     H33672  -0.051  11.539   4.882  2.3533  1.3077 -0.9720
 1013MOL0     H33673  -0.042  11.699   4.818  0.3740  0.2345  0.4126
 1013MOL0     H33674  -0.303  11.605   4.952 -0.0667 -1.6079 -1.2097
 1013MOL0     H33675  -0.275  11.739   4.855  0.0944  0.4789 -0.6014
 1013MOL0     H33676  -0.185  11.520   4.686  1.2247  0.9481 -0.4102
 1013MOL0     H33677  -0.326  11.618   4.681 -2.5464  0.4663  1.9108
 1013MOL0     H33678  -0.438  11.214   4.784 -1.3179 -1.1563 -1.0932
 1013MOL0     H33679  -0.682  11.167   4.777  3.1401 -0.6543  1.9054
 1013MOL0     H33680  -1.033  11.263   4.475 -0.8843 -1.2069 -0.6204
 1013MOL0     H33681  -1.286  11.251   4.435 -0.4901 -1.7015 -0.2826
 1013MOL0     H33682  -1.572  11.212   4.766  0.6703  1.2835 -0.8473
 1013MOL0     H33683  -1.552  11.035   4.730  0.3715  0.2412  0.1197
 1013MOL0     H33684  -1.712  11.065   4.547 -0.3112  1.6895 -1.7580
 1013MOL0     H33685  -1.745  11.226   4.583 -2.6024 -0.3827  0.2720
 1013MOL0     H33686  -1.813  11.138   4.831  2.2782  0.5202 -0.0781
 1013MOL0     H33687  -1.823  10.985   4.743 -0.1148  0.1111  1.2267
 1013MOL0     H33688  -1.992  11.232   4.687 -1.8501  0.1235 -0.3380
 1013MOL0     H33689  -1.939  11.130   4.557  2.2687 -3.5572  1.0635
 1013MOL0     H33690  -2.036  10.931   4.646 -0.1197  0.3751 -1.4387
 1013MOL0     H33691  -2.159  11.043   4.655  0.1037 -1.5121 -0.4506
 1013MOL0     H33692  -2.005  10.978   4.906  0.8067  0.2392 -2.5785
 1013MOL0     H33693  -2.161  10.918   4.854 -2.3534  1.4958 -0.0873
 1013MOL0     H33694  -2.141  11.148   5.011 -0.1078 -3.1049  1.3308
 1013MOL0     H33695  -2.163  11.215   4.854  1.6176 -1.4346 -0.6484
 1013MOL0     H33696  -2.349  11.052   4.809  0.5659 -2.2882  0.6183
 1013MOL0     H33697  -2.374  11.177   4.935  0.2513  0.6706 -2.3876
 1013MOL0     H33698  -1.334  11.102   4.832  2.9137  1.8157  3.0844
 1013MOL0     H33699  -1.088  11.127   4.860  2.8227  3.2020 -1.3608
 1013MOL0     H33700  -0.767  11.575   4.771 -0.8157 -0.5584  0.3786
 1013MOL0     H33701  -0.534  11.632   4.743  0.0912  0.1136  2.4525
 1013MOL0     H33702  -0.003  10.787   4.838 -1.8688  0.0825  1.8237
 1013MOL0     H33703   0.212  10.855   4.697 -3.1031 -1.2858 -0.4056
 1013MOL0     H33704   0.365  11.271   4.353 -3.8118  0.1748  5.1716
 1013MOL0     H33705   0.570  11.355   4.268 -0.1206  2.5853  1.5466
 1013MOL0     H33706   0.789  11.391   4.223  1.2775  0.4372 -2.1153
 1013MOL0     H33707   0.892  11.231   4.214  0.6939  0.8200 -1.6461
 1013MOL0     H33708   0.930  11.508   4.318  0.6075  0.0204  1.4005
 1013MOL0     H33709   1.033  11.381   4.369 -0.2727  2.6506  0.4605
 1013MOL0     H33710   1.128  11.348   4.141 -0.3620  0.1181  1.3191
 1013MOL0     H33711   1.118  11.527   4.166 -4.6165  2.4987  0.2983
 1013MOL0     H33712   1.086  11.448   3.947  2.8022 -2.7617  2.6652
 1013MOL0     H33713   0.935  11.369   3.982 -0.3805  2.0293 -3.4729
 1013MOL0     H33714   0.834  11.789   3.996 -1.3926 -0.1656  2.9022
 1013MOL0     H33715   0.779  11.155   4.609 -0.8021 -3.0566  0.4023
 1013MOL0     H33716   0.558  11.142   4.715 -3.7196  0.2773  0.5916
 1014MOL0     O33717  10.213   0.801   6.183 -0.3086 -0.0813 -0.2168
 1014MOL0     C33718  10.326   0.821   6.130  0.2546  0.2450 -0.0724
 1014MOL0     O33719  10.356   0.814   5.995 -0.1757  0.3994  0.3797
 1014MOL0     C33720  10.254   0.806   5.899 -0.1576 -0.0783  0.4411
 1014MOL0     C33721  10.300   0.844   5.768 -0.4301 -0.3386  0.4339
 1014MOL0     C33722  10.210   0.828   5.657  0.5193 -0.9748 -0.3585
 1014MOL0     C33723  10.078   0.777   5.680  0.1010 -1.2059  0.5893
 1014MOL0     O33724   9.990   0.768   5.577 -0.1891  0.3806 -0.5449
 1014MOL0     C33725   9.998   0.843   5.454  0.6993 -0.4563  0.7506
 1014MOL0     C33726   9.896   0.765   5.376  0.7412  0.1696  0.0390
 1014MOL0     C33727   9.882   0.820   5.238 -1.4304 -0.3597  0.7585
 1014MOL0     C33728   9.767   0.767   5.155 -0.9618 -0.3669 -0.7499
 1014MOL0     C33729   9.816   0.655   5.070  0.2351 -0.2496  0.3025
 1014MOL0     C33730   9.709   0.587   4.982 -0.4987 -0.5860  0.2435
 1014MOL0     C33731   9.639   0.685   4.886 -0.7909 -0.0748 -0.5166
 1014MOL0     C33732   9.540   0.604   4.808  0.5238 -0.1125 -0.4877
 1014MOL0     N33733   9.473   0.695   4.709  0.6047 -0.3082 -0.4045
 1014MOL0     C33734   9.363   0.777   4.734  0.1245  0.0045  0.0722
 1014MOL0     C33735   9.349   0.864   4.630 -0.7684  0.2510  0.2660
 1014MOL0     C33736   9.265   0.988   4.627  0.4628  1.3071 -0.1515
 1014MOL0     C33737   9.133   0.969   4.558  0.2056  0.6828  0.3533
 1014MOL0     C33738   9.075   0.825   4.567 -0.2975  0.2862 -0.0311
 1014MOL0     C33739   8.935   0.793   4.509 -0.0123  0.2121  0.3358
 1014MOL0     O33740   8.829   0.861   4.574  0.5325 -0.9385 -0.6025
 1014MOL0     C33741   8.705   0.807   4.549 -0.2728 -0.6674 -0.7437
 1014MOL0     C33742   8.661   0.775   4.422  0.9817 -0.7432 -0.3190
 1014MOL0     C33743   8.532   0.726   4.410  0.3496 -0.7960  0.1244
 1014MOL0     C33744   8.436   0.734   4.515  0.9220 -0.3003 -0.3606
 1014MOL0     C33745   8.289   0.701   4.486 -0.7468 -0.2015 -0.1712
 1014MOL0     O33746   8.250   0.680   4.359  0.2478 -0.0317  0.1719
 1014MOL0     C33747   8.111   0.670   4.338 -0.0853 -0.5266 -0.2323
 1014MOL0     C33748   8.047   0.548   4.319 -0.2934  0.0844  0.1518
 1014MOL0     C33749   7.908   0.537   4.290  0.1399  0.1195 -0.9540
 1014MOL0     C33750   7.838   0.652   4.277  0.4781 -0.7462  0.2315
 1014MOL0     O33751   7.702   0.665   4.232  0.0465 -0.0391  0.2051
 1014MOL0     C33752   7.618   0.546   4.218 -0.1358 -0.1090  0.2664
 1014MOL0     C33753   7.472   0.587   4.170 -0.2555  0.4014  0.4377
 1014MOL0     C33754   7.491   0.657   4.039 -0.7036  0.5950  0.4834
 1014MOL0     C33755   7.371   0.732   3.981  0.1483  0.0077  0.3217
 1014MOL0     C33756   7.393   0.823   3.862 -0.0844  0.0639  0.3401
 1014MOL0     C33757   7.458   0.755   3.741 -0.5269 -0.1079 -0.5326
 1014MOL0     C33758   7.358   0.648   3.679  0.2011 -1.3155  0.2530
 1014MOL0     C33759   7.361   0.660   3.528  0.3305  0.0157  0.7207
 1014MOL0    Cl33760   7.252   0.540   3.443  0.0171 -0.1320 -0.4569
 1014MOL0     C33761   7.900   0.776   4.313 -0.4615  0.0206  0.5365
 1014MOL0     C33762   8.035   0.789   4.344 -0.5390 -0.1796 -0.2864
 1014MOL0     O33763   8.219   0.684   4.587 -0.6038  0.8246  1.0626
 1014MOL0     C33764   8.477   0.773   4.634  0.4912  0.8825 -0.1568
 1014MOL0     C33765   8.607   0.811   4.651 -0.1351  0.0211  0.2150
 1014MOL0     N33766   9.455   0.838   4.544  0.0912 -0.3170 -0.3001
 1014MOL0     N33767   9.529   0.737   4.594 -0.1548 -0.4569  0.2695
 1014MOL0     C33768  10.048   0.720   5.807  0.2919 -0.4998  0.7473
 1014MOL0     C33769  10.132   0.751   5.915  0.4089  0.0989 -0.9579
 1014MOL0     C33770  10.435   0.844   6.220 -0.0589 -0.9006 -1.6829
 1014MOL0     C33771  10.560   0.896   6.183  0.4846 -0.9470  0.3421
 1014MOL0     C33772  10.645   0.942   6.280  0.8534 -0.7736  0.2000
 1014MOL0     C33773  10.641   0.903   6.411 -0.7619 -0.2305  0.7227
 1014MOL0     O33774  10.740   0.936   6.500  0.6543 -0.5031  0.1159
 1014MOL0     C33775  10.732   0.903   6.637  0.4022 -0.2765 -0.3010
 1014MOL0     C33776  10.845   0.975   6.703  0.6309  0.1564  0.5263
 1014MOL0     C33777  10.990   0.933   6.671  0.0972  0.2431 -0.0865
 1014MOL0     C33778  11.088   0.984   6.786  0.4813 -0.4660 -0.3124
 1014MOL0     C33779  11.075   0.940   6.930 -1.0856  0.1385  0.5106
 1014MOL0     C33780  11.091   0.926   7.047 -0.2317  0.1770 -0.3496
 1014MOL0     C33781  10.521   0.848   6.446 -1.5125 -0.0080 -0.5082
 1014MOL0     C33782  10.418   0.829   6.361 -0.1721 -0.5921 -0.5726
 1014MOL0     H33783  10.403   0.875   5.755 -0.3314  0.5121  2.7632
 1014MOL0     H33784  10.251   0.856   5.560  0.9873 -2.4680 -0.6239
 1014MOL0     H33785  10.098   0.839   5.409  0.1676  0.7337 -0.6323
 1014MOL0     H33786   9.976   0.949   5.468  2.2033  0.3485 -2.2183
 1014MOL0     H33787   9.797   0.767   5.423  1.5645 -0.3084  1.8702
 1014MOL0     H33788   9.920   0.658   5.375 -0.8219 -0.2480 -2.4014
 1014MOL0     H33789   9.971   0.812   5.176 -2.4648 -0.7890 -0.7135
 1014MOL0     H33790   9.859   0.926   5.253 -0.9346  0.5443 -3.7115
 1014MOL0     H33791   9.687   0.734   5.223 -0.9912 -0.7821 -0.9860
 1014MOL0     H33792   9.720   0.844   5.093  1.8879 -0.6517 -3.5024
 1014MOL0     H33793   9.855   0.570   5.127  2.7916 -1.1570 -2.5214
 1014MOL0     H33794   9.892   0.676   4.995  0.9578 -4.0306 -0.2223
 1014MOL0     H33795   9.634   0.541   5.047 -0.5670  0.5052  0.9578
 1014MOL0     H33796   9.759   0.515   4.917 -1.2691  0.1307 -1.2010
 1014MOL0     H33797   9.599   0.775   4.935  1.2278  0.8830 -0.5167
 1014MOL0     H33798   9.711   0.711   4.809 -0.0683  2.6034  0.9368
 1014MOL0     H33799   9.471   0.551   4.875 -0.0593  0.2002 -0.8401
 1014MOL0     H33800   9.594   0.523   4.758  2.3426  1.9862 -2.1173
 1014MOL0     H33801   9.316   0.783   4.832  0.7475  2.2089  0.3017
 1014MOL0     H33802   9.316   1.072   4.581 -0.0069  0.6750 -1.9046
 1014MOL0     H33803   9.251   1.012   4.733 -1.5396 -0.5901  0.0916
 1014MOL0     H33804   9.151   0.990   4.452 -0.4576  0.2109  0.1411
 1014MOL0     H33805   9.058   1.040   4.592 -0.9349 -0.4884  0.3401
 1014MOL0     H33806   9.149   0.761   4.519  3.4757  2.5443  2.1987
 1014MOL0     H33807   9.067   0.785   4.668 -1.5485 -2.8612 -1.2723
 1014MOL0     H33808   8.929   0.684   4.516  1.8165 -0.1785 -2.6133
 1014MOL0     H33809   8.939   0.826   4.405 -1.0429  0.7610  0.4499
 1014MOL0     H33810   8.738   0.779   4.346  0.9177 -2.0718 -0.4902
 1014MOL0     H33811   8.508   0.684   4.312 -0.0513  0.7368 -0.4576
 1014MOL0     H33812   8.099   0.454   4.329 -0.1678 -0.5613 -4.5861
 1014MOL0     H33813   7.862   0.439   4.283 -1.7639  0.7502  1.4756
 1014MOL0     H33814   7.597   0.503   4.317 -1.7717 -0.9145 -0.4027
 1014MOL0     H33815   7.665   0.471   4.155  0.3216  2.0771 -2.1635
 1014MOL0     H33816   7.431   0.652   4.246  0.2035  0.5322  0.5797
 1014MOL0     H33817   7.413   0.495   4.164 -1.1405  0.9569  0.4708
 1014MOL0     H33818   7.528   0.580   3.971 -0.6618  1.4630 -0.4965
 1014MOL0     H33819   7.576   0.725   4.048  0.1836 -0.5154  0.7563
 1014MOL0     H33820   7.294   0.656   3.961 -0.0175 -0.1098  1.3364
 1014MOL0     H33821   7.338   0.778   4.075  0.2032  1.4288 -0.3355
 1014MOL0     H33822   7.448   0.910   3.898  0.7925 -1.1742  2.1086
 1014MOL0     H33823   7.294   0.856   3.828  0.7153  3.4391  0.9085
 1014MOL0     H33824   7.540   0.696   3.784  0.8344  2.8672  1.2561
 1014MOL0     H33825   7.482   0.836   3.672 -0.4778 -1.8226 -2.6239
 1014MOL0     H33826   7.380   0.544   3.707 -4.1384 -2.8766 -1.3077
 1014MOL0     H33827   7.252   0.663   3.702 -0.7382  1.6622 -4.7669
 1014MOL0     H33828   7.461   0.627   3.501  0.2796 -1.0771  1.7964
 1014MOL0     H33829   7.326   0.761   3.504 -4.3223 -1.2306  1.1313
 1014MOL0     H33830   7.838   0.865   4.312 -0.2883  0.1992 -1.9217
 1014MOL0     H33831   8.073   0.888   4.366 -0.7888 -0.1255 -0.0982
 1014MOL0     H33832   8.414   0.752   4.719  0.3042 -0.0066 -0.5114
 1014MOL0     H33833   8.644   0.846   4.747  0.9289  1.2672 -0.6091
 1014MOL0     H33834   9.952   0.671   5.820  0.1807 -0.0210  1.8318
 1014MOL0     H33835  10.096   0.710   6.009 -2.7561 -1.6914 -2.7521
 1014MOL0     H33836  10.577   0.921   6.078 -0.9130 -2.6122 -0.3366
 1014MOL0     H33837  10.718   1.015   6.245 -1.5930  0.6577 -2.3330
 1014MOL0     H33838  10.727   0.797   6.664 -1.7231 -0.1286  0.0981
 1014MOL0     H33839  10.641   0.939   6.688 -1.1621 -1.4389 -2.1470
 1014MOL0     H33840  10.824   1.082   6.700 -0.4991 -0.0359  1.0931
 1014MOL0     H33841  10.819   0.939   6.803 -0.6273 -2.2203 -0.5650
 1014MOL0     H33842  11.020   0.992   6.584 -1.7769  0.4984 -0.6020
 1014MOL0     H33843  11.004   0.828   6.643 -1.8367 -0.2716  0.7322
 1014MOL0     H33844  11.185   0.946   6.753 -0.3013 -2.4231 -0.5137
 1014MOL0     H33845  11.097   1.093   6.785  2.1198 -0.5261 -3.4302
 1014MOL0     H33846  11.115   0.902   7.148 -0.1972  3.5478  0.5628
 1014MOL0     H33847  10.515   0.808   6.547  0.2458 -1.1809 -0.8289
 1014MOL0     H33848  10.322   0.814   6.409  1.4468 -0.5110  3.0164
 1015MOL0     O33849   2.237   3.517   0.146 -0.5275  0.7660  0.6275
 1015MOL0     C33850   2.268   3.403   0.102 -0.5901  0.0702 -0.2508
 1015MOL0     O33851   2.201   3.292   0.127 -0.0138  0.6702 -0.3945
 1015MOL0     C33852   2.075   3.288   0.179 -0.5263  0.5974 -0.1111
 1015MOL0     C33853   2.041   3.256   0.312 -0.7300 -0.4228  0.0302
 1015MOL0     C33854   1.915   3.268   0.347  0.5825 -0.8342  0.4950
 1015MOL0     C33855   1.818   3.327   0.269  0.7669  0.0276  0.9837
 1015MOL0     O33856   1.686   3.352   0.307 -0.0585  0.8621  0.6953
 1015MOL0     C33857   1.643   3.318   0.439 -0.0918 -0.3223  0.8229
 1015MOL0     C33858   1.495   3.373   0.474 -1.3082 -0.1990 -0.4531
 1015MOL0     C33859   1.388   3.324   0.370 -0.5813 -0.2992 -0.0287
 1015MOL0     C33860   1.254   3.352   0.416 -0.2757 -0.3229 -0.0136
 1015MOL0     C33861   1.143   3.286   0.321 -0.4220 -0.6301 -0.2207
 1015MOL0     C33862   1.128   3.130   0.321  0.3344 -0.5863 -0.6515
 1015MOL0     C33863   1.136   3.068   0.464  0.1221  0.2359 -0.5636
 1015MOL0     C33864   1.099   2.922   0.474  1.3426  0.2155  0.5999
 1015MOL0     N33865   0.950   2.907   0.432 -0.2179  0.1494  0.6817
 1015MOL0     C33866   0.846   2.942   0.511 -0.1392 -0.3987  0.0749
 1015MOL0     C33867   0.736   2.926   0.431 -0.3703 -0.0370 -0.5882
 1015MOL0     C33868   0.587   2.951   0.465  0.4414 -0.0965 -0.2051
 1015MOL0     C33869   0.523   3.071   0.398  0.4732 -0.1814  0.7728
 1015MOL0     C33870   0.386   3.103   0.449  0.8524  0.0501 -1.1458
 1015MOL0     C33871   0.370   3.254   0.446  0.1398  0.5300  0.3946
 1015MOL0     O33872   0.292   3.302   0.550 -0.3038  0.3483 -0.5865
 1015MOL0     C33873   0.159   3.339   0.533 -0.5998 -0.4049  0.1063
 1015MOL0     C33874   0.091   3.381   0.649  0.0831  0.4877  0.4122
 1015MOL0     C33875  -0.043   3.424   0.653  0.3863  0.8556 -0.5471
 1015MOL0     C33876  -0.113   3.431   0.535  0.6102 -0.7422  0.5536
 1015MOL0     C33877  -0.258   3.466   0.530 -0.7672 -1.2366  0.4216
 1015MOL0     O33878  -0.328   3.438   0.643 -0.7100  0.2652 -0.2194
 1015MOL0     C33879  -0.453   3.497   0.679 -0.7889 -0.2828  0.0842
 1015MOL0     C33880  -0.521   3.431   0.777  0.5082  0.6576 -0.8724
 1015MOL0     C33881  -0.654   3.466   0.810  0.9754  0.5870  0.1978
 1015MOL0     C33882  -0.705   3.584   0.759  0.6591  0.9746  0.4864
 1015MOL0     O33883  -0.827   3.620   0.807  0.6079  0.2236 -0.4985
 1015MOL0     C33884  -0.909   3.704   0.722  0.0220  0.2785 -0.8572
 1015MOL0     C33885  -1.041   3.734   0.784 -0.3921  0.4300 -0.3884
 1015MOL0     C33886  -1.024   3.843   0.887  1.1524  0.2178 -0.8307
 1015MOL0     C33887  -1.164   3.874   0.940 -0.9019  0.0645 -0.0267
 1015MOL0     C33888  -1.137   3.974   1.061 -0.0286 -0.1234 -1.2726
 1015MOL0     C33889  -1.272   4.016   1.125 -0.3758  0.5169 -0.1339
 1015MOL0     C33890  -1.250   4.132   1.228 -0.9929 -0.0936  0.5604
 1015MOL0     C33891  -1.379   4.208   1.271 -0.4402  0.2378  1.0984
 1015MOL0    Cl33892  -1.458   4.098   1.396 -0.0266 -0.1840 -0.4524
 1015MOL0     C33893  -0.635   3.658   0.665 -0.5563  0.0945  0.3316
 1015MOL0     C33894  -0.503   3.617   0.623  0.6195  0.1520 -0.0795
 1015MOL0     O33895  -0.293   3.525   0.432  0.3359  0.6289 -0.1322
 1015MOL0     C33896  -0.054   3.397   0.415 -0.2805  0.3782 -0.3824
 1015MOL0     C33897   0.077   3.343   0.418 -0.4974 -0.3233 -0.0264
 1015MOL0     N33898   0.773   2.878   0.312 -0.2111  0.6303  1.0889
 1015MOL0     N33899   0.904   2.875   0.307 -0.9806  0.3122 -0.6380
 1015MOL0     C33900   1.850   3.365   0.141 -0.2167 -0.7358  0.7822
 1015MOL0     C33901   1.978   3.345   0.092 -0.5356  0.1910 -0.3957
 1015MOL0     C33902   2.403   3.384   0.048  0.1167 -0.5406  0.1187
 1015MOL0     C33903   2.495   3.481   0.041 -0.4140  0.1083 -0.0625
 1015MOL0     C33904   2.619   3.472  -0.026  0.2600 -0.7919 -0.2563
 1015MOL0     C33905   2.660   3.345  -0.078  0.7869  0.6044 -0.5168
 1015MOL0     O33906   2.781   3.314  -0.127 -0.3346  0.3453 -0.0571
 1015MOL0     C33907   2.883   3.406  -0.167  0.3952 -0.5236 -1.3240
 1015MOL0     C33908   2.997   3.384  -0.065 -0.7359  0.4369  1.0785
 1015MOL0     C33909   3.062   3.244  -0.087  0.6111  0.0442 -0.9216
 1015MOL0     C33910   3.163   3.205   0.023  0.2931  0.0042 -0.0703
 1015MOL0     C33911   3.194   3.063  -0.004 -0.0793 -0.6143 -0.7819
 1015MOL0     C33912   3.220   2.952  -0.027 -0.1275  0.6928  0.6620
 1015MOL0     C33913   2.566   3.237  -0.063  0.0843  0.4336  0.1061
 1015MOL0     C33914   2.440   3.261  -0.007 -0.5880 -0.2307 -0.0681
 1015MOL0     H33915   2.118   3.219   0.378  0.5117 -2.0871 -2.1946
 1015MOL0     H33916   1.888   3.239   0.448  0.5252  0.0700  0.7466
 1015MOL0     H33917   1.717   3.366   0.505  0.3617  1.9892 -1.2243
 1015MOL0     H33918   1.645   3.209   0.446  1.4385 -0.4219 -0.6638
 1015MOL0     H33919   1.508   3.481   0.474  0.5409 -0.2926 -3.5599
 1015MOL0     H33920   1.461   3.356   0.577 -0.2196  3.5894  0.7052
 1015MOL0     H33921   1.412   3.218   0.353 -0.4126 -0.3512  0.5274
 1015MOL0     H33922   1.387   3.381   0.276 -2.3323  0.8821  0.6613
 1015MOL0     H33923   1.234   3.319   0.519 -1.8986 -1.5729 -0.6824
 1015MOL0     H33924   1.251   3.461   0.413  0.9371 -0.2548  0.5844
 1015MOL0     H33925   1.162   3.303   0.215  0.4127 -3.2722 -0.5585
 1015MOL0     H33926   1.054   3.341   0.354 -1.1548  0.0976 -3.1364
 1015MOL0     H33927   1.208   3.088   0.259  2.7406  3.7040 -0.8510
 1015MOL0     H33928   1.031   3.111   0.274  0.8393  0.6509 -2.2894
 1015MOL0     H33929   1.243   3.079   0.484 -0.1514  0.9696  0.6015
 1015MOL0     H33930   1.087   3.131   0.538  0.9236  0.9975 -0.6771
 1015MOL0     H33931   1.117   2.878   0.572 -1.1366 -1.9693  0.1928
 1015MOL0     H33932   1.159   2.876   0.395 -1.0889  1.9002 -2.5140
 1015MOL0     H33933   0.860   2.991   0.607  1.0385  0.0749 -0.3206
 1015MOL0     H33934   0.574   2.958   0.573 -0.6556  0.2921 -0.3425
 1015MOL0     H33935   0.529   2.870   0.420 -1.2459  0.7280  0.3849
 1015MOL0     H33936   0.511   3.044   0.293  0.3962  1.3288  0.3769
 1015MOL0     H33937   0.589   3.158   0.397  0.5662 -0.1995  2.3921
 1015MOL0     H33938   0.315   3.044   0.390  1.1760 -0.1946 -1.2988
 1015MOL0     H33939   0.376   3.073   0.554 -0.0102  0.6438 -1.0547
 1015MOL0     H33940   0.344   3.269   0.341  0.6101 -0.8762  0.0546
 1015MOL0     H33941   0.467   3.301   0.468  0.3706  0.8689 -1.2243
 1015MOL0     H33942   0.146   3.388   0.743 -1.1413 -2.6585  1.5096
 1015MOL0     H33943  -0.084   3.460   0.747 -0.0860 -1.6170  0.2844
 1015MOL0     H33944  -0.465   3.349   0.820  0.0227  0.3337 -0.8409
 1015MOL0     H33945  -0.717   3.406   0.875  0.9640 -1.3016 -1.4737
 1015MOL0     H33946  -0.908   3.666   0.620  1.5983 -2.1749 -0.0186
 1015MOL0     H33947  -0.863   3.803   0.723 -1.6021  1.1041  1.1583
 1015MOL0     H33948  -1.090   3.648   0.831 -0.9822 -0.2843 -2.2252
 1015MOL0     H33949  -1.115   3.772   0.714 -2.7264 -1.3874  0.9457
 1015MOL0     H33950  -0.974   3.935   0.856  2.5426  0.2635  1.2884
 1015MOL0     H33951  -0.963   3.806   0.971  3.9670  1.7466 -2.0709
 1015MOL0     H33952  -1.227   3.927   0.868  0.2538  3.9275  1.5417
 1015MOL0     H33953  -1.222   3.786   0.966  0.8183 -1.3326 -0.6872
 1015MOL0     H33954  -1.070   4.054   1.027 -0.1303 -0.4346 -2.2465
 1015MOL0     H33955  -1.074   3.917   1.130 -0.5165  0.8266 -0.0260
 1015MOL0     H33956  -1.316   3.927   1.171 -1.9674  1.9349  1.2624
 1015MOL0     H33957  -1.348   4.037   1.050  0.5870  2.0727 -0.7161
 1015MOL0     H33958  -1.190   4.103   1.315  1.3443 -0.2638 -1.0089
 1015MOL0     H33959  -1.178   4.192   1.172  0.7746 -0.3259  2.4400
 1015MOL0     H33960  -1.450   4.243   1.195 -4.6066  0.3807  4.6362
 1015MOL0     H33961  -1.350   4.300   1.323 -1.4048  0.1117  1.8927
 1015MOL0     H33962  -0.684   3.741   0.616  1.8145  1.3124 -0.1278
 1015MOL0     H33963  -0.456   3.674   0.543 -0.2471  0.6086 -0.2712
 1015MOL0     H33964  -0.110   3.386   0.322 -1.7609 -1.7404  0.6741
 1015MOL0     H33965   0.109   3.327   0.315 -2.2740 -2.4992 -0.3288
 1015MOL0     H33966   1.764   3.406   0.089 -1.0191 -0.9405  1.9110
 1015MOL0     H33967   2.014   3.377  -0.005  3.9585  1.6544  1.4973
 1015MOL0     H33968   2.465   3.578   0.080 -0.4126  0.3259 -0.5912
 1015MOL0     H33969   2.692   3.550  -0.010  3.0388 -2.6942 -2.6426
 1015MOL0     H33970   2.851   3.510  -0.171  0.8479 -0.3946 -1.6712
 1015MOL0     H33971   2.929   3.381  -0.263 -2.6887 -0.1829 -3.0045
 1015MOL0     H33972   3.076   3.458  -0.079 -0.7476  0.4047  0.8349
 1015MOL0     H33973   2.965   3.398   0.038 -1.1843  0.4300  0.9441
 1015MOL0     H33974   3.108   3.238  -0.187  2.0849 -2.1957 -0.1746
 1015MOL0     H33975   2.985   3.167  -0.082  1.8182 -1.2180 -1.2013
 1015MOL0     H33976   3.255   3.264   0.023 -0.8613  1.8840 -0.2000
 1015MOL0     H33977   3.120   3.211   0.124 -1.1743  0.7456 -0.7066
 1015MOL0     H33978   3.243   2.850  -0.050  0.0834  0.4525  1.8595
 1015MOL0     H33979   2.576   3.139  -0.108 -2.8412  0.4964 -0.8901
 1015MOL0     H33980   2.385   3.168   0.004  2.5185 -2.2111 -0.0301
 1016MOL0     O33981   7.603   1.451   1.260 -0.3397  0.0283  0.3402
 1016MOL0     C33982   7.726   1.463   1.281 -0.1344  1.2093 -0.3438
 1016MOL0     O33983   7.797   1.574   1.257 -0.0594  0.1468  0.4309
 1016MOL0     C33984   7.728   1.671   1.198  0.3786 -0.6855  0.0915
 1016MOL0     C33985   7.687   1.652   1.070  0.7182  0.7741  0.8711
 1016MOL0     C33986   7.633   1.757   0.990 -0.4761  1.1140  0.5076
 1016MOL0     C33987   7.612   1.882   1.049  0.3818  0.2474  0.5414
 1016MOL0     O33988   7.591   1.995   0.979 -0.3886  0.0909 -0.3080
 1016MOL0     C33989   7.468   2.057   1.023 -0.8912 -0.1055  0.5852
 1016MOL0     C33990   7.400   2.130   0.910  0.0822 -0.1186  0.4570
 1016MOL0     C33991   7.312   2.038   0.827 -0.1641 -0.4487  0.9571
 1016MOL0     C33992   7.391   1.966   0.719 -0.3371  0.0857  0.2711
 1016MOL0     C33993   7.298   1.879   0.634  0.1543 -0.0376  0.0799
 1016MOL0     C33994   7.375   1.811   0.512 -0.3047  0.8046 -0.5582
 1016MOL0     C33995   7.512   1.737   0.552  0.0542  1.0808  0.7574
 1016MOL0     C33996   7.481   1.624   0.653 -0.0010  0.1025 -0.7574
 1016MOL0     N33997   7.607   1.543   0.674  0.2343  0.2865  0.4762
 1016MOL0     C33998   7.636   1.441   0.593 -0.0514  0.0256  0.3483
 1016MOL0     C33999   7.727   1.370   0.657  0.6945 -0.2633  0.6750
 1016MOL0     C34000   7.779   1.246   0.597 -0.2765 -0.4264  0.2818
 1016MOL0     C34001   7.929   1.256   0.569  0.1686  0.5241  0.1639
 1016MOL0     C34002   7.971   1.381   0.487 -0.5770  0.3115  0.4968
 1016MOL0     C34003   8.111   1.455   0.498  0.8564  0.4468 -0.9472
 1016MOL0     O34004   8.208   1.352   0.518  0.0932  1.0051  0.1417
 1016MOL0     C34005   8.342   1.384   0.544  0.6963 -0.0247  0.8841
 1016MOL0     C34006   8.382   1.522   0.540  0.3356 -0.9753 -0.1393
 1016MOL0     C34007   8.516   1.561   0.552 -0.2535  0.3386 -0.1008
 1016MOL0     C34008   8.621   1.469   0.563  0.2092  0.2152  0.0707
 1016MOL0     C34009   8.769   1.505   0.565 -0.0354  0.0772 -0.2348
 1016MOL0     O34010   8.855   1.393   0.556 -0.2202 -0.3390 -0.5555
 1016MOL0     C34011   8.989   1.401   0.600  0.9931  1.0614  0.2349
 1016MOL0     C34012   9.067   1.513   0.631 -1.0172 -0.0063 -0.1764
 1016MOL0     C34013   9.204   1.492   0.650 -0.4735  0.0632 -1.0212
 1016MOL0     C34014   9.272   1.373   0.646  1.0011  0.5075 -0.4003
 1016MOL0     O34015   9.407   1.371   0.653 -0.0764 -0.0072  0.3231
 1016MOL0     C34016   9.469   1.452   0.742  0.5227 -0.1076 -0.5109
 1016MOL0     C34017   9.614   1.415   0.778  0.5007  0.8871 -0.4305
 1016MOL0     C34018   9.637   1.267   0.801 -0.2678 -0.6861 -0.2270
 1016MOL0     C34019   9.559   1.214   0.919  0.1232 -1.0337  0.2740
 1016MOL0     C34020   9.586   1.065   0.954  0.6993  0.2346  0.1863
 1016MOL0     C34021   9.586   1.046   1.099 -0.5675  0.3855 -0.2544
 1016MOL0     C34022   9.448   1.067   1.176 -0.3298 -0.1083 -0.6653
 1016MOL0     C34023   9.355   0.953   1.133 -0.2653 -0.2026  0.2249
 1016MOL0    Cl34024   9.420   0.791   1.180 -0.1753 -0.0033  0.0120
 1016MOL0     C34025   9.196   1.259   0.618 -0.1792 -0.6862  0.5865
 1016MOL0     C34026   9.053   1.271   0.597  0.3925 -0.2275 -0.9943
 1016MOL0     O34027   8.797   1.620   0.601  0.3403  0.6324  0.2497
 1016MOL0     C34028   8.583   1.334   0.570 -0.0035  0.0354  0.1485
 1016MOL0     C34029   8.440   1.296   0.564 -0.4752  0.4112 -0.5493
 1016MOL0     N34030   7.773   1.442   0.770  0.3539  0.3795  0.4639
 1016MOL0     N34031   7.693   1.542   0.774 -0.3355  0.1480 -0.4945
 1016MOL0     C34032   7.641   1.896   1.184  0.0276 -1.0712 -0.8344
 1016MOL0     C34033   7.700   1.794   1.251 -0.1086  0.0328 -0.8191
 1016MOL0     C34034   7.790   1.366   1.367 -0.5442  0.1316 -0.3470
 1016MOL0     C34035   7.730   1.247   1.406 -0.6345  0.3575 -0.8321
 1016MOL0     C34036   7.798   1.166   1.506  0.6995 -0.8670 -0.2621
 1016MOL0     C34037   7.930   1.195   1.543  0.3604 -0.3881 -0.2658
 1016MOL0     O34038   7.993   1.101   1.619  0.6199  0.3180  0.2321
 1016MOL0     C34039   8.138   1.096   1.647 -0.3141  0.1032 -0.0255
 1016MOL0     C34040   8.166   1.180   1.780  0.9381 -0.2282  1.1810
 1016MOL0     C34041   8.100   1.123   1.903 -0.5757  0.2771  0.0337
 1016MOL0     C34042   7.980   1.202   1.945  0.1741  0.2309  0.4457
 1016MOL0     C34043   8.022   1.324   2.019  0.1507 -0.1786  0.3441
 1016MOL0     C34044   8.053   1.425   2.076  0.1335  0.1453 -0.8623
 1016MOL0     C34045   7.995   1.309   1.502  0.7855  0.0304 -0.2497
 1016MOL0     C34046   7.923   1.398   1.418  0.2522  0.1471 -0.8923
 1016MOL0     H34047   7.714   1.561   1.017  0.0411  1.9312 -1.6174
 1016MOL0     H34048   7.611   1.746   0.884  0.1887  0.0742  0.4637
 1016MOL0     H34049   7.489   2.133   1.099 -1.1651  1.5130 -0.8802
 1016MOL0     H34050   7.399   1.983   1.063 -0.1187 -0.8273  0.6171
 1016MOL0     H34051   7.476   2.164   0.839  0.2694 -1.4386  0.0037
 1016MOL0     H34052   7.342   2.217   0.943 -0.4848  0.5175 -2.0306
 1016MOL0     H34053   7.242   2.109   0.782  1.5471  0.0330 -1.1218
 1016MOL0     H34054   7.252   1.960   0.874  0.7529 -2.5057 -1.0952
 1016MOL0     H34055   7.440   2.034   0.649 -0.8689  0.5195  0.3116
 1016MOL0     H34056   7.468   1.904   0.767 -0.1097 -0.2132 -0.4650
 1016MOL0     H34057   7.222   1.951   0.602  0.7831 -0.1732 -1.8221
 1016MOL0     H34058   7.240   1.798   0.679  2.3456 -1.9715 -0.3947
 1016MOL0     H34059   7.399   1.899   0.452 -0.8574  2.9833  2.2236
 1016MOL0     H34060   7.313   1.746   0.449 -0.4570  1.8394 -1.5232
 1016MOL0     H34061   7.555   1.691   0.463 -2.0532  0.4002  0.0244
 1016MOL0     H34062   7.567   1.817   0.601 -1.1915  2.8057 -0.5563
 1016MOL0     H34063   7.403   1.555   0.621 -1.4347  2.1483 -1.8835
 1016MOL0     H34064   7.452   1.669   0.749  0.0522  0.4672 -0.9094
 1016MOL0     H34065   7.580   1.402   0.509 -0.8915  0.1161  0.8539
 1016MOL0     H34066   7.727   1.217   0.505  0.9205  2.2158 -1.3455
 1016MOL0     H34067   7.763   1.162   0.665 -4.1387 -1.9243 -2.1462
 1016MOL0     H34068   7.956   1.166   0.512  0.1638 -1.4956  3.1690
 1016MOL0     H34069   7.981   1.276   0.662 -0.7737  1.3476  0.5299
 1016MOL0     H34070   7.961   1.346   0.384 -0.3390  4.1349 -1.0124
 1016MOL0     H34071   7.901   1.462   0.509  0.5826  1.7602 -0.8817
 1016MOL0     H34072   8.105   1.524   0.583  1.5874 -1.9134  1.1429
 1016MOL0     H34073   8.144   1.512   0.411  0.8814  3.1994  0.7463
 1016MOL0     H34074   8.301   1.594   0.534 -0.2566 -1.6661 -0.6896
 1016MOL0     H34075   8.541   1.667   0.541  0.8252 -0.0529 -1.7257
 1016MOL0     H34076   9.013   1.607   0.628  0.0036  0.6733 -4.7498
 1016MOL0     H34077   9.261   1.584   0.663 -0.6971  0.0120  0.4544
 1016MOL0     H34078   9.410   1.453   0.834 -0.2128  0.9808 -0.9774
 1016MOL0     H34079   9.464   1.554   0.703  0.5298  0.3525  0.6510
 1016MOL0     H34080   9.646   1.454   0.875  0.6007 -2.5241  1.0386
 1016MOL0     H34081   9.690   1.436   0.702  1.9272  0.7673  0.9098
 1016MOL0     H34082   9.741   1.233   0.807 -0.8449 -2.3171  1.9861
 1016MOL0     H34083   9.605   1.209   0.714  1.9809  1.6599 -2.8225
 1016MOL0     H34084   9.578   1.272   1.009 -2.2225  1.2066 -0.5869
 1016MOL0     H34085   9.457   1.217   0.880  0.1785 -1.5708  0.0663
 1016MOL0     H34086   9.678   1.036   0.903  0.7299 -1.3421  1.0609
 1016MOL0     H34087   9.504   1.011   0.905 -0.7605  2.2585  0.2790
 1016MOL0     H34088   9.661   1.113   1.144 -1.6949  1.1336  0.5732
 1016MOL0     H34089   9.625   0.946   1.120 -1.3096  0.6477  2.9563
 1016MOL0     H34090   9.466   1.083   1.283  0.3036  5.0926 -1.2882
 1016MOL0     H34091   9.382   1.148   1.146 -2.1458 -1.5092 -0.6543
 1016MOL0     H34092   9.352   0.949   1.024 -0.2656 -1.8513  0.2569
 1016MOL0     H34093   9.257   0.973   1.177  1.0480 -0.6946  3.6354
 1016MOL0     H34094   9.232   1.157   0.615  1.2810 -0.1618 -1.1612
 1016MOL0     H34095   8.999   1.178   0.583  0.2981 -0.5383  1.0893
 1016MOL0     H34096   8.647   1.249   0.592 -2.1891 -1.6516  0.2906
 1016MOL0     H34097   8.430   1.189   0.584  1.5282  0.0881 -0.9773
 1016MOL0     H34098   7.637   1.987   1.244  0.2581 -2.3547  1.2299
 1016MOL0     H34099   7.750   1.806   1.346  0.1586 -0.8001 -0.8494
 1016MOL0     H34100   7.637   1.200   1.379 -0.3349 -1.4397  1.0453
 1016MOL0     H34101   7.762   1.069   1.538 -1.0580  0.5323  2.4254
 1016MOL0     H34102   8.191   1.134   1.560 -2.6463 -0.9901 -2.0522
 1016MOL0     H34103   8.185   1.000   1.668 -2.0607 -0.9033 -0.4875
 1016MOL0     H34104   8.274   1.175   1.795  1.5298  0.2902 -2.1624
 1016MOL0     H34105   8.147   1.286   1.761  2.7011 -0.3115 -1.5113
 1016MOL0     H34106   8.180   1.128   1.977  0.3779  1.0067 -1.0202
 1016MOL0     H34107   8.061   1.021   1.888 -4.0749  0.9890  2.8677
 1016MOL0     H34108   7.930   1.238   1.855  1.7885  1.9692  0.1741
 1016MOL0     H34109   7.921   1.134   2.006  2.8269 -2.2265  0.5016
 1016MOL0     H34110   8.070   1.508   2.141  1.9446 -3.3615  3.7098
 1016MOL0     H34111   8.092   1.340   1.538  0.7105  0.6582 -0.5572
 1016MOL0     H34112   7.973   1.487   1.382  0.7080 -0.0675 -0.7857
 1017MOL0     O34113   9.241   7.753   6.822 -0.9235 -1.0810  0.0883
 1017MOL0     C34114   9.239   7.697   6.713 -0.1585  1.4491  0.5717
 1017MOL0     O34115   9.344   7.650   6.642 -0.1018  0.5097  0.3863
 1017MOL0     C34116   9.456   7.645   6.718 -0.5442  0.7445 -0.0029
 1017MOL0     C34117   9.530   7.758   6.737 -0.4961 -0.6502 -0.8794
 1017MOL0     C34118   9.642   7.750   6.821  0.5697  0.3740  0.8588
 1017MOL0     C34119   9.686   7.627   6.882 -0.2441 -0.2723  0.9785
 1017MOL0     O34120   9.795   7.608   6.971 -0.0937 -1.2047  0.6323
 1017MOL0     C34121   9.823   7.716   7.054 -0.0815  0.2158  0.1308
 1017MOL0     C34122   9.895   7.657   7.173 -0.3471 -0.1495 -0.2237
 1017MOL0     C34123  10.027   7.591   7.127 -0.3187 -0.2657 -0.2051
 1017MOL0     C34124  10.121   7.539   7.250  0.8910  0.3331  0.5806
 1017MOL0     C34125  10.250   7.463   7.205  0.3507  0.1297  1.2311
 1017MOL0     C34126  10.338   7.539   7.104  0.0750  0.0184 -0.2513
 1017MOL0     C34127  10.445   7.443   7.049 -0.1396 -0.2720  0.2421
 1017MOL0     C34128  10.508   7.508   6.917 -0.2767 -1.0172  0.7402
 1017MOL0     N34129  10.629   7.436   6.882 -0.3746 -1.0269  0.0913
 1017MOL0     C34130  10.758   7.482   6.900 -0.6295 -0.7099 -0.6227
 1017MOL0     C34131  10.837   7.384   6.843 -0.8359 -0.0228  0.9646
 1017MOL0     C34132  10.982   7.392   6.858 -0.7088 -0.6037  0.0587
 1017MOL0     C34133  11.074   7.303   6.772 -0.4750  0.1014  0.2171
 1017MOL0     C34134  11.036   7.302   6.626  1.1083  0.0002 -0.4890
 1017MOL0     C34135  11.150   7.259   6.546  0.8216  0.5324 -1.4874
 1017MOL0     O34136  11.182   7.124   6.583 -0.1155  0.1581 -0.5354
 1017MOL0     C34137  11.311   7.083   6.581  1.0375 -0.0947  0.1351
 1017MOL0     C34138  11.367   6.996   6.672 -0.4220  1.0797  0.5685
 1017MOL0     C34139  11.508   6.964   6.679  0.8734 -0.2244 -0.8036
 1017MOL0     C34140  11.593   7.012   6.585 -0.9203 -0.1120 -0.2353
 1017MOL0     C34141  11.731   6.966   6.575 -0.1737  0.6287  0.1561
 1017MOL0     O34142  11.792   6.895   6.676  0.1722 -0.3117  0.6937
 1017MOL0     C34143  11.920   6.849   6.649  0.1567 -0.1993  0.3143
 1017MOL0     C34144  12.026   6.937   6.671  0.1858 -0.0332  1.0859
 1017MOL0     C34145  12.152   6.907   6.631 -0.1991 -0.1591  0.6172
 1017MOL0     C34146  12.168   6.780   6.575 -0.4114 -0.5200 -0.9286
 1017MOL0     O34147  12.292   6.742   6.531  0.0903 -0.3413  0.3979
 1017MOL0     C34148  12.407   6.833   6.523 -0.3837  0.0998 -0.3483
 1017MOL0     C34149  12.503   6.774   6.426 -0.7037  0.4004  0.3352
 1017MOL0     C34150  12.638   6.837   6.430  0.4709 -0.4153 -0.5170
 1017MOL0     C34151  12.748   6.777   6.346 -0.2148 -0.3699 -0.4142
 1017MOL0     C34152  12.876   6.856   6.352  1.1142 -0.3451  0.9571
 1017MOL0     C34153  12.991   6.782   6.285 -0.4935  0.0665  0.1955
 1017MOL0     C34154  13.109   6.884   6.263 -0.3587 -0.2378  0.3719
 1017MOL0     C34155  13.198   6.923   6.384  0.7566  0.0507  0.8811
 1017MOL0    Cl34156  13.270   6.764   6.411 -0.2063 -0.1075 -0.1709
 1017MOL0     C34157  12.067   6.694   6.554  0.2739  0.5876 -0.1593
 1017MOL0     C34158  11.937   6.733   6.583  0.2146  0.0441 -0.0735
 1017MOL0     O34159  11.778   6.972   6.463  0.0789 -0.2184  0.6493
 1017MOL0     C34160  11.539   7.094   6.491  0.4824 -0.1251 -0.0565
 1017MOL0     C34161  11.400   7.131   6.484 -0.2911 -0.2592 -0.3462
 1017MOL0     N34162  10.747   7.284   6.797 -0.0234  0.3017 -0.0291
 1017MOL0     N34163  10.630   7.312   6.824  0.1939  0.2039 -0.1439
 1017MOL0     C34164   9.612   7.515   6.841 -0.4159  0.2264 -0.2712
 1017MOL0     C34165   9.492   7.521   6.770  0.0855  0.1956 -1.2234
 1017MOL0     C34166   9.118   7.706   6.626  0.4191  0.0618  0.0199
 1017MOL0     C34167   9.110   7.658   6.494 -0.5374 -0.0016 -0.0933
 1017MOL0     C34168   8.987   7.647   6.422 -0.4602  0.0073  0.4604
 1017MOL0     C34169   8.881   7.721   6.462 -0.3078 -0.3526 -0.0441
 1017MOL0     O34170   8.771   7.717   6.384  0.0721 -0.0217  0.4505
 1017MOL0     C34171   8.644   7.682   6.445 -1.2169  0.6237 -0.3681
 1017MOL0     C34172   8.541   7.738   6.362  0.6060 -0.3817  0.3476
 1017MOL0     C34173   8.521   7.672   6.224  0.0162 -0.2684  0.2647
 1017MOL0     C34174   8.398   7.721   6.148  0.0249 -0.0100  0.0769
 1017MOL0     C34175   8.282   7.625   6.144  0.0362 -0.6988  0.1956
 1017MOL0     C34176   8.192   7.548   6.151  1.4177 -0.8902 -0.8776
 1017MOL0     C34177   8.892   7.793   6.587 -0.7320 -0.8765  0.1568
 1017MOL0     C34178   9.004   7.777   6.668 -0.0132  0.3781 -0.0783
 1017MOL0     H34179   9.513   7.858   6.698 -2.9344 -1.0204 -0.9224
 1017MOL0     H34180   9.708   7.834   6.843  0.3529  0.9336 -0.5459
 1017MOL0     H34181   9.728   7.767   7.075 -0.0872  0.5250 -0.6411
 1017MOL0     H34182   9.887   7.791   7.009  1.2620 -1.0958 -0.2192
 1017MOL0     H34183   9.850   7.580   7.236 -2.3027  1.7935  0.9126
 1017MOL0     H34184   9.909   7.744   7.238 -4.2484  2.7685 -2.7905
 1017MOL0     H34185  10.080   7.668   7.070 -1.2537  3.4944  3.4722
 1017MOL0     H34186  10.013   7.507   7.059  1.1864 -2.4108  1.9516
 1017MOL0     H34187  10.150   7.629   7.304  2.2557 -1.3940  2.9137
 1017MOL0     H34188  10.063   7.476   7.319  0.2506  1.7711  1.4098
 1017MOL0     H34189  10.218   7.373   7.152 -1.9164  0.4021  2.0129
 1017MOL0     H34190  10.318   7.443   7.288  2.6560  1.3989 -0.2634
 1017MOL0     H34191  10.378   7.627   7.155  1.3685  0.3836 -1.8154
 1017MOL0     H34192  10.274   7.572   7.023 -0.6105 -0.2242  0.1802
 1017MOL0     H34193  10.521   7.435   7.128 -0.6806  1.4588  1.0002
 1017MOL0     H34194  10.400   7.348   7.020  0.0113 -0.0315 -0.7886
 1017MOL0     H34195  10.517   7.616   6.928  0.0851 -0.7385 -1.6835
 1017MOL0     H34196  10.453   7.501   6.822  1.3742 -2.3705 -0.1795
 1017MOL0     H34197  10.794   7.575   6.942  0.8629 -0.9179 -1.3789
 1017MOL0     H34198  11.000   7.369   6.963  0.0744  1.6469  0.4825
 1017MOL0     H34199  11.015   7.496   6.851  0.5620 -1.0354 -0.5688
 1017MOL0     H34200  11.076   7.197   6.797 -2.9341 -0.7304 -2.5063
 1017MOL0     H34201  11.171   7.352   6.781 -0.2088 -0.2488 -0.6552
 1017MOL0     H34202  10.960   7.227   6.603  2.7202 -1.3097 -1.8557
 1017MOL0     H34203  10.999   7.399   6.593  1.8812  0.7571  0.7735
 1017MOL0     H34204  11.224   7.338   6.563  0.2811  0.6695  0.5522
 1017MOL0     H34205  11.131   7.258   6.439  1.6191 -0.9362 -1.6352
 1017MOL0     H34206  11.293   6.961   6.743 -3.9211 -0.4411 -3.4184
 1017MOL0     H34207  11.546   6.910   6.765  0.6900 -0.0990 -0.6408
 1017MOL0     H34208  12.009   7.036   6.714  0.9676 -0.4435  2.4262
 1017MOL0     H34209  12.231   6.975   6.661 -0.6434  0.3641  0.6124
 1017MOL0     H34210  12.460   6.835   6.619 -0.3617 -0.6849 -0.3401
 1017MOL0     H34211  12.381   6.934   6.490  1.0165  0.0354 -1.7500
 1017MOL0     H34212  12.460   6.793   6.327  1.6043 -0.4075 -0.8822
 1017MOL0     H34213  12.512   6.667   6.447  1.5017  0.0246 -2.0948
 1017MOL0     H34214  12.676   6.841   6.532  1.4358  0.8025 -0.9002
 1017MOL0     H34215  12.634   6.943   6.403  2.2479  0.4135  2.0919
 1017MOL0     H34216  12.764   6.674   6.378  3.1673  0.6896  1.8084
 1017MOL0     H34217  12.720   6.773   6.240 -2.5519 -0.3009  0.1346
 1017MOL0     H34218  12.893   6.884   6.456  1.7425  0.4935  0.6448
 1017MOL0     H34219  12.858   6.951   6.300  0.9433  0.4409  2.3909
 1017MOL0     H34220  12.967   6.753   6.182 -1.0555  2.9022 -0.5677
 1017MOL0     H34221  13.027   6.704   6.351  2.3726  1.7132  0.7369
 1017MOL0     H34222  13.174   6.826   6.197 -0.2938  1.5185 -1.1937
 1017MOL0     H34223  13.082   6.972   6.204  1.5938 -0.3732 -0.7945
 1017MOL0     H34224  13.152   6.961   6.476  0.7278  0.4062  0.7191
 1017MOL0     H34225  13.278   6.989   6.352 -2.8676  3.0975 -3.0310
 1017MOL0     H34226  12.094   6.605   6.498  1.7906  0.2884  0.9728
 1017MOL0     H34227  11.854   6.668   6.558  0.7689 -0.6021 -0.2705
 1017MOL0     H34228  11.598   7.130   6.407 -1.5058  2.2900 -0.5470
 1017MOL0     H34229  11.368   7.197   6.404 -0.1760  0.0365 -0.1517
 1017MOL0     H34230   9.640   7.423   6.893 -3.3605  0.1495  1.4732
 1017MOL0     H34231   9.435   7.428   6.765 -1.7361  1.2291 -0.8452
 1017MOL0     H34232   9.198   7.620   6.442  0.9724  0.8032  1.7501
 1017MOL0     H34233   9.007   7.589   6.332  0.4773  1.5204 -0.3606
 1017MOL0     H34234   8.642   7.722   6.546  0.0298 -0.1532 -0.0167
 1017MOL0     H34235   8.638   7.575   6.467 -1.3712  0.7666  0.3083
 1017MOL0     H34236   8.445   7.720   6.413  0.6885 -2.5716 -0.1984
 1017MOL0     H34237   8.555   7.847   6.356  0.1488 -0.4033 -2.7354
 1017MOL0     H34238   8.503   7.567   6.250  1.3601 -0.4450  0.5389
 1017MOL0     H34239   8.613   7.667   6.166  1.0048 -0.6909  1.8010
 1017MOL0     H34240   8.367   7.809   6.206  2.0666  0.3552  0.6881
 1017MOL0     H34241   8.430   7.759   6.051 -1.0754  0.3843 -0.1513
 1017MOL0     H34242   8.108   7.484   6.169  1.5234 -1.5188 -2.4611
 1017MOL0     H34243   8.809   7.862   6.602  0.4317  1.1475 -2.0751
 1017MOL0     H34244   8.999   7.823   6.766 -1.7080 -1.5846  0.8345
 1018MOL0     O34245   8.344   4.809   1.656  0.2624 -1.0307 -0.4358
 1018MOL0     C34246   8.296   4.828   1.771 -1.0051  0.6383  0.8687
 1018MOL0     O34247   8.168   4.798   1.813 -0.0521 -0.2143 -0.9776
 1018MOL0     C34248   8.078   4.754   1.716 -0.6390 -0.3609 -0.2887
 1018MOL0     C34249   8.015   4.842   1.633  0.2624  0.2944  0.1578
 1018MOL0     C34250   7.930   4.795   1.530  0.6765 -0.4767 -0.1714
 1018MOL0     C34251   7.888   4.652   1.527 -1.7225 -0.9098 -0.0011
 1018MOL0     O34252   7.801   4.596   1.443  0.3543  0.2285  0.1549
 1018MOL0     C34253   7.675   4.676   1.426  0.5798  0.5499 -0.2108
 1018MOL0     C34254   7.564   4.594   1.367 -0.1557  0.4856  0.9589
 1018MOL0     C34255   7.518   4.500   1.475 -0.2191 -0.6945 -0.5467
 1018MOL0     C34256   7.618   4.396   1.537  0.1792 -0.2256  0.6252
 1018MOL0     C34257   7.538   4.280   1.595 -0.1157  0.5000 -0.3557
 1018MOL0     C34258   7.528   4.153   1.503 -0.4705 -0.6546 -0.1470
 1018MOL0     C34259   7.509   4.028   1.586 -0.1832  0.4003  0.3353
 1018MOL0     C34260   7.458   3.907   1.514  0.2822 -1.0596  0.5949
 1018MOL0     N34261   7.472   3.793   1.605 -0.5156 -0.7272  0.0145
 1018MOL0     C34262   7.517   3.670   1.557  0.3752 -1.2361 -0.5507
 1018MOL0     C34263   7.496   3.583   1.656  0.0969  0.4568 -0.0174
 1018MOL0     C34264   7.528   3.431   1.651  0.3279  0.4893 -0.6998
 1018MOL0     C34265   7.417   3.353   1.569 -1.0516  0.5059 -0.2405
 1018MOL0     C34266   7.468   3.201   1.551  0.1338 -0.4991  0.2733
 1018MOL0     C34267   7.562   3.203   1.433 -0.0037  0.1787 -0.4206
 1018MOL0     O34268   7.621   3.067   1.434 -0.3328 -0.5649 -0.3452
 1018MOL0     C34269   7.723   3.033   1.347 -0.6352 -0.3454  0.0174
 1018MOL0     C34270   7.796   2.917   1.374 -1.0643 -0.0374 -0.0361
 1018MOL0     C34271   7.911   2.881   1.303 -0.4824  0.1187 -0.5994
 1018MOL0     C34272   7.953   2.961   1.194  0.1518 -1.2562  0.6267
 1018MOL0     C34273   8.092   2.946   1.134 -0.8756  0.1580 -0.2416
 1018MOL0     O34274   8.156   2.826   1.160 -0.2535 -0.2166 -0.0439
 1018MOL0     C34275   8.266   2.776   1.093 -0.1823 -0.1889  0.6172
 1018MOL0     C34276   8.375   2.726   1.166  0.6828 -0.2289 -0.0190
 1018MOL0     C34277   8.488   2.669   1.098  0.5371 -0.5338  0.4943
 1018MOL0     C34278   8.501   2.685   0.960 -0.4065  0.6546  0.9177
 1018MOL0     O34279   8.609   2.623   0.903  0.3276 -0.6101  0.0975
 1018MOL0     C34280   8.632   2.651   0.763  0.2804  0.0083  0.0763
 1018MOL0     C34281   8.720   2.553   0.696 -1.5284  0.4909  0.3765
 1018MOL0     C34282   8.697   2.410   0.723 -0.4486  0.0060 -0.7869
 1018MOL0     C34283   8.793   2.326   0.634 -0.8348  0.4889  0.7863
 1018MOL0     C34284   8.824   2.184   0.678  0.3397 -0.6033  0.6375
 1018MOL0     C34285   8.707   2.098   0.728  0.9726  0.1110 -0.0828
 1018MOL0     C34286   8.741   1.958   0.769  0.0766 -0.1771 -0.6076
 1018MOL0     C34287   8.615   1.884   0.830 -0.9813 -0.2354  0.2438
 1018MOL0    Cl34288   8.586   1.962   0.995 -0.2266 -0.2868 -0.0425
 1018MOL0     C34289   8.403   2.753   0.893  0.1619 -0.2797  0.1464
 1018MOL0     C34290   8.285   2.799   0.958 -0.4631  0.1921 -0.1611
 1018MOL0     O34291   8.141   3.041   1.075  0.5206  0.0707  0.0592
 1018MOL0     C34292   7.874   3.070   1.159  0.4117  0.0239  0.2022
 1018MOL0     C34293   7.758   3.106   1.237 -0.4944  0.2470  0.3416
 1018MOL0     N34294   7.437   3.653   1.763 -0.3977  0.0632  0.0059
 1018MOL0     N34295   7.423   3.777   1.730  0.0064 -0.6889 -0.2083
 1018MOL0     C34296   7.952   4.561   1.618  0.6422 -0.1960  0.2977
 1018MOL0     C34297   8.048   4.615   1.708  0.2693  0.4453 -0.4886
 1018MOL0     C34298   8.375   4.891   1.877  0.2055 -0.1827 -0.3977
 1018MOL0     C34299   8.324   4.968   1.987 -1.0727  0.9889  0.9515
 1018MOL0     C34300   8.411   5.012   2.088 -0.9812  0.0955  0.2468
 1018MOL0     C34301   8.551   5.002   2.073 -0.2232  0.2385 -0.4386
 1018MOL0     O34302   8.634   5.060   2.171  0.0417  0.2296  0.2030
 1018MOL0     C34303   8.694   4.954   2.251  0.3882 -0.0672  0.0827
 1018MOL0     C34304   8.795   5.018   2.345  0.5768 -0.1990  0.3692
 1018MOL0     C34305   8.913   5.090   2.282  0.5396  0.3562  0.1295
 1018MOL0     C34306   9.012   5.147   2.384  0.4212  0.5518 -0.6532
 1018MOL0     C34307   8.965   5.271   2.443 -0.7208 -0.9188 -0.6780
 1018MOL0     C34308   8.945   5.380   2.482 -0.0119 -0.8455 -0.2380
 1018MOL0     C34309   8.598   4.933   1.966 -0.2595  0.3209  0.3441
 1018MOL0     C34310   8.517   4.890   1.865  0.1918  0.4459  0.5387
 1018MOL0     H34311   8.037   4.945   1.657 -0.5549  0.1792  1.5676
 1018MOL0     H34312   7.866   4.862   1.474 -1.1025  0.5548  2.8424
 1018MOL0     H34313   7.688   4.762   1.359  3.5247  0.3926  0.0217
 1018MOL0     H34314   7.645   4.712   1.525 -0.8880 -0.3132 -0.3038
 1018MOL0     H34315   7.610   4.535   1.288 -2.2810  1.0080 -0.7466
 1018MOL0     H34316   7.485   4.651   1.318 -0.9219 -0.2932  1.2424
 1018MOL0     H34317   7.442   4.440   1.425  0.0114 -1.1182 -0.3938
 1018MOL0     H34318   7.482   4.556   1.562  2.5951  3.4888 -1.7716
 1018MOL0     H34319   7.685   4.362   1.458 -3.1394 -0.9733 -2.1242
 1018MOL0     H34320   7.683   4.434   1.616  0.8693  0.6107 -0.3201
 1018MOL0     H34321   7.440   4.319   1.623 -1.1041 -3.0221  1.6413
 1018MOL0     H34322   7.581   4.255   1.692 -0.3302  2.0548  0.1706
 1018MOL0     H34323   7.625   4.145   1.452  1.6470  2.8389  2.8193
 1018MOL0     H34324   7.451   4.178   1.430  0.9081  2.0002 -0.8166
 1018MOL0     H34325   7.600   4.001   1.641  0.3955  1.0127 -0.3082
 1018MOL0     H34326   7.440   4.033   1.671 -0.9830 -2.5982 -0.0205
 1018MOL0     H34327   7.525   3.902   1.428  0.6811  0.4933  0.7844
 1018MOL0     H34328   7.351   3.914   1.492  0.3651  2.6996  0.6387
 1018MOL0     H34329   7.551   3.661   1.454 -0.7252  0.9038 -1.1561
 1018MOL0     H34330   7.529   3.386   1.751 -2.5895  1.5629 -0.0932
 1018MOL0     H34331   7.629   3.424   1.611 -0.1155  1.4641 -2.0659
 1018MOL0     H34332   7.398   3.404   1.474 -1.2801 -0.7158 -0.8699
 1018MOL0     H34333   7.317   3.357   1.614 -0.5851 -0.2131  0.9081
 1018MOL0     H34334   7.519   3.180   1.646 -1.2085  1.6143  1.5191
 1018MOL0     H34335   7.389   3.128   1.529 -0.3443 -0.2630  1.1511
 1018MOL0     H34336   7.638   3.280   1.445 -0.8826  0.8945  0.8059
 1018MOL0     H34337   7.497   3.227   1.348  0.6170 -0.4321 -1.0751
 1018MOL0     H34338   7.782   2.850   1.457  0.0743  0.2781  0.4379
 1018MOL0     H34339   7.968   2.792   1.327 -4.3680 -2.6732 -0.6993
 1018MOL0     H34340   8.367   2.716   1.274 -0.1555 -3.9094 -0.2592
 1018MOL0     H34341   8.562   2.611   1.152  2.3142 -0.0529 -1.3375
 1018MOL0     H34342   8.665   2.753   0.743 -1.0876  0.0484 -2.2554
 1018MOL0     H34343   8.537   2.640   0.711  1.0130 -1.5589 -1.0229
 1018MOL0     H34344   8.820   2.586   0.727  0.6225 -0.2472 -4.6531
 1018MOL0     H34345   8.722   2.564   0.587  2.5836 -1.9948 -0.0106
 1018MOL0     H34346   8.588   2.398   0.717 -0.4340  0.0380 -1.1375
 1018MOL0     H34347   8.722   2.394   0.828  2.9344  1.6520 -1.2131
 1018MOL0     H34348   8.733   2.317   0.543 -2.5496 -0.4740  1.9610
 1018MOL0     H34349   8.880   2.387   0.607 -0.6880  0.0566  0.2719
 1018MOL0     H34350   8.905   2.183   0.753  2.1004 -0.9190 -1.1862
 1018MOL0     H34351   8.864   2.134   0.590  0.0350 -1.6456  1.0768
 1018MOL0     H34352   8.621   2.106   0.661  1.5958  3.1257 -0.6945
 1018MOL0     H34353   8.669   2.155   0.814  0.9388  0.8703 -0.5950
 1018MOL0     H34354   8.782   1.894   0.690  1.8430  1.6331 -1.2348
 1018MOL0     H34355   8.825   1.956   0.839  1.6358  1.4235 -2.3416
 1018MOL0     H34356   8.643   1.780   0.853  3.4929  0.9076  0.8483
 1018MOL0     H34357   8.533   1.894   0.758 -0.3140  2.3468 -0.2417
 1018MOL0     H34358   8.401   2.776   0.787  1.8450 -2.7058 -0.4911
 1018MOL0     H34359   8.191   2.836   0.917 -0.4399  2.3124  1.5524
 1018MOL0     H34360   7.913   3.127   1.075 -1.4001 -0.9066 -1.3519
 1018MOL0     H34361   7.702   3.195   1.212 -1.1186 -0.4027 -0.6085
 1018MOL0     H34362   7.926   4.456   1.623  1.5814 -0.6557 -2.4596
 1018MOL0     H34363   8.086   4.549   1.786  2.0637  2.2225  0.2409
 1018MOL0     H34364   8.216   4.975   1.973 -1.2727 -0.9716  1.2311
 1018MOL0     H34365   8.369   5.063   2.174 -1.6044  0.6539 -0.3790
 1018MOL0     H34366   8.746   4.879   2.190  0.8282 -0.4969  0.9643
 1018MOL0     H34367   8.619   4.907   2.315  0.8118  3.9129  4.0075
 1018MOL0     H34368   8.740   5.091   2.405  4.6733  1.6926  2.2212
 1018MOL0     H34369   8.828   4.939   2.413 -2.2414 -1.9145 -0.0563
 1018MOL0     H34370   8.866   5.170   2.224 -2.7838  0.1328  2.2249
 1018MOL0     H34371   8.956   5.012   2.219 -5.2243 -1.2357 -2.5286
 1018MOL0     H34372   9.027   5.076   2.466 -1.5048 -0.2552 -0.9377
 1018MOL0     H34373   9.113   5.155   2.343  0.5889  2.5077  0.0518
 1018MOL0     H34374   8.947   5.482   2.516  1.4817 -0.7029 -0.6805
 1018MOL0     H34375   8.706   4.936   1.963 -0.2228  0.5720  1.5330
 1018MOL0     H34376   8.560   4.834   1.783  2.1456  1.4951  0.8006
 1019MOL0     O34377   0.723  11.123   0.263  0.1544 -0.6990  0.2511
 1019MOL0     C34378   0.783  11.017   0.241 -0.9433  0.1174 -0.5070
 1019MOL0     O34379   0.816  10.955   0.117  0.1914 -1.2571  0.6447
 1019MOL0     C34380   0.782  11.014  -0.004  0.0950 -0.5517  0.2496
 1019MOL0     C34381   0.664  11.080  -0.021  0.3039  0.3242  0.4150
 1019MOL0     C34382   0.618  11.118  -0.150  0.4206  0.4436 -0.5328
 1019MOL0     C34383   0.696  11.103  -0.264  0.1265  0.3285  0.4760
 1019MOL0     O34384   0.664  11.134  -0.392 -0.4959  0.3439 -0.4032
 1019MOL0     C34385   0.560  11.221  -0.413 -0.4502  0.2840 -0.6518
 1019MOL0     C34386   0.558  11.279  -0.563 -0.4680 -0.1556  0.6822
 1019MOL0     C34387   0.678  11.369  -0.592  0.2279  0.2556 -0.2090
 1019MOL0     C34388   0.682  11.500  -0.500  0.0660 -0.5129  0.1839
 1019MOL0     C34389   0.813  11.581  -0.493 -0.1669 -0.8570 -0.4761
 1019MOL0     C34390   0.903  11.537  -0.384  0.5327  0.6603 -0.8564
 1019MOL0     C34391   1.011  11.425  -0.417  0.3666 -0.3056 -0.0792
 1019MOL0     C34392   1.005  11.315  -0.314 -0.0881 -0.1060  0.3240
 1019MOL0     N34393   1.023  11.362  -0.184 -0.3810  0.4701  0.2634
 1019MOL0     C34394   0.949  11.343  -0.068  0.1633 -0.0247  1.2486
 1019MOL0     C34395   1.028  11.379   0.032 -0.4857 -0.7687  0.7230
 1019MOL0     C34396   0.979  11.380   0.172 -0.1101  0.4530  0.4647
 1019MOL0     C34397   1.089  11.335   0.269 -0.6933 -0.1841  0.4724
 1019MOL0     C34398   1.111  11.180   0.256 -0.3480 -0.0345 -0.6014
 1019MOL0     C34399   1.252  11.146   0.287  0.4214 -0.6244  0.0300
 1019MOL0     O34400   1.271  11.013   0.292 -0.0653  0.1851  0.2540
 1019MOL0     C34401   1.396  10.957   0.318 -1.1613  0.2546  0.2883
 1019MOL0     C34402   1.527  11.018   0.314  0.0211 -1.7051  0.7274
 1019MOL0     C34403   1.636  10.939   0.327 -0.4489 -0.2000 -0.3723
 1019MOL0     C34404   1.624  10.794   0.339 -0.3458  0.0918  0.0297
 1019MOL0     C34405   1.750  10.705   0.348  0.2850  0.8963  0.7238
 1019MOL0     O34406   1.722  10.581   0.381 -0.3572 -0.7000  0.0229
 1019MOL0     C34407   1.822  10.492   0.397 -0.0838  0.1433  0.2217
 1019MOL0     C34408   1.898  10.452   0.289 -0.4964  0.1201 -0.1885
 1019MOL0     C34409   1.992  10.347   0.287 -1.2219  0.4144  0.1230
 1019MOL0     C34410   1.997  10.264   0.404 -0.2107 -0.0094 -0.0021
 1019MOL0     O34411   2.078  10.150   0.406  0.3849  0.4073 -0.2167
 1019MOL0     C34412   2.222  10.173   0.419  1.1224 -0.1286 -0.3088
 1019MOL0     C34413   2.266  10.217   0.560  0.2586 -0.1218 -0.3660
 1019MOL0     C34414   2.219  10.137   0.679  0.3508 -0.3929  0.1039
 1019MOL0     C34415   2.265  10.204   0.809 -0.5080 -0.9871 -0.4787
 1019MOL0     C34416   2.192  10.127   0.923  0.6932 -0.5271  0.5106
 1019MOL0     C34417   2.051  10.178   0.939  0.7708 -0.5495 -1.2202
 1019MOL0     C34418   1.968  10.086   1.039  0.0477  0.2408  0.0381
 1019MOL0     C34419   1.820  10.093   1.006  0.2621 -1.4197 -0.4684
 1019MOL0    Cl34420   1.780   9.998   0.855 -0.1649  0.2965 -0.0395
 1019MOL0     C34421   1.912  10.299   0.510  0.2684  0.2495 -0.3551
 1019MOL0     C34422   1.832  10.408   0.508 -0.1985 -0.5090  0.2426
 1019MOL0     O34423   1.859  10.757   0.335 -0.4743  0.0042  0.6461
 1019MOL0     C34424   1.500  10.740   0.350  0.5903 -0.8477 -0.5565
 1019MOL0     C34425   1.382  10.822   0.339 -0.2737  0.2981 -0.6684
 1019MOL0     N34426   1.137  11.442  -0.022  0.4064 -0.4388  0.5013
 1019MOL0     N34427   1.141  11.421  -0.142 -0.0971 -0.1236 -0.0360
 1019MOL0     C34428   0.818  11.036  -0.254  0.3421  0.2100  0.9414
 1019MOL0     C34429   0.863  11.001  -0.121  0.7472  0.6390 -0.2067
 1019MOL0     C34430   0.836  10.933   0.360  0.4930 -0.9025 -0.3412
 1019MOL0     C34431   0.792  10.971   0.491  0.1844  0.1853  0.4164
 1019MOL0     C34432   0.841  10.906   0.603  0.0656 -0.2734  0.4848
 1019MOL0     C34433   0.941  10.809   0.586  0.5555  1.2589  0.4829
 1019MOL0     O34434   0.996  10.737   0.698 -0.1364 -0.2061  0.9272
 1019MOL0     C34435   0.946  10.763   0.831  0.0213  0.4365  0.2445
 1019MOL0     C34436   0.809  10.711   0.861 -0.0238 -0.4348 -0.1104
 1019MOL0     C34437   0.806  10.549   0.848 -0.4626 -0.4161  0.7113
 1019MOL0     C34438   0.660  10.496   0.864  0.5817 -0.7437  0.2019
 1019MOL0     C34439   0.578  10.504   0.741  0.0574 -0.3813 -0.1702
 1019MOL0     C34440   0.532  10.528   0.633 -0.1319 -0.2086  0.6716
 1019MOL0     C34441   0.977  10.765   0.460  0.4960 -0.0079  0.8522
 1019MOL0     C34442   0.922  10.824   0.345  0.1137  0.3983 -0.4413
 1019MOL0     H34443   0.597  11.095   0.063  0.0855  2.8129 -0.1230
 1019MOL0     H34444   0.517  11.153  -0.168 -0.8617 -3.7757 -3.1574
 1019MOL0     H34445   0.581  11.294  -0.334  5.8581 -2.9188  1.3448
 1019MOL0     H34446   0.472  11.162  -0.383  1.5693 -1.7970  1.7049
 1019MOL0     H34447   0.462  11.317  -0.601 -0.4957  0.7277  1.5903
 1019MOL0     H34448   0.569  11.193  -0.630 -0.8823 -3.9640  5.0603
 1019MOL0     H34449   0.678  11.407  -0.695 -3.9874  1.1678 -0.0436
 1019MOL0     H34450   0.769  11.310  -0.580 -0.5981 -1.1768 -0.7846
 1019MOL0     H34451   0.599  11.558  -0.541  0.7138 -0.1305 -0.5909
 1019MOL0     H34452   0.666  11.481  -0.393 -0.7560  2.7292  0.7392
 1019MOL0     H34453   0.773  11.683  -0.487  0.4072 -0.5464 -1.7533
 1019MOL0     H34454   0.869  11.588  -0.587 -0.5897 -0.9694 -0.7397
 1019MOL0     H34455   0.844  11.510  -0.296  0.6194 -3.2187 -1.8100
 1019MOL0     H34456   0.953  11.625  -0.344  1.6583 -0.7208  0.9549
 1019MOL0     H34457   0.984  11.384  -0.514 -0.0451 -1.7986  0.6304
 1019MOL0     H34458   1.111  11.468  -0.425  1.4240 -2.4087  1.0422
 1019MOL0     H34459   1.084  11.245  -0.344 -1.2136 -1.4933  0.4471
 1019MOL0     H34460   0.907  11.266  -0.318 -0.2539 -0.3486  4.0463
 1019MOL0     H34461   0.848  11.302  -0.062  0.4445 -1.2864 -1.2537
 1019MOL0     H34462   0.899  11.305   0.175  1.8093 -1.9183 -2.1841
 1019MOL0     H34463   0.939  11.479   0.195 -0.8517  0.0760  0.8537
 1019MOL0     H34464   1.049  11.360   0.368 -3.0194 -1.0546 -0.1817
 1019MOL0     H34465   1.180  11.390   0.244  0.0855 -2.1297 -1.2368
 1019MOL0     H34466   1.044  11.129   0.326 -0.6597  1.1250 -0.0261
 1019MOL0     H34467   1.093  11.141   0.155  1.5615  0.5315 -1.2179
 1019MOL0     H34468   1.286  11.182   0.385 -0.9094 -0.0205  0.2966
 1019MOL0     H34469   1.316  11.196   0.215 -0.9277  0.2358 -0.6246
 1019MOL0     H34470   1.522  11.123   0.286  0.7974 -1.7420  0.4109
 1019MOL0     H34471   1.733  10.982   0.309 -1.3954  1.7175 -1.2045
 1019MOL0     H34472   1.883  10.500   0.193 -0.5157 -2.5245 -1.6070
 1019MOL0     H34473   2.051  10.328   0.198 -1.7738  4.3745 -1.3058
 1019MOL0     H34474   2.260  10.236   0.338 -1.3984  2.5103  0.4092
 1019MOL0     H34475   2.269  10.077   0.398 -0.3361 -0.8342 -0.4911
 1019MOL0     H34476   2.216  10.315   0.555  1.7871  0.6786 -0.7413
 1019MOL0     H34477   2.374  10.217   0.571  0.5442 -1.3102 -2.5508
 1019MOL0     H34478   2.265  10.038   0.675 -3.3859 -2.2926 -0.3148
 1019MOL0     H34479   2.110  10.129   0.673  0.1693  1.2297  0.6544
 1019MOL0     H34480   2.374  10.190   0.811  0.0294  1.5320 -3.3642
 1019MOL0     H34481   2.242  10.311   0.818  0.3486 -0.9570  2.3206
 1019MOL0     H34482   2.251  10.145   1.012  0.7865 -0.8446  0.5125
 1019MOL0     H34483   2.186  10.022   0.893 -0.2707 -0.2231 -0.4451
 1019MOL0     H34484   2.001  10.190   0.843 -1.6960  0.2914  0.0790
 1019MOL0     H34485   2.051  10.285   0.963  2.5366 -0.5459 -1.0593
 1019MOL0     H34486   1.997   9.981   1.033  0.5770  0.1525  2.8177
 1019MOL0     H34487   1.990  10.114   1.143 -0.1669 -2.1472  0.7780
 1019MOL0     H34488   1.779  10.194   0.998  0.8305 -1.2268 -1.1158
 1019MOL0     H34489   1.758  10.048   1.084  1.4796 -0.5084  1.1001
 1019MOL0     H34490   1.928  10.232   0.595  1.7165  0.7960 -0.1593
 1019MOL0     H34491   1.776  10.434   0.597  1.6233  0.5346  1.1386
 1019MOL0     H34492   1.492  10.633   0.368 -1.4216 -0.7546 -0.6160
 1019MOL0     H34493   1.288  10.768   0.347 -0.8812  1.4106 -0.1115
 1019MOL0     H34494   0.884  11.023  -0.339 -2.6473 -0.9643 -1.3766
 1019MOL0     H34495   0.957  10.946  -0.118 -0.6410 -1.8735  0.0463
 1019MOL0     H34496   0.715  11.046   0.504 -1.2324 -1.3187  1.1349
 1019MOL0     H34497   0.813  10.947   0.700  3.0357 -2.1166  2.2686
 1019MOL0     H34498   0.949  10.872   0.838  0.1194  0.8454 -3.6451
 1019MOL0     H34499   1.019  10.725   0.902 -0.9678  0.2397  1.1919
 1019MOL0     H34500   0.797  10.743   0.965 -1.0690 -1.7143  0.2081
 1019MOL0     H34501   0.732  10.747   0.792  0.8975 -4.1699 -3.4501
 1019MOL0     H34502   0.875  10.517   0.927  1.8361  0.3522 -0.8841
 1019MOL0     H34503   0.852  10.520   0.752  1.9179 -0.0983  1.6843
 1019MOL0     H34504   0.657  10.389   0.887 -3.0460 -0.5307  1.3740
 1019MOL0     H34505   0.600  10.545   0.941 -3.5802 -1.5219 -2.2423
 1019MOL0     H34506   0.493  10.539   0.534  0.7890  1.3810  0.4592
 1019MOL0     H34507   1.067  10.710   0.436  0.8064  0.5738  0.6631
 1019MOL0     H34508   0.958  10.787   0.250 -0.9577 -0.5444 -0.5095
 1020MOL0     O34509   6.205   0.865   1.944  0.0324 -0.3456 -0.9374
 1020MOL0     C34510   6.148   0.973   1.971 -0.2101  0.3787  0.6852
 1020MOL0     O34511   6.161   1.042   2.088  0.0490 -0.5838  0.4642
 1020MOL0     C34512   6.177   0.979   2.204  0.0622 -0.7326 -0.0365
 1020MOL0     C34513   6.168   0.841   2.230 -0.3759 -0.1068 -0.3728
 1020MOL0     C34514   6.200   0.782   2.356 -0.3475 -0.4219  0.2839
 1020MOL0     C34515   6.242   0.860   2.459  0.5584 -0.0430 -0.3005
 1020MOL0     O34516   6.277   0.802   2.580 -0.6145 -0.2190  0.1101
 1020MOL0     C34517   6.189   0.714   2.646  0.0955 -0.1917 -0.7202
 1020MOL0     C34518   6.247   0.663   2.772 -0.2121  0.8328 -0.3590
 1020MOL0     C34519   6.139   0.570   2.838 -1.1824 -0.4849 -1.1631
 1020MOL0     C34520   6.204   0.498   2.963  0.7785  0.2288  0.1793
 1020MOL0     C34521   6.098   0.449   3.063 -0.2741  0.1181  0.1109
 1020MOL0     C34522   5.994   0.564   3.110  0.2693  0.3723  0.5916
 1020MOL0     C34523   5.901   0.522   3.229  0.9076  0.7304  1.2220
 1020MOL0     C34524   5.817   0.418   3.165  0.1375 -0.0040  0.2109
 1020MOL0     N34525   5.688   0.373   3.223 -0.1750 -0.1854 -1.0539
 1020MOL0     C34526   5.680   0.304   3.336 -0.7087  0.2486  0.5084
 1020MOL0     C34527   5.566   0.239   3.339  0.1900  0.2746 -1.1930
 1020MOL0     C34528   5.514   0.119   3.420 -0.4433  1.4479  0.1417
 1020MOL0     C34529   5.389   0.140   3.494  0.4688 -0.3691 -0.6549
 1020MOL0     C34530   5.314   0.011   3.528 -0.3516 -0.2977  0.8649
 1020MOL0     C34531   5.208   0.010   3.645 -0.6725  0.0538 -0.1731
 1020MOL0     O34532   5.125   0.129   3.617 -0.1789  0.0316  0.3621
 1020MOL0     C34533   5.038   0.150   3.721  0.0412 -0.0866  0.8351
 1020MOL0     C34534   4.907   0.147   3.679 -0.1567 -0.3880 -0.8170
 1020MOL0     C34535   4.802   0.133   3.780  0.1281 -0.3310  0.0203
 1020MOL0     C34536   4.844   0.122   3.911  0.3341 -0.2739  0.1167
 1020MOL0     C34537   4.747   0.102   4.020 -0.4565  0.1278 -0.6282
 1020MOL0     O34538   4.623   0.064   3.985 -0.0522  0.2159  0.1959
 1020MOL0     C34539   4.568  -0.034   4.060  0.2137  0.1459  0.1120
 1020MOL0     C34540   4.432  -0.027   4.120 -0.6842 -0.6530  0.3704
 1020MOL0     C34541   4.374  -0.137   4.193  0.0997 -0.0159  0.0910
 1020MOL0     C34542   4.451  -0.255   4.206  0.4467  0.2421 -0.0132
 1020MOL0     O34543   4.407  -0.368   4.272 -0.0625 -0.6678  0.2445
 1020MOL0     C34544   4.282  -0.427   4.222 -0.3840  0.7408  0.6705
 1020MOL0     C34545   4.286  -0.456   4.073  0.3663 -0.3463  0.3179
 1020MOL0     C34546   4.177  -0.527   4.011  0.2994  0.5242 -0.3538
 1020MOL0     C34547   4.201  -0.551   3.865  0.9305  0.7970 -0.4070
 1020MOL0     C34548   4.097  -0.649   3.793 -0.4964 -0.3411 -0.5682
 1020MOL0     C34549   3.967  -0.577   3.770  0.1370  0.6362  0.1820
 1020MOL0     C34550   3.857  -0.666   3.704 -0.0544  0.7770 -0.1906
 1020MOL0     C34551   3.815  -0.613   3.572 -0.2497 -0.1085  0.9080
 1020MOL0    Cl34552   3.921  -0.677   3.440 -0.2254 -0.1161  0.1283
 1020MOL0     C34553   4.578  -0.261   4.148 -0.7972  0.8682  0.6751
 1020MOL0     C34554   4.635  -0.158   4.077  0.5721 -0.0070  0.2069
 1020MOL0     O34555   4.780   0.132   4.136  0.3673 -0.2044  0.5599
 1020MOL0     C34556   4.983   0.128   3.947 -0.2308 -0.5126  0.0598
 1020MOL0     C34557   5.084   0.157   3.853 -0.0085 -0.1034  0.4635
 1020MOL0     N34558   5.494   0.283   3.230 -0.1458  0.3414  0.4277
 1020MOL0     N34559   5.578   0.346   3.150  0.1803  0.3947 -0.0389
 1020MOL0     C34560   6.241   1.001   2.447  0.1527 -0.5941 -0.2423
 1020MOL0     C34561   6.204   1.053   2.324 -0.4896  0.4822 -0.8466
 1020MOL0     C34562   6.065   1.026   1.864 -1.2094  0.8095  0.1820
 1020MOL0     C34563   6.006   1.146   1.882 -0.1621 -0.6019  0.2647
 1020MOL0     C34564   5.933   1.208   1.786 -0.7678 -0.1034  0.2216
 1020MOL0     C34565   5.915   1.149   1.656 -0.7962  0.0513 -0.1016
 1020MOL0     O34566   5.817   1.209   1.576  0.2328 -0.3533  0.4826
 1020MOL0     C34567   5.868   1.232   1.443  1.2074  0.7099 -1.2916
 1020MOL0     C34568   5.967   1.341   1.425 -0.0913 -0.4353  0.8366
 1020MOL0     C34569   5.926   1.479   1.496 -0.1116  0.7552 -0.2223
 1020MOL0     C34570   5.791   1.541   1.475  0.2980  0.8443  0.5351
 1020MOL0     C34571   5.763   1.534   1.332 -0.1099  0.1004  0.3866
 1020MOL0     C34572   5.760   1.521   1.215 -0.0828  0.1151 -0.1376
 1020MOL0     C34573   5.980   1.026   1.631  0.1780 -0.3648  0.3947
 1020MOL0     C34574   6.062   0.972   1.728 -0.7371  0.0137  0.0841
 1020MOL0     H34575   6.161   0.766   2.152 -0.1162 -0.3204 -0.1959
 1020MOL0     H34576   6.199   0.673   2.360  0.5666 -0.4246  0.6333
 1020MOL0     H34577   6.162   0.630   2.581 -1.0599 -1.4199  1.2327
 1020MOL0     H34578   6.096   0.770   2.659 -0.3228  0.8347 -6.0091
 1020MOL0     H34579   6.264   0.736   2.851 -0.1695 -0.7324  1.1495
 1020MOL0     H34580   6.343   0.617   2.747 -0.7137  0.4108 -1.5785
 1020MOL0     H34581   6.106   0.490   2.771  1.3494 -0.6857 -2.2866
 1020MOL0     H34582   6.049   0.627   2.860  0.4552  1.1280  2.2468
 1020MOL0     H34583   6.279   0.420   2.944  0.5034  0.3031 -1.3194
 1020MOL0     H34584   6.263   0.578   3.009 -1.4222  1.1834  1.5140
 1020MOL0     H34585   6.159   0.418   3.148  0.3897  4.2791  1.3641
 1020MOL0     H34586   6.045   0.365   3.018 -1.0747  0.8628 -0.3608
 1020MOL0     H34587   5.928   0.589   3.027 -1.7608 -0.2892  1.9345
 1020MOL0     H34588   6.035   0.661   3.138  0.7006  0.8407 -1.5044
 1020MOL0     H34589   5.953   0.479   3.316 -0.6607 -2.8228  0.5509
 1020MOL0     H34590   5.844   0.610   3.259  0.2314  0.2174  1.4638
 1020MOL0     H34591   5.883   0.332   3.150  3.3426  2.0353  1.5545
 1020MOL0     H34592   5.802   0.444   3.059  2.8389  1.0234  0.0057
 1020MOL0     H34593   5.769   0.283   3.395 -2.1293  1.4400  3.2667
 1020MOL0     H34594   5.587   0.098   3.499  0.2773  0.3583 -0.7832
 1020MOL0     H34595   5.511   0.039   3.346 -1.6468  1.8875 -0.3086
 1020MOL0     H34596   5.328   0.204   3.429 -0.1409 -0.5185 -0.2414
 1020MOL0     H34597   5.400   0.195   3.588 -2.1881  1.2450 -1.1758
 1020MOL0     H34598   5.262  -0.026   3.439  0.1773  2.1824 -0.5679
 1020MOL0     H34599   5.384  -0.071   3.548 -1.3787 -1.6036 -0.6492
 1020MOL0     H34600   5.245   0.021   3.747 -4.9563  0.5441  1.5534
 1020MOL0     H34601   5.152  -0.083   3.653  0.7296 -0.7339  0.8702
 1020MOL0     H34602   4.889   0.121   3.575  0.9312 -0.4085 -1.0136
 1020MOL0     H34603   4.696   0.134   3.760 -0.7655  0.9463  4.0793
 1020MOL0     H34604   4.372   0.063   4.118  0.3526  0.3094  4.2205
 1020MOL0     H34605   4.277  -0.112   4.235  0.6446 -1.9054  2.7351
 1020MOL0     H34606   4.198  -0.357   4.230 -1.7565 -0.8819  1.1839
 1020MOL0     H34607   4.252  -0.513   4.282 -0.5337 -0.7049 -1.3798
 1020MOL0     H34608   4.372  -0.522   4.060  0.4091 -0.6291  1.9299
 1020MOL0     H34609   4.302  -0.363   4.018  1.5647  0.1173  1.4024
 1020MOL0     H34610   4.084  -0.472   4.031 -0.0009 -0.5351  1.3191
 1020MOL0     H34611   4.149  -0.618   4.065 -2.2066  1.7720  0.6394
 1020MOL0     H34612   4.187  -0.457   3.809 -0.0404 -0.4185 -2.3062
 1020MOL0     H34613   4.299  -0.596   3.850  0.1600 -1.4146  0.7905
 1020MOL0     H34614   4.083  -0.742   3.848 -1.6742 -0.8530 -1.6711
 1020MOL0     H34615   4.135  -0.672   3.693  0.0975  1.3701 -0.7730
 1020MOL0     H34616   3.985  -0.499   3.696  1.8167 -0.1856 -0.3314
 1020MOL0     H34617   3.930  -0.523   3.857  0.9420  2.5303 -0.6068
 1020MOL0     H34618   3.901  -0.766   3.698  1.7950  1.6290 -3.2592
 1020MOL0     H34619   3.775  -0.665   3.776  1.4773 -0.0298  1.6588
 1020MOL0     H34620   3.808  -0.504   3.566 -2.7969 -0.2682 -0.6469
 1020MOL0     H34621   3.710  -0.641   3.556  0.2430 -0.5515 -1.9537
 1020MOL0     H34622   4.643  -0.346   4.165 -2.2964 -0.1229  1.6540
 1020MOL0     H34623   4.726  -0.179   4.021 -0.5085 -1.3738 -1.1409
 1020MOL0     H34624   5.014   0.117   4.050  2.1494 -1.5495 -0.6950
 1020MOL0     H34625   5.189   0.163   3.877 -0.3083  1.4790  1.5078
 1020MOL0     H34626   6.269   1.059   2.534 -3.9908  0.7376  0.4358
 1020MOL0     H34627   6.189   1.161   2.328  0.8358  0.6919 -0.9149
 1020MOL0     H34628   6.006   1.191   1.981 -0.4185  1.7417 -0.7402
 1020MOL0     H34629   5.874   1.295   1.812  1.2415  1.0062  1.2912
 1020MOL0     H34630   5.783   1.262   1.381 -0.7116 -3.5795 -1.0839
 1020MOL0     H34631   5.896   1.137   1.397 -2.8348 -1.0757 -0.4826
 1020MOL0     H34632   6.063   1.306   1.465  0.7846 -0.1642 -0.9273
 1020MOL0     H34633   5.969   1.361   1.318 -4.1548 -2.4911  0.2083
 1020MOL0     H34634   6.008   1.547   1.471 -0.7675  1.0913 -1.5818
 1020MOL0     H34635   5.942   1.451   1.600 -1.6824 -2.8011 -0.7748
 1020MOL0     H34636   5.712   1.486   1.526  2.7255 -5.6740 -1.7669
 1020MOL0     H34637   5.793   1.649   1.496  0.3349  1.2009 -1.1985
 1020MOL0     H34638   5.765   1.510   1.109 -0.5095  2.5431 -0.4660
 1020MOL0     H34639   5.965   0.987   1.531 -2.3386 -1.3347  1.0720
 1020MOL0     H34640   6.121   0.888   1.694 -1.0380  0.7248 -2.3713
 1021MOL0     O34641   0.528   3.272   2.984 -0.4058  0.1222 -0.8802
 1021MOL0     C34642   0.533   3.203   2.887 -0.7188 -1.0374 -0.2350
 1021MOL0     O34643   0.576   3.241   2.767  0.3853 -0.5921  0.5071
 1021MOL0     C34644   0.672   3.341   2.776  0.1210 -0.9082 -0.3017
 1021MOL0     C34645   0.805   3.315   2.815  0.6183 -0.8629  0.5733
 1021MOL0     C34646   0.897   3.418   2.794  0.2723 -0.4272  0.2904
 1021MOL0     C34647   0.858   3.550   2.786 -0.4909 -0.1741 -0.4069
 1021MOL0     O34648   0.941   3.666   2.779 -0.4312  0.1703 -0.0199
 1021MOL0     C34649   1.045   3.663   2.879 -0.2258 -0.3120  0.1972
 1021MOL0     C34650   1.171   3.712   2.802  0.2552 -0.1321 -0.3308
 1021MOL0     C34651   1.216   3.617   2.688 -0.2577 -0.3254 -1.1704
 1021MOL0     C34652   1.288   3.495   2.743  0.1183  0.0097  0.5557
 1021MOL0     C34653   1.301   3.387   2.633 -0.6546  0.8300  0.0298
 1021MOL0     C34654   1.419   3.295   2.649  0.4091  0.4338 -0.6666
 1021MOL0     C34655   1.428   3.182   2.546  0.3830 -0.7067  0.1415
 1021MOL0     C34656   1.531   3.068   2.576 -0.7753 -0.7879  0.5329
 1021MOL0     N34657   1.545   2.981   2.457 -0.0478 -0.3255  0.1800
 1021MOL0     C34658   1.650   2.967   2.379  0.1685 -0.4557 -0.0305
 1021MOL0     C34659   1.615   2.870   2.292 -1.1962 -0.0961 -0.5788
 1021MOL0     C34660   1.704   2.800   2.200  1.0489  0.0033  0.1298
 1021MOL0     C34661   1.831   2.741   2.259 -0.1815  0.1223 -0.2238
 1021MOL0     C34662   1.931   2.689   2.157 -0.2180  1.2878 -0.0612
 1021MOL0     C34663   2.069   2.676   2.223 -0.1425 -0.0548  0.4384
 1021MOL0     O34664   2.144   2.580   2.136 -0.3115  0.6884 -0.4675
 1021MOL0     C34665   2.281   2.585   2.148 -0.5997 -0.1081 -0.3764
 1021MOL0     C34666   2.358   2.576   2.028  0.0661 -0.1035 -0.3047
 1021MOL0     C34667   2.494   2.599   2.024  0.0669 -0.0503 -0.1975
 1021MOL0     C34668   2.560   2.620   2.147 -0.5133  0.6583  0.7123
 1021MOL0     C34669   2.707   2.643   2.141  0.0522 -0.3214  0.1926
 1021MOL0     O34670   2.765   2.644   2.011 -0.0250  0.5733  0.1208
 1021MOL0     C34671   2.902   2.667   2.001 -0.4500 -0.7655  0.6965
 1021MOL0     C34672   2.943   2.755   1.905 -0.0887 -0.0723  0.7069
 1021MOL0     C34673   3.072   2.770   1.867 -0.9339  0.2060  0.5636
 1021MOL0     C34674   3.175   2.693   1.934  0.6562 -0.4244 -0.2503
 1021MOL0     O34675   3.309   2.678   1.899  0.4856  0.3579 -0.7426
 1021MOL0     C34676   3.316   2.639   1.759  0.6427 -0.8093  0.5329
 1021MOL0     C34677   3.264   2.502   1.717  0.3734  0.1043 -0.1174
 1021MOL0     C34678   3.105   2.506   1.697 -0.0730  0.6926  0.3741
 1021MOL0     C34679   3.067   2.389   1.614 -0.0538  0.1927  0.4064
 1021MOL0     C34680   2.922   2.369   1.599  0.4202 -0.2674 -0.9787
 1021MOL0     C34681   2.834   2.484   1.538  0.3387  0.2620  0.5622
 1021MOL0     C34682   2.684   2.485   1.582 -0.2922  0.3097  0.1411
 1021MOL0     C34683   2.624   2.611   1.537  0.4781 -0.2723 -0.6893
 1021MOL0    Cl34684   2.446   2.588   1.502  0.6019  0.2916  0.0748
 1021MOL0     C34685   3.132   2.610   2.044  0.0088 -0.2821 -0.3263
 1021MOL0     C34686   2.999   2.599   2.074  0.0087  0.7715  0.3308
 1021MOL0     O34687   2.763   2.667   2.243  0.4301 -0.4862 -0.5431
 1021MOL0     C34688   2.485   2.632   2.272 -0.8030  1.3491  0.8308
 1021MOL0     C34689   2.348   2.612   2.269 -0.5336 -0.1228  0.0563
 1021MOL0     N34690   1.481   2.836   2.305 -0.4725  1.1133  0.1462
 1021MOL0     N34691   1.439   2.917   2.403  0.4878  0.7628 -0.1136
 1021MOL0     C34692   0.721   3.575   2.776  1.4577  1.1282  0.6299
 1021MOL0     C34693   0.627   3.470   2.759 -0.1662  0.1773 -0.4943
 1021MOL0     C34694   0.522   3.060   2.917 -0.7436  0.7353 -0.5413
 1021MOL0     C34695   0.436   3.002   3.014 -1.0442  0.5247 -0.7269
 1021MOL0     C34696   0.440   2.862   3.035 -0.1156  0.7875 -0.4576
 1021MOL0     C34697   0.512   2.777   2.951  0.2823  0.2573 -0.2312
 1021MOL0     O34698   0.495   2.639   2.974 -0.2886 -0.7169  0.4263
 1021MOL0     C34699   0.569   2.551   2.894 -0.3448  0.2643 -0.4888
 1021MOL0     C34700   0.575   2.417   2.958  0.1238 -0.4286 -1.1381
 1021MOL0     C34701   0.653   2.312   2.882 -0.7590  0.8431  0.4750
 1021MOL0     C34702   0.800   2.327   2.851  0.2186 -0.3442 -0.0358
 1021MOL0     C34703   0.896   2.283   2.955 -0.1697  0.1453 -0.8788
 1021MOL0     C34704   0.972   2.240   3.038  0.1035  0.0139 -0.3810
 1021MOL0     C34705   0.574   2.834   2.845  0.2246 -0.2034 -0.1444
 1021MOL0     C34706   0.584   2.967   2.839  0.3778 -0.9960  0.1136
 1021MOL0     H34707   0.840   3.214   2.837 -0.5254 -1.1594  1.0940
 1021MOL0     H34708   1.002   3.391   2.799 -0.1890 -2.1873  1.5617
 1021MOL0     H34709   1.066   3.565   2.923  3.4340 -0.1301 -0.8241
 1021MOL0     H34710   1.030   3.741   2.954 -0.6222  0.9134 -1.1168
 1021MOL0     H34711   1.255   3.739   2.867  0.2324  1.2198 -0.8189
 1021MOL0     H34712   1.139   3.809   2.764  0.3428  1.4736  3.2316
 1021MOL0     H34713   1.272   3.672   2.612 -0.0409 -2.6476 -2.7635
 1021MOL0     H34714   1.125   3.588   2.636 -0.2627  0.9068 -1.8863
 1021MOL0     H34715   1.389   3.517   2.779  0.6133 -1.5703  0.1678
 1021MOL0     H34716   1.245   3.455   2.835 -1.6484 -0.6663 -0.5138
 1021MOL0     H34717   1.310   3.447   2.542  4.0847  0.6501  0.1425
 1021MOL0     H34718   1.208   3.328   2.641  0.3554 -0.7006  1.0345
 1021MOL0     H34719   1.422   3.254   2.750  1.5478  1.0012 -0.4504
 1021MOL0     H34720   1.504   3.365   2.649  0.0838  0.8606  0.8157
 1021MOL0     H34721   1.329   3.136   2.538 -0.9820  2.3014 -3.7052
 1021MOL0     H34722   1.446   3.233   2.451 -2.0195  0.1206  0.0799
 1021MOL0     H34723   1.487   3.028   2.668 -1.6604  2.1964  1.5072
 1021MOL0     H34724   1.624   3.111   2.613 -0.7161  1.0324 -1.4682
 1021MOL0     H34725   1.748   3.012   2.381  0.0340 -0.1673  2.0206
 1021MOL0     H34726   1.743   2.869   2.125  1.5353  1.8271  1.9573
 1021MOL0     H34727   1.647   2.729   2.139  1.6347  2.4301 -3.5249
 1021MOL0     H34728   1.819   2.662   2.334  1.3647  0.2316  0.1722
 1021MOL0     H34729   1.886   2.823   2.306 -2.3705  1.7510 -0.3467
 1021MOL0     H34730   1.903   2.595   2.108 -0.8357  0.9238  0.9689
 1021MOL0     H34731   1.939   2.766   2.080  3.1798 -0.3138 -1.5258
 1021MOL0     H34732   2.059   2.637   2.325  1.4575 -0.5116  0.4503
 1021MOL0     H34733   2.126   2.769   2.229 -0.1528 -0.0489  0.4457
 1021MOL0     H34734   2.311   2.564   1.931  0.3531  0.5783 -0.5406
 1021MOL0     H34735   2.532   2.599   1.923  1.7486 -0.1230  0.4088
 1021MOL0     H34736   2.862   2.792   1.842  1.2110  1.3096 -0.2329
 1021MOL0     H34737   3.089   2.825   1.775 -0.0541 -2.9536 -1.3455
 1021MOL0     H34738   3.422   2.652   1.735  1.1535 -0.3333  2.7882
 1021MOL0     H34739   3.268   2.717   1.700  1.8578  1.1998  2.0703
 1021MOL0     H34740   3.272   2.436   1.804 -0.4778  0.9885  0.6546
 1021MOL0     H34741   3.325   2.463   1.635  4.2577  1.3788  1.9000
 1021MOL0     H34742   3.085   2.602   1.649  0.7478 -1.6599 -5.6408
 1021MOL0     H34743   3.058   2.505   1.795  0.0260 -0.1893  0.4252
 1021MOL0     H34744   3.121   2.393   1.520  2.9707 -0.6093  1.9863
 1021MOL0     H34745   3.105   2.300   1.666  2.2583 -0.9792 -2.9781
 1021MOL0     H34746   2.897   2.354   1.704  1.4741  0.3663 -0.6198
 1021MOL0     H34747   2.898   2.273   1.553 -1.4704 -0.6476  0.6650
 1021MOL0     H34748   2.825   2.464   1.431 -2.2538  0.5956  0.6586
 1021MOL0     H34749   2.887   2.578   1.553  0.5493  0.1641  0.4307
 1021MOL0     H34750   2.628   2.410   1.526  0.0886  0.0205  0.1399
 1021MOL0     H34751   2.680   2.483   1.691  0.0492  1.5513  0.1931
 1021MOL0     H34752   2.681   2.651   1.452  0.5931 -0.5257 -0.7333
 1021MOL0     H34753   2.627   2.692   1.610  0.4205 -0.2962 -0.6608
 1021MOL0     H34754   3.208   2.558   2.101  0.1993  1.2105  0.8658
 1021MOL0     H34755   2.973   2.520   2.144  1.0799 -0.9911 -1.1665
 1021MOL0     H34756   2.543   2.626   2.364 -0.6761 -1.0827  0.6595
 1021MOL0     H34757   2.296   2.626   2.363 -0.4756 -2.1716  0.4542
 1021MOL0     H34758   0.683   3.677   2.781 -4.0403 -0.5149 -0.5184
 1021MOL0     H34759   0.522   3.482   2.735 -0.7138  0.6482  1.9444
 1021MOL0     H34760   0.383   3.061   3.087  0.2084 -1.4130  1.8931
 1021MOL0     H34761   0.388   2.824   3.123  1.6182  1.6884  1.0467
 1021MOL0     H34762   0.667   2.599   2.905 -1.6047  2.5309  2.6467
 1021MOL0     H34763   0.539   2.559   2.789  0.7572  3.2707 -0.6782
 1021MOL0     H34764   0.615   2.430   3.059 -0.7768  0.0290 -0.8300
 1021MOL0     H34765   0.479   2.369   2.977  1.8733 -3.4816  0.8984
 1021MOL0     H34766   0.608   2.296   2.784  1.3258 -1.2911 -0.2293
 1021MOL0     H34767   0.651   2.222   2.943 -1.7071  0.6342  0.1466
 1021MOL0     H34768   0.828   2.257   2.772  0.6696  0.2104 -0.3735
 1021MOL0     H34769   0.812   2.433   2.826 -1.8933 -0.5464 -2.2184
 1021MOL0     H34770   1.038   2.189   3.106  2.4948 -0.8497 -3.1345
 1021MOL0     H34771   0.629   2.776   2.771  2.0190  0.5318  0.5498
 1021MOL0     H34772   0.648   3.009   2.762  0.5137  0.1356  0.8236
 1022MOL0     O34773   5.563   9.902   2.922  0.1777 -0.7820  0.3163
 1022MOL0     C34774   5.516   9.905   3.035 -0.1788 -0.4884 -0.0741
 1022MOL0     O34775   5.558   9.981   3.139 -0.2096  0.3139  0.2229
 1022MOL0     C34776   5.659  10.070   3.148 -0.8835 -0.2068 -0.0431
 1022MOL0     C34777   5.637  10.179   3.238 -0.5226  0.0160 -0.7248
 1022MOL0     C34778   5.740  10.273   3.259 -0.8564 -1.0663 -0.7569
 1022MOL0     C34779   5.866  10.270   3.197  1.2280 -0.2453 -0.5228
 1022MOL0     O34780   5.968  10.357   3.248  0.2936  0.6952 -0.0849
 1022MOL0     C34781   6.104  10.351   3.202  0.0270  0.7665 -0.4787
 1022MOL0     C34782   6.198  10.449   3.273  0.2041  0.0254  0.4100
 1022MOL0     C34783   6.132  10.589   3.262 -0.0221  0.1831  0.5166
 1022MOL0     C34784   6.235  10.691   3.288  0.0373 -0.2905  0.9271
 1022MOL0     C34785   6.180  10.833   3.278 -0.3923  0.1120 -0.5039
 1022MOL0     C34786   6.289  10.939   3.319 -0.2060 -0.1180 -0.5256
 1022MOL0     C34787   6.237  11.082   3.360 -0.1606 -0.8340  0.2502
 1022MOL0     C34788   6.164  11.152   3.249 -0.0138 -0.5921  0.2487
 1022MOL0     N34789   6.258  11.191   3.146  0.0694 -0.3175 -0.5289
 1022MOL0     C34790   6.339  11.297   3.146 -0.8801 -0.6144 -0.0757
 1022MOL0     C34791   6.395  11.301   3.027 -0.2867 -0.1321 -0.2489
 1022MOL0     C34792   6.503  11.404   2.990  0.5679  0.4260 -0.7278
 1022MOL0     C34793   6.440  11.541   2.959 -0.1381  0.5035  0.0630
 1022MOL0     C34794   6.334  11.542   2.842 -0.0505 -0.4773 -0.1518
 1022MOL0     C34795   6.377  11.461   2.718 -0.3317 -0.2825 -0.3844
 1022MOL0     O34796   6.290  11.442   2.610  0.4329 -0.1008 -0.3882
 1022MOL0     C34797   6.198  11.342   2.592 -0.9973 -0.2643 -0.8479
 1022MOL0     C34798   6.162  11.255   2.690  0.3433  0.2314  0.4049
 1022MOL0     C34799   6.053  11.176   2.662 -0.8267  0.9921 -0.3999
 1022MOL0     C34800   5.984  11.171   2.539  0.4428 -1.0451  0.9334
 1022MOL0     C34801   5.874  11.068   2.501 -0.1979 -0.4846  0.1711
 1022MOL0     O34802   5.823  10.994   2.601  0.1634 -0.6052  0.3264
 1022MOL0     C34803   5.732  10.899   2.571  0.6069  0.8622  0.0493
 1022MOL0     C34804   5.778  10.769   2.550  0.3539 -0.6482 -0.2130
 1022MOL0     C34805   5.693  10.665   2.511 -0.6959  0.0477  0.0789
 1022MOL0     C34806   5.557  10.691   2.493  0.4410 -0.1158  0.6994
 1022MOL0     O34807   5.470  10.594   2.465  0.1070 -0.6308  0.2426
 1022MOL0     C34808   5.525  10.480   2.387  0.8496 -0.6532  0.2966
 1022MOL0     C34809   5.406  10.403   2.341 -0.6855 -0.3933 -1.0147
 1022MOL0     C34810   5.452  10.311   2.221  0.1203  0.7490  0.0439
 1022MOL0     C34811   5.326  10.238   2.168  0.0707 -0.0764 -0.0124
 1022MOL0     C34812   5.355  10.158   2.040  0.0364  0.7811  0.6294
 1022MOL0     C34813   5.243  10.081   1.995  0.3566  0.8301  0.6812
 1022MOL0     C34814   5.274   9.955   1.905 -0.6853 -0.1119 -0.3810
 1022MOL0     C34815   5.162   9.923   1.817 -0.1237 -0.2006  0.0269
 1022MOL0    Cl34816   5.028   9.868   1.917  0.3478  0.4539 -0.3641
 1022MOL0     C34817   5.515  10.827   2.497 -0.4900  0.0393 -0.2181
 1022MOL0     C34818   5.603  10.930   2.537 -0.1669 -0.3009 -0.6983
 1022MOL0     O34819   5.839  11.068   2.383 -0.1021  0.7628 -0.1740
 1022MOL0     C34820   6.010  11.273   2.443  0.0339 -0.6882 -0.1269
 1022MOL0     C34821   6.124  11.351   2.473  0.1990  0.7330 -0.0456
 1022MOL0     N34822   6.361  11.189   2.957  0.1042  0.3474  0.5473
 1022MOL0     N34823   6.272  11.127   3.028 -0.5982  0.4414 -0.8490
 1022MOL0     C34824   5.886  10.166   3.105  1.2798  0.2958 -0.0629
 1022MOL0     C34825   5.786  10.073   3.080  1.2544 -0.3906 -0.6056
 1022MOL0     C34826   5.407   9.814   3.073 -0.2183 -0.8315 -0.1743
 1022MOL0     C34827   5.355   9.801   3.199 -0.5962 -0.0897 -0.8506
 1022MOL0     C34828   5.244   9.714   3.222 -0.5214 -0.0334 -0.3723
 1022MOL0     C34829   5.176   9.648   3.116 -0.2395  0.0225  0.1999
 1022MOL0     O34830   5.069   9.571   3.132  0.4944 -0.3186  0.3115
 1022MOL0     C34831   4.976   9.572   3.246  0.2609 -0.4243  0.5084
 1022MOL0     C34832   4.899   9.708   3.269  0.0809 -0.6774 -0.0321
 1022MOL0     C34833   4.784   9.713   3.383 -1.0758  0.5523 -0.2220
 1022MOL0     C34834   4.831   9.775   3.517 -0.0036  0.4713  0.5978
 1022MOL0     C34835   4.734   9.790   3.618  0.8539  0.3883  0.1170
 1022MOL0     C34836   4.654   9.814   3.704 -0.2795 -0.3584 -0.5328
 1022MOL0     C34837   5.232   9.661   2.993 -0.1269  0.1295 -0.2605
 1022MOL0     C34838   5.337   9.744   2.968 -1.4920 -0.1666  0.0524
 1022MOL0     H34839   5.551  10.188   3.304 -0.2107 -3.2991  0.3204
 1022MOL0     H34840   5.721  10.354   3.329 -0.0811 -2.1660  0.7817
 1022MOL0     H34841   6.103  10.382   3.097  2.5733  2.4584 -0.0915
 1022MOL0     H34842   6.149  10.251   3.212 -3.1514 -1.0768 -2.7067
 1022MOL0     H34843   6.299  10.459   3.235 -0.0009  4.8821  0.4535
 1022MOL0     H34844   6.198  10.409   3.375 -2.8546  0.2718  0.6247
 1022MOL0     H34845   6.049  10.602   3.333 -0.8906  2.1694 -0.7789
 1022MOL0     H34846   6.090  10.591   3.161 -0.8511  1.1995  0.8641
 1022MOL0     H34847   6.292  10.675   3.380  2.8639  2.8112 -0.0789
 1022MOL0     H34848   6.295  10.686   3.197 -0.6546 -0.5830  0.4726
 1022MOL0     H34849   6.095  10.849   3.344  0.4965  2.9817  0.0578
 1022MOL0     H34850   6.149  10.846   3.174 -1.0545 -1.5103 -0.5382
 1022MOL0     H34851   6.357  10.947   3.234  1.0476 -0.9955  0.3555
 1022MOL0     H34852   6.332  10.899   3.411 -0.3624  0.5927 -0.1361
 1022MOL0     H34853   6.168  11.086   3.444  1.7097  0.3890  1.8273
 1022MOL0     H34854   6.325  11.139   3.391 -0.5520  0.9592 -1.6862
 1022MOL0     H34855   6.121  11.243   3.292 -3.7182 -2.5225  1.0669
 1022MOL0     H34856   6.077  11.097   3.213 -2.0994  1.6214  1.6025
 1022MOL0     H34857   6.358  11.366   3.227 -1.3002  2.1454 -2.1601
 1022MOL0     H34858   6.557  11.368   2.902  2.2333  1.2943 -0.0952
 1022MOL0     H34859   6.577  11.421   3.068 -1.1650 -4.6700  2.5502
 1022MOL0     H34860   6.524  11.605   2.931  0.7187 -1.3350 -1.9361
 1022MOL0     H34861   6.395  11.583   3.049 -0.4211  1.3274 -0.4534
 1022MOL0     H34862   6.243  11.491   2.875 -2.0096  0.1233 -4.0530
 1022MOL0     H34863   6.326  11.651   2.830  0.7328 -0.3153  0.7149
 1022MOL0     H34864   6.413  11.361   2.744  0.7895  0.6874  2.0869
 1022MOL0     H34865   6.464  11.513   2.675 -1.1460  3.0590  1.6300
 1022MOL0     H34866   6.217  11.257   2.784  2.0951  4.2406 -0.5165
 1022MOL0     H34867   6.022  11.104   2.737 -3.0936 -0.7813 -2.8490
 1022MOL0     H34868   5.880  10.740   2.574  1.0356 -0.1772 -2.3302
 1022MOL0     H34869   5.735  10.565   2.512 -1.7826 -0.4339 -0.5143
 1022MOL0     H34870   5.585  10.405   2.440  2.4000  0.3983  0.1108
 1022MOL0     H34871   5.588  10.511   2.303  2.3300 -1.5157  1.0376
 1022MOL0     H34872   5.333  10.476   2.305  2.2092  3.3649  0.0531
 1022MOL0     H34873   5.373  10.339   2.424  2.4182 -1.5071 -0.4683
 1022MOL0     H34874   5.534  10.244   2.251  0.9664  0.4294 -2.6602
 1022MOL0     H34875   5.495  10.375   2.143  1.6904 -2.2506 -1.7397
 1022MOL0     H34876   5.283  10.170   2.242 -1.9893 -1.1076 -2.0117
 1022MOL0     H34877   5.249  10.312   2.146  0.8173  0.7767  0.2054
 1022MOL0     H34878   5.426  10.084   2.078 -0.3406  0.4195  0.6362
 1022MOL0     H34879   5.388  10.206   1.948  0.2486 -0.2507  0.1622
 1022MOL0     H34880   5.159  10.143   1.962 -2.7412 -3.0604  0.5260
 1022MOL0     H34881   5.214  10.030   2.087 -2.0660  1.2711  0.2408
 1022MOL0     H34882   5.359   9.983   1.843 -1.8167  0.1320 -1.8657
 1022MOL0     H34883   5.307   9.866   1.959  1.6649  0.4878 -0.7385
 1022MOL0     H34884   5.184   9.851   1.738 -4.6000 -0.7166 -1.0660
 1022MOL0     H34885   5.141  10.016   1.764  1.3729  0.8906  1.2647
 1022MOL0     H34886   5.416  10.856   2.465 -0.1406  1.6034  0.0292
 1022MOL0     H34887   5.571  11.033   2.546 -0.2413 -0.2880 -1.0981
 1022MOL0     H34888   5.940  11.286   2.361 -0.5843 -1.6686  0.2374
 1022MOL0     H34889   6.143  11.434   2.406  2.7880  0.6482  0.4695
 1022MOL0     H34890   5.979  10.159   3.050  0.8257  0.4711 -0.8642
 1022MOL0     H34891   5.814   9.993   3.012  1.7201  0.7998 -1.8609
 1022MOL0     H34892   5.418   9.839   3.279 -0.9390 -1.6169  0.1788
 1022MOL0     H34893   5.218   9.685   3.324  0.6203 -0.0294 -0.0669
 1022MOL0     H34894   5.034   9.542   3.334 -1.1192 -0.6502  1.3617
 1022MOL0     H34895   4.908   9.493   3.214 -1.0539  0.5233  0.8996
 1022MOL0     H34896   4.959   9.797   3.288 -0.6586 -0.1261 -0.2332
 1022MOL0     H34897   4.852   9.726   3.171  0.5445  1.8198  0.1281
 1022MOL0     H34898   4.766   9.610   3.416 -1.3788  0.1585 -1.5383
 1022MOL0     H34899   4.687   9.751   3.350 -2.1842 -0.1493  2.0277
 1022MOL0     H34900   4.907   9.716   3.568 -0.1846  0.9013  1.3718
 1022MOL0     H34901   4.854   9.880   3.493 -0.2036  0.0966 -1.4641
 1022MOL0     H34902   4.568   9.817   3.768 -0.8100 -4.9847 -0.7120
 1022MOL0     H34903   5.166   9.616   2.919  1.5335 -1.7141 -0.7149
 1022MOL0     H34904   5.372   9.751   2.866  1.4890 -2.3855  0.7768
 1023MOL0     O34905  10.689   6.041   6.371 -0.2671  0.4283  0.1472
 1023MOL0     C34906  10.680   5.915   6.375  0.3162 -0.3985  0.2204
 1023MOL0     O34907  10.772   5.825   6.335  1.3048 -0.3157  0.9187
 1023MOL0     C34908  10.891   5.854   6.273 -0.4867  0.5239 -0.4814
 1023MOL0     C34909  10.986   5.740   6.285  0.8618 -1.2413 -0.1003
 1023MOL0     C34910  11.117   5.744   6.232  0.2654  0.2936 -0.5889
 1023MOL0     C34911  11.159   5.860   6.170 -0.4265 -1.1545 -0.2540
 1023MOL0     O34912  11.287   5.857   6.104 -0.3059  0.3211  0.4066
 1023MOL0     C34913  11.341   5.984   6.062  0.3226  0.2884  1.0161
 1023MOL0     C34914  11.491   5.957   6.037  0.0953  1.3741  0.1585
 1023MOL0     C34915  11.568   6.087   6.018  0.0770 -0.1712  0.6958
 1023MOL0     C34916  11.720   6.073   6.020 -0.1155 -0.2947 -0.0836
 1023MOL0     C34917  11.782   5.952   5.942  0.4269 -0.5697 -0.3542
 1023MOL0     C34918  11.930   5.933   5.984 -0.1148 -0.3438 -0.0601
 1023MOL0     C34919  12.014   5.826   5.915  0.0188  0.5068 -0.0739
 1023MOL0     C34920  11.957   5.688   5.921 -0.7252  0.1868 -0.1047
 1023MOL0     N34921  11.868   5.674   5.797 -0.4133  0.4649  0.4677
 1023MOL0     C34922  11.910   5.673   5.664  0.6088 -0.9696 -0.1518
 1023MOL0     C34923  11.799   5.691   5.592  0.6067  0.0691  0.2909
 1023MOL0     C34924  11.798   5.718   5.447 -0.9537 -0.3116 -0.3253
 1023MOL0     C34925  11.692   5.820   5.417  0.3791  0.4132  0.4650
 1023MOL0     C34926  11.679   5.858   5.270  0.1431  0.2768 -0.2756
 1023MOL0     C34927  11.795   5.943   5.226  0.1216  0.0018  0.2067
 1023MOL0     O34928  11.751   5.975   5.090 -0.0136  0.1481  0.0634
 1023MOL0     C34929  11.680   6.093   5.066  0.9758  0.7766  1.1954
 1023MOL0     C34930  11.662   6.118   4.925  0.1368  0.2129 -0.2106
 1023MOL0     C34931  11.578   6.224   4.889 -0.2059  0.9046 -0.6657
 1023MOL0     C34932  11.504   6.299   4.982 -0.1937 -0.1207  0.8583
 1023MOL0     C34933  11.406   6.404   4.936  0.2013  0.7979 -0.1301
 1023MOL0     O34934  11.336   6.376   4.822  0.0164 -0.1855  0.4137
 1023MOL0     C34935  11.263   6.472   4.761 -0.2858 -0.4405  0.0568
 1023MOL0     C34936  11.168   6.432   4.660 -0.0751 -1.2180 -0.1223
 1023MOL0     C34937  11.090   6.520   4.592 -0.0903 -1.0011 -0.1444
 1023MOL0     C34938  11.081   6.662   4.625 -0.4106 -0.3240  0.3247
 1023MOL0     O34939  10.979   6.744   4.588 -0.5548  0.1630 -0.1981
 1023MOL0     C34940  10.873   6.697   4.508 -0.1259 -0.4974  0.7331
 1023MOL0     C34941  10.769   6.808   4.495 -0.0560 -1.8897  0.0303
 1023MOL0     C34942  10.717   6.867   4.630  0.6172  0.4174  0.7837
 1023MOL0     C34943  10.632   6.764   4.715  0.0749 -0.8584 -0.7119
 1023MOL0     C34944  10.500   6.730   4.651  0.0522 -0.4029 -0.6398
 1023MOL0     C34945  10.414   6.624   4.719 -0.9362 -0.7021 -0.7894
 1023MOL0     C34946  10.269   6.643   4.672  0.4838 -0.1593  0.4647
 1023MOL0     C34947  10.173   6.537   4.740  0.7368  0.3979 -0.3962
 1023MOL0    Cl34948  10.235   6.379   4.679 -0.2079 -0.1117 -0.0340
 1023MOL0     C34949  11.170   6.709   4.714 -0.6255  0.3777  0.0886
 1023MOL0     C34950  11.257   6.619   4.783 -0.1616  0.6140  0.1087
 1023MOL0     O34951  11.388   6.504   5.005 -0.4595  0.0881 -0.0519
 1023MOL0     C34952  11.525   6.268   5.117  0.2772  0.6156 -1.0990
 1023MOL0     C34953  11.619   6.169   5.164  0.6718 -0.5848  0.3332
 1023MOL0     N34954  11.692   5.671   5.677 -0.4144 -0.1451 -0.4258
 1023MOL0     N34955  11.736   5.656   5.798 -0.4290  0.0814 -0.0942
 1023MOL0     C34956  11.071   5.980   6.165 -0.0028  0.2056 -0.0826
 1023MOL0     C34957  10.943   5.979   6.230 -0.1322  0.7528  0.7758
 1023MOL0     C34958  10.542   5.849   6.419 -0.3278 -0.2441  0.3537
 1023MOL0     C34959  10.435   5.924   6.471 -0.4881 -0.1319 -1.0092
 1023MOL0     C34960  10.314   5.868   6.506 -0.3739 -0.2147 -0.1708
 1023MOL0     C34961  10.294   5.738   6.497  0.4002  0.2626 -0.2845
 1023MOL0     O34962  10.168   5.692   6.548 -0.0614  0.3321 -0.3600
 1023MOL0     C34963  10.144   5.553   6.577  0.4511 -0.7614  0.1467
 1023MOL0     C34964  10.030   5.545   6.690  0.7114  0.2197 -0.8188
 1023MOL0     C34965   9.993   5.403   6.702  0.3234  0.5146 -0.6510
 1023MOL0     C34966  10.099   5.307   6.779  0.5251  0.4271 -0.2418
 1023MOL0     C34967  10.143   5.369   6.902  0.5254  0.4222  0.7414
 1023MOL0     C34968  10.197   5.425   6.998  0.5839  0.7035  0.6794
 1023MOL0     C34969  10.393   5.654   6.444  0.0711  0.7288 -0.1133
 1023MOL0     C34970  10.517   5.707   6.405 -0.3791  0.0534 -0.0539
 1023MOL0     H34971  10.938   5.650   6.322  1.3020 -1.9780 -1.2624
 1023MOL0     H34972  11.167   5.649   6.217 -2.9408 -1.5733 -0.4514
 1023MOL0     H34973  11.343   6.061   6.140 -3.4172  0.0090  1.6014
 1023MOL0     H34974  11.297   6.028   5.972  0.3556  0.0974  0.9050
 1023MOL0     H34975  11.496   5.893   5.949 -1.7616  0.5902  0.5842
 1023MOL0     H34976  11.535   5.902   6.121 -0.8564  0.5607  0.1422
 1023MOL0     H34977  11.521   6.166   6.078  0.9025 -0.1229  1.3059
 1023MOL0     H34978  11.534   6.121   5.920  4.2028  1.8971 -0.2516
 1023MOL0     H34979  11.755   6.171   5.984 -2.9772  0.9233  0.2418
 1023MOL0     H34980  11.756   6.066   6.124 -1.5508 -1.6132  0.3526
 1023MOL0     H34981  11.785   5.974   5.834 -2.2554 -0.5196 -0.4857
 1023MOL0     H34982  11.732   5.860   5.972  1.7306 -1.8381 -1.8912
 1023MOL0     H34983  11.935   5.918   6.092 -2.0358  0.4452  0.1662
 1023MOL0     H34984  11.980   6.028   5.963 -1.3772 -0.2670 -3.3240
 1023MOL0     H34985  12.041   5.862   5.815 -0.1270  2.6702  0.5955
 1023MOL0     H34986  12.109   5.825   5.969  0.6301  0.2714 -1.1218
 1023MOL0     H34987  11.893   5.678   6.008  0.1309  0.1297  0.5321
 1023MOL0     H34988  12.038   5.614   5.919 -1.9872 -1.2479 -0.7716
 1023MOL0     H34989  12.011   5.675   5.625  0.5918  0.2783 -0.1695
 1023MOL0     H34990  11.777   5.632   5.383 -2.6050 -2.5684  2.9882
 1023MOL0     H34991  11.895   5.762   5.421  1.9899 -4.5236  2.2284
 1023MOL0     H34992  11.706   5.912   5.474  1.5888 -0.8157  2.2601
 1023MOL0     H34993  11.595   5.778   5.448  0.2110  0.7343  0.3764
 1023MOL0     H34994  11.680   5.767   5.209  0.6708 -0.4328  0.7661
 1023MOL0     H34995  11.579   5.900   5.257 -0.5254 -1.2465 -0.2746
 1023MOL0     H34996  11.886   5.883   5.233  0.4470  0.5608  0.9563
 1023MOL0     H34997  11.823   6.036   5.277 -1.1266  0.8762 -0.6474
 1023MOL0     H34998  11.697   6.048   4.850 -1.1001  1.0902 -1.6555
 1023MOL0     H34999  11.567   6.258   4.787  0.3682 -0.8607 -1.3527
 1023MOL0     H35000  11.165   6.326   4.635 -1.2210 -1.4800  0.9972
 1023MOL0     H35001  11.016   6.470   4.531  0.0099 -1.6238  0.2349
 1023MOL0     H35002  10.824   6.611   4.554 -2.2161  1.2855  2.0841
 1023MOL0     H35003  10.909   6.681   4.406 -1.3076 -0.9701  0.3760
 1023MOL0     H35004  10.680   6.768   4.446  0.2956 -1.3307 -1.1006
 1023MOL0     H35005  10.819   6.885   4.435  1.4418 -2.2808  0.7192
 1023MOL0     H35006  10.647   6.945   4.597  0.8476  1.1981  2.0421
 1023MOL0     H35007  10.792   6.922   4.687  0.8118  2.3304 -1.1742
 1023MOL0     H35008  10.683   6.671   4.739 -3.5226 -2.0109  4.2408
 1023MOL0     H35009  10.614   6.798   4.818  0.0708  0.2766 -1.0743
 1023MOL0     H35010  10.514   6.691   4.550 -1.9486 -3.2122  0.0473
 1023MOL0     H35011  10.451   6.827   4.638 -1.7294 -1.4110 -1.8473
 1023MOL0     H35012  10.419   6.626   4.828 -1.6705 -2.5526 -0.6792
 1023MOL0     H35013  10.457   6.526   4.695  3.4276  0.2845  1.8543
 1023MOL0     H35014  10.233   6.742   4.701  1.3807  1.3374 -3.0319
 1023MOL0     H35015  10.250   6.624   4.565 -4.1933 -1.4017  1.2741
 1023MOL0     H35016  10.070   6.539   4.704  1.1810  0.3102 -1.7342
 1023MOL0     H35017  10.168   6.563   4.846 -3.3534  5.8366 -1.5209
 1023MOL0     H35018  11.188   6.813   4.736  0.3098  0.3288 -0.3963
 1023MOL0     H35019  11.325   6.666   4.854 -0.8758  3.2527 -0.8118
 1023MOL0     H35020  11.475   6.324   5.196 -0.7706 -2.6076  0.7240
 1023MOL0     H35021  11.619   6.155   5.271  0.9122  0.5519  0.4922
 1023MOL0     H35022  11.106   6.072   6.120  3.4993 -0.9283  0.0380
 1023MOL0     H35023  10.882   6.067   6.242 -2.0255 -0.4578  0.3908
 1023MOL0     H35024  10.448   6.031   6.483  4.3797 -0.7438  1.7103
 1023MOL0     H35025  10.246   5.935   6.558 -0.2662  1.1641 -1.7567
 1023MOL0     H35026  10.231   5.510   6.627  1.3440  0.8418  0.0419
 1023MOL0     H35027  10.115   5.491   6.491  0.1835 -1.1467  0.5128
 1023MOL0     H35028  10.054   5.597   6.783  1.6415  1.5272 -1.7587
 1023MOL0     H35029   9.937   5.590   6.654 -0.2134  0.8556  2.0894
 1023MOL0     H35030   9.954   5.349   6.616  1.3522 -0.9834 -0.2140
 1023MOL0     H35031   9.899   5.406   6.758  0.3728  0.8928 -0.5861
 1023MOL0     H35032  10.046   5.214   6.801  2.7313 -1.0572 -0.8933
 1023MOL0     H35033  10.185   5.289   6.714  0.8504  1.0342  0.0232
 1023MOL0     H35034  10.245   5.485   7.072 -0.1568  0.9682  0.9588
 1023MOL0     H35035  10.371   5.548   6.438 -1.5991  1.0662 -0.6308
 1023MOL0     H35036  10.592   5.648   6.353 -0.9517  1.0809 -2.1836
 1024MOL0     O35037   2.049   0.534  10.742 -0.2303  0.0189 -0.0297
 1024MOL0     C35038   2.026   0.643  10.787  0.0309 -0.6389  0.3800
 1024MOL0     O35039   1.910   0.710  10.776 -0.4401  0.4859  0.0814
 1024MOL0     C35040   1.799   0.640  10.747  0.7713 -0.1432 -0.2187
 1024MOL0     C35041   1.761   0.630  10.617 -0.0671  0.5143  0.0201
 1024MOL0     C35042   1.659   0.551  10.574  0.7011 -0.3867 -0.7483
 1024MOL0     C35043   1.576   0.488  10.667  0.0496  0.5279  0.0639
 1024MOL0     O35044   1.475   0.392  10.636  1.0562 -0.2618 -0.3260
 1024MOL0     C35045   1.467   0.340  10.503 -0.9403 -1.0496  0.1009
 1024MOL0     C35046   1.325   0.294  10.465 -0.5131  0.7089 -0.2194
 1024MOL0     C35047   1.239   0.409  10.420  0.2429 -0.2175  0.7660
 1024MOL0     C35048   1.122   0.346  10.332 -0.4538  0.2728  0.0812
 1024MOL0     C35049   1.047   0.446  10.253 -0.3057  0.3283  0.6647
 1024MOL0     C35050   0.939   0.495  10.344 -0.1569  0.0944 -0.6917
 1024MOL0     C35051   0.882   0.622  10.266  0.7152 -0.0595 -0.1968
 1024MOL0     C35052   0.754   0.678  10.329  0.0231 -0.3156  0.7594
 1024MOL0     N35053   0.673   0.771  10.242 -0.1896 -0.2537  0.1447
 1024MOL0     C35054   0.688   0.908  10.244  0.0748 -1.0129  0.4219
 1024MOL0     C35055   0.587   0.946  10.162 -0.6562  0.0474 -0.3381
 1024MOL0     C35056   0.547   1.090  10.136 -0.7569 -0.8978  0.0838
 1024MOL0     C35057   0.551   1.104   9.987 -0.3114 -0.6950  0.9157
 1024MOL0     C35058   0.583   1.249   9.941  0.1186 -0.3228 -0.9208
 1024MOL0     C35059   0.465   1.334   9.925  0.4743  0.4658 -0.6423
 1024MOL0     O35060   0.490   1.458   9.859  0.8405  0.4290  0.1179
 1024MOL0     C35061   0.381   1.536   9.843  0.4496  0.0470  0.7924
 1024MOL0     C35062   0.406   1.673   9.824  0.3109 -0.3638  0.4992
 1024MOL0     C35063   0.310   1.762   9.785 -0.9912  0.0122  0.7232
 1024MOL0     C35064   0.175   1.717   9.765 -0.3784 -0.2069 -1.0633
 1024MOL0     C35065   0.061   1.808   9.748 -0.3925  0.1320  0.3325
 1024MOL0     O35066   0.054   1.934   9.806 -0.2697 -0.9197 -0.3873
 1024MOL0     C35067  -0.045   2.023   9.773 -0.0981 -0.4486 -0.1014
 1024MOL0     C35068  -0.038   2.086   9.647  0.0756 -0.3328  0.2470
 1024MOL0     C35069  -0.128   2.185   9.612 -0.5339 -0.4213  0.7764
 1024MOL0     C35070  -0.202   2.255   9.707 -0.0921 -0.0611  0.1597
 1024MOL0     O35071  -0.275   2.370   9.682 -0.3705 -0.5267 -0.3209
 1024MOL0     C35072  -0.251   2.441   9.561  0.1848 -0.4858 -0.6756
 1024MOL0     C35073  -0.271   2.594   9.596 -0.7664  0.2130  0.2145
 1024MOL0     C35074  -0.134   2.654   9.638  0.9547  0.3894 -0.0440
 1024MOL0     C35075  -0.142   2.798   9.698 -0.1741  0.3652  0.3257
 1024MOL0     C35076  -0.013   2.873   9.684 -0.9034 -0.2547 -0.4168
 1024MOL0     C35077  -0.015   3.020   9.705 -0.2352  0.0350 -0.7048
 1024MOL0     C35078  -0.043   3.055   9.851 -0.1120  0.0768 -0.7435
 1024MOL0     C35079   0.013   3.192   9.897 -1.1280 -0.1527  0.5878
 1024MOL0    Cl35080  -0.066   3.320   9.804 -0.3494 -0.6387 -0.0642
 1024MOL0     C35081  -0.217   2.191   9.837  0.9269  0.2777  0.2182
 1024MOL0     C35082  -0.144   2.072   9.860 -0.2766 -0.4475  0.7255
 1024MOL0     O35083  -0.014   1.771   9.653  0.1889  0.9857 -0.1673
 1024MOL0     C35084   0.156   1.581   9.788  0.3609  0.1236 -0.5388
 1024MOL0     C35085   0.251   1.494   9.833  0.5401 -0.4595  0.0513
 1024MOL0     N35086   0.525   0.836  10.106 -0.0620 -0.1598 -0.8289
 1024MOL0     N35087   0.582   0.733  10.157  0.3079  0.2531 -0.0546
 1024MOL0     C35088   1.608   0.513  10.798 -0.1575 -0.3832 -0.5681
 1024MOL0     C35089   1.712   0.589  10.845 -0.0199 -1.0594 -0.0945
 1024MOL0     C35090   2.128   0.720  10.857 -1.0855 -0.0618 -0.6470
 1024MOL0     C35091   2.220   0.651  10.928 -1.0552 -0.7615  0.2435
 1024MOL0     C35092   2.315   0.714  10.998  0.5878  0.3653 -0.9759
 1024MOL0     C35093   2.323   0.853  11.005  0.8770  0.5933 -0.6597
 1024MOL0     O35094   2.405   0.898  11.111 -0.6576 -0.5999  0.0003
 1024MOL0     C35095   2.410   1.039  11.149 -0.3454  0.9382 -0.6440
 1024MOL0     C35096   2.490   1.058  11.286  0.5019  1.0894  0.0183
 1024MOL0     C35097   2.636   1.018  11.273 -0.2545 -1.5551 -0.6138
 1024MOL0     C35098   2.686   0.949  11.399  0.4356  0.4074 -0.2450
 1024MOL0     C35099   2.613   0.828  11.438 -0.9025  0.1426  0.6203
 1024MOL0     C35100   2.561   0.725  11.481  0.6102  0.2248  0.6055
 1024MOL0     C35101   2.235   0.923  10.920  0.3272  0.3616  0.9005
 1024MOL0     C35102   2.132   0.857  10.846  0.0748 -0.5487 -0.4428
 1024MOL0     H35103   1.814   0.679  10.537  0.1789  0.4611  0.1495
 1024MOL0     H35104   1.640   0.550  10.467 -1.1407 -2.6651 -0.4785
 1024MOL0     H35105   1.541   0.259  10.496  1.1767  0.6526  1.5703
 1024MOL0     H35106   1.504   0.416  10.434 -1.3501 -0.5436  0.4343
 1024MOL0     H35107   1.278   0.257  10.557 -0.2559  3.2799  1.0430
 1024MOL0     H35108   1.325   0.216  10.388 -2.0151  1.3605 -0.9294
 1024MOL0     H35109   1.289   0.488  10.362 -0.7868 -0.0949  0.0192
 1024MOL0     H35110   1.219   0.467  10.510  1.7521 -0.2886  1.1825
 1024MOL0     H35111   1.165   0.277  10.258  1.0459 -0.4054  1.5192
 1024MOL0     H35112   1.054   0.285  10.393  1.2589 -0.8257  0.9983
 1024MOL0     H35113   1.008   0.385  10.171 -0.7575 -1.8295  2.3688
 1024MOL0     H35114   1.108   0.530  10.221 -0.3603  1.3664  3.0907
 1024MOL0     H35115   0.981   0.527  10.440 -0.7883 -2.0977  0.3905
 1024MOL0     H35116   0.861   0.421  10.364 -0.5416  0.1261 -2.0192
 1024MOL0     H35117   0.955   0.702  10.260  2.5654 -1.6989 -0.4799
 1024MOL0     H35118   0.848   0.598  10.165  0.6564  1.4400 -0.5469
 1024MOL0     H35119   0.798   0.744  10.405  0.9117  1.9048 -1.5436
 1024MOL0     H35120   0.690   0.603  10.376  0.1836  0.8336  2.9710
 1024MOL0     H35121   0.762   0.961  10.303  0.0441 -1.5889  0.9887
 1024MOL0     H35122   0.616   1.160  10.185  0.6192 -0.6465 -2.0531
 1024MOL0     H35123   0.446   1.102  10.176  0.4140  1.6646  2.6477
 1024MOL0     H35124   0.452   1.070   9.957 -1.5062  0.5423  3.1045
 1024MOL0     H35125   0.639   1.052   9.949 -1.3895 -0.9800 -1.3231
 1024MOL0     H35126   0.640   1.300  10.019 -2.1653  0.8219  0.1101
 1024MOL0     H35127   0.656   1.241   9.859  0.6250 -1.0846 -0.3994
 1024MOL0     H35128   0.402   1.345  10.014 -1.4305  0.5647 -1.9429
 1024MOL0     H35129   0.395   1.286   9.856 -0.4671 -0.0474  0.6378
 1024MOL0     H35130   0.512   1.699   9.828  0.3788 -0.0402 -1.6892
 1024MOL0     H35131   0.347   1.863   9.771  0.8579 -0.4670  1.8010
 1024MOL0     H35132   0.037   2.050   9.577 -0.6111 -1.2810 -0.0281
 1024MOL0     H35133  -0.102   2.225   9.514 -0.6191 -0.1764  0.8529
 1024MOL0     H35134  -0.319   2.402   9.485 -1.8485  2.5648 -0.5617
 1024MOL0     H35135  -0.151   2.420   9.522 -0.7466 -0.3832 -3.3170
 1024MOL0     H35136  -0.327   2.610   9.689  1.5607  3.3079  1.2631
 1024MOL0     H35137  -0.326   2.638   9.513  1.1874 -2.8187 -2.9650
 1024MOL0     H35138  -0.084   2.652   9.541 -1.8470 -0.0729 -1.5985
 1024MOL0     H35139  -0.077   2.602   9.715  0.5618  1.2394  0.8394
 1024MOL0     H35140  -0.231   2.849   9.661 -1.3370 -1.8568 -0.1584
 1024MOL0     H35141  -0.149   2.778   9.805  0.2231 -0.7209  0.1681
 1024MOL0     H35142   0.031   2.860   9.585  1.2909 -2.9733  0.7820
 1024MOL0     H35143   0.049   2.819   9.755 -1.5954 -1.5606 -0.7783
 1024MOL0     H35144  -0.085   3.068   9.636 -0.3821  1.3062  0.2876
 1024MOL0     H35145   0.082   3.066   9.684  0.6942 -0.1418  2.6818
 1024MOL0     H35146  -0.150   3.066   9.871 -0.1529 -1.3700 -0.0057
 1024MOL0     H35147  -0.012   2.976   9.920  1.9928  1.1360 -0.4046
 1024MOL0     H35148   0.122   3.194   9.887 -0.9145 -1.5833  2.2501
 1024MOL0     H35149  -0.017   3.206  10.001  0.1637 -1.8780  1.2353
 1024MOL0     H35150  -0.289   2.224   9.910 -3.2572 -0.0486 -3.3565
 1024MOL0     H35151  -0.147   2.021   9.956 -0.7184  1.0320  1.5329
 1024MOL0     H35152   0.050   1.559   9.774  0.1755  0.3488  0.3915
 1024MOL0     H35153   0.220   1.390   9.844  1.9711 -0.8458  0.7795
 1024MOL0     H35154   1.545   0.466  10.873 -0.7184  0.2264 -0.6518
 1024MOL0     H35155   1.733   0.587  10.952  1.0840 -0.5160 -0.2768
 1024MOL0     H35156   2.225   0.543  10.918  2.8375 -0.5742 -1.8136
 1024MOL0     H35157   2.381   0.642  11.045 -1.6562 -0.6996  0.7681
 1024MOL0     H35158   2.313   1.084  11.173 -0.4246  1.2666 -1.5592
 1024MOL0     H35159   2.459   1.091  11.067 -3.5845  1.7575 -2.2085
 1024MOL0     H35160   2.502   1.165  11.305 -1.4743  2.0280 -3.1409
 1024MOL0     H35161   2.442   1.008  11.371  2.3819  0.9898  1.0637
 1024MOL0     H35162   2.688   1.111  11.250 -1.8495  0.0174  1.7224
 1024MOL0     H35163   2.673   0.959  11.188 -1.9550  0.5456 -2.9614
 1024MOL0     H35164   2.790   0.919  11.382  0.0582 -0.4092 -1.2585
 1024MOL0     H35165   2.671   1.023  11.478  0.8917 -0.4619  0.6820
 1024MOL0     H35166   2.508   0.633  11.497  1.4631 -0.5427 -0.8360
 1024MOL0     H35167   2.229   1.031  10.927  0.0260  0.4901 -1.0357
 1024MOL0     H35168   2.057   0.911  10.789  0.2337 -1.3690 -1.4686
  11.39667  11.39667  11.39667
